FOO
135168
    1MOL0     O    1   4.673   4.588   6.834 -0.0415  0.0975 -0.5830
    1MOL0     C    2   4.762   4.592   6.916 -0.6842 -0.1749 -0.7066
    1MOL0     O    3   4.767   4.675   7.018  0.1760  0.1867  0.6020
    1MOL0     C    4   4.655   4.731   7.067 -0.2287 -0.2875 -0.0258
    1MOL0     C    5   4.540   4.656   7.094 -0.5851  0.4338  0.8019
    1MOL0     C    6   4.417   4.714   7.133  0.0707  0.7157  0.8768
    1MOL0     C    7   4.412   4.856   7.144 -0.1001  0.3719 -0.2342
    1MOL0     O    8   4.292   4.904   7.189  0.0381 -0.2321  0.3065
    1MOL0     C    9   4.277   5.045   7.205  0.5495  0.6685 -0.0266
    1MOL0     C   10   4.133   5.086   7.253 -0.8533 -0.8796  0.2336
    1MOL0     C   11   4.111   5.241   7.237  0.5419  0.9127 -0.3837
    1MOL0     C   12   3.977   5.277   7.304  0.5616  0.3272 -1.0221
    1MOL0     C   13   3.970   5.438   7.324  0.5415  0.2743 -1.1403
    1MOL0     C   14   3.826   5.467   7.364  0.4056  1.1145 -0.3268
    1MOL0     C   15   3.801   5.621   7.368 -0.1939 -0.4832 -0.7623
    1MOL0     C   16   3.680   5.662   7.457  0.7665  0.8560  0.4303
    1MOL0     N   17   3.676   5.809   7.439 -1.0118  0.1237  0.4728
    1MOL0     C   18   3.686   5.894   7.550 -0.4299 -0.1589 -0.1501
    1MOL0     C   19   3.605   5.997   7.519  0.4133  0.1683  0.2031
    1MOL0     C   20   3.559   6.100   7.623  0.4330 -0.4011 -0.2670
    1MOL0     C   21   3.658   6.212   7.630  0.2470  0.2588  0.0041
    1MOL0     C   22   3.681   6.292   7.493  0.2904 -0.7787 -0.6235
    1MOL0     C   23   3.560   6.356   7.437 -0.3431  0.0429  0.0217
    1MOL0     O   24   3.593   6.410   7.303 -0.1953  0.0097  1.0377
    1MOL0     C   25   3.491   6.431   7.217  0.0886  0.2990  0.3274
    1MOL0     C   26   3.527   6.409   7.087  0.5028 -1.3598 -0.0260
    1MOL0     C   27   3.434   6.413   6.989  0.6086 -0.2131 -0.1681
    1MOL0     C   28   3.299   6.443   7.020  0.2117 -0.0049  0.7976
    1MOL0     C   29   3.211   6.460   6.905 -0.5895  0.4227 -0.6249
    1MOL0     O   30   3.143   6.574   6.892 -1.4622 -0.7906  0.3298
    1MOL0     C   31   3.041   6.583   6.805  0.2894  0.5160 -0.0689
    1MOL0     C   32   2.911   6.569   6.854 -0.3527 -0.8159  0.6283
    1MOL0     C   33   2.798   6.602   6.767 -0.2862  0.4628 -0.6568
    1MOL0     C   34   2.822   6.635   6.633  0.4200 -0.1612  0.6282
    1MOL0     O   35   2.705   6.676   6.560  0.2736  0.0152 -0.0053
    1MOL0     C   36   2.700   6.644   6.420  0.1108 -0.3392 -0.0086
    1MOL0     C   37   2.551   6.650   6.382  0.8334  0.0268  0.6358
    1MOL0     C   38   2.470   6.528   6.426  0.4033  0.1195 -0.5429
    1MOL0     C   39   2.341   6.501   6.351  0.0584  0.4948 -0.9900
    1MOL0     C   40   2.238   6.626   6.379 -1.3180 -0.4535  0.3033
    1MOL0     C   41   2.102   6.587   6.329 -0.6030  0.5085  0.6294
    1MOL0     C   42   2.077   6.545   6.181 -0.4431  0.0986 -0.3391
    1MOL0     C   43   2.103   6.662   6.082  0.7156 -0.2084 -1.0088
    1MOL0    Cl   44   1.985   6.798   6.103 -0.9564 -0.2021 -0.4522
    1MOL0     C   45   2.953   6.637   6.581  0.9506 -0.4445 -0.4422
    1MOL0     C   46   3.064   6.615   6.673  0.6217  0.0086  0.7176
    1MOL0     O   47   3.202   6.361   6.832  0.2177  0.1890 -0.4056
    1MOL0     C   48   3.261   6.473   7.143 -0.7492  0.5657  0.7610
    1MOL0     C   49   3.360   6.469   7.251 -0.3892 -0.1008  0.6851
    1MOL0     N   50   3.555   5.984   7.392  0.6872 -0.0918  0.0042
    1MOL0     N   51   3.593   5.867   7.349  0.3843 -0.1256  0.2008
    1MOL0     C   52   4.530   4.938   7.127 -0.0148  0.8899  0.5677
    1MOL0     C   53   4.650   4.873   7.098 -0.0284 -0.0014  0.2340
    1MOL0     C   54   4.888   4.510   6.893  0.3514 -0.7984  0.0798
    1MOL0     C   55   4.976   4.493   7.004 -0.6890 -0.0449 -0.3893
    1MOL0     C   56   5.106   4.437   6.983 -0.8126  0.3642 -0.1181
    1MOL0     C   57   5.139   4.398   6.856 -1.1284 -0.1089 -0.7308
    1MOL0     O   58   5.265   4.380   6.825 -0.2704 -0.4944 -0.5791
    1MOL0     C   59   5.311   4.260   6.763  1.0724  0.6623  0.2324
    1MOL0     C   60   5.419   4.196   6.841 -0.1642  0.1066 -0.0749
    1MOL0     C   61   5.566   4.238   6.818  1.3867  0.0968  0.8692
    1MOL0     C   62   5.648   4.127   6.885 -0.5134  0.8925 -0.1566
    1MOL0     C   63   5.650   4.001   6.802 -0.5912 -0.8752 -0.0581
    1MOL0     C   64   5.663   3.901   6.743  0.2404  1.0768  0.5114
    1MOL0     C   65   5.046   4.387   6.758 -0.1326  0.4693  0.3515
    1MOL0     C   66   4.919   4.444   6.771 -1.0185  0.7072 -0.2791
    1MOL0     H   67   4.556   4.549   7.102 -0.3066  0.3299 -0.8639
    1MOL0     H   68   4.327   4.655   7.145 -0.1314  0.0852 -2.6277
    1MOL0     H   69   4.302   5.100   7.114  1.3203 -1.0645 -0.9307
    1MOL0     H   70   4.341   5.084   7.285  1.0215  2.8354 -1.4071
    1MOL0     H   71   4.125   5.068   7.361 -1.5659  0.2190  0.3770
    1MOL0     H   72   4.065   5.015   7.206  0.3926 -2.0798  0.1565
    1MOL0     H   73   4.112   5.262   7.130 -1.9202  0.4189 -0.5669
    1MOL0     H   74   4.184   5.304   7.289  0.4683 -0.7020  1.8378
    1MOL0     H   75   3.908   5.234   7.231 -0.9834 -0.2930  0.7342
    1MOL0     H   76   3.948   5.234   7.400  2.2955  0.4779 -0.3941
    1MOL0     H   77   3.998   5.474   7.224  0.7970 -1.9754 -1.9324
    1MOL0     H   78   4.044   5.479   7.392  0.4845 -1.1614 -0.1788
    1MOL0     H   79   3.809   5.416   7.459 -2.6105 -0.6693 -1.6858
    1MOL0     H   80   3.752   5.421   7.297 -1.2711  0.6231  1.7736
    1MOL0     H   81   3.894   5.668   7.403 -0.7298  0.1024 -0.0978
    1MOL0     H   82   3.782   5.669   7.271  3.0344  4.2137  0.5306
    1MOL0     H   83   3.685   5.637   7.563 -2.5857  0.6222  0.6565
    1MOL0     H   84   3.582   5.624   7.427  1.0548  2.2000 -2.5692
    1MOL0     H   85   3.726   5.870   7.648 -0.7069 -1.4088 -0.3166
    1MOL0     H   86   3.545   6.058   7.722  2.0819  0.9002  0.5666
    1MOL0     H   87   3.457   6.131   7.597 -1.8129 -3.4213  3.8425
    1MOL0     H   88   3.745   6.157   7.666 -1.4199 -0.3527  3.5664
    1MOL0     H   89   3.624   6.280   7.709  1.2644  0.8480 -0.0537
    1MOL0     H   90   3.759   6.365   7.516 -1.7744  1.0549  0.8828
    1MOL0     H   91   3.715   6.226   7.412  4.0643 -1.1247  1.0036
    1MOL0     H   92   3.528   6.440   7.499 -0.5673  0.5892 -0.8139
    1MOL0     H   93   3.473   6.290   7.431 -0.8701  0.7741 -0.7594
    1MOL0     H   94   3.628   6.383   7.060  0.4483  0.0681 -1.7922
    1MOL0     H   95   3.443   6.409   6.880 -0.1952 -0.5758 -0.2254
    1MOL0     H   96   2.909   6.543   6.959  4.1165 -2.3083  0.5340
    1MOL0     H   97   2.695   6.598   6.799 -0.1030 -2.0099 -0.1824
    1MOL0     H   98   2.740   6.545   6.397  1.0785  0.5549 -2.5579
    1MOL0     H   99   2.758   6.721   6.368 -0.3768  0.7094  0.9540
    1MOL0     H  100   2.541   6.651   6.273  1.3739 -1.4957  0.5456
    1MOL0     H  101   2.504   6.741   6.420  2.5793  1.7028 -0.9664
    1MOL0     H  102   2.452   6.543   6.533 -1.5521 -0.5252 -0.7406
    1MOL0     H  103   2.531   6.437   6.421  1.3936  0.7264 -0.0055
    1MOL0     H  104   2.359   6.487   6.244  1.0155  0.6093 -0.8567
    1MOL0     H  105   2.298   6.408   6.390 -0.2369  0.9264 -0.2656
    1MOL0     H  106   2.260   6.700   6.302  0.2950 -2.5817 -1.4162
    1MOL0     H  107   2.247   6.666   6.480  1.5759 -0.3955  0.1152
    1MOL0     H  108   2.037   6.674   6.340  1.3187  2.4613 -2.0958
    1MOL0     H  109   2.068   6.514   6.403 -2.7396  1.7302  0.9314
    1MOL0     H  110   2.140   6.461   6.152 -0.5926 -0.2175  0.2526
    1MOL0     H  111   1.976   6.509   6.158 -0.3143 -0.4732 -0.0071
    1MOL0     H  112   2.088   6.619   5.983 -2.0926 -1.0218 -0.3457
    1MOL0     H  113   2.205   6.699   6.093  0.6359 -0.7742  3.8098
    1MOL0     H  114   2.962   6.665   6.477 -1.9593 -0.7529 -0.8564
    1MOL0     H  115   3.162   6.639   6.633  1.8821 -2.1167  2.3224
    1MOL0     H  116   3.168   6.501   7.192  1.3230  1.2643  4.7604
    1MOL0     H  117   3.325   6.494   7.350  1.0642  3.5504  0.4380
    1MOL0     H  118   4.529   5.046   7.132  1.7006  0.8981  1.3039
    1MOL0     H  119   4.746   4.924   7.099  0.1826 -0.3651  1.9158
    1MOL0     H  120   4.960   4.529   7.106  3.0888 -0.0459  0.3371
    1MOL0     H  121   5.181   4.406   7.056 -1.1942 -2.5991 -0.8619
    1MOL0     H  122   5.341   4.282   6.661 -2.1425  0.5915 -0.8601
    1MOL0     H  123   5.233   4.183   6.754  1.9707 -0.2773  0.2436
    1MOL0     H  124   5.390   4.198   6.946  0.8198 -0.9326  0.2357
    1MOL0     H  125   5.417   4.088   6.821  0.0754 -0.2644  1.7754
    1MOL0     H  126   5.584   4.331   6.874 -1.4802  0.1505  1.8730
    1MOL0     H  127   5.584   4.254   6.711 -2.2720  0.4328  0.1545
    1MOL0     H  128   5.748   4.153   6.921 -1.1028 -1.1446  3.3398
    1MOL0     H  129   5.610   4.105   6.985 -2.1804 -2.4912 -1.4193
    1MOL0     H  130   5.676   3.807   6.694  2.3525  1.7675 -0.3870
    1MOL0     H  131   5.070   4.349   6.659  1.3310 -0.2325  0.9550
    1MOL0     H  132   4.850   4.457   6.688  0.3038 -0.4957 -1.6178
    2MOL0     O  133   9.670   3.118   4.101  0.1055  0.0053  0.1635
    2MOL0     C  134   9.678   3.205   4.189 -0.4850  0.4779 -0.8337
    2MOL0     O  135   9.659   3.342   4.182  0.6525  0.4688 -0.1708
    2MOL0     C  136   9.620   3.410   4.068 -0.4122 -0.2487 -0.0169
    2MOL0     C  137   9.589   3.541   4.089 -0.7268 -0.2132  0.2464
    2MOL0     C  138   9.550   3.620   3.985 -0.2865 -0.1807 -0.6320
    2MOL0     C  139   9.557   3.573   3.860  0.3608 -0.3632  0.7593
    2MOL0     O  140   9.528   3.650   3.750 -0.2759 -0.5042 -0.0465
    2MOL0     C  141   9.627   3.762   3.728 -0.5306  0.8932 -0.0954
    2MOL0     C  142   9.610   3.818   3.588  0.1281 -0.3342  0.4337
    2MOL0     C  143   9.709   3.931   3.542 -0.4228 -0.2894 -0.1372
    2MOL0     C  144   9.802   3.875   3.432 -0.1307 -0.4809  0.4137
    2MOL0     C  145   9.914   3.972   3.387  0.1550  0.9727  0.4461
    2MOL0     C  146  10.023   4.013   3.500 -0.6121  0.1523  0.2160
    2MOL0     C  147  10.129   3.914   3.552  0.3543 -0.1571  0.1292
    2MOL0     C  148  10.078   3.821   3.658 -0.9758  0.5630  1.4039
    2MOL0     N  149  10.039   3.886   3.782 -0.6649 -0.8523  0.1740
    2MOL0     C  150  10.117   3.977   3.859 -0.3962 -0.5767 -1.1538
    2MOL0     C  151  10.042   3.994   3.971  0.6203 -0.6474 -0.2278
    2MOL0     C  152  10.076   4.060   4.097 -0.5742 -0.5112 -0.2778
    2MOL0     C  153  10.220   4.016   4.158 -0.5345  0.5216  0.2279
    2MOL0     C  154  10.215   3.889   4.249  0.8634 -0.9595  0.9251
    2MOL0     C  155  10.356   3.845   4.275 -0.3232  0.1610 -0.0828
    2MOL0     O  156  10.366   3.710   4.339 -0.1460  0.8785 -0.2247
    2MOL0     C  157  10.490   3.678   4.385  0.2572 -0.2463 -0.0832
    2MOL0     C  158  10.496   3.555   4.452 -0.2155  0.3473 -0.3405
    2MOL0     C  159  10.618   3.506   4.516 -0.2905  0.2095  0.8281
    2MOL0     C  160  10.736   3.587   4.493 -0.0798  0.3755 -0.5793
    2MOL0     C  161  10.867   3.549   4.563 -0.4033 -0.0012 -0.5526
    2MOL0     O  162  10.944   3.656   4.590 -0.3841 -0.0255 -0.1799
    2MOL0     C  163  11.004   3.677   4.710 -0.7796 -0.5598  0.1393
    2MOL0     C  164  11.058   3.814   4.714 -0.7132  0.4279  0.1693
    2MOL0     C  165  11.118   3.854   4.831  0.6783  0.2506  0.5455
    2MOL0     C  166  11.130   3.763   4.932  0.3466  0.2213 -0.1548
    2MOL0     O  167  11.196   3.773   5.049  0.4122  0.1497  0.2890
    2MOL0     C  168  11.242   3.908   5.079 -0.9137 -1.1943  0.6280
    2MOL0     C  169  11.290   3.892   5.232  0.9298  0.4199 -0.8490
    2MOL0     C  170  11.395   3.777   5.250 -0.0734  0.1074 -0.5761
    2MOL0     C  171  11.416   3.734   5.405  0.4625  0.0525  1.0914
    2MOL0     C  172  11.546   3.644   5.409  0.1015  0.0441 -1.3106
    2MOL0     C  173  11.541   3.573   5.549 -0.7966 -0.2519  0.6372
    2MOL0     C  174  11.678   3.504   5.570  0.5678 -0.6611 -0.2143
    2MOL0     C  175  11.687   3.449   5.712 -0.1600  0.2974 -0.8059
    2MOL0    Cl  176  11.859   3.404   5.735 -0.2099 -0.3587 -0.2359
    2MOL0     C  177  11.077   3.631   4.927 -0.3338 -0.2436  0.2406
    2MOL0     C  178  11.013   3.588   4.820  0.1764 -0.5469 -0.7835
    2MOL0     O  179  10.882   3.435   4.607  0.5120  1.0844  0.4748
    2MOL0     C  180  10.728   3.707   4.424  0.4416 -0.0760 -0.4922
    2MOL0     C  181  10.607   3.750   4.368  0.6917 -0.2470 -0.2110
    2MOL0     N  182   9.914   3.949   3.947  0.5420 -0.1548  0.4871
    2MOL0     N  183   9.910   3.895   3.829  0.1656 -0.2398 -0.1551
    2MOL0     C  184   9.597   3.444   3.825  0.1861  0.6229 -1.3374
    2MOL0     C  185   9.631   3.361   3.940  0.7765  0.1758  0.0614
    2MOL0     C  186   9.716   3.158   4.327  0.3482 -0.2413 -0.7785
    2MOL0     C  187   9.700   3.024   4.358  1.0120 -0.3359  0.7669
    2MOL0     C  188   9.747   2.969   4.476 -0.0348 -0.1225  0.0497
    2MOL0     C  189   9.810   3.044   4.579  0.2894 -0.0035 -0.3205
    2MOL0     O  190   9.847   2.987   4.692 -0.0336  0.1146 -0.5763
    2MOL0     C  191   9.808   3.051   4.812 -0.5231  0.0439 -1.1064
    2MOL0     C  192   9.722   2.947   4.896 -0.8665  0.2825  0.9572
    2MOL0     C  193   9.702   2.977   5.037 -1.2621 -0.2123  0.1449
    2MOL0     C  194   9.611   2.872   5.092 -0.5215 -0.9452  0.1231
    2MOL0     C  195   9.598   2.854   5.235  0.2715  0.0850  0.0606
    2MOL0     C  196   9.580   2.831   5.357  0.5388  0.4877  0.6852
    2MOL0     C  197   9.838   3.181   4.548 -0.0737 -0.5792 -0.9010
    2MOL0     C  198   9.789   3.231   4.424  0.7205  0.5620 -0.0076
    2MOL0     H  199   9.593   3.579   4.191  1.8652 -2.8996  1.3271
    2MOL0     H  200   9.516   3.723   3.998 -1.0716 -0.6663  1.7248
    2MOL0     H  201   9.730   3.724   3.724 -0.5017  1.0311 -0.9388
    2MOL0     H  202   9.598   3.839   3.800 -1.6853  1.1177 -0.7753
    2MOL0     H  203   9.510   3.860   3.601 -0.5049 -1.9434  1.0052
    2MOL0     H  204   9.611   3.740   3.511 -1.0636 -0.3761  0.4509
    2MOL0     H  205   9.777   3.955   3.624  0.5513 -3.6055  0.1874
    2MOL0     H  206   9.658   4.018   3.499 -1.5248 -0.6496  0.4025
    2MOL0     H  207   9.850   3.783   3.467 -1.4746 -0.5271  2.2809
    2MOL0     H  208   9.750   3.850   3.339  2.6892 -0.9049 -1.1676
    2MOL0     H  209   9.858   4.055   3.343 -1.9383 -0.0803  1.0108
    2MOL0     H  210   9.963   3.911   3.312 -2.1461  0.1700 -0.4847
    2MOL0     H  211   9.969   4.054   3.586  0.1969 -1.6025  1.6238
    2MOL0     H  212  10.080   4.101   3.469 -1.9472  0.6441 -0.9222
    2MOL0     H  213  10.164   3.847   3.473 -1.2686 -0.1321 -0.6446
    2MOL0     H  214  10.208   3.974   3.599 -2.5186  3.2072  1.0925
    2MOL0     H  215  10.158   3.750   3.685  0.2683  1.4521  0.2239
    2MOL0     H  216  10.002   3.752   3.618  1.5573 -1.6304 -0.0182
    2MOL0     H  217  10.218   3.998   3.825  0.0689 -1.6971 -0.4832
    2MOL0     H  218  10.000   4.041   4.173 -0.3228  0.8899  0.3489
    2MOL0     H  219  10.076   4.168   4.081 -0.9203 -0.0747  2.2691
    2MOL0     H  220  10.263   4.096   4.219 -0.4982 -0.6247  1.7662
    2MOL0     H  221  10.289   4.008   4.073 -1.3191  1.8983 -0.5719
    2MOL0     H  222  10.161   3.923   4.338 -0.6454 -4.8860  1.7216
    2MOL0     H  223  10.159   3.807   4.204  3.1391 -0.0797 -4.2591
    2MOL0     H  224  10.396   3.928   4.334 -1.3556  0.1068  0.7255
    2MOL0     H  225  10.412   3.835   4.182  2.0665 -1.7307  1.4241
    2MOL0     H  226  10.405   3.498   4.470 -0.0178 -0.1186 -0.7866
    2MOL0     H  227  10.609   3.414   4.573  0.9669  0.1598  0.9717
    2MOL0     H  228  11.053   3.868   4.620  0.5679 -1.1168 -0.8524
    2MOL0     H  229  11.162   3.952   4.845 -1.6003  0.8483  6.6311
    2MOL0     H  230  11.159   3.977   5.058 -0.2791  0.2101  2.4270
    2MOL0     H  231  11.326   3.932   5.014 -1.9140  1.3060  0.1262
    2MOL0     H  232  11.212   3.868   5.306 -0.1168  0.0078 -2.0468
    2MOL0     H  233  11.344   3.982   5.266 -0.2518  0.2744  1.6773
    2MOL0     H  234  11.491   3.803   5.203 -0.1834  0.7135 -0.4775
    2MOL0     H  235  11.357   3.690   5.196  0.6300  0.1147 -1.1035
    2MOL0     H  236  11.435   3.823   5.466  4.3748 -1.2071  2.0261
    2MOL0     H  237  11.324   3.682   5.432  0.8662 -1.6339 -0.5886
    2MOL0     H  238  11.638   3.703   5.412  0.6288 -0.8025  0.5067
    2MOL0     H  239  11.569   3.585   5.320 -0.0559  1.0087 -2.0015
    2MOL0     H  240  11.456   3.505   5.555 -0.8089 -0.4549 -1.2040
    2MOL0     H  241  11.542   3.642   5.634  0.4448  1.7884 -0.9589
    2MOL0     H  242  11.674   3.430   5.491  0.1047 -1.0136  0.1358
    2MOL0     H  243  11.759   3.578   5.563 -0.5310  0.7556  1.1765
    2MOL0     H  244  11.630   3.358   5.732  0.6052 -0.2142 -0.9003
    2MOL0     H  245  11.678   3.527   5.788  0.7258 -1.7206  1.4798
    2MOL0     H  246  11.091   3.558   5.006  1.5257 -2.0927 -1.6303
    2MOL0     H  247  10.976   3.486   4.814  0.5436 -0.6874 -0.6753
    2MOL0     H  248  10.821   3.760   4.407  0.0591  1.4997  1.8161
    2MOL0     H  249  10.608   3.848   4.320  0.4763  0.1409  0.5665
    2MOL0     H  250   9.596   3.394   3.729  0.7898 -2.8018  0.2854
    2MOL0     H  251   9.648   3.257   3.912 -0.7873 -0.3048  0.7875
    2MOL0     H  252   9.673   2.949   4.284  0.7087  0.0255  0.5033
    2MOL0     H  253   9.735   2.863   4.495 -0.9710  0.0909  0.7464
    2MOL0     H  254   9.750   3.143   4.807 -0.7283 -0.0778 -0.9578
    2MOL0     H  255   9.894   3.063   4.877 -1.1117  0.1797 -0.3439
    2MOL0     H  256   9.629   2.927   4.840 -0.8058 -0.1063  0.9959
    2MOL0     H  257   9.782   2.856   4.888  0.3016  1.1501 -0.8642
    2MOL0     H  258   9.665   3.080   5.037  0.8978  0.6214 -0.0901
    2MOL0     H  259   9.801   2.968   5.084 -0.3475  0.0121 -1.6708
    2MOL0     H  260   9.509   2.895   5.060 -0.0633  0.2158 -0.5471
    2MOL0     H  261   9.633   2.770   5.061  0.3851 -0.8045  0.2747
    2MOL0     H  262   9.555   2.801   5.457 -1.8531 -2.5677 -0.6555
    2MOL0     H  263   9.889   3.248   4.616 -1.6346  0.8561 -1.0739
    2MOL0     H  264   9.819   3.335   4.417 -5.2261  2.7274  0.8883
    3MOL0     O  265   0.431   5.727   1.171  0.0943  0.4033 -0.5115
    3MOL0     C  266   0.495   5.707   1.275  0.2241 -0.6237 -0.1515
    3MOL0     O  267   0.545   5.576   1.307  0.2241 -0.3959  0.8864
    3MOL0     C  268   0.563   5.491   1.194  0.0292 -0.7948 -0.4481
    3MOL0     C  269   0.633   5.523   1.074  0.0749 -0.6267  0.0504
    3MOL0     C  270   0.672   5.430   0.984  1.1288  0.0686  1.0443
    3MOL0     C  271   0.620   5.303   0.996  0.0136  0.1831  1.0054
    3MOL0     O  272   0.660   5.195   0.918 -0.0710  0.6400  0.2592
    3MOL0     C  273   0.649   5.231   0.777  0.8551 -0.6391 -0.4469
    3MOL0     C  274   0.551   5.140   0.710  0.6341 -0.9805  0.0042
    3MOL0     C  275   0.407   5.145   0.774 -0.8900 -0.0186  0.3331
    3MOL0     C  276   0.309   5.222   0.691  0.6109  0.1494 -0.1027
    3MOL0     C  277   0.307   5.192   0.546 -0.4737  0.3068  0.0707
    3MOL0     C  278   0.171   5.230   0.474 -0.6349 -1.0535 -0.4662
    3MOL0     C  279   0.142   5.380   0.490 -0.4644 -0.6428  0.1279
    3MOL0     C  280   0.016   5.428   0.399 -0.7114 -0.2397  0.7948
    3MOL0     N  281   0.067   5.488   0.262 -0.2343  0.5495 -0.0942
    3MOL0     C  282   0.107   5.407   0.162 -0.1592  0.8321  0.8512
    3MOL0     C  283   0.159   5.484   0.066 -0.5354 -1.3312 -1.0841
    3MOL0     C  284   0.244   5.434  -0.054  0.1025 -0.1301 -0.0529
    3MOL0     C  285   0.172   5.421  -0.193  0.6927 -0.2731 -0.3591
    3MOL0     C  286   0.055   5.325  -0.188  0.1415  0.0044 -0.3213
    3MOL0     C  287   0.013   5.287  -0.321  0.1637  1.1483 -0.4641
    3MOL0     O  288  -0.103   5.207  -0.313  0.1474 -0.2420  0.5172
    3MOL0     C  289  -0.209   5.208  -0.397 -0.5974 -0.6580 -0.2018
    3MOL0     C  290  -0.323   5.135  -0.350  0.7155 -0.1061  0.6064
    3MOL0     C  291  -0.434   5.113  -0.429 -0.7093  0.0099  0.0553
    3MOL0     C  292  -0.428   5.166  -0.556  0.6252 -0.9343  0.7671
    3MOL0     C  293  -0.545   5.138  -0.646 -0.5066  0.3542  0.5200
    3MOL0     O  294  -0.635   5.046  -0.612  0.2890 -0.5201  0.3665
    3MOL0     C  295  -0.727   5.006  -0.694 -0.5070 -0.2282  0.3350
    3MOL0     C  296  -0.763   4.869  -0.714  0.3748 -0.1045 -0.4067
    3MOL0     C  297  -0.866   4.831  -0.810 -1.6151 -0.5127 -0.5525
    3MOL0     C  298  -0.937   4.923  -0.887  0.5260 -0.8244 -0.4176
    3MOL0     O  299  -1.017   4.867  -0.981  0.2228  0.1501  0.3370
    3MOL0     C  300  -1.031   4.936  -1.102  0.0165 -0.5178 -0.3522
    3MOL0     C  301  -1.035   4.847  -1.221 -0.0592 -0.5039 -0.1835
    3MOL0     C  302  -1.120   4.914  -1.326 -0.2269 -0.3975 -0.0210
    3MOL0     C  303  -1.127   4.823  -1.451 -0.2576  0.5284 -0.3231
    3MOL0     C  304  -1.204   4.881  -1.572  0.0409  0.6632  0.0988
    3MOL0     C  305  -1.201   4.804  -1.706  0.0872  0.4608  0.2031
    3MOL0     C  306  -1.058   4.769  -1.743  0.3807 -0.2953  0.3058
    3MOL0     C  307  -1.028   4.711  -1.882 -0.1366 -0.6963  0.8736
    3MOL0    Cl  308  -1.092   4.547  -1.910  0.5456  0.0280 -0.1937
    3MOL0     C  309  -0.903   5.059  -0.872 -0.2106 -0.0443 -0.2837
    3MOL0     C  310  -0.799   5.093  -0.784  0.5188  0.8995  0.0647
    3MOL0     O  311  -0.528   5.184  -0.760 -0.2668 -0.2416  0.2983
    3MOL0     C  312  -0.323   5.247  -0.602 -0.1825 -0.4554  0.0003
    3MOL0     C  313  -0.212   5.269  -0.523 -0.2196  0.1289 -0.7362
    3MOL0     N  314   0.142   5.614   0.106  1.1007  0.2791 -0.3019
    3MOL0     N  315   0.071   5.612   0.219  0.1855  0.8944  0.3992
    3MOL0     C  316   0.545   5.267   1.114 -0.8677 -0.5871  0.8568
    3MOL0     C  317   0.522   5.361   1.211  0.6209  0.7932  0.4660
    3MOL0     C  318   0.477   5.811   1.377 -0.5734 -0.4352  0.6403
    3MOL0     C  319   0.550   5.811   1.498  0.4573  0.5351 -1.0056
    3MOL0     C  320   0.527   5.911   1.595  0.3298  0.1128 -0.0500
    3MOL0     C  321   0.418   6.002   1.589  0.0934  1.1842 -0.5384
    3MOL0     O  322   0.382   6.099   1.677  0.7138 -0.3587  0.0412
    3MOL0     C  323   0.486   6.142   1.756 -0.4087 -0.4139  0.0030
    3MOL0     C  324   0.444   6.275   1.810  0.3064 -0.0457 -0.5811
    3MOL0     C  325   0.519   6.321   1.934 -1.9336  0.9662 -0.6466
    3MOL0     C  326   0.487   6.458   1.986  0.4611  0.3263 -0.2252
    3MOL0     C  327   0.345   6.468   2.021 -1.1244 -0.4959 -0.4355
    3MOL0     C  328   0.227   6.460   2.039  1.2534 -0.2957  0.1608
    3MOL0     C  329   0.348   5.998   1.470  0.2649 -0.1856  0.4662
    3MOL0     C  330   0.381   5.909   1.361  1.0516 -0.1247  0.1434
    3MOL0     H  331   0.670   5.624   1.061  0.7523 -0.9265 -0.4823
    3MOL0     H  332   0.737   5.458   0.902 -1.2702  2.5302 -0.1514
    3MOL0     H  333   0.750   5.223   0.737  2.5371 -1.0296  3.4443
    3MOL0     H  334   0.604   5.330   0.769  2.0961  0.5711  4.5769
    3MOL0     H  335   0.595   5.040   0.712  1.7179 -0.5952 -2.0131
    3MOL0     H  336   0.555   5.186   0.611 -0.7304 -0.7853  0.0291
    3MOL0     H  337   0.415   5.182   0.877 -1.7995 -2.6830  1.4735
    3MOL0     H  338   0.367   5.044   0.788  0.6262 -0.3349  3.3581
    3MOL0     H  339   0.208   5.196   0.723  0.7073  0.4308  0.4574
    3MOL0     H  340   0.312   5.330   0.708 -0.8010 -0.0263  1.5641
    3MOL0     H  341   0.324   5.084   0.541 -1.1494  0.0787  1.9801
    3MOL0     H  342   0.390   5.239   0.493 -0.0039 -2.3506 -1.7300
    3MOL0     H  343   0.097   5.165   0.522  0.4891 -0.9122  1.5600
    3MOL0     H  344   0.179   5.214   0.366 -2.9394  2.8323 -1.4335
    3MOL0     H  345   0.115   5.409   0.592  0.2601  1.2026 -0.1795
    3MOL0     H  346   0.233   5.436   0.469  0.2206 -0.0392  3.9838
    3MOL0     H  347  -0.054   5.493   0.452 -0.8087 -0.6636  1.1858
    3MOL0     H  348  -0.040   5.338   0.373  0.7167 -0.4060 -2.1022
    3MOL0     H  349   0.115   5.299   0.165 -1.0613  0.6305 -1.4931
    3MOL0     H  350   0.283   5.335  -0.028 -0.0917 -0.2156 -0.0874
    3MOL0     H  351   0.335   5.495  -0.059  0.8051 -1.1526 -0.3122
    3MOL0     H  352   0.248   5.396  -0.268  2.8770  3.4935  0.3676
    3MOL0     H  353   0.140   5.524  -0.208  0.3814 -0.6891 -2.9895
    3MOL0     H  354   0.086   5.237  -0.130  1.8568  1.5692  1.2659
    3MOL0     H  355  -0.029   5.366  -0.130 -0.4987 -3.3213  1.4030
    3MOL0     H  356   0.082   5.214  -0.363 -0.9077 -1.4563  1.9341
    3MOL0     H  357   0.006   5.373  -0.389  2.2805  0.2163 -1.9616
    3MOL0     H  358  -0.328   5.080  -0.256 -1.2934 -1.6914 -0.3484
    3MOL0     H  359  -0.503   5.046  -0.380  0.1308  0.0409  1.3267
    3MOL0     H  360  -0.724   4.785  -0.657  0.1314  1.5717  2.4132
    3MOL0     H  361  -0.883   4.725  -0.825  0.4636 -1.2217  1.5949
    3MOL0     H  362  -0.941   4.995  -1.121 -0.3175  1.3199  3.0326
    3MOL0     H  363  -1.120   4.999  -1.095  0.9721  0.7560  0.6864
    3MOL0     H  364  -1.084   4.751  -1.206 -1.0881 -0.2770 -1.7837
    3MOL0     H  365  -0.937   4.832  -1.268 -0.1710  2.1802 -1.4739
    3MOL0     H  366  -1.084   5.014  -1.350  1.0096 -0.7964  0.1254
    3MOL0     H  367  -1.223   4.922  -1.290 -0.2243 -0.5276  0.0157
    3MOL0     H  368  -1.029   4.779  -1.473 -1.1472 -1.6336 -0.2730
    3MOL0     H  369  -1.176   4.731  -1.415  2.0123 -1.4030 -1.8267
    3MOL0     H  370  -1.153   4.975  -1.593  2.0156 -0.3333  0.2571
    3MOL0     H  371  -1.306   4.918  -1.555 -0.3398  1.1674 -2.7479
    3MOL0     H  372  -1.254   4.853  -1.788 -1.1103 -3.1408 -1.3668
    3MOL0     H  373  -1.258   4.713  -1.684  2.7818 -1.4321 -0.0658
    3MOL0     H  374  -0.999   4.862  -1.740 -1.9795  1.4539 -2.2204
    3MOL0     H  375  -1.029   4.694  -1.669  2.6078 -2.0702 -2.1705
    3MOL0     H  376  -0.919   4.697  -1.879  0.1138  1.1760  3.1168
    3MOL0     H  377  -1.057   4.782  -1.960  2.2564 -1.6448 -1.0363
    3MOL0     H  378  -0.958   5.133  -0.928 -3.5124  0.9607  3.7225
    3MOL0     H  379  -0.780   5.199  -0.778 -0.6169  1.1459 -0.4717
    3MOL0     H  380  -0.329   5.295  -0.699  1.0065 -3.0047 -1.4321
    3MOL0     H  381  -0.123   5.326  -0.547  1.7409 -1.4746  2.0585
    3MOL0     H  382   0.518   5.164   1.134 -0.9270 -0.8325 -0.4053
    3MOL0     H  383   0.472   5.331   1.303 -2.5924  3.9515 -0.0443
    3MOL0     H  384   0.633   5.743   1.511 -1.7043 -2.0668  0.1260
    3MOL0     H  385   0.592   5.915   1.681 -0.3027  0.3362  0.4238
    3MOL0     H  386   0.578   6.144   1.697 -0.8465 -3.2662 -0.9462
    3MOL0     H  387   0.514   6.075   1.838  0.1551 -1.4107 -0.9605
    3MOL0     H  388   0.461   6.349   1.732  1.1429 -0.5212 -0.8646
    3MOL0     H  389   0.340   6.272   1.844  0.1062  0.5033 -1.1332
    3MOL0     H  390   0.620   6.314   1.895 -2.1830 -2.7567 -0.9281
    3MOL0     H  391   0.498   6.251   2.016 -1.5525  1.7650  0.1517
    3MOL0     H  392   0.555   6.480   2.069  0.4864  1.1807 -0.4660
    3MOL0     H  393   0.508   6.536   1.913 -0.6449  1.2448  0.4026
    3MOL0     H  394   0.121   6.445   2.049  0.6344  0.4156 -3.7591
    3MOL0     H  395   0.257   6.056   1.461  1.1221  1.1163 -0.1739
    3MOL0     H  396   0.325   5.918   1.269 -0.2178 -1.2272  0.7741
    4MOL0     O  397   1.260   5.480  10.114 -0.5108  0.9206 -0.3977
    4MOL0     C  398   1.253   5.598  10.091 -0.3024  0.5341  0.1269
    4MOL0     O  399   1.194   5.651   9.979  0.5534 -0.0273  0.0659
    4MOL0     C  400   1.173   5.580   9.868 -0.5549 -0.3903  0.0544
    4MOL0     C  401   1.051   5.569   9.805  0.3400  0.6339  0.5843
    4MOL0     C  402   1.040   5.502   9.678 -0.5386 -0.0961  0.4102
    4MOL0     C  403   1.152   5.458   9.616  0.3495 -0.1799 -0.3412
    4MOL0     O  404   1.136   5.403   9.487  0.6593  0.1314  0.8942
    4MOL0     C  405   1.161   5.491   9.376 -0.2189  0.1095 -0.3826
    4MOL0     C  406   1.051   5.580   9.332 -0.2055 -0.8373  0.1487
    4MOL0     C  407   0.928   5.496   9.302  0.1952 -1.1905  0.5026
    4MOL0     C  408   0.816   5.589   9.240 -0.5927 -0.5259 -0.4275
    4MOL0     C  409   0.715   5.531   9.143 -0.1785 -0.3923  0.0880
    4MOL0     C  410   0.614   5.433   9.204  0.0145 -0.8040  0.0717
    4MOL0     C  411   0.521   5.357   9.106 -0.3903 -0.6530 -0.9096
    4MOL0     C  412   0.612   5.256   9.023 -0.4969 -1.5701 -0.2927
    4MOL0     N  413   0.524   5.183   8.936 -0.2122  0.1029  0.2340
    4MOL0     C  414   0.448   5.083   8.993 -0.4384  0.2077 -0.6576
    4MOL0     C  415   0.369   5.048   8.897  1.8099 -0.5432 -0.2225
    4MOL0     C  416   0.262   4.944   8.899 -0.1024  0.1048 -0.0577
    4MOL0     C  417   0.123   5.006   8.915  0.3627  0.5943 -0.8954
    4MOL0     C  418   0.098   5.077   9.051  0.6362 -0.7779  0.3351
    4MOL0     C  419   0.089   5.228   9.029  0.2127  0.6448  0.3519
    4MOL0     O  420   0.063   5.283   9.153  1.2610 -0.3723  0.8793
    4MOL0     C  421   0.115   5.402   9.173  1.6765 -1.1972 -0.5085
    4MOL0     C  422   0.124   5.439   9.307 -0.0737  0.3621 -0.2820
    4MOL0     C  423   0.199   5.546   9.357  0.2117 -0.1948  0.4734
    4MOL0     C  424   0.266   5.628   9.260  1.2101  0.1282 -0.2903
    4MOL0     C  425   0.344   5.747   9.296  0.2125  0.5374  0.0859
    4MOL0     O  426   0.410   5.804   9.197  0.0408  0.2560 -1.5657
    4MOL0     C  427   0.450   5.942   9.215 -1.2401  0.2898  1.1682
    4MOL0     C  428   0.391   6.047   9.146  0.4074  0.0960 -0.6241
    4MOL0     C  429   0.434   6.177   9.161 -0.2793  0.3111  0.7456
    4MOL0     C  430   0.529   6.209   9.261 -0.1812  0.2833  0.1776
    4MOL0     O  431   0.560   6.336   9.296 -0.0716 -0.0299  1.0524
    4MOL0     C  432   0.446   6.415   9.324  0.1273 -1.0200 -0.9337
    4MOL0     C  433   0.368   6.381   9.451 -0.6740  0.8984  0.3475
    4MOL0     C  434   0.463   6.351   9.569  0.6312  0.3137  0.2008
    4MOL0     C  435   0.391   6.345   9.703 -0.8287 -0.1789  0.8673
    4MOL0     C  436   0.496   6.367   9.813 -0.6353 -0.0032  0.7774
    4MOL0     C  437   0.586   6.253   9.828 -0.8816 -0.4254 -0.2414
    4MOL0     C  438   0.641   6.241   9.973  0.5597 -0.2014  1.1406
    4MOL0     C  439   0.733   6.354  10.020 -0.1560  0.5460 -0.6255
    4MOL0    Cl  440   0.865   6.377   9.904  0.0103  0.1372  0.2642
    4MOL0     C  441   0.597   6.100   9.333 -0.3660 -0.3320 -0.3031
    4MOL0     C  442   0.551   5.967   9.304 -0.4927 -0.4172 -0.3014
    4MOL0     O  443   0.336   5.777   9.415 -0.7320  0.9501 -0.4782
    4MOL0     C  444   0.249   5.598   9.122  0.2506  0.5593  0.0135
    4MOL0     C  445   0.175   5.488   9.083 -0.4926  0.5005 -1.0003
    4MOL0     N  446   0.400   5.124   8.779 -0.4110 -0.5313 -0.7433
    4MOL0     N  447   0.492   5.204   8.807 -0.0111 -1.6776 -1.1494
    4MOL0     C  448   1.274   5.476   9.679 -0.1681  0.0912 -0.1830
    4MOL0     C  449   1.285   5.538   9.801  0.1654  0.7750  0.3915
    4MOL0     C  450   1.260   5.685  10.211  0.2445  0.3798  0.2403
    4MOL0     C  451   1.273   5.641  10.339  0.4319 -0.0532 -0.7719
    4MOL0     C  452   1.309   5.723  10.437  0.2268 -0.3083 -0.0880
    4MOL0     C  453   1.308   5.867  10.419  0.0704  0.6353 -0.6792
    4MOL0     O  454   1.341   5.941  10.528 -0.4912 -0.2748 -0.6794
    4MOL0     C  455   1.270   6.071  10.543  0.5970  0.0921 -1.1988
    4MOL0     C  456   1.118   6.048  10.569  0.0677  0.0294 -0.8848
    4MOL0     C  457   1.047   6.188  10.584 -0.2207  1.0944  0.2821
    4MOL0     C  458   0.916   6.190  10.671 -0.1992  0.0003  0.1553
    4MOL0     C  459   0.828   6.292  10.621  0.1714  0.4719 -0.1746
    4MOL0     C  460   0.753   6.360  10.563  0.0672  0.2660  0.3570
    4MOL0     C  461   1.297   5.914  10.290  0.7940 -0.3607  0.3783
    4MOL0     C  462   1.264   5.828  10.189 -0.7156 -0.0377 -0.3762
    4MOL0     H  463   0.964   5.607   9.857  0.1320  2.1411 -0.8006
    4MOL0     H  464   0.944   5.476   9.634 -0.8306  1.1822  0.2301
    4MOL0     H  465   1.186   5.435   9.286 -0.3375 -0.0413 -0.3222
    4MOL0     H  466   1.249   5.546   9.411  2.2226 -2.6642 -1.7609
    4MOL0     H  467   1.090   5.644   9.253 -4.1231  0.2637 -1.1164
    4MOL0     H  468   1.025   5.655   9.407  2.8322  0.8110 -0.3115
    4MOL0     H  469   0.894   5.430   9.382 -0.4043 -0.7901  0.5853
    4MOL0     H  470   0.967   5.425   9.229 -2.2257  0.1740 -2.3064
    4MOL0     H  471   0.771   5.636   9.328  0.3727 -0.0301 -0.1909
    4MOL0     H  472   0.867   5.674   9.195  1.7783 -1.9285 -0.5260
    4MOL0     H  473   0.770   5.478   9.065  1.3702 -0.2682  1.0542
    4MOL0     H  474   0.654   5.617   9.114 -2.3783 -2.7068 -2.7234
    4MOL0     H  475   0.549   5.490   9.271 -2.1756 -2.0180 -0.8934
    4MOL0     H  476   0.664   5.354   9.260 -2.0398 -2.3899 -0.1982
    4MOL0     H  477   0.458   5.289   9.165  1.1504 -3.5726 -2.4370
    4MOL0     H  478   0.464   5.426   9.043  1.2282  1.4582 -0.1924
    4MOL0     H  479   0.674   5.192   9.087  0.1569 -1.0183 -0.3677
    4MOL0     H  480   0.681   5.321   8.969 -0.4478 -1.2526  0.1413
    4MOL0     H  481   0.459   5.047   9.095 -1.2537 -1.3908 -1.1072
    4MOL0     H  482   0.278   4.874   8.981  1.8943  0.2913 -0.2318
    4MOL0     H  483   0.275   4.869   8.820 -2.1353 -2.2557  1.6669
    4MOL0     H  484   0.058   4.917   8.917 -0.4779  1.2066  0.6057
    4MOL0     H  485   0.090   5.064   8.829 -3.6586 -1.7162 -1.1899
    4MOL0     H  486   0.005   5.042   9.098  0.1071  0.7334  0.4648
    4MOL0     H  487   0.175   5.059   9.126  0.4833 -2.5692  0.1254
    4MOL0     H  488   0.011   5.261   8.960 -1.1241 -3.5090 -0.3945
    4MOL0     H  489   0.183   5.265   8.986  0.2085  1.8939  1.3568
    4MOL0     H  490   0.084   5.370   9.380 -1.4946  1.1160 -0.3165
    4MOL0     H  491   0.205   5.578   9.461  1.6201  1.7080 -0.1299
    4MOL0     H  492   0.311   6.020   9.078  0.7403 -0.5969 -0.7574
    4MOL0     H  493   0.388   6.248   9.093 -1.2447 -1.9418 -1.0905
    4MOL0     H  494   0.386   6.429   9.234 -0.0475  1.9138 -0.4557
    4MOL0     H  495   0.488   6.515   9.340  1.0647 -1.5972  0.3565
    4MOL0     H  496   0.311   6.291   9.426  1.1931 -1.4058  3.6449
    4MOL0     H  497   0.314   6.475   9.466  0.7904  1.6280  1.3387
    4MOL0     H  498   0.539   6.430   9.570 -2.3438  3.4928  3.4128
    4MOL0     H  499   0.518   6.257   9.556  0.5571  0.4770 -1.4206
    4MOL0     H  500   0.318   6.426   9.709 -1.6998 -0.9258  0.5806
    4MOL0     H  501   0.332   6.253   9.704  1.4587 -1.7323  1.0230
    4MOL0     H  502   0.431   6.376   9.900  0.1579  1.2720  1.2604
    4MOL0     H  503   0.560   6.456   9.812  0.5821 -0.8570 -0.1174
    4MOL0     H  504   0.673   6.245   9.762 -1.8172 -4.2710 -1.2439
    4MOL0     H  505   0.536   6.160   9.802  0.2046 -2.1632  3.3454
    4MOL0     H  506   0.553   6.242  10.037 -0.8070 -2.4014 -0.5590
    4MOL0     H  507   0.683   6.140   9.981 -2.0006 -1.8822 -3.1385
    4MOL0     H  508   0.758   6.334  10.125 -0.5564  1.8168 -0.2710
    4MOL0     H  509   0.682   6.450  10.015 -0.9149  0.1419 -0.8693
    4MOL0     H  510   0.689   6.128   9.384 -0.1217 -0.2981 -0.7588
    4MOL0     H  511   0.590   5.884   9.362 -2.5199 -2.3185 -1.4899
    4MOL0     H  512   0.290   5.667   9.048  0.6666  2.1416  1.6426
    4MOL0     H  513   0.183   5.468   8.977 -3.2406  0.1528 -1.2234
    4MOL0     H  514   1.366   5.436   9.637  0.2658  2.0441 -1.2324
    4MOL0     H  515   1.380   5.558   9.849 -0.8720  0.9704  2.4819
    4MOL0     H  516   1.252   5.535  10.348 -2.4277  0.5859  1.7580
    4MOL0     H  517   1.315   5.677  10.536  0.8135  0.1035  0.0703
    4MOL0     H  518   1.280   6.137  10.457  1.6399  0.3845 -0.8708
    4MOL0     H  519   1.314   6.117  10.632  2.1797 -2.4734 -0.5327
    4MOL0     H  520   1.065   5.999  10.487 -2.0725 -1.0771  1.0440
    4MOL0     H  521   1.095   5.989  10.659  0.8813  3.2545  1.6103
    4MOL0     H  522   1.012   6.218  10.485  3.7025  1.3924 -1.1978
    4MOL0     H  523   1.122   6.262  10.614  0.3031  0.8522 -0.4131
    4MOL0     H  524   0.851   6.107  10.645 -3.1488  2.0183  0.6079
    4MOL0     H  525   0.944   6.191  10.777 -0.8700 -3.4669  0.4680
    4MOL0     H  526   0.687   6.417  10.501  0.9253 -0.3147 -1.1388
    4MOL0     H  527   1.317   6.018  10.270  0.3920 -0.3622 -0.0364
    4MOL0     H  528   1.252   5.873  10.091 -0.3421 -0.4226 -0.5966
    5MOL0     O  529   8.255   5.283   8.567  0.2803  0.6630  0.1111
    5MOL0     C  530   8.375   5.259   8.575  0.0006 -0.0354  0.6389
    5MOL0     O  531   8.426   5.136   8.596 -0.7996 -0.2225 -0.8033
    5MOL0     C  532   8.358   5.014   8.610 -0.4075 -0.7446  0.7285
    5MOL0     C  533   8.379   4.908   8.519  0.5151 -0.7762  0.2934
    5MOL0     C  534   8.289   4.787   8.528 -0.5589 -1.3867  1.1089
    5MOL0     C  535   8.189   4.780   8.630 -0.3454 -0.2926  0.1465
    5MOL0     O  536   8.103   4.667   8.632 -0.5848  0.0060  0.1030
    5MOL0     C  537   7.976   4.681   8.694  0.0463 -0.0199 -0.3491
    5MOL0     C  538   7.928   4.539   8.695 -0.1754  0.9287 -0.4475
    5MOL0     C  539   7.905   4.476   8.556 -0.4462  0.9300 -0.3240
    5MOL0     C  540   7.858   4.327   8.577 -0.1395  0.0297 -0.6459
    5MOL0     C  541   7.831   4.240   8.452  0.4501 -0.9679 -0.1527
    5MOL0     C  542   7.801   4.097   8.510 -0.9413  0.0979  0.6396
    5MOL0     C  543   7.810   3.997   8.398 -0.5513 -0.7951  0.3645
    5MOL0     C  544   7.698   4.032   8.292  0.8911 -0.7400 -0.1100
    5MOL0     N  545   7.627   3.912   8.245  0.3566 -0.7126 -0.2782
    5MOL0     C  546   7.687   3.803   8.178 -0.2206 -0.7062  0.5793
    5MOL0     C  547   7.585   3.724   8.139 -0.3203 -0.1731  0.8619
    5MOL0     C  548   7.582   3.586   8.079 -0.3079 -0.9520  0.4217
    5MOL0     C  549   7.684   3.577   7.963 -1.1369 -0.1742  0.6755
    5MOL0     C  550   7.645   3.661   7.844  0.5464  0.2613  0.0156
    5MOL0     C  551   7.680   3.605   7.695  0.5666  0.2207 -0.2797
    5MOL0     O  552   7.813   3.559   7.677 -0.9669 -0.3299  0.0930
    5MOL0     C  553   7.820   3.509   7.548 -0.2201  0.0131  0.0832
    5MOL0     C  554   7.905   3.580   7.472  0.9671 -0.2394 -0.4123
    5MOL0     C  555   7.918   3.551   7.340 -0.3422  1.0991 -0.6372
    5MOL0     C  556   7.850   3.452   7.276 -0.1571  0.0185  0.4355
    5MOL0     C  557   7.862   3.443   7.131 -0.3013 -0.5902 -0.2057
    5MOL0     O  558   7.841   3.556   7.064 -0.2033 -0.3024 -0.5450
    5MOL0     C  559   7.823   3.551   6.932  0.2311  0.5146  0.5070
    5MOL0     C  560   7.883   3.650   6.844 -0.6074 -0.0957 -0.1660
    5MOL0     C  561   7.833   3.667   6.714  0.5800  1.3003  1.1967
    5MOL0     C  562   7.726   3.588   6.663 -0.6004 -0.9977  0.1443
    5MOL0     O  563   7.668   3.605   6.540 -0.3273 -0.3966  0.3276
    5MOL0     C  564   7.758   3.641   6.430  1.2759 -0.5815 -1.3551
    5MOL0     C  565   7.664   3.664   6.306  0.3364 -0.0709  0.3002
    5MOL0     C  566   7.577   3.789   6.316 -0.1906  0.6968 -0.0350
    5MOL0     C  567   7.651   3.933   6.317 -0.4389  0.4255  0.0931
    5MOL0     C  568   7.541   4.036   6.369  0.2028 -0.0878  0.4264
    5MOL0     C  569   7.390   4.023   6.324 -0.8625  0.4951 -0.6594
    5MOL0     C  570   7.316   4.142   6.360 -0.2307  1.3177  1.1377
    5MOL0     C  571   7.338   4.263   6.278  0.2229  0.5107  0.8560
    5MOL0    Cl  572   7.280   4.229   6.110  0.5463 -0.0759 -0.1610
    5MOL0     C  573   7.666   3.499   6.750  0.2727  0.4758 -1.0413
    5MOL0     C  574   7.718   3.478   6.875 -0.7775 -0.7648  0.1603
    5MOL0     O  575   7.859   3.328   7.083 -0.5415  0.0038 -0.8155
    5MOL0     C  576   7.757   3.379   7.353 -0.3987 -0.0767  1.4405
    5MOL0     C  577   7.744   3.404   7.489 -0.5370 -0.0093 -0.3074
    5MOL0     N  578   7.462   3.786   8.171 -0.7637 -0.8206  0.8730
    5MOL0     N  579   7.493   3.897   8.236  0.2919 -0.1132  0.2155
    5MOL0     C  580   8.175   4.886   8.714 -0.1021 -0.0040 -0.5400
    5MOL0     C  581   8.249   5.000   8.699  0.2121  0.9187  0.0069
    5MOL0     C  582   8.466   5.361   8.530 -1.2136  1.0708  0.5345
    5MOL0     C  583   8.428   5.485   8.476  0.9538  0.0938  0.3202
    5MOL0     C  584   8.514   5.579   8.448  0.5515 -0.1902  0.6359
    5MOL0     C  585   8.652   5.553   8.443 -1.0107  0.5632  0.1227
    5MOL0     O  586   8.741   5.648   8.409 -0.3922 -0.2538  0.4520
    5MOL0     C  587   8.769   5.752   8.504 -0.1502 -0.6483  0.0323
    5MOL0     C  588   8.772   5.891   8.443 -0.3335  0.0616  0.3574
    5MOL0     C  589   8.882   5.904   8.336  0.3584 -0.8432  1.0489
    5MOL0     C  590   8.873   6.035   8.261 -1.2345 -0.8067  1.4963
    5MOL0     C  591   8.970   6.048   8.143 -0.6555 -0.0051 -0.0101
    5MOL0     C  592   9.049   6.062   8.059  0.4447 -0.2103 -0.0226
    5MOL0     C  593   8.691   5.430   8.481  0.8272  0.3766 -0.1603
    5MOL0     C  594   8.604   5.334   8.530 -1.0006 -0.0894 -0.0473
    5MOL0     H  595   8.456   4.911   8.443  0.7683 -0.2521  0.5599
    5MOL0     H  596   8.293   4.712   8.449  0.4538 -1.3175  1.0811
    5MOL0     H  597   7.911   4.748   8.637  0.2597  0.4710 -0.0187
    5MOL0     H  598   7.983   4.710   8.799  1.5788 -2.2972  0.2615
    5MOL0     H  599   7.841   4.534   8.762  1.7207  1.4256  2.2275
    5MOL0     H  600   8.010   4.474   8.729  1.6531  0.7837 -4.5820
    5MOL0     H  601   7.997   4.482   8.498 -0.6110  3.4376 -0.4000
    5MOL0     H  602   7.826   4.521   8.495  0.0589 -1.9921 -3.4561
    5MOL0     H  603   7.930   4.275   8.641 -2.7084  0.7691  3.1860
    5MOL0     H  604   7.765   4.323   8.634 -0.2705 -0.2004 -0.8716
    5MOL0     H  605   7.922   4.233   8.391  0.6952  0.9346 -0.0914
    5MOL0     H  606   7.744   4.278   8.397  2.2423  0.8217 -1.9592
    5MOL0     H  607   7.707   4.110   8.564 -1.3300  1.0973 -0.2374
    5MOL0     H  608   7.884   4.074   8.577  0.6403 -0.2091 -1.3310
    5MOL0     H  609   7.905   4.005   8.343  0.1487 -0.7793  1.5423
    5MOL0     H  610   7.796   3.896   8.437 -4.1475 -1.0928 -1.3019
    5MOL0     H  611   7.747   4.057   8.197 -1.7924 -2.1137 -2.0095
    5MOL0     H  612   7.625   4.110   8.316 -0.1536 -1.6916 -0.0900
    5MOL0     H  613   7.795   3.792   8.186  0.0585  2.1201  1.9670
    5MOL0     H  614   7.483   3.558   8.040  0.5100 -2.5384 -0.6406
    5MOL0     H  615   7.608   3.513   8.156 -1.4173  1.1323  2.9405
    5MOL0     H  616   7.687   3.471   7.935 -2.8424 -0.6704  2.1308
    5MOL0     H  617   7.781   3.588   8.014 -1.2716 -0.0304  0.9028
    5MOL0     H  618   7.540   3.688   7.853  0.3495  0.0218 -1.4171
    5MOL0     H  619   7.690   3.759   7.864  1.3357 -0.4372  1.9872
    5MOL0     H  620   7.655   3.686   7.626 -1.1065  0.5193  0.6351
    5MOL0     H  621   7.619   3.520   7.663  2.0472 -0.8444 -0.3574
    5MOL0     H  622   7.961   3.666   7.508  0.6275  0.5295 -1.6635
    5MOL0     H  623   7.976   3.628   7.288  0.1017  1.8485  0.9025
    5MOL0     H  624   7.963   3.718   6.873 -2.5512  2.6902 -0.8968
    5MOL0     H  625   7.872   3.752   6.658  0.0420  1.7639  1.5076
    5MOL0     H  626   7.833   3.563   6.414 -1.5812 -3.9167  0.2755
    5MOL0     H  627   7.813   3.736   6.440  3.8530 -1.6509 -3.8759
    5MOL0     H  628   7.586   3.588   6.294 -2.3625  2.1444  2.3746
    5MOL0     H  629   7.720   3.656   6.213 -1.7610 -2.6487 -0.8779
    5MOL0     H  630   7.525   3.781   6.412  0.4923 -0.3710  0.2617
    5MOL0     H  631   7.498   3.793   6.240  0.6051 -1.3301 -1.0393
    5MOL0     H  632   7.743   3.933   6.375  0.9638 -1.3724 -1.9932
    5MOL0     H  633   7.668   3.949   6.211 -1.8046  0.1962 -0.1874
    5MOL0     H  634   7.578   4.131   6.328  0.5535  0.7553  2.5879
    5MOL0     H  635   7.547   4.034   6.478 -2.9898  1.4446  0.7496
    5MOL0     H  636   7.352   3.936   6.378 -1.5313  1.1366 -0.0846
    5MOL0     H  637   7.376   3.991   6.220 -0.8136 -1.9009  0.0021
    5MOL0     H  638   7.210   4.116   6.360  0.4951 -2.0411  1.9608
    5MOL0     H  639   7.339   4.162   6.465 -3.0435  1.7950  1.7312
    5MOL0     H  640   7.439   4.305   6.271 -0.9714  3.3186 -1.1401
    5MOL0     H  641   7.270   4.341   6.314  1.1059  1.6092  0.2082
    5MOL0     H  642   7.571   3.451   6.731 -2.1732  2.8376  3.4593
    5MOL0     H  643   7.662   3.418   6.946 -0.4941  2.5882  3.5371
    5MOL0     H  644   7.697   3.306   7.300  0.5329  1.2865 -1.7096
    5MOL0     H  645   7.686   3.334   7.549  0.6312  0.8143  1.8863
    5MOL0     H  646   8.090   4.893   8.782 -0.6335  1.4386 -1.3125
    5MOL0     H  647   8.210   5.081   8.760  2.5683  3.0992 -1.1965
    5MOL0     H  648   8.325   5.514   8.454  0.8874 -0.6747 -0.4521
    5MOL0     H  649   8.482   5.666   8.392  2.1968 -0.6856 -1.2039
    5MOL0     H  650   8.864   5.733   8.555 -1.3214  0.2469  2.8022
    5MOL0     H  651   8.692   5.751   8.582 -1.3021  1.3174 -1.0038
    5MOL0     H  652   8.677   5.900   8.390 -0.8745  2.0279  1.6037
    5MOL0     H  653   8.771   5.973   8.515 -2.2893  0.9503 -0.6020
    5MOL0     H  654   8.862   5.825   8.262 -0.4359 -1.2905  1.7348
    5MOL0     H  655   8.981   5.886   8.380  0.8896  0.4072  0.4420
    5MOL0     H  656   8.774   6.052   8.219 -0.1112  1.7368 -0.3915
    5MOL0     H  657   8.891   6.107   8.341 -0.1631  0.0879  0.4898
    5MOL0     H  658   9.132   6.071   7.991 -0.1098  0.3550 -0.6353
    5MOL0     H  659   8.799   5.423   8.468  1.0298  2.8986 -0.3041
    5MOL0     H  660   8.645   5.243   8.574 -0.8543 -0.4221 -0.8645
    6MOL0     O  661   7.389   0.351   4.350  0.2360  0.3097 -0.6143
    6MOL0     C  662   7.343   0.458   4.384  0.0482 -0.4248 -0.6833
    6MOL0     O  663   7.399   0.556   4.458 -0.3068  0.3273  0.0115
    6MOL0     C  664   7.527   0.539   4.502 -0.5296 -0.2440  0.4237
    6MOL0     C  665   7.545   0.517   4.638 -0.2384  0.4582  0.4869
    6MOL0     C  666   7.671   0.502   4.699 -0.0529 -0.1473  0.1997
    6MOL0     C  667   7.787   0.517   4.622  0.1755 -0.5962 -0.1521
    6MOL0     O  668   7.907   0.498   4.680  0.6467 -0.3354 -0.1006
    6MOL0     C  669   8.032   0.515   4.606 -0.1876 -0.0711  0.5591
    6MOL0     C  670   8.079   0.653   4.615 -0.6539  0.5416  0.6655
    6MOL0     C  671   8.102   0.699   4.769 -0.5326  0.3071 -0.5875
    6MOL0     C  672   8.095   0.855   4.764 -0.5850  0.0803 -0.7461
    6MOL0     C  673   8.115   0.925   4.911  0.3865  0.2591 -0.1324
    6MOL0     C  674   8.266   0.914   4.943 -0.7350  0.0474 -0.4870
    6MOL0     C  675   8.280   0.968   5.081 -1.4439  0.4753 -0.5761
    6MOL0     C  676   8.420   1.016   5.117 -0.0701  0.2490  0.2795
    6MOL0     N  677   8.436   1.158   5.088 -0.2767 -0.0447 -0.4822
    6MOL0     C  678   8.445   1.268   5.175  0.5175 -0.5776 -0.9704
    6MOL0     C  679   8.493   1.374   5.106 -0.2847 -0.5858 -0.9361
    6MOL0     C  680   8.539   1.511   5.161  0.5289 -0.1751 -0.7451
    6MOL0     C  681   8.684   1.533   5.184  0.4475  0.3687 -0.7935
    6MOL0     C  682   8.749   1.409   5.253 -0.6167 -0.9846  0.2783
    6MOL0     C  683   8.700   1.396   5.388  0.9637 -0.2220 -0.2258
    6MOL0     O  684   8.744   1.489   5.482  0.1690 -0.4561 -0.1618
    6MOL0     C  685   8.733   1.469   5.616  0.3269  1.3108 -0.7779
    6MOL0     C  686   8.672   1.352   5.678  0.6211 -1.1346 -0.4852
    6MOL0     C  687   8.663   1.357   5.826 -0.1088  0.1340 -0.0130
    6MOL0     C  688   8.736   1.442   5.901 -0.6374 -0.3690 -0.1291
    6MOL0     C  689   8.746   1.439   6.051 -0.0374  0.0171 -0.4832
    6MOL0     O  690   8.837   1.526   6.112  0.1323 -0.1036 -0.8233
    6MOL0     C  691   8.852   1.537   6.245 -0.5380  0.6217 -0.2037
    6MOL0     C  692   8.764   1.614   6.320  0.2289  0.6407  0.1211
    6MOL0     C  693   8.774   1.628   6.459  0.7606 -0.2798  0.6264
    6MOL0     C  694   8.879   1.562   6.519  0.0078  0.0309 -0.3414
    6MOL0     O  695   8.901   1.593   6.647 -0.0528  0.3115 -0.2665
    6MOL0     C  696   8.887   1.477   6.730 -0.1214  0.8875  0.8561
    6MOL0     C  697   8.934   1.518   6.870  0.1879  0.1907  0.5841
    6MOL0     C  698   8.932   1.408   6.970  0.4777 -0.0469 -0.4544
    6MOL0     C  699   9.021   1.426   7.102 -0.5663 -1.0620  0.3689
    6MOL0     C  700   9.009   1.309   7.204 -0.8682  0.1526  1.0844
    6MOL0     C  701   9.120   1.336   7.318  1.0465  0.7904 -0.4879
    6MOL0     C  702   9.139   1.483   7.361  0.5692  1.2418 -0.1083
    6MOL0     C  703   9.236   1.520   7.478  0.1325  0.0617  0.4065
    6MOL0    Cl  704   9.207   1.695   7.498  0.4356 -0.0729 -0.2686
    6MOL0     C  705   8.958   1.478   6.448 -0.2746  0.9797  1.3696
    6MOL0     C  706   8.961   1.474   6.306  0.2253 -0.5227 -0.3041
    6MOL0     O  707   8.667   1.373   6.117  0.2731  0.0264  0.1279
    6MOL0     C  708   8.802   1.549   5.838  0.9934  0.0844 -0.5296
    6MOL0     C  709   8.796   1.568   5.703 -0.6406  0.8367  0.8967
    6MOL0     N  710   8.535   1.328   4.978  1.0232  0.6844  0.0035
    6MOL0     N  711   8.490   1.205   4.966  0.6235 -0.2658 -0.2037
    6MOL0     C  712   7.764   0.537   4.485  0.1879  0.4212 -0.0200
    6MOL0     C  713   7.643   0.540   4.417  1.7114 -1.5840 -1.6754
    6MOL0     C  714   7.195   0.488   4.357  1.5356 -0.4289  1.0225
    6MOL0     C  715   7.126   0.581   4.439  0.2482 -0.2302 -0.0296
    6MOL0     C  716   6.989   0.609   4.417 -0.0708  0.3851  0.5399
    6MOL0     C  717   6.915   0.542   4.314  0.9544  0.5465  0.9821
    6MOL0     O  718   6.789   0.575   4.272  0.6301  0.0239 -0.3353
    6MOL0     C  719   6.688   0.601   4.374 -0.1327  0.2907 -0.0482
    6MOL0     C  720   6.648   0.476   4.444  0.0831  0.1753 -0.5278
    6MOL0     C  721   6.557   0.393   4.361  1.0867 -1.0763 -0.8677
    6MOL0     C  722   6.518   0.277   4.457 -0.5157  0.2651 -0.1156
    6MOL0     C  723   6.440   0.170   4.397 -0.3511  0.6039  0.7993
    6MOL0     C  724   6.370   0.084   4.355 -0.1406  0.4650  0.3401
    6MOL0     C  725   6.983   0.440   4.235  0.7639 -0.9599 -0.5416
    6MOL0     C  726   7.118   0.415   4.258 -0.1350 -0.2048 -0.4084
    6MOL0     H  727   7.460   0.508   4.705 -0.3696  0.3961  0.3128
    6MOL0     H  728   7.673   0.506   4.807  0.6495  2.8673  0.1461
    6MOL0     H  729   8.028   0.480   4.503  1.3832 -1.3169  0.8962
    6MOL0     H  730   8.103   0.453   4.662 -2.3558 -2.3492  1.0072
    6MOL0     H  731   7.998   0.714   4.573 -0.6297 -0.5919 -1.0910
    6MOL0     H  732   8.169   0.671   4.555  1.9370 -1.1675  3.7575
    6MOL0     H  733   8.194   0.674   4.821 -0.7555  0.3323 -0.1754
    6MOL0     H  734   8.022   0.668   4.836 -0.2640 -1.1039 -0.8888
    6MOL0     H  735   8.174   0.894   4.698 -0.9078  1.8930 -0.1238
    6MOL0     H  736   8.000   0.893   4.726  0.5872 -0.0625 -4.1815
    6MOL0     H  737   8.059   0.877   4.992  1.2058 -0.1681  0.1960
    6MOL0     H  738   8.090   1.031   4.905 -2.3603 -0.1560  2.0535
    6MOL0     H  739   8.320   0.977   4.872 -1.1840 -1.0201 -1.8100
    6MOL0     H  740   8.302   0.812   4.925  3.8284  1.6251 -1.9508
    6MOL0     H  741   8.207   1.046   5.101 -0.1050  1.3716  1.0692
    6MOL0     H  742   8.266   0.879   5.144 -3.6020  1.3365  0.2703
    6MOL0     H  743   8.494   0.963   5.057 -0.6404  0.0888 -0.2926
    6MOL0     H  744   8.437   0.997   5.223  1.5524 -0.4073 -0.0730
    6MOL0     H  745   8.429   1.270   5.283 -0.3027  0.2512 -1.1018
    6MOL0     H  746   8.484   1.527   5.255  1.8648 -0.2561  0.0714
    6MOL0     H  747   8.511   1.595   5.095  4.3383  3.8390  2.1493
    6MOL0     H  748   8.699   1.617   5.253 -1.6732 -3.2234  4.7860
    6MOL0     H  749   8.731   1.541   5.086  0.1680 -1.8459 -1.1425
    6MOL0     H  750   8.740   1.316   5.195 -2.6870 -0.0529 -1.0119
    6MOL0     H  751   8.855   1.430   5.271 -1.1797  0.6035  2.0577
    6MOL0     H  752   8.750   1.307   5.429 -0.3216 -0.4344  0.9184
    6MOL0     H  753   8.594   1.372   5.395  1.1111 -1.5409 -1.7768
    6MOL0     H  754   8.627   1.274   5.617 -3.2606  1.9087 -1.9631
    6MOL0     H  755   8.603   1.291   5.888 -2.3503  3.6208  1.9237
    6MOL0     H  756   8.678   1.644   6.261 -1.0491  0.6090  1.8778
    6MOL0     H  757   8.704   1.682   6.522 -2.0795 -1.2758 -1.4891
    6MOL0     H  758   8.948   1.394   6.694 -1.6769  0.6811 -1.4962
    6MOL0     H  759   8.784   1.441   6.735  0.2993 -1.0662 -2.0450
    6MOL0     H  760   8.871   1.599   6.909 -0.8298  0.4940 -1.5581
    6MOL0     H  761   9.041   1.537   6.854  0.5308 -3.6208 -3.7247
    6MOL0     H  762   8.969   1.314   6.929  0.6720 -0.5190  0.7472
    6MOL0     H  763   8.828   1.384   6.995  1.2585 -2.9961  0.2702
    6MOL0     H  764   9.128   1.439   7.086 -0.3725 -0.7465  1.7832
    6MOL0     H  765   8.990   1.516   7.157  0.9038 -1.4201  1.8486
    6MOL0     H  766   9.034   1.209   7.167 -1.3502  1.1698 -2.3002
    6MOL0     H  767   8.910   1.307   7.250 -2.5171  3.1485 -1.9299
    6MOL0     H  768   9.218   1.305   7.281  0.3089 -0.9475 -1.0901
    6MOL0     H  769   9.096   1.278   7.407  0.2564  1.4839 -0.2326
    6MOL0     H  770   9.183   1.515   7.266 -2.0934 -2.2988 -2.7773
    6MOL0     H  771   9.045   1.533   7.388 -0.2568 -0.9695  1.3837
    6MOL0     H  772   9.343   1.505   7.460 -0.3157 -0.1523 -2.7022
    6MOL0     H  773   9.206   1.462   7.565 -0.3461 -4.1742 -2.2918
    6MOL0     H  774   9.036   1.426   6.504 -1.0213 -0.0770  1.4603
    6MOL0     H  775   9.028   1.415   6.245  0.6424  1.8313 -2.2973
    6MOL0     H  776   8.853   1.626   5.895 -0.2427 -0.2513  1.1299
    6MOL0     H  777   8.862   1.641   5.658  2.2716 -0.8762  2.0984
    6MOL0     H  778   7.848   0.558   4.419 -0.5734 -0.1323 -1.1969
    6MOL0     H  779   7.634   0.574   4.314 -0.6981 -0.8021 -1.2733
    6MOL0     H  780   7.175   0.653   4.503 -4.1440  4.6741 -1.4426
    6MOL0     H  781   6.944   0.689   4.474 -1.1026 -0.0494  0.3492
    6MOL0     H  782   6.594   0.643   4.337 -1.1341 -0.5217  1.4744
    6MOL0     H  783   6.720   0.669   4.453 -2.4012  0.5060  0.7650
    6MOL0     H  784   6.739   0.420   4.469  0.1739  1.4154  2.4412
    6MOL0     H  785   6.600   0.506   4.538 -0.4852  2.0090 -1.3672
    6MOL0     H  786   6.615   0.354   4.276  1.2778 -0.1444 -1.1802
    6MOL0     H  787   6.472   0.452   4.327  0.8808 -0.2738  0.9605
    6MOL0     H  788   6.600   0.222   4.504 -1.6182 -0.2614  1.2765
    6MOL0     H  789   6.453   0.323   4.533 -0.9443 -2.8952  1.5827
    6MOL0     H  790   6.320  -0.008   4.333 -2.2748  1.8128 -0.8383
    6MOL0     H  791   6.916   0.408   4.156 -0.2082  0.1297 -0.1872
    6MOL0     H  792   7.172   0.352   4.188 -1.3305 -0.3702 -1.2007
    7MOL0     O  793   9.780   7.468   9.342  0.3653  0.0104  0.4871
    7MOL0     C  794   9.892   7.500   9.292 -0.6001 -0.5495 -0.6945
    7MOL0     O  795  10.020   7.476   9.344  0.4831  0.1495  0.8228
    7MOL0     C  796  10.053   7.392   9.445  0.4800 -0.1220  1.2938
    7MOL0     C  797  10.188   7.352   9.443 -0.1864  0.9563 -0.1404
    7MOL0     C  798  10.236   7.263   9.540  0.0133 -0.2775 -0.4545
    7MOL0     C  799  10.154   7.207   9.638  0.0641  0.0095  0.2425
    7MOL0     O  800  10.217   7.107   9.705  0.4914 -0.0493  0.5308
    7MOL0     C  801  10.155   7.075   9.833 -0.4666 -0.6215 -0.1559
    7MOL0     C  802  10.221   6.952   9.894 -0.6664 -0.1327  0.3696
    7MOL0     C  803  10.358   6.984   9.956  1.0729 -0.0351 -0.0150
    7MOL0     C  804  10.446   6.856   9.965 -0.8247  0.4899 -0.3212
    7MOL0     C  805  10.559   6.883  10.066  0.2195 -1.0116 -0.2392
    7MOL0     C  806  10.511   6.900  10.206  0.6130 -0.2946 -0.7209
    7MOL0     C  807  10.615   6.845  10.313  0.3011 -0.0455  0.3475
    7MOL0     C  808  10.732   6.950  10.339 -0.2526  0.7146  0.1252
    7MOL0     N  809  10.809   6.900  10.454  0.2615 -0.6735  0.5494
    7MOL0     C  810  10.761   6.923  10.577  0.5255  0.1697  0.0702
    7MOL0     C  811  10.822   6.822  10.647  0.2206  0.7167 -0.1046
    7MOL0     C  812  10.822   6.800  10.798  0.1813  0.0101 -0.5859
    7MOL0     C  813  10.713   6.706  10.848  0.2163  0.1911  0.9423
    7MOL0     C  814  10.577   6.776  10.855  0.7305 -1.1612  0.1744
    7MOL0     C  815  10.469   6.696  10.924  0.2055 -0.7586 -0.2465
    7MOL0     O  816  10.338   6.752  10.912  0.9816 -0.2300 -0.5967
    7MOL0     C  817  10.232   6.665  10.923  1.0993  0.1587  0.3084
    7MOL0     C  818  10.193   6.581  10.820 -0.5938  1.3885  0.0523
    7MOL0     C  819  10.090   6.488  10.846 -0.2284 -1.0698 -0.5332
    7MOL0     C  820  10.026   6.490  10.967  0.0146 -0.3375 -0.7301
    7MOL0     C  821   9.906   6.405  10.986 -0.8596  0.5862 -0.4581
    7MOL0     O  822   9.879   6.304  10.904 -0.1559  0.0499  0.4369
    7MOL0     C  823   9.767   6.230  10.945 -0.5775 -0.1068  0.0166
    7MOL0     C  824   9.638   6.260  10.897  0.8539  0.1578 -0.4292
    7MOL0     C  825   9.527   6.190  10.944  0.5172 -0.2315  0.3329
    7MOL0     C  826   9.542   6.079  11.021 -0.6301 -0.1471 -0.3651
    7MOL0     O  827   9.430   6.020  11.078  0.4631  0.1558  0.8500
    7MOL0     C  828   9.416   5.890  11.017  0.8312 -0.4050 -0.8738
    7MOL0     C  829   9.295   5.821  11.087  1.0529 -0.3463 -0.6731
    7MOL0     C  830   9.160   5.890  11.059  0.0016 -0.9823 -1.1997
    7MOL0     C  831   9.044   5.796  11.083  0.1319  0.2589 -0.3462
    7MOL0     C  832   8.912   5.865  11.035 -0.0085  0.8976 -0.3444
    7MOL0     C  833   8.795   5.768  11.065  0.1518  0.8447 -0.0184
    7MOL0     C  834   8.768   5.666  10.952  0.2743 -0.8449 -0.5169
    7MOL0     C  835   8.636   5.586  10.973 -0.1392 -0.3016  0.1563
    7MOL0    Cl  836   8.629   5.442  10.877 -0.2763  0.0447 -0.2158
    7MOL0     C  837   9.676   6.038  11.062  0.5726 -0.3858  0.0311
    7MOL0     C  838   9.785   6.119  11.025 -0.3934 -0.1364  0.1010
    7MOL0     O  839   9.832   6.431  11.082 -0.6441  0.0447 -0.6215
    7MOL0     C  840  10.077   6.570  11.075  0.7487  0.3287  0.1230
    7MOL0     C  841  10.171   6.659  11.042 -0.3754 -0.3150 -0.1119
    7MOL0     N  842  10.902   6.747  10.572 -0.5896  1.0356  0.0400
    7MOL0     N  843  10.890   6.789  10.451  0.9764 -1.0776  0.3772
    7MOL0     C  844  10.013   7.232   9.623  0.0054 -0.1515 -0.6509
    7MOL0     C  845   9.966   7.331   9.534  0.0859  0.3503 -0.2615
    7MOL0     C  846   9.893   7.597   9.181 -0.3589  0.0352 -0.1876
    7MOL0     C  847   9.770   7.629   9.105 -0.6423  1.0331 -0.1009
    7MOL0     C  848   9.784   7.717   8.997  0.2001 -0.6795 -0.6352
    7MOL0     C  849   9.905   7.787   8.963 -0.0769  1.0266 -0.0599
    7MOL0     O  850   9.926   7.871   8.858 -0.0565 -0.4646  0.4980
    7MOL0     C  851   9.811   7.925   8.784 -1.3876  0.2291  0.2995
    7MOL0     C  852   9.808   7.847   8.655 -0.3678  0.6144 -0.2579
    7MOL0     C  853   9.933   7.874   8.557  1.1311 -0.8939  0.8127
    7MOL0     C  854   9.904   7.999   8.481 -0.3007  0.0536  0.5524
    7MOL0     C  855  10.021   8.053   8.410  0.8452 -0.1087 -0.2572
    7MOL0     C  856  10.113   8.111   8.354 -0.3143 -0.0913 -0.2427
    7MOL0     C  857  10.013   7.756   9.045  0.3242 -0.0229 -0.0632
    7MOL0     C  858  10.011   7.662   9.143  0.5366 -0.6578 -0.3436
    7MOL0     H  859  10.252   7.374   9.358  1.3946 -0.9313  0.4708
    7MOL0     H  860  10.343   7.244   9.540  0.0073 -0.5430  1.4395
    7MOL0     H  861  10.051   7.052   9.808 -0.6257  1.0527 -1.1703
    7MOL0     H  862  10.163   7.160   9.901  1.1296  1.7451 -3.0637
    7MOL0     H  863  10.240   6.878   9.816 -0.6407 -1.6531  1.7433
    7MOL0     H  864  10.163   6.911   9.977  0.6880  0.7421  1.8173
    7MOL0     H  865  10.337   7.037  10.050  2.2064  0.9157 -0.2717
    7MOL0     H  866  10.407   7.056   9.891 -0.5904  0.8907 -0.3084
    7MOL0     H  867  10.394   6.764   9.993 -0.4045  1.0261  2.4819
    7MOL0     H  868  10.493   6.833   9.869 -1.0740  3.2444 -1.2054
    7MOL0     H  869  10.612   6.974  10.036  1.4441 -1.1536  1.3581
    7MOL0     H  870  10.628   6.799  10.065 -1.6145 -2.6004  0.0066
    7MOL0     H  871  10.417   6.846  10.225  2.0926 -2.0802  2.3163
    7MOL0     H  872  10.500   7.007  10.226 -0.2152 -0.3102 -1.0559
    7MOL0     H  873  10.558   6.834  10.406  0.3739  1.0605  0.5363
    7MOL0     H  874  10.652   6.745  10.286  0.2284 -0.6378  2.2720
    7MOL0     H  875  10.702   7.053  10.359  0.9830  1.4459 -1.5390
    7MOL0     H  876  10.803   6.948  10.256  1.3815 -2.0086  1.4452
    7MOL0     H  877  10.697   7.001  10.617  1.3048  1.2587 -0.7577
    7MOL0     H  878  10.802   6.898  10.842 -1.9213 -1.0256  0.9541
    7MOL0     H  879  10.920   6.759  10.823 -0.8418 -1.0799  1.9846
    7MOL0     H  880  10.734   6.663  10.946  1.1184 -0.7008  0.3694
    7MOL0     H  881  10.714   6.624  10.776 -0.3191 -0.2010  1.3674
    7MOL0     H  882  10.586   6.871  10.909 -1.2324 -0.5242 -0.5189
    7MOL0     H  883  10.538   6.801  10.756 -0.8974  2.9201  1.6057
    7MOL0     H  884  10.498   6.682  11.028  0.7125 -0.0025 -0.2817
    7MOL0     H  885  10.466   6.595  10.882 -0.5922 -0.1754 -1.6787
    7MOL0     H  886  10.240   6.575  10.723  0.2747 -0.3084  0.5390
    7MOL0     H  887  10.062   6.411  10.775 -2.5209  0.4982 -1.4507
    7MOL0     H  888   9.629   6.355  10.846  0.7179 -0.6140 -1.8907
    7MOL0     H  889   9.427   6.213  10.907  0.1286 -3.9371 -1.3549
    7MOL0     H  890   9.502   5.826  11.041  1.0533  0.6731  1.5171
    7MOL0     H  891   9.384   5.904  10.913 -1.7732  4.9321  0.3316
    7MOL0     H  892   9.300   5.806  11.195 -5.4477 -1.1146 -0.0595
    7MOL0     H  893   9.303   5.720  11.048 -2.5722 -1.7032  1.5794
    7MOL0     H  894   9.162   5.939  10.961  4.8497  0.7500 -0.5469
    7MOL0     H  895   9.141   5.973  11.128 -1.6546 -0.8799 -1.7447
    7MOL0     H  896   9.065   5.706  11.024 -0.4098  1.7099 -2.9349
    7MOL0     H  897   9.040   5.763  11.187  0.5800  1.6987  0.1536
    7MOL0     H  898   8.922   5.894  10.930 -0.2347  2.7683  0.1258
    7MOL0     H  899   8.898   5.957  11.092 -3.1479 -0.7020  1.7439
    7MOL0     H  900   8.703   5.820  11.092 -0.1969  0.8869 -1.2199
    7MOL0     H  901   8.824   5.705  11.150 -1.5897  0.7726  0.5663
    7MOL0     H  902   8.762   5.730  10.864  0.4151  0.3081  0.2788
    7MOL0     H  903   8.846   5.589  10.951 -1.2146 -2.7835  3.9052
    7MOL0     H  904   8.549   5.649  10.953 -0.4713  0.9121  4.4694
    7MOL0     H  905   8.627   5.559  11.079  1.2091 -1.3583  0.0293
    7MOL0     H  906   9.695   5.944  11.113 -1.9673 -0.8303  0.2594
    7MOL0     H  907   9.889   6.100  11.050 -0.4122  1.8363  1.9762
    7MOL0     H  908  10.022   6.573  11.169  0.6697  1.8934  0.0428
    7MOL0     H  909  10.217   6.724  11.116  1.8477 -0.0818 -1.6018
    7MOL0     H  910   9.943   7.171   9.680  3.1827 -1.7922  1.8443
    7MOL0     H  911   9.859   7.349   9.535 -0.4283 -2.2259  0.7165
    7MOL0     H  912   9.683   7.574   9.138  0.8475 -1.2243  0.2344
    7MOL0     H  913   9.699   7.726   8.931  0.8862 -2.1084 -1.7597
    7MOL0     H  914   9.825   8.031   8.758  1.2722 -0.7295 -3.0459
    7MOL0     H  915   9.717   7.903   8.835 -2.2646  2.0803 -0.4069
    7MOL0     H  916   9.822   7.742   8.680 -1.8435  0.4994  0.1882
    7MOL0     H  917   9.706   7.854   8.614 -1.4440 -0.4786  2.0462
    7MOL0     H  918   9.935   7.791   8.485 -2.8803  0.0233 -0.6235
    7MOL0     H  919  10.022   7.871   8.620  1.6642 -1.8243  0.0293
    7MOL0     H  920   9.823   7.979   8.410 -1.6652 -1.1127  2.3417
    7MOL0     H  921   9.864   8.083   8.540 -1.0092  0.0197  0.1415
    7MOL0     H  922  10.187   8.175   8.308 -1.2571  0.2597 -1.3234
    7MOL0     H  923  10.109   7.804   9.032  2.7678 -3.9664  1.4481
    7MOL0     H  924  10.101   7.647   9.202  1.8246 -1.5645 -2.4235
    8MOL0     O  925   1.425  10.446   5.794 -0.0352 -0.3514 -0.7707
    8MOL0     C  926   1.447  10.467   5.681 -0.4928 -0.4299 -0.0070
    8MOL0     O  927   1.537  10.555   5.631 -0.1304  0.3827 -0.7224
    8MOL0     C  928   1.617  10.623   5.715  0.0963 -0.1427 -0.6860
    8MOL0     C  929   1.581  10.738   5.790  0.7005  0.4288 -0.8973
    8MOL0     C  930   1.659  10.794   5.892 -0.6167 -0.1403 -0.7698
    8MOL0     C  931   1.794  10.753   5.900 -1.0028  0.1944  0.3675
    8MOL0     O  932   1.881  10.817   5.996  0.2736  0.7745 -0.5912
    8MOL0     C  933   2.023  10.785   5.992 -0.2999  0.4864  0.3669
    8MOL0     C  934   2.110  10.878   6.077  0.4981 -0.7612 -0.7522
    8MOL0     C  935   2.085  10.868   6.227 -0.0457 -0.4603 -0.4241
    8MOL0     C  936   2.165  10.968   6.321  0.7114  0.3026 -0.2231
    8MOL0     C  937   2.310  10.989   6.288  0.5253 -0.0671  0.2037
    8MOL0     C  938   2.378  11.089   6.387  1.0330  0.4835  0.5404
    8MOL0     C  939   2.491  11.169   6.310 -0.2735  0.2246  0.4989
    8MOL0     C  940   2.550  11.290   6.392  0.9191 -0.0309  1.2998
    8MOL0     N  941   2.643  11.255   6.497  0.0692 -0.2166 -0.1198
    8MOL0     C  942   2.600  11.252   6.627 -0.2250 -0.3737 -0.2037
    8MOL0     C  943   2.714  11.229   6.692  0.8708  0.1378 -0.3341
    8MOL0     C  944   2.695  11.179   6.836 -0.4291 -0.2307 -0.0322
    8MOL0     C  945   2.730  11.037   6.885 -0.6396 -0.7436  0.2779
    8MOL0     C  946   2.853  10.967   6.816 -0.0801 -0.3623 -0.6643
    8MOL0     C  947   2.983  11.049   6.845  0.0471 -0.1298 -0.3620
    8MOL0     O  948   3.011  11.013   6.979 -0.0871 -0.3214  0.4351
    8MOL0     C  949   2.998  11.104   7.092 -0.5753 -0.0618 -0.0641
    8MOL0     C  950   2.973  11.057   7.218 -0.7304 -0.0758 -0.0405
    8MOL0     C  951   2.961  11.137   7.329  0.1664  0.3996  0.3925
    8MOL0     C  952   2.976  11.280   7.318  0.1100  1.3194 -0.4974
    8MOL0     C  953   2.962  11.353   7.439 -0.4563  0.0207  0.8422
    8MOL0     O  954   2.960  11.487   7.425  0.2315  0.0311  0.1691
    8MOL0     C  955   2.936  11.556   7.538  0.2188  0.2902 -0.6803
    8MOL0     C  956   2.829  11.645   7.543  0.5875 -0.4133 -0.8599
    8MOL0     C  957   2.802  11.737   7.649 -0.2610  0.4622 -0.1042
    8MOL0     C  958   2.886  11.738   7.755 -0.7339 -0.4869  0.9544
    8MOL0     O  959   2.858  11.818   7.859  0.2754 -0.3329  0.3209
    8MOL0     C  960   2.866  11.956   7.832  0.1746  0.8043 -0.4478
    8MOL0     C  961   2.850  12.032   7.968 -0.6391  0.1159 -0.4288
    8MOL0     C  962   2.965  12.003   8.068  0.5927 -0.4054 -0.4493
    8MOL0     C  963   2.937  12.081   8.199 -0.3714 -0.6180 -0.4637
    8MOL0     C  964   3.028  12.024   8.306 -0.1059  0.0243 -0.5817
    8MOL0     C  965   3.048  12.129   8.424  0.2321  0.0824 -0.7591
    8MOL0     C  966   3.135  12.071   8.530 -0.4731 -0.1639 -0.0925
    8MOL0     C  967   3.162  12.176   8.637 -0.0302  0.6822  1.3071
    8MOL0    Cl  968   3.030  12.152   8.752 -0.0226  0.0511  0.0597
    8MOL0     C  969   3.005  11.665   7.748  0.3996 -0.3415 -0.6140
    8MOL0     C  970   3.030  11.566   7.647  0.2344 -0.0537 -0.5576
    8MOL0     O  971   2.938  11.290   7.542 -0.4231  0.8176  0.1068
    8MOL0     C  972   2.994  11.329   7.190 -0.4566  0.2370  0.5092
    8MOL0     C  973   2.998  11.249   7.069 -0.9661 -0.9888 -0.5128
    8MOL0     N  974   2.824  11.228   6.606  0.2530 -0.4054  0.4510
    8MOL0     N  975   2.777  11.235   6.489  0.3476  0.3584 -0.1808
    8MOL0     C  976   1.846  10.653   5.811  0.3524  0.3451  0.0878
    8MOL0     C  977   1.752  10.591   5.730  0.1305  0.5132  0.6254
    8MOL0     C  978   1.374  10.377   5.584  0.3870  0.6995 -1.2084
    8MOL0     C  979   1.330  10.253   5.639  0.6580  0.5382  0.0162
    8MOL0     C  980   1.262  10.162   5.556  0.4093 -0.2797 -0.2968
    8MOL0     C  981   1.244  10.193   5.424 -0.0573 -0.5002  1.2141
    8MOL0     O  982   1.190  10.089   5.359  0.2970 -0.1007  0.8848
    8MOL0     C  983   1.267  10.038   5.246  0.5670 -0.6139 -1.4356
    8MOL0     C  984   1.201   9.914   5.177 -0.5017  0.4072 -1.7626
    8MOL0     C  985   1.053   9.955   5.131  0.8636 -0.4966  0.1292
    8MOL0     C  986   0.968   9.832   5.086  0.7652 -0.2522 -0.6477
    8MOL0     C  987   0.843   9.869   5.016 -0.4434 -0.9192 -0.6851
    8MOL0     C  988   0.737   9.871   4.961 -0.1298 -0.4006  0.1378
    8MOL0     C  989   1.290  10.308   5.364  0.5486  0.1911 -0.7164
    8MOL0     C  990   1.348  10.404   5.453  0.4139  0.7263  0.2914
    8MOL0     H  991   1.477  10.767   5.790  0.5804  0.7121  3.2851
    8MOL0     H  992   1.632  10.875   5.960  1.5857  2.3300 -2.6230
    8MOL0     H  993   2.070  10.798   5.894  2.7895 -2.3204  1.3134
    8MOL0     H  994   2.037  10.681   6.022 -1.6874  0.5910  1.5135
    8MOL0     H  995   2.087  10.980   6.043  0.7921  0.3420  2.0808
    8MOL0     H  996   2.214  10.849   6.061  0.5337 -1.2764  0.3536
    8MOL0     H  997   2.099  10.765   6.261 -1.4269  0.0418  1.9183
    8MOL0     H  998   1.979  10.889   6.247  0.7381  2.1706  1.5838
    8MOL0     H  999   2.108  11.061   6.332  0.8579  0.2332  1.4245
    8MOL0     H 1000   2.151  10.923   6.420  0.2004  3.1812  1.1186
    8MOL0     H 1001   2.325  11.016   6.183 -0.0741 -2.8328 -0.7005
    8MOL0     H 1002   2.361  10.892   6.289  3.4289  1.3510 -1.2320
    8MOL0     H 1003   2.424  11.033   6.469 -1.5061 -1.0170  1.0422
    8MOL0     H 1004   2.304  11.159   6.429 -1.6067  0.7913 -3.9122
    8MOL0     H 1005   2.569  11.096   6.287  0.6751  1.3326  0.0860
    8MOL0     H 1006   2.440  11.215   6.224  1.4332 -0.2913 -0.8570
    8MOL0     H 1007   2.461  11.339   6.432  2.3599  2.2327  1.9561
    8MOL0     H 1008   2.607  11.363   6.333  0.2213 -0.0076  0.6391
    8MOL0     H 1009   2.500  11.249   6.670 -0.3122  0.8775 -0.2721
    8MOL0     H 1010   2.592  11.205   6.863  0.2634  1.6930  0.9200
    8MOL0     H 1011   2.744  11.249   6.904 -0.2830 -0.8133  0.4742
    8MOL0     H 1012   2.644  10.976   6.858 -1.0741 -2.4851  4.7588
    8MOL0     H 1013   2.745  11.025   6.993 -1.7377 -0.5925  0.4515
    8MOL0     H 1014   2.863  10.863   6.847  1.2978 -0.1694 -0.3858
    8MOL0     H 1015   2.838  10.961   6.708  2.1823  1.8457 -1.1953
    8MOL0     H 1016   2.969  11.155   6.820  0.0647  0.2470  1.1225
    8MOL0     H 1017   3.061  11.008   6.779 -0.5267  0.4211 -1.4111
    8MOL0     H 1018   2.962  10.949   7.217 -1.2481 -0.0258 -0.2638
    8MOL0     H 1019   2.929  11.079   7.415 -2.2005  0.1269 -0.5784
    8MOL0     H 1020   2.750  11.654   7.469  0.3673  1.0752 -0.4745
    8MOL0     H 1021   2.707  11.789   7.636 -3.2834 -4.6172 -0.8064
    8MOL0     H 1022   2.807  11.999   7.750 -0.0181  0.1499 -0.6604
    8MOL0     H 1023   2.973  11.959   7.812  0.5951 -1.7387  1.0202
    8MOL0     H 1024   2.750  12.011   8.007  0.2553 -0.7097  1.5171
    8MOL0     H 1025   2.875  12.135   7.937  0.8446 -0.4695 -1.2946
    8MOL0     H 1026   3.066  12.019   8.029  0.6198  0.3556 -0.0884
    8MOL0     H 1027   2.957  11.898   8.097 -0.1449 -1.0707 -2.8249
    8MOL0     H 1028   2.963  12.182   8.168  0.6474 -1.7340 -3.5659
    8MOL0     H 1029   2.841  12.089   8.251  0.7042  1.7232  1.3662
    8MOL0     H 1030   3.123  11.994   8.261 -0.1274 -2.8023  1.0310
    8MOL0     H 1031   2.973  11.935   8.340  2.1996 -0.5680  1.8712
    8MOL0     H 1032   2.948  12.155   8.461  1.3744  2.3880  1.0001
    8MOL0     H 1033   3.101  12.208   8.370  0.0333  0.0725 -0.9754
    8MOL0     H 1034   3.092  11.977   8.566 -2.2845  0.1681 -1.2074
    8MOL0     H 1035   3.237  12.054   8.494  0.3961 -0.2013  2.2734
    8MOL0     H 1036   3.164  12.279   8.601  0.0270  0.3736  0.3941
    8MOL0     H 1037   3.261  12.155   8.677  0.6503 -1.7297 -1.2715
    8MOL0     H 1038   3.077  11.668   7.830  2.9992  1.6731 -2.7892
    8MOL0     H 1039   3.115  11.499   7.654 -1.2485 -1.8508  1.5052
    8MOL0     H 1040   3.002  11.436   7.175 -1.2171 -0.0212 -2.5682
    8MOL0     H 1041   2.991  11.290   6.969 -1.0549 -2.1538 -1.0021
    8MOL0     H 1042   1.947  10.614   5.808 -0.2317 -1.1473 -1.3254
    8MOL0     H 1043   1.794  10.508   5.673  0.9224 -0.1917  2.1850
    8MOL0     H 1044   1.345  10.226   5.744  1.8002 -1.9604 -0.7002
    8MOL0     H 1045   1.231  10.065   5.595  0.3462 -0.0597  0.2081
    8MOL0     H 1046   1.368  10.016   5.282  1.4364  4.2184 -0.0902
    8MOL0     H 1047   1.292  10.107   5.165 -2.0856  2.1250 -0.1222
    8MOL0     H 1048   1.258   9.878   5.090  1.7251  2.3282 -1.2254
    8MOL0     H 1049   1.186   9.847   5.262  2.5467  1.0540 -0.5612
    8MOL0     H 1050   1.062  10.027   5.049  1.0212  0.9002  1.3342
    8MOL0     H 1051   1.007  10.008   5.215  2.2739  0.0689  0.5883
    8MOL0     H 1052   1.009   9.767   5.008 -0.7160 -2.0300 -0.0327
    8MOL0     H 1053   0.949   9.764   5.169  0.6643 -0.7256 -1.0499
    8MOL0     H 1054   0.647   9.869   4.902 -0.2798 -1.2948  0.3902
    8MOL0     H 1055   1.274  10.320   5.257  0.7698  0.2266 -0.7447
    8MOL0     H 1056   1.350  10.503   5.409 -1.4203 -0.3504 -2.5025
    9MOL0     O 1057   1.571   5.836   5.898 -0.2794 -0.6001 -0.2173
    9MOL0     C 1058   1.681   5.887   5.919  0.7247 -0.1420  0.1228
    9MOL0     O 1059   1.762   5.865   6.027  0.2725  0.1538  0.3331
    9MOL0     C 1060   1.726   5.759   6.106  0.3189 -0.5681  0.7073
    9MOL0     C 1061   1.795   5.639   6.114  0.0838 -0.2680 -0.5504
    9MOL0     C 1062   1.741   5.536   6.197 -0.4998  0.8592 -0.4876
    9MOL0     C 1063   1.624   5.542   6.270 -0.1650 -0.5355 -0.4145
    9MOL0     O 1064   1.581   5.420   6.327 -0.6863  0.1743  0.0762
    9MOL0     C 1065   1.484   5.413   6.429 -1.6787  0.4865  0.1129
    9MOL0     C 1066   1.505   5.493   6.563  1.1776 -0.0971  1.1849
    9MOL0     C 1067   1.625   5.435   6.644 -0.6925  0.3750 -0.6022
    9MOL0     C 1068   1.604   5.286   6.705  1.3986  0.0856 -0.3546
    9MOL0     C 1069   1.728   5.271   6.806  0.3422  0.0220 -0.7415
    9MOL0     C 1070   1.770   5.129   6.863 -0.8912 -0.9279  0.2260
    9MOL0     C 1071   1.856   5.053   6.759 -0.3187  0.3857  0.8639
    9MOL0     C 1072   1.903   4.913   6.804 -0.6415 -0.5015 -0.1383
    9MOL0     N 1073   1.941   4.892   6.949  0.2510 -0.1503 -0.1446
    9MOL0     C 1074   2.050   4.943   7.003  0.2248  0.1548 -0.7460
    9MOL0     C 1075   2.050   4.914   7.136  0.5737  0.0041  0.2580
    9MOL0     C 1076   2.138   4.955   7.254 -0.6966  0.1440 -0.1863
    9MOL0     C 1077   2.252   5.045   7.216  0.3515 -0.4714 -0.3985
    9MOL0     C 1078   2.214   5.187   7.173 -0.9270  0.0665 -0.3892
    9MOL0     C 1079   2.344   5.276   7.185  0.4212 -0.4438  0.5010
    9MOL0     O 1080   2.409   5.282   7.314 -0.2328 -0.7583  0.5194
    9MOL0     C 1081   2.400   5.398   7.376 -0.1332  0.3035 -0.0807
    9MOL0     C 1082   2.300   5.497   7.365 -0.1987 -0.1255 -0.2652
    9MOL0     C 1083   2.289   5.599   7.462 -1.1184 -0.5773 -0.1312
    9MOL0     C 1084   2.391   5.606   7.566  0.7570 -0.6552 -0.0404
    9MOL0     C 1085   2.392   5.711   7.661  0.3150 -0.3305  0.6276
    9MOL0     O 1086   2.490   5.703   7.755 -0.2417 -0.4527 -1.0117
    9MOL0     C 1087   2.529   5.822   7.817 -0.1553  0.2352  0.1378
    9MOL0     C 1088   2.546   5.944   7.747 -0.6440  0.5332  0.1209
    9MOL0     C 1089   2.602   6.060   7.802 -0.1179  0.2442  0.5895
    9MOL0     C 1090   2.649   6.054   7.927 -0.1435 -0.3779 -0.2821
    9MOL0     O 1091   2.697   6.173   7.975 -0.4684 -1.2542  0.8945
    9MOL0     C 1092   2.597   6.256   8.022  0.4668  0.4407 -0.4785
    9MOL0     C 1093   2.662   6.302   8.156  0.3627 -0.7867  0.1381
    9MOL0     C 1094   2.564   6.416   8.214  0.7280  0.1973 -0.3353
    9MOL0     C 1095   2.607   6.485   8.346  0.0893  0.6274  0.0548
    9MOL0     C 1096   2.497   6.580   8.409 -0.5255 -0.0378  0.4598
    9MOL0     C 1097   2.371   6.510   8.461 -0.2155 -0.3375 -0.5787
    9MOL0     C 1098   2.259   6.597   8.526  0.2781  0.2058 -0.4846
    9MOL0     C 1099   2.139   6.513   8.594 -0.4160  0.7993 -0.0181
    9MOL0    Cl 1100   2.205   6.457   8.754  0.1517 -0.0764  0.2094
    9MOL0     C 1101   2.645   5.936   7.999 -0.7826 -0.0538 -0.6155
    9MOL0     C 1102   2.577   5.827   7.950  0.1977  0.9143  0.1097
    9MOL0     O 1103   2.315   5.801   7.642  0.1203 -0.3499  0.2522
    9MOL0     C 1104   2.482   5.503   7.581  0.4632  0.1652 -0.1308
    9MOL0     C 1105   2.479   5.397   7.493  0.1829  0.1266  0.7999
    9MOL0     N 1106   1.930   4.857   7.164  0.8577  0.3110 -0.1469
    9MOL0     N 1107   1.863   4.837   7.056 -0.9199 -0.5647  0.2281
    9MOL0     C 1108   1.557   5.660   6.258 -0.1830  0.4640  1.0818
    9MOL0     C 1109   1.611   5.775   6.179  1.2700  0.6202  0.0784
    9MOL0     C 1110   1.727   5.984   5.814 -0.4786  0.5604 -0.9580
    9MOL0     C 1111   1.864   5.997   5.793  0.2966  0.3910  0.1616
    9MOL0     C 1112   1.913   6.070   5.684 -0.5884  0.3235 -0.4908
    9MOL0     C 1113   1.832   6.134   5.587  0.8702 -0.7685 -0.2195
    9MOL0     O 1114   1.867   6.205   5.473 -0.3975  0.4161  0.1349
    9MOL0     C 1115   1.987   6.282   5.469 -0.4377  0.5678  0.5803
    9MOL0     C 1116   1.996   6.387   5.579  0.5673  0.1862 -1.3464
    9MOL0     C 1117   1.900   6.500   5.584  0.2910 -0.3332  0.2529
    9MOL0     C 1118   1.752   6.470   5.547  0.4366  0.6362 -0.2885
    9MOL0     C 1119   1.669   6.595   5.554  0.5767 -0.2462  0.4490
    9MOL0     C 1120   1.585   6.685   5.551 -0.9234 -0.2506 -0.2406
    9MOL0     C 1121   1.690   6.111   5.606  0.3972 -0.3905  0.4757
    9MOL0     C 1122   1.641   6.039   5.712  0.7346 -0.1854 -0.6737
    9MOL0     H 1123   1.886   5.617   6.060 -1.5415  0.8136 -4.0426
    9MOL0     H 1124   1.802   5.446   6.196 -0.3379  0.9683 -1.6684
    9MOL0     H 1125   1.475   5.314   6.474 -1.6518  0.6920  0.5778
    9MOL0     H 1126   1.395   5.444   6.373 -1.1676  5.7197  1.6398
    9MOL0     H 1127   1.410   5.470   6.612  0.0756 -1.6593 -1.4560
    9MOL0     H 1128   1.511   5.601   6.542 -1.9424 -0.5518 -3.7258
    9MOL0     H 1129   1.648   5.508   6.722  6.1323 -1.0037 -0.7116
    9MOL0     H 1130   1.716   5.441   6.585 -0.5544  0.7764 -0.3532
    9MOL0     H 1131   1.507   5.293   6.755  1.5398  0.9926 -0.1863
    9MOL0     H 1132   1.602   5.208   6.629  2.6225 -0.4978  0.1853
    9MOL0     H 1133   1.695   5.321   6.898 -0.8308  0.4972 -1.3976
    9MOL0     H 1134   1.814   5.314   6.755  0.5187 -1.8522 -2.1174
    9MOL0     H 1135   1.680   5.069   6.874 -0.9779 -1.1466 -1.3613
    9MOL0     H 1136   1.827   5.143   6.955 -0.3974  0.6342 -0.2885
    9MOL0     H 1137   1.801   5.043   6.665 -0.8681 -1.2961  1.3249
    9MOL0     H 1138   1.942   5.115   6.733  0.3479 -1.2367 -1.0940
    9MOL0     H 1139   1.988   4.883   6.741  0.7307  2.8241 -0.0641
    9MOL0     H 1140   1.814   4.850   6.800 -1.9384  1.2534  0.1720
    9MOL0     H 1141   2.133   5.002   6.966  3.4626 -1.7486  2.7728
    9MOL0     H 1142   2.192   4.864   7.281  4.8724  2.4582 -1.9145
    9MOL0     H 1143   2.079   5.000   7.334 -1.6304 -0.4470 -0.5257
    9MOL0     H 1144   2.309   4.999   7.134  0.3199  0.8231 -1.1857
    9MOL0     H 1145   2.317   5.048   7.304 -0.7773  0.6917  0.4280
    9MOL0     H 1146   2.191   5.199   7.067  3.4204  1.3622 -1.3916
    9MOL0     H 1147   2.129   5.222   7.233  0.9552 -0.7044  2.9580
    9MOL0     H 1148   2.338   5.373   7.135 -0.4993  0.2494  1.8779
    9MOL0     H 1149   2.417   5.235   7.116 -0.9398 -1.1758 -0.5492
    9MOL0     H 1150   2.222   5.490   7.290 -0.3417 -0.1857 -0.1121
    9MOL0     H 1151   2.203   5.664   7.456 -0.1972  0.5804 -1.1971
    9MOL0     H 1152   2.501   5.945   7.649 -0.8277  2.2944  0.1858
    9MOL0     H 1153   2.609   6.145   7.734  4.7974 -2.4831 -2.9895
    9MOL0     H 1154   2.501   6.209   8.045  1.7735 -1.1799  2.2220
    9MOL0     H 1155   2.579   6.341   7.956 -0.2492  0.0779 -0.7555
    9MOL0     H 1156   2.762   6.343   8.141 -0.5340  1.7784  0.6456
    9MOL0     H 1157   2.673   6.210   8.214 -2.6458  0.6163  3.2856
    9MOL0     H 1158   2.471   6.367   8.244  0.0519  1.4962 -0.2512
    9MOL0     H 1159   2.531   6.483   8.134 -2.3171 -3.0789 -2.1263
    9MOL0     H 1160   2.634   6.418   8.428 -1.6697  0.5278  0.6107
    9MOL0     H 1161   2.694   6.547   8.324 -1.8817  2.7789 -2.2882
    9MOL0     H 1162   2.470   6.653   8.333 -0.3704  2.6169  2.7799
    9MOL0     H 1163   2.548   6.636   8.488 -2.0345  3.6263 -0.9975
    9MOL0     H 1164   2.412   6.440   8.534  0.6203 -1.6577 -2.2453
    9MOL0     H 1165   2.321   6.450   8.384 -2.9871 -1.3064  1.8066
    9MOL0     H 1166   2.306   6.671   8.592  1.2503  1.0737 -2.0949
    9MOL0     H 1167   2.228   6.655   8.439  1.3846  0.6300 -0.6231
    9MOL0     H 1168   2.111   6.425   8.536 -0.2247  2.8520 -3.5118
    9MOL0     H 1169   2.055   6.583   8.596 -0.4618  0.9038 -2.6876
    9MOL0     H 1170   2.700   5.940   8.092  4.3548  3.1145 -3.3365
    9MOL0     H 1171   2.551   5.745   8.017  1.1102  0.7873  0.3215
    9MOL0     H 1172   2.544   5.502   7.670  1.7581 -0.9963 -1.0099
    9MOL0     H 1173   2.555   5.325   7.520  0.6013  1.5281  3.7263
    9MOL0     H 1174   1.456   5.674   6.294 -1.8445 -0.6310 -2.6821
    9MOL0     H 1175   1.553   5.866   6.171  2.3352  1.4491  1.3127
    9MOL0     H 1176   1.922   5.947   5.870 -0.8341  2.1452  2.2814
    9MOL0     H 1177   2.013   6.098   5.653 -0.5660  0.6296 -0.1452
    9MOL0     H 1178   1.996   6.330   5.371 -0.7095  1.0223  0.7686
    9MOL0     H 1179   2.075   6.218   5.480 -2.1678 -1.7003  2.3175
    9MOL0     H 1180   2.000   6.350   5.682  0.0332  4.5504  0.4473
    9MOL0     H 1181   2.089   6.440   5.557 -0.4735  2.4320 -0.5934
    9MOL0     H 1182   1.941   6.575   5.516  0.6178 -0.6674  0.0721
    9MOL0     H 1183   1.890   6.536   5.686 -0.4634  0.0768  0.0458
    9MOL0     H 1184   1.736   6.428   5.448  0.3712  2.6486 -1.1847
    9MOL0     H 1185   1.709   6.399   5.618  0.4748  1.6076  0.7400
    9MOL0     H 1186   1.507   6.755   5.574  1.8516  3.4660 -1.0550
    9MOL0     H 1187   1.619   6.143   5.530  1.3459  0.4210 -0.1001
    9MOL0     H 1188   1.533   6.028   5.725  0.1188  2.3285 -2.7224
   10MOL0     O 1189   7.545   1.692   7.373  0.1086 -1.0262  0.0947
   10MOL0     C 1190   7.664   1.683   7.378 -0.3009 -0.0192 -0.3089
   10MOL0     O 1191   7.733   1.611   7.470  0.0727 -0.8275  0.2096
   10MOL0     C 1192   7.661   1.568   7.580  0.2067  0.1697 -0.6185
   10MOL0     C 1193   7.696   1.613   7.700 -0.2984  0.4527 -0.1502
   10MOL0     C 1194   7.639   1.553   7.814 -0.5609 -0.6448 -0.8929
   10MOL0     C 1195   7.552   1.449   7.809  0.7155  0.2711 -0.5350
   10MOL0     O 1196   7.492   1.385   7.922  0.2089 -0.0654 -0.1707
   10MOL0     C 1197   7.571   1.358   8.038  0.6458 -0.1431  0.2113
   10MOL0     C 1198   7.480   1.317   8.162  0.5080  0.4946  0.0689
   10MOL0     C 1199   7.462   1.168   8.154 -0.0147  0.8053  0.6223
   10MOL0     C 1200   7.371   1.116   8.254 -0.1910  0.2896  0.1590
   10MOL0     C 1201   7.384   0.967   8.264 -0.2435 -0.1100  0.4018
   10MOL0     C 1202   7.319   0.881   8.152 -0.8789  0.2761 -0.4089
   10MOL0     C 1203   7.374   0.731   8.174 -0.1902  0.5868  0.2918
   10MOL0     C 1204   7.250   0.639   8.175 -0.5036 -0.3384  0.0932
   10MOL0     N 1205   7.175   0.620   8.302 -0.8857  0.2433 -0.6044
   10MOL0     C 1206   7.085   0.705   8.359  0.0442 -0.5604  0.2730
   10MOL0     C 1207   7.062   0.651   8.480  1.0365  0.7613  0.2178
   10MOL0     C 1208   6.958   0.702   8.571 -0.2025  1.5206  0.1465
   10MOL0     C 1209   6.985   0.846   8.604 -0.4881  0.7389 -0.5887
   10MOL0     C 1210   6.892   0.895   8.724  0.5112 -0.5552 -0.0099
   10MOL0     C 1211   6.905   1.039   8.772  0.0121 -0.0947 -0.2738
   10MOL0     O 1212   6.972   1.035   8.900  0.1295  0.5463  0.1760
   10MOL0     C 1213   6.969   1.146   8.975  0.4303  1.5657 -0.9372
   10MOL0     C 1214   7.036   1.137   9.099  0.1308 -1.1129 -0.7129
   10MOL0     C 1215   7.046   1.243   9.184 -0.4777 -0.1505 -0.2897
   10MOL0     C 1216   7.010   1.375   9.141 -0.8044  0.5409 -0.1435
   10MOL0     C 1217   7.016   1.492   9.246  0.1806 -0.4510  0.2475
   10MOL0     O 1218   7.017   1.453   9.381  0.0525  0.3551  0.0201
   10MOL0     C 1219   7.035   1.554   9.471  0.0691 -0.2718 -0.6191
   10MOL0     C 1220   7.157   1.618   9.489 -0.5271  0.1272  0.0287
   10MOL0     C 1221   7.177   1.714   9.592 -0.3900  0.6959  0.1609
   10MOL0     C 1222   7.071   1.746   9.675  0.1689  0.8940 -0.8048
   10MOL0     O 1223   7.071   1.831   9.782 -0.3731 -0.5481  0.4256
   10MOL0     C 1224   7.199   1.903   9.796  0.2924 -0.1075 -0.8201
   10MOL0     C 1225   7.178   2.052   9.837 -0.1015 -0.9062 -0.0175
   10MOL0     C 1226   7.109   2.061   9.975 -0.3302  0.9368  0.3933
   10MOL0     C 1227   7.054   2.203   9.982 -0.9370 -0.4383  0.2301
   10MOL0     C 1228   6.974   2.229  10.107 -0.0629  0.1372  0.4187
   10MOL0     C 1229   7.060   2.258  10.227  0.0693 -0.4637  0.3687
   10MOL0     C 1230   7.107   2.401  10.241 -0.0817 -0.8025  0.3247
   10MOL0     C 1231   7.128   2.441  10.385  0.1352  0.0632 -0.0355
   10MOL0    Cl 1232   7.136   2.615  10.402  0.6171  0.1844  0.2674
   10MOL0     C 1233   6.949   1.685   9.661 -0.2799  0.5370 -0.5555
   10MOL0     C 1234   6.927   1.583   9.560 -0.8925 -0.6636 -0.0118
   10MOL0     O 1235   7.038   1.603   9.208  0.7242  0.1389 -0.2120
   10MOL0     C 1236   6.960   1.390   9.010 -0.4905  0.7434  0.7628
   10MOL0     C 1237   6.944   1.275   8.928  0.6107  0.3973 -0.1416
   10MOL0     N 1238   7.145   0.543   8.492  0.7511 -0.0459  0.6288
   10MOL0     N 1239   7.213   0.530   8.392 -0.6297 -0.5114  0.8326
   10MOL0     C 1240   7.518   1.401   7.680 -0.2101 -0.1927 -0.6198
   10MOL0     C 1241   7.564   1.465   7.571 -0.5178  0.0537 -0.5468
   10MOL0     C 1242   7.740   1.750   7.265 -0.3895  0.4843  0.1240
   10MOL0     C 1243   7.882   1.726   7.251 -0.2423 -0.1693 -0.4380
   10MOL0     C 1244   7.946   1.800   7.146 -0.1839 -0.3120 -0.7403
   10MOL0     C 1245   7.868   1.874   7.058  0.3980 -0.1442  0.1429
   10MOL0     O 1246   7.948   1.909   6.954 -0.0413  0.0200 -0.1659
   10MOL0     C 1247   7.882   1.930   6.833 -0.9055  1.0383 -0.3982
   10MOL0     C 1248   7.823   1.798   6.776  0.6697  0.8714 -0.5603
   10MOL0     C 1249   7.819   1.815   6.627  0.4192 -0.6354  0.4650
   10MOL0     C 1250   7.676   1.859   6.585 -0.6756 -1.0694  0.3531
   10MOL0     C 1251   7.635   1.993   6.629 -0.3498 -0.1686  0.4455
   10MOL0     C 1252   7.595   2.105   6.655  0.4982  0.0883  0.1620
   10MOL0     C 1253   7.727   1.889   7.068  0.1425  0.3925 -0.1663
   10MOL0     C 1254   7.660   1.826   7.173 -1.7598  0.0229 -0.1725
   10MOL0     H 1255   7.764   1.697   7.702  1.2456 -0.7083  2.5735
   10MOL0     H 1256   7.663   1.594   7.912 -4.2396 -0.2442  0.0017
   10MOL0     H 1257   7.618   1.453   8.063  1.0330 -0.0199 -0.9294
   10MOL0     H 1258   7.651   1.289   8.010  3.1352  2.3808  0.6311
   10MOL0     H 1259   7.382   1.365   8.158  0.6598  0.7600 -0.6875
   10MOL0     H 1260   7.516   1.343   8.262 -3.4719 -1.3497  2.1774
   10MOL0     H 1261   7.562   1.124   8.161  1.6473  4.0226 -0.5655
   10MOL0     H 1262   7.418   1.150   8.055 -1.9124  2.7727  1.0126
   10MOL0     H 1263   7.396   1.159   8.351  2.4692  1.4505 -0.9599
   10MOL0     H 1264   7.270   1.136   8.218 -0.3524 -2.1345 -0.9710
   10MOL0     H 1265   7.337   0.932   8.356  3.1213 -2.0797  1.5285
   10MOL0     H 1266   7.487   0.938   8.287 -0.9253  0.1672  4.6873
   10MOL0     H 1267   7.348   0.913   8.051 -1.9185  1.5092 -0.3513
   10MOL0     H 1268   7.210   0.886   8.163 -0.9158 -2.2231  1.0443
   10MOL0     H 1269   7.436   0.701   8.089 -2.0416 -0.2609 -0.8192
   10MOL0     H 1270   7.417   0.714   8.272 -0.6366 -0.4153  0.3257
   10MOL0     H 1271   7.285   0.536   8.162 -3.4505 -1.1055 -3.3439
   10MOL0     H 1272   7.182   0.653   8.091 -1.8143 -4.9611  0.1025
   10MOL0     H 1273   7.030   0.792   8.324  0.6918  1.1833  3.2183
   10MOL0     H 1274   6.987   0.650   8.663 -0.5313 -0.2369 -0.7110
   10MOL0     H 1275   6.855   0.670   8.550 -0.5781  2.0697  1.0517
   10MOL0     H 1276   6.967   0.908   8.516  0.2090  2.8647  0.7049
   10MOL0     H 1277   7.089   0.856   8.637 -1.4427  0.7920  2.8212
   10MOL0     H 1278   6.786   0.879   8.703  0.0107  0.1372  1.8702
   10MOL0     H 1279   6.911   0.829   8.809  0.5698  1.8818  1.9844
   10MOL0     H 1280   6.807   1.087   8.786  0.3257  0.7030 -0.7588
   10MOL0     H 1281   6.970   1.090   8.701  1.5319 -1.6457 -0.0598
   10MOL0     H 1282   7.065   1.037   9.130  0.7982  0.2690  3.9502
   10MOL0     H 1283   7.067   1.214   9.286  2.5292  0.5119 -0.6205
   10MOL0     H 1284   7.244   1.599   9.426 -0.4730  1.2251 -0.2434
   10MOL0     H 1285   7.278   1.754   9.592  0.1763 -0.6714 -0.6195
   10MOL0     H 1286   7.265   1.922   9.711  0.1346  4.7636 -0.1631
   10MOL0     H 1287   7.264   1.847   9.864 -1.7685 -0.5219  0.9096
   10MOL0     H 1288   7.119   2.098   9.758  0.9154  1.3003  0.4308
   10MOL0     H 1289   7.268   2.114   9.842 -1.6690  1.3886  1.4996
   10MOL0     H 1290   7.194   2.039  10.041  0.1562  1.8927  0.0953
   10MOL0     H 1291   7.023   1.993   9.982  1.2904 -1.0442  4.6258
   10MOL0     H 1292   7.122   2.287   9.964 -1.0580  0.4587  3.3808
   10MOL0     H 1293   6.980   2.209   9.902 -0.5103  0.1722 -0.1248
   10MOL0     H 1294   6.923   2.133  10.119  2.2417 -1.4342 -1.4196
   10MOL0     H 1295   6.897   2.305  10.087  0.5864  0.2881 -1.6943
   10MOL0     H 1296   7.149   2.194  10.228  2.3698  2.3282 -3.0011
   10MOL0     H 1297   7.003   2.233  10.317  0.2324  1.3047  1.0087
   10MOL0     H 1298   7.196   2.407  10.178 -1.2310  2.4042 -1.2177
   10MOL0     H 1299   7.035   2.466  10.190  3.0291 -1.0409 -5.1705
   10MOL0     H 1300   7.223   2.406  10.425 -0.4418 -0.4919  0.8912
   10MOL0     H 1301   7.051   2.402  10.452  0.6899  1.2106  1.3083
   10MOL0     H 1302   6.870   1.700   9.734 -0.2853 -1.3705 -0.1231
   10MOL0     H 1303   6.831   1.534   9.571 -1.8758  1.2205  0.3856
   10MOL0     H 1304   6.954   1.494   8.982 -0.6052  0.9454  1.5313
   10MOL0     H 1305   6.920   1.302   8.826 -0.3356  3.2321  0.7453
   10MOL0     H 1306   7.447   1.318   7.678  2.4433 -3.1400  4.6154
   10MOL0     H 1307   7.557   1.430   7.468  0.0329 -0.7900 -0.3024
   10MOL0     H 1308   7.933   1.653   7.312 -3.8473 -3.1784 -0.5934
   10MOL0     H 1309   8.054   1.794   7.146 -0.1552 -0.2137  0.7250
   10MOL0     H 1310   7.963   1.970   6.772 -0.3886  2.4351  1.1343
   10MOL0     H 1311   7.812   2.014   6.839 -4.4262 -1.6189 -0.8258
   10MOL0     H 1312   7.872   1.704   6.803  0.4136  1.1204  0.8650
   10MOL0     H 1313   7.722   1.772   6.809  1.8514 -0.7287  2.1562
   10MOL0     H 1314   7.836   1.720   6.574 -2.0230 -0.2198 -1.2530
   10MOL0     H 1315   7.900   1.883   6.601  2.3511 -3.2760 -0.9909
   10MOL0     H 1316   7.679   1.868   6.476 -2.9934  0.9729  0.3785
   10MOL0     H 1317   7.597   1.799   6.630 -3.8251  1.8833 -0.8181
   10MOL0     H 1318   7.556   2.204   6.666  1.6353  0.9643 -2.8100
   10MOL0     H 1319   7.669   1.951   7.001 -1.8365 -2.6605 -1.4874
   10MOL0     H 1320   7.553   1.839   7.183 -1.9180 -2.6531  3.3562
   11MOL0     O 1321   1.488   1.370   9.213  0.2288  0.3267 -0.3689
   11MOL0     C 1322   1.475   1.483   9.164  0.3215 -0.3986 -0.1256
   11MOL0     O 1323   1.353   1.545   9.127 -0.5461 -0.6535 -0.0698
   11MOL0     C 1324   1.239   1.481   9.111  1.2274 -0.6556  1.0458
   11MOL0     C 1325   1.129   1.559   9.081 -0.0664 -0.3082 -0.1549
   11MOL0     C 1326   0.994   1.522   9.061 -0.3848  0.8652  0.1257
   11MOL0     C 1327   0.972   1.387   9.062 -0.4929 -0.3126  0.8627
   11MOL0     O 1328   0.839   1.353   9.028  1.0239  0.2966  0.2482
   11MOL0     C 1329   0.772   1.267   9.109  0.4209  0.8724 -0.9776
   11MOL0     C 1330   0.660   1.333   9.184 -0.2934 -0.1335  0.5521
   11MOL0     C 1331   0.698   1.452   9.278  0.1250  0.0209  0.2806
   11MOL0     C 1332   0.702   1.433   9.422  0.8963  0.4407  0.0602
   11MOL0     C 1333   0.727   1.564   9.491  0.4818  0.8794 -0.3595
   11MOL0     C 1334   0.721   1.540   9.644 -1.1621  0.3652 -0.5691
   11MOL0     C 1335   0.636   1.635   9.727 -0.1930 -1.1257 -0.4251
   11MOL0     C 1336   0.707   1.773   9.740 -0.8970  0.9252 -0.2026
   11MOL0     N 1337   0.664   1.875   9.644  0.1336 -0.4406  0.3475
   11MOL0     C 1338   0.715   1.892   9.512 -0.3815  0.2627  0.3913
   11MOL0     C 1339   0.613   1.956   9.452  0.9058 -0.1069 -0.0424
   11MOL0     C 1340   0.633   1.988   9.308  0.5094  0.0568  1.0114
   11MOL0     C 1341   0.630   1.865   9.211 -0.1601  0.3262 -0.4727
   11MOL0     C 1342   0.511   1.866   9.111 -0.9333  0.0523 -0.4026
   11MOL0     C 1343   0.409   1.769   9.152 -0.3439  0.6247 -0.2543
   11MOL0     O 1344   0.358   1.806   9.279 -0.2834  0.3947  0.3144
   11MOL0     C 1345   0.327   1.697   9.356 -0.2541  0.5134 -0.8904
   11MOL0     C 1346   0.314   1.559   9.335 -0.7273  0.3144  0.4378
   11MOL0     C 1347   0.281   1.472   9.435  0.9985  0.5929 -0.1572
   11MOL0     C 1348   0.248   1.526   9.558  1.2303 -0.6829 -0.1045
   11MOL0     C 1349   0.222   1.430   9.677 -0.1951 -0.1258  0.0551
   11MOL0     O 1350   0.257   1.296   9.654 -0.0720 -0.4345 -0.8923
   11MOL0     C 1351   0.235   1.228   9.772  0.5191 -0.5025  0.8581
   11MOL0     C 1352   0.114   1.174   9.816 -0.0287 -0.3654  1.1623
   11MOL0     C 1353   0.100   1.078   9.918 -0.0247  0.2576 -0.1126
   11MOL0     C 1354   0.218   1.030   9.972  0.8144  0.1767 -0.4080
   11MOL0     O 1355   0.220   0.937  10.085  0.4251 -0.4478  0.4659
   11MOL0     C 1356   0.101   0.869  10.125  0.4516 -0.2230  0.8255
   11MOL0     C 1357   0.152   0.758  10.227 -0.2157 -0.0519  0.1913
   11MOL0     C 1358   0.036   0.687  10.295  0.0520  0.7446 -0.1495
   11MOL0     C 1359   0.079   0.550  10.347 -0.4067 -0.2474 -0.8160
   11MOL0     C 1360  -0.042   0.488  10.426 -0.4465  1.2751  0.7624
   11MOL0     C 1361  -0.122   0.378  10.354 -0.3634 -0.3236  0.4201
   11MOL0     C 1362  -0.083   0.237  10.390  0.4969  0.5240 -0.0229
   11MOL0     C 1363  -0.166   0.118  10.332  0.7893 -0.4238 -0.4923
   11MOL0    Cl 1364  -0.335   0.152  10.336 -0.4343  0.0875 -0.0281
   11MOL0     C 1365   0.340   1.091   9.940 -0.0877 -1.1707 -0.0861
   11MOL0     C 1366   0.349   1.199   9.845  0.2308  0.0112  0.1244
   11MOL0     O 1367   0.179   1.490   9.778  0.0795  0.2923 -0.1856
   11MOL0     C 1368   0.245   1.667   9.580  0.1714  0.1046 -0.5037
   11MOL0     C 1369   0.295   1.744   9.476  0.4084 -0.1782 -0.2951
   11MOL0     N 1370   0.510   1.980   9.530  0.6532  0.5856 -0.0596
   11MOL0     N 1371   0.542   1.936   9.650 -0.4202 -0.1897  0.1882
   11MOL0     C 1372   1.075   1.297   9.088 -0.8132  0.2817 -0.1049
   11MOL0     C 1373   1.202   1.344   9.112  0.0776  0.5277  0.0962
   11MOL0     C 1374   1.604   1.560   9.149  0.4777  0.7696  1.1780
   11MOL0     C 1375   1.724   1.533   9.221 -0.4036  0.2104  0.5138
   11MOL0     C 1376   1.841   1.605   9.190  0.4291 -0.6536 -0.5839
   11MOL0     C 1377   1.851   1.697   9.085  0.5942  1.2273  0.9258
   11MOL0     O 1378   1.982   1.735   9.060 -0.1624 -0.5482  1.1404
   11MOL0     C 1379   2.004   1.781   8.924 -1.0580 -0.6809  0.8903
   11MOL0     C 1380   2.137   1.853   8.885 -0.8294  0.4968 -0.2602
   11MOL0     C 1381   2.166   1.980   8.953  0.8899 -0.3696 -0.2090
   11MOL0     C 1382   2.268   2.064   8.876  0.4010 -0.5316 -0.2416
   11MOL0     C 1383   2.245   2.210   8.883 -0.0639  0.5948  0.0670
   11MOL0     C 1384   2.209   2.328   8.895  0.5983 -0.4914  0.7235
   11MOL0     C 1385   1.731   1.716   9.003 -0.9304  0.7834 -0.2875
   11MOL0     C 1386   1.621   1.643   9.037  0.0492 -0.0285 -0.1268
   11MOL0     H 1387   1.129   1.667   9.083  0.3459 -0.2119  3.8161
   11MOL0     H 1388   0.908   1.588   9.050 -0.5528  0.5579 -0.4576
   11MOL0     H 1389   0.838   1.220   9.182  0.4541  0.5808 -1.1920
   11MOL0     H 1390   0.727   1.191   9.043 -2.0245 -1.9090  3.3695
   11MOL0     H 1391   0.616   1.257   9.249  2.1395  0.8551  3.6174
   11MOL0     H 1392   0.597   1.377   9.106  1.7466 -1.4738 -1.9955
   11MOL0     H 1393   0.617   1.524   9.262 -0.5541 -0.9437 -0.7115
   11MOL0     H 1394   0.795   1.495   9.252 -0.6249  1.2000 -0.6342
   11MOL0     H 1395   0.605   1.385   9.439  0.9245  0.0592 -0.7938
   11MOL0     H 1396   0.772   1.357   9.460 -1.0563 -0.4872  2.0423
   11MOL0     H 1397   0.640   1.629   9.478 -0.2467 -0.1099 -0.5227
   11MOL0     H 1398   0.826   1.607   9.474  2.8302 -2.9782  2.0063
   11MOL0     H 1399   0.820   1.539   9.691 -0.5208  0.8784 -1.8677
   11MOL0     H 1400   0.685   1.438   9.659 -1.7912  0.5222 -0.9824
   11MOL0     H 1401   0.543   1.651   9.672  0.0151 -1.6361 -0.9398
   11MOL0     H 1402   0.609   1.599   9.827  1.1936 -1.9864 -0.3341
   11MOL0     H 1403   0.815   1.774   9.757 -0.3276  1.9066 -3.2866
   11MOL0     H 1404   0.664   1.804   9.836 -3.7314 -0.7152 -0.8352
   11MOL0     H 1405   0.809   1.861   9.468  0.2646  2.8469 -0.2437
   11MOL0     H 1406   0.730   2.035   9.289  0.3623 -0.1473 -0.3375
   11MOL0     H 1407   0.561   2.065   9.278  0.6629  0.8969  2.6887
   11MOL0     H 1408   0.625   1.769   9.264 -0.4586  1.8365  2.4651
   11MOL0     H 1409   0.729   1.851   9.166  0.1079  0.8668 -0.0724
   11MOL0     H 1410   0.476   1.967   9.089  0.4821  1.4917  3.2646
   11MOL0     H 1411   0.548   1.818   9.019  1.4723 -0.1122  0.5715
   11MOL0     H 1412   0.456   1.671   9.143 -0.5014  0.7014 -6.1836
   11MOL0     H 1413   0.335   1.776   9.071 -1.2992  4.7835  0.7256
   11MOL0     H 1414   0.336   1.520   9.236 -3.2273 -1.3613  0.4535
   11MOL0     H 1415   0.280   1.365   9.421 -1.1127  0.7252 -1.4406
   11MOL0     H 1416   0.019   1.210   9.778  1.1060  0.9250 -0.6131
   11MOL0     H 1417   0.004   1.028   9.933 -0.5293  1.3383  0.3739
   11MOL0     H 1418   0.052   0.832  10.035  2.9589  3.2056 -2.2411
   11MOL0     H 1419   0.023   0.924  10.179 -0.5547  0.3146 -1.1161
   11MOL0     H 1420   0.242   0.793  10.277 -2.0377  0.5126  3.3112
   11MOL0     H 1421   0.207   0.682  10.170  0.3294  1.5254 -1.4894
   11MOL0     H 1422  -0.050   0.677  10.228  0.1948  2.3457 -0.6029
   11MOL0     H 1423   0.001   0.746  10.380  2.5774  1.7652  0.2898
   11MOL0     H 1424   0.111   0.491  10.260  2.1626 -0.7515  0.3815
   11MOL0     H 1425   0.161   0.555  10.419  1.0652 -0.8200 -2.3734
   11MOL0     H 1426  -0.121   0.561  10.445 -3.4380 -2.2269  3.0525
   11MOL0     H 1427  -0.006   0.443  10.519 -2.4542  0.6198  1.2737
   11MOL0     H 1428  -0.104   0.381  10.246 -1.7387 -3.3979 -0.0079
   11MOL0     H 1429  -0.228   0.391  10.377 -0.7827  0.9723 -1.9931
   11MOL0     H 1430   0.021   0.208  10.374  0.3757 -1.4356  2.1978
   11MOL0     H 1431  -0.090   0.230  10.498  0.2083 -2.1903 -0.1503
   11MOL0     H 1432  -0.142   0.018  10.368  2.1958  0.3001  0.7042
   11MOL0     H 1433  -0.147   0.109  10.224 -1.6030 -3.5008 -0.7850
   11MOL0     H 1434   0.436   1.070   9.987 -0.5004 -4.4461 -0.4576
   11MOL0     H 1435   0.442   1.241   9.808 -1.4167  1.8975 -2.2368
   11MOL0     H 1436   0.210   1.724   9.666  0.0310  2.1968 -1.8769
   11MOL0     H 1437   0.300   1.850   9.502 -1.9860  0.3943 -1.8111
   11MOL0     H 1438   1.060   1.190   9.091 -2.9398  0.5022 -0.8974
   11MOL0     H 1439   1.273   1.269   9.145  1.4693  2.3280  1.4216
   11MOL0     H 1440   1.702   1.460   9.297  0.6440  0.3854  1.0001
   11MOL0     H 1441   1.924   1.598   9.260  0.2842  2.2349  0.0145
   11MOL0     H 1442   1.926   1.851   8.892  0.4863 -0.0265 -1.6830
   11MOL0     H 1443   1.988   1.690   8.864 -2.4937 -0.6488  1.1747
   11MOL0     H 1444   2.223   1.785   8.888 -0.6494  0.5664 -2.2025
   11MOL0     H 1445   2.124   1.884   8.781 -2.9369 -0.0914 -0.2157
   11MOL0     H 1446   2.189   1.966   9.059 -0.8672  0.6718  0.3495
   11MOL0     H 1447   2.071   2.035   8.952 -0.2786 -2.1563  2.7208
   11MOL0     H 1448   2.357   2.054   8.938 -0.3812  1.4663  1.3186
   11MOL0     H 1449   2.286   2.035   8.772  0.3565  3.7546 -1.6346
   11MOL0     H 1450   2.164   2.425   8.896  0.4037 -0.5821  0.6739
   11MOL0     H 1451   1.738   1.783   8.918  0.1407  1.4660  0.3160
   11MOL0     H 1452   1.533   1.667   8.978 -3.2302 -3.2819  2.9155
   12MOL0     O 1453   7.199   2.621   0.057  0.9828  0.5849 -0.0846
   12MOL0     C 1454   7.117   2.702   0.097  0.0371 -0.7674 -0.8404
   12MOL0     O 1455   7.050   2.782   0.020 -0.4136 -0.1451  0.0246
   12MOL0     C 1456   7.071   2.790  -0.110 -0.2546  0.0352 -0.6396
   12MOL0     C 1457   6.968   2.762  -0.199 -0.1934 -0.5977 -0.0278
   12MOL0     C 1458   6.973   2.800  -0.336  0.0335  0.0102  0.7247
   12MOL0     C 1459   7.095   2.862  -0.385  0.6996 -0.5322 -0.4323
   12MOL0     O 1460   7.110   2.907  -0.512  0.1243 -0.9928 -0.1991
   12MOL0     C 1461   7.108   3.049  -0.528 -0.1161  0.3432  0.2330
   12MOL0     C 1462   7.030   3.093  -0.657 -0.3145  0.3749 -0.4634
   12MOL0     C 1463   7.124   3.085  -0.778 -0.0990  0.0839  0.3779
   12MOL0     C 1464   7.052   3.144  -0.891  0.1913 -0.3729 -0.4934
   12MOL0     C 1465   7.125   3.104  -1.026 -0.0145 -0.1193  0.4167
   12MOL0     C 1466   7.083   2.966  -1.073 -0.8459  0.6976 -0.1191
   12MOL0     C 1467   7.119   2.925  -1.214 -0.0265  0.6156  0.6426
   12MOL0     C 1468   7.267   2.911  -1.254  1.0131 -0.4212 -0.1753
   12MOL0     N 1469   7.283   2.966  -1.384 -0.5523 -0.8994 -0.2945
   12MOL0     C 1470   7.268   3.095  -1.431 -0.0307 -0.3306  0.2352
   12MOL0     C 1471   7.302   3.082  -1.566  0.5076  0.1633  0.7066
   12MOL0     C 1472   7.273   3.175  -1.681 -0.0948  1.2475  0.5636
   12MOL0     C 1473   7.308   3.316  -1.633  0.5148 -0.5440  0.2241
   12MOL0     C 1474   7.259   3.412  -1.743  0.6008  0.0220  0.1950
   12MOL0     C 1475   7.328   3.547  -1.725 -0.0447 -0.4499  0.2320
   12MOL0     O 1476   7.257   3.659  -1.782 -0.4000 -0.0357  0.3691
   12MOL0     C 1477   7.260   3.691  -1.918  0.0246  1.0459  0.1108
   12MOL0     C 1478   7.139   3.734  -1.974 -0.3086 -0.2076  0.9185
   12MOL0     C 1479   7.136   3.752  -2.109  1.3017 -0.9579  1.2504
   12MOL0     C 1480   7.251   3.742  -2.190 -0.2857  0.3394  0.4178
   12MOL0     C 1481   7.251   3.750  -2.337  0.1096 -0.5012 -0.0985
   12MOL0     O 1482   7.142   3.719  -2.411  1.1776  0.0685 -0.8400
   12MOL0     C 1483   7.148   3.738  -2.543  0.2642 -0.2282  1.3651
   12MOL0     C 1484   7.147   3.861  -2.612  0.2154 -1.0147 -0.6801
   12MOL0     C 1485   7.139   3.875  -2.745 -0.7071  0.5991  0.5244
   12MOL0     C 1486   7.129   3.766  -2.830 -0.2421  0.0874 -0.5313
   12MOL0     O 1487   7.126   3.799  -2.962 -0.1200 -0.1685 -0.3612
   12MOL0     C 1488   7.158   3.703  -3.060  0.5319 -0.5892 -0.4136
   12MOL0     C 1489   7.039   3.622  -3.112 -0.0974  0.2679  0.4664
   12MOL0     C 1490   6.936   3.708  -3.197 -0.1548  0.2637  0.3948
   12MOL0     C 1491   6.835   3.614  -3.259 -0.4211 -0.0751 -0.7726
   12MOL0     C 1492   6.750   3.686  -3.358  0.2198 -0.9800  0.3476
   12MOL0     C 1493   6.643   3.594  -3.409 -0.1668 -0.1155 -0.4220
   12MOL0     C 1494   6.550   3.669  -3.497  0.4827  0.7549  0.0265
   12MOL0     C 1495   6.420   3.603  -3.527 -0.4869 -0.2180 -0.6830
   12MOL0    Cl 1496   6.430   3.428  -3.567 -0.7992 -0.5061  0.6924
   12MOL0     C 1497   7.138   3.636  -2.765  0.4319 -0.6004  0.9485
   12MOL0     C 1498   7.142   3.624  -2.618 -0.4237 -0.2363  0.5553
   12MOL0     O 1499   7.356   3.788  -2.392  0.3359 -0.7688  0.4085
   12MOL0     C 1500   7.374   3.716  -2.131 -0.8962 -0.8295 -1.2962
   12MOL0     C 1501   7.371   3.671  -1.997 -0.5619 -0.6141 -0.1243
   12MOL0     N 1502   7.348   2.944  -1.588 -0.2498 -0.5055  0.7004
   12MOL0     N 1503   7.336   2.884  -1.477  0.3160 -0.0390  0.3673
   12MOL0     C 1504   7.185   2.895  -0.292 -0.2158 -0.3921 -0.6281
   12MOL0     C 1505   7.178   2.864  -0.150  0.4128 -0.3595  0.3123
   12MOL0     C 1506   7.084   2.712   0.247 -0.0839  0.3400  1.0219
   12MOL0     C 1507   6.952   2.759   0.275 -0.2744  0.3818 -0.3047
   12MOL0     C 1508   6.924   2.791   0.417 -0.2214  0.7639 -1.2663
   12MOL0     C 1509   7.010   2.754   0.522  0.1017  0.0468 -0.2127
   12MOL0     O 1510   6.966   2.781   0.650  0.3851 -0.0372  0.5452
   12MOL0     C 1511   7.007   2.687   0.757  1.0500  0.4208  1.0601
   12MOL0     C 1512   6.881   2.601   0.803 -0.4365 -0.8154 -0.4394
   12MOL0     C 1513   6.802   2.538   0.683 -0.9305  0.6233  0.6252
   12MOL0     C 1514   6.696   2.449   0.743 -0.1060  0.7119  0.0188
   12MOL0     C 1515   6.632   2.393   0.628  0.5038 -0.2475  0.0367
   12MOL0     C 1516   6.563   2.372   0.533  0.1286 -0.3408  0.4062
   12MOL0     C 1517   7.131   2.705   0.483  0.0577 -0.2684  0.5426
   12MOL0     C 1518   7.168   2.685   0.354 -0.6095  0.1573  0.7081
   12MOL0     H 1519   6.875   2.724  -0.157 -2.1249  2.7083 -0.9498
   12MOL0     H 1520   6.897   2.763  -0.403  1.6829 -0.8283 -0.7548
   12MOL0     H 1521   7.212   3.084  -0.528  1.5897 -4.0295 -0.7453
   12MOL0     H 1522   7.056   3.087  -0.439 -2.0308 -1.9987  0.2075
   12MOL0     H 1523   6.995   3.197  -0.651 -1.5502  0.1167 -2.3491
   12MOL0     H 1524   6.943   3.030  -0.677 -1.0445  0.9237  0.8151
   12MOL0     H 1525   7.154   2.982  -0.799 -1.8639  0.0199 -2.2576
   12MOL0     H 1526   7.209   3.152  -0.765 -0.4627  0.3368  1.7024
   12MOL0     H 1527   6.945   3.121  -0.894 -0.2337  1.3760  0.0576
   12MOL0     H 1528   7.063   3.253  -0.887 -0.1587 -0.3916  1.6814
   12MOL0     H 1529   7.231   3.108  -1.000 -0.2090 -3.4726  2.2792
   12MOL0     H 1530   7.098   3.173  -1.107  1.9254 -0.1163 -0.2766
   12MOL0     H 1531   6.974   2.955  -1.063 -0.5300 -2.1941  0.9199
   12MOL0     H 1532   7.128   2.893  -1.006  2.8518  0.5280 -2.5149
   12MOL0     H 1533   7.081   2.825  -1.236  0.0285  1.4502 -4.2247
   12MOL0     H 1534   7.057   2.977  -1.289  1.4278  0.6942 -0.5372
   12MOL0     H 1535   7.298   2.806  -1.259  0.3994 -0.5578 -1.3740
   12MOL0     H 1536   7.331   2.966  -1.185 -3.7125  3.1652  1.8460
   12MOL0     H 1537   7.225   3.181  -1.381  3.2291  0.9614  1.0660
   12MOL0     H 1538   7.168   3.172  -1.710  0.3882 -1.5480 -1.3693
   12MOL0     H 1539   7.334   3.156  -1.770  0.1693  3.0271  0.3430
   12MOL0     H 1540   7.416   3.326  -1.621  0.4234  0.4527  0.2998
   12MOL0     H 1541   7.258   3.345  -1.540  0.6207 -0.6168  0.3033
   12MOL0     H 1542   7.271   3.373  -1.844 -1.7958 -1.5274  0.4234
   12MOL0     H 1543   7.150   3.412  -1.735  0.3310 -0.1890 -2.6678
   12MOL0     H 1544   7.432   3.543  -1.758 -0.7973 -0.0157 -2.4997
   12MOL0     H 1545   7.337   3.559  -1.617 -0.2496  1.8657  0.0422
   12MOL0     H 1546   7.053   3.755  -1.911 -0.4741  0.5447  0.4637
   12MOL0     H 1547   7.043   3.775  -2.161  1.1247  1.2682  2.4557
   12MOL0     H 1548   7.153   3.950  -2.550  1.9977 -0.3164 -1.7705
   12MOL0     H 1549   7.147   3.978  -2.778 -0.6128  0.8825  1.4046
   12MOL0     H 1550   7.233   3.638  -3.014  0.7318  1.1645  1.9435
   12MOL0     H 1551   7.200   3.756  -3.146  1.4188 -2.3474 -1.1179
   12MOL0     H 1552   6.984   3.577  -3.029  2.5926 -1.2466  1.5188
   12MOL0     H 1553   7.075   3.547  -3.182 -1.1703  0.4587 -0.3152
   12MOL0     H 1554   6.981   3.764  -3.280 -3.6167 -3.1905 -4.4224
   12MOL0     H 1555   6.874   3.776  -3.138 -1.3917  0.0300 -0.5976
   12MOL0     H 1556   6.876   3.520  -3.299 -1.7195 -1.1146  0.2365
   12MOL0     H 1557   6.769   3.569  -3.184  2.1932 -1.0662  1.1022
   12MOL0     H 1558   6.809   3.729  -3.440 -2.1078 -0.1879 -0.9995
   12MOL0     H 1559   6.707   3.765  -3.295  2.4559 -0.1439  0.9477
   12MOL0     H 1560   6.581   3.564  -3.324 -0.1964 -1.1046 -0.7833
   12MOL0     H 1561   6.695   3.507  -3.452  0.1315 -0.9770  1.5756
   12MOL0     H 1562   6.527   3.762  -3.446 -3.3302 -0.3034  0.5665
   12MOL0     H 1563   6.600   3.689  -3.592 -0.0737 -0.9114 -0.6590
   12MOL0     H 1564   6.370   3.661  -3.605 -1.5361  3.3545  2.3463
   12MOL0     H 1565   6.357   3.632  -3.442 -0.0187  0.8672 -0.6918
   12MOL0     H 1566   7.133   3.546  -2.825  3.7964 -0.0907 -0.3359
   12MOL0     H 1567   7.121   3.531  -2.566  0.0954 -0.7966 -0.2208
   12MOL0     H 1568   7.464   3.721  -2.192 -1.7901  1.2102 -2.5351
   12MOL0     H 1569   7.467   3.634  -1.962 -1.4591 -1.3945  1.6352
   12MOL0     H 1570   7.266   2.959  -0.325  0.7447 -0.6809  1.0469
   12MOL0     H 1571   7.251   2.909  -0.084 -0.6933  2.9175 -0.5198
   12MOL0     H 1572   6.889   2.789   0.192 -1.2878 -1.3457 -0.2123
   12MOL0     H 1573   6.821   2.820   0.436 -0.6443 -2.2458  2.1904
   12MOL0     H 1574   7.059   2.748   0.831 -2.1989  3.0684  1.3910
   12MOL0     H 1575   7.091   2.622   0.731 -0.9439 -1.9389  0.0745
   12MOL0     H 1576   6.914   2.529   0.878 -0.1705  0.7228  0.9789
   12MOL0     H 1577   6.809   2.661   0.859 -0.4284  0.7346 -2.0165
   12MOL0     H 1578   6.870   2.476   0.624 -1.9567 -0.0155  0.0679
   12MOL0     H 1579   6.767   2.612   0.610 -0.0369 -1.4344 -2.0464
   12MOL0     H 1580   6.747   2.368   0.796 -1.1281 -0.0569 -0.1582
   12MOL0     H 1581   6.631   2.507   0.810  0.9577  0.9429  0.8794
   12MOL0     H 1582   6.498   2.351   0.450 -0.8465 -0.9281  1.2819
   12MOL0     H 1583   7.203   2.696   0.564  0.4718 -1.3659  0.0772
   12MOL0     H 1584   7.272   2.657   0.336  1.0435  3.0113  4.4211
   13MOL0     O 1585   8.842   6.729   1.476  0.3941 -0.0847  0.0838
   13MOL0     C 1586   8.862   6.610   1.485  0.2373  0.3682 -0.5930
   13MOL0     O 1587   8.797   6.514   1.404  0.4819 -0.2360  0.3654
   13MOL0     C 1588   8.711   6.562   1.304  1.1844 -0.0741 -0.3514
   13MOL0     C 1589   8.596   6.498   1.272 -0.8026  0.4462  0.4595
   13MOL0     C 1590   8.539   6.513   1.143  0.7553 -0.5792 -0.1551
   13MOL0     C 1591   8.571   6.619   1.066 -0.4289  0.1370 -0.3094
   13MOL0     O 1592   8.512   6.631   0.945  0.7676  0.1285  0.2311
   13MOL0     C 1593   8.502   6.761   0.882  0.1037 -0.9798 -0.8248
   13MOL0     C 1594   8.410   6.737   0.763  0.0817 -0.5888 -0.5961
   13MOL0     C 1595   8.261   6.736   0.805 -0.4860 -0.0639  0.1578
   13MOL0     C 1596   8.175   6.722   0.677 -0.0473 -0.1303  0.3382
   13MOL0     C 1597   8.029   6.691   0.703  0.3635  0.3106 -1.4182
   13MOL0     C 1598   7.926   6.700   0.584 -0.9681 -0.4026 -0.5100
   13MOL0     C 1599   7.791   6.639   0.617  0.2732 -0.1121  0.0465
   13MOL0     C 1600   7.798   6.478   0.634 -0.7771  0.0907 -0.0121
   13MOL0     N 1601   7.670   6.419   0.651  0.6028  1.0618  0.2648
   13MOL0     C 1602   7.643   6.320   0.749 -0.5988 -0.0602 -0.2741
   13MOL0     C 1603   7.540   6.248   0.708  0.3099 -0.0091 -0.4034
   13MOL0     C 1604   7.449   6.152   0.784 -0.5122 -0.4915 -0.6056
   13MOL0     C 1605   7.321   6.115   0.701  0.0879  1.4642 -0.8773
   13MOL0     C 1606   7.221   5.996   0.748  0.0282 -0.2705  0.8657
   13MOL0     C 1607   7.178   6.015   0.895 -0.6701 -1.2923 -0.7451
   13MOL0     O 1608   7.051   5.952   0.926  0.3769 -0.2741  0.7459
   13MOL0     C 1609   7.010   5.958   1.056  1.0339 -0.8924 -0.8909
   13MOL0     C 1610   7.061   6.048   1.147 -0.8254  0.0265 -0.3417
   13MOL0     C 1611   7.008   6.068   1.274 -0.3417  1.0097 -0.7241
   13MOL0     C 1612   6.898   5.998   1.314 -0.2693 -0.3762 -0.1906
   13MOL0     C 1613   6.857   6.020   1.462 -0.7081 -0.9439  0.5270
   13MOL0     O 1614   6.806   5.913   1.518 -0.4673 -0.5185 -0.1672
   13MOL0     C 1615   6.767   5.923   1.647  0.0095  0.0976  0.3665
   13MOL0     C 1616   6.670   6.010   1.697 -0.3569 -0.2509 -0.3590
   13MOL0     C 1617   6.639   6.026   1.833  0.5510 -0.2082 -0.8121
   13MOL0     C 1618   6.687   5.925   1.915 -1.1671  0.2070  0.4427
   13MOL0     O 1619   6.643   5.916   2.041 -0.3381 -0.2106 -0.5448
   13MOL0     C 1620   6.692   5.824   2.138  1.2029  0.4520 -0.0264
   13MOL0     C 1621   6.652   5.886   2.267  0.5761 -0.3416 -0.2119
   13MOL0     C 1622   6.515   5.825   2.314  0.5843  0.7274  0.4714
   13MOL0     C 1623   6.404   5.833   2.205 -0.5258 -0.0700  0.7790
   13MOL0     C 1624   6.274   5.761   2.248  0.1657 -0.6805  0.0789
   13MOL0     C 1625   6.177   5.741   2.139  0.3331 -0.3727 -0.1874
   13MOL0     C 1626   6.029   5.719   2.181 -0.3959 -0.6701  0.1187
   13MOL0     C 1627   6.019   5.582   2.254  0.7200  0.2682  0.7821
   13MOL0    Cl 1628   6.077   5.585   2.427 -0.0266 -0.0489  0.3472
   13MOL0     C 1629   6.768   5.819   1.860 -0.9458 -0.1955  0.0850
   13MOL0     C 1630   6.816   5.825   1.729  0.1486 -0.3676 -0.3312
   13MOL0     O 1631   6.902   6.117   1.525 -0.0045  0.0220  0.2574
   13MOL0     C 1632   6.852   5.896   1.235 -0.0271  0.0304 -0.4530
   13MOL0     C 1633   6.905   5.879   1.100  0.8271  0.2952 -1.5355
   13MOL0     N 1634   7.518   6.277   0.576 -0.4713  0.4934 -0.9542
   13MOL0     N 1635   7.586   6.382   0.542 -0.4472  0.0397 -0.5316
   13MOL0     C 1636   8.687   6.688   1.101  0.2747 -0.0053  0.2096
   13MOL0     C 1637   8.757   6.663   1.218  0.4860 -1.0712 -0.0331
   13MOL0     C 1638   8.961   6.553   1.573 -0.6437  0.1416  0.3906
   13MOL0     C 1639   9.077   6.623   1.620 -0.6988 -0.1552  0.5834
   13MOL0     C 1640   9.167   6.565   1.715  0.3305  0.0294 -0.3855
   13MOL0     C 1641   9.141   6.438   1.758 -0.4483  0.6000  0.7554
   13MOL0     O 1642   9.233   6.385   1.848  0.4955  0.6943  0.5418
   13MOL0     C 1643   9.239   6.243   1.838 -0.2122  0.6983 -0.7208
   13MOL0     C 1644   9.355   6.199   1.917  0.7782 -0.5961 -0.0189
   13MOL0     C 1645   9.301   6.156   2.054  0.3567  0.1257  0.0192
   13MOL0     C 1646   9.413   6.143   2.151 -0.0609  0.5168  0.5642
   13MOL0     C 1647   9.359   6.085   2.269  0.0820  0.5733 -0.1401
   13MOL0     C 1648   9.308   6.040   2.365  0.0167  0.3930 -0.1151
   13MOL0     C 1649   9.030   6.363   1.701 -0.3185 -0.5453 -0.2319
   13MOL0     C 1650   8.943   6.428   1.623  0.3809  0.0846 -0.6862
   13MOL0     H 1651   8.571   6.416   1.339  2.4466 -0.4396  0.7499
   13MOL0     H 1652   8.450   6.456   1.119  1.5251 -2.6908  1.7289
   13MOL0     H 1653   8.602   6.791   0.848  0.7577 -0.7233  1.1717
   13MOL0     H 1654   8.464   6.841   0.947 -0.9438  0.3845 -3.0176
   13MOL0     H 1655   8.452   6.645   0.721  2.9985 -0.9901  2.7726
   13MOL0     H 1656   8.421   6.824   0.698 -2.6745 -0.0637 -0.5009
   13MOL0     H 1657   8.232   6.829   0.854 -0.5363  0.1542 -0.2865
   13MOL0     H 1658   8.241   6.647   0.865  0.4434 -0.5939 -0.2922
   13MOL0     H 1659   8.180   6.813   0.616 -0.3683 -2.1198 -2.8345
   13MOL0     H 1660   8.220   6.643   0.618 -2.5294 -1.7146  0.4306
   13MOL0     H 1661   7.995   6.764   0.778  0.8885 -0.3727 -0.4876
   13MOL0     H 1662   8.020   6.589   0.741  0.3869  1.7975  3.2333
   13MOL0     H 1663   7.963   6.668   0.486  2.1297 -0.8170  0.6743
   13MOL0     H 1664   7.912   6.808   0.576  0.3292 -0.2930 -1.7694
   13MOL0     H 1665   7.742   6.679   0.706 -0.2456 -2.1987  0.7441
   13MOL0     H 1666   7.725   6.658   0.532 -2.2764  3.0650  2.4702
   13MOL0     H 1667   7.852   6.464   0.728 -1.6884 -0.9653  0.3820
   13MOL0     H 1668   7.840   6.433   0.544 -1.6973  2.3185 -1.6389
   13MOL0     H 1669   7.699   6.322   0.842 -0.8019  0.4812 -0.1565
   13MOL0     H 1670   7.428   6.195   0.882 -0.3452 -4.3142  1.3150
   13MOL0     H 1671   7.507   6.063   0.810 -1.7775 -1.2845 -0.3775
   13MOL0     H 1672   7.357   6.082   0.603  4.9673 -0.2328  1.1696
   13MOL0     H 1673   7.261   6.204   0.683 -0.1929  1.4529 -0.0176
   13MOL0     H 1674   7.129   5.986   0.690 -0.4420  1.7720  1.1966
   13MOL0     H 1675   7.275   5.900   0.748  0.0993 -0.2677 -1.0926
   13MOL0     H 1676   7.159   6.123   0.888  2.3290 -0.7672 -2.6083
   13MOL0     H 1677   7.259   5.987   0.964 -0.8360  1.1758  0.5879
   13MOL0     H 1678   7.139   6.120   1.124 -2.1075  0.7005 -3.0225
   13MOL0     H 1679   7.046   6.146   1.340 -3.1167  0.9625  1.0993
   13MOL0     H 1680   6.635   6.089   1.631 -0.5643 -0.4120 -0.4452
   13MOL0     H 1681   6.574   6.108   1.862 -0.8703 -0.8932 -1.8747
   13MOL0     H 1682   6.800   5.806   2.135  1.1853  0.5035 -1.2047
   13MOL0     H 1683   6.642   5.728   2.125  2.4180 -1.1873  5.1473
   13MOL0     H 1684   6.657   5.994   2.257  1.5998 -0.4743 -1.3417
   13MOL0     H 1685   6.724   5.871   2.348  1.9220  1.7407 -0.9561
   13MOL0     H 1686   6.478   5.870   2.407 -0.4912  3.8140 -1.3308
   13MOL0     H 1687   6.531   5.718   2.329 -5.2203 -0.8826 -1.9831
   13MOL0     H 1688   6.378   5.938   2.194 -1.0303 -0.3957 -1.7579
   13MOL0     H 1689   6.425   5.780   2.112 -2.8472  0.2625 -0.0138
   13MOL0     H 1690   6.228   5.826   2.323  1.7836  0.8054 -0.1565
   13MOL0     H 1691   6.315   5.664   2.279  0.3875 -1.4275 -2.3505
   13MOL0     H 1692   6.214   5.655   2.084  2.1356 -0.0965  0.5303
   13MOL0     H 1693   6.176   5.823   2.067 -1.7636 -0.2932 -0.1269
   13MOL0     H 1694   5.989   5.800   2.244 -2.1466 -3.1949  2.4582
   13MOL0     H 1695   5.977   5.707   2.085 -1.1828 -3.3460  0.8031
   13MOL0     H 1696   6.061   5.494   2.205  2.6145 -0.2657  3.1452
   13MOL0     H 1697   5.911   5.567   2.263  0.6472 -1.3746 -1.8584
   13MOL0     H 1698   6.807   5.734   1.914  0.4162  0.9236  0.9509
   13MOL0     H 1699   6.873   5.743   1.688  1.7623  0.5051  0.0911
   13MOL0     H 1700   6.768   5.838   1.271 -0.8551  1.8791  0.7441
   13MOL0     H 1701   6.867   5.795   1.043 -0.6720 -0.9626  1.0866
   13MOL0     H 1702   8.721   6.767   1.035  0.4671  1.8668  2.4126
   13MOL0     H 1703   8.845   6.725   1.231  0.7632 -1.2755 -0.8539
   13MOL0     H 1704   9.113   6.717   1.580  0.3220 -0.3181  1.0855
   13MOL0     H 1705   9.260   6.607   1.752  0.5722 -1.4176  0.7527
   13MOL0     H 1706   9.252   6.213   1.733 -0.8836  1.8127 -1.1418
   13MOL0     H 1707   9.148   6.195   1.877  0.2352  0.6992  0.3472
   13MOL0     H 1708   9.411   6.125   1.858 -1.3743 -0.8604 -1.8746
   13MOL0     H 1709   9.424   6.281   1.938 -3.6550  3.4482  0.3933
   13MOL0     H 1710   9.252   6.059   2.043 -3.7636  2.1772 -2.1075
   13MOL0     H 1711   9.220   6.226   2.078  0.7490  1.5149 -2.3152
   13MOL0     H 1712   9.490   6.075   2.113 -0.1046 -0.0131  1.4014
   13MOL0     H 1713   9.462   6.240   2.165 -0.5747  1.1470 -1.5886
   13MOL0     H 1714   9.256   6.007   2.453  1.5968  0.6043  0.9248
   13MOL0     H 1715   9.005   6.265   1.740  2.1729 -0.7517  1.0371
   13MOL0     H 1716   8.850   6.373   1.612  1.3716 -2.0611  0.9790
   14MOL0     O 1717   3.719   8.133   0.988 -0.6231  0.0735  0.2932
   14MOL0     C 1718   3.687   8.112   1.110  0.2525 -0.1586  0.3272
   14MOL0     O 1719   3.585   8.181   1.176  0.2717 -0.1813  0.0612
   14MOL0     C 1720   3.504   8.269   1.104  0.2293  0.3445  0.1212
   14MOL0     C 1721   3.369   8.264   1.143 -0.0491  1.0566  0.9882
   14MOL0     C 1722   3.276   8.350   1.086  0.2929  0.6426  0.1000
   14MOL0     C 1723   3.315   8.436   0.989 -0.3571  0.6984  0.2088
   14MOL0     O 1724   3.220   8.522   0.945  0.3372  0.1610  0.4464
   14MOL0     C 1725   3.256   8.629   0.851 -0.3328 -0.0279 -0.2431
   14MOL0     C 1726   3.132   8.704   0.818 -0.4696  0.0215  0.5177
   14MOL0     C 1727   3.150   8.794   0.704 -1.1514 -0.9913  0.0015
   14MOL0     C 1728   3.029   8.840   0.625 -0.2954 -0.4386 -0.1896
   14MOL0     C 1729   3.039   8.988   0.576  1.1294  0.3126  0.3363
   14MOL0     C 1730   3.169   9.024   0.508  0.2977 -0.9875 -0.3823
   14MOL0     C 1731   3.161   9.178   0.475 -0.3217 -0.3069 -0.2091
   14MOL0     C 1732   3.268   9.251   0.390 -0.1659 -0.3728 -0.1256
   14MOL0     N 1733   3.344   9.350   0.464  0.7496  0.0284  0.5439
   14MOL0     C 1734   3.481   9.356   0.499  0.3525 -0.7770  0.5691
   14MOL0     C 1735   3.483   9.472   0.568 -0.5403  0.2347 -0.1033
   14MOL0     C 1736   3.603   9.538   0.640  0.3090 -0.2946 -1.4260
   14MOL0     C 1737   3.627   9.494   0.786  0.3137  0.5552 -0.1632
   14MOL0     C 1738   3.664   9.347   0.794  0.3262  0.7444  0.3318
   14MOL0     C 1739   3.812   9.334   0.758 -0.6232 -0.2379 -0.2441
   14MOL0     O 1740   3.836   9.187   0.732  0.6846 -0.1238 -0.2582
   14MOL0     C 1741   3.858   9.135   0.603  0.6300 -0.1929  0.5366
   14MOL0     C 1742   3.808   9.200   0.488 -0.4892 -0.2098 -0.3095
   14MOL0     C 1743   3.823   9.136   0.363  0.3243 -0.9440 -0.9184
   14MOL0     C 1744   3.887   9.013   0.353 -0.4003 -0.1425  1.1049
   14MOL0     C 1745   3.916   8.970   0.220  0.7694 -0.6100 -0.2737
   14MOL0     O 1746   3.996   8.864   0.213  0.4730  0.1195  0.8084
   14MOL0     C 1747   4.011   8.802   0.096 -0.5468 -0.0553  0.2088
   14MOL0     C 1748   4.140   8.804   0.036  0.6651 -0.9486  0.4866
   14MOL0     C 1749   4.164   8.735  -0.079 -1.1509  0.5598 -0.1743
   14MOL0     C 1750   4.065   8.670  -0.148  0.3829 -0.2306 -0.5052
   14MOL0     O 1751   4.097   8.599  -0.262  0.2087 -0.3682 -0.1193
   14MOL0     C 1752   3.994   8.507  -0.308 -0.6916 -0.5086  0.3751
   14MOL0     C 1753   4.077   8.396  -0.379 -0.6093 -0.0490  0.0058
   14MOL0     C 1754   4.169   8.319  -0.285  0.6311 -0.4993  0.3191
   14MOL0     C 1755   4.256   8.220  -0.371 -0.2765 -0.2717 -0.0719
   14MOL0     C 1756   4.370   8.143  -0.301  1.0054  0.1516 -0.2465
   14MOL0     C 1757   4.451   8.068  -0.396 -0.7815 -0.7152 -0.0600
   14MOL0     C 1758   4.598   8.040  -0.347 -0.8288 -0.4671  0.8485
   14MOL0     C 1759   4.610   7.934  -0.228  0.4710 -0.0052 -0.1130
   14MOL0    Cl 1760   4.787   7.930  -0.170  0.3253  0.0099  0.0703
   14MOL0     C 1761   3.928   8.669  -0.096  1.1610 -0.0194 -0.1538
   14MOL0     C 1762   3.906   8.738   0.031 -0.8721  0.2541 -0.0151
   14MOL0     O 1763   3.874   9.040   0.128 -0.0489  0.9940 -0.5533
   14MOL0     C 1764   3.934   8.952   0.469  0.7894  0.7596  0.8007
   14MOL0     C 1765   3.915   9.009   0.594 -0.2874  1.0244  0.0115
   14MOL0     N 1766   3.368   9.534   0.567  0.4136 -0.4361  0.0436
   14MOL0     N 1767   3.282   9.467   0.499  0.6710  0.5074 -0.0396
   14MOL0     C 1768   3.452   8.437   0.943  0.1291  1.1407  0.4076
   14MOL0     C 1769   3.547   8.353   1.004  0.0921 -0.0282 -0.5602
   14MOL0     C 1770   3.734   7.970   1.166 -0.0934 -0.4213  0.1510
   14MOL0     C 1771   3.674   7.900   1.271  0.6111 -0.4129  0.4823
   14MOL0     C 1772   3.736   7.778   1.320 -0.5300  0.6139  0.1544
   14MOL0     C 1773   3.860   7.735   1.263  0.5120 -0.9701 -0.4026
   14MOL0     O 1774   3.930   7.627   1.301 -0.3099  0.0351 -0.6309
   14MOL0     C 1775   3.874   7.528   1.384  0.8941 -0.2681  0.2758
   14MOL0     C 1776   3.756   7.458   1.331 -0.8934 -0.0261  0.3149
   14MOL0     C 1777   3.770   7.393   1.190  0.2734  0.2448  0.4569
   14MOL0     C 1778   3.771   7.485   1.069 -0.8711 -0.3677 -0.6565
   14MOL0     C 1779   3.643   7.574   1.051  0.1520  0.2341  0.4870
   14MOL0     C 1780   3.547   7.648   1.039 -0.2486  0.1905 -0.4351
   14MOL0     C 1781   3.910   7.798   1.151 -0.1838  0.1899 -0.0637
   14MOL0     C 1782   3.849   7.913   1.108  0.8393 -0.3838  0.4610
   14MOL0     H 1783   3.331   8.199   1.221 -0.7058  0.7194  0.4007
   14MOL0     H 1784   3.172   8.358   1.115  0.7436  0.9882  1.7399
   14MOL0     H 1785   3.306   8.582   0.766 -1.6397 -0.8626 -0.5841
   14MOL0     H 1786   3.326   8.696   0.900  0.0148 -0.6368  0.1131
   14MOL0     H 1787   3.083   8.756   0.900 -3.1160  0.0562 -0.9940
   14MOL0     H 1788   3.058   8.629   0.789 -1.8584  0.5305  2.5235
   14MOL0     H 1789   3.211   8.740   0.631 -0.5468  1.0571 -1.0831
   14MOL0     H 1790   3.200   8.885   0.739 -1.4033 -0.1295 -1.7591
   14MOL0     H 1791   3.007   8.771   0.543  0.8924 -0.3969 -0.5631
   14MOL0     H 1792   2.936   8.837   0.681  0.4984 -1.9793  1.1413
   14MOL0     H 1793   3.025   9.053   0.662  3.0671 -2.2284  2.7517
   14MOL0     H 1794   2.958   9.006   0.506  0.2776 -0.9293  0.9626
   14MOL0     H 1795   3.187   8.963   0.419  0.1744  2.0781 -2.6624
   14MOL0     H 1796   3.246   9.011   0.584 -4.6568 -0.3657  5.5051
   14MOL0     H 1797   3.065   9.198   0.427 -0.8516 -0.9979  0.5249
   14MOL0     H 1798   3.138   9.231   0.568 -0.5656 -0.2283 -0.3116
   14MOL0     H 1799   3.223   9.305   0.306  3.4512 -1.3757 -2.9866
   14MOL0     H 1800   3.339   9.179   0.348  1.2856  0.7416  0.3254
   14MOL0     H 1801   3.555   9.283   0.467  0.4715 -1.2719  1.9052
   14MOL0     H 1802   3.583   9.644   0.654  1.3873 -0.3052  0.5336
   14MOL0     H 1803   3.693   9.523   0.579  2.3881 -2.2641  1.7965
   14MOL0     H 1804   3.530   9.498   0.835  1.3249 -1.6181  2.2287
   14MOL0     H 1805   3.702   9.550   0.843  0.3748  0.3457 -0.0377
   14MOL0     H 1806   3.639   9.304   0.892  0.7644 -0.9474 -0.2740
   14MOL0     H 1807   3.613   9.282   0.722 -2.1226 -2.0763  4.1585
   14MOL0     H 1808   3.877   9.363   0.841  0.3521 -2.4846 -0.1492
   14MOL0     H 1809   3.852   9.389   0.673 -0.3702 -0.2733 -0.1500
   14MOL0     H 1810   3.778   9.303   0.507 -3.1464 -1.3709  3.0244
   14MOL0     H 1811   3.785   9.196   0.281 -0.1088  2.4881  1.6135
   14MOL0     H 1812   4.215   8.861   0.089  0.8684  1.3482 -2.0266
   14MOL0     H 1813   4.264   8.741  -0.119 -2.6869  1.1058 -4.4019
   14MOL0     H 1814   3.928   8.559  -0.379  0.4222 -2.2819 -2.1093
   14MOL0     H 1815   3.940   8.448  -0.233  0.0259  1.0423  2.1656
   14MOL0     H 1816   4.128   8.439  -0.465 -0.7529  0.2657  0.0763
   14MOL0     H 1817   4.013   8.319  -0.424  1.7184 -2.3364  0.3578
   14MOL0     H 1818   4.117   8.267  -0.204  1.3135  1.4991  2.1314
   14MOL0     H 1819   4.237   8.394  -0.244  1.1125 -1.7759  1.9681
   14MOL0     H 1820   4.197   8.144  -0.423 -0.3763 -1.3549  1.5445
   14MOL0     H 1821   4.306   8.272  -0.453 -1.3074 -0.3508 -0.7559
   14MOL0     H 1822   4.335   8.079  -0.218 -1.4737  0.2522 -1.1119
   14MOL0     H 1823   4.429   8.222  -0.254 -1.5366  2.2049 -0.2626
   14MOL0     H 1824   4.469   8.122  -0.489  2.6695 -0.6523  0.4933
   14MOL0     H 1825   4.406   7.970  -0.416  0.4128 -0.6335 -4.0601
   14MOL0     H 1826   4.656   8.007  -0.434  0.3877  1.1205  1.0163
   14MOL0     H 1827   4.643   8.134  -0.313 -0.8449 -0.6778  1.4671
   14MOL0     H 1828   4.587   7.835  -0.269 -4.2571  2.6880 -5.3960
   14MOL0     H 1829   4.541   7.955  -0.146  0.1693  0.6483 -0.5223
   14MOL0     H 1830   3.842   8.608  -0.124 -1.0992  0.8886  4.0167
   14MOL0     H 1831   3.813   8.737   0.087  0.1640  0.1347  1.7748
   14MOL0     H 1832   3.972   8.853   0.444 -0.2961  0.7484 -0.9692
   14MOL0     H 1833   3.955   8.960   0.682  1.7628  0.3712 -1.2153
   14MOL0     H 1834   3.499   8.493   0.863  2.6669  0.6916  1.4871
   14MOL0     H 1835   3.653   8.368   0.984  0.7901  0.7278  3.0529
   14MOL0     H 1836   3.580   7.937   1.310 -1.0295 -1.3006 -2.3434
   14MOL0     H 1837   3.685   7.733   1.404 -3.6431  0.3168 -1.7550
   14MOL0     H 1838   3.864   7.573   1.482 -0.4658  3.2419 -1.3130
   14MOL0     H 1839   3.956   7.456   1.392  2.4253  1.4675  0.5799
   14MOL0     H 1840   3.742   7.380   1.406  1.9857  0.1660  1.1490
   14MOL0     H 1841   3.669   7.524   1.324 -0.0098  1.3426  1.8185
   14MOL0     H 1842   3.689   7.320   1.179  1.6610 -1.3914  0.7618
   14MOL0     H 1843   3.857   7.328   1.189 -0.9687 -1.6070 -2.5185
   14MOL0     H 1844   3.858   7.551   1.066 -1.7633  0.8077 -2.9912
   14MOL0     H 1845   3.790   7.420   0.983  2.8993 -0.7698  0.2831
   14MOL0     H 1846   3.470   7.722   1.050  0.1196  0.3751  1.0773
   14MOL0     H 1847   3.989   7.755   1.090 -0.4590  2.9672 -2.6095
   14MOL0     H 1848   3.900   7.968   1.029 -0.2396 -0.6751 -0.4598
   15MOL0     O 1849   7.016   1.553   1.504 -0.4606  0.0467 -0.5256
   15MOL0     C 1850   7.038   1.501   1.389 -0.1949  0.3147 -0.5340
   15MOL0     O 1851   6.965   1.396   1.342 -0.6321  0.4090 -0.5006
   15MOL0     C 1852   6.843   1.355   1.388 -1.1599  0.6682  0.4641
   15MOL0     C 1853   6.752   1.451   1.431 -0.1417  0.1864  0.7217
   15MOL0     C 1854   6.614   1.416   1.441 -0.1083  0.6094  0.2342
   15MOL0     C 1855   6.579   1.287   1.416 -0.0334 -1.5451 -0.5860
   15MOL0     O 1856   6.443   1.256   1.443 -0.6662 -0.4534 -0.2635
   15MOL0     C 1857   6.413   1.174   1.553  1.7795 -0.2593 -0.1742
   15MOL0     C 1858   6.266   1.134   1.559  0.5593  0.3863  1.2131
   15MOL0     C 1859   6.214   1.066   1.686  0.4732  0.0789 -0.4034
   15MOL0     C 1860   6.080   0.991   1.652 -0.3934  0.5940  0.1439
   15MOL0     C 1861   5.987   0.985   1.774  0.0003 -0.3209  1.3609
   15MOL0     C 1862   6.014   0.869   1.864 -0.1963 -0.0643 -0.7840
   15MOL0     C 1863   5.909   0.861   1.973  0.5279  0.2318 -0.2223
   15MOL0     C 1864   5.921   0.740   2.060 -0.2631 -0.2537 -0.1094
   15MOL0     N 1865   5.812   0.752   2.157  0.5199  0.9435 -0.8281
   15MOL0     C 1866   5.833   0.779   2.293  0.0963  0.1041 -0.2559
   15MOL0     C 1867   5.711   0.749   2.357  1.0194  0.0923 -0.1341
   15MOL0     C 1868   5.663   0.782   2.495 -0.1610 -0.4515 -0.9313
   15MOL0     C 1869   5.687   0.934   2.535 -0.1110  0.4768 -0.5922
   15MOL0     C 1870   5.627   1.032   2.436  0.5560 -0.6432  0.3765
   15MOL0     C 1871   5.652   1.174   2.478 -0.3829 -0.0902  0.8345
   15MOL0     O 1872   5.793   1.198   2.451 -0.0282 -0.1649  0.3924
   15MOL0     C 1873   5.831   1.252   2.334 -0.2295  0.3272 -0.8911
   15MOL0     C 1874   5.747   1.308   2.237 -0.5843  0.4583  0.6679
   15MOL0     C 1875   5.811   1.365   2.122  0.7161  0.2711 -0.5421
   15MOL0     C 1876   5.949   1.369   2.100 -0.5376 -0.4541 -0.0616
   15MOL0     C 1877   6.019   1.450   1.998  0.1427  0.3136 -0.2229
   15MOL0     O 1878   6.153   1.494   2.043 -0.0145  0.2228  0.0931
   15MOL0     C 1879   6.240   1.538   1.946  0.4327  0.0327  0.2825
   15MOL0     C 1880   6.241   1.499   1.810 -0.7703 -0.2338  0.8185
   15MOL0     C 1881   6.328   1.558   1.714  1.4134  0.3718  0.0202
   15MOL0     C 1882   6.411   1.654   1.757 -0.7480 -0.2520  0.6409
   15MOL0     O 1883   6.487   1.715   1.657  0.1840 -0.7181  0.6183
   15MOL0     C 1884   6.527   1.857   1.677  0.1300  0.5459  0.5454
   15MOL0     C 1885   6.558   1.926   1.542  0.0868  1.2131  0.5808
   15MOL0     C 1886   6.707   1.905   1.522  0.3254  0.3791 -0.6087
   15MOL0     C 1887   6.745   1.937   1.381  0.5482  0.2042 -0.8494
   15MOL0     C 1888   6.892   1.929   1.352 -0.6772  0.8955 -0.2818
   15MOL0     C 1889   6.929   1.961   1.209  0.6894  0.3741  1.4606
   15MOL0     C 1890   6.905   1.842   1.118  0.2963  0.4023  0.4039
   15MOL0     C 1891   6.888   1.875   0.968  0.3330  0.5348  0.1745
   15MOL0    Cl 1892   7.038   1.949   0.904  0.1168  0.3940 -0.3758
   15MOL0     C 1893   6.425   1.684   1.890 -0.7892  0.2730  0.4650
   15MOL0     C 1894   6.341   1.631   1.983  0.4360 -1.0806 -0.2782
   15MOL0     O 1895   5.965   1.480   1.893  0.9077  1.0501  0.5619
   15MOL0     C 1896   6.022   1.318   2.208  0.1869  1.8218  0.9315
   15MOL0     C 1897   5.973   1.251   2.312  1.6787  0.9066 -0.3661
   15MOL0     N 1898   5.630   0.689   2.255  0.2863  0.7884  0.4368
   15MOL0     N 1899   5.685   0.693   2.144 -1.5447  0.5294 -0.3118
   15MOL0     C 1900   6.675   1.192   1.378  0.1860  0.0308  0.6600
   15MOL0     C 1901   6.805   1.230   1.349  0.6976  0.0848  0.0861
   15MOL0     C 1902   7.153   1.546   1.312 -0.4869 -0.8068  0.3483
   15MOL0     C 1903   7.265   1.605   1.372 -0.2450  0.4909  0.0288
   15MOL0     C 1904   7.358   1.665   1.295 -0.0091  0.2370 -0.2145
   15MOL0     C 1905   7.349   1.660   1.158 -0.8706 -0.1650 -0.3593
   15MOL0     O 1906   7.445   1.738   1.082 -1.1930  0.5141  0.9705
   15MOL0     C 1907   7.412   1.797   0.944 -0.9027  0.3359 -0.6039
   15MOL0     C 1908   7.443   1.941   0.941 -0.1998  0.6083  0.1564
   15MOL0     C 1909   7.378   2.009   1.064 -0.3455  0.6260 -0.1949
   15MOL0     C 1910   7.392   2.154   1.082  0.4468 -0.2440 -0.6720
   15MOL0     C 1911   7.528   2.200   1.074  0.9811 -0.6016  0.3680
   15MOL0     C 1912   7.633   2.251   1.061 -0.1062 -0.3787 -0.4324
   15MOL0     C 1913   7.243   1.593   1.097  0.1032  0.1342 -0.5847
   15MOL0     C 1914   7.141   1.548   1.177  0.8411 -0.0100  0.6399
   15MOL0     H 1915   6.782   1.553   1.450  1.4024  0.1945 -1.4314
   15MOL0     H 1916   6.545   1.493   1.472  0.1588  0.2428  1.8128
   15MOL0     H 1917   6.424   1.220   1.651 -3.1683  1.7184 -0.2977
   15MOL0     H 1918   6.478   1.086   1.554  1.4957 -0.5716 -2.3834
   15MOL0     H 1919   6.241   1.057   1.485 -0.1302  1.6108  0.1365
   15MOL0     H 1920   6.213   1.224   1.528  0.7774 -0.0048 -0.3827
   15MOL0     H 1921   6.191   1.122   1.777  0.6439 -1.8741  0.8803
   15MOL0     H 1922   6.285   0.990   1.718 -0.3013  0.9835  4.0402
   15MOL0     H 1923   6.026   1.016   1.560  0.0837  1.3168  0.0568
   15MOL0     H 1924   6.108   0.888   1.625  0.4074  1.0059 -0.6535
   15MOL0     H 1925   5.889   0.959   1.733  1.0818  0.4651 -2.0868
   15MOL0     H 1926   5.973   1.082   1.824 -0.8697  0.7150 -0.7422
   15MOL0     H 1927   6.110   0.896   1.908  0.0794  0.3920 -1.6597
   15MOL0     H 1928   6.020   0.777   1.805  1.5271 -1.0113  0.7533
   15MOL0     H 1929   5.912   0.946   2.042 -1.6938 -0.1049  0.3723
   15MOL0     H 1930   5.810   0.879   1.930 -0.1399  1.4699  1.6979
   15MOL0     H 1931   6.020   0.729   2.105 -0.1725 -0.6988 -0.4123
   15MOL0     H 1932   5.899   0.653   1.997 -1.8725  0.4754 -0.6115
   15MOL0     H 1933   5.913   0.834   2.341  0.0997  2.1012 -2.3577
   15MOL0     H 1934   5.714   0.725   2.573  0.6260  3.0707  1.3600
   15MOL0     H 1935   5.556   0.757   2.499 -0.7035  1.8158  0.5694
   15MOL0     H 1936   5.794   0.957   2.540 -0.3479  1.4199  3.4763
   15MOL0     H 1937   5.653   0.963   2.635 -0.3228  2.6370 -1.2317
   15MOL0     H 1938   5.675   1.021   2.338 -0.6088 -1.0874 -0.1647
   15MOL0     H 1939   5.520   1.012   2.427  0.1266  1.7927 -0.6908
   15MOL0     H 1940   5.619   1.189   2.581 -4.4882  1.0583 -0.4757
   15MOL0     H 1941   5.585   1.241   2.424  3.2722  0.8730 -3.0351
   15MOL0     H 1942   5.639   1.306   2.244 -0.5885 -2.0724  0.8049
   15MOL0     H 1943   5.736   1.401   2.053  1.6112  0.7502 -1.2876
   15MOL0     H 1944   6.183   1.424   1.757  1.1623  1.8202 -4.9610
   15MOL0     H 1945   6.323   1.547   1.606 -3.1014  1.1222 -0.0337
   15MOL0     H 1946   6.608   1.873   1.749  1.1607  0.7755 -0.6268
   15MOL0     H 1947   6.438   1.908   1.716 -2.6666 -0.7781 -3.4593
   15MOL0     H 1948   6.538   2.034   1.537 -1.2146  1.0271  1.1417
   15MOL0     H 1949   6.506   1.878   1.458  0.7074 -5.6777  3.5187
   15MOL0     H 1950   6.732   1.801   1.543 -3.7961 -0.4271  1.1932
   15MOL0     H 1951   6.764   1.976   1.583  2.9713  0.4181 -2.8906
   15MOL0     H 1952   6.688   1.880   1.307 -1.9934 -1.5609  2.2204
   15MOL0     H 1953   6.726   2.044   1.366  2.3660  0.5036 -1.2834
   15MOL0     H 1954   6.922   1.825   1.369  1.5615  1.7637  1.4886
   15MOL0     H 1955   6.946   1.993   1.422  1.1890  0.0331 -0.8742
   15MOL0     H 1956   7.032   1.993   1.189 -0.9792  4.5954 -2.1658
   15MOL0     H 1957   6.868   2.046   1.178  0.6817  0.2983  1.2654
   15MOL0     H 1958   6.990   1.773   1.123  0.9313  1.2195  1.1909
   15MOL0     H 1959   6.811   1.804   1.157  1.4419 -1.1013  1.8364
   15MOL0     H 1960   6.794   1.927   0.948  0.6981  0.6619 -1.3324
   15MOL0     H 1961   6.873   1.781   0.915 -2.2882  1.5035 -0.9679
   15MOL0     H 1962   6.494   1.760   1.926 -0.9868  0.2075  0.9889
   15MOL0     H 1963   6.370   1.661   2.084  0.1196  2.6208 -1.1337
   15MOL0     H 1964   6.131   1.312   2.205  0.1018  0.4893 -0.6133
   15MOL0     H 1965   6.033   1.205   2.391  1.3309  2.6652  0.9816
   15MOL0     H 1966   6.651   1.090   1.349 -1.2463  0.7851 -1.0060
   15MOL0     H 1967   6.881   1.155   1.336 -1.2198 -2.1671  1.1183
   15MOL0     H 1968   7.282   1.612   1.479  0.6897  1.1581 -0.1447
   15MOL0     H 1969   7.448   1.700   1.345  2.0034 -3.1957 -1.1001
   15MOL0     H 1970   7.304   1.782   0.930 -0.7412  0.2525 -1.9164
   15MOL0     H 1971   7.471   1.731   0.879  0.2119 -0.0242  0.7267
   15MOL0     H 1972   7.552   1.950   0.943 -0.1679  0.7727 -1.4648
   15MOL0     H 1973   7.401   1.986   0.850  0.3493  1.3795  0.2764
   15MOL0     H 1974   7.418   1.960   1.153  1.1555 -0.3845 -1.3688
   15MOL0     H 1975   7.271   1.991   1.051 -0.0120 -2.0526  0.2625
   15MOL0     H 1976   7.326   2.193   1.004 -1.2880 -2.7773 -0.6032
   15MOL0     H 1977   7.344   2.185   1.176  1.5251  1.7685 -0.7313
   15MOL0     H 1978   7.725   2.306   1.064 -2.2421  3.5497  1.5742
   15MOL0     H 1979   7.238   1.590   0.988 -0.6198  0.1999 -0.5566
   15MOL0     H 1980   7.048   1.508   1.138  2.3774 -0.5845 -2.7402
   16MOL0     O 1981  11.015   0.811  11.206 -0.2289  0.4861 -0.8632
   16MOL0     C 1982  10.993   0.932  11.219  0.8056 -0.1128  0.4532
   16MOL0     O 1983  11.015   1.011  11.332 -0.0259  1.2391 -0.0593
   16MOL0     C 1984  11.035   0.953  11.451  0.1429 -0.3159  0.5466
   16MOL0     C 1985  11.125   1.007  11.548 -0.5650  0.6179 -0.2598
   16MOL0     C 1986  11.149   0.941  11.673 -0.0678 -0.1922  0.9543
   16MOL0     C 1987  11.095   0.823  11.699  1.0010  0.1717  0.7207
   16MOL0     O 1988  11.126   0.755  11.809  0.5353 -0.4747 -0.4089
   16MOL0     C 1989  11.235   0.664  11.791 -0.0047 -0.5368  0.4682
   16MOL0     C 1990  11.208   0.552  11.902 -0.2429 -1.0171 -0.3917
   16MOL0     C 1991  11.317   0.428  11.887  0.5217 -0.3799  0.7396
   16MOL0     C 1992  11.436   0.464  11.979 -0.0177  1.3533 -0.7480
   16MOL0     C 1993  11.512   0.330  12.015 -0.7960 -0.2071  0.3176
   16MOL0     C 1994  11.561   0.247  11.888  0.9086 -0.8608 -0.1358
   16MOL0     C 1995  11.660   0.139  11.904 -0.2592  1.1275  0.3102
   16MOL0     C 1996  11.688   0.066  11.771  0.1473  0.2677  0.1508
   16MOL0     N 1997  11.606  -0.056  11.769 -0.3967 -0.4789  0.0711
   16MOL0     C 1998  11.463  -0.066  11.739 -0.4891 -0.1887  0.3717
   16MOL0     C 1999  11.429  -0.200  11.759 -0.1465 -0.8666  0.2825
   16MOL0     C 2000  11.294  -0.249  11.763 -0.9590  0.1366 -0.1095
   16MOL0     C 2001  11.259  -0.317  11.637 -0.0062  0.1509  1.1567
   16MOL0     C 2002  11.326  -0.450  11.622  0.0071  0.4769  0.0331
   16MOL0     C 2003  11.240  -0.558  11.553  0.0334  0.8227 -0.1515
   16MOL0     O 2004  11.268  -0.546  11.416 -0.4642  0.0840 -0.3127
   16MOL0     C 2005  11.190  -0.620  11.325  0.2324  0.2542 -0.3319
   16MOL0     C 2006  11.084  -0.717  11.354 -0.4261  0.1584 -0.3782
   16MOL0     C 2007  11.036  -0.803  11.261 -0.2485 -0.1745  0.2765
   16MOL0     C 2008  11.076  -0.795  11.126 -0.5185  0.2224  0.0713
   16MOL0     C 2009  11.042  -0.908  11.032 -1.0576 -0.7702 -0.4923
   16MOL0     O 2010  10.962  -1.018  11.064 -0.3721  0.7712  0.6470
   16MOL0     C 2011  10.967  -1.132  10.983  0.0192  0.8660 -0.2462
   16MOL0     C 2012  10.888  -1.136  10.873 -0.2862 -0.6112  1.2028
   16MOL0     C 2013  10.867  -1.248  10.800  0.8523 -0.2442  0.7934
   16MOL0     C 2014  10.932  -1.371  10.835  0.3056 -0.1800 -0.4811
   16MOL0     O 2015  10.899  -1.478  10.754  0.4834 -0.6154  0.3820
   16MOL0     C 2016  10.943  -1.606  10.790 -0.5964  0.3677  0.3129
   16MOL0     C 2017  10.872  -1.710  10.712  0.7073 -0.6579 -0.2158
   16MOL0     C 2018  10.720  -1.700  10.718  0.1569 -0.4318  0.2106
   16MOL0     C 2019  10.650  -1.822  10.654 -0.0758 -0.7356  0.4325
   16MOL0     C 2020  10.662  -1.940  10.741 -0.6160  1.2964 -0.6384
   16MOL0     C 2021  10.603  -2.069  10.674 -0.1876  0.2360 -0.2579
   16MOL0     C 2022  10.677  -2.092  10.544 -1.2837 -0.2246  0.7186
   16MOL0     C 2023  10.648  -2.216  10.471  0.7734  0.9216 -0.3030
   16MOL0    Cl 2024  10.465  -2.248  10.465  0.1705  0.7139 -0.2418
   16MOL0     C 2025  11.018  -1.366  10.952 -0.3809 -0.1335 -0.1987
   16MOL0     C 2026  11.027  -1.245  11.027  0.8183  0.5864 -1.2065
   16MOL0     O 2027  11.097  -0.903  10.923 -0.0481 -0.2128 -0.6074
   16MOL0     C 2028  11.156  -0.679  11.090 -0.5257 -0.3214  0.1993
   16MOL0     C 2029  11.209  -0.592  11.191 -0.2966 -0.4442 -0.6700
   16MOL0     N 2030  11.553  -0.260  11.773 -0.1934 -0.6514 -0.3712
   16MOL0     N 2031  11.656  -0.183  11.787 -0.1888  0.1010  0.4906
   16MOL0     C 2032  11.006   0.763  11.605 -0.6441  0.0521 -0.0272
   16MOL0     C 2033  10.983   0.826  11.487 -0.3789 -0.2568  0.4449
   16MOL0     C 2034  10.966   1.000  11.089  0.9674 -0.2309 -0.1169
   16MOL0     C 2035  10.983   0.947  10.959 -0.7878  0.4197  0.1327
   16MOL0     C 2036  10.975   1.016  10.839  0.3205 -0.5555 -0.1623
   16MOL0     C 2037  10.913   1.141  10.842 -0.2686  0.0083  0.4667
   16MOL0     O 2038  10.880   1.224  10.736  0.5656  1.1756 -0.0389
   16MOL0     C 2039  10.894   1.175  10.609  0.0261  0.3584  0.6763
   16MOL0     C 2040  10.842   1.292  10.524  0.1370 -0.0614  0.3739
   16MOL0     C 2041  10.948   1.388  10.450  0.3230 -0.2829 -1.0547
   16MOL0     C 2042  11.041   1.323  10.354 -0.2345  0.5653  0.4938
   16MOL0     C 2043  10.965   1.275  10.235  0.4895  0.6451 -0.3111
   16MOL0     C 2044  10.890   1.255  10.140  0.8742  0.4621 -0.0149
   16MOL0     C 2045  10.884   1.203  10.966  0.6423 -0.2379  0.1477
   16MOL0     C 2046  10.911   1.135  11.090  0.0534  1.3716 -0.0367
   16MOL0     H 2047  11.167   1.105  11.529 -0.6487  0.2693 -2.5621
   16MOL0     H 2048  11.220   0.993  11.737  3.3925 -2.1172 -1.0146
   16MOL0     H 2049  11.332   0.712  11.803  0.9399 -2.5402  1.3603
   16MOL0     H 2050  11.218   0.613  11.695 -1.3353 -0.3150  0.5723
   16MOL0     H 2051  11.104   0.520  11.893 -0.0780 -1.7042  0.0918
   16MOL0     H 2052  11.221   0.599  12.000  0.9360 -0.7144 -0.6771
   16MOL0     H 2053  11.338   0.401  11.783 -3.4426  0.5208 -0.4891
   16MOL0     H 2054  11.254   0.348  11.929  0.1274  0.1338  1.1471
   16MOL0     H 2055  11.505   0.538  11.938 -0.7083  2.1509 -0.4757
   16MOL0     H 2056  11.401   0.488  12.079 -1.4793 -1.7470 -0.3849
   16MOL0     H 2057  11.454   0.269  12.084 -0.3139  0.3033  1.1997
   16MOL0     H 2058  11.605   0.355  12.067 -2.1771 -0.4375  3.0652
   16MOL0     H 2059  11.600   0.316  11.813 -1.9557  1.8008  0.6138
   16MOL0     H 2060  11.476   0.191  11.847  1.3888  0.0217 -2.4911
   16MOL0     H 2061  11.751   0.183  11.946  0.0737 -0.9855  1.9472
   16MOL0     H 2062  11.630   0.059  11.971  1.0245 -0.9342 -1.4486
   16MOL0     H 2063  11.790   0.027  11.760 -0.2391 -0.6939 -0.2188
   16MOL0     H 2064  11.662   0.126  11.684 -4.9095 -3.2335 -1.2111
   16MOL0     H 2065  11.402   0.021  11.718 -0.4481 -0.0080  0.9735
   16MOL0     H 2066  11.225  -0.165  11.773 -2.0047 -0.7616  0.5111
   16MOL0     H 2067  11.277  -0.317  11.847  1.7211  0.0083  0.4162
   16MOL0     H 2068  11.296  -0.259  11.553  2.4106 -2.7736  0.0115
   16MOL0     H 2069  11.150  -0.324  11.628  0.1693  0.3019 -2.5085
   16MOL0     H 2070  11.423  -0.435  11.574  0.6447  0.5727  1.3207
   16MOL0     H 2071  11.336  -0.488  11.724 -4.9888 -4.1277 -0.7327
   16MOL0     H 2072  11.135  -0.549  11.583 -0.5024 -2.1224 -0.7919
   16MOL0     H 2073  11.258  -0.662  11.582 -2.0240  0.6569  0.7590
   16MOL0     H 2074  11.067  -0.730  11.460  5.8199 -0.1931  0.9674
   16MOL0     H 2075  10.962  -0.871  11.304 -0.6993  0.8390  1.1367
   16MOL0     H 2076  10.830  -1.047  10.849  0.3057 -0.6461 -0.4870
   16MOL0     H 2077  10.792  -1.244  10.721 -0.3666  0.7791  1.9536
   16MOL0     H 2078  10.935  -1.616  10.898 -0.0550  0.0880  0.3310
   16MOL0     H 2079  11.049  -1.620  10.764 -0.0999  0.6329  2.0836
   16MOL0     H 2080  10.907  -1.805  10.753 -1.5164 -1.7635 -0.7432
   16MOL0     H 2081  10.905  -1.697  10.608  2.2932  0.7651  0.4207
   16MOL0     H 2082  10.702  -1.605  10.666  1.0751  1.0612  2.4709
   16MOL0     H 2083  10.681  -1.682  10.818 -0.9014  2.9753 -0.6823
   16MOL0     H 2084  10.542  -1.805  10.651 -0.3521 -2.2375  0.7998
   16MOL0     H 2085  10.690  -1.830  10.553 -2.3348  1.3753 -0.7089
   16MOL0     H 2086  10.603  -1.921  10.831 -1.4630  1.1894 -1.1561
   16MOL0     H 2087  10.767  -1.948  10.770 -0.2097  5.1452 -0.5701
   16MOL0     H 2088  10.497  -2.052  10.653 -0.4544 -0.9179  0.0783
   16MOL0     H 2089  10.599  -2.160  10.735 -2.0557  1.8903  2.2630
   16MOL0     H 2090  10.656  -2.018  10.466 -1.7641  0.3112  1.3465
   16MOL0     H 2091  10.783  -2.079  10.567 -1.6991  1.5256  1.7922
   16MOL0     H 2092  10.691  -2.305  10.518 -1.7849  0.4118  1.3386
   16MOL0     H 2093  10.688  -2.207  10.370  0.2710  2.6047 -0.3789
   16MOL0     H 2094  11.074  -1.455  10.978 -1.9305 -0.7648  1.1155
   16MOL0     H 2095  11.092  -1.251  11.114 -1.1890  1.1387  0.3880
   16MOL0     H 2096  11.190  -0.656  10.990  1.8754  1.5573  1.3255
   16MOL0     H 2097  11.278  -0.512  11.168 -2.6725  2.1714  0.7160
   16MOL0     H 2098  10.966   0.664  11.623  1.0653 -0.4883  1.0702
   16MOL0     H 2099  10.909   0.779  11.424 -0.1294 -0.3488  0.2188
   16MOL0     H 2100  11.018   0.844  10.960  0.0102  0.6075 -2.2933
   16MOL0     H 2101  11.013   0.976  10.745 -1.0901 -2.9538  0.1958
   16MOL0     H 2102  10.839   1.082  10.597  3.2928 -1.9836  2.4498
   16MOL0     H 2103  10.999   1.155  10.583 -0.2287 -0.8786  0.5694
   16MOL0     H 2104  10.784   1.255  10.439  0.4033  3.1056 -1.3386
   16MOL0     H 2105  10.772   1.355  10.578  0.9872  1.6846 -0.4885
   16MOL0     H 2106  11.002   1.435  10.533 -2.7965  2.6038 -0.4246
   16MOL0     H 2107  10.892   1.470  10.403  1.9034  1.5889  0.1777
   16MOL0     H 2108  11.110   1.400  10.319  1.0594 -0.8333 -0.1396
   16MOL0     H 2109  11.094   1.236  10.395  2.3618  1.9141  0.2019
   16MOL0     H 2110  10.844   1.238  10.045  1.6230  1.3191 -0.5416
   16MOL0     H 2111  10.827   1.295  10.974 -0.0770 -0.6815  0.1922
   16MOL0     H 2112  10.874   1.165  11.188 -1.2497  2.9212 -0.9725
   17MOL0     O 2113   9.129  10.445   3.375 -0.7511  0.2090  0.4351
   17MOL0     C 2114   9.130  10.371   3.474  0.3369 -0.4862  0.3017
   17MOL0     O 2115   9.090  10.245   3.472  0.4568 -0.5112  0.4409
   17MOL0     C 2116   9.031  10.195   3.352  0.0347 -0.5617 -0.8217
   17MOL0     C 2117   9.098  10.087   3.296  0.7536  0.5855  0.0944
   17MOL0     C 2118   9.042  10.018   3.186 -0.3373  0.7871 -0.5731
   17MOL0     C 2119   8.921  10.060   3.136 -0.1506  0.2192  0.1966
   17MOL0     O 2120   8.861   9.999   3.030 -0.7329 -0.9875 -0.8869
   17MOL0     C 2121   8.752   9.905   3.062 -0.4748  0.0332  0.6058
   17MOL0     C 2122   8.773   9.787   2.973  0.8706  1.0609 -0.8904
   17MOL0     C 2123   8.665   9.683   3.004  0.3209  0.4736 -0.1387
   17MOL0     C 2124   8.709   9.563   2.922  0.2168 -0.4487  0.3574
   17MOL0     C 2125   8.642   9.432   2.949  0.2712 -0.1542  0.1956
   17MOL0     C 2126   8.496   9.439   2.893 -0.8390  0.1730 -0.1165
   17MOL0     C 2127   8.411   9.298   2.896  0.0752 -1.0284 -0.3463
   17MOL0     C 2128   8.347   9.274   3.038  0.6588  0.0771 -0.1675
   17MOL0     N 2129   8.242   9.174   3.037  1.3176  0.1435  0.2564
   17MOL0     C 2130   8.253   9.052   2.985 -0.0878 -0.1525 -0.7130
   17MOL0     C 2131   8.129   8.988   3.004 -0.2597 -0.0236  0.0178
   17MOL0     C 2132   8.093   8.854   2.957 -0.9246 -0.2767  0.1253
   17MOL0     C 2133   8.155   8.743   3.046  0.4147 -0.5482  0.4903
   17MOL0     C 2134   8.065   8.704   3.164 -0.3967  0.3124  0.3551
   17MOL0     C 2135   8.025   8.551   3.160 -0.7503  1.2011 -0.9003
   17MOL0     O 2136   8.146   8.470   3.202  0.1722 -0.3718  0.1856
   17MOL0     C 2137   8.129   8.336   3.185 -0.4783  0.7523  0.2002
   17MOL0     C 2138   8.010   8.274   3.199 -0.3882  1.0542  0.4271
   17MOL0     C 2139   7.996   8.136   3.169  0.5121  0.0742  0.1483
   17MOL0     C 2140   8.097   8.051   3.139 -0.4104  0.6809 -0.4450
   17MOL0     C 2141   8.094   7.900   3.131  0.3176 -0.2900  0.3913
   17MOL0     O 2142   7.982   7.833   3.182  0.0469  0.7845 -0.4083
   17MOL0     C 2143   7.980   7.696   3.205 -0.5550  0.1980  0.5030
   17MOL0     C 2144   7.978   7.633   3.336 -0.9649 -0.2165  0.4398
   17MOL0     C 2145   7.971   7.496   3.342  1.2052  1.1880 -0.1035
   17MOL0     C 2146   7.950   7.417   3.224 -0.7311 -0.1970 -0.4279
   17MOL0     O 2147   7.950   7.276   3.234  0.1157  0.1190  0.2044
   17MOL0     C 2148   8.031   7.207   3.139 -0.3932  1.1405 -0.4152
   17MOL0     C 2149   7.957   7.089   3.112  0.3340  0.1138 -0.9247
   17MOL0     C 2150   8.037   6.965   3.070  0.8320  0.7958  0.2127
   17MOL0     C 2151   8.110   6.966   2.928  0.2632 -0.3554 -1.3126
   17MOL0     C 2152   8.008   6.999   2.821  0.2200 -0.2131  0.7135
   17MOL0     C 2153   8.080   6.974   2.682  0.3873  0.8268 -0.5129
   17MOL0     C 2154   7.984   6.983   2.555 -1.0278  0.2410  0.1836
   17MOL0     C 2155   8.015   6.866   2.460  0.0549 -0.4426  0.4471
   17MOL0    Cl 2156   8.190   6.878   2.402 -0.1330  0.0029 -0.4201
   17MOL0     C 2157   7.934   7.478   3.097 -0.0994 -0.0749 -0.1020
   17MOL0     C 2158   7.961   7.623   3.092 -0.2901  0.0253 -0.1838
   17MOL0     O 2159   8.192   7.840   3.098  0.2175 -0.0055  0.4228
   17MOL0     C 2160   8.221   8.111   3.115  0.8040 -1.1954 -0.6732
   17MOL0     C 2161   8.234   8.251   3.146 -0.9445 -1.2854 -0.1954
   17MOL0     N 2162   8.065   9.060   3.106  0.1862 -1.2297  0.0263
   17MOL0     N 2163   8.132   9.177   3.113  0.2114  0.6975 -0.5170
   17MOL0     C 2164   8.856  10.175   3.183 -0.3575 -0.3799 -0.6259
   17MOL0     C 2165   8.917  10.249   3.289 -0.1155  0.1351 -0.2253
   17MOL0     C 2166   9.157  10.432   3.608  0.6664 -0.1284 -0.7910
   17MOL0     C 2167   9.143  10.361   3.731 -0.3969 -0.5924  0.4736
   17MOL0     C 2168   9.156  10.431   3.851  0.2063 -0.6290 -0.0220
   17MOL0     C 2169   9.197  10.560   3.860 -0.1695  0.6295 -0.6824
   17MOL0     O 2170   9.193  10.624   3.986 -0.3201 -0.2352 -0.3105
   17MOL0     C 2171   9.214  10.761   3.999 -1.0259  0.3916  0.4195
   17MOL0     C 2172   9.172  10.796   4.138 -0.2003  0.8444 -0.9110
   17MOL0     C 2173   9.017  10.777   4.170 -0.8919 -0.3501  0.7285
   17MOL0     C 2174   8.966  10.641   4.179 -0.7011  1.0035 -0.5545
   17MOL0     C 2175   9.031  10.581   4.300  0.0483 -1.3366 -1.0526
   17MOL0     C 2176   9.065  10.541   4.407 -1.5267 -0.0425 -0.1203
   17MOL0     C 2177   9.223  10.622   3.742  0.1893 -0.6252  0.4551
   17MOL0     C 2178   9.206  10.568   3.616 -0.3810  0.6163 -0.5111
   17MOL0     H 2179   9.185  10.046   3.346  1.1045  1.0989 -0.0922
   17MOL0     H 2180   9.083   9.923   3.153 -0.1130  0.4558  0.6304
   17MOL0     H 2181   8.659   9.947   3.022  0.2309  0.5156 -0.5875
   17MOL0     H 2182   8.737   9.882   3.167  0.0115  0.5950  0.8005
   17MOL0     H 2183   8.871   9.741   2.985 -0.6463 -2.4752 -0.7477
   17MOL0     H 2184   8.753   9.800   2.866 -0.4596 -1.5738 -1.0645
   17MOL0     H 2185   8.558   9.702   3.000  0.4780  2.1297  1.8095
   17MOL0     H 2186   8.663   9.657   3.110  0.1443  2.2792  0.3281
   17MOL0     H 2187   8.688   9.586   2.817  0.7676  2.4546  0.7918
   17MOL0     H 2188   8.817   9.550   2.927  0.6733  0.0216 -3.9562
   17MOL0     H 2189   8.648   9.413   3.056 -0.9313  0.0904  0.3154
   17MOL0     H 2190   8.701   9.357   2.895  2.8562  2.4474 -0.8984
   17MOL0     H 2191   8.498   9.475   2.789  1.9154 -0.8948 -0.5083
   17MOL0     H 2192   8.439   9.510   2.953 -0.3274 -0.2201  0.8414
   17MOL0     H 2193   8.328   9.316   2.828 -0.0401 -1.1887 -0.2486
   17MOL0     H 2194   8.474   9.215   2.863  0.2682 -1.8950  2.0039
   17MOL0     H 2195   8.302   9.363   3.085  1.1998 -0.4725  1.4851
   17MOL0     H 2196   8.418   9.241   3.115 -1.1073 -0.6309  1.2364
   17MOL0     H 2197   8.336   9.009   2.930 -0.7311  0.4700 -2.2185
   17MOL0     H 2198   8.119   8.852   2.851  0.5857  2.0963  0.3553
   17MOL0     H 2199   7.985   8.845   2.964 -1.0102  1.1527  1.1452
   17MOL0     H 2200   8.256   8.777   3.074 -0.5705  2.9340  0.3436
   17MOL0     H 2201   8.167   8.654   2.984  1.0418 -0.5098  0.5471
   17MOL0     H 2202   8.119   8.718   3.258 -0.4263 -3.6967  1.1490
   17MOL0     H 2203   7.975   8.765   3.162 -1.2483 -0.9071 -0.4665
   17MOL0     H 2204   8.001   8.519   3.059 -3.9243 -2.8654  0.8640
   17MOL0     H 2205   7.941   8.535   3.228 -0.1427  1.0725 -0.1615
   17MOL0     H 2206   7.916   8.323   3.222 -1.7258  0.2161 -2.6420
   17MOL0     H 2207   7.904   8.083   3.189  0.2189 -1.7542 -4.6188
   17MOL0     H 2208   7.974   7.691   3.428  0.6407  0.8812 -0.1375
   17MOL0     H 2209   7.979   7.439   3.434 -1.2197  0.7007 -0.1224
   17MOL0     H 2210   8.128   7.191   3.188  0.0567  2.2157 -0.8998
   17MOL0     H 2211   8.053   7.252   3.042  1.9851 -1.4670 -1.2193
   17MOL0     H 2212   7.878   7.122   3.044  0.2789  2.6780  0.2505
   17MOL0     H 2213   7.908   7.061   3.206  2.5525  1.2590  0.6503
   17MOL0     H 2214   7.966   6.882   3.083  0.9780  1.0078  2.8461
   17MOL0     H 2215   8.114   6.935   3.141  0.5599 -0.1655  0.1185
   17MOL0     H 2216   8.199   7.029   2.938  0.8483 -1.5390  2.6442
   17MOL0     H 2217   8.156   6.866   2.923  1.7636 -0.0803  2.8641
   17MOL0     H 2218   7.971   7.101   2.833 -1.0228 -0.6493  0.6766
   17MOL0     H 2219   7.927   6.926   2.822  1.1166 -1.2392  1.8400
   17MOL0     H 2220   8.119   6.873   2.699 -0.5734  0.8109  1.9073
   17MOL0     H 2221   8.164   7.041   2.663  1.4567 -1.1082 -3.3531
   17MOL0     H 2222   7.880   6.993   2.588 -1.0660 -0.1048  0.1739
   17MOL0     H 2223   8.013   7.069   2.493  0.4123  0.0841  0.6130
   17MOL0     H 2224   7.945   6.856   2.377  1.5122 -5.3830 -0.5085
   17MOL0     H 2225   8.003   6.772   2.515 -0.4408 -0.2242  0.7208
   17MOL0     H 2226   7.919   7.411   3.014 -2.9418  0.0621  0.1983
   17MOL0     H 2227   7.933   7.677   3.001 -2.0885 -0.1124  0.2382
   17MOL0     H 2228   8.319   8.068   3.095  1.2823  0.2368 -1.5747
   17MOL0     H 2229   8.336   8.287   3.142 -0.7370 -1.7435  0.6254
   17MOL0     H 2230   8.763  10.213   3.142 -0.0799  0.1079 -0.8084
   17MOL0     H 2231   8.864  10.331   3.336 -1.0369 -0.3789 -0.3322
   17MOL0     H 2232   9.120  10.255   3.733  0.4158 -0.7711  1.2177
   17MOL0     H 2233   9.128  10.373   3.939  2.8828  0.6335  1.7849
   17MOL0     H 2234   9.147  10.814   3.930  1.3883  1.0733 -1.5308
   17MOL0     H 2235   9.317  10.796   3.987 -0.9867  0.1732  0.1127
   17MOL0     H 2236   9.226  10.741   4.216  1.0913  1.2119 -1.5261
   17MOL0     H 2237   9.203  10.896   4.168  1.0961  0.1015  0.3992
   17MOL0     H 2238   8.960  10.821   4.088  0.4088 -0.5917 -0.3224
   17MOL0     H 2239   8.981  10.829   4.260 -5.7065 -0.8938 -0.5899
   17MOL0     H 2240   8.859  10.626   4.191 -0.2725 -1.5133  0.9013
   17MOL0     H 2241   8.990  10.583   4.089 -2.8250  0.1010 -0.6050
   17MOL0     H 2242   9.098  10.506   4.503 -3.1985 -3.1365 -0.5500
   17MOL0     H 2243   9.266  10.721   3.741  3.1425 -1.8263 -0.0250
   17MOL0     H 2244   9.225  10.628   3.527  1.5549  2.0895  0.8163
   18MOL0     O 2245   0.255   0.629   7.383 -0.5820  0.4211 -0.5040
   18MOL0     C 2246   0.272   0.576   7.497  0.2729 -1.0275  0.8401
   18MOL0     O 2247   0.180   0.595   7.604  0.2587  0.6701  0.4492
   18MOL0     C 2248   0.093   0.699   7.584 -0.5669 -0.3464 -0.0716
   18MOL0     C 2249   0.129   0.832   7.595  0.1493  1.5835 -0.3120
   18MOL0     C 2250   0.035   0.930   7.589  0.4261 -0.2688  0.2378
   18MOL0     C 2251  -0.096   0.897   7.549 -0.3462  0.1321 -0.0563
   18MOL0     O 2252  -0.187   0.993   7.532 -0.3511 -0.5823 -0.0351
   18MOL0     C 2253  -0.152   1.075   7.417 -1.0252 -0.4209  0.4172
   18MOL0     C 2254  -0.253   1.195   7.385 -0.5200  1.0457 -0.3117
   18MOL0     C 2255  -0.247   1.311   7.489 -0.0363  0.6805  0.0454
   18MOL0     C 2256  -0.246   1.281   7.643  0.9007 -0.3227  0.5174
   18MOL0     C 2257  -0.268   1.412   7.714  0.9004 -0.4136  0.6664
   18MOL0     C 2258  -0.419   1.457   7.697  0.3354  0.1047  0.3210
   18MOL0     C 2259  -0.458   1.534   7.819  0.9093 -1.0552  0.0521
   18MOL0     C 2260  -0.612   1.552   7.802 -0.3144  0.4999  0.0700
   18MOL0     N 2261  -0.673   1.620   7.915  0.1091  0.3839 -0.0990
   18MOL0     C 2262  -0.807   1.619   7.957  0.0773  0.3966  0.6316
   18MOL0     C 2263  -0.823   1.707   8.052 -0.0671 -0.8691  0.1266
   18MOL0     C 2264  -0.950   1.739   8.122  0.9006  0.6541 -0.4849
   18MOL0     C 2265  -0.996   1.624   8.209  0.2824  0.5419  0.5488
   18MOL0     C 2266  -1.086   1.675   8.323 -0.0763  0.6550 -0.0195
   18MOL0     C 2267  -1.127   1.558   8.405 -0.8759 -0.5016 -0.1733
   18MOL0     O 2268  -1.019   1.502   8.478 -0.4915 -0.4269  0.1871
   18MOL0     C 2269  -1.042   1.398   8.563  0.4908  0.1355 -0.9847
   18MOL0     C 2270  -1.115   1.284   8.525 -1.0062  0.5111  0.5456
   18MOL0     C 2271  -1.109   1.177   8.610 -0.0595 -0.6348  0.6495
   18MOL0     C 2272  -1.040   1.172   8.734  0.3947  0.1431  0.6144
   18MOL0     C 2273  -1.056   1.063   8.830  0.6298  0.2096 -0.0686
   18MOL0     O 2274  -1.029   1.093   8.961  0.2494  0.2096 -0.0040
   18MOL0     C 2275  -1.029   0.986   9.054  0.2001 -1.4920  0.1577
   18MOL0     C 2276  -1.080   1.024   9.184  0.1977 -0.0124  0.3373
   18MOL0     C 2277  -1.071   0.925   9.283 -0.4388  0.4297 -0.4343
   18MOL0     C 2278  -1.018   0.799   9.264  0.1818  0.5498  0.5641
   18MOL0     O 2279  -1.017   0.711   9.373 -0.2709 -0.0662 -0.2299
   18MOL0     C 2280  -0.892   0.647   9.398 -0.2982 -0.8951 -0.3572
   18MOL0     C 2281  -0.878   0.604   9.544 -0.1779 -0.0554 -0.0632
   18MOL0     C 2282  -0.753   0.527   9.573 -0.1627  0.4948  0.5814
   18MOL0     C 2283  -0.761   0.452   9.704 -0.3389 -0.2012  0.0720
   18MOL0     C 2284  -0.635   0.369   9.733 -0.0999 -0.6033  0.1707
   18MOL0     C 2285  -0.589   0.283   9.609 -0.1157 -0.6254  0.2337
   18MOL0     C 2286  -0.479   0.187   9.644 -1.5181  1.1280  0.5470
   18MOL0     C 2287  -0.416   0.109   9.525 -0.0586 -0.0289 -0.1293
   18MOL0    Cl 2288  -0.485  -0.054   9.500  0.1461 -0.1492  0.2206
   18MOL0     C 2289  -0.959   0.777   9.136 -0.9380  0.8138  0.6679
   18MOL0     C 2290  -0.972   0.863   9.038  0.0152 -0.6953  0.6834
   18MOL0     O 2291  -1.101   0.953   8.788  0.0093 -0.5441  0.4765
   18MOL0     C 2292  -0.983   1.293   8.772 -0.7583 -0.2736  0.0171
   18MOL0     C 2293  -0.978   1.408   8.687 -0.4700  0.5990 -0.2238
   18MOL0     N 2294  -0.701   1.763   8.062 -0.5048  0.6463 -0.1950
   18MOL0     N 2295  -0.612   1.710   7.988 -0.8728  0.4974  0.2625
   18MOL0     C 2296  -0.138   0.760   7.549  0.4016 -0.5237  0.5045
   18MOL0     C 2297  -0.042   0.664   7.574 -0.1732  0.2182 -0.3087
   18MOL0     C 2298   0.401   0.501   7.513 -0.2004 -0.3451 -0.0466
   18MOL0     C 2299   0.428   0.434   7.634  0.8348  0.5176  0.2963
   18MOL0     C 2300   0.542   0.345   7.635  0.3113 -0.4173 -0.0120
   18MOL0     C 2301   0.637   0.341   7.541 -0.4865  0.1108  0.3453
   18MOL0     O 2302   0.743   0.255   7.559  0.4251 -0.4152 -0.3378
   18MOL0     C 2303   0.845   0.234   7.462  0.3513 -0.1848 -0.1567
   18MOL0     C 2304   0.805   0.151   7.334 -0.1426  0.4789 -0.3524
   18MOL0     C 2305   0.909   0.153   7.222 -0.6541  0.7361  0.5093
   18MOL0     C 2306   0.883   0.025   7.123  0.1946 -1.4126 -1.0713
   18MOL0     C 2307   0.955   0.050   6.996  0.2201  0.2860  0.0562
   18MOL0     C 2308   1.021   0.063   6.897  0.0505 -1.0207  0.1163
   18MOL0     C 2309   0.624   0.425   7.429  0.6438 -0.3016 -0.1196
   18MOL0     C 2310   0.511   0.507   7.422 -0.6341 -0.2167 -0.4970
   18MOL0     H 2311   0.233   0.849   7.623  0.0901  0.2534  0.8254
   18MOL0     H 2312   0.063   1.033   7.611  1.9181 -0.7274  0.6169
   18MOL0     H 2313  -0.145   1.017   7.324 -2.0843  1.7738 -1.1481
   18MOL0     H 2314  -0.051   1.113   7.433  0.3125 -2.9309 -1.3594
   18MOL0     H 2315  -0.353   1.158   7.404  0.2893 -1.0548  0.0801
   18MOL0     H 2316  -0.249   1.236   7.284 -2.5210  1.4744 -0.2552
   18MOL0     H 2317  -0.319   1.389   7.465  1.6397  2.1511 -0.4108
   18MOL0     H 2318  -0.145   1.346   7.471 -0.3236  1.4793 -0.0592
   18MOL0     H 2319  -0.326   1.211   7.668  0.4305 -0.5568 -1.4308
   18MOL0     H 2320  -0.146   1.246   7.670  1.2408 -0.3851 -0.7235
   18MOL0     H 2321  -0.190   1.478   7.675  3.9067 -4.0785 -0.0393
   18MOL0     H 2322  -0.257   1.406   7.822 -0.6565  4.3933  1.3396
   18MOL0     H 2323  -0.481   1.367   7.698  1.2552 -0.5713  2.1462
   18MOL0     H 2324  -0.436   1.506   7.601  1.8347 -3.8324 -2.2022
   18MOL0     H 2325  -0.436   1.483   7.913 -2.4112 -1.2840  0.8231
   18MOL0     H 2326  -0.408   1.631   7.816 -0.8933  0.0853  2.5199
   18MOL0     H 2327  -0.661   1.455   7.801  4.0746 -1.9900 -2.2690
   18MOL0     H 2328  -0.640   1.591   7.703 -3.2968 -2.3310 -0.3930
   18MOL0     H 2329  -0.882   1.556   7.911  3.2958 -2.2172 -1.5710
   18MOL0     H 2330  -1.025   1.765   8.046  0.6893  1.4745 -0.0010
   18MOL0     H 2331  -0.918   1.824   8.182  1.7085  2.4269 -3.2395
   18MOL0     H 2332  -0.912   1.577   8.261 -0.8029 -2.8875 -0.5344
   18MOL0     H 2333  -1.058   1.564   8.143 -0.4144  2.9666 -1.1582
   18MOL0     H 2334  -1.029   1.738   8.392  3.7732 -3.3916  0.9857
   18MOL0     H 2335  -1.177   1.721   8.285  1.1583  1.3478 -2.3349
   18MOL0     H 2336  -1.176   1.486   8.339  0.0980 -0.1677 -1.2898
   18MOL0     H 2337  -1.193   1.590   8.486  2.8700 -3.1602  4.4599
   18MOL0     H 2338  -1.168   1.282   8.431  1.8144 -2.1505 -1.1800
   18MOL0     H 2339  -1.171   1.096   8.574 -0.1147  0.1242 -1.0223
   18MOL0     H 2340  -1.136   1.116   9.188 -1.5132 -0.8799 -1.7065
   18MOL0     H 2341  -1.121   0.941   9.378 -0.7709 -3.8277  0.2907
   18MOL0     H 2342  -0.818   0.725   9.378 -1.8794  0.7588 -0.0234
   18MOL0     H 2343  -0.862   0.554   9.350  2.7957 -2.8302  4.5082
   18MOL0     H 2344  -0.972   0.549   9.554 -1.0241  1.4117  0.2803
   18MOL0     H 2345  -0.883   0.694   9.606 -0.7879  0.0500 -0.2537
   18MOL0     H 2346  -0.654   0.573   9.562  1.3144 -2.8752 -1.8852
   18MOL0     H 2347  -0.753   0.445   9.501 -2.3219  1.6456 -0.8180
   18MOL0     H 2348  -0.785   0.525   9.781 -2.4023 -1.0305  0.2809
   18MOL0     H 2349  -0.841   0.377   9.699 -3.0757  2.6040 -1.3351
   18MOL0     H 2350  -0.660   0.305   9.818  2.3670  0.7069  2.0182
   18MOL0     H 2351  -0.548   0.429   9.763 -0.2573 -0.3793  0.1767
   18MOL0     H 2352  -0.555   0.341   9.523 -1.1702 -2.1731 -1.2795
   18MOL0     H 2353  -0.679   0.230   9.577  0.1313 -0.6109 -0.4840
   18MOL0     H 2354  -0.397   0.238   9.696 -1.1182 -2.0112  3.3779
   18MOL0     H 2355  -0.518   0.112   9.713 -0.0480 -0.8288 -0.6689
   18MOL0     H 2356  -0.309   0.089   9.540 -0.4468 -3.9608 -1.6456
   18MOL0     H 2357  -0.425   0.167   9.433  0.4390 -2.0925 -1.5548
   18MOL0     H 2358  -0.914   0.680   9.117 -1.3030  0.8961 -0.7348
   18MOL0     H 2359  -0.941   0.836   8.937 -1.9175  2.5737 -0.9444
   18MOL0     H 2360  -0.940   1.298   8.872 -2.9803 -2.0606  1.1648
   18MOL0     H 2361  -0.913   1.494   8.695  2.9863 -0.9750 -5.8937
   18MOL0     H 2362  -0.245   0.744   7.543 -0.1023  2.1534  1.1228
   18MOL0     H 2363  -0.076   0.561   7.580  1.4079 -0.3873 -1.2722
   18MOL0     H 2364   0.357   0.431   7.716 -1.0149  1.1009 -1.2367
   18MOL0     H 2365   0.564   0.297   7.729  0.3631 -1.5190 -0.5714
   18MOL0     H 2366   0.930   0.198   7.520 -1.3069  0.2453  2.7558
   18MOL0     H 2367   0.874   0.324   7.407  0.3160 -0.7663 -1.1500
   18MOL0     H 2368   0.776   0.048   7.357 -2.4400  1.6557  2.7162
   18MOL0     H 2369   0.718   0.197   7.288  0.3330  1.5354 -0.2176
   18MOL0     H 2370   1.014   0.151   7.250 -0.3738  1.4971 -0.4256
   18MOL0     H 2371   0.903   0.244   7.161  0.7047  1.2349  1.0696
   18MOL0     H 2372   0.915  -0.064   7.177 -1.7745 -1.1973  0.5788
   18MOL0     H 2373   0.776   0.009   7.106 -0.2408 -1.5390  1.3495
   18MOL0     H 2374   1.087   0.075   6.814 -0.1696  0.5341  0.1523
   18MOL0     H 2375   0.698   0.442   7.352 -0.7490 -4.3173 -2.6895
   18MOL0     H 2376   0.503   0.583   7.345 -0.1503 -0.9993 -1.3468
   19MOL0     O 2377   0.503   9.941  10.678 -0.1987 -0.1174  0.6790
   19MOL0     C 2378   0.438   9.863  10.613 -0.3024  1.0440  0.8752
   19MOL0     O 2379   0.396   9.747  10.658 -0.4865  0.4357  0.6474
   19MOL0     C 2380   0.395   9.709  10.793 -0.2495  0.5989 -0.4634
   19MOL0     C 2381   0.377   9.800  10.896 -0.3912 -0.3919  0.3840
   19MOL0     C 2382   0.389   9.765  11.031  0.5596 -0.2407 -0.4942
   19MOL0     C 2383   0.427   9.631  11.065 -0.2736 -0.4582 -0.2937
   19MOL0     O 2384   0.445   9.581  11.188 -0.2492  0.2267 -0.5295
   19MOL0     C 2385   0.424   9.667  11.302  0.4301  0.2273  0.7909
   19MOL0     C 2386   0.417   9.586  11.434 -1.0308 -0.0347 -1.2399
   19MOL0     C 2387   0.351   9.452  11.439 -0.0548 -0.4962  0.1514
   19MOL0     C 2388   0.364   9.363  11.556 -0.3609 -0.3878 -0.1944
   19MOL0     C 2389   0.236   9.321  11.641 -1.4608 -0.8525  0.8221
   19MOL0     C 2390   0.154   9.227  11.562  0.0327 -0.5312  0.0818
   19MOL0     C 2391   0.011   9.184  11.619 -0.4004 -0.0686  0.4827
   19MOL0     C 2392  -0.079   9.306  11.656 -0.6155  0.1430  0.0555
   19MOL0     N 2393  -0.219   9.271  11.662  0.2789 -0.9300 -0.3560
   19MOL0     C 2394  -0.302   9.261  11.550 -0.5648  0.2888 -0.4519
   19MOL0     C 2395  -0.417   9.213  11.610 -0.0544  0.0568 -0.1106
   19MOL0     C 2396  -0.537   9.184  11.526 -0.1702 -0.5821  0.1254
   19MOL0     C 2397  -0.586   9.045  11.553  1.5953  0.0329 -0.9985
   19MOL0     C 2398  -0.487   8.923  11.512  0.6424 -0.4461 -0.2467
   19MOL0     C 2399  -0.457   8.930  11.361  0.0649  0.4156  0.0517
   19MOL0     O 2400  -0.360   9.034  11.338 -0.0211  0.2411  0.5417
   19MOL0     C 2401  -0.281   9.037  11.228  0.3236  0.5481 -0.1829
   19MOL0     C 2402  -0.310   8.963  11.109  0.8680  0.3248  0.0477
   19MOL0     C 2403  -0.227   8.981  10.995 -1.0563  0.0770  0.7776
   19MOL0     C 2404  -0.101   9.047  11.004 -0.3229 -0.9066 -0.1005
   19MOL0     C 2405  -0.007   9.058  10.888 -0.2293  0.0634 -0.2933
   19MOL0     O 2406   0.109   9.134  10.906 -1.0159  0.4667  0.1094
   19MOL0     C 2407   0.193   9.172  10.808  0.1768  1.1405 -0.5051
   19MOL0     C 2408   0.154   9.277  10.723 -0.1514  0.0211 -0.7969
   19MOL0     C 2409   0.254   9.325  10.629  0.6174  0.0628 -1.5169
   19MOL0     C 2410   0.373   9.252  10.602  0.6386  0.0726  0.0387
   19MOL0     O 2411   0.452   9.299  10.504  0.7882 -0.5248  0.2707
   19MOL0     C 2412   0.589   9.283  10.521  0.1272 -0.1594 -0.6231
   19MOL0     C 2413   0.649   9.381  10.412 -0.6721 -0.0588 -0.9793
   19MOL0     C 2414   0.802   9.399  10.432  0.6856 -0.1244  0.0578
   19MOL0     C 2415   0.849   9.467  10.558  0.1263  0.5970  0.4920
   19MOL0     C 2416   0.798   9.618  10.570  0.4197  0.0064 -0.6716
   19MOL0     C 2417   0.864   9.722  10.481 -0.9466  0.0689  0.4478
   19MOL0     C 2418   0.811   9.865  10.508 -0.3960 -0.3795 -0.3141
   19MOL0     C 2419   0.923   9.961  10.468  0.6538 -0.0509  0.8405
   19MOL0    Cl 2420   0.854  10.108  10.418 -0.2508  0.2090  0.4886
   19MOL0     C 2421   0.400   9.137  10.682 -1.1919  0.0393  0.3763
   19MOL0     C 2422   0.315   9.098  10.784  0.4199  0.0767  0.4961
   19MOL0     O 2423  -0.038   8.997  10.788  0.0126 -0.2631  0.9390
   19MOL0     C 2424  -0.077   9.123  11.125 -1.4476  0.8628 -0.4529
   19MOL0     C 2425  -0.170   9.124  11.233  0.0127  0.2246  0.1700
   19MOL0     N 2426  -0.396   9.200  11.746 -0.4436  0.1625 -0.1551
   19MOL0     N 2427  -0.272   9.238  11.780  0.3583  0.6139 -0.0522
   19MOL0     C 2428   0.427   9.534  10.962 -0.4270  0.2910  1.1259
   19MOL0     C 2429   0.419   9.569  10.830  0.2058 -0.7362  0.6759
   19MOL0     C 2430   0.417   9.891  10.473  0.1932  0.2619  0.0097
   19MOL0     C 2431   0.341   9.803  10.385 -0.6722  0.8393 -0.5018
   19MOL0     C 2432   0.336   9.833  10.248  0.7556 -0.4218 -1.3742
   19MOL0     C 2433   0.396   9.949  10.200  0.1404 -0.0463 -0.5066
   19MOL0     O 2434   0.370   9.976  10.066  0.4190  0.2611  0.0783
   19MOL0     C 2435   0.440  10.076   9.987 -0.3004 -0.1428  0.7575
   19MOL0     C 2436   0.445  10.048   9.841  0.4099  0.1283  0.3994
   19MOL0     C 2437   0.308  10.097   9.776 -0.1744  0.6246 -0.2698
   19MOL0     C 2438   0.312  10.106   9.627  0.1231  0.5238  0.4562
   19MOL0     C 2439   0.332   9.973   9.561 -0.4087  0.3007  0.3033
   19MOL0     C 2440   0.347   9.861   9.512 -0.8697 -0.1694 -0.3985
   19MOL0     C 2441   0.450  10.041  10.282 -0.3876  0.3797 -0.3561
   19MOL0     C 2442   0.461  10.013  10.419 -0.5623  0.1586  0.4305
   19MOL0     H 2443   0.350   9.902  10.870  0.3011  0.0748  1.3984
   19MOL0     H 2444   0.381   9.851  11.098 -1.7060 -1.5950  1.1420
   19MOL0     H 2445   0.328   9.711  11.273 -1.6951 -4.4223 -0.1741
   19MOL0     H 2446   0.507   9.737  11.311 -1.2766  2.5672 -0.4501
   19MOL0     H 2447   0.382   9.644  11.520  1.7923 -2.1824  1.5757
   19MOL0     H 2448   0.519   9.573  11.471 -0.5742 -0.6560 -2.6537
   19MOL0     H 2449   0.394   9.404  11.351  5.0036  2.1347  0.8146
   19MOL0     H 2450   0.245   9.475  11.426  0.0442  1.0727  1.6697
   19MOL0     H 2451   0.427   9.279  11.524  0.9855  0.2783  0.6230
   19MOL0     H 2452   0.433   9.415  11.623  1.1518 -1.8003 -0.5650
   19MOL0     H 2453   0.178   9.410  11.667  0.8841  0.4177  1.9910
   19MOL0     H 2454   0.278   9.269  11.727  0.8057  1.1161  0.9842
   19MOL0     H 2455   0.210   9.133  11.552 -0.0533 -0.6019  0.2532
   19MOL0     H 2456   0.124   9.263  11.463  1.5126  0.1695 -0.1317
   19MOL0     H 2457  -0.038   9.121  11.544  1.5266 -0.3990 -0.5617
   19MOL0     H 2458   0.021   9.126  11.711 -0.0273 -1.6194 -0.5123
   19MOL0     H 2459  -0.056   9.387  11.585  0.2889  1.7094  2.0378
   19MOL0     H 2460  -0.039   9.343  11.751 -1.9433 -1.4015  1.2644
   19MOL0     H 2461  -0.286   9.292  11.448 -0.1760 -1.5368 -0.9727
   19MOL0     H 2462  -0.521   9.193  11.418 -2.0640  1.4716 -0.0577
   19MOL0     H 2463  -0.617   9.256  11.545 -0.0703 -0.4143 -0.0893
   19MOL0     H 2464  -0.673   9.035  11.488  0.1309  1.5897  0.6233
   19MOL0     H 2465  -0.623   9.049  11.656  0.8617  1.4256 -1.2951
   19MOL0     H 2466  -0.392   8.921  11.565 -0.0779 -2.8281  1.1228
   19MOL0     H 2467  -0.537   8.831  11.544 -2.5217  1.2032 -0.0382
   19MOL0     H 2468  -0.542   8.959  11.299  2.3885  0.2603 -3.5242
   19MOL0     H 2469  -0.416   8.842  11.310 -0.0332  0.7691 -0.6430
   19MOL0     H 2470  -0.394   8.902  11.078  0.5674  1.0511 -0.5998
   19MOL0     H 2471  -0.256   8.942  10.898  1.3687  2.1889 -0.9209
   19MOL0     H 2472   0.057   9.325  10.737 -1.3090 -2.6470  1.0396
   19MOL0     H 2473   0.246   9.411  10.564 -0.6855 -0.9928 -2.8061
   19MOL0     H 2474   0.622   9.179  10.511 -2.3831 -1.0363 -0.3885
   19MOL0     H 2475   0.632   9.305  10.620  0.5175  0.0615 -0.8402
   19MOL0     H 2476   0.594   9.475  10.420 -2.1630 -0.8876 -1.1855
   19MOL0     H 2477   0.634   9.353  10.307 -1.4598  0.2832 -0.9687
   19MOL0     H 2478   0.838   9.445  10.340 -0.1026  0.3266 -0.0260
   19MOL0     H 2479   0.839   9.296  10.436 -0.0729 -0.3751  2.5353
   19MOL0     H 2480   0.812   9.423  10.651  1.2998  0.3154  0.8412
   19MOL0     H 2481   0.959   9.464  10.560  0.0901 -1.3327  1.3676
   19MOL0     H 2482   0.830   9.649  10.669 -0.5200 -1.1917  0.0386
   19MOL0     H 2483   0.690   9.632  10.562 -0.0090 -1.4587  1.6368
   19MOL0     H 2484   0.837   9.710  10.375 -2.9898  3.7482  0.3786
   19MOL0     H 2485   0.973   9.719  10.488 -0.7799 -0.2899 -1.5378
   19MOL0     H 2486   0.717   9.877  10.454 -0.4621 -1.9574 -0.5965
   19MOL0     H 2487   0.772   9.887  10.608 -1.4610  3.0829 -1.3365
   19MOL0     H 2488   0.951   9.911  10.375 -1.9667 -3.6504  1.7915
   19MOL0     H 2489   0.994   9.952  10.550  0.0259  0.2829  1.4247
   19MOL0     H 2490   0.494   9.083  10.677 -0.7863  0.7263  0.4121
   19MOL0     H 2491   0.327   9.008  10.844 -1.4314 -0.0225  0.7805
   19MOL0     H 2492   0.020   9.171  11.134 -1.8063  1.7720 -1.2513
   19MOL0     H 2493  -0.135   9.180  11.320 -0.1938  2.0510 -0.8661
   19MOL0     H 2494   0.449   9.430  10.985 -0.1452  0.5538  2.0647
   19MOL0     H 2495   0.441   9.499  10.750  1.2451 -1.2312  1.3820
   19MOL0     H 2496   0.301   9.707  10.416 -0.7154 -0.2135 -3.5328
   19MOL0     H 2497   0.269   9.759  10.205 -0.2574 -2.6621  3.4222
   19MOL0     H 2498   0.541  10.069  10.028 -1.0522 -1.5979  2.5110
   19MOL0     H 2499   0.402  10.174  10.018  3.8534  2.4206 -1.3604
   19MOL0     H 2500   0.533  10.100   9.801 -0.7123  1.0791 -0.9683
   19MOL0     H 2501   0.458   9.940   9.827 -0.2183  0.0332  0.5070
   19MOL0     H 2502   0.305  10.204   9.799  3.9948  1.3154 -2.0555
   19MOL0     H 2503   0.237  10.028   9.823  0.1434  1.2217  1.1351
   19MOL0     H 2504   0.228  10.164   9.587  1.1456  0.4030 -2.0748
   19MOL0     H 2505   0.396  10.168   9.593 -1.1759  0.8614 -2.4763
   19MOL0     H 2506   0.348   9.764   9.467  1.2641 -0.0039 -0.7798
   19MOL0     H 2507   0.483  10.135  10.241  0.7815 -0.1327 -0.6384
   19MOL0     H 2508   0.535  10.071  10.473  0.9509 -1.9183  0.6976
   20MOL0     O 2509   4.795   6.033   2.658  0.3285  0.3554  0.0029
   20MOL0     C 2510   4.754   6.023   2.542 -0.7322 -0.3699 -0.2808
   20MOL0     O 2511   4.727   6.140   2.469 -0.7161  0.4455  1.2706
   20MOL0     C 2512   4.746   6.268   2.521 -1.0395  0.1817  0.5548
   20MOL0     C 2513   4.646   6.325   2.610 -0.3720 -0.3378  0.6684
   20MOL0     C 2514   4.669   6.457   2.655 -0.4998 -0.1923 -0.9809
   20MOL0     C 2515   4.781   6.530   2.622  0.2175 -0.1127 -0.1741
   20MOL0     O 2516   4.806   6.663   2.658  1.0494 -0.4842 -0.1349
   20MOL0     C 2517   4.757   6.710   2.783 -0.6574  0.8429  0.3498
   20MOL0     C 2518   4.645   6.809   2.753  0.4198 -0.4301 -0.6034
   20MOL0     C 2519   4.677   6.931   2.680 -0.0393  0.4595  0.5025
   20MOL0     C 2520   4.760   7.039   2.747 -0.6715 -0.5226  0.7835
   20MOL0     C 2521   4.780   7.154   2.642  0.1863 -0.4667  0.9278
   20MOL0     C 2522   4.662   7.251   2.618 -0.7270  1.6281 -0.0658
   20MOL0     C 2523   4.657   7.347   2.733  0.3672  0.0047  0.5836
   20MOL0     C 2524   4.544   7.444   2.707  0.0236 -0.1829 -0.4104
   20MOL0     N 2525   4.540   7.555   2.810 -0.2004  0.2187  0.4763
   20MOL0     C 2526   4.519   7.691   2.785 -0.2718 -0.4663 -0.0515
   20MOL0     C 2527   4.459   7.746   2.897  0.5160 -0.2294  0.3215
   20MOL0     C 2528   4.385   7.880   2.916  0.3223 -0.0647  0.6193
   20MOL0     C 2529   4.451   7.961   3.026  0.3832  0.7358  1.0831
   20MOL0     C 2530   4.586   8.029   2.994  0.0074  1.0276  0.2117
   20MOL0     C 2531   4.664   8.069   3.113 -0.2563 -1.3101 -0.4650
   20MOL0     O 2532   4.692   7.957   3.190  0.1614 -0.2387 -0.4137
   20MOL0     C 2533   4.819   7.926   3.242 -0.0883 -0.2136 -0.9767
   20MOL0     C 2534   4.844   7.793   3.274 -0.4538  0.3319  1.4250
   20MOL0     C 2535   4.966   7.761   3.336  0.0710  1.2671  0.2128
   20MOL0     C 2536   5.062   7.857   3.360 -0.2635  0.8432  0.1984
   20MOL0     C 2537   5.196   7.813   3.427  0.1062 -0.0283 -0.1737
   20MOL0     O 2538   5.229   7.682   3.435  0.6407 -0.2427  0.5311
   20MOL0     C 2539   5.336   7.623   3.506 -0.2982 -0.9606  0.6658
   20MOL0     C 2540   5.443   7.693   3.568  0.7059  0.7038 -0.4978
   20MOL0     C 2541   5.546   7.611   3.620  0.4123  0.4360  0.4149
   20MOL0     C 2542   5.558   7.476   3.609  0.8643 -0.0170 -0.7003
   20MOL0     O 2543   5.672   7.427   3.661 -0.2239 -0.6826  0.2604
   20MOL0     C 2544   5.664   7.340   3.763 -0.1333 -0.3344 -0.5696
   20MOL0     C 2545   5.659   7.413   3.906  0.1591  0.3955 -0.1936
   20MOL0     C 2546   5.610   7.333   4.028  0.3360  0.3217 -0.3269
   20MOL0     C 2547   5.659   7.400   4.159  0.2194 -0.0112  0.2791
   20MOL0     C 2548   5.590   7.334   4.288  0.5408 -0.4845  0.5002
   20MOL0     C 2549   5.631   7.397   4.418 -0.2224 -0.4936  0.5665
   20MOL0     C 2550   5.553   7.332   4.539  0.1510 -0.6988 -0.0840
   20MOL0     C 2551   5.620   7.206   4.596  0.4474  0.3602  0.3225
   20MOL0    Cl 2552   5.535   7.159   4.741  0.3886  0.4230 -0.3507
   20MOL0     C 2553   5.455   7.407   3.546  0.6076 -0.9877  0.0114
   20MOL0     C 2554   5.337   7.481   3.500  0.0694 -0.0544  0.4765
   20MOL0     O 2555   5.262   7.904   3.464 -0.0783  0.2526  0.4804
   20MOL0     C 2556   5.036   7.989   3.333  0.7321 -0.8475 -0.1978
   20MOL0     C 2557   4.911   8.028   3.271  0.1774 -0.3940 -0.9840
   20MOL0     N 2558   4.451   7.636   2.990  0.3190  0.6175  0.7965
   20MOL0     N 2559   4.501   7.529   2.936 -0.4304 -0.4984  0.0008
   20MOL0     C 2560   4.873   6.475   2.538 -0.6521 -0.0108  0.6306
   20MOL0     C 2561   4.863   6.344   2.491  0.6861 -0.1479  0.0518
   20MOL0     C 2562   4.713   5.890   2.492 -0.2197  0.7175 -0.2117
   20MOL0     C 2563   4.639   5.873   2.372 -0.5484  0.3197  0.9875
   20MOL0     C 2564   4.616   5.749   2.311  0.5911 -0.5272  0.5475
   20MOL0     C 2565   4.656   5.634   2.371 -0.4056 -0.8890 -1.3541
   20MOL0     O 2566   4.644   5.507   2.314  0.1563 -0.1767 -0.6416
   20MOL0     C 2567   4.560   5.427   2.388 -0.2305  0.2787  0.2717
   20MOL0     C 2568   4.517   5.310   2.310  0.7593 -0.1559  0.0941
   20MOL0     C 2569   4.401   5.228   2.376  0.0546  0.3574  0.7976
   20MOL0     C 2570   4.417   5.076   2.327  1.0912  0.3684 -0.3677
   20MOL0     C 2571   4.292   5.006   2.343  0.8341  0.4373 -0.6769
   20MOL0     C 2572   4.204   4.925   2.353  0.3525  0.7779 -0.2921
   20MOL0     C 2573   4.713   5.649   2.500 -0.4469  0.1197 -0.3416
   20MOL0     C 2574   4.743   5.774   2.563 -0.2175  0.5594  0.2141
   20MOL0     H 2575   4.549   6.286   2.639  0.1739 -0.9393  1.7227
   20MOL0     H 2576   4.593   6.509   2.712 -0.4301 -1.0350 -0.0918
   20MOL0     H 2577   4.851   6.752   2.820  1.0867 -1.0425 -1.6128
   20MOL0     H 2578   4.721   6.626   2.844  0.7426  0.3267  0.4980
   20MOL0     H 2579   4.598   6.833   2.849  2.8656  0.7979  0.3795
   20MOL0     H 2580   4.567   6.753   2.701 -2.7157  2.1181  1.0177
   20MOL0     H 2581   4.587   6.976   2.638  0.2715  1.9515  1.3532
   20MOL0     H 2582   4.737   6.891   2.598  1.6705 -1.1591  2.4315
   20MOL0     H 2583   4.706   7.073   2.835 -0.8263  1.2786  0.0464
   20MOL0     H 2584   4.859   7.003   2.775  0.2479  0.8074 -0.5661
   20MOL0     H 2585   4.791   7.105   2.545  5.2421  2.0057 -0.0932
   20MOL0     H 2586   4.874   7.208   2.656  0.6140 -1.2648  1.1501
   20MOL0     H 2587   4.571   7.190   2.623 -0.5659  1.4547  3.1534
   20MOL0     H 2588   4.679   7.297   2.521 -0.7212 -1.8502 -1.8875
   20MOL0     H 2589   4.649   7.296   2.830 -4.0426 -1.6531 -0.4158
   20MOL0     H 2590   4.749   7.404   2.746  0.8654 -0.4286 -0.8332
   20MOL0     H 2591   4.445   7.397   2.714 -0.2513  0.3430 -0.7563
   20MOL0     H 2592   4.557   7.488   2.607  4.3081 -1.8649 -0.8220
   20MOL0     H 2593   4.539   7.739   2.690  1.6676  0.7773  0.9180
   20MOL0     H 2594   4.281   7.862   2.947  0.2833  2.0165  1.8753
   20MOL0     H 2595   4.376   7.930   2.819  0.8998 -1.6801 -0.2973
   20MOL0     H 2596   4.466   7.885   3.104  1.8038  0.5719  0.6674
   20MOL0     H 2597   4.386   8.039   3.067 -2.3638 -1.8700  2.0861
   20MOL0     H 2598   4.646   7.953   2.943  0.7518  0.2320  2.1609
   20MOL0     H 2599   4.565   8.106   2.919 -4.3365 -1.4695 -1.5763
   20MOL0     H 2600   4.616   8.139   3.182  1.5232  1.6252 -1.9803
   20MOL0     H 2601   4.752   8.127   3.083 -1.4259  2.0603  1.9805
   20MOL0     H 2602   4.760   7.725   3.261 -1.7712  2.0079  0.7350
   20MOL0     H 2603   4.986   7.655   3.351 -1.0358  1.2081  1.4993
   20MOL0     H 2604   5.439   7.801   3.579  0.7327  0.9322 -2.3173
   20MOL0     H 2605   5.624   7.677   3.657  1.3314  0.3396 -1.3009
   20MOL0     H 2606   5.733   7.256   3.750  2.6068  1.8705 -1.1859
   20MOL0     H 2607   5.566   7.292   3.760  0.7509 -2.4612  1.1103
   20MOL0     H 2608   5.618   7.515   3.903 -2.4554 -0.6178 -2.0038
   20MOL0     H 2609   5.764   7.440   3.923  0.2391  0.7383 -1.1411
   20MOL0     H 2610   5.637   7.228   4.019  1.0275  0.4795 -0.1762
   20MOL0     H 2611   5.501   7.341   4.025  0.2191 -1.1609 -0.5568
   20MOL0     H 2612   5.767   7.380   4.165  0.5449  0.5809 -2.2079
   20MOL0     H 2613   5.629   7.505   4.164 -1.7089 -0.1618 -3.8555
   20MOL0     H 2614   5.606   7.226   4.287 -1.0051 -0.7614 -1.7654
   20MOL0     H 2615   5.483   7.352   4.277  0.2519 -1.9248  0.6778
   20MOL0     H 2616   5.604   7.503   4.406  1.5225 -0.0220  0.4415
   20MOL0     H 2617   5.740   7.394   4.427 -0.0257  3.6546  2.0112
   20MOL0     H 2618   5.555   7.400   4.625 -0.2218  1.0023 -1.3636
   20MOL0     H 2619   5.451   7.302   4.513 -0.7094  0.4644  1.7686
   20MOL0     H 2620   5.726   7.222   4.619  0.2955 -0.7260  1.9074
   20MOL0     H 2621   5.612   7.120   4.528 -0.4387 -1.9834  3.1876
   20MOL0     H 2622   5.471   7.300   3.538  3.7603 -0.5382 -0.9322
   20MOL0     H 2623   5.262   7.419   3.453  0.4708 -0.5713  0.4988
   20MOL0     H 2624   5.112   8.062   3.357  2.7607 -1.5301 -3.8668
   20MOL0     H 2625   4.889   8.134   3.263 -1.8864 -0.7262 -0.1168
   20MOL0     H 2626   4.967   6.528   2.522  0.9181 -1.5538  3.7224
   20MOL0     H 2627   4.936   6.293   2.429 -0.0848 -0.9508 -0.2221
   20MOL0     H 2628   4.611   5.959   2.312 -1.1663  0.4879  1.5078
   20MOL0     H 2629   4.576   5.738   2.211  1.3946 -1.2989  0.2973
   20MOL0     H 2630   4.471   5.491   2.400 -0.3535  0.3353 -0.8312
   20MOL0     H 2631   4.602   5.392   2.483 -0.8404  2.7551  1.5451
   20MOL0     H 2632   4.476   5.348   2.217 -1.3012  1.1091  1.4414
   20MOL0     H 2633   4.595   5.233   2.318 -1.9359 -2.9231  2.9924
   20MOL0     H 2634   4.304   5.262   2.338  0.1880 -0.7127 -0.5881
   20MOL0     H 2635   4.416   5.224   2.484  1.5905 -0.3813  0.5868
   20MOL0     H 2636   4.441   5.078   2.221  2.5602 -0.6679 -0.0925
   20MOL0     H 2637   4.505   5.033   2.376  1.0441  1.6524  0.8983
   20MOL0     H 2638   4.142   4.838   2.350  2.4743 -0.8488  0.2190
   20MOL0     H 2639   4.760   5.563   2.547 -0.7837 -0.4557 -1.0472
   20MOL0     H 2640   4.801   5.777   2.655 -0.0516 -1.3797  0.2175
   21MOL0     O 2641   6.531   7.901   6.283 -0.3286  0.7819 -0.2497
   21MOL0     C 2642   6.422   7.849   6.293  0.9985  0.0880 -0.4588
   21MOL0     O 2643   6.298   7.907   6.315  0.1363 -0.6510  0.4846
   21MOL0     C 2644   6.280   8.050   6.341  0.0833  0.1152  0.2028
   21MOL0     C 2645   6.155   8.115   6.316  0.2462  0.3483 -0.0002
   21MOL0     C 2646   6.137   8.246   6.343 -0.2683 -1.2494 -0.3698
   21MOL0     C 2647   6.236   8.325   6.398  0.8783  0.0087 -0.0695
   21MOL0     O 2648   6.222   8.457   6.435 -0.3829 -0.2314 -0.1115
   21MOL0     C 2649   6.145   8.483   6.555 -0.1645  0.3753 -0.4209
   21MOL0     C 2650   6.199   8.408   6.676  0.1974  0.4720  0.6867
   21MOL0     C 2651   6.126   8.288   6.718  0.7041 -0.1605 -0.0170
   21MOL0     C 2652   6.194   8.206   6.820 -0.3868 -1.0064  0.0399
   21MOL0     C 2653   6.256   8.077   6.765  0.2421 -0.4839  0.8388
   21MOL0     C 2654   6.171   7.983   6.684  0.0503 -0.5692  1.4564
   21MOL0     C 2655   6.191   7.839   6.726  0.6337 -0.2463  0.3647
   21MOL0     C 2656   6.339   7.805   6.723  0.8936 -0.6017  0.1086
   21MOL0     N 2657   6.331   7.659   6.740 -0.3140 -0.0086 -0.2872
   21MOL0     C 2658   6.376   7.601   6.853 -0.2984  0.0710  1.4002
   21MOL0     C 2659   6.366   7.470   6.822 -0.7612 -0.6279  0.0105
   21MOL0     C 2660   6.388   7.356   6.916 -0.9988  0.6080 -0.3055
   21MOL0     C 2661   6.527   7.294   6.904  0.0651  0.5037  0.2967
   21MOL0     C 2662   6.628   7.305   7.027  0.0798 -0.1056  0.7498
   21MOL0     C 2663   6.660   7.456   7.046 -0.2725 -0.1964 -0.1857
   21MOL0     O 2664   6.725   7.499   6.931 -0.2677 -0.5246 -0.1780
   21MOL0     C 2665   6.694   7.629   6.893  0.5946  0.2673 -0.7904
   21MOL0     C 2666   6.692   7.653   6.761  0.1490  0.0696 -0.7694
   21MOL0     C 2667   6.670   7.781   6.711  0.0441 -0.1438  1.6033
   21MOL0     C 2668   6.676   7.892   6.793 -0.4684  1.1009  0.7568
   21MOL0     C 2669   6.650   8.026   6.739 -0.3941  0.5761 -0.5798
   21MOL0     O 2670   6.689   8.128   6.827 -0.0207 -0.2935 -0.4017
   21MOL0     C 2671   6.656   8.258   6.799  0.1213 -0.3499 -0.1069
   21MOL0     C 2672   6.657   8.330   6.683  0.1065 -0.5410  0.1074
   21MOL0     C 2673   6.606   8.458   6.679  0.3169  0.0671  0.8002
   21MOL0     C 2674   6.583   8.523   6.793  0.1107 -0.7257  0.4941
   21MOL0     O 2675   6.530   8.644   6.805  0.4912 -0.5474 -0.1625
   21MOL0     C 2676   6.471   8.709   6.697 -0.1234  0.2579 -0.1147
   21MOL0     C 2677   6.417   8.844   6.740 -0.7986 -0.3797  0.1910
   21MOL0     C 2678   6.295   8.832   6.821  0.0955 -0.6591 -0.2933
   21MOL0     C 2679   6.320   8.775   6.968 -0.2014 -0.2943 -0.5648
   21MOL0     C 2680   6.226   8.847   7.070  0.4993  0.9837 -0.0333
   21MOL0     C 2681   6.279   8.987   7.120 -1.0968 -0.2713  1.0063
   21MOL0     C 2682   6.402   8.978   7.204  0.1310 -0.5917 -0.8829
   21MOL0     C 2683   6.423   9.116   7.259  0.2501 -0.3817  0.4833
   21MOL0    Cl 2684   6.436   9.243   7.125 -0.4569 -0.0036 -0.2359
   21MOL0     C 2685   6.607   8.464   6.916 -0.2890 -0.8373  0.7637
   21MOL0     C 2686   6.637   8.328   6.915 -0.3566 -0.4653  0.5494
   21MOL0     O 2687   6.589   8.037   6.634 -0.0814  1.5350  0.0488
   21MOL0     C 2688   6.661   7.861   6.930  0.2959  0.0860  0.0838
   21MOL0     C 2689   6.670   7.731   6.982 -0.0919  0.3655  0.2939
   21MOL0     N 2690   6.318   7.447   6.698  0.4825  0.1049  0.5180
   21MOL0     N 2691   6.310   7.565   6.650  0.3341 -0.1222 -0.2606
   21MOL0     C 2692   6.359   8.267   6.415  0.0306  0.2089 -0.2168
   21MOL0     C 2693   6.375   8.132   6.392  0.2039  0.1048 -0.6856
   21MOL0     C 2694   6.429   7.701   6.297 -1.3738 -0.3628  0.5387
   21MOL0     C 2695   6.539   7.654   6.222 -0.5867 -0.1108 -0.1605
   21MOL0     C 2696   6.585   7.517   6.223  0.0424 -0.8288 -0.4986
   21MOL0     C 2697   6.497   7.429   6.289 -0.4669  0.9663  0.2583
   21MOL0     O 2698   6.545   7.296   6.284  0.3503 -0.1183 -1.0107
   21MOL0     C 2699   6.469   7.186   6.337  0.0741  0.3513  0.1664
   21MOL0     C 2700   6.561   7.073   6.370  0.1008 -0.0134  0.1270
   21MOL0     C 2701   6.505   6.988   6.488 -0.3738 -0.2936  0.4867
   21MOL0     C 2702   6.603   6.873   6.511 -0.4524  0.5329  0.5930
   21MOL0     C 2703   6.585   6.758   6.414 -0.4051 -0.1253 -0.4391
   21MOL0     C 2704   6.562   6.665   6.341  0.0093 -0.1643 -0.2789
   21MOL0     C 2705   6.390   7.472   6.362  0.3684  0.2933  0.1824
   21MOL0     C 2706   6.350   7.609   6.362 -0.3146 -0.5662  0.2635
   21MOL0     H 2707   6.077   8.050   6.277 -0.9136 -1.0516  4.0916
   21MOL0     H 2708   6.038   8.290   6.334 -1.3571 -3.3331  0.6142
   21MOL0     H 2709   6.037   8.467   6.547  0.2390 -3.0338 -0.5808
   21MOL0     H 2710   6.159   8.591   6.567 -0.4458  0.2888  0.7767
   21MOL0     H 2711   6.206   8.468   6.768  0.0683  1.1160  0.2823
   21MOL0     H 2712   6.302   8.380   6.652  1.1133  2.4126  2.0680
   21MOL0     H 2713   6.105   8.227   6.630 -1.5235  0.0417  0.3162
   21MOL0     H 2714   6.032   8.328   6.755 -0.5909 -0.9291 -2.2708
   21MOL0     H 2715   6.281   8.260   6.858  0.2537 -1.6544 -0.4737
   21MOL0     H 2716   6.124   8.183   6.901 -2.4711 -0.3161 -1.4865
   21MOL0     H 2717   6.300   8.038   6.857  2.7228  2.8464  1.2406
   21MOL0     H 2718   6.335   8.127   6.707 -3.5156  4.8679 -0.4698
   21MOL0     H 2719   6.186   7.997   6.577 -2.1672 -0.5750  1.0952
   21MOL0     H 2720   6.065   8.009   6.697  0.2270  1.7849 -0.9466
   21MOL0     H 2721   6.159   7.820   6.829  0.1375 -1.0897  0.0605
   21MOL0     H 2722   6.142   7.779   6.649 -0.8922 -1.3003  2.0624
   21MOL0     H 2723   6.396   7.860   6.797  1.1983  2.5894 -2.2917
   21MOL0     H 2724   6.379   7.830   6.624  1.1276  2.2781  0.8479
   21MOL0     H 2725   6.400   7.642   6.951 -1.0681  1.7100  0.9383
   21MOL0     H 2726   6.310   7.284   6.886 -0.8280 -0.1303  0.9508
   21MOL0     H 2727   6.368   7.378   7.021 -1.0347 -1.9684  0.2987
   21MOL0     H 2728   6.582   7.327   6.815  2.2532 -2.2132  0.4981
   21MOL0     H 2729   6.513   7.186   6.896  0.6344  0.2443  2.3151
   21MOL0     H 2730   6.587   7.251   7.113 -0.8681 -0.6920 -0.0521
   21MOL0     H 2731   6.720   7.256   6.993 -0.8654 -2.8620  1.8881
   21MOL0     H 2732   6.721   7.465   7.136 -1.3634  0.9715  0.4613
   21MOL0     H 2733   6.563   7.501   7.070 -0.7681 -0.1787 -2.0647
   21MOL0     H 2734   6.730   7.577   6.694  0.6943 -0.3198 -0.0372
   21MOL0     H 2735   6.655   7.782   6.604 -0.8949 -2.2968  1.6527
   21MOL0     H 2736   6.685   8.279   6.592  1.2418  0.5102 -0.1590
   21MOL0     H 2737   6.601   8.504   6.581 -0.2262 -1.1507  0.2333
   21MOL0     H 2738   6.389   8.646   6.659 -1.2975  0.8719  1.3017
   21MOL0     H 2739   6.550   8.730   6.624  0.4155 -0.9637  0.0812
   21MOL0     H 2740   6.393   8.895   6.646  0.0649 -0.3133 -0.0021
   21MOL0     H 2741   6.498   8.895   6.792 -0.2410 -2.9288  2.0615
   21MOL0     H 2742   6.221   8.773   6.766 -1.3467 -1.2508  2.1217
   21MOL0     H 2743   6.260   8.935   6.823 -0.1583 -0.7134 -1.2284
   21MOL0     H 2744   6.302   8.667   6.969 -3.5319  0.0987 -2.9275
   21MOL0     H 2745   6.425   8.783   6.998 -0.1732 -0.1932 -0.6875
   21MOL0     H 2746   6.196   8.778   7.150  1.4383  0.6782  0.0757
   21MOL0     H 2747   6.132   8.864   7.019 -0.3296  1.2479  1.5283
   21MOL0     H 2748   6.204   9.039   7.180 -0.8040 -0.4411  1.5225
   21MOL0     H 2749   6.292   9.046   7.028 -3.3208 -2.0972 -0.6032
   21MOL0     H 2750   6.386   8.899   7.279 -2.8728  1.8619  1.3142
   21MOL0     H 2751   6.488   8.945   7.146  0.1457  0.8908 -1.7521
   21MOL0     H 2752   6.513   9.125   7.321 -0.7872  2.1925  1.7349
   21MOL0     H 2753   6.344   9.150   7.327 -0.8361 -0.9341 -0.4700
   21MOL0     H 2754   6.596   8.511   7.013 -1.3138 -1.5374  1.0036
   21MOL0     H 2755   6.651   8.282   7.012  0.3670  3.9145  2.7264
   21MOL0     H 2756   6.644   7.940   7.002 -2.5950 -1.8792  1.7919
   21MOL0     H 2757   6.685   7.722   7.089 -0.7579 -0.8418  0.3129
   21MOL0     H 2758   6.434   8.337   6.453 -3.0304  4.7068 -1.6356
   21MOL0     H 2759   6.476   8.096   6.409 -0.5675 -0.9499  2.3202
   21MOL0     H 2760   6.600   7.720   6.162 -0.4361  0.4743  0.6145
   21MOL0     H 2761   6.661   7.472   6.160 -2.0692 -3.3292 -1.4684
   21MOL0     H 2762   6.403   7.166   6.253 -1.5669 -2.4434  1.9682
   21MOL0     H 2763   6.402   7.211   6.420 -0.0821  3.0356 -0.6680
   21MOL0     H 2764   6.592   7.011   6.286  1.2808  1.3207 -0.4721
   21MOL0     H 2765   6.652   7.123   6.406 -0.3938  1.0094  0.0002
   21MOL0     H 2766   6.413   6.936   6.462 -0.2857  0.4500 -1.5325
   21MOL0     H 2767   6.479   7.045   6.577 -2.0403 -3.3219  2.0772
   21MOL0     H 2768   6.703   6.917   6.498  0.9782 -2.6102  0.0975
   21MOL0     H 2769   6.602   6.828   6.610  0.9880  0.2145  0.4945
   21MOL0     H 2770   6.516   6.584   6.287 -0.8113 -0.3160  0.6254
   21MOL0     H 2771   6.331   7.400   6.417  0.7745 -0.8313 -0.8115
   21MOL0     H 2772   6.254   7.630   6.408 -1.1032 -4.1964  0.5799
   22MOL0     O 2773   2.069   3.150   0.742  0.0189 -0.3240  0.7183
   22MOL0     C 2774   1.997   3.248   0.755 -0.2848  0.1628 -0.4231
   22MOL0     O 2775   1.989   3.322   0.869  0.1677 -0.4559  0.5252
   22MOL0     C 2776   2.059   3.283   0.983 -0.2063  0.5517 -0.7138
   22MOL0     C 2777   2.115   3.380   1.066  0.3235 -0.2627 -0.8633
   22MOL0     C 2778   2.182   3.354   1.188  0.0814 -1.1895  0.5052
   22MOL0     C 2779   2.184   3.219   1.231  0.2341  0.4178  0.5123
   22MOL0     O 2780   2.234   3.195   1.359 -0.9275  0.9789 -0.2760
   22MOL0     C 2781   2.217   3.074   1.431 -0.9028 -0.0221  0.3057
   22MOL0     C 2782   2.261   3.097   1.572 -0.4497 -0.3283  0.4704
   22MOL0     C 2783   2.413   3.066   1.598  0.5072  0.1183  0.5020
   22MOL0     C 2784   2.437   2.916   1.595 -0.0932 -0.6073  0.0557
   22MOL0     C 2785   2.408   2.870   1.736  0.0676  0.9977 -0.0322
   22MOL0     C 2786   2.384   2.718   1.737 -0.2344  0.7707 -0.4714
   22MOL0     C 2787   2.513   2.629   1.748  0.9113  1.6222 -0.0344
   22MOL0     C 2788   2.578   2.582   1.613  0.7960 -0.6120  0.2444
   22MOL0     N 2789   2.497   2.475   1.546 -0.2039 -0.1903 -0.0425
   22MOL0     C 2790   2.491   2.341   1.579 -0.0863 -0.6392 -0.4720
   22MOL0     C 2791   2.409   2.293   1.481 -0.2405  1.0283 -0.6219
   22MOL0     C 2792   2.397   2.136   1.462 -0.7319  0.2023 -0.5783
   22MOL0     C 2793   2.522   2.078   1.389 -0.7116 -0.5172  0.2540
   22MOL0     C 2794   2.548   2.122   1.242  0.4318 -0.1211 -0.4149
   22MOL0     C 2795   2.423   2.121   1.153 -0.3258  0.2773 -0.3471
   22MOL0     O 2796   2.448   2.174   1.024  0.6794 -0.3435 -0.3344
   22MOL0     C 2797   2.341   2.182   0.938  1.1846  0.0542 -0.0089
   22MOL0     C 2798   2.308   2.304   0.881  0.1085  0.2288  0.3030
   22MOL0     C 2799   2.197   2.317   0.803 -0.0225  0.8943 -0.0892
   22MOL0     C 2800   2.116   2.199   0.776  0.6170 -0.3391 -0.0957
   22MOL0     C 2801   2.007   2.208   0.674  0.0959 -0.4604 -0.2058
   22MOL0     O 2802   2.014   2.316   0.588 -0.3531 -0.3346 -1.3910
   22MOL0     C 2803   1.921   2.336   0.490  0.2518 -0.3065 -0.3868
   22MOL0     C 2804   1.871   2.462   0.460 -0.8039 -1.0308  0.0137
   22MOL0     C 2805   1.773   2.470   0.358  0.2555 -0.1810 -0.4143
   22MOL0     C 2806   1.732   2.367   0.286  1.0846  0.3904  0.7897
   22MOL0     O 2807   1.635   2.377   0.197  0.7788  0.5376  0.9585
   22MOL0     C 2808   1.643   2.485   0.098  0.1228  0.9670  0.1260
   22MOL0     C 2809   1.630   2.440  -0.043 -0.8804  0.4875  0.0693
   22MOL0     C 2810   1.482   2.434  -0.082 -0.8891 -0.0507 -0.2487
   22MOL0     C 2811   1.456   2.402  -0.234  0.2141 -0.6361  0.1720
   22MOL0     C 2812   1.508   2.505  -0.336 -0.8971 -0.3483 -0.1144
   22MOL0     C 2813   1.468   2.484  -0.484  0.4093 -0.4086 -0.5452
   22MOL0     C 2814   1.473   2.341  -0.535  0.5846  0.9492 -0.0683
   22MOL0     C 2815   1.505   2.324  -0.691 -0.1156 -0.3263 -0.1977
   22MOL0    Cl 2816   1.677   2.363  -0.723 -0.8134  0.1957  0.5234
   22MOL0     C 2817   1.778   2.242   0.323  0.7097 -0.9289 -0.2945
   22MOL0     C 2818   1.885   2.228   0.417 -0.6515 -0.5023 -0.6618
   22MOL0     O 2819   1.920   2.126   0.687  0.4795 -0.6310  0.3307
   22MOL0     C 2820   2.156   2.077   0.826  0.5432 -0.7721 -0.3191
   22MOL0     C 2821   2.273   2.066   0.902 -0.5964 -0.0219  0.7640
   22MOL0     N 2822   2.358   2.392   1.403  0.0316  0.8829 -0.3568
   22MOL0     N 2823   2.417   2.495   1.436 -0.6366  0.0693  0.1648
   22MOL0     C 2824   2.118   3.120   1.151  0.2184  0.8992  0.0255
   22MOL0     C 2825   2.050   3.148   1.026  0.2900 -0.7484 -1.4049
   22MOL0     C 2826   1.902   3.287   0.648 -1.2027 -0.9611  0.6398
   22MOL0     C 2827   1.841   3.411   0.652  0.0535 -1.1861 -0.1870
   22MOL0     C 2828   1.759   3.457   0.549 -0.8243  0.2591  0.6648
   22MOL0     C 2829   1.748   3.379   0.432 -0.1856  0.1395  0.4004
   22MOL0     O 2830   1.650   3.420   0.338 -0.6895 -0.4555 -0.5147
   22MOL0     C 2831   1.691   3.390   0.201  0.7119  0.4410 -0.4518
   22MOL0     C 2832   1.628   3.491   0.105  0.0288  0.3382 -0.7709
   22MOL0     C 2833   1.681   3.499  -0.039  1.1175 -0.8034  0.3485
   22MOL0     C 2834   1.581   3.560  -0.131 -1.2699 -0.4843  0.4514
   22MOL0     C 2835   1.635   3.618  -0.244 -0.2433  0.1782 -0.1730
   22MOL0     C 2836   1.657   3.656  -0.356  0.4781 -0.4647  0.0015
   22MOL0     C 2837   1.821   3.259   0.420 -0.1854 -0.9787  0.0674
   22MOL0     C 2838   1.898   3.219   0.523  0.5251 -0.2488  0.3106
   22MOL0     H 2839   2.114   3.478   1.020 -1.2282  0.8413  1.3526
   22MOL0     H 2840   2.227   3.435   1.244  3.9109 -2.2488 -0.7148
   22MOL0     H 2841   2.258   2.990   1.375 -2.3771 -1.0412  0.7029
   22MOL0     H 2842   2.114   3.039   1.432  0.1210 -3.3875 -0.5096
   22MOL0     H 2843   2.200   3.034   1.637 -0.1845 -1.1381 -0.0535
   22MOL0     H 2844   2.245   3.204   1.593  2.4916  0.7818 -2.1589
   22MOL0     H 2845   2.453   3.107   1.691  0.0356 -0.9108  1.1867
   22MOL0     H 2846   2.473   3.113   1.520 -1.6319 -0.4760 -1.6590
   22MOL0     H 2847   2.371   2.864   1.526 -1.0066 -1.4584  1.5064
   22MOL0     H 2848   2.540   2.894   1.564 -1.0648 -0.4254 -3.6640
   22MOL0     H 2849   2.329   2.928   1.784 -0.4441 -0.5475  1.0641
   22MOL0     H 2850   2.495   2.889   1.799  0.5665  0.7502 -0.6299
   22MOL0     H 2851   2.319   2.688   1.654 -1.6699  1.4479  0.3691
   22MOL0     H 2852   2.328   2.695   1.828  1.0148 -1.6548 -0.2378
   22MOL0     H 2853   2.593   2.683   1.798  0.7805  2.2062 -0.4540
   22MOL0     H 2854   2.484   2.531   1.789 -2.1111  1.9662 -1.0962
   22MOL0     H 2855   2.676   2.538   1.635  0.1385 -3.1793 -1.5331
   22MOL0     H 2856   2.589   2.671   1.550  0.8371  0.1409  1.2822
   22MOL0     H 2857   2.541   2.296   1.664 -0.7284  0.9999  0.8264
   22MOL0     H 2858   2.305   2.120   1.406 -0.0458 -2.8265 -1.0022
   22MOL0     H 2859   2.392   2.083   1.557  2.0396 -1.6592 -1.3328
   22MOL0     H 2860   2.510   1.970   1.394  3.4287 -1.2977 -2.2097
   22MOL0     H 2861   2.611   2.110   1.444 -3.3169  3.5833  2.6334
   22MOL0     H 2862   2.577   2.228   1.235 -1.8780  0.6425  0.4841
   22MOL0     H 2863   2.620   2.061   1.188  2.2634  2.5119 -1.1593
   22MOL0     H 2864   2.339   2.175   1.199 -0.8830  0.5654 -1.6522
   22MOL0     H 2865   2.391   2.017   1.144 -1.8992  0.6943  0.0364
   22MOL0     H 2866   2.375   2.388   0.897 -0.8839  0.7773  1.8621
   22MOL0     H 2867   2.189   2.414   0.756  1.6628  0.0905 -2.1476
   22MOL0     H 2868   1.899   2.546   0.522  3.7256  0.2557 -3.2726
   22MOL0     H 2869   1.724   2.563   0.330 -3.2013 -1.3322  1.2582
   22MOL0     H 2870   1.730   2.549   0.109  0.2133  0.8300  0.2082
   22MOL0     H 2871   1.562   2.557   0.114 -0.5888  0.2526 -0.1376
   22MOL0     H 2872   1.677   2.342  -0.059 -1.6435  0.4354 -2.3152
   22MOL0     H 2873   1.679   2.510  -0.111  1.8360 -2.7741 -1.6919
   22MOL0     H 2874   1.438   2.534  -0.067 -0.0224  0.4492 -0.9688
   22MOL0     H 2875   1.427   2.360  -0.024  0.2224  0.5056  1.5875
   22MOL0     H 2876   1.504   2.306  -0.261  1.2812  0.5770 -2.7043
   22MOL0     H 2877   1.349   2.413  -0.250  0.5194  3.0604 -0.1451
   22MOL0     H 2878   1.617   2.511  -0.333 -0.9273  1.6181 -1.0168
   22MOL0     H 2879   1.473   2.604  -0.306  0.8369  0.0869  0.6192
   22MOL0     H 2880   1.537   2.540  -0.547  1.6226 -0.3299  0.8111
   22MOL0     H 2881   1.369   2.529  -0.494 -1.0084 -2.8014  1.3528
   22MOL0     H 2882   1.554   2.281  -0.492  0.4224  1.2216  0.6340
   22MOL0     H 2883   1.376   2.298  -0.510  1.2552  0.2470  1.4587
   22MOL0     H 2884   1.435   2.391  -0.742  1.1873  1.1526 -0.1360
   22MOL0     H 2885   1.489   2.222  -0.727  2.1998 -0.1849 -1.8312
   22MOL0     H 2886   1.748   2.156   0.264 -0.3079 -1.3865  0.8542
   22MOL0     H 2887   1.940   2.134   0.422 -1.1689 -0.7433  1.8991
   22MOL0     H 2888   2.100   1.987   0.802  0.3595 -0.9676  0.8105
   22MOL0     H 2889   2.293   1.972   0.951  3.2214  1.0134  1.4867
   22MOL0     H 2890   2.118   3.013   1.169 -1.3782  0.5269 -1.8576
   22MOL0     H 2891   2.000   3.067   0.975 -1.0469 -0.5380 -0.4731
   22MOL0     H 2892   1.856   3.463   0.746  2.1020 -2.5265  0.2953
   22MOL0     H 2893   1.690   3.540   0.559  1.3692  2.1788  0.5577
   22MOL0     H 2894   1.670   3.286   0.176 -0.0236  0.9483 -2.0605
   22MOL0     H 2895   1.800   3.403   0.198  1.1821 -1.7445  2.5362
   22MOL0     H 2896   1.523   3.461   0.107  0.6362 -2.2548 -2.9041
   22MOL0     H 2897   1.638   3.593   0.143  0.5765 -0.2587  0.7709
   22MOL0     H 2898   1.714   3.397  -0.062  3.4802  0.2386 -1.3013
   22MOL0     H 2899   1.766   3.567  -0.032 -1.7199  2.9111  2.9121
   22MOL0     H 2900   1.495   3.498  -0.154 -1.9817  1.0806 -1.3913
   22MOL0     H 2901   1.545   3.648  -0.078  2.7869  3.3892 -2.3703
   22MOL0     H 2902   1.673   3.695  -0.455 -1.5885  0.9183  0.1522
   22MOL0     H 2903   1.808   3.190   0.336  0.1197  1.1675 -1.8373
   22MOL0     H 2904   1.964   3.137   0.497 -0.2863 -0.5985 -0.7243
   23MOL0     O 2905   7.619   7.083  10.106  0.3206  0.1771 -0.4787
   23MOL0     C 2906   7.636   7.207  10.120 -0.2575 -0.5105 -0.1543
   23MOL0     O 2907   7.552   7.300  10.069  0.3494  0.7139  0.2151
   23MOL0     C 2908   7.462   7.256   9.978  0.2853 -0.3672 -0.7657
   23MOL0     C 2909   7.342   7.206  10.006  0.7857  1.2122 -0.1522
   23MOL0     C 2910   7.243   7.183   9.904 -0.5771  0.8790 -0.0979
   23MOL0     C 2911   7.275   7.220   9.773 -0.1970  0.7856 -0.1954
   23MOL0     O 2912   7.175   7.198   9.678  0.2813 -0.4809  0.0451
   23MOL0     C 2913   7.149   7.304   9.583 -0.4186 -0.5639 -0.2396
   23MOL0     C 2914   7.018   7.255   9.525  0.0979 -1.1739 -0.1427
   23MOL0     C 2915   6.997   7.308   9.384  0.0209  0.4968  0.6194
   23MOL0     C 2916   7.028   7.204   9.287 -0.3710  0.7433 -0.4521
   23MOL0     C 2917   6.991   7.258   9.145 -0.8692 -0.7743  0.6653
   23MOL0     C 2918   7.028   7.159   9.033  0.7612 -0.4255  0.8406
   23MOL0     C 2919   6.921   7.049   9.017  0.3006 -0.2200 -0.5610
   23MOL0     C 2920   6.945   6.958   8.896  1.0988  0.8281  0.4140
   23MOL0     N 2921   6.810   6.917   8.837 -1.0971  0.1477 -0.1330
   23MOL0     C 2922   6.721   6.856   8.909  1.0828  0.4613  0.3737
   23MOL0     C 2923   6.652   6.775   8.829  0.8717  0.4996 -0.3403
   23MOL0     C 2924   6.551   6.665   8.853 -0.6588  0.1221  0.3093
   23MOL0     C 2925   6.490   6.661   8.993 -0.7952  0.7529  1.0883
   23MOL0     C 2926   6.395   6.787   9.028 -0.5511 -0.0287 -0.1677
   23MOL0     C 2927   6.336   6.754   9.166  1.2603  0.0299  0.0205
   23MOL0     O 2928   6.436   6.741   9.263 -0.2314 -0.0665  0.3325
   23MOL0     C 2929   6.431   6.638   9.342  0.0221 -0.1841  0.4149
   23MOL0     C 2930   6.464   6.511   9.303  0.9694  0.2493  1.2456
   23MOL0     C 2931   6.469   6.405   9.394  0.0082 -0.4579 -0.1513
   23MOL0     C 2932   6.458   6.430   9.528 -0.4764  0.0406 -0.0086
   23MOL0     C 2933   6.471   6.317   9.623  0.4397  0.0339 -0.3903
   23MOL0     O 2934   6.471   6.195   9.571  0.2107 -0.5540  0.0607
   23MOL0     C 2935   6.485   6.084   9.655 -0.1206 -0.1498 -0.2879
   23MOL0     C 2936   6.374   6.022   9.724 -0.4700 -0.0411 -0.3033
   23MOL0     C 2937   6.394   5.906   9.806  0.0708  0.4221  0.6306
   23MOL0     C 2938   6.517   5.838   9.816  0.8862 -0.2303  1.1868
   23MOL0     O 2939   6.546   5.719   9.877 -0.4049 -0.1701  0.0747
   23MOL0     C 2940   6.497   5.679  10.012  0.0484 -0.1814  0.1043
   23MOL0     C 2941   6.612   5.666  10.109 -0.0953  0.9987 -0.2788
   23MOL0     C 2942   6.651   5.806  10.150 -0.1089  0.1142 -0.6207
   23MOL0     C 2943   6.784   5.800  10.220  0.3684 -0.2716  0.5640
   23MOL0     C 2944   6.780   5.686  10.324 -0.2627 -0.4390  0.3417
   23MOL0     C 2945   6.900   5.709  10.430 -0.1980  0.3004 -0.2613
   23MOL0     C 2946   7.038   5.747  10.366  0.0854 -0.4546  0.1278
   23MOL0     C 2947   7.162   5.699  10.446 -0.7937 -0.1454 -0.0355
   23MOL0    Cl 2948   7.304   5.736  10.352 -0.5077  0.2938 -0.1519
   23MOL0     C 2949   6.623   5.902   9.741  0.5902  1.3889 -0.9873
   23MOL0     C 2950   6.610   6.015   9.659  0.5649  0.2789 -0.2896
   23MOL0     O 2951   6.484   6.338   9.746  0.2030  0.5088 -0.1527
   23MOL0     C 2952   6.445   6.563   9.571  0.2342 -0.4080 -0.2280
   23MOL0     C 2953   6.414   6.663   9.474  0.3487  0.1683 -0.9257
   23MOL0     N 2954   6.712   6.790   8.707  0.9474  0.2535 -0.4602
   23MOL0     N 2955   6.799   6.877   8.707 -0.3841  0.5337  0.5269
   23MOL0     C 2956   7.407   7.268   9.739 -0.8775 -0.1297  0.3159
   23MOL0     C 2957   7.502   7.282   9.843  0.4278  1.2053 -0.2923
   23MOL0     C 2958   7.748   7.263  10.193 -0.3289 -0.2439 -0.8720
   23MOL0     C 2959   7.751   7.407  10.227  0.0848  0.3210  1.1855
   23MOL0     C 2960   7.862   7.454  10.291  0.2014  0.0618 -0.4638
   23MOL0     C 2961   7.966   7.374  10.336  0.8162  0.0930 -0.2066
   23MOL0     O 2962   8.072   7.439  10.393 -0.4823  0.3269 -0.5334
   23MOL0     C 2963   8.205   7.382  10.401  0.1060 -0.1018 -1.0141
   23MOL0     C 2964   8.206   7.302  10.534 -0.2757 -0.2273 -1.5349
   23MOL0     C 2965   8.343   7.316  10.614  0.8191  0.2871  0.4977
   23MOL0     C 2966   8.466   7.244  10.572 -0.3823 -1.7894 -0.5136
   23MOL0     C 2967   8.505   7.291  10.441 -0.1790  0.3348 -0.5279
   23MOL0     C 2968   8.546   7.351  10.340  0.5809 -0.8601 -0.0346
   23MOL0     C 2969   7.964   7.232  10.319 -0.1275 -1.0083 -0.2287
   23MOL0     C 2970   7.848   7.178  10.253  0.4111  0.1604  0.5031
   23MOL0     H 2971   7.310   7.170  10.103 -0.5226 -0.1530 -1.0517
   23MOL0     H 2972   7.149   7.138   9.934 -0.9268 -1.0803 -3.5789
   23MOL0     H 2973   7.239   7.308   9.521  0.9844 -0.0242  1.7335
   23MOL0     H 2974   7.140   7.395   9.642 -0.5092 -1.8002  1.7697
   23MOL0     H 2975   6.947   7.293   9.599  2.3679  2.2139  0.5532
   23MOL0     H 2976   7.018   7.146   9.521 -2.9415 -1.3458  1.3909
   23MOL0     H 2977   7.060   7.391   9.352 -0.7893 -0.4696 -4.2417
   23MOL0     H 2978   6.894   7.345   9.378  0.2794  0.9465 -2.0494
   23MOL0     H 2979   7.135   7.185   9.287 -0.0534  2.3918 -0.2631
   23MOL0     H 2980   6.983   7.105   9.303  3.7614 -1.2641 -0.1140
   23MOL0     H 2981   7.051   7.349   9.130 -1.1077 -0.1110  3.1635
   23MOL0     H 2982   6.886   7.286   9.134 -0.0896  1.9675 -0.7308
   23MOL0     H 2983   7.123   7.111   9.058  0.7183 -1.7068 -1.2726
   23MOL0     H 2984   7.027   7.211   8.937 -3.9287 -0.3377  0.6782
   23MOL0     H 2985   6.922   6.975   9.098 -0.8110 -3.6708 -3.4096
   23MOL0     H 2986   6.820   7.090   9.009 -0.7180 -2.7606 -1.7480
   23MOL0     H 2987   7.008   6.872   8.922  1.6067  0.4111 -2.0137
   23MOL0     H 2988   6.995   7.011   8.815  0.9039 -1.7201 -1.4884
   23MOL0     H 2989   6.704   6.870   9.015  2.4457  0.6014  0.5965
   23MOL0     H 2990   6.595   6.570   8.822 -0.3706 -0.7793  3.1661
   23MOL0     H 2991   6.466   6.699   8.794 -0.2863  2.6889  1.1177
   23MOL0     H 2992   6.565   6.636   9.068 -0.8508 -1.0172  0.6132
   23MOL0     H 2993   6.430   6.569   9.001 -0.0965  0.2761  0.9339
   23MOL0     H 2994   6.460   6.875   9.034 -1.6395  0.7320  0.7937
   23MOL0     H 2995   6.315   6.805   8.956 -0.1149 -2.1265 -1.2670
   23MOL0     H 2996   6.279   6.662   9.152  2.0207 -0.6030  0.9452
   23MOL0     H 2997   6.269   6.836   9.194  0.9294 -0.5526  0.9929
   23MOL0     H 2998   6.468   6.483   9.198 -0.2233 -2.9388  1.9473
   23MOL0     H 2999   6.496   6.310   9.350  1.0151  0.7328 -2.2519
   23MOL0     H 3000   6.281   6.064   9.687 -1.3438 -0.6814  1.0884
   23MOL0     H 3001   6.319   5.845   9.856  0.4941 -0.2708  0.4416
   23MOL0     H 3002   6.457   5.578  10.022 -0.8886 -0.3182 -3.5571
   23MOL0     H 3003   6.428   5.755  10.050  0.3089 -0.7799  1.8604
   23MOL0     H 3004   6.695   5.619  10.056 -1.2490  1.2498 -2.4362
   23MOL0     H 3005   6.573   5.598  10.185  1.3556 -1.5599 -1.6761
   23MOL0     H 3006   6.581   5.843  10.225  2.0987 -0.5660  1.9207
   23MOL0     H 3007   6.670   5.876  10.068 -1.8791  0.1448 -1.0502
   23MOL0     H 3008   6.863   5.774  10.148  1.2635  2.7643  0.3278
   23MOL0     H 3009   6.812   5.898  10.260 -0.4640 -1.0790  3.3258
   23MOL0     H 3010   6.785   5.591  10.270  0.3985  0.3431 -1.0102
   23MOL0     H 3011   6.685   5.700  10.376 -0.1768  1.6972 -0.0132
   23MOL0     H 3012   6.910   5.611  10.478 -0.3960 -0.2050 -1.2196
   23MOL0     H 3013   6.872   5.778  10.510 -1.3249 -0.3964 -0.0387
   23MOL0     H 3014   7.042   5.703  10.266 -1.5869 -1.2539  0.3880
   23MOL0     H 3015   7.057   5.855  10.361  1.7278 -0.6868  0.7623
   23MOL0     H 3016   7.140   5.594  10.468  0.3532 -0.7272 -1.4808
   23MOL0     H 3017   7.171   5.752  10.541 -2.0469 -1.3866  0.8225
   23MOL0     H 3018   6.716   5.848   9.754 -0.5877 -0.6933 -0.6839
   23MOL0     H 3019   6.694   6.045   9.596  2.9496  1.2759  3.0680
   23MOL0     H 3020   6.443   6.600   9.674 -3.7658  0.4933 -0.4320
   23MOL0     H 3021   6.397   6.765   9.506 -3.0446 -0.7947  0.8193
   23MOL0     H 3022   7.437   7.298   9.639 -0.1493  1.2569  0.9134
   23MOL0     H 3023   7.592   7.337   9.818 -0.4664  3.1035  0.4762
   23MOL0     H 3024   7.666   7.468  10.197  2.2123  1.2664 -4.0102
   23MOL0     H 3025   7.861   7.562  10.303 -2.7712 -0.0673  1.4605
   23MOL0     H 3026   8.275   7.464  10.384 -0.5368  0.6938  0.0158
   23MOL0     H 3027   8.227   7.297  10.336  1.3235 -1.6220  1.2475
   23MOL0     H 3028   8.135   7.350  10.602  1.3515  2.1638 -1.4007
   23MOL0     H 3029   8.189   7.195  10.516  1.2577 -0.9564  0.8695
   23MOL0     H 3030   8.321   7.260  10.705 -1.2501 -0.4043 -0.3554
   23MOL0     H 3031   8.369   7.422  10.623 -3.4019  1.4925  0.7888
   23MOL0     H 3032   8.545   7.259  10.646 -1.3653 -1.4580  0.5052
   23MOL0     H 3033   8.444   7.136  10.570  2.0184 -2.3799  0.7562
   23MOL0     H 3034   8.580   7.410  10.258  2.7862  0.0344  1.4366
   23MOL0     H 3035   8.045   7.173  10.360  0.0045  1.3928  3.3993
   23MOL0     H 3036   7.845   7.072  10.230  0.9513  0.6640 -2.2452
   24MOL0     O 3037   3.125   5.185   1.484 -0.1051  0.9045  0.3417
   24MOL0     C 3038   3.219   5.265   1.479 -0.2657 -0.9433 -0.5568
   24MOL0     O 3039   3.319   5.262   1.383  0.2600 -0.3907 -0.1629
   24MOL0     C 3040   3.312   5.178   1.280  0.4754 -0.1626  0.0136
   24MOL0     C 3041   3.312   5.242   1.162  0.9451 -0.3564  0.3824
   24MOL0     C 3042   3.325   5.169   1.045 -0.0267  0.6294 -0.2876
   24MOL0     C 3043   3.318   5.030   1.045  0.3678  0.2635  0.1918
   24MOL0     O 3044   3.331   4.973   0.925 -0.2538  0.1877 -0.2414
   24MOL0     C 3045   3.307   4.832   0.924  0.1434 -0.0592 -0.4444
   24MOL0     C 3046   3.305   4.763   0.792 -0.8121 -0.3634  0.0456
   24MOL0     C 3047   3.432   4.789   0.704 -0.0789  0.8613 -0.0310
   24MOL0     C 3048   3.398   4.726   0.565 -0.2676 -0.0745 -1.2486
   24MOL0     C 3049   3.503   4.759   0.461 -0.7718  0.6201 -0.6285
   24MOL0     C 3050   3.634   4.677   0.469  0.3564 -0.4147 -0.2848
   24MOL0     C 3051   3.719   4.705   0.350 -0.8622  1.0345  0.3456
   24MOL0     C 3052   3.831   4.592   0.354  0.0231 -0.5278 -0.8776
   24MOL0     N 3053   3.936   4.604   0.262  0.0122 -0.7073 -0.5726
   24MOL0     C 3054   3.963   4.713   0.170  0.1559 -0.3432 -0.0640
   24MOL0     C 3055   4.071   4.669   0.102 -0.3622 -0.3118  0.6229
   24MOL0     C 3056   4.168   4.760   0.022 -1.0553 -0.2188  0.3210
   24MOL0     C 3057   4.306   4.709   0.017  0.5518 -0.0536 -0.1209
   24MOL0     C 3058   4.394   4.784  -0.074 -0.0311 -0.5832  0.0057
   24MOL0     C 3059   4.509   4.694  -0.128 -1.2082 -0.0367 -0.7903
   24MOL0     O 3060   4.452   4.620  -0.234 -0.1597  0.0073  0.3623
   24MOL0     C 3061   4.541   4.540  -0.310 -0.1720  0.1802 -0.1665
   24MOL0     C 3062   4.678   4.526  -0.302  1.4052 -0.1569  0.0535
   24MOL0     C 3063   4.748   4.436  -0.377  0.1311  0.4243 -0.2518
   24MOL0     C 3064   4.683   4.356  -0.477 -0.3002  0.3479 -0.3980
   24MOL0     C 3065   4.752   4.264  -0.576  0.4987  0.0008  0.2641
   24MOL0     O 3066   4.686   4.199  -0.679 -0.7766 -0.2949 -0.2632
   24MOL0     C 3067   4.761   4.089  -0.732 -0.0305  0.0139  0.3606
   24MOL0     C 3068   4.898   4.088  -0.763 -0.6548 -0.5718 -0.1910
   24MOL0     C 3069   4.949   3.977  -0.833 -0.8387 -1.0294 -0.1158
   24MOL0     C 3070   4.873   3.865  -0.875  0.0592  0.0380 -0.6548
   24MOL0     O 3071   4.918   3.778  -0.967  0.1200  0.3145  0.2137
   24MOL0     C 3072   4.896   3.630  -0.965  1.1410 -0.8282  0.7049
   24MOL0     C 3073   5.028   3.572  -0.939  0.2419  0.0173 -0.3919
   24MOL0     C 3074   5.094   3.602  -0.797 -0.5765  0.4605 -0.0996
   24MOL0     C 3075   4.999   3.593  -0.680  0.0789 -0.3749 -0.0199
   24MOL0     C 3076   5.060   3.517  -0.557 -0.4750 -0.4604  0.9033
   24MOL0     C 3077   5.102   3.370  -0.582 -0.1981  0.1936  0.5798
   24MOL0     C 3078   5.176   3.303  -0.462 -0.6933 -0.6505 -0.7228
   24MOL0     C 3079   5.100   3.308  -0.331 -0.4745 -0.1059 -0.7363
   24MOL0    Cl 3080   4.936   3.248  -0.359  0.0949 -0.1413  0.2052
   24MOL0     C 3081   4.740   3.858  -0.833  0.5114 -0.6131  0.4089
   24MOL0     C 3082   4.686   3.970  -0.761  0.3747  0.4871 -0.1143
   24MOL0     O 3083   4.868   4.244  -0.540  0.0474  0.0631 -0.0033
   24MOL0     C 3084   4.546   4.367  -0.486  0.7145 -0.1139 -0.5057
   24MOL0     C 3085   4.475   4.447  -0.394  0.0290  0.0458 -0.5239
   24MOL0     N 3086   4.099   4.538   0.143 -0.1928 -0.0256  0.7554
   24MOL0     N 3087   4.031   4.509   0.242  0.1781  0.5537 -0.0817
   24MOL0     C 3088   3.318   4.967   1.169  0.1275 -0.2139 -0.3972
   24MOL0     C 3089   3.317   5.036   1.287 -0.4486 -0.5103 -0.5630
   24MOL0     C 3090   3.218   5.381   1.565  0.9619 -0.2790  0.0123
   24MOL0     C 3091   3.136   5.406   1.676 -1.1030  0.2770  0.1716
   24MOL0     C 3092   3.133   5.523   1.751 -0.0380 -0.5743  0.0660
   24MOL0     C 3093   3.221   5.619   1.728 -0.7859 -0.2922 -0.5075
   24MOL0     O 3094   3.236   5.735   1.805 -0.2437 -0.1163 -0.9139
   24MOL0     C 3095   3.136   5.830   1.770 -0.3192 -0.3529  1.0803
   24MOL0     C 3096   3.158   5.974   1.836 -0.6272  0.0221  0.0384
   24MOL0     C 3097   3.049   6.066   1.789 -0.4239 -0.2331  0.5425
   24MOL0     C 3098   3.065   6.200   1.861 -0.6498  0.4239 -0.0401
   24MOL0     C 3099   2.972   6.296   1.794 -0.3874 -0.4009 -0.3330
   24MOL0     C 3100   2.891   6.378   1.754 -0.8735  0.1080  0.0194
   24MOL0     C 3101   3.312   5.602   1.624  0.4744 -0.1163  0.6627
   24MOL0     C 3102   3.307   5.484   1.543  0.1485  0.2070  0.5657
   24MOL0     H 3103   3.308   5.351   1.163 -1.4908 -0.3857  2.3528
   24MOL0     H 3104   3.346   5.220   0.952 -0.6924  2.1156  0.3437
   24MOL0     H 3105   3.208   4.807   0.964  0.0339 -0.5905 -1.0483
   24MOL0     H 3106   3.393   4.788   0.976 -1.1047 -1.7334  0.2881
   24MOL0     H 3107   3.213   4.789   0.739 -0.1164 -2.6570 -2.5615
   24MOL0     H 3108   3.305   4.655   0.813  1.9035 -0.2980  0.7928
   24MOL0     H 3109   3.522   4.759   0.758  1.3050  0.4744 -2.4284
   24MOL0     H 3110   3.441   4.894   0.674 -3.1769  0.5962 -2.4572
   24MOL0     H 3111   3.369   4.623   0.585 -0.4858  0.0794 -0.7556
   24MOL0     H 3112   3.308   4.773   0.526 -2.9642 -3.7681 -0.0301
   24MOL0     H 3113   3.535   4.861   0.483  2.6162 -0.6378  0.8428
   24MOL0     H 3114   3.445   4.757   0.368 -2.7480  1.0876  0.5304
   24MOL0     H 3115   3.600   4.574   0.482  3.3043 -1.7396 -2.1444
   24MOL0     H 3116   3.698   4.706   0.552  2.2149 -2.2234 -1.0099
   24MOL0     H 3117   3.667   4.701   0.253  0.6212  0.5863 -0.4570
   24MOL0     H 3118   3.761   4.805   0.365 -0.9428  1.0404  0.5388
   24MOL0     H 3119   3.787   4.493   0.341  0.8967 -0.9223 -0.8189
   24MOL0     H 3120   3.871   4.589   0.456  2.1447  0.0345 -1.6558
   24MOL0     H 3121   3.908   4.806   0.164 -0.1692 -0.6357 -3.8165
   24MOL0     H 3122   4.168   4.861   0.064 -0.3953 -0.9454  2.1706
   24MOL0     H 3123   4.132   4.753  -0.081 -0.9745 -0.8298  0.3319
   24MOL0     H 3124   4.309   4.600   0.007  2.5134 -0.0478  0.0275
   24MOL0     H 3125   4.341   4.728   0.119 -0.3311  0.4556  0.0972
   24MOL0     H 3126   4.346   4.826  -0.163  1.4701 -0.3004 -0.7115
   24MOL0     H 3127   4.438   4.873  -0.027 -0.1426 -0.2046 -0.5934
   24MOL0     H 3128   4.539   4.619  -0.054  0.0354 -1.4247 -2.6182
   24MOL0     H 3129   4.589   4.758  -0.166 -0.7804 -1.5058 -2.5311
   24MOL0     H 3130   4.738   4.583  -0.232 -1.6378  1.2141  1.7490
   24MOL0     H 3131   4.856   4.436  -0.380  0.1186  0.4841 -1.9546
   24MOL0     H 3132   4.962   4.173  -0.741 -1.5746  1.0932 -3.2724
   24MOL0     H 3133   5.052   3.989  -0.865 -0.4306  0.3152  1.5694
   24MOL0     H 3134   4.857   3.605  -1.064  3.3748  2.6192 -1.2492
   24MOL0     H 3135   4.823   3.608  -0.887 -1.1254 -0.2790 -1.1580
   24MOL0     H 3136   5.101   3.593  -1.018 -0.0159  1.7262 -0.2166
   24MOL0     H 3137   5.017   3.464  -0.952  2.3744 -0.2731 -0.0853
   24MOL0     H 3138   5.128   3.707  -0.802 -0.9938  0.6351  0.7218
   24MOL0     H 3139   5.179   3.539  -0.770 -0.7181  0.9739  1.6427
   24MOL0     H 3140   4.967   3.693  -0.649 -0.8092 -0.7479  0.3061
   24MOL0     H 3141   4.911   3.539  -0.716 -2.2393  3.4396 -0.5834
   24MOL0     H 3142   4.998   3.529  -0.468  2.4621 -1.1333  3.1652
   24MOL0     H 3143   5.145   3.578  -0.525 -0.3814 -1.4504  2.6769
   24MOL0     H 3144   5.157   3.371  -0.677  0.6008 -0.9694  1.0047
   24MOL0     H 3145   5.009   3.313  -0.593 -1.7016  2.5949  0.0096
   24MOL0     H 3146   5.184   3.196  -0.481 -4.1228 -1.6284  2.0794
   24MOL0     H 3147   5.274   3.351  -0.464 -0.6627 -0.5641  1.2566
   24MOL0     H 3148   5.088   3.406  -0.284 -0.6460 -0.6736  0.4469
   24MOL0     H 3149   5.146   3.251  -0.249 -0.4379  0.3244 -0.4564
   24MOL0     H 3150   4.688   3.770  -0.870  2.2554 -1.1275 -0.9255
   24MOL0     H 3151   4.595   3.965  -0.703  0.3727  4.4427  0.5007
   24MOL0     H 3152   4.495   4.326  -0.573  3.1915 -0.5554 -1.8736
   24MOL0     H 3153   4.368   4.462  -0.389  0.1912  1.9155  5.5090
   24MOL0     H 3154   3.325   4.861   1.189  2.1676  0.0255  0.3440
   24MOL0     H 3155   3.317   4.996   1.388 -0.4000  0.0191 -0.3520
   24MOL0     H 3156   3.066   5.331   1.710 -1.9725  1.4218  0.9689
   24MOL0     H 3157   3.054   5.532   1.825 -0.6496 -3.6245 -0.0776
   24MOL0     H 3158   3.036   5.793   1.793  0.6929 -4.4766 -0.2807
   24MOL0     H 3159   3.141   5.855   1.663  0.1223 -2.6734  0.5002
   24MOL0     H 3160   3.151   5.959   1.944 -2.7245 -2.3295 -0.3308
   24MOL0     H 3161   3.255   6.014   1.804 -1.8321  4.3700  1.2369
   24MOL0     H 3162   2.947   6.027   1.792 -0.5392 -0.0095 -0.2762
   24MOL0     H 3163   3.069   6.085   1.684 -1.3664  1.4375  0.6196
   24MOL0     H 3164   3.051   6.188   1.969 -0.5461  0.0864 -0.0631
   24MOL0     H 3165   3.165   6.242   1.847 -0.2675 -0.3980  0.1470
   24MOL0     H 3166   2.829   6.452   1.708 -1.9689 -1.0432 -0.3962
   24MOL0     H 3167   3.389   5.675   1.602 -0.2580  0.2573 -0.8505
   24MOL0     H 3168   3.386   5.491   1.469  1.8613  1.1148  2.3988
   25MOL0     O 3169   9.810   3.355  10.704 -0.4866  0.1640 -0.7477
   25MOL0     C 3170   9.714   3.280  10.710 -0.0362  0.7266  0.1749
   25MOL0     O 3171   9.691   3.198  10.815 -0.2626 -0.1680  0.0594
   25MOL0     C 3172   9.576   3.127  10.821  0.2847  1.6811 -1.0642
   25MOL0     C 3173   9.593   2.987  10.829  0.0634  0.4598  0.0905
   25MOL0     C 3174   9.483   2.904  10.833  0.4418  0.0954  1.2233
   25MOL0     C 3175   9.357   2.953  10.820 -0.7014  0.2310 -0.0825
   25MOL0     O 3176   9.261   2.848  10.817 -0.9214 -0.4089  0.4924
   25MOL0     C 3177   9.135   2.893  10.775  1.1751 -0.3415 -0.4079
   25MOL0     C 3178   9.058   2.773  10.726 -0.7770  0.4121  0.1484
   25MOL0     C 3179   8.917   2.791  10.677  0.3673 -0.1327 -0.8505
   25MOL0     C 3180   8.866   2.657  10.633  0.2155  0.3920 -0.2991
   25MOL0     C 3181   8.934   2.578  10.508 -0.0251 -1.2719  0.0004
   25MOL0     C 3182   8.923   2.644  10.378  0.2308  0.0571  0.1126
   25MOL0     C 3183   8.822   2.577  10.289  0.1903  0.3871  0.5997
   25MOL0     C 3184   8.669   2.599  10.303  0.4217 -0.0739 -0.5288
   25MOL0     N 3185   8.591   2.477  10.326  0.1687 -0.3974  0.1499
   25MOL0     C 3186   8.592   2.363  10.241 -0.5227 -0.4202  0.1690
   25MOL0     C 3187   8.511   2.276  10.300  0.0504 -0.6111  1.0782
   25MOL0     C 3188   8.458   2.154  10.232  0.8994  0.7102  0.7396
   25MOL0     C 3189   8.439   2.044  10.341 -0.3268 -0.1652  0.3041
   25MOL0     C 3190   8.393   1.907  10.282  0.4173 -0.1117 -0.4397
   25MOL0     C 3191   8.413   1.791  10.396 -0.3547  0.1009  0.5219
   25MOL0     O 3192   8.324   1.813  10.509  0.0408 -0.0694 -0.1010
   25MOL0     C 3193   8.349   1.764  10.635  1.0029  0.4351 -0.0204
   25MOL0     C 3194   8.460   1.684  10.676 -0.6782  0.1261  0.1252
   25MOL0     C 3195   8.471   1.641  10.814  0.0908  0.7518  0.4448
   25MOL0     C 3196   8.379   1.689  10.916 -1.2322  0.3380 -0.6061
   25MOL0     C 3197   8.389   1.649  11.058  0.5978 -0.4567  0.1567
   25MOL0     O 3198   8.508   1.607  11.089  0.1015  0.4163 -0.2133
   25MOL0     C 3199   8.528   1.550  11.211  0.2078  0.5243 -1.2363
   25MOL0     C 3200   8.444   1.459  11.280 -1.0427 -0.8460 -0.5943
   25MOL0     C 3201   8.485   1.384  11.400  0.3989 -0.2545 -0.4943
   25MOL0     C 3202   8.610   1.417  11.455  0.2509 -0.2478 -0.5153
   25MOL0     O 3203   8.619   1.358  11.577 -0.2930  0.2397  0.7664
   25MOL0     C 3204   8.733   1.378  11.667  0.3003 -0.5214 -0.1628
   25MOL0     C 3205   8.707   1.513  11.742  0.2340  0.6323  0.2470
   25MOL0     C 3206   8.596   1.485  11.844  0.4272  0.3906 -0.2419
   25MOL0     C 3207   8.560   1.618  11.907  0.2097 -0.7440 -0.5117
   25MOL0     C 3208   8.659   1.699  11.984  1.1565  0.3240  0.3021
   25MOL0     C 3209   8.703   1.652  12.126  1.8745  0.8236  0.8586
   25MOL0     C 3210   8.845   1.709  12.158  0.2646 -0.9987 -0.2092
   25MOL0     C 3211   8.910   1.652  12.277  0.0672 -0.8947  0.2796
   25MOL0    Cl 3212   8.940   1.771  12.407 -0.0558 -0.8000 -0.1392
   25MOL0     C 3213   8.699   1.501  11.377  1.2715 -0.3163  0.1278
   25MOL0     C 3214   8.659   1.563  11.261 -0.9869 -1.0926 -0.0257
   25MOL0     O 3215   8.285   1.641  11.128 -0.3365  0.0029  0.4307
   25MOL0     C 3216   8.279   1.773  10.867  1.1730  0.7034  0.3453
   25MOL0     C 3217   8.251   1.809  10.730  0.2056  0.0066 -0.3402
   25MOL0     N 3218   8.456   2.329  10.406  0.7916  0.0036 -0.4650
   25MOL0     N 3219   8.516   2.443  10.438 -0.1852  0.5198  0.9839
   25MOL0     C 3220   9.327   3.091  10.823 -1.0023  0.1715 -0.5042
   25MOL0     C 3221   9.445   3.173  10.828 -0.0842 -0.1406 -0.3525
   25MOL0     C 3222   9.632   3.261  10.593 -0.3720  0.8769  0.3811
   25MOL0     C 3223   9.631   3.151  10.504  0.0547  0.0666  0.9172
   25MOL0     C 3224   9.537   3.151  10.405 -0.0359  0.1097  0.8895
   25MOL0     C 3225   9.444   3.249  10.377  0.2696  1.2442 -0.2630
   25MOL0     O 3226   9.360   3.232  10.266 -0.0891  0.5294 -0.3216
   25MOL0     C 3227   9.305   3.348  10.200 -0.0400 -0.0539  0.6268
   25MOL0     C 3228   9.274   3.305  10.053 -0.2040 -0.0486  0.2145
   25MOL0     C 3229   9.393   3.223   9.997 -0.0082 -1.1509 -0.2368
   25MOL0     C 3230   9.383   3.187   9.854  0.9095 -0.3217  0.4438
   25MOL0     C 3231   9.498   3.124   9.805 -0.6457  0.3441  1.5056
   25MOL0     C 3232   9.600   3.084   9.765 -0.7310  0.3276 -0.2102
   25MOL0     C 3233   9.452   3.356  10.458 -0.5785  0.5105  0.3371
   25MOL0     C 3234   9.542   3.358  10.567 -1.0719  0.3204  0.0539
   25MOL0     H 3235   9.696   2.956  10.822  0.1846  1.0452 -0.9490
   25MOL0     H 3236   9.498   2.797  10.834  1.0654  0.1562  3.1745
   25MOL0     H 3237   9.131   2.974  10.703 -2.1514  0.4017  0.4268
   25MOL0     H 3238   9.073   2.921  10.861  0.0488 -0.8539 -1.0239
   25MOL0     H 3239   9.036   2.708  10.811  0.9307  1.2760  1.3273
   25MOL0     H 3240   9.123   2.723  10.654 -1.1111 -1.0023  0.8040
   25MOL0     H 3241   8.912   2.868  10.599 -1.6366  0.2189 -0.4289
   25MOL0     H 3242   8.854   2.821  10.761  1.5356 -2.7400  1.0970
   25MOL0     H 3243   8.869   2.589  10.718 -1.9395  0.0355 -0.4623
   25MOL0     H 3244   8.761   2.672  10.609  0.3067  0.2630 -0.8053
   25MOL0     H 3245   8.881   2.482  10.512  1.4811 -2.1631 -0.4662
   25MOL0     H 3246   9.041   2.574  10.529 -0.0602  2.6746  1.7806
   25MOL0     H 3247   9.015   2.651  10.320  1.3361 -1.0731  1.6517
   25MOL0     H 3248   8.901   2.750  10.395  0.2807 -0.3026  2.7164
   25MOL0     H 3249   8.849   2.616  10.190  1.9259  3.0171  1.9809
   25MOL0     H 3250   8.835   2.472  10.261 -0.6643  0.6423 -0.8731
   25MOL0     H 3251   8.632   2.654  10.217 -0.5810  0.8007  0.4348
   25MOL0     H 3252   8.647   2.659  10.392  1.7588 -1.0857  0.5498
   25MOL0     H 3253   8.628   2.356  10.139 -0.2157  1.9941  0.0501
   25MOL0     H 3254   8.535   2.123  10.160  1.7009  2.3973  0.8153
   25MOL0     H 3255   8.370   2.168  10.168  1.0414 -2.6545 -0.4374
   25MOL0     H 3256   8.377   2.069  10.427  0.0935  0.4345  0.4432
   25MOL0     H 3257   8.539   2.018  10.376 -0.2876 -0.2155  0.1568
   25MOL0     H 3258   8.284   1.908  10.274  0.3936  0.1793 -0.1073
   25MOL0     H 3259   8.433   1.881  10.183 -0.3691 -3.0328 -0.0729
   25MOL0     H 3260   8.516   1.785  10.433 -0.2318  1.5034  0.4500
   25MOL0     H 3261   8.384   1.696  10.350  0.5444 -1.1574  2.4288
   25MOL0     H 3262   8.514   1.645  10.591 -1.5682 -1.5663  0.3013
   25MOL0     H 3263   8.562   1.586  10.836 -0.8567 -0.5023  1.3865
   25MOL0     H 3264   8.344   1.442  11.240 -0.3314 -0.1322 -2.8162
   25MOL0     H 3265   8.423   1.312  11.452 -0.5973 -1.5168 -3.2362
   25MOL0     H 3266   8.826   1.382  11.610 -0.1997 -4.4099 -1.5681
   25MOL0     H 3267   8.736   1.291  11.733  0.7908 -2.5010 -2.6507
   25MOL0     H 3268   8.676   1.581  11.661  0.0077 -0.4449 -0.5864
   25MOL0     H 3269   8.794   1.555  11.793 -0.0940 -0.7056  1.9721
   25MOL0     H 3270   8.635   1.414  11.918  2.8141 -0.9902 -2.6310
   25MOL0     H 3271   8.504   1.450  11.796  1.2986  0.5681 -2.1141
   25MOL0     H 3272   8.538   1.684  11.823 -0.3743 -0.9507 -0.5249
   25MOL0     H 3273   8.475   1.586  11.968  1.2848 -1.6680  0.5444
   25MOL0     H 3274   8.618   1.800  11.988 -0.0911 -0.0260 -2.0980
   25MOL0     H 3275   8.748   1.703  11.921 -0.1257 -0.1036 -1.6077
   25MOL0     H 3276   8.693   1.544  12.120  0.4489  0.9740  0.2682
   25MOL0     H 3277   8.639   1.672  12.213 -0.4525 -1.7638 -0.1286
   25MOL0     H 3278   8.909   1.696  12.070  0.1629  2.0815 -0.8536
   25MOL0     H 3279   8.838   1.818  12.167 -1.7507 -1.0046 -1.1307
   25MOL0     H 3280   9.000   1.597  12.251  0.6935  0.6056 -0.8752
   25MOL0     H 3281   8.847   1.573  12.319 -2.3778  0.8483  0.1305
   25MOL0     H 3282   8.807   1.510  11.388  1.1662  1.1132  0.1695
   25MOL0     H 3283   8.724   1.630  11.206 -3.5351  0.8223 -0.8924
   25MOL0     H 3284   8.204   1.814  10.933 -1.3393 -1.5821 -0.9306
   25MOL0     H 3285   8.172   1.876  10.697 -1.8515 -2.8572 -1.7302
   25MOL0     H 3286   9.231   3.138  10.840 -0.7840 -0.0256  1.5509
   25MOL0     H 3287   9.426   3.279  10.827 -0.1179 -0.1223 -2.0535
   25MOL0     H 3288   9.694   3.064  10.521 -0.4196  0.0360  2.6388
   25MOL0     H 3289   9.532   3.064  10.341 -0.2392 -0.2936  1.4396
   25MOL0     H 3290   9.385   3.421  10.209  2.7418 -3.0594  3.0146
   25MOL0     H 3291   9.222   3.393  10.256  0.7591  3.3517 -0.6747
   25MOL0     H 3292   9.174   3.261  10.057 -0.3840  0.2625 -0.7396
   25MOL0     H 3293   9.254   3.394   9.993  1.1280  0.8706  1.0869
   25MOL0     H 3294   9.406   3.128  10.049  2.0641 -1.9788 -2.0990
   25MOL0     H 3295   9.490   3.274  10.005 -0.0014 -1.0493 -0.8999
   25MOL0     H 3296   9.300   3.116   9.841  1.9212 -1.1216 -2.1603
   25MOL0     H 3297   9.372   3.271   9.785 -0.9936  0.6678  1.8442
   25MOL0     H 3298   9.691   3.039   9.731 -1.0055 -1.0042  0.7405
   25MOL0     H 3299   9.378   3.434  10.444 -1.5182 -0.7877 -2.8482
   25MOL0     H 3300   9.541   3.454  10.616 -1.6436  1.5390 -2.1961
   26MOL0     O 3301   0.756   7.365   0.435 -0.9077  0.3573 -0.0393
   26MOL0     C 3302   0.746   7.271   0.356  0.0141  0.3026  0.8655
   26MOL0     O 3303   0.807   7.271   0.226  0.2613  0.0552  0.1532
   26MOL0     C 3304   0.898   7.363   0.189  0.2166 -0.0679  0.9095
   26MOL0     C 3305   1.027   7.351   0.229 -0.2034  0.1092 -1.0797
   26MOL0     C 3306   1.127   7.433   0.195 -0.4816  0.3186  0.1764
   26MOL0     C 3307   1.100   7.536   0.098 -0.3169  0.6598 -0.5842
   26MOL0     O 3308   1.200   7.614   0.050 -0.2884  0.8679  0.3314
   26MOL0     C 3309   1.336   7.601   0.094  0.3939 -0.0772  0.2319
   26MOL0     C 3310   1.421   7.656  -0.026 -0.0488 -0.0723 -1.2283
   26MOL0     C 3311   1.547   7.716   0.022 -0.3709 -0.0207 -0.3000
   26MOL0     C 3312   1.656   7.605   0.059 -0.8602  0.3151  0.1736
   26MOL0     C 3313   1.795   7.664   0.088 -0.3832  0.9425  0.1509
   26MOL0     C 3314   1.807   7.767   0.203  0.4994  1.2416 -0.0763
   26MOL0     C 3315   1.943   7.837   0.211 -1.0228  0.7463 -0.2799
   26MOL0     C 3316   1.943   7.949   0.316  0.0446  0.3125 -0.1546
   26MOL0     N 3317   1.919   7.893   0.449  0.3107  0.1107  0.0083
   26MOL0     C 3318   1.996   7.799   0.505  0.2863 -0.3581  0.3035
   26MOL0     C 3319   1.939   7.778   0.623 -0.5215 -0.0669 -1.0161
   26MOL0     C 3320   1.990   7.680   0.720 -0.0928 -0.2638 -0.6339
   26MOL0     C 3321   1.981   7.533   0.666  0.5361  0.3541 -0.2014
   26MOL0     C 3322   2.086   7.447   0.735 -0.5938  0.7529 -0.0945
   26MOL0     C 3323   2.060   7.295   0.746  0.0948 -0.5578  0.3049
   26MOL0     O 3324   1.932   7.259   0.774  0.6482 -0.0262  0.0896
   26MOL0     C 3325   1.867   7.154   0.713  1.4854  0.5264 -0.1752
   26MOL0     C 3326   1.933   7.052   0.657 -1.7122  0.0455  0.1212
   26MOL0     C 3327   1.868   6.945   0.602  0.5454  0.8249  1.1383
   26MOL0     C 3328   1.733   6.945   0.580 -0.2498 -0.2212  0.1482
   26MOL0     C 3329   1.673   6.825   0.521  0.7631  0.6636  1.1658
   26MOL0     O 3330   1.763   6.740   0.449  0.1707 -0.2934 -0.6953
   26MOL0     C 3331   1.718   6.645   0.362 -0.2355  0.1747 -0.2364
   26MOL0     C 3332   1.614   6.667   0.270  0.3123  0.6490 -0.4726
   26MOL0     C 3333   1.558   6.560   0.183  0.1189 -0.0518  0.0710
   26MOL0     C 3334   1.608   6.429   0.206  0.2271 -0.2831  0.3500
   26MOL0     O 3335   1.557   6.304   0.168 -0.5121  0.0094 -0.0599
   26MOL0     C 3336   1.482   6.313   0.048  0.4377  0.5512 -0.1063
   26MOL0     C 3337   1.473   6.175  -0.011  0.0079 -0.4830  0.3511
   26MOL0     C 3338   1.345   6.170  -0.105  0.4515 -0.5821 -0.6928
   26MOL0     C 3339   1.364   6.031  -0.170  0.3926  0.5101 -0.1241
   26MOL0     C 3340   1.268   6.016  -0.291  0.5693 -0.9784  0.5030
   26MOL0     C 3341   1.329   5.931  -0.398 -0.9056  0.3208  0.2313
   26MOL0     C 3342   1.222   5.916  -0.507  0.2271 -0.7334 -0.2939
   26MOL0     C 3343   1.244   5.802  -0.605 -0.2643 -0.7380 -0.3809
   26MOL0    Cl 3344   1.086   5.741  -0.658  0.5834  0.3532  0.2018
   26MOL0     C 3345   1.720   6.410   0.292 -0.0467 -0.3503  0.5793
   26MOL0     C 3346   1.776   6.514   0.368  0.1234 -0.2890  1.2410
   26MOL0     O 3347   1.553   6.800   0.527  0.2513 -0.3402  0.3125
   26MOL0     C 3348   1.664   7.046   0.650  0.2585 -0.7808 -0.0588
   26MOL0     C 3349   1.726   7.155   0.715  0.7695  0.5249  0.5111
   26MOL0     N 3350   1.826   7.859   0.635 -0.8889 -0.1806 -0.5025
   26MOL0     N 3351   1.815   7.928   0.524 -0.3531 -0.3011 -0.1892
   26MOL0     C 3352   0.969   7.558   0.064  0.3764 -0.2006  0.1141
   26MOL0     C 3353   0.867   7.466   0.103  0.9582 -0.1982  0.3173
   26MOL0     C 3354   0.637   7.181   0.381 -0.3366  0.3355  0.3470
   26MOL0     C 3355   0.596   7.164   0.515  1.1969  0.1209  0.5625
   26MOL0     C 3356   0.486   7.079   0.537 -0.4177  0.1017 -0.8366
   26MOL0     C 3357   0.423   7.011   0.430  0.1017 -0.7645  0.4823
   26MOL0     O 3358   0.316   6.926   0.458  0.2220 -0.8361  0.2112
   26MOL0     C 3359   0.208   6.914   0.359 -0.5168  1.0715  0.2964
   26MOL0     C 3360   0.144   7.059   0.341 -0.1025  0.1136 -0.7339
   26MOL0     C 3361   0.031   7.069   0.237 -0.4062 -0.4147 -0.3642
   26MOL0     C 3362  -0.015   7.218   0.231 -0.2083 -0.4509 -0.9862
   26MOL0     C 3363  -0.148   7.214   0.174  0.2624  0.1695 -0.1450
   26MOL0     C 3364  -0.260   7.189   0.128  0.0948 -0.2476  0.1166
   26MOL0     C 3365   0.460   7.036   0.293  0.4223 -0.2929 -0.7989
   26MOL0     C 3366   0.570   7.119   0.279 -0.1500  0.3665  0.3140
   26MOL0     H 3367   1.054   7.265   0.290  3.1034  0.7606 -1.4382
   26MOL0     H 3368   1.223   7.415   0.243  1.1271  1.9962 -2.1789
   26MOL0     H 3369   1.370   7.497   0.097 -0.5440 -0.3787  1.0729
   26MOL0     H 3370   1.352   7.653   0.189 -1.4328 -0.3455  0.7204
   26MOL0     H 3371   1.357   7.730  -0.074  0.3485  1.4588  0.4638
   26MOL0     H 3372   1.445   7.569  -0.087 -6.0900 -3.9512  1.0244
   26MOL0     H 3373   1.532   7.780   0.110 -1.8241 -0.8889  0.1224
   26MOL0     H 3374   1.587   7.775  -0.061  0.9196  1.4187  1.2561
   26MOL0     H 3375   1.629   7.548   0.148 -0.6007  2.1768  1.5155
   26MOL0     H 3376   1.668   7.527  -0.017 -3.0309 -2.3374  2.3690
   26MOL0     H 3377   1.852   7.708   0.006  2.5055 -0.2347  1.3840
   26MOL0     H 3378   1.851   7.570   0.099  0.2661  0.7964 -3.2830
   26MOL0     H 3379   1.779   7.721   0.299  1.6342 -2.1456 -1.2421
   26MOL0     H 3380   1.747   7.856   0.181  2.2912  2.2526 -1.1031
   26MOL0     H 3381   2.030   7.775   0.234  0.2626  3.2647  2.3122
   26MOL0     H 3382   1.957   7.874   0.110  1.0854 -2.7362 -1.4245
   26MOL0     H 3383   1.867   8.019   0.282  0.3072 -0.3566 -2.3013
   26MOL0     H 3384   2.037   8.002   0.299  0.3786  0.3707  1.7317
   26MOL0     H 3385   2.085   7.759   0.456  1.0610  1.6317 -0.0128
   26MOL0     H 3386   1.940   7.699   0.816 -2.3340 -1.1640 -1.5535
   26MOL0     H 3387   2.096   7.699   0.740 -0.1418 -1.2253  0.7274
   26MOL0     H 3388   2.010   7.541   0.561  1.7551  0.7777  0.1500
   26MOL0     H 3389   1.878   7.496   0.671  1.0470 -0.9769  2.0334
   26MOL0     H 3390   2.169   7.467   0.667 -1.5912  2.6626 -0.8475
   26MOL0     H 3391   2.090   7.487   0.836 -0.5506 -0.2006  0.2917
   26MOL0     H 3392   2.133   7.245   0.812  2.0824 -1.3394 -2.3227
   26MOL0     H 3393   2.079   7.261   0.644 -3.6328  0.1252 -0.7489
   26MOL0     H 3394   2.040   7.058   0.646 -1.8566  0.0403 -1.5338
   26MOL0     H 3395   1.920   6.863   0.554 -0.8150  0.1036  0.8251
   26MOL0     H 3396   1.570   6.766   0.265 -1.0794  0.1436  0.9725
   26MOL0     H 3397   1.470   6.577   0.123 -0.2528  0.6513  0.7938
   26MOL0     H 3398   1.521   6.378  -0.031  2.2906 -0.0477  0.2623
   26MOL0     H 3399   1.383   6.351   0.074  2.1677  5.1198  0.9097
   26MOL0     H 3400   1.473   6.096   0.064 -2.6487 -0.5754  0.3741
   26MOL0     H 3401   1.552   6.156  -0.084 -2.7315 -2.3991 -2.3859
   26MOL0     H 3402   1.345   6.248  -0.181  1.2134 -1.5389 -1.7062
   26MOL0     H 3403   1.248   6.186  -0.057  0.3379 -0.9819 -0.7810
   26MOL0     H 3404   1.469   6.021  -0.201  0.6772  3.0768 -0.2409
   26MOL0     H 3405   1.350   5.950  -0.099  0.7295  0.6904  0.1539
   26MOL0     H 3406   1.252   6.113  -0.338 -0.2346 -2.1911 -1.8958
   26MOL0     H 3407   1.174   5.978  -0.250  0.0154 -0.8447 -0.6031
   26MOL0     H 3408   1.351   5.834  -0.354 -1.9795  0.3318  0.8200
   26MOL0     H 3409   1.417   5.975  -0.445 -2.0889 -1.7113 -4.4901
   26MOL0     H 3410   1.130   5.900  -0.449  1.2624 -0.3606  1.5276
   26MOL0     H 3411   1.200   6.013  -0.551 -0.9969 -0.2691  1.2559
   26MOL0     H 3412   1.295   5.722  -0.551  1.2292  0.7538  0.5188
   26MOL0     H 3413   1.308   5.827  -0.689 -0.3430 -0.4048 -0.3449
   26MOL0     H 3414   1.770   6.314   0.302  4.6856  1.7770  0.0835
   26MOL0     H 3415   1.854   6.480   0.437  1.2463 -1.7942 -0.6631
   26MOL0     H 3416   1.557   7.032   0.655  0.5099 -3.3994 -0.4276
   26MOL0     H 3417   1.676   7.234   0.770 -2.3646 -0.8653 -0.1077
   26MOL0     H 3418   0.940   7.637  -0.005 -1.0492 -0.8154 -0.0161
   26MOL0     H 3419   0.767   7.496   0.073  1.1658  2.2547  1.8229
   26MOL0     H 3420   0.645   7.215   0.597 -1.3850  1.8601  1.1505
   26MOL0     H 3421   0.469   7.071   0.644 -3.5843  2.9670 -0.9443
   26MOL0     H 3422   0.126   6.848   0.388  1.6267 -2.3138 -0.8191
   26MOL0     H 3423   0.241   6.864   0.267  0.1277  0.3143  0.9360
   26MOL0     H 3424   0.101   7.088   0.437  0.4497  2.7640 -1.2123
   26MOL0     H 3425   0.221   7.132   0.315 -1.3245  0.4886 -3.7426
   26MOL0     H 3426  -0.060   7.011   0.256 -0.2295 -1.3266 -2.1416
   26MOL0     H 3427   0.070   7.035   0.141 -0.4456  0.6439 -0.7671
   26MOL0     H 3428  -0.029   7.265   0.330 -2.9643 -4.1946  0.6499
   26MOL0     H 3429   0.043   7.272   0.156  1.3800 -1.2186 -0.3568
   26MOL0     H 3430  -0.350   7.157   0.080  1.9723 -3.6409 -1.5301
   26MOL0     H 3431   0.418   6.976   0.212 -0.5280 -1.3524  0.4354
   26MOL0     H 3432   0.610   7.140   0.180  3.1530  3.4095  2.0812
   27MOL0     O 3433   7.006   1.620   6.672 -0.6260  0.1142  0.2536
   27MOL0     C 3434   7.068   1.688   6.593 -0.1841 -1.0656 -0.2296
   27MOL0     O 3435   7.109   1.653   6.468 -0.2030 -0.8401  0.2179
   27MOL0     C 3436   7.121   1.524   6.424 -0.8327  0.5152  0.5669
   27MOL0     C 3437   7.132   1.411   6.511 -0.1570  0.5118  0.2993
   27MOL0     C 3438   7.145   1.282   6.455  0.0068  1.0417  0.5507
   27MOL0     C 3439   7.150   1.264   6.313 -0.0057 -0.0579  0.3652
   27MOL0     O 3440   7.163   1.136   6.259 -0.0043  0.5224  0.1161
   27MOL0     C 3441   7.113   1.108   6.123 -0.7544 -0.0352  0.7512
   27MOL0     C 3442   7.065   0.964   6.094  0.6475  0.2724 -0.7011
   27MOL0     C 3443   7.088   0.907   5.956  0.6182  0.1891  0.4874
   27MOL0     C 3444   7.040   0.753   5.954 -0.5423  0.0974 -0.0644
   27MOL0     C 3445   7.042   0.683   5.822 -0.4413  0.8019  0.2270
   27MOL0     C 3446   6.995   0.540   5.843 -0.0453  0.2103  0.3332
   27MOL0     C 3447   7.041   0.451   5.733 -0.4656 -0.6599  0.2092
   27MOL0     C 3448   6.949   0.462   5.607 -0.2591 -1.1720 -0.4051
   27MOL0     N 3449   7.015   0.371   5.506 -0.0913 -0.1246 -0.8040
   27MOL0     C 3450   7.113   0.422   5.422 -0.1552  0.5036 -0.6420
   27MOL0     C 3451   7.124   0.331   5.326  0.3018  0.4552 -0.3275
   27MOL0     C 3452   7.225   0.347   5.207  1.4887  0.0108 -0.2896
   27MOL0     C 3453   7.158   0.359   5.066  0.0417  0.9765 -0.5233
   27MOL0     C 3454   7.264   0.359   4.946  1.0454  0.9568 -0.8120
   27MOL0     C 3455   7.183   0.397   4.819  0.3233 -0.0173 -0.0563
   27MOL0     O 3456   7.074   0.310   4.791 -0.7919 -0.3692  0.4808
   27MOL0     C 3457   7.076   0.256   4.665  0.1044 -0.7810  1.0859
   27MOL0     C 3458   6.947   0.237   4.606 -0.4179 -0.2766  0.5942
   27MOL0     C 3459   6.939   0.184   4.481  1.2613 -0.3818  0.5030
   27MOL0     C 3460   7.051   0.136   4.411 -0.3014  0.2801  1.2497
   27MOL0     C 3461   7.037   0.059   4.288 -0.0098 -0.0089  0.5043
   27MOL0     O 3462   6.908   0.013   4.270 -1.0969 -0.9700 -0.3335
   27MOL0     C 3463   6.877  -0.050   4.157  0.5280  0.5433 -0.0091
   27MOL0     C 3464   6.799  -0.170   4.168  0.4197  0.6841 -0.6690
   27MOL0     C 3465   6.750  -0.252   4.054 -0.7480 -0.2330 -0.5963
   27MOL0     C 3466   6.777  -0.196   3.924  1.1391 -0.6835 -0.7780
   27MOL0     O 3467   6.764  -0.264   3.806  0.3889 -0.3074 -0.3551
   27MOL0     C 3468   6.686  -0.391   3.794  0.3900 -0.3654 -0.3845
   27MOL0     C 3469   6.600  -0.368   3.662 -0.6527  0.1283 -0.0937
   27MOL0     C 3470   6.704  -0.376   3.542  0.6031 -0.1438 -0.9881
   27MOL0     C 3471   6.652  -0.319   3.413 -0.0032  0.1739 -0.6738
   27MOL0     C 3472   6.598  -0.175   3.415 -1.0006 -0.5072 -0.2933
   27MOL0     C 3473   6.718  -0.080   3.447 -0.6040 -0.6736 -0.2130
   27MOL0     C 3474   6.701   0.076   3.436  0.1497 -1.0300  0.4340
   27MOL0     C 3475   6.567   0.124   3.496 -0.1755  0.4955  0.3626
   27MOL0    Cl 3476   6.554   0.066   3.665  0.0682 -0.3085  0.5086
   27MOL0     C 3477   6.844  -0.077   3.914 -0.1514  0.3473  0.0663
   27MOL0     C 3478   6.887   0.000   4.027  0.4288  0.4540  0.7107
   27MOL0     O 3479   7.130   0.028   4.223  0.0488  1.1086  0.4179
   27MOL0     C 3480   7.179   0.146   4.471  0.5467 -0.1573  0.5096
   27MOL0     C 3481   7.191   0.219   4.593  0.0778  0.3905 -0.0784
   27MOL0     N 3482   7.023   0.239   5.339  0.8654  0.6366  0.1924
   27MOL0     N 3483   6.975   0.255   5.458  0.0210 -0.0397 -0.5108
   27MOL0     C 3484   7.143   1.377   6.233  0.6015  0.1416  0.3082
   27MOL0     C 3485   7.123   1.507   6.284  0.4408  0.1717 -0.0437
   27MOL0     C 3486   7.113   1.819   6.640 -0.4541 -0.3373  0.1601
   27MOL0     C 3487   7.083   1.871   6.767 -0.0475  0.0215 -0.3310
   27MOL0     C 3488   7.129   1.998   6.808  0.3125  0.0315  0.1298
   27MOL0     C 3489   7.194   2.083   6.716  0.6175  0.4818 -0.0885
   27MOL0     O 3490   7.226   2.207   6.761 -0.9109  0.2451 -0.3356
   27MOL0     C 3491   7.217   2.325   6.677  0.0251  0.7662  0.6183
   27MOL0     C 3492   7.198   2.444   6.763  0.3560  0.2509  0.4381
   27MOL0     C 3493   7.174   2.571   6.686 -0.7311  0.3116  0.0754
   27MOL0     C 3494   7.026   2.600   6.659 -0.2482 -0.0234  0.0593
   27MOL0     C 3495   6.976   2.523   6.542  0.5880 -0.5043  0.7943
   27MOL0     C 3496   6.911   2.460   6.461 -0.0828 -0.3049  0.6169
   27MOL0     C 3497   7.216   2.041   6.583  0.2531  0.9726 -0.9740
   27MOL0     C 3498   7.178   1.912   6.550 -0.7247  0.5474  0.1751
   27MOL0     H 3499   7.135   1.421   6.619  1.4672 -0.6386  0.3890
   27MOL0     H 3500   7.172   1.193   6.510 -1.7833 -0.6275 -1.1130
   27MOL0     H 3501   7.199   1.126   6.058 -0.2291 -0.5010  1.3117
   27MOL0     H 3502   7.033   1.180   6.102  0.6250  2.1369  2.5770
   27MOL0     H 3503   6.956   0.969   6.102  0.6594 -1.2748  1.1432
   27MOL0     H 3504   7.104   0.889   6.164  2.0948  1.7018  0.0826
   27MOL0     H 3505   7.192   0.923   5.923 -0.2418  1.4105 -1.8794
   27MOL0     H 3506   7.017   0.957   5.890 -1.6228 -1.0184  1.8647
   27MOL0     H 3507   7.112   0.700   6.015  3.0390  2.3118 -2.0251
   27MOL0     H 3508   6.941   0.739   6.000  0.4224 -1.2765  1.6788
   27MOL0     H 3509   7.143   0.682   5.779 -0.1404 -1.2347  0.8723
   27MOL0     H 3510   6.993   0.741   5.743  2.7510  1.7692 -1.2339
   27MOL0     H 3511   6.887   0.536   5.853 -0.3832  3.4939 -0.9360
   27MOL0     H 3512   7.051   0.504   5.930  0.1902  2.1277  1.0268
   27MOL0     H 3513   7.143   0.473   5.700  0.0657 -2.3877  0.5830
   27MOL0     H 3514   7.035   0.346   5.764 -1.9247 -1.5242 -2.6251
   27MOL0     H 3515   6.947   0.564   5.566  4.5068 -0.9117 -0.6027
   27MOL0     H 3516   6.852   0.420   5.636 -0.0158  0.6209  3.7795
   27MOL0     H 3517   7.169   0.513   5.435 -1.0325  0.9023  0.5561
   27MOL0     H 3518   7.281   0.254   5.220  2.2480  0.5754  0.6894
   27MOL0     H 3519   7.283   0.437   5.231 -0.3892  0.6689  2.2146
   27MOL0     H 3520   7.104   0.454   5.067 -2.9589 -0.5844  1.2356
   27MOL0     H 3521   7.097   0.269   5.052  4.1598 -1.9270 -1.6340
   27MOL0     H 3522   7.348   0.426   4.968  1.4551  1.3072 -3.1485
   27MOL0     H 3523   7.298   0.257   4.931 -1.5012 -0.0283 -0.4915
   27MOL0     H 3524   7.256   0.405   4.737  3.9759 -2.4455  2.6174
   27MOL0     H 3525   7.138   0.495   4.834 -2.2124 -1.2739  1.0933
   27MOL0     H 3526   6.857   0.261   4.662 -0.7707 -2.0879  0.8618
   27MOL0     H 3527   6.839   0.174   4.442  0.6074  0.4047  1.8961
   27MOL0     H 3528   6.780  -0.193   4.273  2.9977 -0.3047 -0.3408
   27MOL0     H 3529   6.705  -0.349   4.072  0.9912 -0.7044  1.7245
   27MOL0     H 3530   6.609  -0.409   3.870  0.5309 -1.2727 -0.4537
   27MOL0     H 3531   6.751  -0.478   3.781  1.2744  0.3540 -0.8651
   27MOL0     H 3532   6.540  -0.276   3.659 -2.1816 -0.7705  1.2836
   27MOL0     H 3533   6.517  -0.438   3.653 -3.1617  2.2243  3.6404
   27MOL0     H 3534   6.727  -0.482   3.531 -2.3555 -1.0126  0.1838
   27MOL0     H 3535   6.804  -0.335   3.556  0.6699 -0.3037 -0.9872
   27MOL0     H 3536   6.733  -0.330   3.340  4.6293 -0.9990  4.0420
   27MOL0     H 3537   6.571  -0.383   3.376 -0.5887  0.7039 -0.3348
   27MOL0     H 3538   6.513  -0.159   3.482  1.3953  0.1178  2.8582
   27MOL0     H 3539   6.557  -0.150   3.317 -0.6063  0.6407 -0.1766
   27MOL0     H 3540   6.798  -0.111   3.379 -1.5896 -0.8484 -1.3335
   27MOL0     H 3541   6.757  -0.096   3.548  1.7631 -1.4550 -1.1712
   27MOL0     H 3542   6.779   0.131   3.489  0.0875  1.7277 -2.0935
   27MOL0     H 3543   6.702   0.105   3.331 -1.7481  1.8924  1.1107
   27MOL0     H 3544   6.490   0.092   3.426 -0.0229 -2.7262  1.4921
   27MOL0     H 3545   6.564   0.233   3.509  1.7717  0.5886  0.3832
   27MOL0     H 3546   6.861  -0.033   3.816  1.2351  2.3108  1.0901
   27MOL0     H 3547   6.933   0.098   4.015 -1.3937  1.3800  0.9874
   27MOL0     H 3548   7.272   0.145   4.416  1.6825 -1.0777  2.3869
   27MOL0     H 3549   7.293   0.243   4.619  1.1437 -0.5224 -2.9675
   27MOL0     H 3550   7.140   1.362   6.126  1.1540 -1.1368  0.4523
   27MOL0     H 3551   7.112   1.592   6.218 -2.3112  0.0569  0.1538
   27MOL0     H 3552   7.039   1.806   6.842 -0.0980 -1.3700 -1.5298
   27MOL0     H 3553   7.111   2.028   6.910  1.6222 -1.0961  0.7267
   27MOL0     H 3554   7.133   2.315   6.607  0.4444  1.5477 -0.0212
   27MOL0     H 3555   7.314   2.349   6.631 -0.3093  3.0069  0.9672
   27MOL0     H 3556   7.120   2.428   6.838  0.1780  1.3161  0.4901
   27MOL0     H 3557   7.289   2.450   6.823 -1.2894  1.7727  2.9549
   27MOL0     H 3558   7.235   2.563   6.595  1.1254  2.2014  1.0736
   27MOL0     H 3559   7.220   2.656   6.738 -1.6385  1.6543 -1.2161
   27MOL0     H 3560   6.971   2.574   6.750  0.0312  1.6335  0.7358
   27MOL0     H 3561   7.003   2.703   6.631  2.4958  0.6032 -0.1704
   27MOL0     H 3562   6.865   2.378   6.409  1.0774 -0.8220  0.3824
   27MOL0     H 3563   7.244   2.117   6.511  3.3594  2.4290  1.5376
   27MOL0     H 3564   7.192   1.876   6.449 -3.3879 -0.2333  0.0237
   28MOL0     O 3565   1.172   3.024   2.427 -0.2369 -0.8588  0.4292
   28MOL0     C 3566   1.134   2.911   2.397 -1.0678  0.0483 -0.5324
   28MOL0     O 3567   1.161   2.838   2.279 -0.0133 -0.3080 -0.5339
   28MOL0     C 3568   1.215   2.905   2.168  0.3773  0.6723 -0.9389
   28MOL0     C 3569   1.186   2.843   2.041  0.6793  0.1176 -0.7033
   28MOL0     C 3570   1.220   2.901   1.928 -0.2246  0.1388  0.9511
   28MOL0     C 3571   1.303   3.014   1.934 -0.2087  0.4926  0.6544
   28MOL0     O 3572   1.323   3.084   1.814  0.3969 -0.2155  0.6344
   28MOL0     C 3573   1.386   3.214   1.786  0.5177 -0.4246  0.4116
   28MOL0     C 3574   1.387   3.232   1.630  0.0224 -0.1932 -0.5808
   28MOL0     C 3575   1.246   3.247   1.562  0.1988 -0.3915  0.2504
   28MOL0     C 3576   1.270   3.277   1.414  0.6967 -0.7552 -0.7439
   28MOL0     C 3577   1.143   3.329   1.340  0.0585  0.4285 -0.2453
   28MOL0     C 3578   1.148   3.316   1.188 -0.3865 -0.6662 -0.4409
   28MOL0     C 3579   1.039   3.384   1.097  0.4991 -0.2605 -0.6870
   28MOL0     C 3580   0.908   3.298   1.071 -0.6086 -0.8029 -0.6230
   28MOL0     N 3581   0.868   3.198   1.177  0.1438  0.1278 -0.2231
   28MOL0     C 3582   0.789   3.221   1.289 -0.4995  0.0769  0.8985
   28MOL0     C 3583   0.775   3.098   1.343 -0.2027 -0.7887  0.1326
   28MOL0     C 3584   0.681   3.065   1.461 -0.1731 -0.6311  0.3454
   28MOL0     C 3585   0.733   3.113   1.596  0.4607  0.4792 -0.2742
   28MOL0     C 3586   0.868   3.038   1.634  0.1958  0.5240 -0.0565
   28MOL0     C 3587   0.912   3.072   1.770  0.0171  0.2450  0.1687
   28MOL0     O 3588   0.919   3.215   1.786 -0.8367 -0.4690  0.2587
   28MOL0     C 3589   0.981   3.287   1.884  0.0159 -0.5680 -0.2731
   28MOL0     C 3590   0.992   3.238   2.011 -0.3803  0.0984 -0.0363
   28MOL0     C 3591   1.060   3.318   2.106  0.4197 -1.1955 -0.2073
   28MOL0     C 3592   1.125   3.440   2.065  1.2519  0.0080 -0.4591
   28MOL0     C 3593   1.188   3.531   2.166  0.2410  0.1537 -1.0268
   28MOL0     O 3594   1.296   3.603   2.117 -0.0191 -0.3087 -0.2523
   28MOL0     C 3595   1.348   3.704   2.198  1.1813 -0.1321 -0.5766
   28MOL0     C 3596   1.307   3.842   2.189  0.6126  0.0968  0.2276
   28MOL0     C 3597   1.371   3.944   2.258 -0.2306 -0.8032 -0.0350
   28MOL0     C 3598   1.471   3.911   2.354 -0.1865  0.7001  0.3583
   28MOL0     O 3599   1.516   4.016   2.422 -0.1320 -0.0858 -1.5198
   28MOL0     C 3600   1.660   4.021   2.457 -0.0156  0.7912 -0.1936
   28MOL0     C 3601   1.709   4.163   2.465 -0.6237 -0.1538  1.0450
   28MOL0     C 3602   1.658   4.237   2.585  0.1785  0.0282 -0.0041
   28MOL0     C 3603   1.696   4.386   2.573 -0.1203  0.3182 -0.1008
   28MOL0     C 3604   1.663   4.463   2.700 -0.7681 -0.8801 -0.2113
   28MOL0     C 3605   1.514   4.500   2.699  0.2225  0.5993  0.0480
   28MOL0     C 3606   1.462   4.569   2.817 -0.1762 -0.1509 -0.5842
   28MOL0     C 3607   1.545   4.684   2.853  1.1146 -0.2351 -0.1875
   28MOL0    Cl 3608   1.472   4.763   3.005 -0.4843 -0.1723 -1.0336
   28MOL0     C 3609   1.505   3.776   2.385 -0.0543  0.1465  0.0326
   28MOL0     C 3610   1.445   3.678   2.305 -0.6024  0.6353 -0.1077
   28MOL0     O 3611   1.164   3.512   2.286  0.0855 -0.6947 -0.4038
   28MOL0     C 3612   1.103   3.484   1.939  0.5433  1.0129  0.0951
   28MOL0     C 3613   1.032   3.414   1.846  0.0626 -0.2833  0.7024
   28MOL0     N 3614   0.845   3.003   1.273  0.2545  0.1985 -0.2919
   28MOL0     N 3615   0.906   3.069   1.178 -0.1585 -0.5186  0.4719
   28MOL0     C 3616   1.358   3.057   2.048  0.5689 -0.2266 -0.6236
   28MOL0     C 3617   1.302   3.010   2.169 -0.3367  0.2158  0.3640
   28MOL0     C 3618   1.041   2.841   2.497 -0.0065 -0.4881 -0.8915
   28MOL0     C 3619   1.023   2.706   2.483 -0.8478 -0.2271  0.5582
   28MOL0     C 3620   0.953   2.625   2.579  0.1473 -1.0413  0.6327
   28MOL0     C 3621   0.900   2.688   2.697  0.2471  0.0677  1.1605
   28MOL0     O 3622   0.831   2.619   2.792  0.2309 -0.1334  0.4435
   28MOL0     C 3623   0.890   2.513   2.859 -0.2617 -0.1159  0.4624
   28MOL0     C 3624   0.863   2.532   3.003  0.4227 -0.0961  0.0185
   28MOL0     C 3625   0.959   2.631   3.054 -0.9068  0.9448 -1.0144
   28MOL0     C 3626   0.934   2.662   3.200  0.1983 -0.4884  0.0117
   28MOL0     C 3627   1.035   2.761   3.241  0.8968 -0.2378  0.1077
   28MOL0     C 3628   1.102   2.844   3.305 -0.3830  0.4405  0.3320
   28MOL0     C 3629   0.937   2.824   2.722 -0.0049  0.5087 -0.0829
   28MOL0     C 3630   1.003   2.900   2.626  0.3391 -0.9114 -0.3990
   28MOL0     H 3631   1.118   2.759   2.047  1.4485 -0.4391  3.6222
   28MOL0     H 3632   1.188   2.852   1.837  1.3970 -1.8734  1.3680
   28MOL0     H 3633   1.490   3.209   1.819  0.1758  1.0232  1.8129
   28MOL0     H 3634   1.327   3.294   1.833  1.1913  0.7185 -0.6172
   28MOL0     H 3635   1.436   3.140   1.597  2.0439 -0.3360  2.3832
   28MOL0     H 3636   1.451   3.318   1.607 -1.0904  0.9583  0.4110
   28MOL0     H 3637   1.196   3.331   1.612  3.1502  0.4950  1.9588
   28MOL0     H 3638   1.185   3.157   1.572  2.6425 -1.9689  2.1078
   28MOL0     H 3639   1.339   3.358   1.389 -0.4858  1.0760  1.5002
   28MOL0     H 3640   1.308   3.193   1.355  1.4466 -0.8649 -0.1235
   28MOL0     H 3641   1.137   3.433   1.373 -0.7675 -0.2525  1.8707
   28MOL0     H 3642   1.050   3.288   1.379  0.1176  0.3652 -0.1693
   28MOL0     H 3643   1.145   3.208   1.171  0.3521 -0.4392 -2.1955
   28MOL0     H 3644   1.246   3.360   1.164 -0.7946  0.6111  0.1183
   28MOL0     H 3645   1.000   3.483   1.124 -2.3471 -0.6572 -2.8778
   28MOL0     H 3646   1.075   3.385   0.994 -2.2826 -2.2337 -1.7737
   28MOL0     H 3647   0.931   3.241   0.981  1.3562  1.3810 -1.5869
   28MOL0     H 3648   0.818   3.361   1.068  0.1992  0.7533  2.8842
   28MOL0     H 3649   0.754   3.316   1.327  1.7983  0.8929  1.0784
   28MOL0     H 3650   0.677   2.956   1.472  3.3581 -0.7571  2.1570
   28MOL0     H 3651   0.586   3.117   1.448  0.5995  0.7388 -0.0573
   28MOL0     H 3652   0.659   3.091   1.674  1.8809  1.4321  1.4255
   28MOL0     H 3653   0.760   3.219   1.598  1.5689  0.2054  0.8819
   28MOL0     H 3654   0.845   2.931   1.629 -0.6489  0.7164 -0.3840
   28MOL0     H 3655   0.948   3.053   1.561  0.7462  1.9103  0.7872
   28MOL0     H 3656   1.004   3.018   1.795  1.5485  2.9665  0.9202
   28MOL0     H 3657   0.832   3.037   1.836 -3.0723 -0.7053 -3.7271
   28MOL0     H 3658   0.940   3.147   2.038 -1.4720  0.8960  0.6032
   28MOL0     H 3659   1.052   3.295   2.212 -0.3179  0.4838  0.1254
   28MOL0     H 3660   1.230   3.877   2.120 -1.5239 -0.0842  2.3895
   28MOL0     H 3661   1.341   4.047   2.239  0.4382 -0.4786  0.6124
   28MOL0     H 3662   1.720   3.982   2.374  0.6583  2.0671 -0.3153
   28MOL0     H 3663   1.680   3.961   2.547  0.0994  2.8748  1.2282
   28MOL0     H 3664   1.686   4.210   2.369  2.8288  0.8704  0.5604
   28MOL0     H 3665   1.819   4.166   2.462 -0.5648  2.9751 -3.1587
   28MOL0     H 3666   1.692   4.199   2.682  1.1884 -3.7036 -1.6534
   28MOL0     H 3667   1.550   4.226   2.597  0.1666  2.2796  3.0123
   28MOL0     H 3668   1.804   4.392   2.559 -0.2778  0.7922 -1.1721
   28MOL0     H 3669   1.645   4.440   2.493  1.0257  3.6757  1.2885
   28MOL0     H 3670   1.714   4.560   2.709 -3.7289  0.9920 -2.0334
   28MOL0     H 3671   1.681   4.411   2.795  0.9930 -1.5360 -0.8559
   28MOL0     H 3672   1.449   4.412   2.693 -0.2029  0.9037  0.1367
   28MOL0     H 3673   1.491   4.565   2.613 -1.0895 -1.7041 -1.4423
   28MOL0     H 3674   1.364   4.606   2.786 -0.1042  2.0572  1.5632
   28MOL0     H 3675   1.443   4.513   2.909 -0.3293  1.1150  0.1803
   28MOL0     H 3676   1.547   4.760   2.774 -0.3304  0.9315  0.8525
   28MOL0     H 3677   1.648   4.658   2.880  0.8589 -1.4204 -0.2959
   28MOL0     H 3678   1.569   3.759   2.471  1.5018  1.0225 -0.9013
   28MOL0     H 3679   1.468   3.572   2.307 -0.1480  0.7013 -1.1275
   28MOL0     H 3680   1.145   3.582   1.917 -1.3016  1.5485 -1.2851
   28MOL0     H 3681   1.025   3.453   1.745 -0.1974  1.0848  1.2186
   28MOL0     H 3682   1.429   3.139   2.052  1.5394 -1.0944  0.8055
   28MOL0     H 3683   1.338   3.056   2.260  1.2974 -0.5450  0.1484
   28MOL0     H 3684   1.083   2.662   2.404  3.4813  0.8867  2.9005
   28MOL0     H 3685   0.936   2.520   2.558  1.3495 -0.5900 -3.3814
   28MOL0     H 3686   0.997   2.515   2.838 -0.1006  2.3168  1.1525
   28MOL0     H 3687   0.855   2.418   2.820 -0.8136  0.0919  0.4372
   28MOL0     H 3688   0.758   2.564   3.003  0.7970  1.4091 -2.6900
   28MOL0     H 3689   0.862   2.438   3.059 -4.4018 -0.5199 -0.3501
   28MOL0     H 3690   0.959   2.722   2.993 -1.0443  0.7376 -1.3251
   28MOL0     H 3691   1.059   2.587   3.045 -0.9245  0.6826 -0.0622
   28MOL0     H 3692   0.830   2.685   3.222  0.0576 -3.1584  2.6255
   28MOL0     H 3693   0.950   2.576   3.265  0.5890 -2.7655 -2.8882
   28MOL0     H 3694   1.164   2.912   3.360  0.6470  0.5406 -0.9135
   28MOL0     H 3695   0.913   2.867   2.819  2.7989  2.0999  0.0335
   28MOL0     H 3696   1.024   3.005   2.642  4.9801 -1.5005 -1.2722
   29MOL0     O 3697   7.104   8.117   5.150 -0.0889 -0.3408 -0.2262
   29MOL0     C 3698   7.084   8.002   5.189  0.4113 -0.2593  0.4446
   29MOL0     O 3699   7.007   7.967   5.292  0.6281  0.3287 -0.4571
   29MOL0     C 3700   6.916   8.049   5.347 -0.0806 -0.7293 -0.7520
   29MOL0     C 3701   6.934   8.180   5.390 -0.1528  0.4919  0.1633
   29MOL0     C 3702   6.843   8.249   5.465  0.0488 -0.3949  0.5425
   29MOL0     C 3703   6.729   8.183   5.511  0.0658 -1.6377 -0.6912
   29MOL0     O 3704   6.618   8.240   5.579 -0.4618  0.7585  0.0220
   29MOL0     C 3705   6.600   8.379   5.554 -0.4454 -0.3629 -0.1673
   29MOL0     C 3706   6.492   8.427   5.649  0.0738  0.0518 -0.1943
   29MOL0     C 3707   6.444   8.568   5.611 -0.5243 -0.3073  0.0807
   29MOL0     C 3708   6.312   8.613   5.691  0.7868 -0.1681  0.6477
   29MOL0     C 3709   6.333   8.630   5.844  0.0720  0.6604  0.2728
   29MOL0     C 3710   6.435   8.740   5.877  0.0299 -0.8242 -0.3291
   29MOL0     C 3711   6.384   8.875   5.851  0.5598 -0.2701 -0.5422
   29MOL0     C 3712   6.505   8.971   5.841  0.1017  0.5588  0.2065
   29MOL0     N 3713   6.571   8.989   5.971 -1.0589 -0.9110 -0.0077
   29MOL0     C 3714   6.571   9.108   6.042 -0.2140 -0.1073  0.2473
   29MOL0     C 3715   6.647   9.079   6.149  0.8109 -0.3764  0.7348
   29MOL0     C 3716   6.668   9.178   6.259 -0.9316  0.2233 -0.5491
   29MOL0     C 3717   6.583   9.146   6.380 -0.5537  0.6958  0.3072
   29MOL0     C 3718   6.654   9.065   6.494 -0.5194  0.5106 -0.7558
   29MOL0     C 3719   6.732   8.933   6.454 -0.3108  0.2084  0.1356
   29MOL0     O 3720   6.772   8.862   6.573  0.1515  0.8611 -0.3414
   29MOL0     C 3721   6.842   8.745   6.560 -0.1943 -0.6347 -0.1412
   29MOL0     C 3722   6.893   8.693   6.436 -0.7104  0.4643  1.4676
   29MOL0     C 3723   6.957   8.569   6.438 -0.4602  0.6258  0.5370
   29MOL0     C 3724   6.980   8.505   6.564  0.0822  1.2686  1.4136
   29MOL0     C 3725   7.039   8.373   6.565  0.7867 -0.3973  0.2660
   29MOL0     O 3726   7.013   8.304   6.680 -0.7219  0.3917 -0.6043
   29MOL0     C 3727   7.072   8.180   6.698  0.1081 -0.0817  0.4049
   29MOL0     C 3728   7.193   8.158   6.764 -0.7120 -0.5785 -0.3811
   29MOL0     C 3729   7.243   8.030   6.771 -1.0981 -0.6170  0.5493
   29MOL0     C 3730   7.177   7.915   6.733  0.7962  0.2364 -0.1206
   29MOL0     O 3731   7.237   7.799   6.778 -0.2606  0.3169 -0.0601
   29MOL0     C 3732   7.223   7.684   6.693  0.0947 -1.2873  0.8312
   29MOL0     C 3733   7.341   7.586   6.707 -0.2904 -0.1149 -0.6683
   29MOL0     C 3734   7.341   7.476   6.600 -0.5747  0.0746  0.6796
   29MOL0     C 3735   7.377   7.525   6.456 -0.2110  0.0456  0.0029
   29MOL0     C 3736   7.372   7.405   6.357 -0.1893 -0.3784  0.2741
   29MOL0     C 3737   7.457   7.281   6.394 -0.4485 -0.2531 -0.1360
   29MOL0     C 3738   7.450   7.167   6.294 -0.0986  0.8066  0.2749
   29MOL0     C 3739   7.544   7.195   6.175 -0.6542 -0.6246  0.1326
   29MOL0    Cl 3740   7.714   7.198   6.229 -0.0906  0.1950 -0.2017
   29MOL0     C 3741   7.060   7.930   6.670 -0.0300  0.1138 -0.0139
   29MOL0     C 3742   7.012   8.062   6.644 -0.3563 -1.2024  0.5617
   29MOL0     O 3743   7.100   8.328   6.472 -0.3167  0.6704 -0.5023
   29MOL0     C 3744   6.935   8.560   6.685  0.1167  0.9117  0.8703
   29MOL0     C 3745   6.859   8.672   6.675 -0.9759  0.2878 -0.3257
   29MOL0     N 3746   6.696   8.954   6.150  0.7124  0.1415  0.3832
   29MOL0     N 3747   6.645   8.897   6.049 -0.0751 -0.1778 -0.2277
   29MOL0     C 3748   6.707   8.053   5.463 -0.1496 -0.0032  0.7523
   29MOL0     C 3749   6.787   7.994   5.369 -1.0168  0.1444  0.0604
   29MOL0     C 3750   7.171   7.907   5.129  0.1668 -0.1176  0.7369
   29MOL0     C 3751   7.169   7.779   5.188  0.6394  0.1099  0.0178
   29MOL0     C 3752   7.263   7.692   5.157 -0.7749 -0.3225  0.6194
   29MOL0     C 3753   7.358   7.708   5.058 -0.0798  0.2451  0.7439
   29MOL0     O 3754   7.466   7.624   5.030 -0.2329 -0.6572 -0.3330
   29MOL0     C 3755   7.469   7.491   5.083 -0.0502  0.2215 -0.0687
   29MOL0     C 3756   7.534   7.382   4.984 -0.2800 -0.2078 -0.4908
   29MOL0     C 3757   7.689   7.356   5.003  0.4196  0.0105 -0.6326
   29MOL0     C 3758   7.737   7.263   4.894 -0.3290  0.9967  0.3726
   29MOL0     C 3759   7.725   7.307   4.755 -0.0620 -0.5554 -0.3702
   29MOL0     C 3760   7.719   7.332   4.640 -0.1888  0.4940  0.1649
   29MOL0     C 3761   7.351   7.823   4.976 -0.1741 -0.6214 -0.4474
   29MOL0     C 3762   7.263   7.929   5.016  0.0356  0.1916 -0.8650
   29MOL0     H 3763   7.025   8.228   5.355  1.0033 -0.3656  1.8435
   29MOL0     H 3764   6.857   8.355   5.488 -0.9659 -0.3776  1.1315
   29MOL0     H 3765   6.578   8.409   5.451  0.8569  4.5919  0.7422
   29MOL0     H 3766   6.683   8.443   5.585 -0.9054  1.3874 -2.3521
   29MOL0     H 3767   6.537   8.430   5.749 -3.1323  2.8183  1.3905
   29MOL0     H 3768   6.404   8.364   5.639  0.7120 -0.4535 -4.7371
   29MOL0     H 3769   6.417   8.569   5.505  3.4998  1.2115 -1.1005
   29MOL0     H 3770   6.523   8.644   5.613 -0.5194 -0.2597 -1.2009
   29MOL0     H 3771   6.270   8.706   5.651  1.8391  1.1293  2.3886
   29MOL0     H 3772   6.234   8.539   5.669 -0.9050  1.6624  0.1543
   29MOL0     H 3773   6.357   8.532   5.886 -0.1137 -0.3844 -1.8870
   29MOL0     H 3774   6.233   8.654   5.883  0.2927 -0.2672  1.4442
   29MOL0     H 3775   6.521   8.716   5.815  0.4402 -0.5875  0.1417
   29MOL0     H 3776   6.451   8.738   5.985  0.3231  0.1700 -0.3414
   29MOL0     H 3777   6.320   8.890   5.763 -0.5576 -0.3587  0.2426
   29MOL0     H 3778   6.326   8.895   5.941  2.9618  1.6214  0.7245
   29MOL0     H 3779   6.448   9.057   5.804 -2.4495 -0.1457  2.1838
   29MOL0     H 3780   6.584   8.944   5.770  0.9262  0.1546  1.2451
   29MOL0     H 3781   6.521   9.199   6.010 -0.6565 -1.4913 -3.5541
   29MOL0     H 3782   6.628   9.273   6.224 -1.6787  0.7645  1.5879
   29MOL0     H 3783   6.774   9.191   6.283  0.2583 -1.4651 -4.2204
   29MOL0     H 3784   6.495   9.088   6.350 -0.7028  0.6563  0.8115
   29MOL0     H 3785   6.548   9.236   6.431  2.9020  1.2199  2.1034
   29MOL0     H 3786   6.724   9.125   6.553 -0.1304 -0.0165 -0.6779
   29MOL0     H 3787   6.582   9.032   6.570  2.2196 -5.3581 -0.2010
   29MOL0     H 3788   6.820   8.950   6.391 -1.8766 -3.0799 -3.3853
   29MOL0     H 3789   6.673   8.872   6.384 -0.6215  1.4069 -0.6768
   29MOL0     H 3790   6.907   8.735   6.337  0.5887 -2.2877  0.3626
   29MOL0     H 3791   7.013   8.543   6.349 -1.4804 -0.4069  0.1732
   29MOL0     H 3792   7.255   8.237   6.805  0.4925 -1.3052 -0.7533
   29MOL0     H 3793   7.339   8.006   6.816 -1.1366  0.8728  1.4972
   29MOL0     H 3794   7.217   7.731   6.595 -2.0868  0.3873  1.6980
   29MOL0     H 3795   7.127   7.643   6.726 -2.0093  1.6910 -1.1230
   29MOL0     H 3796   7.332   7.527   6.799 -3.5992 -0.1673 -0.8842
   29MOL0     H 3797   7.436   7.638   6.704  0.1172 -0.8736 -1.9414
   29MOL0     H 3798   7.246   7.422   6.597 -0.5347 -0.0254  1.2025
   29MOL0     H 3799   7.417   7.403   6.631 -0.8397 -0.2810  0.5076
   29MOL0     H 3800   7.295   7.583   6.413 -0.7735 -2.1231 -2.0742
   29MOL0     H 3801   7.480   7.562   6.454  0.5033 -1.7908  0.2879
   29MOL0     H 3802   7.412   7.438   6.261 -0.2607  0.9335  0.6802
   29MOL0     H 3803   7.273   7.362   6.341 -0.8901  1.4334 -0.5718
   29MOL0     H 3804   7.422   7.252   6.493 -0.5052  1.9216  0.5441
   29MOL0     H 3805   7.560   7.315   6.407 -0.5760 -0.4178  1.3950
   29MOL0     H 3806   7.480   7.077   6.350 -3.2345 -0.1677  0.5980
   29MOL0     H 3807   7.346   7.152   6.265  0.5863 -4.0761 -0.5408
   29MOL0     H 3808   7.518   7.299   6.152  1.5355  0.8254  3.5740
   29MOL0     H 3809   7.522   7.140   6.083 -0.0255  1.5546 -1.4252
   29MOL0     H 3810   7.008   7.852   6.616  0.6485 -0.0023 -0.5065
   29MOL0     H 3811   6.918   8.076   6.591 -0.0718 -0.5062  0.2294
   29MOL0     H 3812   6.954   8.509   6.779 -2.6718 -0.3981  0.8242
   29MOL0     H 3813   6.813   8.714   6.765 -2.4558 -0.9588 -0.4479
   29MOL0     H 3814   6.610   8.011   5.488 -0.9583  1.2092 -0.2332
   29MOL0     H 3815   6.754   7.895   5.342  2.6861 -2.4491  3.7680
   29MOL0     H 3816   7.097   7.746   5.263  1.9972 -0.3914  1.1333
   29MOL0     H 3817   7.287   7.602   5.213  0.4720 -1.0625 -1.0121
   29MOL0     H 3818   7.364   7.461   5.081 -0.1710  0.5329  1.0857
   29MOL0     H 3819   7.509   7.491   5.185 -1.1625 -1.3624  0.4090
   29MOL0     H 3820   7.478   7.291   5.009 -1.8987  1.2404  1.5464
   29MOL0     H 3821   7.513   7.411   4.881 -0.7621  2.3217  0.2351
   29MOL0     H 3822   7.700   7.314   5.104 -0.9309 -0.1269 -0.5204
   29MOL0     H 3823   7.752   7.445   5.000 -3.1485  2.9914  2.3155
   29MOL0     H 3824   7.844   7.240   4.891 -0.2819  1.2478 -3.0444
   29MOL0     H 3825   7.699   7.161   4.907  2.7235 -0.6128 -1.9267
   29MOL0     H 3826   7.721   7.359   4.536 -1.6590  2.1552  0.5263
   29MOL0     H 3827   7.423   7.829   4.895  0.8762 -0.1088  0.4921
   29MOL0     H 3828   7.271   8.025   4.965  2.9330  0.2680 -0.4390
   30MOL0     O 3829   2.404   2.345   6.026  0.0230  0.2755 -0.5490
   30MOL0     C 3830   2.451   2.235   6.072  1.6031  0.6894  0.2715
   30MOL0     O 3831   2.404   2.157   6.173  0.6123 -0.2943 -0.1167
   30MOL0     C 3832   2.303   2.200   6.258 -0.5607 -0.5957  0.5067
   30MOL0     C 3833   2.227   2.099   6.325  0.2715 -0.5373 -0.1646
   30MOL0     C 3834   2.146   2.126   6.431 -0.1742 -0.6016  0.5000
   30MOL0     C 3835   2.120   2.259   6.454 -0.1893  0.3129  0.3583
   30MOL0     O 3836   2.041   2.296   6.562  0.2810 -0.8049 -0.3423
   30MOL0     C 3837   2.027   2.205   6.675  0.0297  0.0244  0.5464
   30MOL0     C 3838   1.944   2.261   6.791 -0.5203  0.1859 -0.1585
   30MOL0     C 3839   1.991   2.403   6.843 -0.6891  0.5660  0.2629
   30MOL0     C 3840   1.908   2.452   6.963 -0.6098  0.5165  0.1027
   30MOL0     C 3841   1.962   2.403   7.094 -0.5843  1.1263 -0.6732
   30MOL0     C 3842   2.091   2.471   7.148 -0.8460 -0.5119 -0.0345
   30MOL0     C 3843   2.115   2.427   7.294  0.4338  0.1434 -0.7477
   30MOL0     C 3844   2.214   2.529   7.348 -0.4545 -0.1662 -0.4229
   30MOL0     N 3845   2.140   2.641   7.413  0.1122  1.2534  0.3864
   30MOL0     C 3846   2.102   2.759   7.366 -0.0406  0.5974  0.7729
   30MOL0     C 3847   2.018   2.812   7.461  1.0871 -0.5329 -0.4230
   30MOL0     C 3848   1.934   2.939   7.462 -0.2112 -0.0059 -0.5019
   30MOL0     C 3849   1.796   2.925   7.400 -1.0224 -0.8496 -0.1105
   30MOL0     C 3850   1.793   2.864   7.258 -0.0228  0.5379  0.4957
   30MOL0     C 3851   1.881   2.957   7.173 -0.5995  0.2872  0.7834
   30MOL0     O 3852   1.885   2.889   7.045 -0.0724  0.0767  0.4974
   30MOL0     C 3853   1.960   2.946   6.943  0.6105 -0.0279  0.1952
   30MOL0     C 3854   2.004   2.866   6.843  0.1246 -0.1312  0.4663
   30MOL0     C 3855   2.106   2.909   6.763 -0.3102  0.4298 -0.1258
   30MOL0     C 3856   2.144   3.045   6.762 -0.2004 -0.8178 -0.7169
   30MOL0     C 3857   2.230   3.097   6.640  0.2672  0.3232 -0.8895
   30MOL0     O 3858   2.248   3.004   6.547 -0.3106  0.8217 -0.2269
   30MOL0     C 3859   2.299   3.051   6.424  0.6869 -0.4879 -0.7365
   30MOL0     C 3860   2.227   3.026   6.304 -0.3414  0.4149 -1.1930
   30MOL0     C 3861   2.304   3.014   6.184  0.7424  0.1309  0.4122
   30MOL0     C 3862   2.431   3.064   6.171  0.9000  0.1253  0.8565
   30MOL0     O 3863   2.495   3.082   6.054 -0.3313  0.6875  0.2238
   30MOL0     C 3864   2.428   3.141   5.948 -0.6827  0.1831  0.3372
   30MOL0     C 3865   2.395   3.281   5.971 -0.3900 -0.2944 -0.1697
   30MOL0     C 3866   2.315   3.343   5.853  0.3103  0.0457  0.6955
   30MOL0     C 3867   2.384   3.472   5.790  0.4588  0.3515 -0.5381
   30MOL0     C 3868   2.296   3.545   5.677  0.2308 -0.2312 -1.3055
   30MOL0     C 3869   2.288   3.461   5.548  0.4414  0.5924  0.6788
   30MOL0     C 3870   2.158   3.487   5.457  0.1895 -0.4007 -0.1464
   30MOL0     C 3871   2.051   3.385   5.498  0.4392  0.6300 -0.1381
   30MOL0    Cl 3872   2.110   3.223   5.488  0.5314  0.1820 -0.3608
   30MOL0     C 3873   2.497   3.097   6.290 -0.3083 -0.7009 -0.5555
   30MOL0     C 3874   2.434   3.097   6.418  0.5716  0.0608 -0.3761
   30MOL0     O 3875   2.264   3.216   6.638  0.9748 -0.0682  0.0019
   30MOL0     C 3876   2.086   3.134   6.852  1.1435 -0.2726  0.4152
   30MOL0     C 3877   2.000   3.078   6.947  0.3389 -0.4511 -1.2687
   30MOL0     N 3878   2.014   2.718   7.562 -0.3377 -0.1512  0.6878
   30MOL0     N 3879   2.089   2.616   7.532  0.5216  0.4405 -0.1124
   30MOL0     C 3880   2.191   2.364   6.393 -0.3964 -0.1661  0.0255
   30MOL0     C 3881   2.286   2.337   6.291  0.1312  0.7592 -0.6872
   30MOL0     C 3882   2.561   2.179   5.999  0.7126 -0.1450 -0.1791
   30MOL0     C 3883   2.552   2.171   5.864 -1.0900  0.2673 -0.7928
   30MOL0     C 3884   2.665   2.115   5.793  0.2189  0.3828  0.0912
   30MOL0     C 3885   2.781   2.079   5.857  1.1192 -0.4471  0.1475
   30MOL0     O 3886   2.887   2.030   5.778  0.6483  0.5041 -0.4617
   30MOL0     C 3887   2.900   1.884   5.781 -1.0706 -0.2649  0.0571
   30MOL0     C 3888   3.017   1.840   5.860 -0.1070 -0.1320 -0.1532
   30MOL0     C 3889   3.141   1.808   5.776 -0.8523  0.3918 -0.1641
   30MOL0     C 3890   3.247   1.746   5.873  0.6839 -0.6220  0.5646
   30MOL0     C 3891   3.379   1.743   5.810 -0.2448 -0.6316 -0.3627
   30MOL0     C 3892   3.482   1.769   5.760 -1.3283  0.8914 -0.3485
   30MOL0     C 3893   2.792   2.093   5.995 -0.6379  0.1532 -0.6445
   30MOL0     C 3894   2.683   2.137   6.064  0.2373  0.1750 -0.3077
   30MOL0     H 3895   2.245   1.996   6.299 -0.7433 -0.6901 -0.2837
   30MOL0     H 3896   2.089   2.047   6.477 -1.8212 -0.6128 -1.4014
   30MOL0     H 3897   2.126   2.164   6.700 -0.5424 -1.8700 -0.0973
   30MOL0     H 3898   1.980   2.114   6.637  0.2188 -0.9605  2.5396
   30MOL0     H 3899   1.945   2.194   6.878 -1.8616  1.6931  1.0696
   30MOL0     H 3900   1.837   2.267   6.769 -1.0036  0.2997  1.9840
   30MOL0     H 3901   1.983   2.481   6.768  1.8176  1.2856  0.6563
   30MOL0     H 3902   2.098   2.397   6.868  0.4518  1.0998 -3.8419
   30MOL0     H 3903   1.888   2.559   6.959 -3.4237  0.2668  3.3363
   30MOL0     H 3904   1.811   2.402   6.959 -1.2754  1.8582 -1.0481
   30MOL0     H 3905   1.975   2.297   7.069  0.4751  0.9539  0.5330
   30MOL0     H 3906   1.884   2.406   7.171 -1.0130  3.9477 -1.0943
   30MOL0     H 3907   2.095   2.580   7.136  0.0443 -0.3215  1.6663
   30MOL0     H 3908   2.173   2.449   7.078 -1.3697 -0.0345 -0.8223
   30MOL0     H 3909   2.025   2.426   7.356  0.7073 -0.4231 -0.3600
   30MOL0     H 3910   2.165   2.330   7.303  0.0596  0.1179  2.0756
   30MOL0     H 3911   2.278   2.570   7.270  3.7281  0.8334  3.1596
   30MOL0     H 3912   2.280   2.494   7.428 -0.1306  0.9817 -0.1766
   30MOL0     H 3913   2.131   2.800   7.270 -0.7836 -0.5895  0.0062
   30MOL0     H 3914   1.989   3.027   7.427 -1.7224  0.0928 -2.8114
   30MOL0     H 3915   1.896   2.965   7.561 -2.0385  0.0820 -1.1906
   30MOL0     H 3916   1.757   3.027   7.388  2.1848  0.8282  2.1582
   30MOL0     H 3917   1.727   2.858   7.451 -4.1227  0.5679 -2.0973
   30MOL0     H 3918   1.826   2.760   7.267 -2.2673 -0.1001  2.4966
   30MOL0     H 3919   1.694   2.857   7.211 -0.8020 -0.7320  2.1858
   30MOL0     H 3920   1.983   2.984   7.202 -1.2525  1.3947  2.1754
   30MOL0     H 3921   1.826   3.052   7.164 -0.4660  0.1624 -2.4065
   30MOL0     H 3922   1.972   2.764   6.826 -3.4041  0.6600  1.6520
   30MOL0     H 3923   2.138   2.830   6.697 -0.1715 -2.7844  3.4127
   30MOL0     H 3924   2.123   2.998   6.295 -0.4976  0.8762 -0.8253
   30MOL0     H 3925   2.246   3.001   6.093 -0.8682  2.6627  0.9752
   30MOL0     H 3926   2.338   3.081   5.932 -0.1035 -0.8383  0.8034
   30MOL0     H 3927   2.493   3.134   5.860 -2.8710 -0.2672 -1.3195
   30MOL0     H 3928   2.492   3.327   5.993  1.2373 -2.7433 -1.6279
   30MOL0     H 3929   2.330   3.277   6.058  1.0640 -0.0257  0.9598
   30MOL0     H 3930   2.207   3.355   5.867  0.4043  1.2887  0.5014
   30MOL0     H 3931   2.319   3.274   5.768  0.8365  3.1629 -2.0243
   30MOL0     H 3932   2.390   3.541   5.874 -1.3143  0.7229 -0.6595
   30MOL0     H 3933   2.487   3.455   5.758  1.0965  0.4425  1.3420
   30MOL0     H 3934   2.332   3.648   5.665 -0.8281  0.4460  0.8965
   30MOL0     H 3935   2.196   3.549   5.719  1.1090  0.7296  0.8610
   30MOL0     H 3936   2.310   3.354   5.557 -1.2347  0.2750  1.4238
   30MOL0     H 3937   2.368   3.496   5.482  2.4618  0.7104  3.0550
   30MOL0     H 3938   2.113   3.584   5.481 -0.1746 -1.4396  4.1678
   30MOL0     H 3939   2.184   3.489   5.351 -1.6057 -0.9398 -0.6468
   30MOL0     H 3940   1.955   3.402   5.449 -2.2100 -4.0763  2.6179
   30MOL0     H 3941   2.034   3.400   5.605 -2.6988 -0.2930 -0.4016
   30MOL0     H 3942   2.602   3.123   6.283 -0.0976 -0.7814  1.7631
   30MOL0     H 3943   2.506   3.098   6.500  2.9180  0.1876 -2.3130
   30MOL0     H 3944   2.121   3.236   6.867 -0.9199  1.0185 -2.5330
   30MOL0     H 3945   1.969   3.131   7.037  0.7074 -1.4488 -0.5420
   30MOL0     H 3946   2.165   2.464   6.426  0.3730 -0.6708  2.3505
   30MOL0     H 3947   2.347   2.420   6.256  2.1567  0.6924  2.2671
   30MOL0     H 3948   2.460   2.192   5.810 -0.4371 -2.5730 -3.3083
   30MOL0     H 3949   2.652   2.106   5.686 -2.3992 -0.1607  0.3796
   30MOL0     H 3950   2.915   1.839   5.683  1.5589 -1.1344  0.7508
   30MOL0     H 3951   2.814   1.843   5.834 -0.7255  0.1128  0.9464
   30MOL0     H 3952   3.040   1.922   5.929 -2.6422 -2.4185  3.7826
   30MOL0     H 3953   2.997   1.749   5.917  0.8183 -0.9541 -1.1125
   30MOL0     H 3954   3.198   1.891   5.733  4.5241 -1.1959  2.9303
   30MOL0     H 3955   3.114   1.736   5.698  1.1591  0.1791 -0.7316
   30MOL0     H 3956   3.238   1.785   5.975 -3.4325 -1.6529  0.7726
   30MOL0     H 3957   3.230   1.639   5.888 -0.8614 -0.3254  1.0738
   30MOL0     H 3958   3.568   1.813   5.712 -0.8699 -1.8709 -2.3103
   30MOL0     H 3959   2.881   2.064   6.050 -0.6496  1.6659  0.2243
   30MOL0     H 3960   2.698   2.143   6.171  3.0431 -1.0031 -0.5554
   31MOL0     O 3961   0.915   0.931   4.687  0.3914  0.2969  0.2016
   31MOL0     C 3962   0.791   0.939   4.665 -0.4875  0.3322  0.6828
   31MOL0     O 3963   0.738   0.909   4.537  0.0732 -0.1382  0.4280
   31MOL0     C 3964   0.831   0.856   4.447 -0.0790 -1.3674 -0.1102
   31MOL0     C 3965   0.900   0.733   4.471  0.4785 -0.3328 -0.3426
   31MOL0     C 3966   0.975   0.670   4.366  0.2497  0.0373 -0.2596
   31MOL0     C 3967   0.993   0.744   4.245  0.9261  0.3818  0.4244
   31MOL0     O 3968   1.093   0.697   4.161  0.4728  0.0593 -0.3442
   31MOL0     C 3969   1.149   0.773   4.061 -1.1958 -0.3466 -0.8936
   31MOL0     C 3970   1.264   0.685   4.000  0.1896 -0.4636 -0.3156
   31MOL0     C 3971   1.293   0.703   3.850  0.8155  0.0247  0.0143
   31MOL0     C 3972   1.276   0.854   3.798 -0.1338 -0.1544 -0.9117
   31MOL0     C 3973   1.368   0.859   3.669  0.8030 -0.1462  1.3158
   31MOL0     C 3974   1.340   1.003   3.618 -0.5680  0.0964 -0.0570
   31MOL0     C 3975   1.405   1.036   3.480 -0.5198  0.6116 -0.8477
   31MOL0     C 3976   1.366   1.183   3.450  0.3771 -0.3118 -0.1810
   31MOL0     N 3977   1.248   1.187   3.364  1.0020  1.5343 -0.7891
   31MOL0     C 3978   1.241   1.159   3.232 -0.5586 -0.7523  0.0555
   31MOL0     C 3979   1.111   1.172   3.199 -0.9753 -0.5911  0.7005
   31MOL0     C 3980   1.057   1.166   3.047  0.2152 -0.1803 -0.3561
   31MOL0     C 3981   0.980   1.292   2.998  0.3147  0.5675  0.0396
   31MOL0     C 3982   0.902   1.272   2.866  0.5789 -0.2187  0.1649
   31MOL0     C 3983   0.984   1.268   2.738  0.0564 -0.0085 -0.8680
   31MOL0     O 3984   1.027   1.406   2.721 -0.3584  0.3707  0.5389
   31MOL0     C 3985   1.053   1.441   2.590 -0.3737  0.6349 -0.0785
   31MOL0     C 3986   1.147   1.547   2.592 -0.3583 -0.0612  0.6819
   31MOL0     C 3987   1.183   1.601   2.463  0.5358 -0.6865 -0.1347
   31MOL0     C 3988   1.134   1.553   2.347  0.2457 -0.0086 -0.1225
   31MOL0     C 3989   1.186   1.608   2.215  0.2203  0.0148  0.4793
   31MOL0     O 3990   1.310   1.656   2.197  0.3666 -0.2039  0.0663
   31MOL0     C 3991   1.366   1.673   2.071 -0.4205  0.1053  0.5328
   31MOL0     C 3992   1.295   1.699   1.952  0.6682 -0.5918 -0.1369
   31MOL0     C 3993   1.367   1.707   1.833 -0.1462 -0.3313 -0.4335
   31MOL0     C 3994   1.507   1.701   1.830 -0.2468  0.1514  0.6294
   31MOL0     O 3995   1.555   1.709   1.702  0.3060  0.3756  0.7963
   31MOL0     C 3996   1.572   1.583   1.628 -0.6011 -0.5034 -0.2014
   31MOL0     C 3997   1.703   1.594   1.547  0.6012 -0.0796 -0.0916
   31MOL0     C 3998   1.673   1.685   1.423 -0.8325 -0.3199 -0.4094
   31MOL0     C 3999   1.808   1.701   1.355  0.1328 -0.0679 -0.1719
   31MOL0     C 4000   1.806   1.813   1.242 -0.4198  0.0934 -0.4629
   31MOL0     C 4001   1.935   1.819   1.158  0.3326 -0.3067 -0.1978
   31MOL0     C 4002   1.928   1.896   1.023  0.2141 -1.1747 -0.0485
   31MOL0     C 4003   1.896   2.038   1.050  0.8012 -0.4193 -0.3624
   31MOL0    Cl 4004   2.011   2.125   1.162  0.2098  0.9965 -0.1439
   31MOL0     C 4005   1.578   1.668   1.944 -0.0833  0.4850 -0.6109
   31MOL0     C 4006   1.510   1.655   2.061  0.6456  0.2912 -0.1457
   31MOL0     O 4007   1.110   1.568   2.125  0.3068  0.3941  0.4393
   31MOL0     C 4008   1.030   1.453   2.353 -1.0217  0.4676 -0.1513
   31MOL0     C 4009   0.991   1.392   2.478  0.3091 -0.0184 -0.2083
   31MOL0     N 4010   1.039   1.225   3.304 -0.4128  0.5715 -0.0085
   31MOL0     N 4011   1.120   1.224   3.400 -0.5387 -0.3245 -0.2679
   31MOL0     C 4012   0.916   0.862   4.221  0.2407 -0.1847 -0.9095
   31MOL0     C 4013   0.832   0.918   4.327  0.1155 -0.2217 -0.1836
   31MOL0     C 4014   0.698   0.989   4.764  0.0090  0.5483  0.0185
   31MOL0     C 4015   0.580   1.044   4.728  0.4542  0.4839 -0.1359
   31MOL0     C 4016   0.479   1.076   4.821 -0.2780  0.2515  0.2479
   31MOL0     C 4017   0.505   1.051   4.963  0.0364  0.5522  0.8569
   31MOL0     O 4018   0.414   1.071   5.066 -0.2627 -0.6586 -0.1080
   31MOL0     C 4019   0.330   1.184   5.058  0.5496 -0.6101  0.3828
   31MOL0     C 4020   0.271   1.211   5.199  0.1626 -0.8710 -0.3013
   31MOL0     C 4021   0.245   1.089   5.299  0.8072  0.2815 -0.3435
   31MOL0     C 4022   0.140   1.119   5.408  0.2749  0.1521  0.2952
   31MOL0     C 4023   0.007   1.143   5.355 -0.3272 -0.2582 -0.6121
   31MOL0     C 4024  -0.110   1.177   5.327  0.6645  0.4292  0.6108
   31MOL0     C 4025   0.630   0.996   4.988 -0.4659 -0.7121 -0.4000
   31MOL0     C 4026   0.727   0.973   4.899 -0.5988 -0.1274 -0.3118
   31MOL0     H 4027   0.892   0.685   4.568 -0.3271  1.5933  0.6098
   31MOL0     H 4028   1.033   0.580   4.382 -0.6758 -0.6008 -0.3740
   31MOL0     H 4029   1.192   0.872   4.080  2.9906 -1.6151 -2.5415
   31MOL0     H 4030   1.072   0.777   3.983 -2.1713 -1.0544  0.0190
   31MOL0     H 4031   1.240   0.579   4.013  2.6519 -1.2130 -1.1936
   31MOL0     H 4032   1.358   0.706   4.052  0.0195 -0.4140 -0.0245
   31MOL0     H 4033   1.213   0.649   3.796 -2.6756  4.5243  0.1160
   31MOL0     H 4034   1.389   0.664   3.817 -1.1600 -1.1138 -5.4001
   31MOL0     H 4035   1.171   0.879   3.784 -0.4903  0.5668  2.2188
   31MOL0     H 4036   1.314   0.920   3.876  0.9517 -0.4850 -1.1410
   31MOL0     H 4037   1.336   0.775   3.608  0.4253  1.4668 -0.8008
   31MOL0     H 4038   1.471   0.838   3.699  1.1206 -0.4678  0.0187
   31MOL0     H 4039   1.387   1.066   3.694 -2.0845 -1.3616  2.1918
   31MOL0     H 4040   1.235   1.032   3.630 -0.7188  1.2106 -3.2295
   31MOL0     H 4041   1.513   1.023   3.478 -0.6546 -1.0656  0.5053
   31MOL0     H 4042   1.364   0.971   3.402  2.6258  0.4928 -2.5348
   31MOL0     H 4043   1.452   1.225   3.396  0.4960 -3.1108 -2.4530
   31MOL0     H 4044   1.351   1.245   3.538  2.4301  0.6804 -0.4780
   31MOL0     H 4045   1.310   1.140   3.151  1.1142 -1.9209  1.6862
   31MOL0     H 4046   0.991   1.079   3.043  1.3620 -1.1503  0.9891
   31MOL0     H 4047   1.144   1.156   2.982 -1.2939 -0.8384 -2.3770
   31MOL0     H 4048   1.048   1.377   2.990 -1.4735  2.6109  3.6881
   31MOL0     H 4049   0.909   1.310   3.080 -0.2523  0.0757 -0.3277
   31MOL0     H 4050   0.834   1.187   2.856 -1.8071  1.6395 -0.1119
   31MOL0     H 4051   0.847   1.366   2.867 -1.7067 -1.3558  4.7467
   31MOL0     H 4052   0.922   1.234   2.655 -1.5746 -0.0303  0.3244
   31MOL0     H 4053   1.070   1.203   2.757 -0.8534 -0.1460  4.0792
   31MOL0     H 4054   1.192   1.569   2.689  0.4936  0.6848  0.1392
   31MOL0     H 4055   1.241   1.693   2.457 -0.4146 -0.1012 -0.6067
   31MOL0     H 4056   1.188   1.715   1.950  0.7018 -0.1936 -3.1943
   31MOL0     H 4057   1.310   1.722   1.742 -0.9807  1.5036  0.3354
   31MOL0     H 4058   1.492   1.565   1.556 -2.9469 -3.5389  2.8431
   31MOL0     H 4059   1.562   1.504   1.703 -1.6677 -0.1675  0.0332
   31MOL0     H 4060   1.739   1.497   1.510  0.8568 -1.6583  3.8042
   31MOL0     H 4061   1.776   1.641   1.613  0.0794  1.0005 -0.2702
   31MOL0     H 4062   1.654   1.783   1.466 -1.6212 -1.0687  1.0462
   31MOL0     H 4063   1.599   1.644   1.353 -0.4100 -1.7351 -0.0704
   31MOL0     H 4064   1.880   1.724   1.434 -0.2919  1.4428 -0.1996
   31MOL0     H 4065   1.838   1.606   1.309  1.2802  1.4516 -2.7649
   31MOL0     H 4066   1.786   1.912   1.283  0.2537  0.0319  0.0370
   31MOL0     H 4067   1.728   1.805   1.165 -1.6531 -0.6983  0.8269
   31MOL0     H 4068   1.964   1.715   1.140  0.6181 -0.3603  0.5677
   31MOL0     H 4069   2.012   1.850   1.229 -3.8960  4.0804  3.1760
   31MOL0     H 4070   2.025   1.900   0.973 -1.8236  1.5502 -4.4242
   31MOL0     H 4071   1.842   1.860   0.966 -1.3954  0.9339  0.8797
   31MOL0     H 4072   1.795   2.044   1.091  0.4443 -1.2303 -1.0793
   31MOL0     H 4073   1.896   2.092   0.955  1.1987  1.9230  0.8798
   31MOL0     H 4074   1.685   1.654   1.940 -0.2905 -3.6832  1.8296
   31MOL0     H 4075   1.559   1.639   2.156 -1.0859 -1.3054  0.5328
   31MOL0     H 4076   0.986   1.429   2.257  4.0392  0.9668 -2.9824
   31MOL0     H 4077   0.912   1.317   2.472  0.2136 -0.1313  1.7661
   31MOL0     H 4078   0.919   0.920   4.130 -1.5290 -3.5506 -3.3338
   31MOL0     H 4079   0.765   0.998   4.298  0.7043 -0.0137 -1.0071
   31MOL0     H 4080   0.557   1.077   4.627  1.6859  0.7977 -0.3374
   31MOL0     H 4081   0.385   1.110   4.778 -0.0524 -1.2947 -1.6032
   31MOL0     H 4082   0.251   1.151   4.990  2.2066 -0.5697 -1.6411
   31MOL0     H 4083   0.386   1.267   5.015  2.6174 -2.1903 -0.1488
   31MOL0     H 4084   0.324   1.288   5.256  0.2536 -1.6164  0.6606
   31MOL0     H 4085   0.173   1.254   5.179 -0.0836 -2.2372 -2.3935
   31MOL0     H 4086   0.341   1.057   5.341  1.4874  0.4176 -1.7527
   31MOL0     H 4087   0.210   1.003   5.242  0.9622  0.2247 -0.3542
   31MOL0     H 4088   0.134   1.027   5.467 -1.8887 -0.4112 -0.7205
   31MOL0     H 4089   0.194   1.201   5.457  0.1796  0.4116 -0.0283
   31MOL0     H 4090  -0.214   1.201   5.325  1.0307  2.1040  0.4070
   31MOL0     H 4091   0.648   0.981   5.094  2.0359 -1.1901 -0.8379
   31MOL0     H 4092   0.814   0.938   4.952  0.1992  3.1787  0.8035
   32MOL0     O 4093   2.156   7.918   8.554  1.0118 -1.1976  0.0719
   32MOL0     C 4094   2.207   8.027   8.519  0.3067 -0.5493 -0.5726
   32MOL0     O 4095   2.183   8.158   8.576 -0.0859  0.0582 -0.4173
   32MOL0     C 4096   2.101   8.180   8.686 -0.2116  0.2395  0.5488
   32MOL0     C 4097   2.026   8.298   8.684 -0.4139  0.1650  0.3804
   32MOL0     C 4098   1.947   8.328   8.794  0.0685 -0.3148  1.3003
   32MOL0     C 4099   1.948   8.241   8.902  0.8531 -0.1292  0.1120
   32MOL0     O 4100   1.883   8.262   9.019 -0.5559 -0.7464 -0.2899
   32MOL0     C 4101   1.866   8.397   9.055  0.0510 -0.2264  0.7081
   32MOL0     C 4102   1.784   8.407   9.187 -0.4931 -0.6592  0.9679
   32MOL0     C 4103   1.747   8.551   9.210  0.4379 -0.5617  0.0947
   32MOL0     C 4104   1.620   8.563   9.296  1.5011 -0.7715  0.1171
   32MOL0     C 4105   1.635   8.501   9.443  0.0687  0.6235  0.2436
   32MOL0     C 4106   1.489   8.494   9.500 -0.0105 -0.1467 -0.2093
   32MOL0     C 4107   1.425   8.627   9.535  0.1742  0.6820 -0.2634
   32MOL0     C 4108   1.283   8.623   9.577  0.0959 -1.7202 -0.4949
   32MOL0     N 4109   1.263   8.589   9.723  0.1999  0.5629  0.4182
   32MOL0     C 4110   1.148   8.534   9.767  0.6339  0.7172 -0.2471
   32MOL0     C 4111   1.180   8.486   9.889  0.3382 -0.2169 -1.2805
   32MOL0     C 4112   1.084   8.407   9.970  0.8775  0.1063 -0.6439
   32MOL0     C 4113   1.038   8.273   9.911 -0.5646  0.6488  0.6850
   32MOL0     C 4114   1.129   8.149   9.947 -0.0168  0.4440 -0.1113
   32MOL0     C 4115   1.267   8.161   9.882  0.1852 -0.4815 -1.0256
   32MOL0     O 4116   1.255   8.143   9.738 -0.1272  0.0869 -0.1778
   32MOL0     C 4117   1.372   8.131   9.663  0.5289 -0.2206 -0.3977
   32MOL0     C 4118   1.357   8.143   9.522 -0.0493 -0.3661  0.4110
   32MOL0     C 4119   1.464   8.109   9.434  0.0178  0.0220  0.1302
   32MOL0     C 4120   1.589   8.070   9.478  0.8190  0.1356 -0.6827
   32MOL0     C 4121   1.699   8.044   9.384  0.0029  0.2718  0.0689
   32MOL0     O 4122   1.818   8.033   9.431  0.9105  0.5577  0.1024
   32MOL0     C 4123   1.922   7.972   9.358 -0.1511  0.2343  0.4254
   32MOL0     C 4124   2.010   8.049   9.288  0.6195 -0.5085 -0.7466
   32MOL0     C 4125   2.120   7.998   9.215  0.4749 -0.7503  0.7978
   32MOL0     C 4126   2.136   7.857   9.199  0.0355  0.6501  0.1420
   32MOL0     O 4127   2.245   7.807   9.130  0.7582  0.1804  0.2826
   32MOL0     C 4128   2.286   7.670   9.128 -0.2253  0.0557 -0.6683
   32MOL0     C 4129   2.374   7.636   9.251 -0.1260 -0.3753 -0.3150
   32MOL0     C 4130   2.419   7.483   9.261  0.5375 -0.2278  0.7311
   32MOL0     C 4131   2.530   7.454   9.361 -0.1459 -0.2529  0.5779
   32MOL0     C 4132   2.482   7.474   9.508 -0.2060  0.4687  1.1948
   32MOL0     C 4133   2.572   7.402   9.606 -0.0520  0.4664  0.0164
   32MOL0     C 4134   2.706   7.467   9.605 -0.6776 -1.0871  0.1805
   32MOL0     C 4135   2.788   7.389   9.704 -0.0823  0.2984  0.3967
   32MOL0    Cl 4136   2.797   7.224   9.670  0.3827  0.1807  0.0937
   32MOL0     C 4137   2.032   7.777   9.265 -0.5530 -0.1385  0.8817
   32MOL0     C 4138   1.928   7.828   9.343 -0.0380 -0.2051 -0.3214
   32MOL0     O 4139   1.664   8.027   9.267 -0.5083  0.2472 -0.8366
   32MOL0     C 4140   1.598   8.060   9.616 -0.4624 -2.0039  0.2926
   32MOL0     C 4141   1.495   8.094   9.712 -1.0947 -0.0056  0.3767
   32MOL0     N 4142   1.311   8.524   9.914  0.0290  0.0408  0.2124
   32MOL0     N 4143   1.354   8.597   9.819 -0.1286  0.0344 -0.2103
   32MOL0     C 4144   2.026   8.127   8.902 -0.5469  0.3379 -0.5122
   32MOL0     C 4145   2.092   8.096   8.786  0.1228  0.3463  0.0148
   32MOL0     C 4146   2.314   8.017   8.412  0.9407 -1.0275 -0.3661
   32MOL0     C 4147   2.311   7.926   8.304 -0.7034  0.9786  1.2374
   32MOL0     C 4148   2.412   7.931   8.209  0.5171  0.2261  0.0528
   32MOL0     C 4149   2.520   8.021   8.216  0.6363 -0.0529 -0.0997
   32MOL0     O 4150   2.617   8.030   8.114 -0.3644  0.1195 -0.0784
   32MOL0     C 4151   2.731   8.119   8.123  0.4114  0.9352 -0.4076
   32MOL0     C 4152   2.844   8.084   8.224  0.4553  0.4009  0.7479
   32MOL0     C 4153   2.954   8.010   8.147  0.6163 -0.1183  0.6907
   32MOL0     C 4154   2.955   7.868   8.208  0.0390 -0.5102 -0.3149
   32MOL0     C 4155   3.078   7.792   8.170  0.4374 -0.1887 -0.1965
   32MOL0     C 4156   3.188   7.748   8.179  0.6257 -0.5995 -0.2205
   32MOL0     C 4157   2.515   8.115   8.323  0.4378 -0.7054 -0.2287
   32MOL0     C 4158   2.412   8.114   8.420 -0.0344 -0.5447  0.5256
   32MOL0     H 4159   2.020   8.358   8.594 -1.8728  0.5131  0.7004
   32MOL0     H 4160   1.905   8.429   8.795  1.2249  0.2298 -0.5353
   32MOL0     H 4161   1.813   8.455   8.979  0.1758 -1.9748 -0.7746
   32MOL0     H 4162   1.967   8.439   9.061 -0.3693  1.1946 -1.2424
   32MOL0     H 4163   1.848   8.369   9.268  1.8577 -2.4803 -1.5713
   32MOL0     H 4164   1.691   8.352   9.174 -1.3225  1.2265 -2.0066
   32MOL0     H 4165   1.710   8.580   9.112 -0.9279  0.5533  0.9100
   32MOL0     H 4166   1.826   8.619   9.245  2.8171 -3.0207 -0.1453
   32MOL0     H 4167   1.589   8.668   9.299  0.4025 -1.0150 -1.3636
   32MOL0     H 4168   1.540   8.512   9.242  1.2751  1.0002 -1.3104
   32MOL0     H 4169   1.701   8.566   9.501  1.8419  0.0413 -1.0621
   32MOL0     H 4170   1.677   8.400   9.435 -0.7735  0.4019 -2.2433
   32MOL0     H 4171   1.498   8.434   9.590 -1.8398 -1.7833 -1.0358
   32MOL0     H 4172   1.416   8.447   9.434 -2.0945 -1.2677  2.7074
   32MOL0     H 4173   1.487   8.676   9.611 -1.4397  2.1822  0.1729
   32MOL0     H 4174   1.430   8.696   9.451 -2.0386  3.1299  1.4442
   32MOL0     H 4175   1.217   8.566   9.511 -3.4631 -1.4894  2.5566
   32MOL0     H 4176   1.247   8.725   9.564 -1.2501 -2.4895 -3.8014
   32MOL0     H 4177   1.062   8.499   9.710  2.7416 -2.8816 -1.5408
   32MOL0     H 4178   0.995   8.470   9.968  0.2889 -0.7092 -0.8555
   32MOL0     H 4179   1.111   8.390  10.074  1.5141  0.6481 -0.7179
   32MOL0     H 4180   1.030   8.275   9.802 -2.6490 -2.7027  0.6264
   32MOL0     H 4181   0.936   8.258   9.948  0.4086 -3.7072  2.2282
   32MOL0     H 4182   1.133   8.142  10.056 -2.6899  3.8750  0.3872
   32MOL0     H 4183   1.080   8.056   9.919  0.0640 -0.4022  2.3084
   32MOL0     H 4184   1.330   8.085   9.929  0.2356  1.1402  1.7703
   32MOL0     H 4185   1.319   8.256   9.901  0.1546 -0.9372  1.8062
   32MOL0     H 4186   1.260   8.178   9.489 -0.1955 -0.3726  0.8257
   32MOL0     H 4187   1.448   8.122   9.328 -3.6376  0.3857  0.5855
   32MOL0     H 4188   1.998   8.157   9.289  0.4917 -0.5268 -0.1337
   32MOL0     H 4189   2.191   8.059   9.159 -1.0017 -1.1985 -1.6810
   32MOL0     H 4190   2.341   7.653   9.035 -4.6417  0.7805 -3.7628
   32MOL0     H 4191   2.194   7.610   9.121 -1.6023  1.7395  1.5672
   32MOL0     H 4192   2.322   7.669   9.342 -1.1713 -1.5936 -0.4514
   32MOL0     H 4193   2.463   7.699   9.246 -0.5982  0.4511  1.0244
   32MOL0     H 4194   2.454   7.451   9.163  1.1313  0.4428  0.7100
   32MOL0     H 4195   2.329   7.425   9.282  0.0327 -0.4318 -1.6998
   32MOL0     H 4196   2.562   7.351   9.346  4.4268  1.1848 -1.1404
   32MOL0     H 4197   2.622   7.509   9.342 -0.2599 -0.3331 -0.2440
   32MOL0     H 4198   2.388   7.417   9.514  0.2493 -0.2045  2.2383
   32MOL0     H 4199   2.465   7.576   9.542 -1.2101  0.1521  1.7074
   32MOL0     H 4200   2.584   7.297   9.580  3.0761  0.6070  0.4753
   32MOL0     H 4201   2.538   7.410   9.709  2.3794  0.4892  0.8838
   32MOL0     H 4202   2.756   7.465   9.508  0.8367 -0.9587  0.9163
   32MOL0     H 4203   2.693   7.568   9.644  1.0608 -1.9051  3.3051
   32MOL0     H 4204   2.752   7.405   9.806  0.4467 -0.6633  0.7480
   32MOL0     H 4205   2.891   7.425   9.712 -0.2247  0.1757  4.8668
   32MOL0     H 4206   2.025   7.670   9.251 -1.7858  0.1760 -1.3393
   32MOL0     H 4207   1.849   7.763   9.380 -0.3186  2.4450  4.5116
   32MOL0     H 4208   1.694   8.029   9.656  1.6380  0.2290 -2.6051
   32MOL0     H 4209   1.507   8.098   9.820  0.3224 -0.2285  0.2542
   32MOL0     H 4210   2.004   8.062   8.987 -1.1645 -1.7500 -2.1866
   32MOL0     H 4211   2.148   8.004   8.769 -2.0231 -0.5372 -3.1308
   32MOL0     H 4212   2.225   7.861   8.302  0.2420 -0.3093  1.5078
   32MOL0     H 4213   2.399   7.868   8.122 -0.2323  0.7064 -0.1899
   32MOL0     H 4214   2.683   8.216   8.144 -1.5490 -0.2285  0.8864
   32MOL0     H 4215   2.769   8.119   8.021  0.6911  2.6499 -0.3443
   32MOL0     H 4216   2.875   8.182   8.261 -3.7126  2.3357 -0.3514
   32MOL0     H 4217   2.808   8.019   8.304  2.7868 -1.2406  0.5704
   32MOL0     H 4218   3.043   8.063   8.184 -1.4511  3.8223  0.5404
   32MOL0     H 4219   2.953   8.012   8.037 -0.1894 -2.0285  0.6339
   32MOL0     H 4220   2.954   7.876   8.317  2.9209  1.5205 -0.3392
   32MOL0     H 4221   2.858   7.819   8.191 -0.0208 -1.8917  3.1011
   32MOL0     H 4222   3.292   7.730   8.162  0.7599 -1.6906  1.4372
   32MOL0     H 4223   2.597   8.185   8.340  1.3434 -1.8155  0.0866
   32MOL0     H 4224   2.404   8.174   8.510 -3.0487  2.9689 -1.7787
   33MOL0     O 4225   2.215   2.868   2.852 -0.8528  0.3680 -0.2394
   33MOL0     C 4226   2.241   2.965   2.925 -0.8672  0.6158  0.3735
   33MOL0     O 4227   2.369   3.001   2.961  0.6677 -0.3698 -1.5059
   33MOL0     C 4228   2.461   2.906   2.969 -0.9036  0.5641  0.4033
   33MOL0     C 4229   2.532   2.879   2.849  0.2850  0.1175  1.0765
   33MOL0     C 4230   2.619   2.775   2.845  0.5074  1.3375  0.5209
   33MOL0     C 4231   2.647   2.698   2.961  0.2105  0.3428 -0.0095
   33MOL0     O 4232   2.742   2.605   2.950  0.1311 -0.1439  0.6695
   33MOL0     C 4233   2.761   2.504   3.054  0.0365  0.5255  0.2353
   33MOL0     C 4234   2.805   2.382   2.973  0.3927 -0.6662 -0.4455
   33MOL0     C 4235   2.879   2.284   3.066  0.1424  0.7033 -1.6815
   33MOL0     C 4236   2.950   2.173   2.983  0.7843 -1.0118  0.4276
   33MOL0     C 4237   2.982   2.047   3.071 -0.4199  0.6633 -0.5145
   33MOL0     C 4238   3.017   1.920   2.989  0.2368  0.3941  0.3130
   33MOL0     C 4239   2.894   1.846   2.954 -0.1933 -0.0476  0.5415
   33MOL0     C 4240   2.913   1.723   2.859 -0.3587  1.1461  0.0538
   33MOL0     N 4241   2.909   1.602   2.942 -1.1779 -0.1321 -0.3677
   33MOL0     C 4242   2.803   1.533   3.005 -0.0386 -0.2750  0.9946
   33MOL0     C 4243   2.869   1.435   3.065 -0.4469  0.7015  0.2931
   33MOL0     C 4244   2.797   1.347   3.158  0.2542 -0.2362 -0.1466
   33MOL0     C 4245   2.825   1.403   3.298 -0.0487 -0.0635 -0.1007
   33MOL0     C 4246   2.794   1.308   3.406  0.4190 -0.2681  0.1753
   33MOL0     C 4247   2.913   1.214   3.427  0.3270 -0.6746 -0.0592
   33MOL0     O 4248   2.894   1.145   3.549 -0.0787 -0.3673  0.0226
   33MOL0     C 4249   2.914   1.012   3.551  0.7679 -0.7446  0.3210
   33MOL0     C 4250   2.854   0.956   3.667 -0.4201  0.1262 -0.5174
   33MOL0     C 4251   2.876   0.820   3.697  0.8534 -0.8557 -0.1000
   33MOL0     C 4252   2.949   0.738   3.611 -0.6841 -0.1255  0.0220
   33MOL0     C 4253   2.970   0.594   3.664  0.7758  0.1485 -0.1250
   33MOL0     O 4254   2.890   0.552   3.767 -0.2600 -0.0091 -0.6492
   33MOL0     C 4255   2.922   0.430   3.816  0.7637 -0.2278  0.2324
   33MOL0     C 4256   2.900   0.321   3.737 -0.0321 -0.5240 -0.8867
   33MOL0     C 4257   2.901   0.185   3.784 -0.3406  0.5643  0.8666
   33MOL0     C 4258   2.933   0.167   3.916  0.2270 -0.8625 -1.0880
   33MOL0     O 4259   2.930   0.043   3.985 -0.0922 -0.2832  0.6673
   33MOL0     C 4260   2.903  -0.080   3.917 -0.1189 -0.2601 -0.2118
   33MOL0     C 4261   3.028  -0.158   3.890 -0.3833  0.2247 -0.2722
   33MOL0     C 4262   3.119  -0.167   4.009 -0.4483  0.7830 -0.1545
   33MOL0     C 4263   3.256  -0.232   3.976  0.1720  0.6748 -0.2560
   33MOL0     C 4264   3.330  -0.264   4.113  0.2806 -0.4201 -1.0252
   33MOL0     C 4265   3.473  -0.293   4.102 -0.1398  0.3156  0.2086
   33MOL0     C 4266   3.549  -0.315   4.242  0.3098  0.0935  0.2041
   33MOL0     C 4267   3.700  -0.280   4.237  0.4068  1.4724  1.2133
   33MOL0    Cl 4268   3.715  -0.106   4.211 -0.1391  0.4379  0.1094
   33MOL0     C 4269   2.976   0.281   3.990 -0.3316 -0.4480 -0.3861
   33MOL0     C 4270   2.967   0.413   3.944 -0.3854 -0.2007 -1.2752
   33MOL0     O 4271   3.061   0.533   3.610 -0.5844  0.1110 -0.5921
   33MOL0     C 4272   3.009   0.794   3.497 -0.2887  0.9224  0.8560
   33MOL0     C 4273   2.987   0.931   3.467  0.3367 -0.0696  0.2999
   33MOL0     N 4274   2.998   1.432   3.035 -0.0472  0.0520  0.4515
   33MOL0     N 4275   3.023   1.527   2.952 -0.7003  0.6870  0.7565
   33MOL0     C 4276   2.592   2.738   3.086  0.3166  1.2670  0.0816
   33MOL0     C 4277   2.502   2.840   3.085 -0.3379 -0.6697 -0.2001
   33MOL0     C 4278   2.136   3.062   2.936 -0.4210  0.9481 -0.3783
   33MOL0     C 4279   2.146   3.197   2.904 -0.2569 -0.1225 -0.1926
   33MOL0     C 4280   2.046   3.286   2.908  0.0368 -1.2404  0.2668
   33MOL0     C 4281   1.912   3.243   2.924 -0.1931 -0.2714 -0.5120
   33MOL0     O 4282   1.803   3.331   2.924 -0.4934 -0.4414  0.2240
   33MOL0     C 4283   1.816   3.464   2.853 -0.0040 -1.0519 -1.0926
   33MOL0     C 4284   1.797   3.453   2.700  0.4806  0.5187 -0.2198
   33MOL0     C 4285   1.667   3.388   2.658  0.4254  0.4100 -0.4939
   33MOL0     C 4286   1.662   3.342   2.511 -0.1381 -0.7717  0.4650
   33MOL0     C 4287   1.530   3.301   2.467 -0.0596  0.5815  0.3849
   33MOL0     C 4288   1.426   3.253   2.429 -0.1121  0.0903 -0.9259
   33MOL0     C 4289   1.893   3.106   2.946  0.3751  0.4003 -0.3606
   33MOL0     C 4290   2.004   3.016   2.960 -0.2066  0.4630 -1.2716
   33MOL0     H 4291   2.523   2.941   2.760  1.1988  1.2680  1.7602
   33MOL0     H 4292   2.658   2.738   2.750 -1.6412  0.5914 -0.1367
   33MOL0     H 4293   2.673   2.475   3.112  2.3856 -1.1676  3.2567
   33MOL0     H 4294   2.843   2.538   3.119 -1.5638  1.0288  2.0692
   33MOL0     H 4295   2.879   2.412   2.898  0.2369  0.5031 -0.1478
   33MOL0     H 4296   2.721   2.333   2.924  1.0700 -0.0501 -2.3272
   33MOL0     H 4297   2.799   2.246   3.130  0.8929  4.4863  1.9528
   33MOL0     H 4298   2.949   2.335   3.132 -0.2011 -1.3646  0.4183
   33MOL0     H 4299   2.874   2.153   2.907  2.3581  0.4486 -1.6558
   33MOL0     H 4300   3.044   2.203   2.937  0.6120 -1.6855 -0.3788
   33MOL0     H 4301   2.896   2.021   3.133 -1.6168  2.7111 -1.2056
   33MOL0     H 4302   3.073   2.074   3.126  0.8726 -2.4980 -0.8606
   33MOL0     H 4303   3.075   1.853   3.054  2.2558  0.7252 -1.0493
   33MOL0     H 4304   3.068   1.946   2.896 -2.6268 -0.2604 -1.5670
   33MOL0     H 4305   2.833   1.816   3.040 -0.4987  1.1533  0.7629
   33MOL0     H 4306   2.826   1.909   2.896 -0.6914  0.6134  1.8047
   33MOL0     H 4307   3.012   1.737   2.815 -0.4925  0.2806 -0.5306
   33MOL0     H 4308   2.837   1.710   2.782  0.7032 -1.1516 -0.6965
   33MOL0     H 4309   2.697   1.557   3.002  0.4786  2.1927  0.8564
   33MOL0     H 4310   2.819   1.244   3.127  1.3198  0.6930 -2.7514
   33MOL0     H 4311   2.689   1.350   3.138  0.5208 -0.9300 -1.8460
   33MOL0     H 4312   2.770   1.497   3.298 -0.6744 -0.3893 -1.6488
   33MOL0     H 4313   2.928   1.438   3.305  0.2618 -0.6323 -1.4860
   33MOL0     H 4314   2.790   1.372   3.495  2.4144  0.6070 -0.3017
   33MOL0     H 4315   2.694   1.266   3.392  0.0564  0.3889  0.6917
   33MOL0     H 4316   3.006   1.268   3.448  0.6161 -1.8623  1.9792
   33MOL0     H 4317   2.926   1.149   3.340  0.0950  0.1763 -0.7418
   33MOL0     H 4318   2.801   1.007   3.747 -2.3910 -2.0307 -0.3309
   33MOL0     H 4319   2.826   0.777   3.784 -0.3234 -1.7148 -1.1534
   33MOL0     H 4320   2.878   0.341   3.633  1.3930 -0.1689 -1.1355
   33MOL0     H 4321   2.894   0.107   3.710 -1.4658  1.1900  0.2880
   33MOL0     H 4322   2.842  -0.062   3.828  2.5426 -1.5844 -2.4624
   33MOL0     H 4323   2.857  -0.135   4.000 -2.0433  0.4553 -0.7591
   33MOL0     H 4324   3.084  -0.109   3.810  2.5831 -1.9507  0.3183
   33MOL0     H 4325   2.997  -0.256   3.853 -1.3639  1.5734 -3.3115
   33MOL0     H 4326   3.066  -0.229   4.082 -0.4180  1.1448  0.1795
   33MOL0     H 4327   3.135  -0.074   4.064 -2.2904  1.3817 -0.5643
   33MOL0     H 4328   3.236  -0.319   3.912 -2.0406  0.3143  0.8475
   33MOL0     H 4329   3.327  -0.171   3.920  2.5427 -1.3662  0.3256
   33MOL0     H 4330   3.280  -0.329   4.186 -2.7377  1.4346 -1.2851
   33MOL0     H 4331   3.341  -0.164   4.156  0.5164 -1.7756  2.3841
   33MOL0     H 4332   3.514  -0.203   4.054  2.0965  0.1024  1.5910
   33MOL0     H 4333   3.491  -0.380   4.038  2.0851  0.6743  0.2883
   33MOL0     H 4334   3.501  -0.253   4.319  0.7203  0.0007  0.5395
   33MOL0     H 4335   3.530  -0.419   4.270 -1.3546 -0.9983 -4.1643
   33MOL0     H 4336   3.755  -0.330   4.157 -0.7656  1.5644  0.3259
   33MOL0     H 4337   3.748  -0.307   4.331  2.4031  0.9272  0.0925
   33MOL0     H 4338   2.993   0.254   4.093 -0.2882 -1.7093 -0.7016
   33MOL0     H 4339   2.969   0.497   4.013 -3.0286 -2.2711  1.6274
   33MOL0     H 4340   3.069   0.731   3.432  1.5803  1.4442  1.9757
   33MOL0     H 4341   3.040   0.965   3.379  5.1951 -1.8770  2.1921
   33MOL0     H 4342   2.617   2.693   3.182  1.5707  0.8815 -0.3977
   33MOL0     H 4343   2.475   2.887   3.179  0.3240  0.8308 -0.7188
   33MOL0     H 4344   2.244   3.238   2.882 -0.3393 -0.1861 -0.6854
   33MOL0     H 4345   2.085   3.387   2.905  3.4099 -2.4231  0.3026
   33MOL0     H 4346   1.921   3.495   2.865 -0.2421  0.6343 -2.8737
   33MOL0     H 4347   1.741   3.535   2.888  0.6125 -2.6108  4.1110
   33MOL0     H 4348   1.799   3.551   2.651  1.4604  0.1854 -0.8870
   33MOL0     H 4349   1.884   3.402   2.657  0.6669 -1.3338  2.1391
   33MOL0     H 4350   1.587   3.457   2.686  1.7549  2.1248 -0.7317
   33MOL0     H 4351   1.640   3.302   2.719 -0.1764  1.1591  0.3222
   33MOL0     H 4352   1.689   3.432   2.455 -3.1497  0.8944  1.4793
   33MOL0     H 4353   1.738   3.265   2.494  2.6751  2.4713 -3.5386
   33MOL0     H 4354   1.321   3.235   2.421 -0.4255  1.5395 -0.3793
   33MOL0     H 4355   1.792   3.067   2.947  1.0640 -1.4893 -1.2260
   33MOL0     H 4356   1.983   2.910   2.959  0.9329  0.2261 -1.5364
   34MOL0     O 4357   3.135   7.698   0.180 -0.3296  0.2154 -0.3189
   34MOL0     C 4358   3.190   7.668   0.289  0.7482  0.0654  0.9940
   34MOL0     O 4359   3.138   7.682   0.412 -0.4400  0.4833  0.4714
   34MOL0     C 4360   3.030   7.765   0.424 -0.4304  0.4490  0.2038
   34MOL0     C 4361   2.907   7.696   0.450 -0.0570 -0.3389  1.1489
   34MOL0     C 4362   2.786   7.763   0.444  0.0448  0.1120  0.7411
   34MOL0     C 4363   2.776   7.907   0.432 -0.8238  0.6942  0.3642
   34MOL0     O 4364   2.651   7.962   0.437 -0.2108  0.4506 -0.9271
   34MOL0     C 4365   2.627   8.098   0.483 -0.2428 -0.2077  0.3223
   34MOL0     C 4366   2.659   8.132   0.632  1.5495 -0.1534  0.9549
   34MOL0     C 4367   2.613   8.270   0.662  0.1928  1.3612  0.1012
   34MOL0     C 4368   2.704   8.381   0.608  0.2124 -0.7435  0.8481
   34MOL0     C 4369   2.635   8.515   0.632  0.8313  0.0361  0.2099
   34MOL0     C 4370   2.704   8.640   0.569  0.3189  0.0399  0.4655
   34MOL0     C 4371   2.623   8.764   0.570  0.3239  0.0568 -0.4938
   34MOL0     C 4372   2.628   8.812   0.718 -0.5276  0.0260 -0.1213
   34MOL0     N 4373   2.542   8.931   0.732 -0.1145 -0.1230  0.4591
   34MOL0     C 4374   2.575   9.065   0.768 -0.6339  0.0287 -1.2079
   34MOL0     C 4375   2.456   9.122   0.783 -0.0887 -0.0185  0.1723
   34MOL0     C 4376   2.422   9.270   0.796  1.0175  0.1685 -0.6285
   34MOL0     C 4377   2.291   9.274   0.880 -0.1115  0.5914  0.0927
   34MOL0     C 4378   2.235   9.420   0.906 -0.4273 -0.6270 -0.3053
   34MOL0     C 4379   2.313   9.513   0.988  0.4936 -0.6225  0.8526
   34MOL0     O 4380   2.349   9.446   1.111 -0.2094  0.3752 -0.3577
   34MOL0     C 4381   2.414   9.514   1.211  0.1306  0.7174 -0.2837
   34MOL0     C 4382   2.454   9.447   1.333  0.6156  0.2139 -0.6921
   34MOL0     C 4383   2.519   9.512   1.433  0.8840  0.2583  0.3936
   34MOL0     C 4384   2.558   9.648   1.430 -1.2928  0.3597  0.6395
   34MOL0     C 4385   2.627   9.695   1.548  0.3875  0.5329 -0.2467
   34MOL0     O 4386   2.620   9.614   1.660 -0.6149 -0.0951 -0.0333
   34MOL0     C 4387   2.695   9.662   1.764  0.2409  0.7887  0.1889
   34MOL0     C 4388   2.841   9.669   1.764 -0.6381 -0.3643 -0.4176
   34MOL0     C 4389   2.917   9.705   1.874 -0.8392  0.1812 -0.6740
   34MOL0     C 4390   2.852   9.728   2.001  0.3384 -0.7040  0.1789
   34MOL0     O 4391   2.901   9.751   2.125  0.0743 -0.1799  0.0519
   34MOL0     C 4392   3.041   9.748   2.154 -0.8832 -0.4119 -0.0820
   34MOL0     C 4393   3.072   9.717   2.298  0.2888  0.3011  0.3993
   34MOL0     C 4394   3.046   9.846   2.384  0.0012  0.0479  0.0183
   34MOL0     C 4395   3.093   9.831   2.521 -0.3084  0.4983  0.0584
   34MOL0     C 4396   3.072   9.963   2.606 -0.1627  0.3595  0.4842
   34MOL0     C 4397   3.106   9.947   2.754  0.0222 -0.2725  0.6993
   34MOL0     C 4398   3.264   9.928   2.756  0.0043  0.3606  0.0584
   34MOL0     C 4399   3.311   9.919   2.910  0.8783  0.2307 -0.7953
   34MOL0    Cl 4400   3.355  10.100   2.952  0.2910 -0.1251 -0.2672
   34MOL0     C 4401   2.709   9.721   2.001  0.4099  0.3583 -1.5200
   34MOL0     C 4402   2.634   9.688   1.890  0.2424  1.0839  0.5597
   34MOL0     O 4403   2.704   9.784   1.530 -0.6531 -0.3091 -0.6516
   34MOL0     C 4404   2.534   9.717   1.305  1.4307  0.0617 -0.9922
   34MOL0     C 4405   2.457   9.651   1.204  0.8136  0.1198  0.2586
   34MOL0     N 4406   2.357   9.031   0.751 -0.1895  0.2738  0.2433
   34MOL0     N 4407   2.414   8.915   0.714  0.5594 -0.2142 -0.0141
   34MOL0     C 4408   2.894   7.980   0.433  0.4181 -0.3311  0.5779
   34MOL0     C 4409   3.017   7.910   0.425 -0.9512  0.1897 -0.0767
   34MOL0     C 4410   3.330   7.611   0.275  0.5268  0.8860  1.2158
   34MOL0     C 4411   3.395   7.595   0.146 -0.9351 -0.3259 -0.5509
   34MOL0     C 4412   3.514   7.520   0.143  0.4049  0.5367  0.2473
   34MOL0     C 4413   3.578   7.469   0.252 -0.1568 -0.2409 -1.0157
   34MOL0     O 4414   3.697   7.397   0.242 -0.0696 -0.2922 -0.8546
   34MOL0     C 4415   3.741   7.322   0.359 -0.4918  0.3154  0.3122
   34MOL0     C 4416   3.872   7.237   0.346 -0.2396 -0.2391 -0.6330
   34MOL0     C 4417   4.004   7.325   0.362 -0.2233  0.1741  0.8855
   34MOL0     C 4418   4.031   7.403   0.226  0.7910  0.3461  0.5603
   34MOL0     C 4419   4.113   7.332   0.125 -0.0372  0.9106  0.1810
   34MOL0     C 4420   4.157   7.247   0.050  0.4690 -0.3800 -0.2479
   34MOL0     C 4421   3.512   7.492   0.377 -0.1361  0.4344  0.7726
   34MOL0     C 4422   3.390   7.564   0.386  0.2202 -0.4370  0.0402
   34MOL0     H 4423   2.896   7.588   0.453  0.4097 -0.4678 -0.7200
   34MOL0     H 4424   2.696   7.708   0.418  1.0058 -1.1166 -0.0895
   34MOL0     H 4425   2.520   8.108   0.464  0.0222  1.0452 -0.6428
   34MOL0     H 4426   2.689   8.155   0.414  0.1458 -4.3308 -3.1417
   34MOL0     H 4427   2.764   8.112   0.654  1.0711 -2.2991  1.4581
   34MOL0     H 4428   2.596   8.074   0.699  4.3458 -0.5032  3.4822
   34MOL0     H 4429   2.606   8.268   0.771 -1.7593 -0.6701  0.0203
   34MOL0     H 4430   2.513   8.280   0.620  1.2574  0.2743 -3.0290
   34MOL0     H 4431   2.798   8.386   0.664  0.6752  0.5652 -0.0017
   34MOL0     H 4432   2.722   8.361   0.502  0.8556 -0.6901  0.9453
   34MOL0     H 4433   2.622   8.530   0.739  1.3416  0.0314  0.2777
   34MOL0     H 4434   2.534   8.507   0.591  1.4502 -0.2529 -1.3343
   34MOL0     H 4435   2.730   8.618   0.465 -3.0015  1.2148 -0.7267
   34MOL0     H 4436   2.795   8.656   0.629  0.6697  0.7779 -0.2403
   34MOL0     H 4437   2.671   8.845   0.514  0.0992  0.8348  0.3958
   34MOL0     H 4438   2.521   8.738   0.540  0.6973 -1.7584 -0.2559
   34MOL0     H 4439   2.728   8.849   0.741  0.1541 -1.2496 -0.9228
   34MOL0     H 4440   2.578   8.742   0.786 -2.4637  1.1009 -0.3413
   34MOL0     H 4441   2.672   9.109   0.790 -0.3894 -0.8366 -0.4543
   34MOL0     H 4442   2.414   9.326   0.702  2.5283  1.8151  0.1790
   34MOL0     H 4443   2.504   9.316   0.851  1.9588 -0.2290 -1.6593
   34MOL0     H 4444   2.311   9.233   0.979 -0.7429  2.0807  0.8581
   34MOL0     H 4445   2.216   9.213   0.828  3.4536 -2.1340 -2.3511
   34MOL0     H 4446   2.217   9.458   0.805 -3.2321 -2.5387 -0.6397
   34MOL0     H 4447   2.134   9.423   0.948 -0.6079 -2.7876 -0.4627
   34MOL0     H 4448   2.277   9.616   1.002 -2.4612 -1.4317 -0.0622
   34MOL0     H 4449   2.404   9.524   0.928 -0.4147  0.0519 -0.4515
   34MOL0     H 4450   2.430   9.343   1.351  0.5903  0.4049  0.4781
   34MOL0     H 4451   2.568   9.449   1.507 -1.7869 -3.1203 -0.4448
   34MOL0     H 4452   2.895   9.635   1.677  1.9274  0.6095  0.6762
   34MOL0     H 4453   3.024   9.711   1.857 -0.3872  0.2590  1.8692
   34MOL0     H 4454   3.094   9.840   2.127 -1.2222  0.2101  1.2896
   34MOL0     H 4455   3.093   9.669   2.098  2.3678  0.5454  1.3276
   34MOL0     H 4456   3.170   9.669   2.296 -0.4988 -1.4031 -2.1504
   34MOL0     H 4457   3.002   9.638   2.330  1.7076 -1.7466 -1.2598
   34MOL0     H 4458   2.943   9.882   2.378 -0.6397 -1.6967 -0.0446
   34MOL0     H 4459   3.100   9.931   2.343  2.4401 -0.1645  2.5448
   34MOL0     H 4460   3.043   9.740   2.556  0.8369 -0.8907 -1.7548
   34MOL0     H 4461   3.200   9.813   2.514 -0.1705  1.7109 -1.6559
   34MOL0     H 4462   2.972  10.005   2.599 -0.5530 -0.4417  1.1215
   34MOL0     H 4463   3.140  10.044   2.578  2.2663 -1.4314  0.8315
   34MOL0     H 4464   3.056   9.860   2.798 -1.8453  0.7875  0.8071
   34MOL0     H 4465   3.069  10.031   2.813 -1.8347 -0.2684 -0.3946
   34MOL0     H 4466   3.285   9.831   2.710 -0.9914 -0.4038  1.1305
   34MOL0     H 4467   3.318  10.004   2.700 -2.4237  2.3203  0.1856
   34MOL0     H 4468   3.402   9.858   2.908 -1.2293 -3.1854 -1.4330
   34MOL0     H 4469   3.233   9.874   2.972  3.6022 -1.8088  1.4184
   34MOL0     H 4470   2.658   9.744   2.094  1.7201 -1.1578 -0.3591
   34MOL0     H 4471   2.527   9.671   1.898  0.2329  1.1541  0.5799
   34MOL0     H 4472   2.572   9.818   1.294  1.8897  0.1804  1.1745
   34MOL0     H 4473   2.448   9.700   1.108 -0.8178  2.8452  1.6829
   34MOL0     H 4474   2.884   8.087   0.422 -3.1231 -0.7439 -1.8977
   34MOL0     H 4475   3.107   7.970   0.421  1.7642 -3.5361 -1.5742
   34MOL0     H 4476   3.351   7.631   0.054  2.1630  0.8838 -1.6913
   34MOL0     H 4477   3.567   7.503   0.049  1.1788 -0.2454  0.8074
   34MOL0     H 4478   3.652   7.263   0.383  0.4632 -1.9191 -1.2447
   34MOL0     H 4479   3.772   7.404   0.424 -0.3492  1.0443 -0.6494
   34MOL0     H 4480   3.874   7.154   0.418 -0.1229 -1.3442 -1.8787
   34MOL0     H 4481   3.871   7.185   0.250  0.3840  1.8638 -1.8461
   34MOL0     H 4482   4.096   7.271   0.382  0.1232 -0.2631 -1.5849
   34MOL0     H 4483   3.994   7.402   0.438  1.9622  0.3516  1.0476
   34MOL0     H 4484   3.933   7.445   0.202 -1.1148 -3.4191  0.8469
   34MOL0     H 4485   4.093   7.490   0.248  1.0298  0.7291 -1.4631
   34MOL0     H 4486   4.185   7.173  -0.022 -1.3774  0.1776 -1.6031
   34MOL0     H 4487   3.549   7.461   0.474 -1.9166 -4.3999  0.1553
   34MOL0     H 4488   3.353   7.587   0.485 -0.3115  0.5403 -0.3643
   35MOL0     O 4489   7.250  10.046   9.149 -0.0685  0.8458 -0.6183
   35MOL0     C 4490   7.213  10.163   9.139 -0.9874 -0.5930 -0.3540
   35MOL0     O 4491   7.158  10.224   9.017  0.4828 -0.0767 -0.3147
   35MOL0     C 4492   7.164  10.147   8.902  0.2231  0.5170 -0.4439
   35MOL0     C 4493   7.251  10.194   8.795  0.6643  0.4272 -0.0803
   35MOL0     C 4494   7.266  10.114   8.688  0.0249 -0.5835 -0.3407
   35MOL0     C 4495   7.195   9.997   8.673  0.2545 -0.5360  0.5036
   35MOL0     O 4496   7.224   9.910   8.573 -0.4492  0.0319 -0.3970
   35MOL0     C 4497   7.237   9.978   8.451  0.1386  0.3981  0.5108
   35MOL0     C 4498   7.202   9.884   8.340  0.3904 -0.4338  0.4306
   35MOL0     C 4499   7.262   9.951   8.211  0.4021  0.3668 -0.8719
   35MOL0     C 4500   7.216  10.089   8.170 -0.1667  0.4834 -0.5299
   35MOL0     C 4501   7.067  10.107   8.156  0.6617  0.3604 -0.0501
   35MOL0     C 4502   7.032  10.253   8.101 -0.0210  0.3459  0.0587
   35MOL0     C 4503   6.885  10.284   8.084 -0.1265  0.5548  0.1639
   35MOL0     C 4504   6.845  10.402   8.159  0.5876 -0.1967 -0.1109
   35MOL0     N 4505   6.905  10.521   8.106 -1.1952  0.3458  0.6320
   35MOL0     C 4506   6.996  10.592   8.181 -0.0146 -0.3960  0.8570
   35MOL0     C 4507   7.029  10.698   8.105 -0.2027  0.0416 -0.2574
   35MOL0     C 4508   7.126  10.816   8.139  0.7351  0.6225  0.5043
   35MOL0     C 4509   7.069  10.902   8.251  0.3133  0.2394  0.4482
   35MOL0     C 4510   6.958  10.998   8.206 -0.4259 -0.1764  0.5331
   35MOL0     C 4511   6.964  11.035   8.060  0.7074  0.6716 -0.8188
   35MOL0     O 4512   6.858  11.126   8.032  0.2937 -0.0876 -0.2502
   35MOL0     C 4513   6.813  11.151   7.902 -0.6566 -0.3467 -1.0747
   35MOL0     C 4514   6.870  11.108   7.782  0.4074 -0.4187 -1.2883
   35MOL0     C 4515   6.822  11.150   7.652 -0.6696  0.0170 -0.9471
   35MOL0     C 4516   6.708  11.235   7.650  0.1142  0.6777  0.1922
   35MOL0     C 4517   6.651  11.275   7.514 -0.6857 -0.0572 -0.3052
   35MOL0     O 4518   6.729  11.267   7.409  0.1043  0.1603 -0.4656
   35MOL0     C 4519   6.679  11.302   7.282 -0.2171  0.1588  0.1588
   35MOL0     C 4520   6.756  11.389   7.199 -0.5770 -0.2693  0.8099
   35MOL0     C 4521   6.706  11.430   7.076 -0.7474 -0.1497  0.0558
   35MOL0     C 4522   6.588  11.368   7.029 -1.3668  0.1259  0.3751
   35MOL0     O 4523   6.537  11.423   6.910  0.5616 -0.9172 -0.1196
   35MOL0     C 4524   6.398  11.399   6.871  0.7397 -0.1955 -0.3318
   35MOL0     C 4525   6.336  11.494   6.772 -0.3890 -0.5750  0.8328
   35MOL0     C 4526   6.385  11.632   6.773 -0.6395  0.4657 -0.1844
   35MOL0     C 4527   6.330  11.714   6.896  0.6276 -0.6458  0.3871
   35MOL0     C 4528   6.389  11.860   6.910  0.1226  0.0691  0.8222
   35MOL0     C 4529   6.356  11.923   7.039 -0.4287  0.6498  0.1576
   35MOL0     C 4530   6.214  11.890   7.084  0.7076 -0.1072  0.3452
   35MOL0     C 4531   6.177  11.966   7.204 -0.5068 -0.2826 -0.6662
   35MOL0    Cl 4532   6.231  11.904   7.361  0.2186 -0.4719  0.3421
   35MOL0     C 4533   6.519  11.275   7.100  0.0567  0.6062 -0.1939
   35MOL0     C 4534   6.561  11.244   7.228 -0.5485 -0.1211  0.5273
   35MOL0     O 4535   6.534  11.308   7.512 -0.0373  0.2628 -0.5466
   35MOL0     C 4536   6.650  11.268   7.766  0.6549  0.7045  0.5642
   35MOL0     C 4537   6.701  11.227   7.894  0.2130  0.2636  0.1047
   35MOL0     N 4538   6.968  10.678   7.983 -0.7862 -0.0746  0.5026
   35MOL0     N 4539   6.890  10.574   7.990  0.2937  0.0350 -0.3711
   35MOL0     C 4540   7.118   9.957   8.767  0.0420  0.2537  0.2466
   35MOL0     C 4541   7.097  10.024   8.879 -0.1496 -0.1209 -0.2846
   35MOL0     C 4542   7.220  10.247   9.266  0.3503 -0.5013  0.1075
   35MOL0     C 4543   7.289  10.199   9.377  1.1579  0.4332  0.0686
   35MOL0     C 4544   7.298  10.277   9.490 -0.2208 -0.0923 -0.4967
   35MOL0     C 4545   7.232  10.401   9.502  0.4699 -0.0822  0.0910
   35MOL0     O 4546   7.215  10.464   9.620 -0.5832 -0.3586 -0.5041
   35MOL0     C 4547   7.176  10.602   9.618  1.7070 -0.7444  0.1360
   35MOL0     C 4548   7.182  10.643   9.761  0.2516  0.5485  0.6037
   35MOL0     C 4549   7.062  10.573   9.832 -1.3616  0.1687 -0.8450
   35MOL0     C 4550   7.077  10.592   9.986 -0.1511 -0.2071  0.6862
   35MOL0     C 4551   6.955  10.591  10.064  0.1207 -0.5367 -0.5406
   35MOL0     C 4552   6.850  10.600  10.131  0.0511 -0.5561  1.0269
   35MOL0     C 4553   7.171  10.448   9.381  0.0793 -1.0076 -0.7513
   35MOL0     C 4554   7.159  10.367   9.269  0.6111 -0.1655 -0.0620
   35MOL0     H 4555   7.307  10.284   8.820 -0.3141  1.3819 -1.1748
   35MOL0     H 4556   7.333  10.153   8.612  1.6617  0.5045  1.5406
   35MOL0     H 4557   7.345   9.996   8.441  0.4706 -1.9119 -0.6555
   35MOL0     H 4558   7.176  10.068   8.443 -0.6380 -0.0471  1.3715
   35MOL0     H 4559   7.093   9.878   8.333  0.5579 -1.0621 -3.2000
   35MOL0     H 4560   7.248   9.788   8.366  1.7133  0.2147  0.5892
   35MOL0     H 4561   7.222   9.886   8.133 -2.8207  0.6081  0.4244
   35MOL0     H 4562   7.371   9.953   8.219  0.6538 -1.8846 -2.6130
   35MOL0     H 4563   7.252  10.163   8.242 -2.0408 -0.1165  1.1217
   35MOL0     H 4564   7.270  10.106   8.076  5.6590 -0.7630  2.1332
   35MOL0     H 4565   7.021  10.085   8.252  4.0321  0.4268  1.6985
   35MOL0     H 4566   7.021  10.039   8.083 -2.0147  0.5844  1.2862
   35MOL0     H 4567   7.077  10.266   8.002  0.2517  2.7879  0.4415
   35MOL0     H 4568   7.080  10.322   8.171  0.5843 -0.9345  0.9290
   35MOL0     H 4569   6.861  10.312   7.981  4.6617  1.0854 -1.0396
   35MOL0     H 4570   6.834  10.193   8.117 -0.6416  1.2871  1.4717
   35MOL0     H 4571   6.877  10.390   8.263 -1.1493  1.5034  0.6799
   35MOL0     H 4572   6.739  10.427   8.166  0.7594  0.8882 -0.9479
   35MOL0     H 4573   7.023  10.584   8.285  0.1121  0.3748  0.8911
   35MOL0     H 4574   7.155  10.876   8.052  3.3143  0.2318  1.0231
   35MOL0     H 4575   7.219  10.770   8.172  1.9927  1.3808 -1.7374
   35MOL0     H 4576   7.154  10.959   8.288  1.1063  0.3812 -1.4682
   35MOL0     H 4577   7.023  10.835   8.325 -1.9794 -0.8763 -1.8321
   35MOL0     H 4578   6.873  10.933   8.231  1.0174 -0.6181  5.1520
   35MOL0     H 4579   6.953  11.087   8.269 -2.2576 -0.5524  0.9873
   35MOL0     H 4580   6.950  10.948   7.995  0.5185  0.5856 -0.6663
   35MOL0     H 4581   7.063  11.081   8.056  0.2389  1.7742 -0.2920
   35MOL0     H 4582   6.959  11.046   7.785  2.7623  2.7009  0.4411
   35MOL0     H 4583   6.875  11.110   7.566 -0.0959  0.4911 -0.8203
   35MOL0     H 4584   6.856  11.415   7.232 -0.4721  0.1803  0.1414
   35MOL0     H 4585   6.768  11.492   7.012 -1.3316 -0.8451 -1.2039
   35MOL0     H 4586   6.333  11.401   6.959  1.5687 -0.7089  0.3010
   35MOL0     H 4587   6.394  11.297   6.833  0.3657 -0.4757  0.4397
   35MOL0     H 4588   6.231  11.504   6.800 -0.4637  3.6538 -0.2241
   35MOL0     H 4589   6.349  11.462   6.668  3.3643 -0.7704  1.2004
   35MOL0     H 4590   6.345  11.680   6.683 -0.4542  0.2324 -0.3910
   35MOL0     H 4591   6.494  11.626   6.768 -0.7235 -1.7755 -0.1559
   35MOL0     H 4592   6.223  11.716   6.877  1.1756 -0.3160 -3.6511
   35MOL0     H 4593   6.340  11.655   6.988 -2.7517 -1.1793  0.5115
   35MOL0     H 4594   6.362  11.924   6.826  0.7655  0.9718  1.2892
   35MOL0     H 4595   6.498  11.857   6.899  0.2642 -1.4560  2.2679
   35MOL0     H 4596   6.382  12.029   7.026  2.1772 -0.0990 -1.4081
   35MOL0     H 4597   6.425  11.896   7.120 -0.5239 -2.6264 -0.7143
   35MOL0     H 4598   6.145  11.916   7.003  1.9690  1.0660 -0.3897
   35MOL0     H 4599   6.220  11.785   7.116  2.2889 -0.3910 -0.7617
   35MOL0     H 4600   6.072  11.994   7.217 -0.6886 -2.0703  2.7932
   35MOL0     H 4601   6.225  12.065   7.197 -0.2776 -0.1348  2.0426
   35MOL0     H 4602   6.438  11.215   7.059  1.4717 -0.2387 -1.8844
   35MOL0     H 4603   6.502  11.170   7.282 -1.5014  0.8350  0.8529
   35MOL0     H 4604   6.568  11.336   7.748 -0.9733 -0.9131  1.5606
   35MOL0     H 4605   6.666  11.268   7.989  2.6988 -1.8450  2.0804
   35MOL0     H 4606   7.065   9.867   8.740  0.7119 -0.2508  0.5908
   35MOL0     H 4607   7.023   9.989   8.950  0.2852  1.0188  0.7819
   35MOL0     H 4608   7.337  10.102   9.384 -1.2930 -0.7852  1.2162
   35MOL0     H 4609   7.329  10.217   9.574 -0.0921  1.5923  0.7029
   35MOL0     H 4610   7.078  10.611   9.571  1.2449  1.6984  1.4153
   35MOL0     H 4611   7.239  10.674   9.564  0.3452  1.8291  1.8078
   35MOL0     H 4612   7.275  10.607   9.805  1.0112 -0.6641 -1.7693
   35MOL0     H 4613   7.167  10.751   9.773  1.6383  0.6962  1.2132
   35MOL0     H 4614   7.051  10.465   9.815 -3.8418  0.4762 -1.5681
   35MOL0     H 4615   6.973  10.622   9.791 -2.8608 -0.9901  0.8855
   35MOL0     H 4616   7.148  10.516  10.021  0.8512  0.2290 -0.2984
   35MOL0     H 4617   7.131  10.686  10.002 -0.7977  0.7435 -2.1253
   35MOL0     H 4618   6.755  10.618  10.177 -1.0389  2.4118 -1.9728
   35MOL0     H 4619   7.120  10.542   9.363  0.4799 -1.2931 -4.1422
   35MOL0     H 4620   7.125  10.398   9.171  1.5171 -1.4364 -0.8203
   36MOL0     O 4621  11.110   2.941   1.237  0.8828  0.6891 -0.9474
   36MOL0     C 4622  11.119   2.898   1.126  0.4882 -0.1346 -0.5592
   36MOL0     O 4623  11.090   2.770   1.097  0.5582 -0.0679  0.2158
   36MOL0     C 4624  11.087   2.690   1.207 -0.6803 -0.1044 -0.0999
   36MOL0     C 4625  11.186   2.602   1.243  0.5173  0.8327  0.6610
   36MOL0     C 4626  11.176   2.512   1.343  0.5022  0.1008 -0.2367
   36MOL0     C 4627  11.072   2.517   1.434  0.4681 -0.4926 -0.5739
   36MOL0     O 4628  11.085   2.453   1.561 -0.3148 -0.0315  0.0941
   36MOL0     C 4629  10.979   2.492   1.655 -0.0399  0.1313  1.1897
   36MOL0     C 4630  10.993   2.411   1.784  0.2172 -0.2956 -0.3290
   36MOL0     C 4631  10.893   2.458   1.896 -0.3825  0.3241  0.3638
   36MOL0     C 4632  10.753   2.414   1.850 -0.1870  0.2050  0.5826
   36MOL0     C 4633  10.633   2.443   1.940 -0.3350 -0.4014 -1.0209
   36MOL0     C 4634  10.513   2.361   1.900  0.5511  0.0288 -0.6002
   36MOL0     C 4635  10.433   2.420   1.791  0.0215 -0.1147 -0.4629
   36MOL0     C 4636  10.326   2.510   1.828 -0.3291  0.2460 -0.6061
   36MOL0     N 4637  10.244   2.524   1.709  0.3536  0.5255  0.4245
   36MOL0     C 4638  10.142   2.437   1.674 -0.0017 -0.3850  0.2707
   36MOL0     C 4639  10.123   2.461   1.540 -0.6571 -0.8294 -0.1413
   36MOL0     C 4640  10.001   2.410   1.460  0.6833  0.0712 -0.0603
   36MOL0     C 4641  10.042   2.298   1.364 -0.6579  0.9515  0.4154
   36MOL0     C 4642  10.144   2.353   1.258 -0.3056 -0.2957 -0.8118
   36MOL0     C 4643  10.147   2.259   1.142  0.7829  0.2511 -0.5757
   36MOL0     O 4644  10.169   2.118   1.180  0.1488 -0.1042  0.0574
   36MOL0     C 4645  10.238   2.044   1.089 -0.1995  0.0406  0.8396
   36MOL0     C 4646  10.183   1.918   1.065 -0.5697 -0.4429  0.1473
   36MOL0     C 4647  10.236   1.840   0.960  0.4518 -0.2247  0.2139
   36MOL0     C 4648  10.345   1.893   0.878  0.4299 -0.8386  0.6420
   36MOL0     C 4649  10.404   1.812   0.761  0.3788 -0.6643 -0.0944
   36MOL0     O 4650  10.483   1.888   0.685 -0.7799  0.1071  0.1019
   36MOL0     C 4651  10.542   1.838   0.565 -0.6721  0.2581 -0.3665
   36MOL0     C 4652  10.505   1.887   0.442 -0.1712  0.4326  0.2449
   36MOL0     C 4653  10.585   1.839   0.331  0.9169  0.9240 -0.1626
   36MOL0     C 4654  10.685   1.741   0.347  1.3053 -0.0440  0.2403
   36MOL0     O 4655  10.753   1.708   0.226  0.0337  0.2573  0.0768
   36MOL0     C 4656  10.770   1.566   0.208  0.9746  0.7627  0.1637
   36MOL0     C 4657  10.797   1.510   0.072  0.9683 -0.8506  1.2672
   36MOL0     C 4658  10.930   1.552   0.015 -0.1200 -0.2121  0.4653
   36MOL0     C 4659  10.936   1.539  -0.137  0.4034  0.5336 -0.1462
   36MOL0     C 4660  11.075   1.565  -0.199 -0.2834  0.3656 -0.6494
   36MOL0     C 4661  11.137   1.699  -0.146 -0.4073 -0.9761 -0.3844
   36MOL0     C 4662  11.244   1.753  -0.250 -0.4425  0.2209 -0.4601
   36MOL0     C 4663  11.346   1.654  -0.303  0.5719  0.3496  0.8781
   36MOL0    Cl 4664  11.437   1.559  -0.173 -0.4073 -0.1091  0.1608
   36MOL0     C 4665  10.707   1.679   0.466 -0.2290 -0.9442  0.1435
   36MOL0     C 4666  10.635   1.734   0.577 -0.0520  0.1979  0.5317
   36MOL0     O 4667  10.365   1.699   0.735 -0.3174  1.0167  0.1465
   36MOL0     C 4668  10.406   2.015   0.912  0.7777 -0.4615 -0.6277
   36MOL0     C 4669  10.346   2.087   1.014 -0.4439 -0.4274 -0.0049
   36MOL0     N 4670  10.220   2.546   1.495  0.9748  0.1696 -0.8567
   36MOL0     N 4671  10.283   2.585   1.592  0.4392 -0.5707  0.1257
   36MOL0     C 4672  10.971   2.610   1.404 -0.5296  0.8008 -0.1665
   36MOL0     C 4673  10.978   2.681   1.283  0.5007  0.2391 -0.1218
   36MOL0     C 4674  11.127   2.994   1.016 -0.5067  1.9852  0.3784
   36MOL0     C 4675  11.132   2.944   0.887  0.0888  0.6709  0.4893
   36MOL0     C 4676  11.119   3.031   0.776  0.2168 -0.4191  0.4777
   36MOL0     C 4677  11.126   3.171   0.802 -0.0256 -0.8040  0.2132
   36MOL0     O 4678  11.114   3.273   0.709 -0.2437  0.5618 -0.9415
   36MOL0     C 4679  11.107   3.242   0.571  0.3665  0.1818  0.7662
   36MOL0     C 4680  10.963   3.228   0.524  0.3112 -0.3126  0.1693
   36MOL0     C 4681  10.879   3.358   0.551  1.3403 -0.6727  1.0049
   36MOL0     C 4682  10.743   3.343   0.496  0.8911 -0.5423 -0.5079
   36MOL0     C 4683  10.732   3.401   0.359  0.0543 -1.2344 -0.1893
   36MOL0     C 4684  10.742   3.441   0.248  0.7817  1.4812  0.4947
   36MOL0     C 4685  11.126   3.220   0.933  0.0415 -1.1047 -0.2666
   36MOL0     C 4686  11.125   3.132   1.034  0.1569 -0.3877 -1.2540
   36MOL0     H 4687  11.275   2.588   1.183  0.2739 -0.4647  0.5606
   36MOL0     H 4688  11.266   2.451   1.347  1.5425  1.2217 -3.5387
   36MOL0     H 4689  10.886   2.465   1.604  0.2952  0.7267  0.2459
   36MOL0     H 4690  10.978   2.599   1.677  0.2509 -0.2799  3.5167
   36MOL0     H 4691  11.089   2.437   1.829 -0.5864  0.6517  0.8866
   36MOL0     H 4692  10.978   2.304   1.762  0.5000 -0.1319 -1.3830
   36MOL0     H 4693  10.900   2.565   1.916  0.4541 -0.2498  3.8331
   36MOL0     H 4694  10.917   2.406   1.989 -0.2728  1.4625  0.9820
   36MOL0     H 4695  10.738   2.474   1.760 -0.8831  2.4838  2.1346
   36MOL0     H 4696  10.754   2.307   1.830  0.5426  0.4353 -0.7591
   36MOL0     H 4697  10.617   2.551   1.935 -2.5898 -0.6444 -0.0098
   36MOL0     H 4698  10.656   2.421   2.044 -1.1256 -4.4083 -1.5566
   36MOL0     H 4699  10.468   2.364   1.999  1.9581  3.5364  0.0815
   36MOL0     H 4700  10.537   2.258   1.872 -0.3339 -0.7081  1.2042
   36MOL0     H 4701  10.495   2.480   1.724 -0.0823  2.1443  1.3472
   36MOL0     H 4702  10.396   2.337   1.730 -1.3098  0.1532 -0.0655
   36MOL0     H 4703  10.364   2.610   1.852  0.7966 -1.2022  5.3021
   36MOL0     H 4704  10.276   2.463   1.913  1.7970 -1.6532 -0.3032
   36MOL0     H 4705  10.076   2.369   1.727  0.8114 -0.6605  0.9472
   36MOL0     H 4706   9.962   2.491   1.396 -0.2793 -0.8847 -0.7194
   36MOL0     H 4707   9.914   2.377   1.518 -0.0433 -2.2493 -2.3056
   36MOL0     H 4708   9.956   2.253   1.313  1.9938 -1.6117 -2.2248
   36MOL0     H 4709  10.090   2.219   1.422 -0.5214  1.1299  0.5464
   36MOL0     H 4710  10.116   2.455   1.230  1.8946  0.8518  0.8608
   36MOL0     H 4711  10.241   2.359   1.308 -1.3608 -2.0654  1.5796
   36MOL0     H 4712  10.224   2.293   1.073 -0.0109  2.1386 -0.6006
   36MOL0     H 4713  10.055   2.261   1.084 -0.6306 -2.5317  1.3300
   36MOL0     H 4714  10.093   1.888   1.119  0.6566 -2.0776  1.3607
   36MOL0     H 4715  10.189   1.746   0.932  0.8024 -0.3505  0.0317
   36MOL0     H 4716  10.430   1.964   0.425  0.2604  0.6614 -0.6721
   36MOL0     H 4717  10.576   1.859   0.225  0.3170 -3.8488 -1.2464
   36MOL0     H 4718  10.674   1.524   0.237  0.8950  1.8980  1.6690
   36MOL0     H 4719  10.844   1.526   0.279 -1.8241 -1.3584  2.1424
   36MOL0     H 4720  10.717   1.555   0.012  0.9099  0.5647  2.3308
   36MOL0     H 4721  10.792   1.401   0.072 -0.2414 -0.8316 -0.1551
   36MOL0     H 4722  11.012   1.492   0.057  1.1559  0.7263 -0.6235
   36MOL0     H 4723  10.961   1.652   0.044  2.5861 -0.5841 -0.8774
   36MOL0     H 4724  10.899   1.439  -0.159  2.3850 -1.1612  3.4119
   36MOL0     H 4725  10.876   1.613  -0.190 -1.9420 -2.2150 -1.6098
   36MOL0     H 4726  11.078   1.545  -0.306  4.7411 -1.3146 -0.4308
   36MOL0     H 4727  11.141   1.486  -0.160 -1.4307  0.5612  1.9056
   36MOL0     H 4728  11.183   1.684  -0.048  1.2974 -0.8185 -1.1087
   36MOL0     H 4729  11.065   1.779  -0.128  2.0082  1.1216  0.5745
   36MOL0     H 4730  11.190   1.797  -0.335  1.8112  2.2807 -0.9448
   36MOL0     H 4731  11.287   1.840  -0.201 -0.3623 -0.0010 -0.1323
   36MOL0     H 4732  11.398   1.698  -0.389  0.5935 -0.4369  0.4772
   36MOL0     H 4733  11.284   1.582  -0.358  0.2886  1.0958  0.2040
   36MOL0     H 4734  10.787   1.608   0.487 -0.3814 -1.5563 -1.2135
   36MOL0     H 4735  10.656   1.692   0.675  1.3448  1.1555  0.6701
   36MOL0     H 4736  10.470   2.066   0.841 -3.1760  2.1288 -2.6912
   36MOL0     H 4737  10.391   2.183   1.037 -1.4922 -0.4819  2.5709
   36MOL0     H 4738  10.878   2.630   1.457 -0.9926  0.0861 -0.6988
   36MOL0     H 4739  10.894   2.727   1.232 -0.2530 -2.6319 -1.7291
   36MOL0     H 4740  11.140   2.838   0.867 -3.4053 -0.0122  1.9181
   36MOL0     H 4741  11.109   2.989   0.677  1.5933  0.3476 -0.0235
   36MOL0     H 4742  11.168   3.155   0.548 -0.6547 -0.7398  1.4545
   36MOL0     H 4743  11.153   3.324   0.513  0.4041 -1.9156 -2.4384
   36MOL0     H 4744  10.972   3.212   0.416  0.1534 -0.0977  0.1243
   36MOL0     H 4745  10.923   3.136   0.568  0.4547 -1.3844 -1.8273
   36MOL0     H 4746  10.924   3.449   0.510 -2.5512  2.9753  3.9148
   36MOL0     H 4747  10.878   3.378   0.659 -0.3518  4.1017  0.3130
   36MOL0     H 4748  10.711   3.239   0.506 -1.7262  0.3467  1.6499
   36MOL0     H 4749  10.678   3.405   0.559  0.7492 -0.9054 -0.2979
   36MOL0     H 4750  10.742   3.446   0.141  0.6767 -3.7010  0.0030
   36MOL0     H 4751  11.134   3.328   0.945 -1.7616 -1.0025  0.2830
   36MOL0     H 4752  11.131   3.177   1.132  1.8305 -4.1245  0.5896
   37MOL0     O 4753  11.136   9.019   2.044  0.0140  0.2602 -1.0143
   37MOL0     C 4754  11.111   8.895   2.064 -0.7994 -1.5631  0.2811
   37MOL0     O 4755  11.027   8.839   2.154  0.6773  0.3038  0.9118
   37MOL0     C 4756  10.971   8.911   2.252 -0.3603 -0.3205 -0.4465
   37MOL0     C 4757  11.057   8.979   2.338  0.7605 -1.0339  0.3811
   37MOL0     C 4758  11.012   9.057   2.450 -0.2111  0.7988  0.1813
   37MOL0     C 4759  10.885   9.035   2.492  0.4831  0.1950 -1.1544
   37MOL0     O 4760  10.846   9.099   2.603 -0.1202 -0.5466 -0.6022
   37MOL0     C 4761  10.734   9.052   2.678 -0.1835  0.5622 -0.6818
   37MOL0     C 4762  10.743   9.104   2.817 -0.3970  0.2375 -0.2104
   37MOL0     C 4763  10.858   9.045   2.883  0.5318 -1.0117  0.0369
   37MOL0     C 4764  10.861   9.089   3.029 -1.4890 -0.0157  0.2451
   37MOL0     C 4765  11.002   9.089   3.092  0.1192  0.1261  0.7885
   37MOL0     C 4766  10.982   9.077   3.245  0.0106  0.2134 -0.6545
   37MOL0     C 4767  11.113   9.052   3.320 -0.3212 -0.4508  0.5940
   37MOL0     C 4768  11.224   9.153   3.292  0.0733  0.1378  0.9874
   37MOL0     N 4769  11.184   9.286   3.334  0.4836 -0.4136 -0.1003
   37MOL0     C 4770  11.147   9.386   3.248  0.5859  0.2504  0.6158
   37MOL0     C 4771  11.112   9.496   3.333 -0.1541 -0.3287 -0.1439
   37MOL0     C 4772  11.083   9.634   3.289  0.4262  0.5909 -0.5125
   37MOL0     C 4773  11.065   9.642   3.138 -0.3737  0.1261 -0.7805
   37MOL0     C 4774  11.069   9.787   3.084 -0.2323  0.3698  0.1014
   37MOL0     C 4775  11.081   9.794   2.931  0.6371 -0.2568  0.5420
   37MOL0     O 4776  11.091   9.930   2.875 -0.1207  0.1323  0.6695
   37MOL0     C 4777  11.192  10.011   2.923  0.6751 -0.3748 -0.2102
   37MOL0     C 4778  11.327   9.968   2.923  0.0150 -0.0501 -0.4083
   37MOL0     C 4779  11.432  10.048   2.964  0.5615 -0.4371  0.0372
   37MOL0     C 4780  11.402  10.176   3.016  0.8856 -0.9981 -0.3888
   37MOL0     C 4781  11.499  10.260   3.085  0.7983 -0.2069  0.0907
   37MOL0     O 4782  11.498  10.395   3.062 -0.3411  0.0023 -0.0571
   37MOL0     C 4783  11.524  10.487   3.159 -1.1919 -0.7221 -1.2204
   37MOL0     C 4784  11.654  10.544   3.174  0.6963 -0.2385 -1.6273
   37MOL0     C 4785  11.681  10.629   3.281  0.6895 -0.8383  0.4245
   37MOL0     C 4786  11.583  10.689   3.362  0.5204 -0.0160 -1.0193
   37MOL0     O 4787  11.619  10.778   3.464 -0.5092  0.6191  0.9135
   37MOL0     C 4788  11.520  10.868   3.520 -0.1902 -0.3254  1.4442
   37MOL0     C 4789  11.570  10.994   3.595 -0.1416 -0.1683  0.3042
   37MOL0     C 4790  11.656  11.087   3.523 -0.1588 -0.2475  0.8095
   37MOL0     C 4791  11.596  11.222   3.488 -0.5370 -1.1425 -0.0350
   37MOL0     C 4792  11.688  11.306   3.390  1.2275  0.6635  0.5811
   37MOL0     C 4793  11.835  11.297   3.431  0.8888  0.6876 -0.4026
   37MOL0     C 4794  11.914  11.399   3.366 -0.9884  0.4553 -0.3899
   37MOL0     C 4795  11.917  11.534   3.442  0.3875 -0.2596 -0.7455
   37MOL0    Cl 4796  12.027  11.658   3.383 -0.1549 -0.2215 -0.0028
   37MOL0     C 4797  11.451  10.631   3.345 -0.0033 -0.0574 -0.3566
   37MOL0     C 4798  11.426  10.525   3.253  0.2234 -0.5208  0.5636
   37MOL0     O 4799  11.561  10.207   3.173  0.4960  0.1222 -0.5589
   37MOL0     C 4800  11.265  10.225   3.000 -0.4259 -0.6916  0.1006
   37MOL0     C 4801  11.161  10.142   2.953  0.3159 -0.4156  0.2691
   37MOL0     N 4802  11.135   9.452   3.462  0.2987 -0.7433 -0.1424
   37MOL0     N 4803  11.186   9.339   3.456 -0.0398  0.4634  0.6876
   37MOL0     C 4804  10.795   8.954   2.413 -0.1187 -1.0024 -0.4330
   37MOL0     C 4805  10.833   8.900   2.291 -0.0736  0.8152  0.3939
   37MOL0     C 4806  11.198   8.796   1.992  0.1413 -0.9188  0.5008
   37MOL0     C 4807  11.315   8.843   1.938 -0.2821  0.8706 -0.6214
   37MOL0     C 4808  11.403   8.769   1.862  0.0876 -0.1417  0.7429
   37MOL0     C 4809  11.387   8.631   1.856 -0.3060  0.2849  0.5197
   37MOL0     O 4810  11.484   8.548   1.820 -0.0802  0.4791  0.6619
   37MOL0     C 4811  11.550   8.579   1.698 -0.0718  0.4339  0.2205
   37MOL0     C 4812  11.599   8.460   1.632  0.6202 -0.2783  0.3218
   37MOL0     C 4813  11.712   8.385   1.703  0.2498 -0.8133  0.3406
   37MOL0     C 4814  11.785   8.287   1.604  0.1255 -0.9312  0.3507
   37MOL0     C 4815  11.902   8.216   1.656  0.8287  0.0018  0.5340
   37MOL0     C 4816  12.004   8.169   1.706  0.6214 -0.3360  0.3682
   37MOL0     C 4817  11.273   8.579   1.918 -0.4340  0.5221  0.3481
   37MOL0     C 4818  11.175   8.663   1.985 -0.3018  0.2448 -0.3351
   37MOL0     H 4819  11.162   8.986   2.312  0.4952 -1.0073 -0.7088
   37MOL0     H 4820  11.076   9.117   2.514  1.2887 -0.3283 -0.1911
   37MOL0     H 4821  10.733   8.943   2.687 -1.1113  0.7257  2.1938
   37MOL0     H 4822  10.638   9.076   2.631 -0.2426 -0.4611 -1.1039
   37MOL0     H 4823  10.658   9.052   2.862 -0.8116 -1.5038 -2.7663
   37MOL0     H 4824  10.735   9.214   2.816  2.8074  0.6062  1.7250
   37MOL0     H 4825  10.950   9.079   2.833 -1.1300  0.2568 -2.3312
   37MOL0     H 4826  10.874   8.937   2.884  0.3228 -1.1882 -3.8155
   37MOL0     H 4827  10.829   9.193   3.036  5.6113  2.8257 -1.2343
   37MOL0     H 4828  10.795   9.020   3.083  0.0183 -0.9000  1.0078
   37MOL0     H 4829  11.055   9.181   3.065  1.1986 -0.7971 -0.3291
   37MOL0     H 4830  11.070   9.012   3.055  0.4141  1.7008 -2.3469
   37MOL0     H 4831  10.910   9.003   3.281 -2.6086  3.2315  0.7608
   37MOL0     H 4832  10.945   9.175   3.277 -2.4719 -1.2722  1.4481
   37MOL0     H 4833  11.091   9.053   3.427  0.0908 -2.5810  0.7519
   37MOL0     H 4834  11.145   8.949   3.299  1.3179 -0.7348  3.8677
   37MOL0     H 4835  11.246   9.140   3.185  0.7543 -1.2092  1.2712
   37MOL0     H 4836  11.312   9.135   3.353  0.4627  2.7115  1.2914
   37MOL0     H 4837  11.157   9.382   3.140 -4.1124 -1.8312  0.0401
   37MOL0     H 4838  11.166   9.699   3.317  0.8469 -0.8818  1.9880
   37MOL0     H 4839  10.988   9.677   3.322  0.0570  1.0556 -2.0874
   37MOL0     H 4840  10.966   9.598   3.124 -0.1516  0.0117 -2.1020
   37MOL0     H 4841  11.136   9.589   3.074 -0.5584  1.9076 -2.5842
   37MOL0     H 4842  10.977   9.831   3.122  0.4507  0.8417  1.2935
   37MOL0     H 4843  11.148   9.841   3.138 -0.3838 -2.8681  4.0446
   37MOL0     H 4844  10.994   9.746   2.885  1.5727 -0.2979 -1.2882
   37MOL0     H 4845  11.167   9.742   2.887 -0.3241 -0.7963 -0.7764
   37MOL0     H 4846  11.339   9.866   2.888  1.1744  0.0662 -0.4116
   37MOL0     H 4847  11.539  10.029   2.961  0.6824  0.2516 -0.6746
   37MOL0     H 4848  11.734  10.500   3.115  1.7236  1.1256 -1.2968
   37MOL0     H 4849  11.784  10.663   3.283  1.3805 -1.5553 -5.4591
   37MOL0     H 4850  11.456  10.805   3.584 -2.4708 -1.4574 -1.7025
   37MOL0     H 4851  11.458  10.898   3.435  3.2722 -0.5727 -1.3682
   37MOL0     H 4852  11.628  10.956   3.680  1.4948 -1.9550 -1.5151
   37MOL0     H 4853  11.475  11.038   3.630  0.5704  1.3065  0.4291
   37MOL0     H 4854  11.685  11.035   3.432  1.7823  0.4874  0.9602
   37MOL0     H 4855  11.749  11.103   3.579  0.3519  0.1851 -0.1499
   37MOL0     H 4856  11.494  11.214   3.450 -0.8611 -1.3697  0.8622
   37MOL0     H 4857  11.587  11.278   3.581  0.5053 -1.5884  0.3477
   37MOL0     H 4858  11.654  11.409   3.379 -2.9983 -0.5840  0.0922
   37MOL0     H 4859  11.674  11.259   3.292  3.0714  1.8672 -0.3243
   37MOL0     H 4860  11.870  11.206   3.382  0.0560  0.7009 -1.0319
   37MOL0     H 4861  11.841  11.309   3.540 -0.1505 -0.0093 -0.2593
   37MOL0     H 4862  12.019  11.368   3.368 -1.1814 -0.2422  1.5641
   37MOL0     H 4863  11.880  11.411   3.263  0.1383 -1.5991 -1.0536
   37MOL0     H 4864  11.937  11.525   3.549 -4.3046  4.3966  0.9510
   37MOL0     H 4865  11.817  11.577   3.448  0.0119 -1.3004  3.0290
   37MOL0     H 4866  11.370  10.661   3.410 -1.5282 -2.5238 -1.0175
   37MOL0     H 4867  11.326  10.482   3.250  1.3610 -3.5965  2.0401
   37MOL0     H 4868  11.241  10.322   3.043  0.2455 -1.0496  1.3388
   37MOL0     H 4869  11.055  10.165   2.945 -0.5720 -2.6569  3.4249
   37MOL0     H 4870  10.695   8.922   2.438 -1.5380  0.3001 -3.8612
   37MOL0     H 4871  10.769   8.835   2.232  0.2817 -0.6681  1.5857
   37MOL0     H 4872  11.345   8.947   1.950  4.5006 -0.2112 -1.0028
   37MOL0     H 4873  11.484   8.825   1.816 -1.2442  2.6308  1.5508
   37MOL0     H 4874  11.635   8.647   1.693  1.7930 -1.8422 -0.9708
   37MOL0     H 4875  11.485   8.627   1.624 -0.6106 -1.5443 -0.6776
   37MOL0     H 4876  11.519   8.391   1.605  2.1928 -2.8021  1.7109
   37MOL0     H 4877  11.641   8.496   1.538 -0.9334  2.5580  0.6039
   37MOL0     H 4878  11.665   8.353   1.797 -1.0934  4.7740  1.9899
   37MOL0     H 4879  11.789   8.461   1.718 -0.2977 -0.2280  0.2081
   37MOL0     H 4880  11.713   8.216   1.561 -0.8075 -0.8666  1.7466
   37MOL0     H 4881  11.828   8.352   1.528  1.4455 -2.1443  0.0207
   37MOL0     H 4882  12.100   8.130   1.733  0.4593 -1.4912 -0.6207
   37MOL0     H 4883  11.266   8.471   1.921  4.8332 -0.3374 -3.4825
   37MOL0     H 4884  11.084   8.616   2.021  0.0532 -0.5185 -0.3990
   38MOL0     O 4885   6.426   3.506   6.768  0.1535  0.7292  0.0143
   38MOL0     C 4886   6.409   3.493   6.884  0.5994 -0.3306  0.4793
   38MOL0     O 4887   6.426   3.595   6.977 -0.3963 -0.1832 -0.1940
   38MOL0     C 4888   6.427   3.728   6.941 -0.0366 -0.0685 -0.3082
   38MOL0     C 4889   6.523   3.773   6.849 -0.4397  0.4413 -0.5618
   38MOL0     C 4890   6.533   3.906   6.810 -0.4811  0.0281  0.3177
   38MOL0     C 4891   6.460   4.001   6.880  0.2047 -0.2365 -0.3246
   38MOL0     O 4892   6.461   4.138   6.866 -0.3631  0.1750  0.3329
   38MOL0     C 4893   6.476   4.194   6.737  0.3818 -0.0901 -0.0017
   38MOL0     C 4894   6.441   4.352   6.743  0.0976  0.0811  0.7398
   38MOL0     C 4895   6.295   4.369   6.778 -0.2233  0.3983 -0.8188
   38MOL0     C 4896   6.251   4.509   6.840 -0.2786  0.2786  0.2969
   38MOL0     C 4897   6.195   4.611   6.733 -0.3581  1.4885 -1.0231
   38MOL0     C 4898   6.205   4.753   6.767  0.0554 -0.0563  0.6283
   38MOL0     C 4899   6.198   4.837   6.636  1.2658 -0.0325 -0.7752
   38MOL0     C 4900   6.210   4.989   6.674  0.9111  0.0495  0.5232
   38MOL0     N 4901   6.111   5.022   6.786 -0.4443  0.3131  1.0391
   38MOL0     C 4902   6.149   5.089   6.890  0.0485  0.9031 -0.1101
   38MOL0     C 4903   6.026   5.118   6.944  0.9646  0.1864 -0.3682
   38MOL0     C 4904   6.012   5.203   7.070 -0.1159  0.2942  0.3941
   38MOL0     C 4905   6.095   5.147   7.193  1.0177 -0.6680  1.2055
   38MOL0     C 4906   6.101   5.241   7.318 -0.4109  0.3403 -0.0968
   38MOL0     C 4907   5.966   5.226   7.402  0.8728 -0.1553  0.1158
   38MOL0     O 4908   5.991   5.101   7.474  0.3085 -0.3188 -0.1368
   38MOL0     C 4909   5.919   5.066   7.582 -0.2685 -0.9935 -0.5186
   38MOL0     C 4910   5.976   4.965   7.656  0.0403 -0.7909 -0.6306
   38MOL0     C 4911   5.908   4.926   7.775 -0.0815 -0.3124 -0.2241
   38MOL0     C 4912   5.780   4.980   7.814 -0.0191  0.5521 -0.5394
   38MOL0     C 4913   5.730   4.926   7.942  0.1130  0.8658 -1.4623
   38MOL0     O 4914   5.587   4.946   7.966 -0.3017 -0.5087 -1.3517
   38MOL0     C 4915   5.542   4.874   8.074 -0.5844  0.3174  0.3397
   38MOL0     C 4916   5.514   4.735   8.069 -0.7805 -0.0443  0.0404
   38MOL0     C 4917   5.454   4.671   8.182  0.1875 -0.0002  0.7366
   38MOL0     C 4918   5.450   4.727   8.304 -0.0683  0.1864 -0.6070
   38MOL0     O 4919   5.403   4.654   8.410 -0.2673  0.2640 -0.5361
   38MOL0     C 4920   5.343   4.732   8.518  0.6492  0.0832 -0.3980
   38MOL0     C 4921   5.193   4.688   8.539  0.2135 -0.8854 -0.2585
   38MOL0     C 4922   5.173   4.555   8.605  0.0332  0.8664 -0.0438
   38MOL0     C 4923   5.029   4.528   8.641 -0.6838 -0.0954 -1.1400
   38MOL0     C 4924   5.018   4.384   8.700 -0.1879  0.1354 -0.0886
   38MOL0     C 4925   5.030   4.370   8.851 -0.8849 -0.2854  0.6686
   38MOL0     C 4926   4.910   4.428   8.921  0.0742 -0.2216  0.0599
   38MOL0     C 4927   4.911   4.429   9.068  0.4215  0.0926 -0.4131
   38MOL0    Cl 4928   4.855   4.255   9.116  0.4216 -0.3274  0.3946
   38MOL0     C 4929   5.491   4.862   8.307  0.7233  0.6538 -0.6058
   38MOL0     C 4930   5.522   4.934   8.193  0.4010 -0.4184  0.2603
   38MOL0     O 4931   5.809   4.861   8.011  0.6036  0.9649 -0.7328
   38MOL0     C 4932   5.726   5.088   7.739  0.0506  0.8344 -1.3113
   38MOL0     C 4933   5.799   5.126   7.623  0.8298  0.3351 -0.2443
   38MOL0     N 4934   5.919   5.068   6.874 -0.7718 -1.4914 -0.1046
   38MOL0     N 4935   5.975   5.014   6.763 -0.2963 -0.6907 -0.9012
   38MOL0     C 4936   6.361   3.959   6.983 -0.0311 -0.7916  0.8439
   38MOL0     C 4937   6.350   3.824   7.012 -1.1662  0.6817 -0.0497
   38MOL0     C 4938   6.375   3.359   6.938 -0.3769  0.8096  0.3837
   38MOL0     C 4939   6.321   3.356   7.068 -0.3258  0.9505  0.0614
   38MOL0     C 4940   6.302   3.225   7.129 -0.2247 -0.4561 -0.7205
   38MOL0     C 4941   6.328   3.114   7.058 -0.0556  0.1095 -0.0420
   38MOL0     O 4942   6.317   2.987   7.114 -0.3100 -0.3977  0.3631
   38MOL0     C 4943   6.387   2.981   7.230 -0.0149  1.1846  0.1325
   38MOL0     C 4944   6.390   2.842   7.280  0.1330  0.1586 -0.4759
   38MOL0     C 4945   6.472   2.834   7.417  0.4500  1.5354  0.1051
   38MOL0     C 4946   6.472   2.686   7.458 -0.1045  0.2846 -0.2144
   38MOL0     C 4947   6.352   2.648   7.543  0.5139  0.7384  0.5155
   38MOL0     C 4948   6.245   2.648   7.600  0.7619  0.3006 -0.1958
   38MOL0     C 4949   6.360   3.126   6.919 -0.2429  0.2290 -0.5597
   38MOL0     C 4950   6.388   3.251   6.858  0.9734  0.2174 -0.8239
   38MOL0     H 4951   6.589   3.701   6.801  2.0976  3.6777 -2.3409
   38MOL0     H 4952   6.590   3.948   6.727 -3.0560 -0.1061 -1.6736
   38MOL0     H 4953   6.399   4.145   6.676  1.4210 -0.7768 -0.7851
   38MOL0     H 4954   6.578   4.181   6.700  1.0717  3.6821  0.1939
   38MOL0     H 4955   6.447   4.392   6.642  0.4558 -0.1706  0.6589
   38MOL0     H 4956   6.510   4.410   6.805 -0.6159  1.6239  0.1443
   38MOL0     H 4957   6.263   4.293   6.850  2.1087  0.1515  0.0399
   38MOL0     H 4958   6.227   4.345   6.695 -1.4685 -2.4122  0.8521
   38MOL0     H 4959   6.175   4.490   6.917  0.7496 -1.4204  0.9529
   38MOL0     H 4960   6.345   4.554   6.876  0.8726 -1.3828 -0.5441
   38MOL0     H 4961   6.089   4.589   6.713 -0.2145  1.2534 -1.5308
   38MOL0     H 4962   6.250   4.588   6.642 -2.6273  2.2303 -2.6679
   38MOL0     H 4963   6.298   4.766   6.823  0.4995  2.8656 -0.6486
   38MOL0     H 4964   6.127   4.792   6.833  2.3110  3.3035  1.5736
   38MOL0     H 4965   6.279   4.810   6.568  1.9983 -0.2634  0.1662
   38MOL0     H 4966   6.102   4.818   6.589  1.1018  0.7033 -0.7488
   38MOL0     H 4967   6.191   5.047   6.583  2.5936 -1.2218 -0.6917
   38MOL0     H 4968   6.309   5.022   6.707  0.9211  1.1940 -0.5845
   38MOL0     H 4969   6.249   5.114   6.924 -0.3841  3.9062 -0.7658
   38MOL0     H 4970   5.903   5.203   7.081 -0.2740 -0.5931 -0.9928
   38MOL0     H 4971   6.051   5.304   7.052 -0.3375  0.3919  0.4528
   38MOL0     H 4972   6.198   5.120   7.169  0.7668  1.4703 -3.5139
   38MOL0     H 4973   6.045   5.053   7.218 -1.1239  0.5159  1.6978
   38MOL0     H 4974   6.177   5.217   7.393 -0.4366  0.3692 -0.0610
   38MOL0     H 4975   6.121   5.341   7.278  0.2169  0.2460 -0.0173
   38MOL0     H 4976   5.875   5.196   7.350  0.1411  1.6060  0.3254
   38MOL0     H 4977   5.936   5.303   7.474 -3.3566 -2.5820  1.3286
   38MOL0     H 4978   6.067   4.927   7.612 -1.0089 -3.4534 -0.7076
   38MOL0     H 4979   5.940   4.838   7.830 -1.8218 -2.1687 -1.9857
   38MOL0     H 4980   5.548   4.681   7.982  1.3268  4.3014 -2.1246
   38MOL0     H 4981   5.438   4.564   8.176  1.0871 -0.0566 -2.7469
   38MOL0     H 4982   5.329   4.838   8.496  1.0835  0.5503  1.3709
   38MOL0     H 4983   5.400   4.737   8.611 -2.8193  0.6260  1.9013
   38MOL0     H 4984   5.125   4.692   8.452 -1.4753  0.3921  1.0447
   38MOL0     H 4985   5.155   4.767   8.605 -1.1375  0.8382 -2.9052
   38MOL0     H 4986   5.218   4.555   8.705  0.1595 -1.3593 -0.0435
   38MOL0     H 4987   5.218   4.479   8.541 -0.3301 -0.0092  0.7160
   38MOL0     H 4988   5.001   4.602   8.717  1.8746  0.6418 -0.8267
   38MOL0     H 4989   4.969   4.527   8.549 -0.4419  2.4204 -1.4007
   38MOL0     H 4990   5.100   4.328   8.653  0.3766  0.8951 -0.0248
   38MOL0     H 4991   4.923   4.342   8.667 -1.7880  1.6273  2.3342
   38MOL0     H 4992   5.119   4.426   8.880 -1.2973  1.0168 -0.4779
   38MOL0     H 4993   5.043   4.263   8.868  1.6954  0.0144  1.0819
   38MOL0     H 4994   4.896   4.532   8.889 -0.3065 -0.4256 -0.4578
   38MOL0     H 4995   4.817   4.378   8.889 -0.5288  0.8615  0.0609
   38MOL0     H 4996   4.837   4.501   9.104 -1.8034 -1.0796 -2.3424
   38MOL0     H 4997   5.011   4.446   9.108  1.0635 -2.3636 -0.7661
   38MOL0     H 4998   5.497   4.921   8.398  0.0289 -1.3753  0.8223
   38MOL0     H 4999   5.576   5.027   8.199  2.2245 -1.3064 -1.3922
   38MOL0     H 5000   5.637   5.135   7.780 -0.1588 -1.2159  0.8062
   38MOL0     H 5001   5.752   5.214   7.581  1.5217  1.9533  2.1137
   38MOL0     H 5002   6.306   4.040   7.029 -1.1133 -0.8589 -0.2650
   38MOL0     H 5003   6.297   3.791   7.101  0.4854 -2.2021 -0.0060
   38MOL0     H 5004   6.305   3.442   7.132 -0.1094  0.7776  0.3508
   38MOL0     H 5005   6.249   3.212   7.222 -1.2884 -1.9672 -1.5110
   38MOL0     H 5006   6.332   3.032   7.311  1.6990 -0.6748  2.6386
   38MOL0     H 5007   6.489   3.019   7.218  0.4102  0.6114  1.6598
   38MOL0     H 5008   6.285   2.815   7.300 -0.0043  1.0608  0.0715
   38MOL0     H 5009   6.423   2.776   7.199 -1.9077 -0.3316 -0.9863
   38MOL0     H 5010   6.419   2.896   7.490 -1.8019 -1.9638  1.6903
   38MOL0     H 5011   6.573   2.873   7.401 -0.0815  2.1415 -2.1940
   38MOL0     H 5012   6.476   2.618   7.373 -0.9529  1.6004 -1.3427
   38MOL0     H 5013   6.566   2.684   7.514  0.9826  2.3408 -1.8236
   38MOL0     H 5014   6.158   2.634   7.661  0.3257 -2.2495 -1.2535
   38MOL0     H 5015   6.373   3.038   6.858  0.1118  0.4910 -0.8687
   38MOL0     H 5016   6.421   3.272   6.756  0.9279  1.3204 -0.6194
   39MOL0     O 5017   6.859   9.860   8.044  0.2379  0.5535 -0.1472
   39MOL0     C 5018   6.751   9.822   8.078  1.3598  0.4473 -0.9348
   39MOL0     O 5019   6.649   9.800   8.000 -0.3173  0.0539  0.5288
   39MOL0     C 5020   6.663   9.830   7.866 -1.2579 -0.2286 -1.1714
   39MOL0     C 5021   6.620   9.732   7.778  0.7088 -0.6691 -0.6631
   39MOL0     C 5022   6.613   9.754   7.646 -0.4536  0.0120  0.0460
   39MOL0     C 5023   6.662   9.872   7.586  0.7692 -0.4088  0.4179
   39MOL0     O 5024   6.682   9.903   7.452  0.5937 -0.0870 -0.5589
   39MOL0     C 5025   6.706   9.803   7.356  0.4910 -0.8912  0.2715
   39MOL0     C 5026   6.737   9.858   7.214  0.0552  0.6890  0.0309
   39MOL0     C 5027   6.824   9.980   7.210  0.2677 -0.2870  0.7256
   39MOL0     C 5028   6.879  10.018   7.076  0.2114  0.5860  0.3871
   39MOL0     C 5029   7.014  10.084   7.082 -0.3675 -0.5609 -0.5839
   39MOL0     C 5030   7.121   9.997   7.144  0.2347  0.3140 -0.3432
   39MOL0     C 5031   7.229  10.087   7.214  0.2860 -0.4699 -0.3774
   39MOL0     C 5032   7.340   9.981   7.266 -0.2699 -0.7720  0.5886
   39MOL0     N 5033   7.444  10.062   7.330  0.0098  0.3331  0.6920
   39MOL0     C 5034   7.426  10.149   7.431 -0.0951 -1.2259 -0.0038
   39MOL0     C 5035   7.543  10.144   7.496 -0.4785  0.5010 -0.2656
   39MOL0     C 5036   7.590  10.222   7.615 -1.0017  0.1181 -0.5263
   39MOL0     C 5037   7.645  10.362   7.578 -0.2326 -0.0703 -0.4671
   39MOL0     C 5038   7.583  10.486   7.640 -0.5372  1.0012 -0.3425
   39MOL0     C 5039   7.423  10.481   7.647 -0.0857 -0.5047 -0.1098
   39MOL0     O 5040   7.377  10.432   7.523 -0.3127 -0.6473 -0.3120
   39MOL0     C 5041   7.394  10.507   7.411  0.2956  0.0318 -0.5955
   39MOL0     C 5042   7.371  10.448   7.291  0.6837 -0.1010  0.0988
   39MOL0     C 5043   7.391  10.511   7.174  0.4659  0.0837  0.6071
   39MOL0     C 5044   7.437  10.641   7.168  0.7080  0.0820  0.0183
   39MOL0     C 5045   7.454  10.701   7.030  0.0752 -1.5819  0.1906
   39MOL0     O 5046   7.458  10.626   6.913 -0.2957  0.0292  0.4184
   39MOL0     C 5047   7.443  10.685   6.795  0.3220  0.0791 -0.1754
   39MOL0     C 5048   7.328  10.758   6.766  0.8622  1.5482  0.3819
   39MOL0     C 5049   7.312  10.814   6.640 -0.1228 -0.7181 -0.8998
   39MOL0     C 5050   7.419  10.815   6.539 -0.0074 -0.2556  0.3568
   39MOL0     O 5051   7.410  10.879   6.413  0.2113 -0.0792  0.2218
   39MOL0     C 5052   7.464  10.800   6.298 -0.5901  0.7904 -0.3265
   39MOL0     C 5053   7.420  10.865   6.171  0.0153 -0.3318 -0.3807
   39MOL0     C 5054   7.266  10.868   6.180  0.1841  0.0548 -0.0515
   39MOL0     C 5055   7.218  10.902   6.041  0.4966 -1.5698 -0.3227
   39MOL0     C 5056   7.237  11.055   5.991 -0.1343 -0.5368 -0.1244
   39MOL0     C 5057   7.206  11.075   5.838  0.2683  1.0786 -0.5105
   39MOL0     C 5058   7.198  11.220   5.793 -0.1213  0.2771  0.1340
   39MOL0     C 5059   7.279  11.240   5.658  0.1867  0.5951  0.1377
   39MOL0    Cl 5060   7.460  11.294   5.664  0.0467 -0.2568 -0.7630
   39MOL0     C 5061   7.533  10.736   6.568 -0.4289 -0.1263 -0.3155
   39MOL0     C 5062   7.549  10.679   6.701 -0.2979 -0.1296  0.7128
   39MOL0     O 5063   7.427  10.822   7.038  0.5454 -0.0913 -0.0122
   39MOL0     C 5064   7.458  10.708   7.288 -0.0288 -0.6641  0.0930
   39MOL0     C 5065   7.442  10.640   7.410  0.0490 -0.3940  0.7375
   39MOL0     N 5066   7.634  10.064   7.425  1.5209 -0.6490  0.2048
   39MOL0     N 5067   7.576  10.021   7.321  0.1990  0.0944  0.6587
   39MOL0     C 5068   6.709   9.968   7.672  0.2258  0.4231 -0.1730
   39MOL0     C 5069   6.694   9.954   7.805  0.7848  0.7804 -0.5107
   39MOL0     C 5070   6.722   9.825   8.230  0.2357 -0.1438  0.3525
   39MOL0     C 5071   6.597   9.781   8.283  0.2806  1.2490 -0.2778
   39MOL0     C 5072   6.577   9.789   8.421  0.2910 -0.9239  0.5032
   39MOL0     C 5073   6.669   9.843   8.512  0.1005  0.4285 -0.3377
   39MOL0     O 5074   6.644   9.857   8.645  0.4237  0.1175 -0.0249
   39MOL0     C 5075   6.504   9.869   8.677  1.2799  0.0289 -0.6225
   39MOL0     C 5076   6.497   9.909   8.829  0.2045  0.3453  0.5209
   39MOL0     C 5077   6.350   9.927   8.877 -0.5136  0.0694 -0.2282
   39MOL0     C 5078   6.347   9.948   9.028 -0.1027  0.6778  0.0371
   39MOL0     C 5079   6.203   9.967   9.059  0.4836  0.9617 -0.0245
   39MOL0     C 5080   6.094  10.006   9.068  0.1926  0.3745 -0.3745
   39MOL0     C 5081   6.796   9.878   8.465  0.1093 -0.5554  0.1156
   39MOL0     C 5082   6.810   9.877   8.325  0.9478  0.5128  0.2206
   39MOL0     H 5083   6.583   9.634   7.807  0.1482 -0.0758  0.6761
   39MOL0     H 5084   6.571   9.681   7.578  2.0192 -2.9589  1.4927
   39MOL0     H 5085   6.626   9.728   7.357 -0.5714  0.2016  0.6206
   39MOL0     H 5086   6.798   9.759   7.394  0.6716 -2.6131 -1.9666
   39MOL0     H 5087   6.642   9.897   7.178  0.0201  2.2500  1.6600
   39MOL0     H 5088   6.773   9.779   7.148 -1.8265 -1.7310  1.7478
   39MOL0     H 5089   6.904   9.977   7.284  1.1567 -1.2378 -0.2514
   39MOL0     H 5090   6.759  10.059   7.249  1.0179 -0.4190  2.2946
   39MOL0     H 5091   6.882   9.932   7.009  0.3091  0.5340  0.4574
   39MOL0     H 5092   6.814  10.086   7.020 -1.5626  0.0810  1.7359
   39MOL0     H 5093   7.004  10.171   7.149 -1.0499 -1.5338  0.6232
   39MOL0     H 5094   7.049  10.114   6.983  0.4330  2.1469  0.4234
   39MOL0     H 5095   7.166   9.941   7.062  3.8097 -1.4963  2.5497
   39MOL0     H 5096   7.078   9.928   7.218  0.5551 -2.3393 -2.5122
   39MOL0     H 5097   7.269  10.157   7.141  2.3287  2.5884  3.3520
   39MOL0     H 5098   7.178  10.130   7.301  0.0818 -1.5844  0.0750
   39MOL0     H 5099   7.387   9.921   7.188  1.6679  0.0686  1.0606
   39MOL0     H 5100   7.303   9.916   7.346  1.4790 -0.9417  1.2949
   39MOL0     H 5101   7.339  10.204   7.465  1.0718  1.0968 -0.5878
   39MOL0     H 5102   7.661  10.153   7.661  0.0341  1.5866  0.1275
   39MOL0     H 5103   7.502  10.224   7.680 -0.5191 -1.4396  0.2298
   39MOL0     H 5104   7.629  10.364   7.470 -0.0406 -1.2182 -0.5356
   39MOL0     H 5105   7.754  10.357   7.587 -0.1475  2.1219  0.3844
   39MOL0     H 5106   7.628  10.517   7.735  2.1675  4.2099 -2.4313
   39MOL0     H 5107   7.604  10.567   7.569 -1.6078 -0.3828 -2.3096
   39MOL0     H 5108   7.397  10.583   7.674 -0.5535 -0.1192 -1.8643
   39MOL0     H 5109   7.386  10.410   7.721 -1.3813  0.4231  0.1518
   39MOL0     H 5110   7.329  10.348   7.291  0.3124 -0.0693  3.3034
   39MOL0     H 5111   7.371  10.475   7.074 -4.5527  2.1840  0.5540
   39MOL0     H 5112   7.259  10.770   6.849  0.4775 -1.4826  0.6207
   39MOL0     H 5113   7.221  10.872   6.627  1.2593  2.0248  0.6905
   39MOL0     H 5114   7.426  10.697   6.296 -1.2019  1.0033  0.0015
   39MOL0     H 5115   7.573  10.794   6.306 -0.7679 -3.6748  1.8012
   39MOL0     H 5116   7.452  10.815   6.078 -2.4246  2.6497 -3.0469
   39MOL0     H 5117   7.470  10.962   6.175 -0.3258 -0.1805  0.3655
   39MOL0     H 5118   7.229  10.938   6.255 -1.6966 -2.7654  1.8506
   39MOL0     H 5119   7.222  10.770   6.203  1.1263  0.2294  3.0567
   39MOL0     H 5120   7.262  10.835   5.967  1.5300 -1.3047  0.0332
   39MOL0     H 5121   7.112  10.878   6.028  0.4885 -0.8749 -1.7696
   39MOL0     H 5122   7.337  11.097   6.006  0.0371 -0.8584 -0.3610
   39MOL0     H 5123   7.185  11.123   6.059  0.7210 -1.5949  1.6803
   39MOL0     H 5124   7.115  11.018   5.816  1.5619 -1.0801 -0.5877
   39MOL0     H 5125   7.282  11.018   5.783 -1.8233 -0.9718 -1.4554
   39MOL0     H 5126   7.092  11.242   5.778 -0.6105 -1.2377  1.0970
   39MOL0     H 5127   7.240  11.289   5.867 -1.2154  0.7423  0.3302
   39MOL0     H 5128   7.232  11.328   5.612  0.2347  1.2468  1.3058
   39MOL0     H 5129   7.266  11.145   5.606  1.4293 -0.0958  1.0345
   39MOL0     H 5130   7.619  10.717   6.505 -0.9011 -2.3576 -0.3676
   39MOL0     H 5131   7.636  10.623   6.733 -1.4869 -1.6426  1.4173
   39MOL0     H 5132   7.490  10.812   7.288 -3.8300  0.6715 -0.3289
   39MOL0     H 5133   7.481  10.697   7.493  3.0645  1.2295 -1.5986
   39MOL0     H 5134   6.745  10.061   7.628 -1.0935  1.4771  0.8662
   39MOL0     H 5135   6.737  10.033   7.865 -2.5687  0.4416  2.6507
   39MOL0     H 5136   6.516   9.731   8.232  1.5332 -3.5183  1.8404
   39MOL0     H 5137   6.480   9.759   8.459 -0.0888 -3.1527 -1.9313
   39MOL0     H 5138   6.439   9.781   8.667 -3.5334  2.5586  3.5220
   39MOL0     H 5139   6.479   9.949   8.608 -0.1136  0.2491  0.0968
   39MOL0     H 5140   6.544   9.840   8.899  1.9727  0.2017 -0.7294
   39MOL0     H 5141   6.559  10.000   8.832 -1.9977  1.9601 -0.2901
   39MOL0     H 5142   6.303   9.830   8.862  1.5974 -1.2111  0.9743
   39MOL0     H 5143   6.299   9.999   8.812 -1.4728 -0.4393 -0.0520
   39MOL0     H 5144   6.376   9.856   9.079 -2.7880  0.2422  0.8890
   39MOL0     H 5145   6.421  10.023   9.059  1.9209 -0.8566 -0.7835
   39MOL0     H 5146   5.994  10.045   9.072  0.6325  1.4769  1.1383
   39MOL0     H 5147   6.884   9.901   8.524 -0.0660 -0.8725  0.4998
   39MOL0     H 5148   6.897   9.929   8.285  1.0029  1.2711  1.2812
   40MOL0     O 5149   5.529   5.163  11.170 -0.9205 -0.2576  0.6601
   40MOL0     C 5150   5.411   5.174  11.196 -0.2009  0.7227 -0.1368
   40MOL0     O 5151   5.345   5.090  11.272 -0.1573 -0.0094 -0.3854
   40MOL0     C 5152   5.403   5.009  11.371  0.2898  0.3025 -0.3470
   40MOL0     C 5153   5.525   5.027  11.427 -0.9770  0.2505  1.1199
   40MOL0     C 5154   5.556   4.966  11.550 -0.1409  0.1097 -0.1018
   40MOL0     C 5155   5.469   4.880  11.622 -1.1123  1.0872 -0.1587
   40MOL0     O 5156   5.517   4.814  11.733 -0.3347 -0.7204 -0.2677
   40MOL0     C 5157   5.644   4.840  11.795 -0.4936  0.5169  0.0627
   40MOL0     C 5158   5.743   4.755  11.714 -0.0346  0.1293 -0.4542
   40MOL0     C 5159   5.883   4.781  11.758  0.5464 -0.9496 -0.2160
   40MOL0     C 5160   5.988   4.695  11.689  0.4421 -0.0800 -0.4472
   40MOL0     C 5161   6.114   4.682  11.774 -1.1096  0.4271 -0.3384
   40MOL0     C 5162   6.174   4.824  11.778 -0.4071  0.5745 -0.2652
   40MOL0     C 5163   6.330   4.823  11.762  0.2158 -0.0413  0.8502
   40MOL0     C 5164   6.375   4.955  11.719  0.3363 -0.1112  0.1490
   40MOL0     N 5165   6.519   4.991  11.713 -0.2764  0.9055  0.7479
   40MOL0     C 5166   6.601   4.960  11.604  0.4866  1.0570 -0.8013
   40MOL0     C 5167   6.731   4.980  11.653 -0.6172 -0.2060 -0.5455
   40MOL0     C 5168   6.865   4.939  11.585  0.1927 -0.7377 -0.2426
   40MOL0     C 5169   6.919   4.793  11.577  0.3115 -0.0795  0.5794
   40MOL0     C 5170   6.817   4.701  11.508 -0.2824  0.8745 -0.6152
   40MOL0     C 5171   6.834   4.557  11.561  0.2133  0.8850 -0.0792
   40MOL0     O 5172   6.723   4.474  11.513  0.2157 -0.0288 -0.2678
   40MOL0     C 5173   6.729   4.445  11.382 -0.4839  0.0210  0.3779
   40MOL0     C 5174   6.833   4.366  11.325  0.4277  0.4682  0.0273
   40MOL0     C 5175   6.832   4.342  11.187  0.1060 -0.4205  0.7394
   40MOL0     C 5176   6.751   4.408  11.095 -0.8613  0.3373  0.0686
   40MOL0     C 5177   6.747   4.368  10.957  0.2802  0.4008 -1.1968
   40MOL0     O 5178   6.812   4.244  10.925 -0.4104  0.0719  1.0653
   40MOL0     C 5179   6.844   4.238  10.788  0.1894 -0.6886 -0.3017
   40MOL0     C 5180   6.959   4.307  10.745  0.7879  0.6156 -0.1697
   40MOL0     C 5181   6.979   4.307  10.604  1.0494 -0.5846  0.2551
   40MOL0     C 5182   6.890   4.255  10.511  0.7784 -0.0856  0.0984
   40MOL0     O 5183   6.921   4.273  10.384 -0.7874 -0.3002 -0.0502
   40MOL0     C 5184   6.825   4.241  10.287  0.7019  0.3745  0.1883
   40MOL0     C 5185   6.890   4.238  10.150  0.0082  0.0706 -0.0379
   40MOL0     C 5186   6.785   4.238  10.038 -0.1615 -0.7474  0.7417
   40MOL0     C 5187   6.852   4.255   9.902  0.9350  0.3956 -0.7592
   40MOL0     C 5188   6.755   4.199   9.797 -0.6798 -0.2378  0.0451
   40MOL0     C 5189   6.822   4.186   9.661  0.4983  0.8780  0.5715
   40MOL0     C 5190   6.909   4.287   9.598  0.8613 -0.2791  0.3749
   40MOL0     C 5191   6.959   4.268   9.453  0.3218  1.0271  0.1790
   40MOL0    Cl 5192   7.016   4.104   9.437 -0.0258 -0.5135 -0.3432
   40MOL0     C 5193   6.778   4.180  10.560  0.2499  0.0031 -0.4880
   40MOL0     C 5194   6.766   4.170  10.696  0.1143 -1.2037 -0.8103
   40MOL0     O 5195   6.663   4.429  10.885  0.7901 -0.5256 -0.2217
   40MOL0     C 5196   6.646   4.488  11.149 -0.4481  0.6976  0.4156
   40MOL0     C 5197   6.645   4.512  11.289 -0.3192 -1.1905  0.4946
   40MOL0     N 5198   6.719   5.034  11.786 -0.8471 -0.3565 -0.7572
   40MOL0     N 5199   6.591   5.057  11.808  0.0277  0.0246  0.5232
   40MOL0     C 5200   5.343   4.869  11.565 -0.3406 -0.0384  0.0442
   40MOL0     C 5201   5.317   4.922  11.441  0.7873  0.8026 -0.7409
   40MOL0     C 5202   5.314   5.255  11.124 -0.6209 -0.5326  0.1202
   40MOL0     C 5203   5.174   5.243  11.148  0.4013 -0.1723  0.5686
   40MOL0     C 5204   5.088   5.302  11.059  0.4452 -0.5236 -0.4507
   40MOL0     C 5205   5.137   5.380  10.962 -0.5357 -0.1775 -0.4899
   40MOL0     O 5206   5.058   5.465  10.886 -0.3767 -0.2313  0.5934
   40MOL0     C 5207   4.919   5.439  10.859  0.3167 -0.1367 -0.0417
   40MOL0     C 5208   4.853   5.529  10.762 -0.4675  0.5449 -0.2846
   40MOL0     C 5209   4.731   5.469  10.692  0.1093 -0.6323  0.7316
   40MOL0     C 5210   4.617   5.576  10.685 -0.2319  0.7709  1.4473
   40MOL0     C 5211   4.509   5.521  10.603  0.3977  0.8863 -1.2704
   40MOL0     C 5212   4.413   5.464  10.542 -0.0530  0.2261  0.4661
   40MOL0     C 5213   5.273   5.404  10.947  0.1639 -0.3764 -1.1560
   40MOL0     C 5214   5.364   5.336  11.026 -0.6460 -1.0971 -0.4580
   40MOL0     H 5215   5.612   5.079  11.387 -0.1109 -2.1709 -0.3156
   40MOL0     H 5216   5.653   4.991  11.593 -1.6039 -1.8421  5.2141
   40MOL0     H 5217   5.654   4.810  11.899  1.9578 -2.6192 -0.9022
   40MOL0     H 5218   5.680   4.942  11.776 -3.3012  0.9935 -3.8166
   40MOL0     H 5219   5.739   4.779  11.607  2.1249 -3.5045 -1.5164
   40MOL0     H 5220   5.710   4.651  11.719 -0.8645  0.3471 -1.0249
   40MOL0     H 5221   5.875   4.767  11.866 -1.2527 -1.2847 -0.3718
   40MOL0     H 5222   5.904   4.887  11.740  2.2220 -1.4283 -1.3511
   40MOL0     H 5223   5.945   4.594  11.685  0.7343 -0.4389  2.6057
   40MOL0     H 5224   6.016   4.734  11.591 -4.7773 -0.1636 -2.2858
   40MOL0     H 5225   6.181   4.605  11.734 -0.6157 -0.2291  1.6216
   40MOL0     H 5226   6.104   4.640  11.875  3.6226 -2.4535 -0.7609
   40MOL0     H 5227   6.139   4.879  11.866  1.9523  0.6072  0.7415
   40MOL0     H 5228   6.134   4.875  11.691 -2.6850  0.9365  0.9182
   40MOL0     H 5229   6.380   4.784  11.852 -3.4199 -1.9308  2.2639
   40MOL0     H 5230   6.368   4.761  11.680  2.7765 -3.1762  4.0370
   40MOL0     H 5231   6.316   5.030  11.773  1.7436 -0.3278  2.0880
   40MOL0     H 5232   6.355   4.968  11.612 -0.5483  0.4224  0.3671
   40MOL0     H 5233   6.564   4.908  11.517 -0.3017 -0.0473  0.1584
   40MOL0     H 5234   6.942   5.007  11.622 -1.0870  2.1040 -2.4009
   40MOL0     H 5235   6.837   4.973  11.484 -2.0224 -3.4210 -0.6582
   40MOL0     H 5236   6.941   4.777  11.683  2.6666 -0.7331  0.0655
   40MOL0     H 5237   7.015   4.781  11.525  0.2417  1.1037  0.1530
   40MOL0     H 5238   6.717   4.719  11.548 -0.1476  0.3799 -0.0319
   40MOL0     H 5239   6.822   4.709  11.399 -2.0409  1.7224 -0.6661
   40MOL0     H 5240   6.836   4.563  11.670 -0.5581 -0.5175  0.0337
   40MOL0     H 5241   6.926   4.514  11.521  1.7244 -0.7922  4.5502
   40MOL0     H 5242   6.898   4.317  11.397  0.3537 -0.3462 -0.4411
   40MOL0     H 5243   6.893   4.265  11.142 -1.6501 -2.3293  1.4945
   40MOL0     H 5244   7.040   4.354  10.800  0.6148  0.3059  0.3526
   40MOL0     H 5245   7.062   4.372  10.576  1.1982 -1.0288 -0.3556
   40MOL0     H 5246   6.760   4.329  10.287 -0.4747 -0.4753 -0.7624
   40MOL0     H 5247   6.786   4.141  10.306  2.5387  0.0829  3.0396
   40MOL0     H 5248   6.962   4.156  10.144  0.1276  0.2631 -1.7920
   40MOL0     H 5249   6.936   4.337  10.141 -0.2844  0.2841  0.6976
   40MOL0     H 5250   6.712   4.316  10.060 -0.1188 -0.4054 -0.2524
   40MOL0     H 5251   6.730   4.144  10.047  0.9689 -1.4465  0.5567
   40MOL0     H 5252   6.861   4.364   9.894 -2.2594  0.7282 -0.9727
   40MOL0     H 5253   6.948   4.205   9.886  1.3893  1.1416 -0.4053
   40MOL0     H 5254   6.664   4.260   9.798 -0.2288  0.5693 -2.5698
   40MOL0     H 5255   6.731   4.099   9.835 -0.2195 -0.5043 -0.3518
   40MOL0     H 5256   6.739   4.168   9.592  0.2248 -2.2550  1.5471
   40MOL0     H 5257   6.882   4.095   9.669  2.6493  2.2188  0.4489
   40MOL0     H 5258   6.847   4.376   9.612  0.2814 -0.7316  0.7312
   40MOL0     H 5259   7.000   4.289   9.659  2.5270 -1.4179 -1.9213
   40MOL0     H 5260   7.039   4.337   9.422  2.2681 -1.7115 -1.3459
   40MOL0     H 5261   6.867   4.276   9.393  1.1816  0.9108 -1.2131
   40MOL0     H 5262   6.706   4.131  10.495  0.4053  3.5134 -3.6630
   40MOL0     H 5263   6.687   4.119  10.750 -0.5066  1.3606  0.8553
   40MOL0     H 5264   6.568   4.524  11.082 -2.0462 -4.9240 -1.2835
   40MOL0     H 5265   6.577   4.588  11.326  2.0616 -0.1601  3.1862
   40MOL0     H 5266   5.268   4.817  11.623  0.6257 -0.8153  0.6440
   40MOL0     H 5267   5.217   4.908  11.402 -0.4009  3.7527  0.9505
   40MOL0     H 5268   5.138   5.184  11.231 -1.0541 -1.4746 -0.9301
   40MOL0     H 5269   4.981   5.284  11.065  0.3714  0.0257 -0.0902
   40MOL0     H 5270   4.869   5.441  10.956  0.1097 -4.2777  0.0908
   40MOL0     H 5271   4.895   5.343  10.814  1.3519  1.2588 -4.0523
   40MOL0     H 5272   4.826   5.616  10.823  0.8738  1.1852 -0.5847
   40MOL0     H 5273   4.928   5.557  10.688 -0.1664  1.2173  0.2630
   40MOL0     H 5274   4.700   5.386  10.755  0.6162 -1.0579  0.4218
   40MOL0     H 5275   4.771   5.449  10.593  0.9711 -2.5120  1.4296
   40MOL0     H 5276   4.580   5.601  10.785 -0.8061  3.0007  0.7450
   40MOL0     H 5277   4.640   5.662  10.621  1.1527 -0.2155  0.5768
   40MOL0     H 5278   4.343   5.434  10.467  0.7097  1.7256 -0.9109
   40MOL0     H 5279   5.311   5.482  10.881 -0.5743 -0.7985 -2.1174
   40MOL0     H 5280   5.469   5.361  11.014 -0.6657 -0.9469 -0.3237
   41MOL0     O 5281  10.430   1.960   7.435  0.3816 -0.2205  0.0720
   41MOL0     C 5282  10.549   1.978   7.426 -0.0413  0.8195 -0.1444
   41MOL0     O 5283  10.630   1.998   7.528  0.5199 -0.9009 -0.6057
   41MOL0     C 5284  10.573   2.036   7.650 -0.1752  0.6139  0.5444
   41MOL0     C 5285  10.618   1.975   7.767  0.0600  0.4197 -0.4032
   41MOL0     C 5286  10.573   2.019   7.892 -0.8809 -0.3773 -0.9104
   41MOL0     C 5287  10.485   2.121   7.914  0.3333  0.2358 -0.0529
   41MOL0     O 5288  10.449   2.154   8.042 -0.0827  0.3215 -0.0128
   41MOL0     C 5289  10.326   2.217   8.058  0.9017 -0.1383 -0.4862
   41MOL0     C 5290  10.275   2.197   8.203 -0.0038 -0.6678 -0.4760
   41MOL0     C 5291  10.131   2.211   8.224  0.4420 -1.2176  1.2170
   41MOL0     C 5292  10.081   2.356   8.214  0.0323 -0.1857  0.2166
   41MOL0     C 5293   9.927   2.376   8.228 -1.0218 -0.4580  0.5692
   41MOL0     C 5294   9.848   2.373   8.100  0.1323 -0.5160 -0.2035
   41MOL0     C 5295   9.705   2.437   8.086 -0.5414  0.1498 -0.5928
   41MOL0     C 5296   9.606   2.380   8.190 -0.3757 -0.2985  0.3416
   41MOL0     N 5297   9.558   2.242   8.172 -0.0809 -0.0112  0.3655
   41MOL0     C 5298   9.452   2.206   8.102 -0.3562 -0.0903  0.2347
   41MOL0     C 5299   9.441   2.070   8.124 -0.7174 -0.1399  0.4200
   41MOL0     C 5300   9.335   1.973   8.076 -0.0563 -0.1906  0.5972
   41MOL0     C 5301   9.281   1.995   7.939  0.6108 -0.1542  0.0599
   41MOL0     C 5302   9.128   1.981   7.927 -1.4450  0.0388 -0.1894
   41MOL0     C 5303   9.095   1.958   7.776 -0.5998 -0.1507  1.0202
   41MOL0     O 5304   9.115   2.084   7.696 -0.4652  0.8755  0.1035
   41MOL0     C 5305   9.111   2.064   7.567  0.2040  1.1274 -0.2155
   41MOL0     C 5306   9.211   2.012   7.487 -1.1758 -0.4045  0.7086
   41MOL0     C 5307   9.180   2.002   7.346  0.4144  0.4830 -0.4799
   41MOL0     C 5308   9.062   2.058   7.286  1.1637  0.5711  0.4864
   41MOL0     C 5309   9.053   2.071   7.141  0.4748 -0.0588 -0.3211
   41MOL0     O 5310   8.942   2.135   7.089 -0.3733  0.1974 -0.8696
   41MOL0     C 5311   8.905   2.130   6.958 -0.1245  0.5937 -0.1139
   41MOL0     C 5312   8.841   2.245   6.902 -0.1239  0.0262 -0.5070
   41MOL0     C 5313   8.787   2.236   6.774 -0.0684 -0.4150  0.2794
   41MOL0     C 5314   8.790   2.115   6.698  0.2752 -0.0844  0.0602
   41MOL0     O 5315   8.704   2.124   6.592 -0.0169 -0.0515 -0.0708
   41MOL0     C 5316   8.703   2.006   6.500 -1.2048 -0.6223  0.6286
   41MOL0     C 5317   8.640   2.047   6.372 -0.8984  0.2820 -0.5306
   41MOL0     C 5318   8.634   1.930   6.273  0.6180  0.1047 -0.0975
   41MOL0     C 5319   8.569   1.967   6.139  0.0928  0.2931 -0.9310
   41MOL0     C 5320   8.411   1.982   6.153  0.1503  0.5407 -0.7476
   41MOL0     C 5321   8.353   1.982   6.015 -0.0918  0.0870 -0.0483
   41MOL0     C 5322   8.366   2.121   5.952  0.3867  0.0704 -0.2066
   41MOL0     C 5323   8.348   2.116   5.804 -0.3109  0.1363 -0.1636
   41MOL0    Cl 5324   8.393   2.271   5.724  0.1950  0.1614  0.2270
   41MOL0     C 5325   8.837   2.000   6.761 -0.3819 -0.6344 -1.0342
   41MOL0     C 5326   8.883   2.011   6.894  0.5642 -0.3316  1.0958
   41MOL0     O 5327   9.143   2.027   7.077 -0.5784  0.7364  0.0469
   41MOL0     C 5328   8.977   2.117   7.375 -0.8871  0.3285 -0.0139
   41MOL0     C 5329   9.001   2.121   7.509 -1.5518  0.1022 -0.3840
   41MOL0     N 5330   9.544   2.030   8.208  0.6187  0.3932  0.9113
   41MOL0     N 5331   9.619   2.135   8.227 -0.5920 -0.7160 -0.2125
   41MOL0     C 5332  10.450   2.197   7.795 -0.7871 -0.8968 -0.0813
   41MOL0     C 5333  10.490   2.150   7.669 -0.9336 -0.4920 -0.1547
   41MOL0     C 5334  10.617   1.975   7.300  0.4464  0.3861  0.1943
   41MOL0     C 5335  10.542   1.960   7.177  0.1327 -0.9229  0.3046
   41MOL0     C 5336  10.605   1.963   7.052 -0.3963  1.1997  0.2078
   41MOL0     C 5337  10.744   1.977   7.042  0.7074  0.2803  0.6431
   41MOL0     O 5338  10.807   1.987   6.916  0.2085  0.0573  1.3401
   41MOL0     C 5339  10.730   1.990   6.789 -1.0778 -0.2667  0.5251
   41MOL0     C 5340  10.695   1.861   6.720  0.2457 -0.1851  0.1764
   41MOL0     C 5341  10.786   1.753   6.769 -0.7416 -0.3492 -0.1990
   41MOL0     C 5342  10.738   1.607   6.733 -1.0848  0.0228  0.3984
   41MOL0     C 5343  10.596   1.583   6.741  0.2333  0.1991 -0.8383
   41MOL0     C 5344  10.481   1.544   6.746 -0.4159 -0.1362  0.1367
   41MOL0     C 5345  10.815   1.988   7.156  0.4154 -0.8931 -0.5944
   41MOL0     C 5346  10.761   1.985   7.289  0.0217  0.2020  0.9086
   41MOL0     H 5347  10.667   1.879   7.751 -3.1623 -1.1993 -1.4698
   41MOL0     H 5348  10.606   1.968   7.982 -0.6679  2.6924  0.8861
   41MOL0     H 5349  10.253   2.170   7.991 -0.8864  1.2463  0.3976
   41MOL0     H 5350  10.331   2.323   8.031 -1.7832 -0.5834 -3.2196
   41MOL0     H 5351  10.330   2.271   8.262 -0.2739 -0.4929 -0.4448
   41MOL0     H 5352  10.311   2.098   8.234  3.7046  1.1416  1.7393
   41MOL0     H 5353  10.108   2.174   8.325 -0.3718 -0.4096  1.3471
   41MOL0     H 5354  10.075   2.156   8.147  0.9399  1.8571 -1.5715
   41MOL0     H 5355  10.136   2.406   8.295  1.2934 -2.0922  0.6125
   41MOL0     H 5356  10.120   2.405   8.124  3.1633  1.9410  2.4810
   41MOL0     H 5357   9.922   2.483   8.252  0.7139 -0.2837  0.2978
   41MOL0     H 5358   9.900   2.317   8.316 -0.1521  1.9615  2.5830
   41MOL0     H 5359   9.848   2.270   8.063 -4.6659 -0.3896 -1.3237
   41MOL0     H 5360   9.903   2.426   8.022 -2.0251 -2.3897 -3.2190
   41MOL0     H 5361   9.718   2.543   8.107 -0.1849 -0.4250  2.5696
   41MOL0     H 5362   9.667   2.413   7.986 -0.8583 -1.9664 -0.0246
   41MOL0     H 5363   9.518   2.444   8.179  0.8854  1.4888  0.2864
   41MOL0     H 5364   9.637   2.399   8.293  0.0012  2.6254 -0.2419
   41MOL0     H 5365   9.387   2.272   8.046  2.9990  2.5392 -0.8453
   41MOL0     H 5366   9.250   1.991   8.143 -1.5055  0.7748 -1.4118
   41MOL0     H 5367   9.355   1.865   8.083 -2.7807 -0.8479 -0.5202
   41MOL0     H 5368   9.336   1.930   7.871  1.2389 -1.8816  2.0915
   41MOL0     H 5369   9.307   2.096   7.906 -1.4165 -0.2467 -2.0759
   41MOL0     H 5370   9.081   1.904   7.989  0.8790  0.7560  2.6479
   41MOL0     H 5371   9.086   2.078   7.953 -0.6644  0.2067  0.4779
   41MOL0     H 5372   8.989   1.929   7.773 -0.5258 -0.4862  1.4915
   41MOL0     H 5373   9.151   1.869   7.745  0.5831 -0.8280  4.5534
   41MOL0     H 5374   9.304   1.976   7.528 -0.3357  0.6649 -0.1810
   41MOL0     H 5375   9.249   1.938   7.291 -1.0649 -0.4500 -1.3080
   41MOL0     H 5376   8.840   2.333   6.965 -1.9146  0.0633 -0.5371
   41MOL0     H 5377   8.727   2.322   6.746 -0.0015 -0.5268 -0.2130
   41MOL0     H 5378   8.621   1.944   6.538 -2.7582  1.4794  0.8352
   41MOL0     H 5379   8.800   1.956   6.490  0.2420  2.1486 -0.0533
   41MOL0     H 5380   8.697   2.132   6.334 -1.8718  0.5479 -1.4544
   41MOL0     H 5381   8.541   2.088   6.397  0.0717  1.5624  1.5239
   41MOL0     H 5382   8.580   1.843   6.311  0.9071  0.0626  0.2264
   41MOL0     H 5383   8.740   1.906   6.256  0.6761 -0.7731  1.3542
   41MOL0     H 5384   8.615   2.058   6.100 -2.2941  1.2863 -1.6312
   41MOL0     H 5385   8.591   1.889   6.066 -0.2326  1.0177 -1.8315
   41MOL0     H 5386   8.383   2.070   6.211 -0.0610 -0.0820  0.1134
   41MOL0     H 5387   8.375   1.892   6.205  1.3320  0.9061  0.7817
   41MOL0     H 5388   8.250   1.949   6.027  0.5047 -1.6305  0.7043
   41MOL0     H 5389   8.402   1.908   5.951  2.0627 -0.1974  1.7917
   41MOL0     H 5390   8.282   2.181   5.987  0.3030 -0.2642  0.1741
   41MOL0     H 5391   8.460   2.168   5.983  0.3000  0.2205 -0.1712
   41MOL0     H 5392   8.248   2.082   5.779 -0.8375  1.1575  0.4710
   41MOL0     H 5393   8.411   2.037   5.762  2.5269  2.2845 -0.3098
   41MOL0     H 5394   8.810   1.899   6.733 -2.4033 -0.8989  1.5103
   41MOL0     H 5395   8.906   1.919   6.946 -2.9340 -2.0044 -0.0132
   41MOL0     H 5396   8.883   2.161   7.341 -1.9356  1.5636  4.0104
   41MOL0     H 5397   8.931   2.174   7.574 -1.5754 -3.1903  2.6004
   41MOL0     H 5398  10.406   2.295   7.809 -1.6335 -1.4229  1.1762
   41MOL0     H 5399  10.460   2.217   7.589 -0.5037 -0.9611 -0.7228
   41MOL0     H 5400  10.434   1.946   7.173 -0.4542  2.2927  1.1718
   41MOL0     H 5401  10.530   1.946   6.976 -2.8209  2.9044  2.0565
   41MOL0     H 5402  10.782   2.050   6.714 -1.5221 -2.3413 -1.5175
   41MOL0     H 5403  10.640   2.050   6.805 -0.7610  0.2867  0.2484
   41MOL0     H 5404  10.589   1.841   6.734 -0.4120  1.5334 -1.8413
   41MOL0     H 5405  10.707   1.887   6.614 -0.3478  2.8925  0.7736
   41MOL0     H 5406  10.780   1.742   6.878  2.9535  1.9284  0.4044
   41MOL0     H 5407  10.890   1.774   6.743 -0.0739  0.3876  2.7327
   41MOL0     H 5408  10.770   1.600   6.629 -0.0799  2.8932  0.4249
   41MOL0     H 5409  10.794   1.540   6.798 -1.3165  0.9852  1.6351
   41MOL0     H 5410  10.379   1.512   6.746  0.4783 -3.8067  2.9031
   41MOL0     H 5411  10.920   2.002   7.134  0.0107  1.0999 -1.3890
   41MOL0     H 5412  10.828   2.008   7.371 -1.6719  3.1636  1.5949
   42MOL0     O 5413   9.645   0.867   5.795 -0.6410 -0.5114  0.0681
   42MOL0     C 5414   9.530   0.849   5.826 -0.4930  0.0213  1.3035
   42MOL0     O 5415   9.420   0.892   5.759 -0.9366 -0.1796  0.9908
   42MOL0     C 5416   9.447   0.979   5.653 -0.6762  0.4654 -0.0191
   42MOL0     C 5417   9.468   1.117   5.685 -0.5030  0.7103  0.6839
   42MOL0     C 5418   9.491   1.208   5.579  1.6839 -0.4510  0.7624
   42MOL0     C 5419   9.487   1.158   5.441 -0.5578  0.1444 -0.5175
   42MOL0     O 5420   9.501   1.239   5.329 -0.7191 -0.5971 -0.1908
   42MOL0     C 5421   9.417   1.352   5.319  0.2090 -1.4257  0.0621
   42MOL0     C 5422   9.412   1.394   5.166  0.8113  0.6828 -0.1972
   42MOL0     C 5423   9.382   1.276   5.066  1.4627  0.0203  0.3008
   42MOL0     C 5424   9.238   1.221   5.079 -0.3984  0.6187 -1.0476
   42MOL0     C 5425   9.126   1.319   5.087  0.2937 -0.7674 -0.5484
   42MOL0     C 5426   9.086   1.371   4.949 -0.3375  0.1972 -0.9906
   42MOL0     C 5427   8.945   1.435   4.954 -0.0740 -0.0327 -0.0739
   42MOL0     C 5428   8.908   1.495   4.811  0.5200 -0.0571 -0.6696
   42MOL0     N 5429   8.879   1.389   4.711  0.8465  0.0182  0.0078
   42MOL0     C 5430   8.828   1.260   4.731 -0.7215  0.4313 -0.3946
   42MOL0     C 5431   8.831   1.190   4.618  0.0371 -0.1150 -0.1797
   42MOL0     C 5432   8.786   1.049   4.605 -0.1756 -0.0283  0.6179
   42MOL0     C 5433   8.733   1.015   4.455  0.3093  0.7154 -1.1401
   42MOL0     C 5434   8.616   1.099   4.404  0.2333 -0.3748 -0.2512
   42MOL0     C 5435   8.516   1.154   4.502 -0.7742 -0.3585 -0.0654
   42MOL0     O 5436   8.383   1.134   4.463  0.5872  0.0844  0.1151
   42MOL0     C 5437   8.277   1.172   4.543 -0.1821  0.4276  1.2160
   42MOL0     C 5438   8.281   1.240   4.660  0.9882 -0.0323  0.1620
   42MOL0     C 5439   8.159   1.256   4.735  0.4805  0.7946 -0.4205
   42MOL0     C 5440   8.029   1.205   4.691 -0.4770 -0.4173  1.0536
   42MOL0     C 5441   7.902   1.208   4.764 -0.5764 -1.2901 -0.4932
   42MOL0     O 5442   7.790   1.177   4.703 -0.0502 -0.0125 -0.3059
   42MOL0     C 5443   7.667   1.189   4.750  0.2147  0.5545  0.7865
   42MOL0     C 5444   7.613   1.160   4.881 -0.6160  0.3619 -0.3388
   42MOL0     C 5445   7.479   1.205   4.906  0.5219 -0.0425  1.3384
   42MOL0     C 5446   7.404   1.288   4.812 -0.4285 -0.5198 -0.0594
   42MOL0     O 5447   7.286   1.338   4.861 -0.1995  0.6907  0.3979
   42MOL0     C 5448   7.166   1.324   4.776 -0.5249  1.0128  0.2866
   42MOL0     C 5449   7.058   1.257   4.864  0.8779 -0.0734 -0.3057
   42MOL0     C 5450   6.918   1.231   4.793  0.6523  0.2196  0.6256
   42MOL0     C 5451   6.823   1.159   4.890  0.0734  0.6310 -0.5527
   42MOL0     C 5452   6.675   1.191   4.851 -0.7418 -0.4469 -0.2704
   42MOL0     C 5453   6.615   1.091   4.748 -0.1487 -0.2519 -0.4345
   42MOL0     C 5454   6.458   1.094   4.727  0.2021  0.1031  1.0458
   42MOL0     C 5455   6.434   1.038   4.589 -0.6313  0.4816  0.4751
   42MOL0    Cl 5456   6.466   0.869   4.591 -0.2322  0.0071 -0.1315
   42MOL0     C 5457   7.450   1.281   4.679 -0.1958 -0.5653 -0.2032
   42MOL0     C 5458   7.574   1.240   4.653 -1.4442 -1.1599  0.1106
   42MOL0     O 5459   7.909   1.239   4.884  0.6628 -0.2581  0.5230
   42MOL0     C 5460   8.036   1.129   4.569  0.6698  0.0969  0.5359
   42MOL0     C 5461   8.152   1.123   4.496  0.4278 -0.0728 -0.2186
   42MOL0     N 5462   8.884   1.283   4.534  0.2268  0.3176  0.4516
   42MOL0     N 5463   8.910   1.403   4.580  0.1850 -0.2465  0.2747
   42MOL0     C 5464   9.493   1.023   5.424 -0.3633  0.4239 -0.1267
   42MOL0     C 5465   9.471   0.936   5.529 -0.1981  1.3247  0.1782
   42MOL0     C 5466   9.501   0.756   5.942  0.1312 -0.4250  0.4265
   42MOL0     C 5467   9.364   0.710   5.973  0.1771 -1.0366  0.8872
   42MOL0     C 5468   9.345   0.628   6.083 -0.1754  0.0750 -1.1624
   42MOL0     C 5469   9.446   0.603   6.185  0.7620 -0.1177  0.1723
   42MOL0     O 5470   9.407   0.523   6.292  0.0809  0.3190 -0.5493
   42MOL0     C 5471   9.506   0.513   6.387 -0.8609 -0.1658  0.2513
   42MOL0     C 5472   9.478   0.407   6.503  0.0717  0.3861  0.6205
   42MOL0     C 5473   9.404   0.472   6.613 -0.4834  0.3790 -0.3974
   42MOL0     C 5474   9.405   0.376   6.732  0.1981 -0.1296 -0.2496
   42MOL0     C 5475   9.324   0.421   6.850  0.5654 -0.4461 -0.5680
   42MOL0     C 5476   9.268   0.440   6.957  0.4978 -0.6122 -1.2091
   42MOL0     C 5477   9.569   0.645   6.155  0.1505 -0.5698 -0.3339
   42MOL0     C 5478   9.599   0.718   6.033  0.2311  0.9380  0.2370
   42MOL0     H 5479   9.450   1.139   5.790  0.1600 -1.6009  1.3466
   42MOL0     H 5480   9.489   1.314   5.601 -1.8147 -0.0598 -0.7669
   42MOL0     H 5481   9.464   1.430   5.379  1.0390 -1.0299 -1.0644
   42MOL0     H 5482   9.320   1.323   5.361 -0.0104 -0.5259  0.1969
   42MOL0     H 5483   9.509   1.434   5.134  0.1355  0.6353 -2.4722
   42MOL0     H 5484   9.348   1.482   5.163 -0.3938 -0.1388  0.7928
   42MOL0     H 5485   9.448   1.189   5.075 -1.9656 -2.7436  1.0083
   42MOL0     H 5486   9.378   1.312   4.963  1.4622 -2.3127 -0.5602
   42MOL0     H 5487   9.215   1.141   5.009  1.9746 -0.9013 -0.2323
   42MOL0     H 5488   9.255   1.177   5.178 -0.6598  2.2280 -0.2449
   42MOL0     H 5489   9.155   1.408   5.145  1.7131 -0.9402 -0.9512
   42MOL0     H 5490   9.048   1.268   5.144 -0.0587 -0.8814 -1.1299
   42MOL0     H 5491   9.104   1.292   4.876  1.2127 -0.2398 -0.1759
   42MOL0     H 5492   9.155   1.441   4.900  0.8786  0.1604  0.5875
   42MOL0     H 5493   8.886   1.345   4.972 -1.1889  0.5261 -0.8461
   42MOL0     H 5494   8.933   1.512   5.030  2.9837  1.2000 -0.6692
   42MOL0     H 5495   8.985   1.565   4.777  0.9946 -0.1327  0.2312
   42MOL0     H 5496   8.822   1.560   4.829  1.4549  0.4465  2.4878
   42MOL0     H 5497   8.789   1.222   4.824 -1.2851  0.0773 -0.7701
   42MOL0     H 5498   8.709   1.020   4.677 -1.1689  0.1578 -0.3368
   42MOL0     H 5499   8.875   0.990   4.628 -0.1570  0.8013  2.8351
   42MOL0     H 5500   8.695   0.912   4.454  1.6022  0.2217 -0.8522
   42MOL0     H 5501   8.812   1.014   4.380  0.7975 -2.9240 -0.7706
   42MOL0     H 5502   8.661   1.190   4.363 -0.9241  0.9690  1.3145
   42MOL0     H 5503   8.565   1.048   4.322  1.1188 -4.1411  1.3040
   42MOL0     H 5504   8.534   1.259   4.526  0.5565 -0.6693  0.3460
   42MOL0     H 5505   8.530   1.092   4.592 -1.4990 -1.2133 -0.5229
   42MOL0     H 5506   8.370   1.282   4.706 -0.0281  2.9569 -0.3673
   42MOL0     H 5507   8.164   1.304   4.833 -1.8183  1.9714 -0.8015
   42MOL0     H 5508   7.666   1.099   4.953 -0.7741  0.2520 -0.3143
   42MOL0     H 5509   7.435   1.193   5.005 -2.9501  2.1363  0.2046
   42MOL0     H 5510   7.177   1.263   4.685 -2.8326  0.1404  0.5063
   42MOL0     H 5511   7.137   1.422   4.739 -2.7095  1.0377  1.8395
   42MOL0     H 5512   7.045   1.330   4.944  1.9149  1.1513 -1.2148
   42MOL0     H 5513   7.095   1.164   4.909  0.7770 -1.6655 -3.2469
   42MOL0     H 5514   6.933   1.187   4.694  0.9722  0.5015  0.5457
   42MOL0     H 5515   6.873   1.328   4.774 -1.2701 -0.6515  0.5616
   42MOL0     H 5516   6.839   1.052   4.906 -0.8911  0.9689  4.0801
   42MOL0     H 5517   6.842   1.200   4.989 -3.2693 -1.0810  0.9285
   42MOL0     H 5518   6.658   1.296   4.824 -0.6921 -0.1735  0.7129
   42MOL0     H 5519   6.622   1.192   4.947 -0.2743  3.2495  0.1035
   42MOL0     H 5520   6.634   0.991   4.787 -1.5191 -0.4843 -0.3430
   42MOL0     H 5521   6.667   1.089   4.651 -1.5364 -0.0825 -1.2072
   42MOL0     H 5522   6.398   1.044   4.804 -0.9481 -1.2401 -0.6413
   42MOL0     H 5523   6.428   1.200   4.730  3.7817  1.3573 -1.4145
   42MOL0     H 5524   6.485   1.094   4.510 -2.1122 -2.8181 -3.1482
   42MOL0     H 5525   6.330   1.059   4.562 -0.7633 -2.6385 -2.0771
   42MOL0     H 5526   7.386   1.333   4.608 -1.8175 -3.4174 -0.9562
   42MOL0     H 5527   7.622   1.264   4.559 -0.6427 -1.5102  0.4251
   42MOL0     H 5528   7.941   1.085   4.541  1.7268 -2.4136  0.5440
   42MOL0     H 5529   8.142   1.065   4.405 -0.3845 -0.6028  0.1901
   42MOL0     H 5530   9.524   0.988   5.325  2.4492 -2.5885  1.6135
   42MOL0     H 5531   9.456   0.830   5.510 -2.1782  1.3662  1.2214
   42MOL0     H 5532   9.281   0.716   5.903  0.5719  0.2716  0.5053
   42MOL0     H 5533   9.249   0.582   6.107  0.0784  0.6668  1.2725
   42MOL0     H 5534   9.527   0.611   6.430  1.3437 -0.9490  1.0956
   42MOL0     H 5535   9.600   0.477   6.345 -1.7507 -2.1929 -0.1226
   42MOL0     H 5536   9.415   0.323   6.473 -0.1351 -1.1015  4.6028
   42MOL0     H 5537   9.571   0.362   6.540 -0.5466 -2.7012 -1.2431
   42MOL0     H 5538   9.303   0.499   6.581 -0.9112  0.1464  0.7027
   42MOL0     H 5539   9.451   0.563   6.649  1.4460 -1.6448  2.6982
   42MOL0     H 5540   9.363   0.283   6.694 -1.3508  0.7858 -0.8776
   42MOL0     H 5541   9.508   0.356   6.763  0.4348  0.2031 -0.8115
   42MOL0     H 5542   9.222   0.472   7.049 -1.8421 -0.7617 -2.2551
   42MOL0     H 5543   9.654   0.632   6.221  1.6855 -0.0928 -2.1263
   42MOL0     H 5544   9.697   0.753   6.004  0.5236 -1.4752 -2.1672
   43MOL0     O 5545   0.526   4.815   0.913 -0.2048 -0.0471  0.0347
   43MOL0     C 5546   0.640   4.778   0.883 -0.4039 -0.1790  0.2644
   43MOL0     O 5547   0.675   4.698   0.782  0.2575  0.3903  0.2193
   43MOL0     C 5548   0.580   4.682   0.680  0.5446 -0.3312 -0.7064
   43MOL0     C 5549   0.568   4.792   0.587 -0.0844 -0.0589 -0.1399
   43MOL0     C 5550   0.494   4.776   0.469 -0.5825  0.1124 -1.5018
   43MOL0     C 5551   0.416   4.663   0.453 -0.5377 -0.2326  0.2397
   43MOL0     O 5552   0.358   4.652   0.331  1.0280  0.5068 -0.5344
   43MOL0     C 5553   0.215   4.688   0.337 -0.2134  0.6742 -0.1535
   43MOL0     C 5554   0.166   4.791   0.233  1.1671 -0.5759 -0.4871
   43MOL0     C 5555   0.014   4.813   0.233 -0.3259  0.1338 -1.6305
   43MOL0     C 5556  -0.007   4.946   0.151  0.5473  0.5949 -0.0475
   43MOL0     C 5557  -0.155   4.993   0.140  1.0097 -0.0755 -0.7020
   43MOL0     C 5558  -0.154   5.137   0.069  0.0109 -0.2584  0.2450
   43MOL0     C 5559  -0.301   5.173   0.039 -0.4251 -0.1733  0.8565
   43MOL0     C 5560  -0.321   5.330   0.002  0.0803 -0.5516 -0.1778
   43MOL0     N 5561  -0.457   5.360  -0.003  0.2435 -0.4291 -0.4235
   43MOL0     C 5562  -0.531   5.422   0.095 -0.0416  1.0704  0.2498
   43MOL0     C 5563  -0.656   5.426   0.032  0.2429 -0.4238 -0.1718
   43MOL0     C 5564  -0.772   5.485   0.109  0.0545  0.3641  1.1012
   43MOL0     C 5565  -0.876   5.375   0.140  0.3301  0.0456  0.5403
   43MOL0     C 5566  -0.815   5.256   0.216 -0.8158  0.2640 -0.2197
   43MOL0     C 5567  -0.916   5.146   0.250 -0.5357  0.0605 -0.0618
   43MOL0     O 5568  -0.955   5.085   0.132  0.3937  0.5583  0.0239
   43MOL0     C 5569  -0.873   5.012   0.051 -0.8494  1.1415  0.1253
   43MOL0     C 5570  -0.856   4.873   0.069 -0.3796  0.6978 -0.6285
   43MOL0     C 5571  -0.781   4.802  -0.020 -0.5601 -0.3432  0.1323
   43MOL0     C 5572  -0.711   4.854  -0.126 -0.4104  0.3185  0.3625
   43MOL0     C 5573  -0.614   4.768  -0.189 -0.3274 -0.3984  1.1405
   43MOL0     O 5574  -0.535   4.833  -0.279  0.3232  0.0138 -0.0438
   43MOL0     C 5575  -0.484   4.758  -0.380  0.3970  0.1900  0.6011
   43MOL0     C 5576  -0.554   4.665  -0.452  0.4383 -0.7918  0.1137
   43MOL0     C 5577  -0.508   4.607  -0.567 -0.6769 -0.4757 -0.5213
   43MOL0     C 5578  -0.374   4.631  -0.603 -0.5240 -0.2816  0.6408
   43MOL0     O 5579  -0.309   4.587  -0.716 -0.1582  0.1214 -0.3268
   43MOL0     C 5580  -0.343   4.461  -0.775 -0.6624  0.7356 -0.1917
   43MOL0     C 5581  -0.224   4.417  -0.865 -0.1094 -0.2025  0.2556
   43MOL0     C 5582  -0.264   4.424  -1.012  0.3198 -0.4420  0.6098
   43MOL0     C 5583  -0.171   4.334  -1.100  0.1887  0.4504  1.2771
   43MOL0     C 5584  -0.169   4.374  -1.249  0.7390 -0.2513  0.2862
   43MOL0     C 5585  -0.047   4.309  -1.315  0.4052 -0.1810 -0.6912
   43MOL0     C 5586  -0.068   4.288  -1.467  0.8421  0.2928 -0.8385
   43MOL0     C 5587  -0.086   4.427  -1.530 -0.0469 -0.5461  0.0485
   43MOL0    Cl 5588  -0.120   4.427  -1.717  0.5698 -0.0937  0.0248
   43MOL0     C 5589  -0.301   4.715  -0.525  0.1425 -0.3789 -0.1937
   43MOL0     C 5590  -0.354   4.791  -0.421  0.6276 -0.4738 -0.6828
   43MOL0     O 5591  -0.593   4.656  -0.147 -0.2948 -0.9809  0.1916
   43MOL0     C 5592  -0.726   4.988  -0.157 -0.1474 -0.5768 -0.3755
   43MOL0     C 5593  -0.802   5.068  -0.070 -1.0046  0.5567 -0.2426
   43MOL0     N 5594  -0.651   5.377  -0.095  0.2116 -0.0066  0.5197
   43MOL0     N 5595  -0.531   5.332  -0.121 -1.0372 -0.4317 -0.1629
   43MOL0     C 5596   0.398   4.568   0.556  0.1704 -0.5611 -0.3172
   43MOL0     C 5597   0.487   4.572   0.670 -0.0028  0.1850  0.1236
   43MOL0     C 5598   0.747   4.815   0.978 -0.0240 -0.5450  0.4166
   43MOL0     C 5599   0.729   4.932   1.050 -0.4504 -0.0582  0.1246
   43MOL0     C 5600   0.833   4.974   1.142 -0.1034  0.7010 -1.5164
   43MOL0     C 5601   0.955   4.900   1.162  1.2432  1.3217 -1.2363
   43MOL0     O 5602   1.048   4.953   1.248  0.4634  0.5963  1.0873
   43MOL0     C 5603   1.012   4.988   1.380  0.2907  0.3609 -0.7569
   43MOL0     C 5604   1.046   4.867   1.465 -0.5649 -0.2651 -0.1074
   43MOL0     C 5605   1.194   4.819   1.460  0.4769  0.7505  0.5498
   43MOL0     C 5606   1.226   4.669   1.474  0.6371 -1.1875 -0.1797
   43MOL0     C 5607   1.372   4.652   1.479 -0.3890 -0.4134  0.7605
   43MOL0     C 5608   1.491   4.663   1.494 -0.7217  0.3742 -0.2346
   43MOL0     C 5609   0.964   4.778   1.104 -0.6334 -0.1284  0.5614
   43MOL0     C 5610   0.865   4.748   1.009 -0.6846  0.1440  0.7562
   43MOL0     H 5611   0.626   4.884   0.590  0.5596 -0.3594 -2.1159
   43MOL0     H 5612   0.497   4.843   0.384 -0.4095 -2.4232 -3.6355
   43MOL0     H 5613   0.184   4.726   0.435 -3.0222  0.4057 -0.8502
   43MOL0     H 5614   0.160   4.598   0.307 -0.7266  1.5403 -1.9559
   43MOL0     H 5615   0.198   4.749   0.138  0.5712 -2.0058 -0.0875
   43MOL0     H 5616   0.234   4.873   0.257  2.6600 -1.6021 -1.0092
   43MOL0     H 5617  -0.021   4.824   0.336  2.3712  0.9760 -0.7035
   43MOL0     H 5618  -0.026   4.726   0.180  1.3535 -1.4646 -0.3694
   43MOL0     H 5619   0.042   5.011   0.225  2.5771 -4.0243  3.1329
   43MOL0     H 5620   0.037   4.952   0.051 -0.2305 -0.6165 -0.4819
   43MOL0     H 5621  -0.208   4.989   0.236  1.5566  1.9726 -0.2747
   43MOL0     H 5622  -0.212   4.932   0.069  0.6878 -0.5939 -0.0108
   43MOL0     H 5623  -0.092   5.127  -0.020 -1.3179  0.0951 -0.7497
   43MOL0     H 5624  -0.110   5.211   0.137 -0.0864  0.2082 -0.1967
   43MOL0     H 5625  -0.331   5.117  -0.050  2.3060  1.1441 -1.0376
   43MOL0     H 5626  -0.358   5.163   0.132  0.9151  0.7024  1.8010
   43MOL0     H 5627  -0.286   5.348  -0.099  0.8408  0.3197  0.2301
   43MOL0     H 5628  -0.273   5.390   0.080  1.1145 -3.0217  1.1952
   43MOL0     H 5629  -0.503   5.465   0.190  1.1654 -1.8636  1.3205
   43MOL0     H 5630  -0.819   5.557   0.042  0.3265 -2.4069 -2.4195
   43MOL0     H 5631  -0.757   5.534   0.205  1.1570  1.9882  0.1431
   43MOL0     H 5632  -0.935   5.352   0.051  2.6408  0.7190 -1.2729
   43MOL0     H 5633  -0.945   5.426   0.209  1.6535  3.2947 -0.3161
   43MOL0     H 5634  -0.741   5.203   0.156 -0.6794  2.1990 -1.8505
   43MOL0     H 5635  -0.772   5.308   0.303 -0.9110  1.3666 -0.8223
   43MOL0     H 5636  -1.006   5.189   0.295 -1.6804 -1.6583 -0.5977
   43MOL0     H 5637  -0.864   5.074   0.313 -1.0074  0.2135  0.5130
   43MOL0     H 5638  -0.905   4.822   0.151  1.5468  1.8104  1.3179
   43MOL0     H 5639  -0.774   4.694  -0.013 -2.2798 -0.5417 -0.4662
   43MOL0     H 5640  -0.660   4.648  -0.436  0.2434  1.1258  1.1634
   43MOL0     H 5641  -0.565   4.550  -0.640 -0.9453 -0.2882 -0.4593
   43MOL0     H 5642  -0.436   4.471  -0.832  0.4951 -1.2530 -2.6365
   43MOL0     H 5643  -0.358   4.379  -0.705 -1.7589 -1.6799 -3.0554
   43MOL0     H 5644  -0.215   4.313  -0.833 -2.0306 -0.9579 -1.4291
   43MOL0     H 5645  -0.138   4.481  -0.839 -1.6481  2.1527 -0.1653
   43MOL0     H 5646  -0.286   4.520  -1.060 -1.0152 -0.7835  0.4882
   43MOL0     H 5647  -0.363   4.377  -1.009  1.1457 -2.2506  0.7631
   43MOL0     H 5648  -0.071   4.343  -1.057  0.1737 -0.7343  1.5971
   43MOL0     H 5649  -0.203   4.230  -1.094 -3.6356  1.3686 -0.0003
   43MOL0     H 5650  -0.153   4.482  -1.255  0.9955 -0.2433  1.0392
   43MOL0     H 5651  -0.263   4.355  -1.302  0.6550  0.4073  0.1909
   43MOL0     H 5652  -0.040   4.207  -1.276  2.9405 -1.1121 -3.2131
   43MOL0     H 5653   0.042   4.366  -1.287  0.5036 -0.9060  0.5475
   43MOL0     H 5654   0.019   4.244  -1.517  0.9075 -0.5496  0.0013
   43MOL0     H 5655  -0.157   4.229  -1.493  0.8231 -0.0157 -0.0855
   43MOL0     H 5656   0.002   4.487  -1.505  1.6127 -2.4700 -0.9139
   43MOL0     H 5657  -0.169   4.469  -1.472  2.5487 -0.6418  4.2499
   43MOL0     H 5658  -0.211   4.759  -0.567 -0.1566  3.5575  2.7657
   43MOL0     H 5659  -0.303   4.875  -0.375 -1.1727  0.3173 -0.0438
   43MOL0     H 5660  -0.669   5.020  -0.244  2.4804  0.2842  1.5259
   43MOL0     H 5661  -0.830   5.168  -0.102  0.2994  1.8248  2.2313
   43MOL0     H 5662   0.333   4.484   0.535 -0.5048 -0.1820  0.2119
   43MOL0     H 5663   0.507   4.493   0.741  2.5347  2.1601  1.7393
   43MOL0     H 5664   0.632   4.982   1.050 -1.5374 -2.0691  0.0371
   43MOL0     H 5665   0.812   5.067   1.193 -0.7836 -0.7859  1.1139
   43MOL0     H 5666   0.907   5.015   1.396  0.2339 -1.4215  2.9474
   43MOL0     H 5667   1.057   5.083   1.412 -1.2744  1.1708 -0.8342
   43MOL0     H 5668   1.012   4.898   1.564 -0.7273 -0.7728  0.0020
   43MOL0     H 5669   0.984   4.785   1.426  0.7441 -2.3082  1.8404
   43MOL0     H 5670   1.251   4.861   1.543  1.6523 -1.4441  0.9535
   43MOL0     H 5671   1.243   4.850   1.367 -1.2080  0.1419 -0.6063
   43MOL0     H 5672   1.195   4.631   1.572  0.1429  1.8611  0.9748
   43MOL0     H 5673   1.178   4.606   1.399  0.2286  2.0174 -2.8590
   43MOL0     H 5674   1.597   4.668   1.507 -0.2561  0.7043 -3.2682
   43MOL0     H 5675   1.052   4.717   1.120 -0.0826 -0.2688 -2.4321
   43MOL0     H 5676   0.900   4.653   0.969 -0.0119  0.7230 -0.0751
   44MOL0     O 5677   7.969   3.226   5.754  0.0035  0.6687  0.4365
   44MOL0     C 5678   8.006   3.262   5.641  0.5372 -0.3826  0.2834
   44MOL0     O 5679   8.130   3.252   5.586 -0.3904 -0.9208 -0.0093
   44MOL0     C 5680   8.238   3.211   5.666  0.7894  0.6100  0.0939
   44MOL0     C 5681   8.370   3.262   5.648  0.0302 -1.1676 -0.5817
   44MOL0     C 5682   8.473   3.231   5.737  0.4961  0.4495  0.2678
   44MOL0     C 5683   8.445   3.142   5.850  0.2600  0.4921 -0.4616
   44MOL0     O 5684   8.538   3.109   5.948  0.1144 -0.5947  0.2908
   44MOL0     C 5685   8.671   3.079   5.920  0.0961 -0.3963  0.3548
   44MOL0     C 5686   8.753   3.206   5.958 -0.0766 -0.0169  0.2838
   44MOL0     C 5687   8.903   3.180   5.980  0.8798  0.3280  1.0301
   44MOL0     C 5688   8.951   3.156   6.117  0.1084 -0.9763  0.2871
   44MOL0     C 5689   9.089   3.103   6.113  0.6259 -0.8038  0.4318
   44MOL0     C 5690   9.143   3.067   6.256  0.9598 -0.1408 -0.4616
   44MOL0     C 5691   9.293   3.039   6.255  0.3080 -0.3951 -0.2659
   44MOL0     C 5692   9.367   3.093   6.382  0.6553  1.2041  1.0556
   44MOL0     N 5693   9.333   3.015   6.501 -0.2569  0.3565  1.0591
   44MOL0     C 5694   9.386   2.887   6.527  0.5442 -1.2682 -1.0161
   44MOL0     C 5695   9.312   2.834   6.632 -0.3362  0.3762 -0.2997
   44MOL0     C 5696   9.339   2.704   6.701  0.3107 -0.2351  0.5222
   44MOL0     C 5697   9.408   2.722   6.833  0.3098  0.2568 -1.3687
   44MOL0     C 5698   9.351   2.819   6.942 -0.4239  0.0897  0.1174
   44MOL0     C 5699   9.207   2.801   6.972  0.7475  0.3214 -0.2261
   44MOL0     O 5700   9.188   2.691   7.070  0.1960 -0.8730  0.1089
   44MOL0     C 5701   9.059   2.643   7.087 -0.8409  0.1700 -0.0281
   44MOL0     C 5702   9.044   2.528   7.170  0.2790 -0.8459 -0.4044
   44MOL0     C 5703   8.907   2.473   7.187 -0.7557  0.5271  0.9231
   44MOL0     C 5704   8.795   2.540   7.136 -0.3291 -0.0192  0.1588
   44MOL0     C 5705   8.661   2.477   7.162  0.2796  0.2957  0.0717
   44MOL0     O 5706   8.561   2.503   7.076 -1.0256  0.1110  0.4822
   44MOL0     C 5707   8.452   2.426   7.102  0.1926  0.7463 -0.0842
   44MOL0     C 5708   8.444   2.298   7.050 -0.0890  0.5959 -0.1363
   44MOL0     C 5709   8.336   2.217   7.083  0.1483  0.3082  0.3553
   44MOL0     C 5710   8.219   2.266   7.146  0.3847  0.5752  0.3926
   44MOL0     O 5711   8.099   2.196   7.152 -0.2111 -0.4611  0.2776
   44MOL0     C 5712   8.060   2.171   7.293 -0.3062 -0.0926 -0.3795
   44MOL0     C 5713   8.166   2.101   7.384 -0.1521  0.4023 -0.2362
   44MOL0     C 5714   8.099   2.034   7.511 -0.1873 -0.4833 -0.3367
   44MOL0     C 5715   8.046   2.123   7.617 -0.5304 -0.3871  0.0921
   44MOL0     C 5716   7.960   2.040   7.718  0.7889 -0.1672 -1.3767
   44MOL0     C 5717   8.031   1.925   7.795  0.0304 -0.3001  0.1574
   44MOL0     C 5718   7.918   1.855   7.882  0.0533  0.2824 -0.1030
   44MOL0     C 5719   7.966   1.723   7.936 -0.2630 -0.1348  0.4198
   44MOL0    Cl 5720   7.878   1.678   8.092 -0.2159  0.4000  0.3291
   44MOL0     C 5721   8.227   2.397   7.193  0.2154  0.6257 -0.8444
   44MOL0     C 5722   8.343   2.473   7.172  0.4892  0.6763  0.7968
   44MOL0     O 5723   8.649   2.406   7.263 -0.5423 -0.1374  0.4776
   44MOL0     C 5724   8.815   2.662   7.066  0.1350  0.8118 -0.6772
   44MOL0     C 5725   8.940   2.706   7.036  0.1158 -0.3102  0.6823
   44MOL0     N 5726   9.213   2.929   6.661 -0.1689 -0.7717  0.0568
   44MOL0     N 5727   9.226   3.029   6.589 -0.4580 -0.0048 -0.1688
   44MOL0     C 5728   8.324   3.074   5.851 -0.1745  0.2083 -0.4629
   44MOL0     C 5729   8.220   3.103   5.761 -0.4324 -0.2540  0.5358
   44MOL0     C 5730   7.904   3.300   5.541  1.2434  0.4890  0.4010
   44MOL0     C 5731   7.938   3.323   5.405  0.0819 -0.1857  0.6113
   44MOL0     C 5732   7.840   3.328   5.310 -0.0953 -0.4274 -0.1123
   44MOL0     C 5733   7.700   3.335   5.352 -0.2334  0.5502  0.0909
   44MOL0     O 5734   7.586   3.347   5.276  0.5204 -0.1153 -0.1989
   44MOL0     C 5735   7.604   3.350   5.135 -0.3826  0.3949 -0.7934
   44MOL0     C 5736   7.472   3.400   5.063  0.5579  0.1246 -0.6028
   44MOL0     C 5737   7.435   3.542   5.108 -0.5174  0.6701  0.1121
   44MOL0     C 5738   7.308   3.584   5.026 -0.4555  0.7925  0.6508
   44MOL0     C 5739   7.281   3.724   5.059  0.0294  1.0684 -0.8521
   44MOL0     C 5740   7.257   3.837   5.088 -0.6773 -0.1983  0.2843
   44MOL0     C 5741   7.675   3.322   5.484 -0.2341  0.4528 -0.9501
   44MOL0     C 5742   7.770   3.299   5.581  0.3709  1.2595  0.1340
   44MOL0     H 5743   8.386   3.339   5.573  3.9051 -0.9632  0.2285
   44MOL0     H 5744   8.571   3.269   5.709  0.8620  0.7660  1.8901
   44MOL0     H 5745   8.700   3.054   5.817 -1.7451 -0.5486 -0.1548
   44MOL0     H 5746   8.697   2.989   5.977 -3.0638 -1.1594  0.7731
   44MOL0     H 5747   8.710   3.252   6.047 -0.3250 -1.8013  1.1335
   44MOL0     H 5748   8.731   3.283   5.883 -6.6437 -1.5546  0.0228
   44MOL0     H 5749   8.955   3.273   5.952  1.4449  0.7895  3.3966
   44MOL0     H 5750   8.932   3.103   5.908 -0.4501  1.9982 -1.4356
   44MOL0     H 5751   8.956   3.258   6.156  1.2475  0.1096 -2.4216
   44MOL0     H 5752   8.877   3.097   6.172  0.3230 -2.7527 -1.2159
   44MOL0     H 5753   9.163   3.162   6.060 -0.1809 -0.0676  0.1087
   44MOL0     H 5754   9.067   3.011   6.058 -4.5046 -0.1075  0.7510
   44MOL0     H 5755   9.097   2.972   6.285 -0.0294 -0.0418 -1.6229
   44MOL0     H 5756   9.134   3.149   6.328  3.1036 -0.5664  0.3731
   44MOL0     H 5757   9.320   2.935   6.238  1.2934 -0.2217  0.1329
   44MOL0     H 5758   9.339   3.087   6.168  2.4612 -1.9616 -0.0756
   44MOL0     H 5759   9.332   3.193   6.410  0.3160  0.7585  2.2601
   44MOL0     H 5760   9.476   3.091   6.384  0.6890  2.3958  1.5542
   44MOL0     H 5761   9.477   2.845   6.486  0.9418 -0.6561 -0.7724
   44MOL0     H 5762   9.389   2.639   6.629 -1.3270  0.2627 -1.1537
   44MOL0     H 5763   9.241   2.661   6.724 -1.2291  2.9615  0.4970
   44MOL0     H 5764   9.516   2.739   6.825  0.8069 -1.1971  0.9934
   44MOL0     H 5765   9.399   2.623   6.880 -1.5550  0.4654 -1.2260
   44MOL0     H 5766   9.407   2.799   7.034 -3.7764 -2.1766  1.8697
   44MOL0     H 5767   9.367   2.921   6.906 -0.8666 -0.2918 -1.2070
   44MOL0     H 5768   9.142   2.788   6.884 -1.1797  1.3353  0.9746
   44MOL0     H 5769   9.176   2.891   7.027  0.0454 -0.0845  0.0566
   44MOL0     H 5770   9.130   2.476   7.211  1.6048 -0.1432 -2.1576
   44MOL0     H 5771   8.904   2.376   7.234  1.4764 -0.4223 -0.7537
   44MOL0     H 5772   8.528   2.263   6.992 -2.4035 -1.7374 -2.3474
   44MOL0     H 5773   8.337   2.113   7.052  3.2065  0.7018 -1.1785
   44MOL0     H 5774   7.970   2.112   7.276 -0.8476  0.2302  1.2275
   44MOL0     H 5775   8.030   2.267   7.334 -2.7077 -0.6618 -0.6464
   44MOL0     H 5776   8.234   2.171   7.433  1.9077 -0.3764 -1.8366
   44MOL0     H 5777   8.213   2.022   7.325 -2.4337 -0.8547 -0.4725
   44MOL0     H 5778   8.167   1.963   7.560  2.5470  2.7199  0.9437
   44MOL0     H 5779   8.018   1.976   7.467  1.0666 -2.1524 -0.5217
   44MOL0     H 5780   8.136   2.170   7.657  0.7271  0.5061 -3.4982
   44MOL0     H 5781   7.978   2.197   7.574 -0.6482  0.8713  2.3054
   44MOL0     H 5782   7.880   1.999   7.656 -0.2312  0.4896 -0.5498
   44MOL0     H 5783   7.908   2.108   7.787  1.1334 -0.2529 -1.0301
   44MOL0     H 5784   8.112   1.949   7.865  0.8249 -0.1540 -0.7958
   44MOL0     H 5785   8.063   1.854   7.718 -1.7316 -0.4383 -0.4940
   44MOL0     H 5786   7.899   1.930   7.959 -3.1018 -0.5977  0.1384
   44MOL0     H 5787   7.829   1.831   7.821  0.9285 -2.9132 -0.3191
   44MOL0     H 5788   8.071   1.728   7.968 -0.4504 -0.1012  1.0381
   44MOL0     H 5789   7.978   1.642   7.863  2.0107  0.0605  0.4979
   44MOL0     H 5790   8.141   2.443   7.240  2.6426  3.2230  1.4491
   44MOL0     H 5791   8.348   2.576   7.205  1.7251  0.7490  0.4397
   44MOL0     H 5792   8.734   2.729   7.039 -1.5298  0.5287  3.0378
   44MOL0     H 5793   8.933   2.787   6.965 -1.7980 -4.0014 -3.8781
   44MOL0     H 5794   8.292   3.003   5.927  0.7117  1.9109  1.5951
   44MOL0     H 5795   8.124   3.056   5.777 -0.4327 -0.0405  1.1945
   44MOL0     H 5796   8.042   3.304   5.378 -0.0956  0.1617 -0.3762
   44MOL0     H 5797   7.867   3.321   5.206 -3.4206 -0.5058 -1.0896
   44MOL0     H 5798   7.632   3.249   5.103  0.9142  0.5476 -0.1854
   44MOL0     H 5799   7.689   3.411   5.104 -0.2994  1.3008  1.1061
   44MOL0     H 5800   7.488   3.404   4.955 -0.5086 -3.8289 -1.0486
   44MOL0     H 5801   7.389   3.330   5.079  0.3751  0.2027 -1.1855
   44MOL0     H 5802   7.516   3.607   5.074 -1.8937  1.0246 -2.8882
   44MOL0     H 5803   7.418   3.549   5.215 -1.1929 -4.7444  0.6332
   44MOL0     H 5804   7.328   3.572   4.920 -0.4398  3.0141  0.3521
   44MOL0     H 5805   7.218   3.531   5.059 -1.2149  2.7643  1.9495
   44MOL0     H 5806   7.218   3.934   5.114 -0.0479 -0.1430  1.0523
   44MOL0     H 5807   7.571   3.323   5.518  0.8826 -0.1197  2.9496
   44MOL0     H 5808   7.741   3.282   5.684  1.7181 -0.8969  0.2157
   45MOL0     O 5809   3.590   0.570   8.493 -0.2735 -1.1384 -0.3956
   45MOL0     C 5810   3.504   0.628   8.430 -0.8793 -0.1556  0.5080
   45MOL0     O 5811   3.424   0.556   8.335  0.8264 -0.7367  0.1590
   45MOL0     C 5812   3.460   0.431   8.303 -0.0374 -0.4548 -0.3449
   45MOL0     C 5813   3.545   0.418   8.197 -0.7883 -0.0420  0.7105
   45MOL0     C 5814   3.582   0.290   8.154 -0.4722  0.8232 -0.2651
   45MOL0     C 5815   3.540   0.174   8.221 -0.2519 -0.1583  0.2938
   45MOL0     O 5816   3.592   0.065   8.169  0.0486  0.1849  0.0513
   45MOL0     C 5817   3.559  -0.054   8.233  0.8825  0.4230  0.0893
   45MOL0     C 5818   3.618  -0.177   8.162 -0.4800  0.1279  0.2756
   45MOL0     C 5819   3.609  -0.308   8.250 -0.2667 -0.2213  0.1497
   45MOL0     C 5820   3.646  -0.440   8.172 -0.1055  0.8598  0.3603
   45MOL0     C 5821   3.630  -0.560   8.259  0.3424  0.5757 -0.3213
   45MOL0     C 5822   3.698  -0.692   8.213  0.7087 -0.8273 -0.5353
   45MOL0     C 5823   3.609  -0.766   8.112  0.1495 -0.5457  1.2088
   45MOL0     C 5824   3.647  -0.910   8.078  1.0964  0.1006  0.2035
   45MOL0     N 5825   3.771  -0.931   8.007  0.6601 -0.6166 -0.8651
   45MOL0     C 5826   3.789  -0.904   7.880 -0.1155  0.2908  0.6567
   45MOL0     C 5827   3.927  -0.897   7.858  0.1347 -0.3976 -0.0563
   45MOL0     C 5828   4.013  -0.843   7.740 -0.5165  0.4636  0.8295
   45MOL0     C 5829   4.141  -0.916   7.717  0.9120 -0.1528 -0.1369
   45MOL0     C 5830   4.260  -0.844   7.664 -0.2886  0.0236 -0.2712
   45MOL0     C 5831   4.245  -0.753   7.546  0.2339  0.3249  0.8081
   45MOL0     O 5832   4.207  -0.835   7.431 -0.0946  0.4565  0.7489
   45MOL0     C 5833   4.307  -0.893   7.356  0.4764 -0.8159 -0.3701
   45MOL0     C 5834   4.347  -1.029   7.367 -1.0147  0.1699  1.6947
   45MOL0     C 5835   4.454  -1.078   7.286  0.9143  0.0569 -0.2828
   45MOL0     C 5836   4.508  -0.994   7.189 -0.2641 -0.1000 -0.1402
   45MOL0     C 5837   4.629  -1.040   7.111  0.9157 -0.1206 -0.2918
   45MOL0     O 5838   4.672  -1.160   7.138  0.0710 -0.1110  0.1029
   45MOL0     C 5839   4.772  -1.214   7.068  0.0578  0.2683  0.9109
   45MOL0     C 5840   4.761  -1.342   7.019  0.1893  0.1989  0.1422
   45MOL0     C 5841   4.865  -1.409   6.949 -0.7726 -0.0544  0.5679
   45MOL0     C 5842   4.983  -1.338   6.918 -0.5637 -0.0223 -0.9796
   45MOL0     O 5843   5.089  -1.378   6.851 -0.4291 -0.0058  0.2169
   45MOL0     C 5844   5.049  -1.463   6.741  0.8033  0.6912  0.8492
   45MOL0     C 5845   5.156  -1.496   6.626 -0.0851 -0.1468 -0.2160
   45MOL0     C 5846   5.111  -1.618   6.549 -0.1894 -0.2599  0.0901
   45MOL0     C 5847   5.210  -1.614   6.428 -0.1061  0.1279  0.2394
   45MOL0     C 5848   5.185  -1.744   6.350  0.5450 -0.0849  0.1486
   45MOL0     C 5849   5.252  -1.748   6.213 -0.3227 -0.3526 -0.0840
   45MOL0     C 5850   5.246  -1.885   6.146  1.6043 -0.3470  0.7054
   45MOL0     C 5851   5.360  -1.898   6.045 -0.3399 -0.8312 -0.0247
   45MOL0    Cl 5852   5.312  -1.829   5.882  0.0151 -0.1936 -0.0688
   45MOL0     C 5853   5.006  -1.212   6.991 -0.0902 -0.5592  0.2187
   45MOL0     C 5854   4.898  -1.159   7.066  0.3174  0.4142  0.3381
   45MOL0     O 5855   4.665  -0.970   7.016  0.4163 -0.4851 -0.4654
   45MOL0     C 5856   4.467  -0.860   7.177 -0.6001 -0.6777  0.0504
   45MOL0     C 5857   4.371  -0.805   7.273 -0.0284  0.3877  0.3500
   45MOL0     N 5858   3.992  -0.931   7.980 -0.3959 -0.5339 -0.4267
   45MOL0     N 5859   3.890  -0.954   8.068 -0.5849  0.6846  1.4772
   45MOL0     C 5860   3.462   0.190   8.341 -0.5262  0.1032 -0.2038
   45MOL0     C 5861   3.421   0.319   8.382 -0.3570  0.4757 -0.3555
   45MOL0     C 5862   3.482   0.772   8.441 -0.2186 -0.2882 -0.1485
   45MOL0     C 5863   3.374   0.827   8.364 -0.2694 -0.6295 -0.0155
   45MOL0     C 5864   3.320   0.954   8.386 -0.3994 -0.1200  0.4904
   45MOL0     C 5865   3.388   1.041   8.477  0.1903 -0.1868  1.1307
   45MOL0     O 5866   3.350   1.178   8.465 -0.0020  0.4923 -0.0059
   45MOL0     C 5867   3.411   1.287   8.530  0.1014 -0.2854  0.5627
   45MOL0     C 5868   3.373   1.304   8.679  0.0688  0.2377  0.2437
   45MOL0     C 5869   3.464   1.389   8.757  0.0184 -1.1916 -0.3660
   45MOL0     C 5870   3.380   1.460   8.874  0.0456  0.5939 -0.5167
   45MOL0     C 5871   3.284   1.553   8.821 -0.8224  0.1066 -0.1577
   45MOL0     C 5872   3.190   1.619   8.782 -0.0334  0.0867  0.8314
   45MOL0     C 5873   3.498   0.994   8.546 -1.0945 -0.4071 -0.3888
   45MOL0     C 5874   3.544   0.860   8.536 -0.0608 -0.6871  0.1449
   45MOL0     H 5875   3.592   0.499   8.143 -1.3561  1.0348  1.7764
   45MOL0     H 5876   3.649   0.278   8.070 -0.0446  1.4496 -0.0278
   45MOL0     H 5877   3.451  -0.075   8.231  1.0446 -0.5354 -2.6122
   45MOL0     H 5878   3.596  -0.049   8.336 -0.9354  2.0027  0.7139
   45MOL0     H 5879   3.724  -0.157   8.147 -0.7594  3.8779  2.1110
   45MOL0     H 5880   3.577  -0.191   8.062  0.2427 -1.7220  0.1990
   45MOL0     H 5881   3.503  -0.314   8.278  0.0209 -2.3736  0.9020
   45MOL0     H 5882   3.666  -0.304   8.343 -1.5544 -4.1546  1.3034
   45MOL0     H 5883   3.585  -0.450   8.082  3.1466  0.0148 -1.9254
   45MOL0     H 5884   3.752  -0.431   8.147  0.6291 -1.9059  2.0807
   45MOL0     H 5885   3.529  -0.584   8.291  0.6390  0.4276  0.5444
   45MOL0     H 5886   3.672  -0.522   8.353  1.4767 -0.3495 -0.4383
   45MOL0     H 5887   3.703  -0.746   8.308 -2.1766  2.9298  2.0197
   45MOL0     H 5888   3.801  -0.678   8.179 -0.3096 -1.4617 -4.3047
   45MOL0     H 5889   3.506  -0.756   8.148 -0.4382  1.3415 -0.8051
   45MOL0     H 5890   3.613  -0.719   8.013 -0.0482 -4.2686 -0.7619
   45MOL0     H 5891   3.573  -0.957   8.012  1.1786  1.4978 -0.9502
   45MOL0     H 5892   3.649  -0.968   8.170 -0.6077  0.7369  0.6722
   45MOL0     H 5893   3.714  -0.885   7.804  3.1363  1.1256 -2.5783
   45MOL0     H 5894   4.051  -0.741   7.745  1.3567  0.2472 -3.8597
   45MOL0     H 5895   3.952  -0.858   7.650  0.8693 -2.5516  0.2635
   45MOL0     H 5896   4.126  -1.005   7.656  1.5186 -1.2974  1.3134
   45MOL0     H 5897   4.168  -0.958   7.814 -0.2684  0.2508  0.4005
   45MOL0     H 5898   4.299  -0.780   7.744 -0.9078 -0.5325  0.4970
   45MOL0     H 5899   4.330  -0.924   7.637 -1.9162 -1.1884 -1.0210
   45MOL0     H 5900   4.335  -0.693   7.528 -0.3112  0.4206 -2.1195
   45MOL0     H 5901   4.170  -0.675   7.558  2.4195  2.4689  1.2919
   45MOL0     H 5902   4.290  -1.103   7.422 -0.8192  0.6995  2.6138
   45MOL0     H 5903   4.488  -1.179   7.302  1.1858  0.6488  4.1189
   45MOL0     H 5904   4.667  -1.394   7.038  0.6501 -0.3820  0.9130
   45MOL0     H 5905   4.862  -1.506   6.901  1.0566 -0.7783  1.7906
   45MOL0     H 5906   4.956  -1.419   6.704  0.0021 -1.7768 -0.2548
   45MOL0     H 5907   5.021  -1.558   6.787 -1.5610 -0.2126 -2.1239
   45MOL0     H 5908   5.250  -1.533   6.669  0.5224  2.4894  0.9357
   45MOL0     H 5909   5.171  -1.402   6.572 -0.3553 -1.8054 -3.3793
   45MOL0     H 5910   5.010  -1.602   6.510 -0.2083  1.6456  0.8214
   45MOL0     H 5911   5.113  -1.705   6.616 -4.4619 -0.5764  0.0947
   45MOL0     H 5912   5.186  -1.530   6.363 -0.4539  1.6917  2.2927
   45MOL0     H 5913   5.317  -1.616   6.451  0.4266  0.2650 -2.0120
   45MOL0     H 5914   5.076  -1.756   6.351  0.5647 -0.2713  0.9257
   45MOL0     H 5915   5.235  -1.825   6.404 -2.3990 -2.1292  0.0350
   45MOL0     H 5916   5.359  -1.735   6.235 -0.5851  0.3258  0.8360
   45MOL0     H 5917   5.224  -1.666   6.146 -2.1477 -0.2445  0.7500
   45MOL0     H 5918   5.271  -1.956   6.226  4.2873 -0.9316 -0.5211
   45MOL0     H 5919   5.144  -1.901   6.109  1.2683  2.0420  0.4197
   45MOL0     H 5920   5.374  -2.006   6.029 -1.6080 -1.4433  2.4957
   45MOL0     H 5921   5.457  -1.858   6.075 -0.2152  0.8800 -2.4829
   45MOL0     H 5922   5.104  -1.165   6.988 -1.0513  1.4731 -1.3099
   45MOL0     H 5923   4.924  -1.070   7.122  0.3472 -0.5839  1.9727
   45MOL0     H 5924   4.495  -0.793   7.097 -0.9064 -1.7745 -1.0170
   45MOL0     H 5925   4.361  -0.697   7.270 -1.2575  0.2623 -1.4074
   45MOL0     H 5926   3.436   0.103   8.399  1.2644 -0.8374 -0.7680
   45MOL0     H 5927   3.377   0.328   8.481  1.4961 -1.7469  0.7760
   45MOL0     H 5928   3.315   0.774   8.290 -1.2416 -1.1375  1.1023
   45MOL0     H 5929   3.248   0.997   8.318 -2.6273 -1.0901  2.1112
   45MOL0     H 5930   3.387   1.377   8.473 -0.7976 -1.8726 -1.7107
   45MOL0     H 5931   3.521   1.287   8.535  0.0624 -0.1290  1.7779
   45MOL0     H 5932   3.272   1.346   8.667  0.0998 -0.1940 -1.7221
   45MOL0     H 5933   3.374   1.210   8.735  1.6139 -0.7218 -1.3073
   45MOL0     H 5934   3.490   1.472   8.691 -0.3200  0.7987  1.8706
   45MOL0     H 5935   3.548   1.337   8.803  2.3733  0.7947 -2.1638
   45MOL0     H 5936   3.327   1.379   8.925  1.1244 -0.2883 -0.7547
   45MOL0     H 5937   3.437   1.509   8.953  2.1103 -0.7189 -1.1053
   45MOL0     H 5938   3.110   1.689   8.767 -0.2419 -0.4353 -0.7500
   45MOL0     H 5939   3.550   1.064   8.611  3.2719 -4.2436  0.7379
   45MOL0     H 5940   3.634   0.836   8.592  1.1443  3.6399  0.4045
   46MOL0     O 5941   1.374  10.596   3.514  0.1605  0.0599  0.1606
   46MOL0     C 5942   1.268  10.621   3.457 -0.6055 -0.7400 -0.5153
   46MOL0     O 5943   1.232  10.573   3.334  0.3586  0.2217  0.3631
   46MOL0     C 5944   1.325  10.508   3.260 -1.1953 -0.0826 -0.8356
   46MOL0     C 5945   1.329  10.566   3.136 -0.3371 -0.0299  0.5740
   46MOL0     C 5946   1.403  10.501   3.040  0.5240 -0.5870 -0.2071
   46MOL0     C 5947   1.473  10.386   3.070 -0.8404  1.0717  0.1604
   46MOL0     O 5948   1.533  10.327   2.962 -0.5976 -0.1569  0.1391
   46MOL0     C 5949   1.556  10.188   2.974 -0.2897  0.6640  0.6807
   46MOL0     C 5950   1.611  10.134   2.838 -0.1169 -0.1155  1.0841
   46MOL0     C 5951   1.760  10.153   2.807 -0.7807  0.6944  0.1944
   46MOL0     C 5952   1.788  10.050   2.694 -0.6892 -0.6278  0.1472
   46MOL0     C 5953   1.930  10.045   2.657 -0.3008 -0.1498 -0.7454
   46MOL0     C 5954   1.966   9.940   2.553 -0.7038  0.0412 -0.1691
   46MOL0     C 5955   2.114   9.925   2.536  0.0999  0.1639  0.3337
   46MOL0     C 5956   2.150   9.806   2.436 -0.3696 -0.3516  0.0387
   46MOL0     N 5957   2.287   9.785   2.389  0.7324  0.3473 -0.6226
   46MOL0     C 5958   2.399   9.852   2.435 -0.0759 -0.0130 -0.3904
   46MOL0     C 5959   2.496   9.783   2.370  0.9353 -0.7950 -0.5650
   46MOL0     C 5960   2.625   9.835   2.376 -0.0235 -0.1222 -0.1405
   46MOL0     C 5961   2.688   9.789   2.510  0.1134  0.8803 -0.4452
   46MOL0     C 5962   2.746   9.651   2.507 -0.5528  0.2017 -0.2229
   46MOL0     C 5963   2.656   9.529   2.485  0.6905  0.9843 -0.5499
   46MOL0     O 5964   2.715   9.395   2.481 -0.2317 -0.0221  0.1054
   46MOL0     C 5965   2.797   9.380   2.371  0.4143 -0.6728 -0.0580
   46MOL0     C 5966   2.916   9.309   2.397 -0.8906  0.1446  0.2900
   46MOL0     C 5967   3.021   9.295   2.300  0.4389 -0.1018  0.1382
   46MOL0     C 5968   3.008   9.352   2.178 -0.6232 -0.8409 -0.1951
   46MOL0     C 5969   3.098   9.304   2.070  0.8919 -0.0325  0.5178
   46MOL0     O 5970   3.209   9.223   2.103 -0.6746  0.2315  0.1651
   46MOL0     C 5971   3.283   9.159   2.003  0.4369 -0.7212  0.4030
   46MOL0     C 5972   3.400   9.099   2.058  0.5062  0.6772  0.0335
   46MOL0     C 5973   3.492   9.031   1.972 -0.0394 -0.5019  0.1918
   46MOL0     C 5974   3.478   9.027   1.836  0.4350  0.0507  0.2967
   46MOL0     O 5975   3.571   8.974   1.755 -0.2984 -0.1763  1.0794
   46MOL0     C 5976   3.709   8.968   1.798  0.2056 -0.8834 -0.6996
   46MOL0     C 5977   3.803   8.956   1.679  0.3683  0.3707  0.4067
   46MOL0     C 5978   3.949   8.925   1.714 -0.5533  0.8634 -0.0652
   46MOL0     C 5979   3.977   8.765   1.740  0.3022 -0.6465  0.0393
   46MOL0     C 5980   4.119   8.730   1.724 -0.1992 -0.1167 -1.4586
   46MOL0     C 5981   4.157   8.587   1.755 -0.1435  0.1855  0.2981
   46MOL0     C 5982   4.305   8.569   1.697 -0.2626 -0.9652  0.1508
   46MOL0     C 5983   4.381   8.438   1.728 -1.4211 -0.3444  0.3949
   46MOL0    Cl 5984   4.299   8.283   1.667  0.2054 -0.1082  0.4374
   46MOL0     C 5985   3.358   9.079   1.785 -0.1694  0.7246  0.5772
   46MOL0     C 5986   3.260   9.148   1.862 -0.4974  0.1134 -0.0045
   46MOL0     O 5987   3.073   9.344   1.956 -0.5790 -0.5795 -0.5638
   46MOL0     C 5988   2.889   9.422   2.146  0.8006 -0.0084  0.6476
   46MOL0     C 5989   2.786   9.440   2.238 -0.7201  0.1939 -0.8859
   46MOL0     N 5990   2.446   9.699   2.273 -0.6893 -0.1763  0.3077
   46MOL0     N 5991   2.314   9.693   2.290  0.6923 -1.0279 -0.1070
   46MOL0     C 5992   1.461  10.320   3.191 -0.9880 -0.4791 -0.2749
   46MOL0     C 5993   1.396  10.389   3.295 -0.2750 -0.5326 -0.6932
   46MOL0     C 5994   1.182  10.698   3.549  1.1910  0.8438  0.4198
   46MOL0     C 5995   1.229  10.752   3.677 -0.6665  0.3632  0.8184
   46MOL0     C 5996   1.137  10.830   3.740  0.4849  0.5695  0.6032
   46MOL0     C 5997   1.007  10.853   3.693  1.1311 -0.9179 -0.3026
   46MOL0     O 5998   0.913  10.938   3.750 -0.4640 -0.0571 -0.8401
   46MOL0     C 5999   0.962  11.044   3.853 -0.2821  0.2924 -0.2029
   46MOL0     C 6000   0.974  10.971   3.993 -0.2760  0.8192 -0.0768
   46MOL0     C 6001   1.013  11.079   4.086 -0.9459  1.0016  0.8486
   46MOL0     C 6002   1.063  11.033   4.223  0.1148  0.3842  0.5449
   46MOL0     C 6003   1.188  10.952   4.222 -0.1679  0.4793 -0.8702
   46MOL0     C 6004   1.288  10.885   4.207  0.2535  0.8756  0.2211
   46MOL0     C 6005   0.965  10.800   3.568  0.2496  0.7186  0.1141
   46MOL0     C 6006   1.057  10.729   3.494 -0.6979 -0.2616  0.1236
   46MOL0     H 6007   1.260  10.645   3.107 -1.0583 -1.2454 -1.2140
   46MOL0     H 6008   1.424  10.531   2.938  0.8086  0.1012  0.0500
   46MOL0     H 6009   1.469  10.126   2.995 -1.1827  1.3025 -0.9027
   46MOL0     H 6010   1.637  10.165   3.044  1.8528  1.7260 -1.2938
   46MOL0     H 6011   1.556  10.184   2.757  3.7868  0.9846 -1.1662
   46MOL0     H 6012   1.571  10.035   2.816 -2.2853  1.1227 -1.0744
   46MOL0     H 6013   1.823  10.144   2.897  1.1659  3.3848 -0.7509
   46MOL0     H 6014   1.775  10.251   2.761 -0.4491  0.9431  0.8068
   46MOL0     H 6015   1.760   9.949   2.725  2.5471 -1.0815  1.9596
   46MOL0     H 6016   1.749  10.082   2.596  6.0491  4.9179 -1.5064
   46MOL0     H 6017   1.989  10.010   2.743  1.4550 -0.3269 -1.9595
   46MOL0     H 6018   1.950  10.151   2.639  0.6501  0.3979  2.7136
   46MOL0     H 6019   1.922   9.955   2.454 -1.2555  2.3281  0.3571
   46MOL0     H 6020   1.935   9.841   2.587 -0.0409  0.9818  3.7009
   46MOL0     H 6021   2.139  10.024   2.496 -1.1704  0.5991  0.5611
   46MOL0     H 6022   2.172   9.929   2.628 -0.2343  1.5343  0.5057
   46MOL0     H 6023   2.090   9.829   2.348  1.2818  2.5178 -0.4494
   46MOL0     H 6024   2.105   9.716   2.478 -0.3947 -1.7032 -2.6493
   46MOL0     H 6025   2.408   9.919   2.520 -1.5756  0.2556 -0.4180
   46MOL0     H 6026   2.614   9.943   2.364  0.6696 -0.1432 -1.0832
   46MOL0     H 6027   2.686   9.793   2.295  1.3173 -0.4398  1.0044
   46MOL0     H 6028   2.612   9.789   2.589  0.4522 -0.7897 -0.0723
   46MOL0     H 6029   2.763   9.861   2.544 -0.6809  0.7810  1.6420
   46MOL0     H 6030   2.827   9.651   2.434 -1.8049 -2.7198 -1.8112
   46MOL0     H 6031   2.777   9.636   2.611 -3.2341  3.3011  1.2285
   46MOL0     H 6032   2.604   9.536   2.389 -2.2123  1.8135  0.9550
   46MOL0     H 6033   2.582   9.532   2.566  2.9530  1.8358  1.6360
   46MOL0     H 6034   2.944   9.263   2.491 -2.9715  1.2834  1.5330
   46MOL0     H 6035   3.106   9.233   2.327  0.0518 -1.1300 -0.9051
   46MOL0     H 6036   3.422   9.106   2.164 -2.2495 -2.3699  0.9879
   46MOL0     H 6037   3.575   8.979   2.018  2.1154 -0.2264 -3.0814
   46MOL0     H 6038   3.728   8.877   1.857 -1.7082 -1.4446 -0.8735
   46MOL0     H 6039   3.732   9.060   1.851 -3.3444  0.7492 -1.7172
   46MOL0     H 6040   3.800   9.044   1.614 -0.7674  0.6510  0.8124
   46MOL0     H 6041   3.767   8.875   1.614 -0.0234  3.3904 -3.4985
   46MOL0     H 6042   3.991   8.970   1.804 -2.3223 -2.3789  2.6206
   46MOL0     H 6043   4.020   8.954   1.636  1.3485  2.2718  2.0681
   46MOL0     H 6044   3.957   8.734   1.843  0.8685 -2.3574 -0.3237
   46MOL0     H 6045   3.916   8.693   1.684  0.4544 -0.9282  0.2281
   46MOL0     H 6046   4.177   8.799   1.786  1.2321  2.0688 -4.9052
   46MOL0     H 6047   4.158   8.748   1.623  0.1885  2.1905 -0.9487
   46MOL0     H 6048   4.092   8.515   1.704  1.0400 -0.8945  0.2582
   46MOL0     H 6049   4.156   8.589   1.865 -0.8939  1.3158  0.2883
   46MOL0     H 6050   4.306   8.584   1.589 -0.2346  0.2574  0.3083
   46MOL0     H 6051   4.359   8.657   1.733 -0.2909  0.3769 -2.8152
   46MOL0     H 6052   4.395   8.434   1.836 -0.6267 -1.8809  0.2666
   46MOL0     H 6053   4.481   8.442   1.682 -2.4168 -1.2181 -2.0351
   46MOL0     H 6054   3.347   9.051   1.681  1.9798 -1.9069  0.9417
   46MOL0     H 6055   3.172   9.199   1.826 -0.5328  0.0196 -0.0508
   46MOL0     H 6056   2.884   9.458   2.044  4.8210 -4.1831 -1.3809
   46MOL0     H 6057   2.697   9.487   2.198 -1.5112  0.1521  0.7424
   46MOL0     H 6058   1.510  10.225   3.212 -0.9301 -0.3444  0.1987
   46MOL0     H 6059   1.400  10.338   3.390 -2.4868  0.4973  0.0185
   46MOL0     H 6060   1.328  10.733   3.716  0.8152  2.4975 -1.5600
   46MOL0     H 6061   1.168  10.879   3.832 -1.2318 -2.7148  3.1766
   46MOL0     H 6062   0.882  11.119   3.842 -0.0663  1.1820  3.1817
   46MOL0     H 6063   1.057  11.085   3.819  0.0919 -0.3344  0.0745
   46MOL0     H 6064   0.876  10.926   4.010 -0.0775 -0.8709 -2.8013
   46MOL0     H 6065   1.039  10.882   3.996 -0.5272  0.3169 -4.1522
   46MOL0     H 6066   0.921  11.137   4.100 -1.8264  0.0903 -0.8326
   46MOL0     H 6067   1.089  11.140   4.038  0.0967 -1.1250 -0.3349
   46MOL0     H 6068   1.068  11.126   4.281 -1.0141  1.1935 -0.6069
   46MOL0     H 6069   0.986  10.971   4.270 -0.3133 -1.0715 -1.9493
   46MOL0     H 6070   1.377  10.826   4.193  0.2822  0.9941 -0.0903
   46MOL0     H 6071   0.867  10.830   3.532 -1.7312 -3.8954  0.9510
   46MOL0     H 6072   1.038  10.709   3.389  2.6054  2.5166 -1.1952
   47MOL0     O 6073   7.842   0.273  10.263 -0.0290  0.1848  1.1959
   47MOL0     C 6074   7.765   0.293  10.172  0.6439  0.0818 -0.9736
   47MOL0     O 6075   7.666   0.395  10.177  0.3578 -0.3060  0.7938
   47MOL0     C 6076   7.648   0.489  10.282  0.0395  0.0572  0.3548
   47MOL0     C 6077   7.606   0.621  10.251  0.9352  0.1168 -0.7993
   47MOL0     C 6078   7.582   0.712  10.356 -0.4367  0.7299 -0.0829
   47MOL0     C 6079   7.610   0.681  10.493 -0.7872  0.0107  1.0080
   47MOL0     O 6080   7.596   0.786  10.579 -0.1267  0.1679 -0.4349
   47MOL0     C 6081   7.618   0.756  10.718 -0.2571 -0.6651 -0.3143
   47MOL0     C 6082   7.501   0.696  10.797 -0.3008  0.0476 -0.5813
   47MOL0     C 6083   7.388   0.806  10.810 -0.2788 -0.3159 -0.1306
   47MOL0     C 6084   7.247   0.748  10.838  0.8842  1.2902 -0.8429
   47MOL0     C 6085   7.156   0.868  10.824 -0.0500 -0.9580  0.6800
   47MOL0     C 6086   7.115   0.923  10.964 -0.6390 -0.6508  0.2274
   47MOL0     C 6087   7.025   1.042  10.939 -0.4548  0.4923 -0.4203
   47MOL0     C 6088   6.984   1.099  11.077  0.4413 -0.9729  0.6920
   47MOL0     N 6089   6.904   1.003  11.157  0.0760  0.1996 -0.8594
   47MOL0     C 6090   6.903   0.978  11.295 -0.1242 -0.0423  1.0940
   47MOL0     C 6091   6.807   0.888  11.319  0.0170  1.0982  0.9218
   47MOL0     C 6092   6.785   0.842  11.449  0.6448 -0.0444  0.3293
   47MOL0     C 6093   6.689   0.733  11.463 -0.1174  0.0336 -0.3002
   47MOL0     C 6094   6.718   0.642  11.597  0.8298 -0.7652 -0.0538
   47MOL0     C 6095   6.659   0.495  11.587  0.7307 -0.2668 -0.6593
   47MOL0     O 6096   6.740   0.419  11.500 -0.3363 -0.0750  0.5376
   47MOL0     C 6097   6.678   0.337  11.419  0.2882  0.0116 -0.6895
   47MOL0     C 6098   6.566   0.261  11.448  0.0902  0.8419 -0.3700
   47MOL0     C 6099   6.512   0.182  11.345  0.8577 -0.1803 -0.2934
   47MOL0     C 6100   6.573   0.177  11.220 -0.7921 -0.2790  0.5321
   47MOL0     C 6101   6.530   0.067  11.133  0.3868 -0.0565 -0.8773
   47MOL0     O 6102   6.444  -0.032  11.180  0.2897  0.8764  0.4530
   47MOL0     C 6103   6.417  -0.145  11.109 -0.4517  0.1901  0.1491
   47MOL0     C 6104   6.285  -0.189  11.133 -0.1532 -0.7753  0.4458
   47MOL0     C 6105   6.235  -0.308  11.079 -0.0766 -0.0960 -0.1864
   47MOL0     C 6106   6.319  -0.384  11.005 -0.5908  0.3676  0.3878
   47MOL0     O 6107   6.267  -0.504  10.977 -0.0972  0.1448  0.1819
   47MOL0     C 6108   6.353  -0.618  10.945  0.1773 -0.1452 -0.2015
   47MOL0     C 6109   6.270  -0.751  10.931 -0.0717  0.5682 -0.2558
   47MOL0     C 6110   6.202  -0.794  11.064 -1.0818 -1.0023 -0.0040
   47MOL0     C 6111   6.142  -0.938  11.069  0.5764  0.2050 -0.1668
   47MOL0     C 6112   6.107  -0.970  11.213  0.0594 -0.3476  0.0550
   47MOL0     C 6113   6.079  -1.117  11.226  0.3586 -0.6477 -0.9206
   47MOL0     C 6114   6.044  -1.152  11.373  1.1941  0.3949 -0.5263
   47MOL0     C 6115   6.158  -1.193  11.466  0.0502 -0.6568  0.7273
   47MOL0    Cl 6116   6.237  -1.337  11.398 -0.3551  0.3873  0.1395
   47MOL0     C 6117   6.454  -0.341  10.982  0.2545 -0.1840 -0.1651
   47MOL0     C 6118   6.506  -0.223  11.032  0.2850 -0.5514  0.6953
   47MOL0     O 6119   6.584   0.074  11.024 -0.5866  0.2618  0.6271
   47MOL0     C 6120   6.688   0.251  11.188 -0.0890 -0.1740  0.4778
   47MOL0     C 6121   6.733   0.338  11.291  0.9283 -0.0148  0.9309
   47MOL0     N 6122   6.726   0.887  11.207 -0.5160 -0.2170  0.0526
   47MOL0     N 6123   6.778   0.958  11.114  0.5646 -1.1890  0.2266
   47MOL0     C 6124   7.649   0.549  10.524  0.1018  0.7648  1.0169
   47MOL0     C 6125   7.676   0.453  10.421  0.1541  0.0207  0.3621
   47MOL0     C 6126   7.780   0.209  10.051 -0.5862  0.4757  0.0479
   47MOL0     C 6127   7.687   0.217   9.952 -0.3554  1.0062 -0.3727
   47MOL0     C 6128   7.704   0.160   9.823  0.3491 -0.7334  0.0939
   47MOL0     C 6129   7.808   0.072   9.800  0.9335  0.8465  0.6649
   47MOL0     O 6130   7.811   0.008   9.676  0.0596 -0.1564  0.4504
   47MOL0     C 6131   7.910  -0.092   9.660  0.4223  0.4072 -0.0976
   47MOL0     C 6132   7.918  -0.157   9.516  0.7568 -0.5483  0.0198
   47MOL0     C 6133   7.786  -0.218   9.487 -0.6562 -0.2227  0.1935
   47MOL0     C 6134   7.770  -0.292   9.352  0.3110 -0.6657 -0.1958
   47MOL0     C 6135   7.774  -0.194   9.244 -0.1688  0.4566  0.5337
   47MOL0     C 6136   7.769  -0.107   9.159  0.1428 -0.6616 -0.2759
   47MOL0     C 6137   7.910   0.062   9.898  0.0075 -0.2072 -0.1202
   47MOL0     C 6138   7.895   0.135  10.018  0.2082  0.9635 -0.7908
   47MOL0     H 6139   7.586   0.642  10.146  0.6197  1.6063 -0.4611
   47MOL0     H 6140   7.549   0.813  10.335 -1.2550  1.1523  2.7681
   47MOL0     H 6141   7.649   0.848  10.769  0.8242 -0.2607 -1.6228
   47MOL0     H 6142   7.705   0.691  10.724 -1.1373 -1.8427 -0.0858
   47MOL0     H 6143   7.533   0.656  10.893  0.0627  1.6498  0.0032
   47MOL0     H 6144   7.460   0.614  10.738  0.3955 -2.0385  1.6642
   47MOL0     H 6145   7.391   0.865  10.718 -0.6212  0.0562  0.0941
   47MOL0     H 6146   7.416   0.875  10.891  0.1792 -0.7776  0.1092
   47MOL0     H 6147   7.215   0.678  10.761  2.9536 -2.7471  1.6021
   47MOL0     H 6148   7.247   0.713  10.942  0.8055  0.8838 -0.9785
   47MOL0     H 6149   7.065   0.832  10.776  0.3508  1.7217 -2.5146
   47MOL0     H 6150   7.196   0.946  10.758 -0.9087 -0.3739  0.8237
   47MOL0     H 6151   7.194   0.959  11.030  1.2904 -3.7517 -0.2055
   47MOL0     H 6152   7.084   0.837  11.026  2.9214  0.2047  3.5970
   47MOL0     H 6153   7.072   1.127  10.890  0.1270  1.5699  1.9075
   47MOL0     H 6154   6.937   1.003  10.886 -0.2505 -3.3167  1.6331
   47MOL0     H 6155   6.930   1.191  11.055  3.7760  1.5599  2.1900
   47MOL0     H 6156   7.069   1.122  11.142 -0.5816 -1.6251  2.3337
   47MOL0     H 6157   6.983   1.012  11.361  1.4850  1.6799 -1.5420
   47MOL0     H 6158   6.763   0.918  11.525  2.7736 -0.1130  1.0863
   47MOL0     H 6159   6.884   0.800  11.468  1.3501  1.3196 -0.2064
   47MOL0     H 6160   6.692   0.672  11.372  1.3263 -2.2108  1.1182
   47MOL0     H 6161   6.589   0.776  11.467  0.4765  1.3411  2.7337
   47MOL0     H 6162   6.827   0.652  11.599  0.6776  2.3015 -1.2604
   47MOL0     H 6163   6.682   0.695  11.686 -2.6425 -1.0286 -1.1913
   47MOL0     H 6164   6.557   0.504  11.549  0.9535  0.5255 -1.0933
   47MOL0     H 6165   6.666   0.454  11.689  0.7731  0.5864 -0.3067
   47MOL0     H 6166   6.525   0.263  11.548 -4.2595  1.4571 -1.9498
   47MOL0     H 6167   6.428   0.116  11.365  2.3566 -1.4867  2.2586
   47MOL0     H 6168   6.227  -0.132  11.204 -2.6732 -2.4963 -0.1236
   47MOL0     H 6169   6.137  -0.339  11.112 -0.9341 -2.2047 -4.1232
   47MOL0     H 6170   6.442  -0.623  11.009  0.3382  0.1174 -0.4018
   47MOL0     H 6171   6.395  -0.612  10.845  1.0711 -0.7916  0.1130
   47MOL0     H 6172   6.338  -0.831  10.898 -1.8183 -0.5184 -1.3712
   47MOL0     H 6173   6.195  -0.742  10.852 -0.2492 -0.2354 -0.1786
   47MOL0     H 6174   6.118  -0.731  11.096 -0.3721  0.9891 -1.8428
   47MOL0     H 6175   6.291  -0.796  11.127  0.3650  2.1089 -1.7206
   47MOL0     H 6176   6.061  -0.957  10.998  0.2672 -2.3006  0.7498
   47MOL0     H 6177   6.228  -1.002  11.043 -0.1415 -1.1549  0.6767
   47MOL0     H 6178   6.015  -0.914  11.233  0.6272  0.5182  0.3140
   47MOL0     H 6179   6.191  -0.937  11.274 -0.5846  0.4296  0.5505
   47MOL0     H 6180   6.164  -1.176  11.190 -0.3345 -3.0048  0.9880
   47MOL0     H 6181   5.998  -1.134  11.155  1.5056 -1.9899 -1.9731
   47MOL0     H 6182   5.985  -1.071  11.416 -0.0153  1.4561 -3.8991
   47MOL0     H 6183   5.979  -1.239  11.363  1.8439 -0.1194 -0.3875
   47MOL0     H 6184   6.116  -1.225  11.562 -3.1786  0.0891 -0.3178
   47MOL0     H 6185   6.208  -1.100  11.492 -2.0465 -0.5965  5.4474
   47MOL0     H 6186   6.535  -0.392  10.932  1.2500  1.9376 -0.8302
   47MOL0     H 6187   6.608  -0.194  11.009  0.3121 -0.8366  0.4602
   47MOL0     H 6188   6.739   0.231  11.094  0.0887  1.4607  0.1831
   47MOL0     H 6189   6.813   0.408  11.268 -0.2189  0.9627 -0.2056
   47MOL0     H 6190   7.674   0.518  10.625 -4.5283 -0.7743  1.9396
   47MOL0     H 6191   7.705   0.350  10.440  0.0555 -0.2636 -0.9399
   47MOL0     H 6192   7.600   0.280   9.970  2.1334  4.5632  0.2736
   47MOL0     H 6193   7.625   0.176   9.751 -0.9865  2.3831  2.0424
   47MOL0     H 6194   7.914  -0.164   9.742 -1.3588 -0.1545 -0.4528
   47MOL0     H 6195   8.012  -0.053   9.651  1.3634 -2.0985 -1.4290
   47MOL0     H 6196   7.934  -0.075   9.445 -2.6678 -1.2550 -1.7885
   47MOL0     H 6197   7.999  -0.231   9.516 -0.8020 -2.3473  1.1369
   47MOL0     H 6198   7.712  -0.137   9.491 -1.4755 -0.8877 -0.8079
   47MOL0     H 6199   7.758  -0.284   9.571 -2.1635 -0.8441 -0.7430
   47MOL0     H 6200   7.855  -0.360   9.338  3.6536  2.6457  2.0640
   47MOL0     H 6201   7.679  -0.353   9.352 -0.6258  0.6012  2.0594
   47MOL0     H 6202   7.780  -0.028   9.088  4.3570 -2.2219 -1.6820
   47MOL0     H 6203   7.986  -0.013   9.885 -2.0484 -3.4974  4.5062
   47MOL0     H 6204   7.968   0.143  10.098 -0.0000  0.8717 -0.5884
   48MOL0     O 6205   0.372   5.568   5.625  0.1765  0.8810 -0.0537
   48MOL0     C 6206   0.462   5.564   5.546 -0.8375  0.5599 -0.3057
   48MOL0     O 6207   0.477   5.657   5.452 -0.2065 -0.1766 -0.0259
   48MOL0     C 6208   0.409   5.784   5.463 -0.8220  0.8428  0.0022
   48MOL0     C 6209   0.345   5.838   5.577 -0.2752 -0.7570 -0.3108
   48MOL0     C 6210   0.300   5.975   5.580 -1.6428  0.5554 -0.2083
   48MOL0     C 6211   0.316   6.054   5.463 -0.5769  1.3784  0.3708
   48MOL0     O 6212   0.279   6.187   5.479 -0.4740 -0.2052 -0.2816
   48MOL0     C 6213   0.340   6.292   5.410 -0.2841  0.0064  0.5084
   48MOL0     C 6214   0.317   6.413   5.491  0.2682 -0.3464 -0.1945
   48MOL0     C 6215   0.367   6.531   5.411 -0.5167  0.4234  0.1504
   48MOL0     C 6216   0.328   6.657   5.484  0.2103 -0.0489 -0.3619
   48MOL0     C 6217   0.384   6.774   5.404  0.1332 -0.5956 -0.2103
   48MOL0     C 6218   0.523   6.811   5.461  0.6380  0.6148  0.1651
   48MOL0     C 6219   0.516   6.869   5.603 -0.6136 -0.2498 -0.1903
   48MOL0     C 6220   0.426   6.989   5.625 -0.1430  0.4404  1.0684
   48MOL0     N 6221   0.290   6.943   5.653 -0.1760 -0.0444  0.5109
   48MOL0     C 6222   0.264   6.850   5.756  0.4782 -0.9655  0.1993
   48MOL0     C 6223   0.128   6.833   5.743 -0.3110  0.4788 -0.5544
   48MOL0     C 6224   0.039   6.742   5.822  0.1442 -0.0374  0.4336
   48MOL0     C 6225   0.081   6.600   5.787 -0.1447 -0.8446  0.3583
   48MOL0     C 6226  -0.023   6.508   5.856 -0.1879  0.1859 -0.4316
   48MOL0     C 6227   0.020   6.362   5.851 -0.5130 -0.4641  0.3042
   48MOL0     O 6228   0.136   6.339   5.930  0.4350  0.4719 -0.0103
   48MOL0     C 6229   0.180   6.213   5.961  0.6531 -0.5427  0.5763
   48MOL0     C 6230   0.274   6.190   6.059 -0.6301 -0.4881  0.4189
   48MOL0     C 6231   0.317   6.067   6.106  0.4064 -0.0869 -0.2624
   48MOL0     C 6232   0.255   5.953   6.044 -0.2564  0.7464  0.1584
   48MOL0     C 6233   0.263   5.809   6.111 -0.6357  0.6590  0.4814
   48MOL0     O 6234   0.192   5.703   6.050  0.3532 -0.0041 -0.9523
   48MOL0     C 6235   0.194   5.577   6.099  0.5492 -0.8383 -0.5233
   48MOL0     C 6236   0.229   5.475   6.013 -0.3117 -0.1732 -0.8005
   48MOL0     C 6237   0.238   5.352   6.056  0.1582  0.0231  0.2852
   48MOL0     C 6238   0.224   5.321   6.196 -0.5616 -0.3225  0.6595
   48MOL0     O 6239   0.216   5.189   6.226  0.2211  0.6462 -0.7750
   48MOL0     C 6240   0.239   5.150   6.360  0.2836  0.2506  0.2842
   48MOL0     C 6241   0.297   5.005   6.360 -0.1976  0.3594 -0.3198
   48MOL0     C 6242   0.374   4.978   6.490 -1.2176 -0.4968 -0.5951
   48MOL0     C 6243   0.445   4.836   6.499 -0.0894 -0.7005  0.5202
   48MOL0     C 6244   0.552   4.811   6.400  0.2399  0.0974  0.4418
   48MOL0     C 6245   0.678   4.898   6.426  0.5178 -0.1117  0.0942
   48MOL0     C 6246   0.781   4.825   6.516  0.4217 -0.6329 -0.0433
   48MOL0     C 6247   0.901   4.927   6.554  0.3438  0.1104  0.4716
   48MOL0    Cl 6248   0.974   4.994   6.425  0.0225 -0.1761  0.1060
   48MOL0     C 6249   0.203   5.425   6.287  0.9675 -0.5695  0.9064
   48MOL0     C 6250   0.198   5.558   6.246  0.6973 -0.6365  0.0968
   48MOL0     O 6251   0.339   5.796   6.213  0.5629 -0.4664  0.0279
   48MOL0     C 6252   0.163   5.977   5.939 -0.0121 -0.0260 -0.0829
   48MOL0     C 6253   0.136   6.106   5.891 -0.7560  0.0232 -0.5538
   48MOL0     N 6254   0.084   6.925   5.646  0.2458 -0.2097 -0.6961
   48MOL0     N 6255   0.181   6.981   5.585  0.4153  0.7774 -0.2022
   48MOL0     C 6256   0.368   6.000   5.347 -0.0079  0.3243 -0.5409
   48MOL0     C 6257   0.422   5.870   5.359  0.2153 -0.3295  0.2432
   48MOL0     C 6258   0.551   5.450   5.548 -0.2399 -0.1496 -0.4196
   48MOL0     C 6259   0.580   5.374   5.666 -0.0257  1.3514  0.0002
   48MOL0     C 6260   0.666   5.266   5.654  0.3998  0.8529 -0.2904
   48MOL0     C 6261   0.709   5.218   5.540  0.5395 -0.2768  0.1784
   48MOL0     O 6262   0.794   5.109   5.528  0.0658 -0.7158  0.2418
   48MOL0     C 6263   0.803   5.005   5.629  0.2410  0.4788  0.3166
   48MOL0     C 6264   0.886   4.894   5.578  0.3127  0.7340  1.0793
   48MOL0     C 6265   0.947   4.805   5.679 -0.4150 -0.5045 -0.3539
   48MOL0     C 6266   0.964   4.655   5.644  0.3226  0.3782  0.3827
   48MOL0     C 6267   1.001   4.620   5.510 -0.3655 -0.4123 -0.5794
   48MOL0     C 6268   1.051   4.580   5.405  0.0132 -1.1448  0.6135
   48MOL0     C 6269   0.677   5.285   5.420 -0.4851 -0.9095 -0.5200
   48MOL0     C 6270   0.610   5.405   5.431 -0.6694  0.2306  0.2670
   48MOL0     H 6271   0.345   5.785   5.672  1.2731  1.2043  0.8614
   48MOL0     H 6272   0.248   6.019   5.665 -0.8359  2.4591 -0.6386
   48MOL0     H 6273   0.287   6.302   5.315  0.9004 -1.2674 -0.3032
   48MOL0     H 6274   0.447   6.279   5.392 -0.6308  0.5131 -2.3209
   48MOL0     H 6275   0.373   6.398   5.583 -0.9999  1.0586  0.8669
   48MOL0     H 6276   0.210   6.410   5.516 -0.2004  4.9177 -0.5518
   48MOL0     H 6277   0.323   6.541   5.312 -1.1079  3.5070  0.6011
   48MOL0     H 6278   0.476   6.528   5.420 -0.6779  0.4289  2.8164
   48MOL0     H 6279   0.220   6.655   5.500  0.3025 -1.0363  0.2194
   48MOL0     H 6280   0.370   6.662   5.586 -2.3686  3.7674  0.7147
   48MOL0     H 6281   0.322   6.864   5.407  2.6241  1.2662 -1.4896
   48MOL0     H 6282   0.394   6.750   5.298  1.2350 -0.1942 -0.2125
   48MOL0     H 6283   0.571   6.883   5.394 -0.9029 -1.1002 -3.0067
   48MOL0     H 6284   0.594   6.728   5.464  2.6094  2.2584  1.6713
   48MOL0     H 6285   0.507   6.780   5.666 -2.5100 -0.0122 -0.0609
   48MOL0     H 6286   0.620   6.899   5.618 -0.0486 -1.1883 -1.9287
   48MOL0     H 6287   0.419   7.038   5.527 -0.0899 -2.3971 -0.4588
   48MOL0     H 6288   0.446   7.054   5.711 -1.5143 -0.2709  1.9531
   48MOL0     H 6289   0.332   6.798   5.822  0.7650  1.4186  1.9029
   48MOL0     H 6290  -0.066   6.767   5.804  0.1760 -0.1112  0.1501
   48MOL0     H 6291   0.043   6.758   5.930  0.9995  1.0877  0.2601
   48MOL0     H 6292   0.181   6.577   5.824 -0.4357 -0.9281  1.1208
   48MOL0     H 6293   0.073   6.585   5.679  0.4369 -3.2419  0.6083
   48MOL0     H 6294  -0.035   6.522   5.963  2.0778 -1.8903  0.1870
   48MOL0     H 6295  -0.115   6.520   5.799 -1.8280 -0.6788  1.9038
   48MOL0     H 6296   0.041   6.335   5.747  0.7691  1.4002  0.0411
   48MOL0     H 6297  -0.058   6.292   5.884 -1.2358 -0.2824 -0.9483
   48MOL0     H 6298   0.324   6.279   6.098 -1.5148  0.3577 -0.3134
   48MOL0     H 6299   0.389   6.048   6.184  2.8601 -1.1349 -2.6126
   48MOL0     H 6300   0.246   5.497   5.908  1.0630 -2.1670 -1.0416
   48MOL0     H 6301   0.259   5.264   5.996  2.9437 -0.0451  1.2146
   48MOL0     H 6302   0.143   5.155   6.411  0.5711  3.0992  0.7125
   48MOL0     H 6303   0.311   5.223   6.398  0.3505 -0.3013  1.2542
   48MOL0     H 6304   0.366   4.981   6.278  0.6993 -3.2697  1.3136
   48MOL0     H 6305   0.209   4.940   6.357 -0.4106  0.6499 -0.4896
   48MOL0     H 6306   0.309   5.000   6.575  1.8989  0.4363  1.7364
   48MOL0     H 6307   0.451   5.056   6.486  0.0513 -1.4634  2.3376
   48MOL0     H 6308   0.481   4.828   6.602  0.2230  3.3030  0.8493
   48MOL0     H 6309   0.357   4.772   6.485 -2.5909  2.7238 -0.8540
   48MOL0     H 6310   0.509   4.848   6.307 -1.2618 -0.2398  0.9739
   48MOL0     H 6311   0.575   4.704   6.395  1.6757  0.2515  2.4233
   48MOL0     H 6312   0.661   4.998   6.465  3.0750 -0.2225  1.7503
   48MOL0     H 6313   0.727   4.911   6.329  3.1692  1.0120  1.4795
   48MOL0     H 6314   0.737   4.773   6.602 -0.9221  0.9547  0.2873
   48MOL0     H 6315   0.823   4.745   6.454  1.4136 -0.9198  0.9756
   48MOL0     H 6316   0.978   4.872   6.608  0.7725  1.1745  0.9752
   48MOL0     H 6317   0.874   5.009   6.622 -0.5548  3.1746 -3.2792
   48MOL0     H 6318   0.202   5.406   6.393  1.5102 -0.2336  0.9774
   48MOL0     H 6319   0.184   5.641   6.313  0.5611  1.0086 -1.8596
   48MOL0     H 6320   0.103   5.895   5.903  2.2441 -1.9179  0.1992
   48MOL0     H 6321   0.067   6.120   5.808 -1.6471  0.6832  0.2689
   48MOL0     H 6322   0.388   6.050   5.254  1.5019 -2.0166 -1.5740
   48MOL0     H 6323   0.474   5.822   5.277  0.5139  0.8185 -0.2521
   48MOL0     H 6324   0.541   5.394   5.765 -1.0195  0.3721 -0.1710
   48MOL0     H 6325   0.706   5.220   5.744 -0.8093  0.6178  0.1496
   48MOL0     H 6326   0.702   4.967   5.641 -0.0384  0.2108 -2.2569
   48MOL0     H 6327   0.841   5.058   5.717 -1.8040  1.1070  0.8797
   48MOL0     H 6328   0.827   4.833   5.509 -1.2878  2.6770  0.6477
   48MOL0     H 6329   0.956   4.944   5.510 -1.5835  0.0661 -1.5142
   48MOL0     H 6330   0.881   4.803   5.766  0.5978  2.0920  0.5789
   48MOL0     H 6331   1.039   4.852   5.713 -0.6815 -0.4023  0.2353
   48MOL0     H 6332   1.047   4.618   5.705  1.4032 -0.5756 -1.5573
   48MOL0     H 6333   0.872   4.602   5.670 -0.3873  0.3417 -1.9568
   48MOL0     H 6334   1.108   4.549   5.320 -1.0525 -2.4828  0.3519
   48MOL0     H 6335   0.725   5.255   5.327 -0.5713  2.9913 -2.0458
   48MOL0     H 6336   0.588   5.465   5.343 -2.5096  1.1137  1.2763
   49MOL0     O 6337   5.579   9.009   2.175  0.1518  0.6404 -0.2445
   49MOL0     C 6338   5.663   8.928   2.133  0.0104  1.0431 -0.3994
   49MOL0     O 6339   5.637   8.820   2.056  0.4704 -0.0675  0.4806
   49MOL0     C 6340   5.508   8.785   2.034  0.4905 -0.2012  0.6387
   49MOL0     C 6341   5.411   8.776   2.135  0.0270  0.8850  0.1402
   49MOL0     C 6342   5.279   8.725   2.115 -0.3857  0.0270  0.3240
   49MOL0     C 6343   5.237   8.677   1.993 -0.9824 -0.6263 -0.5695
   49MOL0     O 6344   5.105   8.640   1.983  0.6855  0.2052  0.2970
   49MOL0     C 6345   5.066   8.593   1.852 -0.3319 -0.5787  0.6917
   49MOL0     C 6346   4.928   8.538   1.862  0.4284 -0.2328 -0.7342
   49MOL0     C 6347   4.870   8.506   1.723  0.7644 -0.6920  0.3071
   49MOL0     C 6348   4.876   8.624   1.632 -0.2772  0.6588  0.3522
   49MOL0     C 6349   4.787   8.619   1.505 -0.8301  0.3665  0.4040
   49MOL0     C 6350   4.796   8.482   1.425 -0.5727 -0.3015  0.1522
   49MOL0     C 6351   4.681   8.473   1.322 -0.5383  0.4472 -0.0991
   49MOL0     C 6352   4.688   8.365   1.213 -0.0228 -0.0192  0.3939
   49MOL0     N 6353   4.689   8.241   1.286  0.6003 -0.9305 -0.6379
   49MOL0     C 6354   4.784   8.141   1.252 -0.1137 -0.6991  0.3077
   49MOL0     C 6355   4.735   8.039   1.326 -0.0475 -0.3132 -0.9733
   49MOL0     C 6356   4.798   7.893   1.329  0.7506  0.1275  0.6575
   49MOL0     C 6357   4.946   7.882   1.286 -0.6324  0.5178  0.4165
   49MOL0     C 6358   5.042   7.816   1.383  0.9247  1.0411  0.1919
   49MOL0     C 6359   5.181   7.876   1.367  0.2987  0.3667 -0.3780
   49MOL0     O 6360   5.183   8.002   1.422  0.0219  0.2576  0.0236
   49MOL0     C 6361   5.206   8.039   1.549  0.8568 -0.0648 -0.6004
   49MOL0     C 6362   5.148   8.146   1.606  0.7875  0.5331 -0.2448
   49MOL0     C 6363   5.152   8.183   1.735  1.0641 -0.0028 -0.1690
   49MOL0     C 6364   5.241   8.127   1.826 -0.2498  0.5162 -0.8293
   49MOL0     C 6365   5.262   8.173   1.971 -0.5996  0.0108  0.6784
   49MOL0     O 6366   5.168   8.262   2.006 -0.4675  0.1570 -0.8550
   49MOL0     C 6367   5.143   8.269   2.135  0.0258  0.5753  0.2665
   49MOL0     C 6368   5.173   8.385   2.197 -0.2915  0.6520  0.3538
   49MOL0     C 6369   5.142   8.401   2.328 -0.2960  0.0334  0.3051
   49MOL0     C 6370   5.079   8.293   2.405  0.7319  0.9785  0.3297
   49MOL0     O 6371   5.024   8.308   2.531 -0.2270  0.3107 -0.4950
   49MOL0     C 6372   5.034   8.432   2.608 -0.7414  0.1671  0.3283
   49MOL0     C 6373   5.167   8.470   2.664  0.1976  0.1866  0.2990
   49MOL0     C 6374   5.142   8.598   2.744 -1.6562 -0.0717  0.1575
   49MOL0     C 6375   5.250   8.612   2.850 -0.5505 -0.8089 -0.2256
   49MOL0     C 6376   5.224   8.733   2.933 -0.0876 -0.4217 -0.3750
   49MOL0     C 6377   5.333   8.749   3.038  0.8095  0.2949  0.6539
   49MOL0     C 6378   5.311   8.863   3.129  0.8909 -1.0013  0.4750
   49MOL0     C 6379   5.437   8.887   3.209  0.1366  0.5991 -0.0435
   49MOL0    Cl 6380   5.454   8.790   3.357  0.6399 -0.3107 -0.0595
   49MOL0     C 6381   5.063   8.175   2.335  0.7043 -0.2077  0.7703
   49MOL0     C 6382   5.074   8.162   2.200 -1.9094 -0.2755  0.2293
   49MOL0     O 6383   5.346   8.107   2.032  0.1669  0.2912 -0.1320
   49MOL0     C 6384   5.303   8.004   1.778 -0.1468 -0.0551 -0.5561
   49MOL0     C 6385   5.287   7.965   1.642  1.3403 -0.3478  0.1907
   49MOL0     N 6386   4.624   8.076   1.395 -0.0987  0.0991  0.8917
   49MOL0     N 6387   4.595   8.200   1.373 -0.2242  0.2585 -0.2363
   49MOL0     C 6388   5.334   8.680   1.889 -0.9142 -0.1283  0.2474
   49MOL0     C 6389   5.467   8.729   1.911 -0.1473  0.5616 -0.8256
   49MOL0     C 6390   5.811   8.960   2.158  0.4737 -1.1320 -0.2545
   49MOL0     C 6391   5.907   8.870   2.116 -1.0550  0.0437  0.0210
   49MOL0     C 6392   6.048   8.892   2.134  0.5744  0.4031  0.2951
   49MOL0     C 6393   6.090   9.001   2.205 -1.5480 -0.5183 -0.3221
   49MOL0     O 6394   6.232   9.004   2.228 -0.0191  0.2060  0.8225
   49MOL0     C 6395   6.282   9.100   2.312  0.2896  0.1241 -0.0750
   49MOL0     C 6396   6.430   9.092   2.321  0.0517  0.0379 -0.9579
   49MOL0     C 6397   6.487   8.952   2.370  0.4993  0.3470 -0.9381
   49MOL0     C 6398   6.636   8.949   2.366 -0.1057  0.0337  0.1473
   49MOL0     C 6399   6.717   9.068   2.411  0.3941  1.0698  0.6701
   49MOL0     C 6400   6.783   9.155   2.449 -0.3651  0.0854  0.5458
   49MOL0     C 6401   5.994   9.093   2.257  0.6126 -0.2475  0.6764
   49MOL0     C 6402   5.856   9.076   2.233  0.7903  0.3065 -0.5664
   49MOL0     H 6403   5.412   8.835   2.226 -1.9653  2.2252 -0.6464
   49MOL0     H 6404   5.207   8.721   2.196 -0.3123 -0.4235  0.3688
   49MOL0     H 6405   5.134   8.518   1.809 -2.1448 -1.8203 -0.1230
   49MOL0     H 6406   5.070   8.682   1.789 -1.6210 -1.2544 -0.4057
   49MOL0     H 6407   4.869   8.621   1.903  0.9715  0.4108 -1.2273
   49MOL0     H 6408   4.932   8.442   1.915  1.3918  0.9509  1.4690
   49MOL0     H 6409   4.763   8.483   1.728  1.0713 -2.3660 -0.2127
   49MOL0     H 6410   4.923   8.421   1.678 -0.7337 -1.2057 -0.5759
   49MOL0     H 6411   4.844   8.708   1.694 -1.9675  0.6204 -0.4206
   49MOL0     H 6412   4.978   8.640   1.596 -0.6086 -0.6906 -1.3377
   49MOL0     H 6413   4.811   8.709   1.448  1.4634 -0.2087  0.3739
   49MOL0     H 6414   4.680   8.621   1.528 -1.5959 -1.7560 -2.4133
   49MOL0     H 6415   4.783   8.406   1.502 -1.3096  0.2759  0.6124
   49MOL0     H 6416   4.899   8.480   1.386 -0.4474  2.5934  0.0986
   49MOL0     H 6417   4.579   8.464   1.359  0.2555 -0.4999  2.0346
   49MOL0     H 6418   4.686   8.565   1.262  1.3125  0.0735 -0.6020
   49MOL0     H 6419   4.763   8.387   1.136  1.1754  1.1615  1.8337
   49MOL0     H 6420   4.595   8.372   1.157  0.2035  0.6702  0.1027
   49MOL0     H 6421   4.872   8.149   1.188 -0.1558 -2.1559  0.0315
   49MOL0     H 6422   4.747   7.825   1.261  1.1528  1.0951 -0.6555
   49MOL0     H 6423   4.794   7.861   1.433  2.5367 -1.3429  0.3271
   49MOL0     H 6424   4.981   7.986   1.292 -0.7945  0.5519  0.8080
   49MOL0     H 6425   4.957   7.829   1.191 -2.9114 -1.2005  1.0417
   49MOL0     H 6426   5.001   7.832   1.483 -0.9079 -1.2998 -0.1054
   49MOL0     H 6427   5.050   7.707   1.373  1.1414  1.2230 -2.0695
   49MOL0     H 6428   5.209   7.874   1.261 -0.9886 -1.4421 -0.7472
   49MOL0     H 6429   5.252   7.812   1.420 -1.6369  0.0958  2.1019
   49MOL0     H 6430   5.101   8.215   1.537  0.2890 -1.7901 -2.3727
   49MOL0     H 6431   5.095   8.268   1.770  2.1749  1.2918 -1.4064
   49MOL0     H 6432   5.240   8.451   2.143 -2.2436  1.8825 -0.6948
   49MOL0     H 6433   5.167   8.499   2.367 -0.8011  1.6030 -3.0265
   49MOL0     H 6434   4.968   8.411   2.692 -0.5315  2.0997  1.0133
   49MOL0     H 6435   4.987   8.517   2.558  0.3863 -0.1144 -1.3075
   49MOL0     H 6436   5.235   8.495   2.582 -0.1470 -4.1841 -1.5844
   49MOL0     H 6437   5.216   8.391   2.721  2.6395  1.3335 -0.0683
   49MOL0     H 6438   5.051   8.609   2.804 -3.3003  1.1563 -2.4072
   49MOL0     H 6439   5.151   8.680   2.672 -5.6787 -0.1194 -0.6296
   49MOL0     H 6440   5.259   8.528   2.919  1.2615  2.4182  3.9573
   49MOL0     H 6441   5.349   8.640   2.813 -0.7340  1.8740  1.0835
   49MOL0     H 6442   5.125   8.731   2.980  0.2526 -1.9018  0.3260
   49MOL0     H 6443   5.229   8.822   2.869 -0.3572  1.2225  1.7855
   49MOL0     H 6444   5.425   8.766   2.982  1.3774  0.7457  1.6990
   49MOL0     H 6445   5.345   8.659   3.098  0.0527  0.7922  1.5689
   49MOL0     H 6446   5.287   8.944   3.060  0.2083  0.1638  2.0347
   49MOL0     H 6447   5.224   8.853   3.194  1.3913 -1.8235  1.0419
   49MOL0     H 6448   5.438   8.992   3.241 -1.8700 -0.1226  2.7171
   49MOL0     H 6449   5.527   8.874   3.147  0.9249  3.2845  0.4070
   49MOL0     H 6450   5.017   8.087   2.379  0.3588 -1.0575 -1.1615
   49MOL0     H 6451   5.044   8.071   2.150  2.1811 -0.3599 -2.5582
   49MOL0     H 6452   5.363   7.939   1.841  0.1558  1.9349  1.3704
   49MOL0     H 6453   5.351   7.882   1.613  1.4973  0.1097 -0.8152
   49MOL0     H 6454   5.309   8.630   1.796  1.1243  0.3004 -0.5905
   49MOL0     H 6455   5.533   8.739   1.826  2.5372 -3.0842  0.5654
   49MOL0     H 6456   5.881   8.781   2.060  0.0952 -1.6219  1.9847
   49MOL0     H 6457   6.117   8.820   2.091 -0.0938 -0.8293  1.2142
   49MOL0     H 6458   6.237   9.079   2.409 -0.3161  1.3525 -0.0758
   49MOL0     H 6459   6.248   9.198   2.277  3.1597  1.0066 -0.6611
   49MOL0     H 6460   6.465   9.107   2.218 -2.6604  0.8477 -1.8386
   49MOL0     H 6461   6.447   9.173   2.392 -4.5951 -1.3160  2.1336
   49MOL0     H 6462   6.445   8.859   2.330  1.6897 -0.7865  0.3621
   49MOL0     H 6463   6.457   8.944   2.475 -0.6769 -0.8649 -1.3385
   49MOL0     H 6464   6.662   8.866   2.433  0.4170  0.4417  0.4566
   49MOL0     H 6465   6.675   8.922   2.268  1.6952 -1.3318  1.1929
   49MOL0     H 6466   6.857   9.227   2.477 -2.2011  1.1697  2.9148
   49MOL0     H 6467   6.020   9.180   2.317 -0.9411  0.2930  0.6098
   49MOL0     H 6468   5.782   9.139   2.280 -2.3149 -2.8299 -0.8008
   50MOL0     O 6469  11.238   7.584   1.792  0.1119  0.6474  0.4142
   50MOL0     C 6470  11.357   7.616   1.799  0.7286 -0.8285  0.1009
   50MOL0     O 6471  11.433   7.644   1.686 -1.3230 -0.0608  0.4539
   50MOL0     C 6472  11.383   7.602   1.564 -0.7209  0.1026  0.3760
   50MOL0     C 6473  11.254   7.614   1.514  0.2728 -0.6613 -0.2918
   50MOL0     C 6474  11.209   7.567   1.386 -0.6398  0.4960  0.0172
   50MOL0     C 6475  11.303   7.499   1.305  0.4636  0.6316 -0.2118
   50MOL0     O 6476  11.258   7.456   1.187  0.0943 -0.1612  0.4472
   50MOL0     C 6477  11.345   7.415   1.084 -0.0261  0.4908  0.8676
   50MOL0     C 6478  11.391   7.267   1.086  0.5069 -0.8266 -0.6874
   50MOL0     C 6479  11.288   7.175   1.022 -0.5449  0.1061  0.3531
   50MOL0     C 6480  11.333   7.022   1.048 -0.6481  0.3535  0.0127
   50MOL0     C 6481  11.223   6.915   1.030 -0.4260 -0.3740 -0.2672
   50MOL0     C 6482  11.259   6.779   1.088 -0.1367  0.3786 -0.1893
   50MOL0     C 6483  11.171   6.672   1.036  0.4942  1.5798 -0.4122
   50MOL0     C 6484  11.019   6.697   1.047 -0.4906  0.2808  0.2028
   50MOL0     N 6485  10.971   6.713   1.182  0.7455 -0.3553  0.3073
   50MOL0     C 6486  10.966   6.614   1.274 -1.0996 -0.8367 -0.3158
   50MOL0     C 6487  10.897   6.662   1.378 -0.7028 -0.2236  0.2182
   50MOL0     C 6488  10.894   6.590   1.518 -0.4850  0.9030  0.3897
   50MOL0     C 6489  11.009   6.651   1.604  0.0019 -0.2509  0.1034
   50MOL0     C 6490  10.951   6.766   1.682  0.7525  0.0340  0.2969
   50MOL0     C 6491  11.041   6.814   1.790  0.1966  0.1565  1.1024
   50MOL0     O 6492  11.088   6.712   1.877  1.0204 -0.6914 -1.3916
   50MOL0     C 6493  10.982   6.658   1.947  0.1890  0.7205  0.1721
   50MOL0     C 6494  10.931   6.526   1.940 -0.1737  0.2550 -0.0123
   50MOL0     C 6495  10.836   6.473   2.025  0.9341 -0.0035  0.8761
   50MOL0     C 6496  10.764   6.556   2.113 -1.6375 -0.2645 -0.0505
   50MOL0     C 6497  10.666   6.498   2.199 -0.1674 -0.0838  0.6395
   50MOL0     O 6498  10.595   6.591   2.260 -0.3941  0.2384 -0.1752
   50MOL0     C 6499  10.481   6.534   2.314 -1.2808 -0.5491 -0.2342
   50MOL0     C 6500  10.458   6.517   2.449 -0.5284  0.9468 -0.0889
   50MOL0     C 6501  10.336   6.467   2.503  0.9013  1.3158  0.5824
   50MOL0     C 6502  10.246   6.418   2.412  0.6588 -0.1661 -0.0940
   50MOL0     O 6503  10.125   6.370   2.444  0.0751 -0.5796 -0.2639
   50MOL0     C 6504  10.116   6.272   2.551 -1.2301  0.5145  0.0253
   50MOL0     C 6505   9.982   6.254   2.601 -0.3634  0.0885 -0.3799
   50MOL0     C 6506   9.963   6.126   2.689 -0.9070 -0.4963  0.8096
   50MOL0     C 6507   9.817   6.146   2.731  0.2646  0.2740 -1.1096
   50MOL0     C 6508   9.777   6.039   2.844  0.5913 -1.0667  0.3712
   50MOL0     C 6509   9.615   6.023   2.868 -0.7607 -0.2911 -0.1233
   50MOL0     C 6510   9.549   6.130   2.945 -0.6551 -1.4989 -0.3511
   50MOL0     C 6511   9.412   6.156   2.893  0.7971 -0.8326 -0.4186
   50MOL0    Cl 6512   9.415   6.227   2.734 -0.3723 -0.2364 -0.2441
   50MOL0     C 6513  10.265   6.439   2.273 -0.5071 -0.2926  0.5384
   50MOL0     C 6514  10.381   6.497   2.232 -0.1962 -0.1511 -0.0365
   50MOL0     O 6515  10.663   6.374   2.210  0.3736 -0.3178  0.1958
   50MOL0     C 6516  10.801   6.690   2.110  0.4818  0.1093  0.1790
   50MOL0     C 6517  10.911   6.737   2.031  0.2273  0.5977 -0.5935
   50MOL0     N 6518  10.858   6.793   1.354 -0.3644  0.0239  0.2410
   50MOL0     N 6519  10.902   6.820   1.235  0.1499  0.1173  0.1639
   50MOL0     C 6520  11.427   7.481   1.360  1.7841  0.2121  0.6168
   50MOL0     C 6521  11.466   7.532   1.474  0.5755 -0.1312  1.2313
   50MOL0     C 6522  11.408   7.660   1.928  0.7703 -0.8858  0.3242
   50MOL0     C 6523  11.332   7.633   2.050  1.0287  0.0663 -0.1706
   50MOL0     C 6524  11.379   7.677   2.170  0.7841  0.4871 -0.0788
   50MOL0     C 6525  11.494   7.754   2.173 -0.2244 -0.3057  0.0909
   50MOL0     O 6526  11.552   7.802   2.289  0.6040  0.2119 -0.1298
   50MOL0     C 6527  11.486   7.784   2.413  0.5822  0.5000 -0.3351
   50MOL0     C 6528  11.371   7.881   2.426  1.2939 -0.4784 -0.1238
   50MOL0     C 6529  11.420   8.026   2.437 -0.2841 -1.2229  0.5479
   50MOL0     C 6530  11.326   8.141   2.383 -0.8620  1.5408 -0.4043
   50MOL0     C 6531  11.196   8.144   2.455  0.5887 -0.0223  0.7113
   50MOL0     C 6532  11.092   8.174   2.514 -0.0642  0.2441  0.7733
   50MOL0     C 6533  11.562   7.790   2.053 -0.5644  0.8193  0.3153
   50MOL0     C 6534  11.529   7.717   1.941  0.1934  0.3320  1.1936
   50MOL0     H 6535  11.182   7.665   1.578 -3.4976  0.4861 -4.8992
   50MOL0     H 6536  11.109   7.601   1.362 -0.9718 -0.7796 -0.4606
   50MOL0     H 6537  11.435   7.478   1.091  1.0340 -0.9552  0.7686
   50MOL0     H 6538  11.305   7.443   0.986  2.0363 -0.8916 -0.4741
   50MOL0     H 6539  11.411   7.235   1.189 -1.8281 -0.0092  0.0934
   50MOL0     H 6540  11.487   7.255   1.036  0.7561  0.3261 -0.5033
   50MOL0     H 6541  11.267   7.198   0.917  1.1399 -0.0317 -0.0424
   50MOL0     H 6542  11.197   7.184   1.082 -2.0304  2.4097 -2.0086
   50MOL0     H 6543  11.431   7.002   1.004  0.0627  0.6003  1.4221
   50MOL0     H 6544  11.351   7.019   1.156 -1.8266 -2.1267  0.2031
   50MOL0     H 6545  11.227   6.894   0.922  2.4422 -2.2942  0.0863
   50MOL0     H 6546  11.120   6.940   1.054 -0.4527  1.7495 -2.2164
   50MOL0     H 6547  11.248   6.779   1.196  2.8787  0.3796  0.2173
   50MOL0     H 6548  11.358   6.740   1.061 -0.4680 -0.0309 -0.8357
   50MOL0     H 6549  11.196   6.655   0.931 -1.8418  1.6361 -1.0287
   50MOL0     H 6550  11.194   6.573   1.076 -1.3298  1.3465  0.1644
   50MOL0     H 6551  10.965   6.609   1.013 -2.8513  1.2677  1.1732
   50MOL0     H 6552  10.992   6.780   0.980 -2.7257  0.4804  1.2766
   50MOL0     H 6553  11.003   6.511   1.272 -0.6570 -0.7083  0.8011
   50MOL0     H 6554  10.923   6.485   1.515 -1.5361  0.5306  2.0820
   50MOL0     H 6555  10.799   6.589   1.573  0.3160  0.7113  1.8169
   50MOL0     H 6556  11.094   6.676   1.540  0.4977 -0.3615  0.7007
   50MOL0     H 6557  11.050   6.584   1.680 -1.5507 -2.2651 -0.7705
   50MOL0     H 6558  10.920   6.849   1.617  1.6033 -1.9482 -2.8980
   50MOL0     H 6559  10.859   6.738   1.733 -0.4311  1.1245 -1.1409
   50MOL0     H 6560  10.980   6.889   1.841 -0.5082 -0.1351  0.6993
   50MOL0     H 6561  11.128   6.863   1.744  0.0186  2.4871  3.0340
   50MOL0     H 6562  10.973   6.442   1.887 -1.2132 -1.3971  1.6555
   50MOL0     H 6563  10.802   6.370   2.019 -0.7994  0.5395  0.9972
   50MOL0     H 6564  10.541   6.536   2.517 -1.5465  2.1836  0.8359
   50MOL0     H 6565  10.310   6.457   2.608 -4.7222  1.4711 -0.4963
   50MOL0     H 6566  10.185   6.292   2.634  1.6614  0.5647 -2.2376
   50MOL0     H 6567  10.141   6.174   2.508 -4.0535 -0.6428  0.8187
   50MOL0     H 6568   9.909   6.244   2.520  3.4262 -1.5468 -3.9185
   50MOL0     H 6569   9.964   6.345   2.660  0.3820 -0.8639  1.3829
   50MOL0     H 6570  10.041   6.144   2.764  1.7239  1.9600 -2.2581
   50MOL0     H 6571   9.994   6.039   2.631  1.5382  1.3804 -0.9254
   50MOL0     H 6572   9.796   6.240   2.783  0.6291 -1.4167  2.4179
   50MOL0     H 6573   9.766   6.128   2.636  3.6283 -1.5299 -2.7570
   50MOL0     H 6574   9.828   6.075   2.934 -2.2872 -0.1446  1.7523
   50MOL0     H 6575   9.811   5.940   2.811 -1.3930 -1.9866  0.9581
   50MOL0     H 6576   9.606   5.935   2.932  1.1302  1.3779  2.6775
   50MOL0     H 6577   9.557   6.019   2.776 -0.9292 -0.3231 -0.0157
   50MOL0     H 6578   9.539   6.100   3.050 -3.1003 -1.1550 -0.4438
   50MOL0     H 6579   9.609   6.222   2.942  0.2740 -2.0599  0.3391
   50MOL0     H 6580   9.348   6.216   2.959 -1.9775 -1.2576 -2.5591
   50MOL0     H 6581   9.366   6.057   2.900 -0.3884 -0.2006  3.3586
   50MOL0     H 6582  10.182   6.425   2.204  0.5382  0.7004 -0.9819
   50MOL0     H 6583  10.402   6.507   2.126  1.7007  0.7048  0.3847
   50MOL0     H 6584  10.742   6.760   2.169 -1.5448 -1.3965  0.0641
   50MOL0     H 6585  10.941   6.841   2.042  1.3498  0.0992  1.6398
   50MOL0     H 6586  11.502   7.425   1.306 -1.1616 -2.0056 -1.5312
   50MOL0     H 6587  11.568   7.515   1.506  1.2720  0.2438 -0.6892
   50MOL0     H 6588  11.242   7.573   2.039  0.1362  1.3072  0.1509
   50MOL0     H 6589  11.320   7.649   2.256  1.9057 -1.5820  0.0819
   50MOL0     H 6590  11.554   7.804   2.497  0.1304  3.0071 -0.4707
   50MOL0     H 6591  11.457   7.680   2.430  1.2752  0.4659  0.7644
   50MOL0     H 6592  11.295   7.864   2.349 -1.7249 -0.8311  2.6903
   50MOL0     H 6593  11.312   7.863   2.516  3.4941 -0.6553  1.3626
   50MOL0     H 6594  11.497   8.034   2.360 -0.6202 -2.0870  0.1085
   50MOL0     H 6595  11.462   8.042   2.537 -0.6423  3.4579  0.1671
   50MOL0     H 6596  11.372   8.237   2.407  1.9800 -0.5129  3.5185
   50MOL0     H 6597  11.291   8.131   2.280  0.4229 -0.4026 -0.6972
   50MOL0     H 6598  10.998   8.187   2.565  0.2974  0.4968  1.3830
   50MOL0     H 6599  11.644   7.862   2.061  3.1080 -2.9944  0.5223
   50MOL0     H 6600  11.599   7.729   1.859  2.3601 -0.8392  2.7579
   51MOL0     O 6601   5.267  10.979  10.911 -0.3701  0.1068  0.2457
   51MOL0     C 6602   5.181  11.024  10.986 -0.3029  0.7291 -0.1209
   51MOL0     O 6603   5.201  11.044  11.117 -0.1088 -0.4285 -0.5269
   51MOL0     C 6604   5.322  11.017  11.173 -0.1618 -0.0012 -0.1171
   51MOL0     C 6605   5.430  11.107  11.196 -0.1885  1.0639  0.8781
   51MOL0     C 6606   5.552  11.056  11.255  0.0538  0.6936 -0.2941
   51MOL0     C 6607   5.553  10.929  11.308  0.2451  0.0015  0.0808
   51MOL0     O 6608   5.669  10.894  11.377  0.5681  0.4657 -0.4458
   51MOL0     C 6609   5.707  10.756  11.370 -1.6970 -0.0064 -0.0857
   51MOL0     C 6610   5.844  10.736  11.418 -0.3262 -0.5218  0.3831
   51MOL0     C 6611   5.959  10.804  11.345 -0.2994 -0.0859 -0.7112
   51MOL0     C 6612   6.085  10.793  11.419  0.9219  0.4814 -0.0895
   51MOL0     C 6613   6.202  10.870  11.350  0.2121 -0.0934  1.0534
   51MOL0     C 6614   6.343  10.820  11.400 -0.2900  0.0665 -0.3366
   51MOL0     C 6615   6.465  10.888  11.331  0.0931 -0.1026  0.4605
   51MOL0     C 6616   6.598  10.890  11.412 -0.1754 -0.5249  0.0431
   51MOL0     N 6617   6.590  10.997  11.509 -0.5246 -0.6249 -1.0645
   51MOL0     C 6618   6.624  11.130  11.487 -0.2618  0.2909  0.3590
   51MOL0     C 6619   6.615  11.184  11.607 -0.3416  0.3325 -0.2050
   51MOL0     C 6620   6.653  11.327  11.632  1.3172  0.1645 -0.3424
   51MOL0     C 6621   6.802  11.347  11.599  0.1673 -0.1970  0.3128
   51MOL0     C 6622   6.886  11.381  11.724 -0.1735 -0.4651  0.0671
   51MOL0     C 6623   6.895  11.531  11.755 -0.0383 -0.0263  0.4933
   51MOL0     O 6624   6.953  11.549  11.879 -0.2891  0.2754  0.1650
   51MOL0     C 6625   7.092  11.572  11.884  0.5120  0.2539  0.8558
   51MOL0     C 6626   7.152  11.561  12.007  0.5102 -0.6787 -1.5692
   51MOL0     C 6627   7.286  11.586  12.022  0.1847 -0.2720  0.0576
   51MOL0     C 6628   7.366  11.635  11.922  0.5257 -1.2513  0.8947
   51MOL0     C 6629   7.507  11.655  11.950  0.5697 -0.2032 -0.5701
   51MOL0     O 6630   7.530  11.720  12.075  0.6267  0.3653  0.0459
   51MOL0     C 6631   7.650  11.754  12.123  0.5856  0.1392  0.0163
   51MOL0     C 6632   7.761  11.665  12.117  0.4963 -1.0518  0.3495
   51MOL0     C 6633   7.886  11.701  12.171  0.6129 -0.3474  0.1069
   51MOL0     C 6634   7.903  11.818  12.253  0.2278  0.6943  0.4255
   51MOL0     O 6635   8.008  11.847  12.321 -0.2308 -0.3002  0.0327
   51MOL0     C 6636   8.092  11.750  12.360  0.1862  0.3217 -0.9487
   51MOL0     C 6637   8.212  11.833  12.392  0.1139  0.0852  1.0076
   51MOL0     C 6638   8.327  11.734  12.411 -0.6997 -0.2194  0.7638
   51MOL0     C 6639   8.302  11.616  12.506  0.3493 -0.0620 -0.6908
   51MOL0     C 6640   8.426  11.549  12.556 -0.1469 -0.4641  0.7024
   51MOL0     C 6641   8.533  11.645  12.616  0.1767  0.1911  0.8842
   51MOL0     C 6642   8.657  11.567  12.659  0.0838  0.3987  0.3134
   51MOL0     C 6643   8.729  11.641  12.762 -0.2385  0.6874 -0.2415
   51MOL0    Cl 6644   8.875  11.550  12.821  0.0605 -0.1504 -0.0157
   51MOL0     C 6645   7.794  11.910  12.258  0.5657 -0.2463 -0.2622
   51MOL0     C 6646   7.676  11.875  12.191  0.2532  0.2867  0.6084
   51MOL0     O 6647   7.590  11.649  11.859 -0.5879 -0.5559 -0.3075
   51MOL0     C 6648   7.302  11.661  11.803 -0.1847  0.1867  1.0273
   51MOL0     C 6649   7.173  11.625  11.773 -0.9623 -0.5504 -0.1325
   51MOL0     N 6650   6.570  11.097  11.697 -0.2721  0.1857 -0.2265
   51MOL0     N 6651   6.561  10.983  11.644  0.2110 -0.7563 -0.6837
   51MOL0     C 6652   5.437  10.852  11.309 -0.4171 -1.1443 -0.4289
   51MOL0     C 6653   5.331  10.893  11.239  0.0548 -0.7994  0.1617
   51MOL0     C 6654   5.057  11.053  10.925 -0.0669  0.9542  0.7383
   51MOL0     C 6655   4.949  11.053  11.002  0.0171 -0.5314  0.3638
   51MOL0     C 6656   4.822  11.071  10.952 -0.2070  0.1053  0.3343
   51MOL0     C 6657   4.804  11.073  10.812  0.1681  0.4141  1.1224
   51MOL0     O 6658   4.680  11.074  10.752 -0.6444 -0.0687  0.0069
   51MOL0     C 6659   4.566  11.136  10.814 -0.5509  0.4931  0.1024
   51MOL0     C 6660   4.433  11.105  10.743 -0.6687  0.3219  0.0094
   51MOL0     C 6661   4.416  10.950  10.763 -0.1926 -0.4232  0.1133
   51MOL0     C 6662   4.293  10.890  10.702 -0.9279 -0.6310  0.6069
   51MOL0     C 6663   4.185  10.948  10.787  0.7463  0.5610 -1.2162
   51MOL0     C 6664   4.097  10.995  10.865  0.2319 -0.4191  0.3114
   51MOL0     C 6665   4.921  11.072  10.730 -0.0899  0.5553  0.7086
   51MOL0     C 6666   5.046  11.068  10.784  0.4912  0.5296  0.0738
   51MOL0     H 6667   5.427  11.203  11.146  2.9974  1.6894  1.6442
   51MOL0     H 6668   5.640  11.120  11.256 -0.7226  2.1363 -4.1957
   51MOL0     H 6669   5.703  10.707  11.272 -1.3185 -0.9009  0.3280
   51MOL0     H 6670   5.670  10.688  11.446 -1.0776  0.5423  0.7212
   51MOL0     H 6671   5.866  10.629  11.421 -2.9060 -1.1069  0.1758
   51MOL0     H 6672   5.848  10.773  11.521 -0.7566 -3.7682  1.7127
   51MOL0     H 6673   5.940  10.912  11.337 -3.4008 -0.5496 -0.9622
   51MOL0     H 6674   5.966  10.765  11.243  2.1755  0.8265 -0.9488
   51MOL0     H 6675   6.089  10.832  11.521  2.5766  1.3469 -0.4319
   51MOL0     H 6676   6.111  10.687  11.428 -1.3424 -0.2733 -1.7537
   51MOL0     H 6677   6.183  10.978  11.348  0.3996 -0.0732 -0.1835
   51MOL0     H 6678   6.197  10.840  11.245 -6.0242 -1.8611  1.4831
   51MOL0     H 6679   6.352  10.712  11.389  0.6161 -0.3077  3.0143
   51MOL0     H 6680   6.354  10.847  11.505  0.1256  1.0801 -0.6268
   51MOL0     H 6681   6.479  10.843  11.232 -1.6342 -2.3955  1.1607
   51MOL0     H 6682   6.451  10.993  11.306 -3.4023 -0.4902  0.3218
   51MOL0     H 6683   6.688  10.897  11.351 -0.7412 -1.2187 -0.8942
   51MOL0     H 6684   6.615  10.794  11.461  1.2547 -0.1328  0.3443
   51MOL0     H 6685   6.661  11.172  11.394  1.1058  2.7210  1.8826
   51MOL0     H 6686   6.632  11.355  11.736  0.5479 -0.2024 -0.3895
   51MOL0     H 6687   6.576  11.388  11.583 -1.6033 -0.4404  3.1035
   51MOL0     H 6688   6.796  11.425  11.523  0.6579 -0.1251  0.3454
   51MOL0     H 6689   6.850  11.256  11.560  0.6677  0.4999 -0.7242
   51MOL0     H 6690   6.851  11.340  11.819 -2.4453  3.6744  1.2381
   51MOL0     H 6691   6.990  11.350  11.710  0.6064  2.1260 -0.3574
   51MOL0     H 6692   6.798  11.581  11.750 -0.7486 -1.4129 -3.4064
   51MOL0     H 6693   6.936  11.594  11.675 -3.5243  1.1164 -0.5931
   51MOL0     H 6694   7.083  11.515  12.077  0.9231  2.1622  0.9374
   51MOL0     H 6695   7.330  11.583  12.122  1.1321 -0.7339 -0.3564
   51MOL0     H 6696   7.757  11.568  12.067  1.2658  0.0363 -1.9633
   51MOL0     H 6697   7.951  11.614  12.179 -0.3815 -1.0601  0.7850
   51MOL0     H 6698   8.108  11.686  12.273 -3.1479  0.6090 -1.9129
   51MOL0     H 6699   8.048  11.697  12.446 -1.8116  1.4553 -1.2184
   51MOL0     H 6700   8.206  11.898  12.480  1.7197 -0.9823  1.9574
   51MOL0     H 6701   8.231  11.894  12.303 -4.3225 -3.5763 -3.0027
   51MOL0     H 6702   8.408  11.799  12.444  1.2992 -3.1243  2.0037
   51MOL0     H 6703   8.362  11.681  12.321  4.0598  1.2092  1.5320
   51MOL0     H 6704   8.251  11.648  12.598  2.1651 -0.8640  0.6688
   51MOL0     H 6705   8.236  11.539  12.465 -0.4286  0.4799 -0.4871
   51MOL0     H 6706   8.479  11.485  12.484 -0.5689 -1.7556  1.5035
   51MOL0     H 6707   8.394  11.474  12.629  0.7655 -1.0695  0.5096
   51MOL0     H 6708   8.484  11.685  12.706  0.9678 -2.1585  2.4626
   51MOL0     H 6709   8.553  11.731  12.552 -2.1980  0.9676  1.1076
   51MOL0     H 6710   8.631  11.469  12.700 -1.9041  0.4859 -0.6063
   51MOL0     H 6711   8.725  11.541  12.577  0.6486 -3.5173  1.7968
   51MOL0     H 6712   8.660  11.671  12.842  0.7234  2.5982 -0.0735
   51MOL0     H 6713   8.758  11.738  12.722  0.2325 -0.3023 -2.4782
   51MOL0     H 6714   7.796  12.008  12.305  0.8925 -0.1975 -0.3782
   51MOL0     H 6715   7.599  11.951  12.186  1.4308  1.4064 -2.5777
   51MOL0     H 6716   7.345  11.716  11.719 -2.8718  1.3633  0.2852
   51MOL0     H 6717   7.135  11.640  11.672 -0.0984 -1.7881 -0.6674
   51MOL0     H 6718   5.415  10.756  11.355 -0.4413 -0.8276  0.2247
   51MOL0     H 6719   5.250  10.821  11.230 -1.3463  0.8029 -0.7300
   51MOL0     H 6720   4.959  11.046  11.110  3.1586 -1.3595  0.0929
   51MOL0     H 6721   4.731  11.076  11.010 -2.0064 -0.7634 -2.2640
   51MOL0     H 6722   4.592  11.241  10.798  2.1383 -0.4206 -2.4980
   51MOL0     H 6723   4.559  11.099  10.917 -1.4206 -0.0413 -0.1457
   51MOL0     H 6724   4.353  11.167  10.784  0.0219  2.5285 -1.7664
   51MOL0     H 6725   4.451  11.120  10.636  2.4741  2.2479  0.6934
   51MOL0     H 6726   4.418  10.925  10.870  0.8518 -3.0114 -0.4341
   51MOL0     H 6727   4.495  10.893  10.713 -0.4148 -2.1665  1.6219
   51MOL0     H 6728   4.274  10.931  10.603 -0.0330  2.3959  1.5543
   51MOL0     H 6729   4.296  10.781  10.698  0.3648 -0.6983  2.2645
   51MOL0     H 6730   4.035  11.052  10.931 -0.1833  1.6471 -1.7104
   51MOL0     H 6731   4.910  11.080  10.623  0.5890  1.0070  0.6692
   51MOL0     H 6732   5.135  11.065  10.723  1.4827 -1.4874  1.5179
   52MOL0     O 6733   8.696   3.594  10.593 -0.2776 -0.0770 -0.0300
   52MOL0     C 6734   8.747   3.659  10.501 -0.4645  0.0727  0.6402
   52MOL0     O 6735   8.753   3.793  10.498 -0.7269  0.1899 -0.8783
   52MOL0     C 6736   8.745   3.865  10.614  0.6733 -0.7106  1.2005
   52MOL0     C 6737   8.619   3.897  10.661  0.4437 -0.2447  0.4079
   52MOL0     C 6738   8.604   3.977  10.780  0.4231  0.7235 -0.7241
   52MOL0     C 6739   8.712   4.043  10.836  0.1446 -0.9326  0.3971
   52MOL0     O 6740   8.701   4.125  10.952  0.3982  0.5723 -0.4232
   52MOL0     C 6741   8.585   4.113  11.033  0.2440 -0.2550 -0.1805
   52MOL0     C 6742   8.637   4.188  11.155  0.5627 -0.2193  0.1194
   52MOL0     C 6743   8.509   4.225  11.244  0.2502  1.4014  0.5587
   52MOL0     C 6744   8.428   4.343  11.186 -0.4591 -0.8766  0.2850
   52MOL0     C 6745   8.505   4.480  11.198  0.1415  0.9376  0.2200
   52MOL0     C 6746   8.468   4.568  11.076 -0.5400 -0.0337  0.4525
   52MOL0     C 6747   8.548   4.703  11.061 -0.0751  0.0401  0.4301
   52MOL0     C 6748   8.677   4.684  10.977  0.7091 -1.0293  0.0940
   52MOL0     N 6749   8.690   4.780  10.869  0.3711  0.1217 -0.4067
   52MOL0     C 6750   8.702   4.919  10.889  0.5271  1.1608  0.7881
   52MOL0     C 6751   8.683   4.965  10.761  0.6609 -0.0978  0.1312
   52MOL0     C 6752   8.726   5.107  10.723  1.0708  0.5167 -0.6556
   52MOL0     C 6753   8.688   5.143  10.578 -0.4138  0.8127 -0.3672
   52MOL0     C 6754   8.532   5.177  10.565 -0.3054 -1.2740  0.1071
   52MOL0     C 6755   8.497   5.234  10.429 -0.2577 -0.9466 -0.3698
   52MOL0     O 6756   8.363   5.260  10.416  0.1372  0.4107  0.9622
   52MOL0     C 6757   8.313   5.312  10.296 -0.6538 -1.0866  0.2223
   52MOL0     C 6758   8.175   5.333  10.284 -0.8827 -1.0664  0.1916
   52MOL0     C 6759   8.114   5.376  10.165  0.6482  0.4784 -0.1176
   52MOL0     C 6760   8.197   5.419  10.060 -0.4323  0.3054  0.3486
   52MOL0     C 6761   8.136   5.473   9.927  1.0609  0.3228 -0.2766
   52MOL0     O 6762   8.001   5.486   9.937 -0.2930 -0.4192 -0.0487
   52MOL0     C 6763   7.918   5.505   9.817 -0.8861 -1.2933 -0.5711
   52MOL0     C 6764   7.782   5.540   9.845  0.3607  0.2309  0.3840
   52MOL0     C 6765   7.688   5.558   9.740  0.0782  0.4255  0.2375
   52MOL0     C 6766   7.726   5.528   9.609  0.1037 -0.5735  0.5728
   52MOL0     O 6767   7.650   5.534   9.493 -0.3096  0.5207 -0.7163
   52MOL0     C 6768   7.507   5.536   9.511 -0.2427 -0.3363  0.6021
   52MOL0     C 6769   7.437   5.529   9.371 -0.0499 -0.0744  0.8792
   52MOL0     C 6770   7.289   5.515   9.384  0.0821  0.3330 -0.0099
   52MOL0     C 6771   7.216   5.512   9.253  0.4526 -0.3437 -0.3282
   52MOL0     C 6772   7.192   5.644   9.183 -0.2067  0.3943 -0.5886
   52MOL0     C 6773   7.094   5.745   9.257  0.1563  0.6506 -0.1412
   52MOL0     C 6774   6.971   5.672   9.318  0.0941  0.2581  0.7731
   52MOL0     C 6775   6.876   5.600   9.220 -0.6048  0.8104  0.8034
   52MOL0    Cl 6776   6.839   5.720   9.084  0.0054 -0.0206 -0.4276
   52MOL0     C 6777   7.857   5.492   9.581  0.2474 -0.4982  0.5754
   52MOL0     C 6778   7.956   5.486   9.678  0.0470 -0.9753 -0.0440
   52MOL0     O 6779   8.199   5.501   9.824  0.1350  0.1632  0.1508
   52MOL0     C 6780   8.337   5.411  10.074  0.2488  0.2051  0.9574
   52MOL0     C 6781   8.401   5.364  10.188  0.0131  0.4633 -0.4381
   52MOL0     N 6782   8.666   4.860  10.674 -0.4293  1.3055 -0.2232
   52MOL0     N 6783   8.671   4.744  10.738 -0.2042  0.1005 -0.2716
   52MOL0     C 6784   8.840   4.022  10.784 -0.0737  0.4020 -1.0620
   52MOL0     C 6785   8.850   3.929  10.678 -0.5632  0.2796 -0.0767
   52MOL0     C 6786   8.815   3.597  10.378 -0.4774 -0.4704 -0.1100
   52MOL0     C 6787   8.893   3.672  10.291 -0.3304 -0.1522 -0.2474
   52MOL0     C 6788   8.955   3.621  10.182  1.0395  0.3202 -0.4538
   52MOL0     C 6789   8.931   3.494  10.140  0.5374  0.0581  0.4615
   52MOL0     O 6790   8.983   3.439  10.029 -0.6506  0.4726 -0.2062
   52MOL0     C 6791   9.019   3.505   9.907  0.4660  0.3481 -0.0251
   52MOL0     C 6792   8.949   3.436   9.786 -0.3705 -0.3060 -0.4720
   52MOL0     C 6793   8.987   3.294   9.773  1.1444  0.5315 -0.5180
   52MOL0     C 6794   8.926   3.209   9.660  0.8590  0.9139  0.4159
   52MOL0     C 6795   8.949   3.261   9.521 -0.3619  0.2252 -0.1330
   52MOL0     C 6796   8.955   3.308   9.411  0.6681  0.1069 -0.7196
   52MOL0     C 6797   8.855   3.412  10.229 -0.7551 -0.1916 -0.6900
   52MOL0     C 6798   8.793   3.464  10.343  0.3476 -0.5355 -0.3837
   52MOL0     H 6799   8.532   3.846  10.622  1.7513 -1.9064 -0.4941
   52MOL0     H 6800   8.503   3.987  10.819 -0.4875 -0.0905 -2.7515
   52MOL0     H 6801   8.569   4.009  11.061  0.0281 -0.0833  0.3480
   52MOL0     H 6802   8.499   4.152  10.979 -0.2694 -2.0742 -0.7493
   52MOL0     H 6803   8.695   4.275  11.123  1.2460 -1.2766 -1.6809
   52MOL0     H 6804   8.709   4.134  11.218 -1.2094 -0.6479  1.8769
   52MOL0     H 6805   8.545   4.248  11.345  3.6751  0.4824 -0.3340
   52MOL0     H 6806   8.444   4.136  11.243  0.5480  1.1323 -2.1779
   52MOL0     H 6807   8.393   4.320  11.084  1.2891  1.2118 -0.8667
   52MOL0     H 6808   8.339   4.371  11.243 -0.1855 -1.7673  1.1705
   52MOL0     H 6809   8.612   4.460  11.185 -0.2427 -2.1855  1.1235
   52MOL0     H 6810   8.489   4.529  11.294  3.9371  0.1382  1.4421
   52MOL0     H 6811   8.363   4.599  11.077 -0.0610  2.0049 -1.9909
   52MOL0     H 6812   8.476   4.531  10.974  0.7772  2.0002 -0.2502
   52MOL0     H 6813   8.482   4.770  11.005  1.1299  1.8395  1.0676
   52MOL0     H 6814   8.585   4.737  11.159 -0.6838  0.0523  0.6612
   52MOL0     H 6815   8.672   4.582  10.937  0.9375 -1.1285  0.3172
   52MOL0     H 6816   8.766   4.698  11.038  0.6329  1.1820 -0.2388
   52MOL0     H 6817   8.730   4.975  10.977  1.9508 -0.5255  1.4846
   52MOL0     H 6818   8.830   5.126  10.749  0.3713 -0.0674  3.1493
   52MOL0     H 6819   8.674   5.183  10.781  0.4106  0.3153 -0.9704
   52MOL0     H 6820   8.694   5.055  10.513 -0.7734  1.9398 -1.9854
   52MOL0     H 6821   8.757   5.212  10.528  0.7222 -1.1053 -1.6302
   52MOL0     H 6822   8.484   5.081  10.586 -2.9306 -0.6044 -2.2260
   52MOL0     H 6823   8.502   5.255  10.636  0.0795 -1.6773  0.7229
   52MOL0     H 6824   8.538   5.166  10.354  0.5141 -3.1977  1.9407
   52MOL0     H 6825   8.553   5.328  10.427 -1.3140 -0.3159 -1.6890
   52MOL0     H 6826   8.107   5.305  10.364 -3.1930 -3.5462 -2.4101
   52MOL0     H 6827   8.007   5.379  10.152  0.4322 -1.8252  0.6461
   52MOL0     H 6828   7.752   5.543   9.949 -0.0577  2.9040  0.2484
   52MOL0     H 6829   7.585   5.578   9.766 -0.3951  0.7202 -1.7122
   52MOL0     H 6830   7.472   5.634   9.546 -1.5858  0.5704 -2.8436
   52MOL0     H 6831   7.472   5.451   9.569 -1.1415 -1.5052 -1.5573
   52MOL0     H 6832   7.473   5.444   9.312 -0.7067 -0.8825  1.6047
   52MOL0     H 6833   7.451   5.607   9.296 -2.2436 -1.4133 -1.0733
   52MOL0     H 6834   7.253   5.596   9.448  2.7643  0.2798  1.7278
   52MOL0     H 6835   7.271   5.423   9.440  0.6643  0.3917  0.2769
   52MOL0     H 6836   7.274   5.448   9.187  0.7926 -2.4377  1.8899
   52MOL0     H 6837   7.118   5.466   9.273  0.4624 -1.6268 -2.8238
   52MOL0     H 6838   7.145   5.619   9.088 -1.5311 -2.0099  0.5976
   52MOL0     H 6839   7.287   5.695   9.168  1.5174 -3.0688 -2.9134
   52MOL0     H 6840   7.063   5.827   9.191  1.1990 -0.4861 -2.1345
   52MOL0     H 6841   7.148   5.780   9.346  1.0805 -1.2793  0.1083
   52MOL0     H 6842   7.013   5.616   9.402  3.3692 -1.1239 -1.5896
   52MOL0     H 6843   6.900   5.748   9.354 -1.8191  0.0753 -2.3254
   52MOL0     H 6844   6.780   5.560   9.255  0.3734 -1.4452  1.1070
   52MOL0     H 6845   6.935   5.519   9.176 -0.6094  2.7034 -2.9841
   52MOL0     H 6846   7.899   5.466   9.484  2.2489 -2.2338  1.8233
   52MOL0     H 6847   8.057   5.460   9.647 -0.2660 -0.0394 -2.0167
   52MOL0     H 6848   8.400   5.439   9.990 -1.6622  0.3326 -0.5202
   52MOL0     H 6849   8.509   5.371  10.196 -0.0813  0.0141  3.2096
   52MOL0     H 6850   8.918   4.081  10.832  1.1452 -1.4289 -0.7025
   52MOL0     H 6851   8.945   3.904  10.631 -1.5832 -3.0647 -0.6066
   52MOL0     H 6852   8.913   3.776  10.315 -0.3545 -0.0835 -0.5179
   52MOL0     H 6853   9.027   3.680  10.125 -0.4566  1.3559 -1.3638
   52MOL0     H 6854   9.126   3.502   9.885  0.0160  2.6904 -3.3187
   52MOL0     H 6855   8.987   3.609   9.908  0.4756  0.3555  1.2893
   52MOL0     H 6856   8.842   3.445   9.804 -0.2611 -1.6414  1.1233
   52MOL0     H 6857   8.969   3.487   9.691 -1.6234  0.2716 -0.4442
   52MOL0     H 6858   8.946   3.247   9.863 -0.1400 -1.2458 -1.9587
   52MOL0     H 6859   9.097   3.291   9.776  1.1672  0.8626 -0.9167
   52MOL0     H 6860   8.964   3.108   9.679  1.7849  0.8155 -1.7155
   52MOL0     H 6861   8.820   3.195   9.685  0.6606  1.4844 -0.0847
   52MOL0     H 6862   8.958   3.344   9.311 -3.1305 -1.3730 -1.5575
   52MOL0     H 6863   8.837   3.307  10.210 -2.4673  0.3776 -2.6800
   52MOL0     H 6864   8.735   3.396  10.405  0.3115  1.1742  1.5822
   53MOL0     O 6865   8.677   3.927   4.142  0.1159 -0.1279 -0.3841
   53MOL0     C 6866   8.625   3.974   4.245  0.2552 -0.1459 -0.2634
   53MOL0     O 6867   8.540   4.073   4.243  0.0967 -0.4361  0.1487
   53MOL0     C 6868   8.529   4.144   4.123 -0.3805  0.2959 -0.3611
   53MOL0     C 6869   8.472   4.083   4.008 -0.2804  0.0814  0.0159
   53MOL0     C 6870   8.494   4.144   3.884  0.3744  0.0849  0.6958
   53MOL0     C 6871   8.552   4.265   3.878 -1.2300 -0.2413 -0.3225
   53MOL0     O 6872   8.566   4.327   3.754 -0.3954 -0.0115 -0.3346
   53MOL0     C 6873   8.641   4.450   3.733  0.1483 -0.2872 -0.1112
   53MOL0     C 6874   8.671   4.461   3.591 -0.3742 -0.4760 -0.3630
   53MOL0     C 6875   8.554   4.513   3.515  0.0897 -0.0523 -0.5219
   53MOL0     C 6876   8.579   4.505   3.368  1.0810  0.2881  0.4553
   53MOL0     C 6877   8.446   4.530   3.296  0.9172 -0.3146 -1.1780
   53MOL0     C 6878   8.455   4.540   3.145  0.0435  0.1265  0.3840
   53MOL0     C 6879   8.482   4.395   3.094 -0.0155  0.0918 -0.1730
   53MOL0     C 6880   8.345   4.326   3.072 -0.2865 -0.5327  0.0196
   53MOL0     N 6881   8.262   4.395   2.974 -0.1775  0.3005  0.0697
   53MOL0     C 6882   8.143   4.465   3.004  0.6257  0.1867  0.1700
   53MOL0     C 6883   8.107   4.519   2.888  0.0598 -0.2893  0.2999
   53MOL0     C 6884   7.979   4.610   2.880  0.7010 -0.4145 -0.2236
   53MOL0     C 6885   7.921   4.632   2.737 -0.3055  0.3512 -0.1103
   53MOL0     C 6886   7.792   4.713   2.734 -0.2931  0.1479 -0.2171
   53MOL0     C 6887   7.700   4.706   2.857  0.9230 -0.1054 -0.6516
   53MOL0     O 6888   7.730   4.809   2.954 -0.2221 -0.6933 -0.2121
   53MOL0     C 6889   7.724   4.760   3.083  0.0926 -0.3142  0.2735
   53MOL0     C 6890   7.817   4.819   3.170 -0.5088  0.1944 -0.0694
   53MOL0     C 6891   7.825   4.778   3.306 -0.1870  0.8871 -0.3980
   53MOL0     C 6892   7.736   4.682   3.352 -0.0243 -0.7553  0.7073
   53MOL0     C 6893   7.732   4.647   3.494  0.7898 -0.1095 -0.0293
   53MOL0     O 6894   7.847   4.671   3.570  0.1715 -0.1706 -0.8316
   53MOL0     C 6895   7.842   4.659   3.702 -1.2498  0.4052 -0.7076
   53MOL0     C 6896   7.729   4.676   3.782 -0.2952 -0.1312 -0.7618
   53MOL0     C 6897   7.746   4.675   3.918 -0.4827  0.8308 -0.7364
   53MOL0     C 6898   7.869   4.665   3.978 -0.9595  1.1205 -0.0281
   53MOL0     O 6899   7.881   4.653   4.116  0.1150  0.0706 -0.8423
   53MOL0     C 6900   7.817   4.763   4.188  0.6162 -0.4393  0.7333
   53MOL0     C 6901   7.861   4.788   4.333  0.3202  0.4799  0.5660
   53MOL0     C 6902   7.813   4.925   4.394 -0.4304  0.5810  0.4523
   53MOL0     C 6903   7.821   4.912   4.548  0.7318 -0.0642 -0.0398
   53MOL0     C 6904   7.964   4.885   4.607  0.3108 -0.0741  1.2199
   53MOL0     C 6905   7.946   4.903   4.759  0.0449  0.5185 -0.0730
   53MOL0     C 6906   8.080   4.888   4.833 -0.6600  0.2348  0.2306
   53MOL0     C 6907   8.067   4.888   4.985 -0.7177 -0.2899 -0.3046
   53MOL0    Cl 6908   7.997   4.726   5.026 -0.2679 -0.2427  0.2518
   53MOL0     C 6909   7.980   4.652   3.902  1.2775  0.1030 -0.3516
   53MOL0     C 6910   7.963   4.648   3.766  0.6069  0.2549 -0.5757
   53MOL0     O 6911   7.621   4.593   3.533 -0.5576 -0.0523 -0.3214
   53MOL0     C 6912   7.647   4.618   3.260  0.2430 -1.4608 -0.6395
   53MOL0     C 6913   7.633   4.661   3.123  0.2306 -0.3946 -0.7380
   53MOL0     N 6914   8.192   4.480   2.788  0.4727  0.5658 -0.4391
   53MOL0     N 6915   8.283   4.416   2.846 -0.2843  0.1255  0.1047
   53MOL0     C 6916   8.593   4.332   3.999 -0.0514 -0.0691  0.2010
   53MOL0     C 6917   8.586   4.272   4.127 -0.7138  0.3486 -0.3966
   53MOL0     C 6918   8.640   3.908   4.377  0.6774 -0.1012  0.1637
   53MOL0     C 6919   8.752   3.829   4.397 -0.6930 -0.1137  0.3277
   53MOL0     C 6920   8.755   3.767   4.524 -0.3219  0.4448  0.5826
   53MOL0     C 6921   8.659   3.786   4.627  0.1280 -0.4161 -0.1300
   53MOL0     O 6922   8.687   3.732   4.751  0.6509  0.0467 -0.8371
   53MOL0     C 6923   8.593   3.754   4.867 -0.3581  0.8748  0.0457
   53MOL0     C 6924   8.617   3.885   4.933  0.6943  0.3347  0.1915
   53MOL0     C 6925   8.763   3.896   4.986 -0.2015 -0.3297  0.2273
   53MOL0     C 6926   8.791   4.044   5.022 -0.1006 -0.1212 -0.0065
   53MOL0     C 6927   8.793   4.073   5.170  0.4696  0.2130  0.0320
   53MOL0     C 6928   8.774   4.105   5.285 -0.0720 -0.5665  0.3887
   53MOL0     C 6929   8.555   3.880   4.600  0.5262  0.5463  0.1231
   53MOL0     C 6930   8.547   3.939   4.479  0.0298  1.0014  0.3127
   53MOL0     H 6931   8.442   3.981   4.030  0.6658 -0.5023 -1.2535
   53MOL0     H 6932   8.461   4.103   3.789  0.9012  0.1438  0.4850
   53MOL0     H 6933   8.725   4.458   3.802  0.0722 -1.8843  0.2125
   53MOL0     H 6934   8.572   4.530   3.762 -0.5054 -1.6060  2.3324
   53MOL0     H 6935   8.727   4.370   3.568  5.2134  2.0086  1.7412
   53MOL0     H 6936   8.743   4.542   3.573  0.1180 -0.0227  3.0006
   53MOL0     H 6937   8.536   4.620   3.526 -0.2328 -0.2397  0.8999
   53MOL0     H 6938   8.459   4.466   3.541 -1.0322  2.4303  0.1170
   53MOL0     H 6939   8.658   4.574   3.336 -0.6789  2.7769  1.1469
   53MOL0     H 6940   8.609   4.401   3.353 -0.5079 -0.0126 -0.8726
   53MOL0     H 6941   8.412   4.624   3.342  3.8860  1.1372 -1.7191
   53MOL0     H 6942   8.366   4.458   3.313  0.0890  0.2602 -2.4507
   53MOL0     H 6943   8.522   4.622   3.117 -2.4572  2.1431 -0.0482
   53MOL0     H 6944   8.357   4.571   3.109 -2.1496 -4.5268  1.6539
   53MOL0     H 6945   8.543   4.394   3.003  1.2897  0.9714  0.6564
   53MOL0     H 6946   8.545   4.339   3.165  0.0942 -0.7423 -0.9118
   53MOL0     H 6947   8.295   4.325   3.169 -1.3430 -1.2212 -0.5260
   53MOL0     H 6948   8.357   4.221   3.044 -0.0486 -0.3857 -0.4425
   53MOL0     H 6949   8.093   4.484   3.098  0.1088  0.6800 -0.1991
   53MOL0     H 6950   8.002   4.708   2.925 -1.6012  0.2040 -0.2919
   53MOL0     H 6951   7.906   4.574   2.952 -2.6366  2.5909 -1.7973
   53MOL0     H 6952   7.892   4.533   2.701 -3.3519  1.9811 -2.5230
   53MOL0     H 6953   7.990   4.663   2.658 -2.4825  2.0713 -1.4383
   53MOL0     H 6954   7.807   4.821   2.721 -0.5193  0.1574 -0.4218
   53MOL0     H 6955   7.733   4.672   2.651 -3.2081 -1.4458  2.4242
   53MOL0     H 6956   7.717   4.610   2.907  2.2805 -0.0518 -0.9564
   53MOL0     H 6957   7.597   4.708   2.822  0.8761 -2.6757 -0.8830
   53MOL0     H 6958   7.883   4.899   3.136  0.2507  0.6750  2.3479
   53MOL0     H 6959   7.877   4.833   3.384  1.6467 -0.7248 -0.3762
   53MOL0     H 6960   7.627   4.688   3.746 -0.2715 -2.1083 -1.5986
   53MOL0     H 6961   7.654   4.680   3.976  0.8308 -1.9563  1.8305
   53MOL0     H 6962   7.708   4.753   4.178  0.7178  0.3127 -1.8620
   53MOL0     H 6963   7.850   4.845   4.124 -2.1654 -1.2937 -2.0642
   53MOL0     H 6964   7.970   4.778   4.335  0.5632  2.6837  1.1725
   53MOL0     H 6965   7.825   4.698   4.384  1.8592 -0.5832 -0.1517
   53MOL0     H 6966   7.712   4.945   4.358  0.2817  1.4443 -1.1794
   53MOL0     H 6967   7.866   5.003   4.338 -0.4894 -0.8664 -1.7656
   53MOL0     H 6968   7.773   5.007   4.575 -0.1705 -0.2148 -1.0588
   53MOL0     H 6969   7.770   4.818   4.570 -0.0741  0.2891 -0.3509
   53MOL0     H 6970   8.033   4.959   4.565  0.2393 -0.6698  0.0016
   53MOL0     H 6971   7.997   4.781   4.598 -0.0509 -0.1283  0.2864
   53MOL0     H 6972   7.870   4.829   4.785 -1.0041  1.6444  0.1469
   53MOL0     H 6973   7.905   5.003   4.775 -0.8065 -0.0253  1.3313
   53MOL0     H 6974   8.118   4.791   4.799 -1.5172  0.6504 -2.1163
   53MOL0     H 6975   8.151   4.963   4.798  0.7057 -1.0955  0.0022
   53MOL0     H 6976   7.999   4.965   5.023 -0.8984 -0.8855  0.6184
   53MOL0     H 6977   8.161   4.915   5.035 -0.9584 -0.8498  0.4785
   53MOL0     H 6978   8.082   4.638   3.937  0.4759 -1.6228  1.4521
   53MOL0     H 6979   8.043   4.617   3.699  0.8385  1.9665 -1.1570
   53MOL0     H 6980   7.586   4.544   3.311  0.1707 -0.5340  0.6719
   53MOL0     H 6981   7.559   4.618   3.057 -0.6539  3.9824 -2.9281
   53MOL0     H 6982   8.648   4.426   4.006 -0.7659  0.5694 -2.0368
   53MOL0     H 6983   8.639   4.317   4.210  0.8463 -0.4286 -0.9266
   53MOL0     H 6984   8.824   3.818   4.317 -1.0128 -0.2525  0.0566
   53MOL0     H 6985   8.840   3.703   4.543  0.6770  1.2976 -0.7899
   53MOL0     H 6986   8.609   3.673   4.939  3.0637  0.3019 -1.1915
   53MOL0     H 6987   8.489   3.740   4.834 -0.0009 -1.9366 -0.1753
   53MOL0     H 6988   8.594   3.957   4.854  1.2977 -0.2757 -0.5495
   53MOL0     H 6989   8.544   3.888   5.015 -0.7184 -0.0785 -1.0086
   53MOL0     H 6990   8.840   3.868   4.914  2.1362  1.0412  2.0804
   53MOL0     H 6991   8.774   3.832   5.074 -2.7242  0.9476  1.5878
   53MOL0     H 6992   8.891   4.067   4.983 -0.2252 -0.8045 -0.7528
   53MOL0     H 6993   8.719   4.110   4.972  0.5733  1.3754  0.9329
   53MOL0     H 6994   8.771   4.146   5.384  0.1255 -0.0738  0.1945
   53MOL0     H 6995   8.477   3.910   4.670  2.8391  1.1084  2.6343
   53MOL0     H 6996   8.469   4.014   4.471 -1.5781 -0.7610 -2.1726
   54MOL0     O 6997   1.238   8.729   1.645 -0.5224 -0.5337  0.3879
   54MOL0     C 6998   1.287   8.815   1.727 -0.2687  0.0172  0.3680
   54MOL0     O 6999   1.415   8.854   1.723  0.4500 -1.0408 -0.1045
   54MOL0     C 7000   1.504   8.793   1.638  0.0249 -0.7612  0.1911
   54MOL0     C 7001   1.579   8.860   1.535  0.7209 -0.2943 -0.4631
   54MOL0     C 7002   1.681   8.791   1.470  0.2808  0.6910 -0.0472
   54MOL0     C 7003   1.723   8.664   1.509 -0.2281 -1.3071 -0.9328
   54MOL0     O 7004   1.832   8.597   1.460 -0.3264  0.6120 -0.3841
   54MOL0     C 7005   1.913   8.637   1.348  0.4753 -0.4482 -0.3141
   54MOL0     C 7006   1.826   8.590   1.228 -0.0073  1.0471  0.1695
   54MOL0     C 7007   1.791   8.441   1.238 -0.6062  0.2380 -0.0506
   54MOL0     C 7008   1.733   8.383   1.110 -0.1164 -1.0102  0.3244
   54MOL0     C 7009   1.710   8.238   1.114 -0.2442 -0.0535  0.6621
   54MOL0     C 7010   1.587   8.200   1.014  1.1162  0.2001  0.6831
   54MOL0     C 7011   1.576   8.053   0.970  0.7220 -0.7044  0.0324
   54MOL0     C 7012   1.562   7.962   1.095  0.5452  0.3680 -0.4168
   54MOL0     N 7013   1.532   7.823   1.050 -0.4464 -0.0650 -0.1561
   54MOL0     C 7014   1.568   7.765   0.931  0.1383  0.3918 -0.1568
   54MOL0     C 7015   1.508   7.643   0.918  0.0848 -0.1583 -0.3418
   54MOL0     C 7016   1.520   7.536   0.811  0.7835 -0.8549 -0.9089
   54MOL0     C 7017   1.533   7.568   0.659  0.1291  0.4436  0.4678
   54MOL0     C 7018   1.539   7.437   0.585 -0.1999 -0.1189  0.2711
   54MOL0     C 7019   1.551   7.446   0.441  0.5813 -0.1936  0.1879
   54MOL0     O 7020   1.528   7.320   0.371 -0.5296 -0.3535  0.5789
   54MOL0     C 7021   1.637   7.241   0.338 -0.2159 -0.5041 -0.5749
   54MOL0     C 7022   1.778   7.270   0.363  0.0535  0.5287 -0.4489
   54MOL0     C 7023   1.880   7.174   0.330 -0.2329 -0.9232  0.3644
   54MOL0     C 7024   1.846   7.055   0.268 -0.0383 -0.2115 -0.3567
   54MOL0     C 7025   1.946   6.954   0.242  0.0931 -0.6975 -0.1731
   54MOL0     O 7026   2.071   6.976   0.294 -0.4089  0.3087 -1.2685
   54MOL0     C 7027   2.171   6.886   0.262 -0.2840 -0.1282 -1.3719
   54MOL0     C 7028   2.296   6.932   0.220 -0.6416 -0.1480  0.7468
   54MOL0     C 7029   2.396   6.845   0.186 -0.3384 -0.1165 -0.0198
   54MOL0     C 7030   2.380   6.713   0.216  0.3699  0.2476  0.4293
   54MOL0     O 7031   2.496   6.635   0.184 -0.2915  0.4838  0.3536
   54MOL0     C 7032   2.483   6.489   0.188  0.4452 -0.2852 -0.2115
   54MOL0     C 7033   2.618   6.435   0.135  0.6480  0.1561 -0.3720
   54MOL0     C 7034   2.614   6.282   0.098 -0.3337  0.6686 -0.7263
   54MOL0     C 7035   2.743   6.201   0.129 -0.1485 -0.1348  0.1487
   54MOL0     C 7036   2.755   6.153   0.277 -0.0313 -0.4007  0.2705
   54MOL0     C 7037   2.834   6.259   0.350 -0.0940 -0.0156  0.5073
   54MOL0     C 7038   2.863   6.226   0.481 -0.2501 -0.1694 -1.0558
   54MOL0     C 7039   2.990   6.279   0.553 -0.4008  0.2026  0.8012
   54MOL0    Cl 7040   3.006   6.192   0.702  0.0385 -0.0853 -0.1426
   54MOL0     C 7041   2.249   6.664   0.263 -0.0381  1.1416  0.9066
   54MOL0     C 7042   2.144   6.748   0.276  1.3265  0.6074 -0.6486
   54MOL0     O 7043   1.917   6.875   0.152  0.5116  0.1558  0.4421
   54MOL0     C 7044   1.707   7.037   0.245 -0.6820  0.4198 -1.2771
   54MOL0     C 7045   1.606   7.130   0.270 -0.4739  0.8161 -0.2051
   54MOL0     N 7046   1.445   7.631   1.040 -0.3630  0.2631 -0.5164
   54MOL0     N 7047   1.454   7.736   1.114  0.1324  1.0333 -0.6460
   54MOL0     C 7048   1.653   8.602   1.606  0.7210 -0.7172 -1.0347
   54MOL0     C 7049   1.544   8.660   1.664  0.0364  0.0007 -0.6919
   54MOL0     C 7050   1.202   8.899   1.818  0.7863  0.2015  0.6978
   54MOL0     C 7051   1.257   9.007   1.899 -0.6116 -0.7985  0.1913
   54MOL0     C 7052   1.174   9.087   1.980 -0.6288 -0.0397  0.7886
   54MOL0     C 7053   1.037   9.078   1.977  0.1715  0.3375  0.7700
   54MOL0     O 7054   0.968   9.157   2.059  0.0240 -0.8102 -0.0265
   54MOL0     C 7055   0.825   9.184   2.043 -0.6956  0.5992 -0.1958
   54MOL0     C 7056   0.791   9.316   1.971 -0.5948  0.2939 -1.1886
   54MOL0     C 7057   0.814   9.428   2.072  0.5177  0.2118  1.1830
   54MOL0     C 7058   0.669   9.446   2.132  0.9046 -0.3986  0.4761
   54MOL0     C 7059   0.666   9.554   2.238 -0.2433  0.8064  0.0436
   54MOL0     C 7060   0.657   9.649   2.313 -0.4140 -0.7444  0.4730
   54MOL0     C 7061   0.983   8.962   1.910 -0.6682 -0.7320 -0.3042
   54MOL0     C 7062   1.065   8.884   1.824  0.0427  0.0847 -0.2039
   54MOL0     H 7063   1.572   8.968   1.520  2.7371  0.2483  1.9047
   54MOL0     H 7064   1.750   8.829   1.396  3.9406 -0.3531  2.5305
   54MOL0     H 7065   2.004   8.580   1.328 -0.6346 -1.7459 -1.9674
   54MOL0     H 7066   1.946   8.741   1.350  2.6891 -1.1096 -0.3670
   54MOL0     H 7067   1.888   8.613   1.141  1.8272  0.2114  1.2085
   54MOL0     H 7068   1.735   8.650   1.215  0.0151  1.3914  1.4858
   54MOL0     H 7069   1.720   8.419   1.319  0.9259 -0.8862  1.0573
   54MOL0     H 7070   1.879   8.380   1.259 -0.1899  0.9621  0.3226
   54MOL0     H 7071   1.633   8.421   1.088 -0.1886 -3.1048 -4.0498
   54MOL0     H 7072   1.808   8.402   1.032  0.1481 -0.6048  0.6706
   54MOL0     H 7073   1.687   8.212   1.217  0.5596 -3.2552  0.1304
   54MOL0     H 7074   1.802   8.184   1.090 -0.1709  0.2496  0.2428
   54MOL0     H 7075   1.591   8.259   0.922  2.6698  0.6846  1.0354
   54MOL0     H 7076   1.489   8.219   1.059  1.9408  3.0484  1.4452
   54MOL0     H 7077   1.483   8.043   0.913 -0.1199  0.5644  1.1418
   54MOL0     H 7078   1.665   8.022   0.914  2.8854  1.0395  2.2827
   54MOL0     H 7079   1.472   7.995   1.147  0.4094 -1.3474  0.5006
   54MOL0     H 7080   1.642   7.956   1.170 -1.8675 -1.1597  2.2056
   54MOL0     H 7081   1.639   7.801   0.857  0.4983  2.6351  1.1839
   54MOL0     H 7082   1.432   7.474   0.832  0.9418 -1.1120 -1.0044
   54MOL0     H 7083   1.608   7.476   0.834 -0.8692 -3.6304 -1.3907
   54MOL0     H 7084   1.623   7.627   0.641 -0.4704  1.7705  1.6852
   54MOL0     H 7085   1.446   7.618   0.616 -0.1577 -0.3262  0.1180
   54MOL0     H 7086   1.629   7.386   0.619 -0.4867 -0.9538 -0.1978
   54MOL0     H 7087   1.454   7.375   0.616 -0.4200  0.7704  1.5070
   54MOL0     H 7088   1.649   7.490   0.422  1.6674 -2.1478  1.0203
   54MOL0     H 7089   1.473   7.514   0.405  1.4038  0.7935  0.2470
   54MOL0     H 7090   1.810   7.361   0.414  0.7488  0.6775 -1.1340
   54MOL0     H 7091   1.983   7.199   0.354  0.3041  0.2094 -2.7085
   54MOL0     H 7092   2.311   7.040   0.212  0.1012 -0.0727  2.6144
   54MOL0     H 7093   2.490   6.871   0.139 -0.2028 -1.5515 -0.5999
   54MOL0     H 7094   2.411   6.454   0.113  2.0330 -3.0729 -0.5850
   54MOL0     H 7095   2.447   6.446   0.282 -1.5087 -0.5670 -1.0358
   54MOL0     H 7096   2.700   6.451   0.205 -0.3208  0.6531  0.6816
   54MOL0     H 7097   2.665   6.487   0.051  1.9385  0.8687  0.7402
   54MOL0     H 7098   2.588   6.266  -0.007 -0.8376  2.2876 -0.8757
   54MOL0     H 7099   2.527   6.233   0.142 -0.7923 -0.3553 -2.6503
   54MOL0     H 7100   2.741   6.111   0.067 -0.8652  0.6434 -1.0212
   54MOL0     H 7101   2.828   6.264   0.104 -0.2101 -0.8676 -2.1324
   54MOL0     H 7102   2.827   6.071   0.269  1.8630  1.2045  0.1463
   54MOL0     H 7103   2.658   6.125   0.319  0.2629 -0.9254  0.5983
   54MOL0     H 7104   2.773   6.350   0.351 -1.0604 -0.6419  1.6320
   54MOL0     H 7105   2.928   6.281   0.299 -0.4419 -2.2820 -1.2968
   54MOL0     H 7106   2.775   6.245   0.544  0.4613 -1.5637  0.4517
   54MOL0     H 7107   2.881   6.118   0.473  2.4960  0.0481  0.9085
   54MOL0     H 7108   2.987   6.388   0.565 -0.1128  0.8633 -3.5104
   54MOL0     H 7109   3.075   6.252   0.490 -1.2910  1.9049 -1.2721
   54MOL0     H 7110   2.231   6.560   0.290  2.1681  0.2465 -0.7227
   54MOL0     H 7111   2.048   6.706   0.302  1.9950 -3.0350 -3.2243
   54MOL0     H 7112   1.671   6.940   0.212 -2.1996  1.0978 -1.7448
   54MOL0     H 7113   1.500   7.109   0.269 -0.6799  1.6328  1.2697
   54MOL0     H 7114   1.689   8.505   1.642  0.9577  0.3203  1.8075
   54MOL0     H 7115   1.495   8.617   1.750 -1.0410  1.3785 -0.5615
   54MOL0     H 7116   1.364   9.020   1.893 -0.8546  0.7454 -4.2194
   54MOL0     H 7117   1.220   9.157   2.049  0.0327 -0.2242  0.5444
   54MOL0     H 7118   0.773   9.182   2.140 -0.8057  1.4802 -0.2320
   54MOL0     H 7119   0.781   9.106   1.979  0.7868  0.2406 -0.8085
   54MOL0     H 7120   0.865   9.315   1.890  0.7417  0.8472 -0.0152
   54MOL0     H 7121   0.689   9.310   1.932 -1.8203  1.8746  1.4443
   54MOL0     H 7122   0.853   9.516   2.021  2.4254 -1.5378 -0.5626
   54MOL0     H 7123   0.889   9.412   2.150  3.7693  0.1716 -1.7511
   54MOL0     H 7124   0.586   9.456   2.062  2.3538 -1.8061 -1.5656
   54MOL0     H 7125   0.633   9.354   2.179 -1.6851 -0.4890 -1.4617
   54MOL0     H 7126   0.655   9.730   2.383  0.9125  0.9924 -1.3823
   54MOL0     H 7127   0.878   8.942   1.926 -0.8232  1.4652  2.1713
   54MOL0     H 7128   1.017   8.798   1.778  0.0215 -2.0776  3.4686
   55MOL0     O 7129   3.828   1.089   8.423  0.0226  1.2554 -0.7413
   55MOL0     C 7130   3.887   1.037   8.331  0.2066 -0.5758  0.9294
   55MOL0     O 7131   4.013   1.010   8.321  0.4248 -0.1436  0.5120
   55MOL0     C 7132   4.102   1.089   8.395 -0.7471 -0.1569 -0.5039
   55MOL0     C 7133   4.102   1.230   8.391 -0.0780 -0.1095 -0.1185
   55MOL0     C 7134   4.195   1.312   8.458  1.0253 -0.0460  0.0043
   55MOL0     C 7135   4.281   1.247   8.539  0.3063 -0.8674 -0.5441
   55MOL0     O 7136   4.374   1.311   8.632  0.3441  0.9886 -0.2150
   55MOL0     C 7137   4.322   1.441   8.684  0.6956 -0.8062  0.3898
   55MOL0     C 7138   4.424   1.510   8.786  0.7427 -0.0273 -0.1283
   55MOL0     C 7139   4.557   1.522   8.718 -0.6391 -0.5102 -0.1672
   55MOL0     C 7140   4.669   1.571   8.813 -0.3596  0.0821 -0.2437
   55MOL0     C 7141   4.644   1.710   8.854  0.4687  0.4226  0.2000
   55MOL0     C 7142   4.773   1.769   8.928  0.0556  0.7114 -0.2074
   55MOL0     C 7143   4.733   1.883   9.022 -0.5754  0.2345  0.2696
   55MOL0     C 7144   4.642   1.848   9.147  1.2755  0.0336 -0.1250
   55MOL0     N 7145   4.603   1.965   9.237 -0.7560  0.5085  0.2307
   55MOL0     C 7146   4.632   1.970   9.367  1.3533 -0.9734  0.4918
   55MOL0     C 7147   4.604   2.096   9.408 -0.2096  0.1482 -0.4242
   55MOL0     C 7148   4.623   2.141   9.547  0.8795 -0.4652 -0.0829
   55MOL0     C 7149   4.537   2.058   9.644  0.5275 -0.3966 -0.2527
   55MOL0     C 7150   4.397   2.019   9.591 -0.0680 -0.3582  0.1201
   55MOL0     C 7151   4.317   2.147   9.562  0.0593  0.8480 -0.3872
   55MOL0     O 7152   4.183   2.103   9.541  0.5269  0.3875 -0.3145
   55MOL0     C 7153   4.165   2.029   9.426 -0.6053  0.3229  0.6162
   55MOL0     C 7154   4.092   1.911   9.445 -0.0413 -0.1999  0.3714
   55MOL0     C 7155   4.075   1.824   9.346 -0.5105  1.3775  0.2603
   55MOL0     C 7156   4.135   1.841   9.221  0.6654  0.3880  0.8136
   55MOL0     C 7157   4.105   1.753   9.101 -0.0408  0.3260  0.0146
   55MOL0     O 7158   4.138   1.806   8.977  0.0664 -0.6526 -0.3826
   55MOL0     C 7159   4.081   1.763   8.860  0.4626  0.1767 -0.9450
   55MOL0     C 7160   4.035   1.862   8.777 -0.8139  0.6042  0.5202
   55MOL0     C 7161   3.979   1.821   8.659 -0.1855 -0.5424 -0.2120
   55MOL0     C 7162   3.955   1.689   8.620  0.0780  0.2673  0.3798
   55MOL0     O 7163   3.873   1.672   8.513 -0.2503 -0.1130  0.8284
   55MOL0     C 7164   3.865   1.538   8.447  0.3666  0.5800 -0.1799
   55MOL0     C 7165   3.779   1.560   8.329  0.8046  0.0240  0.1142
   55MOL0     C 7166   3.628   1.570   8.374 -0.5294  0.6990 -0.4136
   55MOL0     C 7167   3.522   1.608   8.264 -0.1976 -0.1173  0.1439
   55MOL0     C 7168   3.544   1.528   8.134  0.4076  0.2576  0.2155
   55MOL0     C 7169   3.529   1.370   8.144  0.5675  0.2642  0.1736
   55MOL0     C 7170   3.391   1.308   8.147 -0.1566  0.1927 -0.5249
   55MOL0     C 7171   3.317   1.335   8.022  0.7388  1.2953  0.8819
   55MOL0    Cl 7172   3.220   1.202   7.941  0.3383 -0.4008  0.5234
   55MOL0     C 7173   4.011   1.588   8.705  0.5084  0.1689  1.2232
   55MOL0     C 7174   4.067   1.625   8.829 -0.3130 -0.4826 -0.0300
   55MOL0     O 7175   4.057   1.645   9.127 -0.2877  0.3324 -0.6008
   55MOL0     C 7176   4.212   1.963   9.199  0.3261  0.0565  0.6860
   55MOL0     C 7177   4.225   2.053   9.306  0.1684  0.1947 -0.7210
   55MOL0     N 7178   4.566   2.165   9.296  0.0062  0.1370 -0.3108
   55MOL0     N 7179   4.561   2.084   9.189 -0.9391 -0.1361 -0.1536
   55MOL0     C 7180   4.286   1.104   8.538  0.4506  0.4545  1.0493
   55MOL0     C 7181   4.204   1.027   8.465 -0.2181 -0.1703 -0.9085
   55MOL0     C 7182   3.798   0.984   8.234  0.0345 -0.6950  1.0724
   55MOL0     C 7183   3.857   0.905   8.124  0.3396 -1.2461 -0.5210
   55MOL0     C 7184   3.768   0.848   8.031  0.2148  0.8949  0.7323
   55MOL0     C 7185   3.628   0.861   8.028 -0.4390 -0.5191 -0.2595
   55MOL0     O 7186   3.549   0.809   7.931 -0.1123  0.7816 -0.3372
   55MOL0     C 7187   3.407   0.798   7.956  0.5074  0.2128  0.1857
   55MOL0     C 7188   3.337   0.743   7.820 -0.1909  0.5394 -0.9926
   55MOL0     C 7189   3.325   0.580   7.802 -0.2935 -1.4621 -0.9889
   55MOL0     C 7190   3.441   0.494   7.851  0.6717 -0.1319  0.4544
   55MOL0     C 7191   3.388   0.356   7.857  0.2383 -0.1825  0.2291
   55MOL0     C 7192   3.344   0.244   7.871  0.8773  0.4177  0.6604
   55MOL0     C 7193   3.577   0.942   8.131  0.0196 -0.4396 -0.3814
   55MOL0     C 7194   3.659   1.001   8.233 -0.1449 -0.0232  0.5574
   55MOL0     H 7195   4.024   1.276   8.332 -1.7354  0.7924  2.6076
   55MOL0     H 7196   4.174   1.418   8.470 -0.2360 -0.2133 -0.5889
   55MOL0     H 7197   4.228   1.416   8.733 -0.8539  2.0037 -0.8798
   55MOL0     H 7198   4.298   1.509   8.601 -2.0644 -0.2906  1.5012
   55MOL0     H 7199   4.441   1.432   8.861  2.1046 -0.9271 -1.3091
   55MOL0     H 7200   4.388   1.602   8.833 -0.3403 -0.6833  0.3549
   55MOL0     H 7201   4.538   1.580   8.628 -0.6304 -0.2070  0.0259
   55MOL0     H 7202   4.589   1.423   8.684  1.5502 -0.0117  0.2731
   55MOL0     H 7203   4.677   1.497   8.893  2.4145 -2.3511 -2.5344
   55MOL0     H 7204   4.762   1.586   8.756 -0.0277 -0.1349  0.2380
   55MOL0     H 7205   4.562   1.711   8.926  0.6492  2.4605  0.4482
   55MOL0     H 7206   4.612   1.771   8.769 -1.4045 -2.8412 -1.6140
   55MOL0     H 7207   4.850   1.801   8.858 -0.0963 -0.2393 -0.8325
   55MOL0     H 7208   4.804   1.685   8.992 -0.5694 -0.2518 -1.1248
   55MOL0     H 7209   4.826   1.927   9.059  1.5147 -5.5380  3.1069
   55MOL0     H 7210   4.672   1.959   8.971  0.0475  1.1150  0.8034
   55MOL0     H 7211   4.695   1.771   9.204  0.4857  0.5596  1.3727
   55MOL0     H 7212   4.541   1.816   9.117  0.6298  2.8282 -1.2212
   55MOL0     H 7213   4.673   1.887   9.424  0.4476 -1.5435  0.3247
   55MOL0     H 7214   4.609   2.250   9.554  3.5394 -0.0269 -0.3136
   55MOL0     H 7215   4.728   2.134   9.577  0.7223  0.0847  0.6395
   55MOL0     H 7216   4.518   2.122   9.730 -4.4511  0.4855 -1.6689
   55MOL0     H 7217   4.596   1.978   9.690  0.9265  0.2819  0.4433
   55MOL0     H 7218   4.407   1.942   9.515  2.4484 -0.8603  0.8706
   55MOL0     H 7219   4.341   1.968   9.670  0.7759  0.9524  1.6368
   55MOL0     H 7220   4.359   2.205   9.479 -0.0368 -2.6097 -3.0978
   55MOL0     H 7221   4.313   2.218   9.645  2.2329  0.4533  0.1260
   55MOL0     H 7222   4.069   1.887   9.548  2.1262 -2.2482  0.4599
   55MOL0     H 7223   4.017   1.734   9.363  2.0889 -0.7311 -1.2022
   55MOL0     H 7224   4.050   1.966   8.807 -0.2802  0.6816  0.0056
   55MOL0     H 7225   3.950   1.912   8.609 -1.5422  0.0160  1.5036
   55MOL0     H 7226   3.822   1.461   8.512  1.6056 -2.2678 -2.5102
   55MOL0     H 7227   3.967   1.512   8.419 -0.6135 -1.6847 -1.8757
   55MOL0     H 7228   3.795   1.473   8.265 -1.9964 -2.8470  2.9600
   55MOL0     H 7229   3.803   1.647   8.268  0.8523  1.1153  1.6380
   55MOL0     H 7230   3.608   1.628   8.465  1.9129  0.7900  0.1349
   55MOL0     H 7231   3.606   1.465   8.395 -1.2729  0.6150 -1.4952
   55MOL0     H 7232   3.418   1.596   8.295  0.0474  0.7673  1.3851
   55MOL0     H 7233   3.529   1.714   8.238 -1.4490 -0.5142 -2.1095
   55MOL0     H 7234   3.640   1.559   8.092  0.5661  1.4563  1.4054
   55MOL0     H 7235   3.461   1.549   8.066 -0.0981 -0.1102  0.7168
   55MOL0     H 7236   3.578   1.331   8.234 -0.1921  0.3139  0.6176
   55MOL0     H 7237   3.591   1.331   8.063  2.0431  1.8281  0.4860
   55MOL0     H 7238   3.412   1.206   8.181  0.5810  0.1942 -0.9643
   55MOL0     H 7239   3.322   1.348   8.223 -1.0510 -2.3965  0.1217
   55MOL0     H 7240   3.379   1.369   7.938 -0.3784  0.7756 -0.1951
   55MOL0     H 7241   3.250   1.420   8.035  0.4346  1.2920 -0.4882
   55MOL0     H 7242   3.997   1.485   8.673  3.5888  0.6377 -2.3739
   55MOL0     H 7243   4.120   1.549   8.885  0.5115  0.9618  1.1906
   55MOL0     H 7244   4.249   1.999   9.103 -2.7623  2.1075  0.1039
   55MOL0     H 7245   4.286   2.141   9.288  0.2451  0.9750  2.7314
   55MOL0     H 7246   4.369   1.065   8.594  0.4260  1.9309  2.1893
   55MOL0     H 7247   4.216   0.919   8.469  2.3129  0.0646  0.2227
   55MOL0     H 7248   3.964   0.890   8.114  0.3445 -1.3479 -0.3290
   55MOL0     H 7249   3.821   0.783   7.962 -2.2521  0.8310 -1.2646
   55MOL0     H 7250   3.369   0.900   7.965 -1.0025 -0.2667 -0.3963
   55MOL0     H 7251   3.392   0.731   8.041  0.4340  2.4548  2.0340
   55MOL0     H 7252   3.238   0.790   7.814 -0.3109  0.8953  2.0705
   55MOL0     H 7253   3.391   0.788   7.737 -1.5339  2.1996 -1.0119
   55MOL0     H 7254   3.313   0.567   7.694 -0.6756 -0.3607 -1.0925
   55MOL0     H 7255   3.232   0.548   7.849  0.6765 -4.6861 -1.0166
   55MOL0     H 7256   3.527   0.513   7.786  1.9978  0.6640  2.3188
   55MOL0     H 7257   3.463   0.520   7.956 -0.0845 -1.9805  1.0973
   55MOL0     H 7258   3.301   0.146   7.863  0.6991  0.5412  0.0055
   55MOL0     H 7259   3.470   0.958   8.136 -0.0992 -0.9237 -1.2356
   55MOL0     H 7260   3.627   1.058   8.320  1.8254 -1.4043  2.2712
   56MOL0     O 7261   8.143   7.999  10.925 -0.4052 -0.4801  0.1000
   56MOL0     C 7262   8.138   7.886  10.883 -1.0420  0.5430 -0.7278
   56MOL0     O 7263   8.033   7.810  10.878  1.1038 -0.4874  0.0050
   56MOL0     C 7264   7.914   7.876  10.851 -0.0349 -0.1907 -0.1033
   56MOL0     C 7265   7.801   7.855  10.933  0.2051 -0.4139 -0.0698
   56MOL0     C 7266   7.674   7.905  10.908  0.3503 -0.0550 -0.6837
   56MOL0     C 7267   7.653   7.981  10.787 -0.3175  0.2085 -0.1761
   56MOL0     O 7268   7.542   8.062  10.765 -0.1586 -0.8279  0.2080
   56MOL0     C 7269   7.413   8.006  10.780 -1.2540 -0.4511  0.6644
   56MOL0     C 7270   7.309   8.059  10.677 -0.2627  0.1513  1.1686
   56MOL0     C 7271   7.360   8.018  10.541 -0.0287  0.2626 -0.1490
   56MOL0     C 7272   7.248   8.047  10.437 -1.0588 -0.3308  0.4346
   56MOL0     C 7273   7.320   8.098  10.304 -0.5838  0.5342 -1.0396
   56MOL0     C 7274   7.229   8.136  10.188  0.0677  0.5232  1.0708
   56MOL0     C 7275   7.304   8.171  10.067  0.0626  0.0261 -0.1835
   56MOL0     C 7276   7.373   8.063   9.989  0.2617 -0.2678 -0.0682
   56MOL0     N 7277   7.415   8.118   9.864  0.2541 -0.3829  0.4008
   56MOL0     C 7278   7.353   8.098   9.741  0.2433 -0.6567 -0.9504
   56MOL0     C 7279   7.443   8.154   9.656  1.3275  0.3824  0.3540
   56MOL0     C 7280   7.431   8.148   9.509  1.7718 -0.0662 -0.6138
   56MOL0     C 7281   7.547   8.060   9.460 -0.3381 -0.6647  0.2587
   56MOL0     C 7282   7.551   8.055   9.303  0.2991  0.5977 -0.4221
   56MOL0     C 7283   7.634   7.943   9.252 -0.7501  0.7102  0.6062
   56MOL0     O 7284   7.650   7.942   9.111  0.3761 -0.3160  0.4958
   56MOL0     C 7285   7.542   7.903   9.037 -0.3300  0.0935  0.0513
   56MOL0     C 7286   7.542   7.945   8.899 -0.1787  0.3291 -0.4428
   56MOL0     C 7287   7.444   7.900   8.804 -0.5410  0.5394  0.2821
   56MOL0     C 7288   7.344   7.806   8.838  0.1086  0.1027 -0.1994
   56MOL0     C 7289   7.243   7.752   8.745 -0.3383 -0.4213  0.4366
   56MOL0     O 7290   7.240   7.810   8.614  0.3010 -0.2712  0.0732
   56MOL0     C 7291   7.156   7.747   8.524  0.2542  1.2075  0.1681
   56MOL0     C 7292   7.164   7.618   8.478  0.0312  0.7014  1.0381
   56MOL0     C 7293   7.068   7.566   8.394 -0.5936 -0.0686  0.1243
   56MOL0     C 7294   6.960   7.643   8.353  0.7369  0.3912  0.1680
   56MOL0     O 7295   6.867   7.580   8.269 -0.6962  0.4102  0.3708
   56MOL0     C 7296   6.741   7.641   8.238 -0.6933  0.1417 -0.8924
   56MOL0     C 7297   6.741   7.713   8.106  0.2395 -0.5644 -0.2465
   56MOL0     C 7298   6.601   7.781   8.088 -0.2255 -0.3473  0.0418
   56MOL0     C 7299   6.578   7.850   7.950  0.4265  0.3007 -0.4981
   56MOL0     C 7300   6.460   7.945   7.957  0.5463 -0.0568  0.8624
   56MOL0     C 7301   6.427   7.988   7.815  0.7090 -0.5380  0.2617
   56MOL0     C 7302   6.345   8.116   7.802  0.3529 -0.3306 -0.0514
   56MOL0     C 7303   6.424   8.247   7.852 -0.5024  0.1888  0.2509
   56MOL0    Cl 7304   6.324   8.325   7.971 -0.2706 -0.2349  0.0575
   56MOL0     C 7305   6.948   7.781   8.391 -0.8337  0.3440  0.4295
   56MOL0     C 7306   7.044   7.828   8.480 -0.3260 -0.1489 -0.0379
   56MOL0     O 7307   7.166   7.667   8.787 -0.0859 -0.4878 -0.6423
   56MOL0     C 7308   7.349   7.768   8.983  0.4451 -0.6112  0.5117
   56MOL0     C 7309   7.445   7.810   9.074  0.2029  0.3392  0.8948
   56MOL0     N 7310   7.552   8.206   9.727  0.1103  0.5558  0.6921
   56MOL0     N 7311   7.536   8.184   9.852  0.5488 -0.2782  0.5698
   56MOL0     C 7312   7.760   7.994  10.698  0.2149 -0.2674  0.4177
   56MOL0     C 7313   7.889   7.944  10.734  0.8212 -0.5036 -0.1061
   56MOL0     C 7314   8.266   7.818  10.842 -0.1905  0.2390  0.6043
   56MOL0     C 7315   8.362   7.890  10.777 -0.1030  0.8528 -0.6950
   56MOL0     C 7316   8.489   7.831  10.746  0.1363  0.2797  0.8837
   56MOL0     C 7317   8.505   7.692  10.770 -0.7765 -0.5830  0.4888
   56MOL0     O 7318   8.633   7.652  10.747 -1.0013  0.2669  0.5390
   56MOL0     C 7319   8.665   7.519  10.708  0.7111  1.2426  0.2451
   56MOL0     C 7320   8.775   7.512  10.616 -0.4289  0.2647  0.9765
   56MOL0     C 7321   8.751   7.595  10.502 -0.3444 -0.0556 -0.3749
   56MOL0     C 7322   8.852   7.564  10.394  0.2200  0.0541  0.0192
   56MOL0     C 7323   8.865   7.664  10.291  0.5547  0.1910  0.7794
   56MOL0     C 7324   8.884   7.734  10.197  0.5989  0.2153 -0.9493
   56MOL0     C 7325   8.405   7.621  10.829  0.1328  0.3806  1.0856
   56MOL0     C 7326   8.291   7.682  10.863 -0.8157 -0.0531  1.4493
   56MOL0     H 7327   7.833   7.808  11.025 -0.1977  2.2715  1.5732
   56MOL0     H 7328   7.594   7.902  10.981 -1.0695 -0.7169 -2.2060
   56MOL0     H 7329   7.377   8.022  10.882  2.0257 -0.6786  1.9885
   56MOL0     H 7330   7.420   7.897  10.777  0.0026 -0.5084  3.0652
   56MOL0     H 7331   7.303   8.168  10.686  0.3456  0.3900 -0.8622
   56MOL0     H 7332   7.212   8.012  10.699  0.3330 -2.1959 -0.7856
   56MOL0     H 7333   7.367   7.909  10.534 -0.6542  0.3000 -1.7165
   56MOL0     H 7334   7.458   8.065  10.522  0.1817 -1.2043 -3.2179
   56MOL0     H 7335   7.197   7.955  10.405  2.8378 -2.8001  0.6116
   56MOL0     H 7336   7.189   8.131  10.473  1.4893  2.9538 -2.2976
   56MOL0     H 7337   7.405   8.035  10.275 -1.3286 -1.3497  0.6380
   56MOL0     H 7338   7.368   8.187  10.345  2.0899 -1.5422  0.6628
   56MOL0     H 7339   7.162   8.221  10.203  0.2668  0.5395  1.9012
   56MOL0     H 7340   7.164   8.050  10.165  0.4452  0.1374  1.4326
   56MOL0     H 7341   7.245   8.225   9.992  1.4113  0.6833 -0.8099
   56MOL0     H 7342   7.381   8.238  10.107 -0.0907 -1.5718  3.1599
   56MOL0     H 7343   7.311   7.975   9.966 -0.4305  0.6842 -2.0732
   56MOL0     H 7344   7.462   8.020  10.035 -1.6222 -3.3524  0.9862
   56MOL0     H 7345   7.254   8.055   9.725  0.9165 -2.4386 -0.6383
   56MOL0     H 7346   7.423   8.247   9.462 -0.5822 -1.4608 -3.5335
   56MOL0     H 7347   7.335   8.097   9.494  0.6848  1.0237  2.0939
   56MOL0     H 7348   7.561   7.962   9.507  1.3735 -1.8519 -2.4998
   56MOL0     H 7349   7.637   8.101   9.507 -1.2423 -0.0826  1.5479
   56MOL0     H 7350   7.448   8.052   9.265  0.8443 -2.8360 -2.0377
   56MOL0     H 7351   7.582   8.152   9.263 -1.5213  0.5685 -2.0652
   56MOL0     H 7352   7.587   7.850   9.286  0.3964 -0.3167 -0.5295
   56MOL0     H 7353   7.733   7.957   9.297 -1.2367  5.4479  0.7749
   56MOL0     H 7354   7.602   8.030   8.868  0.2732 -0.1465 -0.8726
   56MOL0     H 7355   7.444   7.942   8.704 -2.4243  1.3507  0.5722
   56MOL0     H 7356   7.243   7.552   8.512 -0.5495  0.0933  1.2274
   56MOL0     H 7357   7.089   7.461   8.378  0.7476  0.1015  0.6121
   56MOL0     H 7358   6.708   7.704   8.320  3.2823  1.4903 -0.1127
   56MOL0     H 7359   6.669   7.559   8.233 -0.2500 -0.1800 -3.3842
   56MOL0     H 7360   6.752   7.643   8.022 -2.7095  0.2868 -1.4696
   56MOL0     H 7361   6.820   7.788   8.103  1.0429 -1.4028 -1.5431
   56MOL0     H 7362   6.596   7.856   8.167  2.1948  0.2477 -0.3018
   56MOL0     H 7363   6.528   7.703   8.112  0.4992 -0.5901  1.5447
   56MOL0     H 7364   6.674   7.893   7.923  1.1950 -1.7742 -1.2442
   56MOL0     H 7365   6.549   7.775   7.875  1.9662 -2.1777  1.2496
   56MOL0     H 7366   6.477   8.038   8.011 -1.8592  1.2415 -0.4700
   56MOL0     H 7367   6.379   7.900   8.017 -0.6517  0.6884 -0.1619
   56MOL0     H 7368   6.379   7.907   7.759  1.2524 -1.3321  0.9253
   56MOL0     H 7369   6.519   8.003   7.758  0.5793  3.4028  0.8548
   56MOL0     H 7370   6.313   8.126   7.698  1.4847  1.7421 -0.2639
   56MOL0     H 7371   6.258   8.094   7.863 -1.7764  1.6577 -2.1800
   56MOL0     H 7372   6.431   8.325   7.776 -1.0768 -0.0078 -0.0124
   56MOL0     H 7373   6.525   8.228   7.889 -0.6753 -2.2990 -0.3815
   56MOL0     H 7374   6.865   7.847   8.369 -0.0384  1.5729  1.0002
   56MOL0     H 7375   7.033   7.933   8.506 -1.3491 -0.8893  2.9908
   56MOL0     H 7376   7.268   7.700   9.005  1.7284 -2.4109 -0.1132
   56MOL0     H 7377   7.426   7.768   9.172  0.6982  1.2182  1.3817
   56MOL0     H 7378   7.756   8.036  10.598  2.5703 -3.7335 -1.3542
   56MOL0     H 7379   7.972   7.952  10.665  2.7832 -2.1303  1.9412
   56MOL0     H 7380   8.344   7.997  10.764 -1.3628  0.8287  0.6376
   56MOL0     H 7381   8.565   7.896  10.704 -0.9526  2.4647  2.1093
   56MOL0     H 7382   8.572   7.491  10.657  0.9310 -3.8666  2.0789
   56MOL0     H 7383   8.676   7.445  10.787 -2.5673  3.7120  3.3501
   56MOL0     H 7384   8.859   7.551  10.673  1.6149 -1.3791 -0.7452
   56MOL0     H 7385   8.802   7.412  10.580  0.1812  0.8460 -0.2352
   56MOL0     H 7386   8.756   7.700  10.531  1.4249 -0.6191  1.5344
   56MOL0     H 7387   8.650   7.573  10.466  0.7347 -3.6234 -1.5896
   56MOL0     H 7388   8.952   7.535  10.427  0.8632 -0.1524 -1.9958
   56MOL0     H 7389   8.818   7.473  10.344 -1.1994 -0.9520  2.6079
   56MOL0     H 7390   8.918   7.791  10.113  0.3723 -1.3728 -2.1677
   56MOL0     H 7391   8.410   7.513  10.842  0.8942  0.5268  2.1884
   56MOL0     H 7392   8.218   7.614  10.906 -0.2838 -1.8193 -0.2987
   57MOL0     O 7393   2.468   9.310  10.507 -0.7891 -0.1988 -0.3939
   57MOL0     C 7394   2.534   9.407  10.541 -0.2084 -0.0737 -0.4436
   57MOL0     O 7395   2.488   9.531  10.574  0.2137 -0.0592  0.2827
   57MOL0     C 7396   2.350   9.541  10.593 -0.6715 -0.1691 -0.9352
   57MOL0     C 7397   2.281   9.635  10.523  0.9765  0.0313 -0.4926
   57MOL0     C 7398   2.141   9.635  10.518 -0.6250  0.6052 -0.5507
   57MOL0     C 7399   2.063   9.545  10.600 -0.5574  1.4346 -0.0356
   57MOL0     O 7400   1.932   9.516  10.603  0.0797  0.0413  0.2997
   57MOL0     C 7401   1.848   9.610  10.527  0.3259 -0.0574 -0.1948
   57MOL0     C 7402   1.704   9.619  10.583  0.1593  0.3256  0.0588
   57MOL0     C 7403   1.684   9.729  10.682 -0.9429  0.6150 -0.3505
   57MOL0     C 7404   1.571   9.690  10.782  0.1600  0.2453  0.4381
   57MOL0     C 7405   1.561   9.767  10.915  0.7422 -1.2077 -0.0586
   57MOL0     C 7406   1.550   9.920  10.898 -0.4961  0.0862 -0.2776
   57MOL0     C 7407   1.492   9.984  11.025  0.5378  0.7412 -0.5286
   57MOL0     C 7408   1.481  10.143  11.022  0.3913  1.8144  0.2868
   57MOL0     N 7409   1.617  10.196  10.998 -0.1643  0.3257  0.2570
   57MOL0     C 7410   1.704  10.230  11.099 -0.0059  0.0433  0.5104
   57MOL0     C 7411   1.796  10.301  11.036 -0.3599 -0.0169 -0.3634
   57MOL0     C 7412   1.925  10.370  11.094  1.0134 -0.6109 -0.4220
   57MOL0     C 7413   1.950  10.513  11.041 -0.1929  2.1976  0.0716
   57MOL0     C 7414   2.080  10.570  11.095 -0.6497  0.3918  1.2767
   57MOL0     C 7415   2.100  10.722  11.066 -0.3791 -0.1369  0.2050
   57MOL0     O 7416   2.005  10.800  11.137  0.6302  0.3111  1.0531
   57MOL0     C 7417   2.031  10.934  11.147  0.1561  0.8005  0.1385
   57MOL0     C 7418   2.001  11.006  11.262 -0.5881  0.2492 -0.0355
   57MOL0     C 7419   2.038  11.143  11.280  0.9739  0.1041  0.0916
   57MOL0     C 7420   2.110  11.203  11.180  0.4285 -0.1340 -0.2957
   57MOL0     C 7421   2.137  11.352  11.191  0.1175  0.0719 -0.7260
   57MOL0     O 7422   2.069  11.425  11.281  0.4308  0.1632 -0.0162
   57MOL0     C 7423   2.043  11.563  11.267 -0.0049  0.6822  0.3018
   57MOL0     C 7424   1.913  11.612  11.272 -1.5028 -0.0565  0.3621
   57MOL0     C 7425   1.895  11.751  11.241 -0.2897  0.4338  0.6465
   57MOL0     C 7426   1.997  11.846  11.227 -0.0542 -0.0371  0.0939
   57MOL0     O 7427   1.986  11.982  11.224 -1.0554 -0.2431 -0.0644
   57MOL0     C 7428   1.870  12.035  11.293  0.5086  0.1593 -0.2050
   57MOL0     C 7429   1.892  12.187  11.315 -0.8462 -0.1076 -0.3550
   57MOL0     C 7430   1.988  12.248  11.212  0.1563 -0.6223 -0.3476
   57MOL0     C 7431   2.018  12.393  11.253 -0.1237 -0.6824  0.0304
   57MOL0     C 7432   2.106  12.463  11.150 -1.1224  0.4244  0.1390
   57MOL0     C 7433   2.100  12.619  11.166  0.2776 -0.5145  0.9162
   57MOL0     C 7434   2.183  12.684  11.055  0.3045 -0.6794  0.2035
   57MOL0     C 7435   2.196  12.835  11.063  0.2859 -0.2848  0.0946
   57MOL0    Cl 7436   2.343  12.872  10.985 -0.2103 -0.4875  0.5064
   57MOL0     C 7437   2.126  11.792  11.231  0.2242 -0.0383  0.5748
   57MOL0     C 7438   2.152  11.656  11.244  0.2871  0.8349 -0.2473
   57MOL0     O 7439   2.210  11.405  11.104  0.0877 -0.4366 -0.3446
   57MOL0     C 7440   2.144  11.123  11.064 -0.8188 -0.0210  0.0467
   57MOL0     C 7441   2.094  11.001  11.045 -0.3426 -0.5815 -0.4980
   57MOL0     N 7442   1.768  10.316  10.902 -0.6578  0.4182  0.6647
   57MOL0     N 7443   1.653  10.252  10.882  0.7250 -0.9359  0.9836
   57MOL0     C 7444   2.146   9.467  10.684 -0.1134  0.2065  0.7792
   57MOL0     C 7445   2.284   9.461  10.677 -1.0330  0.1558 -0.5938
   57MOL0     C 7446   2.678   9.401  10.523  0.1216  0.6562  0.2627
   57MOL0     C 7447   2.765   9.497  10.574  0.1367 -0.2057 -0.3782
   57MOL0     C 7448   2.900   9.490  10.533  0.2136  0.1749  0.5242
   57MOL0     C 7449   2.944   9.409  10.432  0.0118  0.3145  0.4489
   57MOL0     O 7450   3.077   9.407  10.377 -0.4887 -0.7608 -0.2947
   57MOL0     C 7451   3.182   9.470  10.450 -0.4085  0.2287  0.8635
   57MOL0     C 7452   3.307   9.467  10.355 -0.6526  0.0264 -0.2724
   57MOL0     C 7453   3.426   9.504  10.438 -0.1842  0.0902  0.6749
   57MOL0     C 7454   3.545   9.516  10.345  0.1287  0.2488  0.2908
   57MOL0     C 7455   3.643   9.605  10.412 -0.9008  1.0495  1.2184
   57MOL0     C 7456   3.729   9.668  10.473  0.8804  0.3942 -0.8436
   57MOL0     C 7457   2.851   9.328  10.365 -0.2307 -1.0163  0.3949
   57MOL0     C 7458   2.725   9.312  10.419  0.3872  0.3222 -0.6191
   57MOL0     H 7459   2.329   9.712  10.463  0.1958 -0.4998 -1.8507
   57MOL0     H 7460   2.082   9.696  10.450  0.3488 -0.9747 -2.9571
   57MOL0     H 7461   1.840   9.582  10.422  1.3771 -1.1302 -0.0118
   57MOL0     H 7462   1.892   9.709  10.537  0.8041 -0.4788  3.4989
   57MOL0     H 7463   1.685   9.518  10.623 -0.9384  0.5517  0.1203
   57MOL0     H 7464   1.638   9.640  10.499 -0.1871 -1.1037 -0.0516
   57MOL0     H 7465   1.647   9.825  10.643 -4.2359  0.3111  1.5927
   57MOL0     H 7466   1.781   9.746  10.730  1.2464 -2.0222 -3.4276
   57MOL0     H 7467   1.483   9.711  10.720  1.8328  0.3032 -2.0515
   57MOL0     H 7468   1.577   9.584  10.810  1.5140  1.0290  3.6759
   57MOL0     H 7469   1.638   9.753  10.991  2.9196  1.5759 -1.5415
   57MOL0     H 7470   1.458   9.750  10.949  0.0913  2.0041 -0.0666
   57MOL0     H 7471   1.486   9.950  10.814  0.5628  0.5061 -0.9414
   57MOL0     H 7472   1.650   9.962  10.890 -0.8170  1.0670  0.5408
   57MOL0     H 7473   1.395   9.943  11.057  0.9257  1.4730  1.8086
   57MOL0     H 7474   1.565   9.966  11.104  0.2476 -1.0534 -0.6294
   57MOL0     H 7475   1.433  10.192  11.108  1.2684  1.7133  0.8518
   57MOL0     H 7476   1.416  10.163  10.937  1.8359  0.6047 -1.1907
   57MOL0     H 7477   1.695  10.220  11.207  0.4646  0.1782  0.5636
   57MOL0     H 7478   2.014  10.315  11.064  1.9108  0.9576 -0.7356
   57MOL0     H 7479   1.908  10.377  11.202  0.4046  1.7637 -0.6107
   57MOL0     H 7480   1.869  10.584  11.061  0.9199  4.0031 -1.4416
   57MOL0     H 7481   1.974  10.494  10.936  3.0082 -4.1665  1.4810
   57MOL0     H 7482   2.093  10.552  11.202  1.7752  0.6339  1.0659
   57MOL0     H 7483   2.159  10.518  11.042 -0.8765  1.8370 -0.5870
   57MOL0     H 7484   2.073  10.730  10.960 -0.7850  1.5335  0.4142
   57MOL0     H 7485   2.197  10.770  11.084 -0.6427  0.5063 -0.0787
   57MOL0     H 7486   1.940  10.948  11.332 -2.0847  1.6059 -0.1617
   57MOL0     H 7487   2.000  11.200  11.365  0.3215 -0.5076  0.2200
   57MOL0     H 7488   1.828  11.546  11.276 -2.0718  0.6797  0.6876
   57MOL0     H 7489   1.790  11.778  11.241  0.1420  2.5593 -2.0717
   57MOL0     H 7490   1.853  11.995  11.393 -1.3334  1.1382 -0.0925
   57MOL0     H 7491   1.777  12.009  11.241 -0.0155  0.9423  0.3156
   57MOL0     H 7492   1.932  12.213  11.413 -2.0594 -1.6510  0.5902
   57MOL0     H 7493   1.792  12.232  11.315 -0.7958  0.1384 -2.4759
   57MOL0     H 7494   1.944  12.243  11.113 -1.3750 -3.6039  0.3713
   57MOL0     H 7495   2.085  12.199  11.207  0.7103  0.4526 -0.5196
   57MOL0     H 7496   1.926  12.445  11.281  0.4534  0.0054  0.6748
   57MOL0     H 7497   2.075  12.390  11.346 -1.0451 -0.1183  0.6279
   57MOL0     H 7498   2.086  12.431  11.048  2.3232  1.2587 -0.9386
   57MOL0     H 7499   2.205  12.420  11.165 -1.2761 -0.1561 -0.4798
   57MOL0     H 7500   2.122  12.648  11.269  1.1601  2.8433 -0.0830
   57MOL0     H 7501   1.997  12.654  11.161  1.1339  2.5958  2.4809
   57MOL0     H 7502   2.279  12.632  11.067  0.7316  0.4784  2.3594
   57MOL0     H 7503   2.145  12.661  10.956  3.0002 -4.0687 -0.2186
   57MOL0     H 7504   2.194  12.868  11.167  1.5618 -0.9045  0.3391
   57MOL0     H 7505   2.118  12.882  11.003  0.5211 -1.3663 -1.1135
   57MOL0     H 7506   2.216  11.852  11.227  0.5254 -0.1453  3.4740
   57MOL0     H 7507   2.252  11.616  11.254 -0.2801 -0.1531  1.9647
   57MOL0     H 7508   2.207  11.155  10.981 -1.0266 -1.9684 -0.9157
   57MOL0     H 7509   2.115  10.956  10.949  3.7517 -0.9488  0.3932
   57MOL0     H 7510   2.097   9.394  10.747 -1.6476  0.2121 -0.3522
   57MOL0     H 7511   2.340   9.389  10.736 -0.3443  1.1158 -0.0403
   57MOL0     H 7512   2.731   9.558  10.656  0.9502 -0.6231  0.2810
   57MOL0     H 7513   2.985   9.536  10.583 -1.0294  2.4898  0.6310
   57MOL0     H 7514   3.206   9.417  10.542  2.4204 -1.6607 -0.8148
   57MOL0     H 7515   3.161   9.576  10.467  2.9563  1.9034 -3.4003
   57MOL0     H 7516   3.323   9.367  10.314  5.1227 -1.1066  3.6171
   57MOL0     H 7517   3.301   9.542  10.275  0.9157 -0.6092 -1.0130
   57MOL0     H 7518   3.451   9.424  10.508  0.7557 -1.5634 -1.4481
   57MOL0     H 7519   3.400   9.589  10.502 -1.3073 -1.0928  1.8415
   57MOL0     H 7520   3.590   9.419  10.326  1.5708  0.4629  2.3511
   57MOL0     H 7521   3.511   9.567  10.253 -1.1285  0.1437  0.6768
   57MOL0     H 7522   3.797   9.705  10.548  2.7101  0.2643 -2.3594
   57MOL0     H 7523   2.894   9.265  10.288  1.6072 -0.2932  0.7865
   57MOL0     H 7524   2.651   9.242  10.381 -0.0222 -0.4099  1.4210
   58MOL0     O 7525   7.781   9.387   4.094  0.4883 -1.4360  0.8218
   58MOL0     C 7526   7.704   9.389   4.193 -0.4025 -0.2805  0.1897
   58MOL0     O 7527   7.698   9.498   4.274 -0.1306 -0.4743  0.6019
   58MOL0     C 7528   7.796   9.590   4.281  0.1025 -0.4645 -0.1456
   58MOL0     C 7529   7.767   9.694   4.370 -0.2354  0.6316 -0.5149
   58MOL0     C 7530   7.858   9.798   4.400  0.5222 -1.1817  0.4911
   58MOL0     C 7531   7.979   9.790   4.339  0.6821  0.1463 -0.1111
   58MOL0     O 7532   8.069   9.892   4.349 -0.3770 -0.0870  0.2495
   58MOL0     C 7533   8.128   9.901   4.483  0.3245  0.5575  0.2114
   58MOL0     C 7534   8.265   9.970   4.470  0.2030 -1.1685 -0.7439
   58MOL0     C 7535   8.344   9.957   4.605  0.0166  0.3379 -0.5982
   58MOL0     C 7536   8.475  10.046   4.598  1.1152  0.1304 -0.3077
   58MOL0     C 7537   8.523  10.079   4.740 -0.6334 -0.2138  1.5278
   58MOL0     C 7538   8.443  10.205   4.786 -0.7346  1.1380  1.2057
   58MOL0     C 7539   8.491  10.263   4.915 -0.7668 -0.1196 -0.6059
   58MOL0     C 7540   8.404  10.211   5.029 -0.2204  0.1488 -0.2420
   58MOL0     N 7541   8.464  10.237   5.156 -0.5606  0.1315  1.0654
   58MOL0     C 7542   8.516  10.151   5.250 -0.3523 -0.7742  0.3061
   58MOL0     C 7543   8.592  10.236   5.330 -0.0455 -0.0241  0.0530
   58MOL0     C 7544   8.689  10.210   5.449 -0.1647 -1.2676  0.2837
   58MOL0     C 7545   8.653  10.081   5.522  0.3343  0.1891 -0.2739
   58MOL0     C 7546   8.501  10.073   5.571 -0.0408 -0.4063 -1.0268
   58MOL0     C 7547   8.474  10.188   5.668 -0.2159  0.2355  0.1920
   58MOL0     O 7548   8.410  10.133   5.783 -0.2540 -0.7221 -0.1259
   58MOL0     C 7549   8.292  10.079   5.792 -0.5524 -0.2082  0.4328
   58MOL0     C 7550   8.268   9.985   5.889 -0.2999 -0.8621  1.0929
   58MOL0     C 7551   8.149   9.915   5.895 -0.5802 -0.0841  1.0143
   58MOL0     C 7552   8.049   9.936   5.798 -0.8763 -0.2753  0.4493
   58MOL0     C 7553   7.923   9.855   5.790  0.0902  0.2761  0.3335
   58MOL0     O 7554   7.929   9.727   5.845 -0.5056  0.5243 -0.1995
   58MOL0     C 7555   7.821   9.639   5.854  0.1983  0.4535 -0.4646
   58MOL0     C 7556   7.836   9.503   5.802 -0.1757  1.0170 -0.7697
   58MOL0     C 7557   7.734   9.415   5.808 -0.1650 -1.0099  0.2640
   58MOL0     C 7558   7.613   9.454   5.859  0.2152 -0.0466  0.6206
   58MOL0     O 7559   7.505   9.378   5.866 -0.4153  0.8674 -0.4665
   58MOL0     C 7560   7.493   9.272   5.771  0.2312 -0.0311  1.0053
   58MOL0     C 7561   7.351   9.234   5.750 -0.1273  0.2213 -0.5799
   58MOL0     C 7562   7.298   9.131   5.864 -0.9139  0.0999 -0.0302
   58MOL0     C 7563   7.146   9.096   5.856 -0.5960  0.6261  0.7724
   58MOL0     C 7564   7.097   9.005   5.970 -0.1489  0.5168  0.0584
   58MOL0     C 7565   7.170   8.870   5.974  0.3165  0.0541  0.5271
   58MOL0     C 7566   7.111   8.800   6.101 -0.2202 -0.8860  0.4391
   58MOL0     C 7567   7.218   8.790   6.213  0.4861  1.0216  0.8732
   58MOL0    Cl 7568   7.219   8.942   6.305 -0.3073  0.5877  0.0678
   58MOL0     C 7569   7.598   9.584   5.913  0.2080  0.1285 -0.4902
   58MOL0     C 7570   7.700   9.671   5.921 -0.8999  0.0428 -0.3845
   58MOL0     O 7571   7.827   9.907   5.732 -0.5120 -0.3018  0.2348
   58MOL0     C 7572   8.075  10.039   5.706 -0.1764 -0.1093 -0.0212
   58MOL0     C 7573   8.189  10.114   5.699 -0.2269 -0.2213 -0.1104
   58MOL0     N 7574   8.567  10.364   5.292  0.5995  0.4411  1.3539
   58MOL0     N 7575   8.487  10.366   5.185 -1.1053  0.5979 -0.0878
   58MOL0     C 7576   8.020   9.680   4.259 -0.1763  0.4096 -0.1542
   58MOL0     C 7577   7.928   9.582   4.239 -0.4363  0.0438 -0.1611
   58MOL0     C 7578   7.617   9.275   4.217 -0.8399 -0.7411 -0.2211
   58MOL0     C 7579   7.512   9.277   4.302 -0.0918  0.1691  0.3818
   58MOL0     C 7580   7.440   9.165   4.335  0.6648  1.2562  1.4483
   58MOL0     C 7581   7.480   9.043   4.287 -0.0073  0.5571 -0.0064
   58MOL0     O 7582   7.423   8.923   4.307 -0.1994 -0.1013  0.2394
   58MOL0     C 7583   7.292   8.904   4.373  0.2196 -0.1629 -0.4804
   58MOL0     C 7584   7.170   8.965   4.301 -0.6083 -0.8971  0.1259
   58MOL0     C 7585   7.171   8.931   4.147  0.5742  0.1466  0.2436
   58MOL0     C 7586   7.027   8.921   4.078 -0.5274 -0.0565 -0.3152
   58MOL0     C 7587   7.061   8.866   3.949  0.0886 -0.2133  0.6348
   58MOL0     C 7588   7.076   8.831   3.835  0.3295 -1.2674 -0.3100
   58MOL0     C 7589   7.588   9.038   4.195 -0.3123 -0.7303 -0.7853
   58MOL0     C 7590   7.660   9.156   4.164 -0.3599 -0.3835  0.2427
   58MOL0     H 7591   7.679   9.698   4.434  0.7079 -0.2358  0.8966
   58MOL0     H 7592   7.830   9.876   4.470 -0.2504 -1.2420  0.2572
   58MOL0     H 7593   8.156   9.807   4.531  1.9475 -0.0678 -1.8232
   58MOL0     H 7594   8.065   9.959   4.552 -0.0992 -0.7458  0.9457
   58MOL0     H 7595   8.250  10.074   4.439  1.7031 -0.1401  1.6751
   58MOL0     H 7596   8.321   9.924   4.389  2.8228 -0.3802  0.5161
   58MOL0     H 7597   8.380   9.855   4.621  3.7750  1.8669  2.2389
   58MOL0     H 7598   8.287   9.998   4.689 -1.1086  1.9240 -2.0472
   58MOL0     H 7599   8.554   9.998   4.540  1.7156  2.5923 -1.6432
   58MOL0     H 7600   8.435  10.133   4.546 -1.1876 -0.8422 -0.2943
   58MOL0     H 7601   8.630  10.098   4.722 -1.1430 -0.8336 -3.9276
   58MOL0     H 7602   8.517   9.999   4.814  1.2250 -2.8739 -0.9305
   58MOL0     H 7603   8.333  10.198   4.789 -1.3684  3.8385 -3.9705
   58MOL0     H 7604   8.465  10.282   4.712 -0.2636 -0.0080  0.1158
   58MOL0     H 7605   8.596  10.236   4.935 -0.7097 -0.7704 -1.6987
   58MOL0     H 7606   8.500  10.372   4.908  2.7231 -0.3524 -1.7363
   58MOL0     H 7607   8.399  10.101   5.024 -0.5555 -0.0023  2.3096
   58MOL0     H 7608   8.306  10.260   5.029 -0.6472 -0.6763  0.3211
   58MOL0     H 7609   8.509  10.043   5.246  0.5965 -0.8160 -0.3984
   58MOL0     H 7610   8.689  10.299   5.513  1.6780  0.1910 -1.6172
   58MOL0     H 7611   8.794  10.218   5.419 -0.5410 -0.0378 -0.7883
   58MOL0     H 7612   8.723  10.057   5.602  0.1824 -2.6811 -0.8902
   58MOL0     H 7613   8.673   9.996   5.456  2.7886  2.3011 -2.4524
   58MOL0     H 7614   8.423  10.082   5.495 -2.1247 -2.3678  0.7335
   58MOL0     H 7615   8.482   9.975   5.615 -0.5925  0.2671  0.2811
   58MOL0     H 7616   8.416  10.265   5.617 -1.1324 -0.1443  0.6447
   58MOL0     H 7617   8.576  10.225   5.680  0.5653 -1.4287 -0.8874
   58MOL0     H 7618   8.341   9.961   5.966  0.9881 -3.9620 -0.8742
   58MOL0     H 7619   8.125   9.839   5.968 -2.3113 -1.0278 -0.4652
   58MOL0     H 7620   7.929   9.475   5.754 -0.9623 -2.9696 -0.3008
   58MOL0     H 7621   7.732   9.318   5.759 -2.1428 -1.0586  0.3539
   58MOL0     H 7622   7.538   9.183   5.814  1.3720  0.0602  0.0507
   58MOL0     H 7623   7.545   9.295   5.677 -0.8242  0.6265  0.5617
   58MOL0     H 7624   7.337   9.196   5.648  1.4959  0.7100 -1.0140
   58MOL0     H 7625   7.294   9.326   5.759 -1.5911 -0.7883  1.0894
   58MOL0     H 7626   7.330   9.164   5.964  1.8246 -0.4721 -0.6316
   58MOL0     H 7627   7.353   9.039   5.842  0.9113  1.4287 -1.2773
   58MOL0     H 7628   7.088   9.189   5.856 -0.2424  0.8489  0.3677
   58MOL0     H 7629   7.135   9.041   5.762  0.1163 -0.9989  1.6085
   58MOL0     H 7630   6.988   8.991   5.976 -0.0611  0.0396  0.5496
   58MOL0     H 7631   7.133   9.052   6.063 -0.6917  0.1548  0.4562
   58MOL0     H 7632   7.275   8.894   5.989 -0.6498  3.5441  3.1542
   58MOL0     H 7633   7.158   8.825   5.876  2.5131 -0.7909  0.6100
   58MOL0     H 7634   7.019   8.850   6.134  1.1332  1.9038  0.2036
   58MOL0     H 7635   7.092   8.696   6.070  2.9768 -2.4562  3.1389
   58MOL0     H 7636   7.313   8.756   6.168 -2.1686 -6.6246 -0.5364
   58MOL0     H 7637   7.190   8.701   6.270  2.2148 -0.6248 -0.7182
   58MOL0     H 7638   7.511   9.616   5.970  2.5781  3.4872  1.6017
   58MOL0     H 7639   7.689   9.772   5.957 -2.8089 -0.4338  0.4909
   58MOL0     H 7640   8.013  10.066   5.621  0.5183  2.8867  0.3047
   58MOL0     H 7641   8.207  10.186   5.620 -0.0285 -1.8780 -1.6486
   58MOL0     H 7642   8.122   9.673   4.222 -0.9186 -2.6503 -1.9545
   58MOL0     H 7643   7.953   9.486   4.194 -2.2675 -0.6021  0.0903
   58MOL0     H 7644   7.473   9.371   4.338 -2.7590 -0.9783  0.7811
   58MOL0     H 7645   7.349   9.184   4.391  0.9030 -1.2035  2.7995
   58MOL0     H 7646   7.293   8.931   4.479 -2.8391 -0.3544 -0.2967
   58MOL0     H 7647   7.265   8.798   4.378 -1.5690  0.3101  1.9414
   58MOL0     H 7648   7.074   8.938   4.345 -1.1726  0.5489 -0.1462
   58MOL0     H 7649   7.175   9.075   4.306  1.5407 -0.8938 -0.7950
   58MOL0     H 7650   7.219   8.833   4.133  1.6892  0.5653  0.9621
   58MOL0     H 7651   7.228   9.013   4.103  0.3885 -0.9680 -2.2899
   58MOL0     H 7652   6.968   8.855   4.141 -0.1661  0.0358  0.1263
   58MOL0     H 7653   6.974   9.016   4.065  0.8685  1.0401  1.3929
   58MOL0     H 7654   7.108   8.809   3.736 -0.0863 -1.0764 -0.4871
   58MOL0     H 7655   7.617   8.941   4.157  2.7399 -0.5755  0.8040
   58MOL0     H 7656   7.743   9.146   4.093 -1.5818 -3.5494 -0.9313
   59MOL0     O 7657   2.462   7.488   2.756 -0.3704 -0.0438  0.4883
   59MOL0     C 7658   2.352   7.493   2.813 -0.7027  0.6460 -0.0642
   59MOL0     O 7659   2.270   7.599   2.815  0.3401  0.5821 -0.2170
   59MOL0     C 7660   2.307   7.721   2.772 -0.6032  0.5461 -0.7789
   59MOL0     C 7661   2.264   7.832   2.852  0.3242  0.3730  0.5283
   59MOL0     C 7662   2.305   7.964   2.838 -1.2565  0.3823  1.1545
   59MOL0     C 7663   2.384   7.989   2.729  0.0319 -0.0223  1.0224
   59MOL0     O 7664   2.449   8.107   2.693  0.4854 -0.0521  0.5031
   59MOL0     C 7665   2.353   8.217   2.672  0.0703 -0.0300 -0.8036
   59MOL0     C 7666   2.410   8.334   2.586  0.1802 -0.2248 -1.0259
   59MOL0     C 7667   2.423   8.320   2.430 -0.3744  0.1801  0.5134
   59MOL0     C 7668   2.553   8.264   2.392 -0.8864  0.0848 -1.0409
   59MOL0     C 7669   2.537   8.228   2.248 -1.0825 -0.8984  1.1055
   59MOL0     C 7670   2.659   8.132   2.223 -0.7407  0.0707  0.2928
   59MOL0     C 7671   2.659   8.127   2.067  0.0715 -0.8738  1.2731
   59MOL0     C 7672   2.768   8.025   2.022 -0.5241 -0.0023  0.4228
   59MOL0     N 7673   2.738   7.882   2.068 -0.4809 -0.5886  0.2502
   59MOL0     C 7674   2.799   7.811   2.178 -0.3798  0.5601 -1.0119
   59MOL0     C 7675   2.742   7.686   2.182 -0.1763  0.3596  0.0463
   59MOL0     C 7676   2.779   7.589   2.294 -0.4865 -0.1728 -1.0935
   59MOL0     C 7677   2.686   7.471   2.306 -0.0602  0.6036  0.4125
   59MOL0     C 7678   2.732   7.354   2.392 -0.3923  0.6254  0.0553
   59MOL0     C 7679   2.644   7.233   2.370  0.6158  0.2439  0.2103
   59MOL0     O 7680   2.661   7.195   2.237 -0.3013 -0.1103  0.2680
   59MOL0     C 7681   2.592   7.073   2.206 -0.3027 -0.3868  0.0464
   59MOL0     C 7682   2.486   7.008   2.276  0.6053 -0.9263 -0.7825
   59MOL0     C 7683   2.444   6.879   2.230 -0.6488 -0.0955 -0.3602
   59MOL0     C 7684   2.514   6.808   2.132  0.0368  0.4458  0.2035
   59MOL0     C 7685   2.474   6.663   2.091  0.0900 -0.6432 -0.7105
   59MOL0     O 7686   2.579   6.597   2.043 -0.7978 -0.0230  0.7953
   59MOL0     C 7687   2.581   6.464   2.038  0.1361  0.0240 -0.1441
   59MOL0     C 7688   2.480   6.395   1.975 -0.1307 -0.5922 -0.4282
   59MOL0     C 7689   2.482   6.255   1.977 -0.0447  0.1434  0.6741
   59MOL0     C 7690   2.582   6.181   2.038 -0.1289  0.2057  0.3337
   59MOL0     O 7691   2.580   6.040   2.038 -0.0179  0.0994 -0.3118
   59MOL0     C 7692   2.543   5.976   1.920  0.5787  0.3817 -0.4588
   59MOL0     C 7693   2.560   5.823   1.933  0.1560  0.0835 -0.8002
   59MOL0     C 7694   2.535   5.761   1.795  0.1037 -0.3491  0.2950
   59MOL0     C 7695   2.666   5.788   1.708  0.4619  1.3504 -0.4571
   59MOL0     C 7696   2.648   5.726   1.573  0.2712 -0.0754 -0.2668
   59MOL0     C 7697   2.742   5.766   1.465 -0.5857  0.5322 -0.0306
   59MOL0     C 7698   2.889   5.699   1.503  0.5778  0.0970 -0.4297
   59MOL0     C 7699   2.945   5.629   1.394  0.0333  0.2027  0.9658
   59MOL0    Cl 7700   2.963   5.752   1.257  0.1500 -0.1459 -0.3525
   59MOL0     C 7701   2.675   6.247   2.122 -0.2066 -0.1464 -0.0975
   59MOL0     C 7702   2.681   6.387   2.118 -0.2000  0.5321  0.2553
   59MOL0     O 7703   2.352   6.636   2.092 -0.0455 -0.0986  0.0593
   59MOL0     C 7704   2.627   6.868   2.074  0.1424  0.6962 -0.7545
   59MOL0     C 7705   2.657   6.996   2.108 -0.3582 -0.3827 -0.1399
   59MOL0     N 7706   2.639   7.683   2.084 -1.0753  0.1485  0.2571
   59MOL0     N 7707   2.641   7.799   2.018 -0.5106  0.8121  0.5469
   59MOL0     C 7708   2.422   7.889   2.636  0.2984  0.7019  0.4716
   59MOL0     C 7709   2.390   7.750   2.669 -0.0179 -0.6750 -0.3213
   59MOL0     C 7710   2.327   7.370   2.887 -0.3246  0.7152 -0.6967
   59MOL0     C 7711   2.210   7.368   2.966  0.6980  0.4012 -0.2344
   59MOL0     C 7712   2.182   7.261   3.046 -0.1116  0.7009  0.7602
   59MOL0     C 7713   2.252   7.134   3.035 -0.0175 -0.4298  0.6902
   59MOL0     O 7714   2.205   7.035   3.109 -0.9600  0.2491 -0.1266
   59MOL0     C 7715   2.195   6.912   3.029 -0.2215 -0.5672  1.2443
   59MOL0     C 7716   2.291   6.803   3.085 -0.1179 -0.2207  0.4396
   59MOL0     C 7717   2.240   6.749   3.218 -0.6820  0.0176  1.2747
   59MOL0     C 7718   2.325   6.655   3.307 -0.9645 -0.1925 -0.1511
   59MOL0     C 7719   2.457   6.719   3.349 -1.0837 -1.5903  1.1734
   59MOL0     C 7720   2.568   6.759   3.381 -0.8441  0.7275 -0.1335
   59MOL0     C 7721   2.365   7.134   2.959  0.7729 -0.5052  0.5789
   59MOL0     C 7722   2.401   7.249   2.876  0.6339  0.3405 -0.1526
   59MOL0     H 7723   2.188   7.823   2.930 -1.4446  3.9623 -0.5498
   59MOL0     H 7724   2.285   8.055   2.894 -3.3528  0.8686 -0.2826
   59MOL0     H 7725   2.313   8.247   2.769 -1.2061  2.6946 -2.0517
   59MOL0     H 7726   2.264   8.180   2.619 -0.5170  0.2491 -0.0379
   59MOL0     H 7727   2.514   8.346   2.617 -0.4447 -1.5375  1.9203
   59MOL0     H 7728   2.349   8.421   2.610 -2.8558 -1.5026 -3.5082
   59MOL0     H 7729   2.410   8.420   2.388  0.4942  0.9816  2.0385
   59MOL0     H 7730   2.343   8.261   2.384  0.8128 -1.4989  0.5020
   59MOL0     H 7731   2.636   8.328   2.426 -1.5542 -0.7337  2.5557
   59MOL0     H 7732   2.573   8.175   2.452  1.4396  1.2890  0.1307
   59MOL0     H 7733   2.543   8.310   2.176  2.5583 -1.9825 -0.0409
   59MOL0     H 7734   2.450   8.173   2.209  2.2587 -4.2831 -2.5252
   59MOL0     H 7735   2.642   8.040   2.280  2.5312 -0.5504  0.4179
   59MOL0     H 7736   2.758   8.172   2.245 -0.1699 -0.3376 -1.3744
   59MOL0     H 7737   2.561   8.094   2.032 -0.9840  1.3456  1.9482
   59MOL0     H 7738   2.690   8.215   2.010 -1.1047 -2.0841 -1.3890
   59MOL0     H 7739   2.862   8.047   2.073 -0.3553 -3.0497  1.6135
   59MOL0     H 7740   2.777   8.030   1.913  3.0541  1.0943  0.6451
   59MOL0     H 7741   2.868   7.849   2.253 -2.0133  1.8156 -0.0759
   59MOL0     H 7742   2.782   7.638   2.392  0.5005 -0.2870 -1.0611
   59MOL0     H 7743   2.877   7.548   2.269 -0.5409 -0.2426 -1.1938
   59MOL0     H 7744   2.666   7.441   2.203 -0.0388  0.7475  0.3655
   59MOL0     H 7745   2.592   7.512   2.343 -0.0554  3.5345 -2.4303
   59MOL0     H 7746   2.837   7.335   2.366 -1.6152 -1.2340 -4.4924
   59MOL0     H 7747   2.730   7.378   2.498 -2.7775  1.4236 -0.1110
   59MOL0     H 7748   2.539   7.260   2.380  0.1752 -1.9760  2.5650
   59MOL0     H 7749   2.659   7.158   2.448  0.1496 -1.0910 -0.9449
   59MOL0     H 7750   2.433   7.042   2.365  0.8136 -1.1141 -0.5868
   59MOL0     H 7751   2.356   6.834   2.275  0.7840 -0.8966  1.7933
   59MOL0     H 7752   2.408   6.450   1.916  0.0427  3.0415  2.4035
   59MOL0     H 7753   2.409   6.202   1.916  1.8978 -2.3983  0.4000
   59MOL0     H 7754   2.603   6.018   1.839  1.7370  1.2165  0.7976
   59MOL0     H 7755   2.438   6.000   1.898  0.0962  0.9255  2.1272
   59MOL0     H 7756   2.481   5.785   1.998  0.3421 -4.9118 -3.0413
   59MOL0     H 7757   2.659   5.817   1.980 -0.0528 -1.8251 -0.5149
   59MOL0     H 7758   2.437   5.786   1.753 -0.1275 -3.1692 -1.0513
   59MOL0     H 7759   2.517   5.654   1.809  0.0021 -1.1259 -4.1758
   59MOL0     H 7760   2.695   5.891   1.687  1.4203  0.8356 -1.7832
   59MOL0     H 7761   2.749   5.751   1.768 -0.4634  1.3635  0.8747
   59MOL0     H 7762   2.545   5.746   1.543 -1.2444 -3.1814  2.2138
   59MOL0     H 7763   2.653   5.617   1.586 -0.8425 -0.0187  0.8733
   59MOL0     H 7764   2.753   5.873   1.447  0.4268  0.3301 -0.7047
   59MOL0     H 7765   2.698   5.715   1.379 -0.8518 -2.7117  1.8746
   59MOL0     H 7766   2.954   5.783   1.530 -2.4730  3.3950 -2.4292
   59MOL0     H 7767   2.887   5.635   1.591 -0.6506 -0.1249 -0.5936
   59MOL0     H 7768   2.886   5.541   1.366  3.4778 -0.9286 -4.1632
   59MOL0     H 7769   3.050   5.605   1.414  1.0555  2.4428 -1.1718
   59MOL0     H 7770   2.755   6.196   2.173  0.1903 -0.0707 -0.6269
   59MOL0     H 7771   2.749   6.441   2.182  0.1669  2.9451 -1.9804
   59MOL0     H 7772   2.688   6.812   2.004 -2.3486 -2.4890 -0.5698
   59MOL0     H 7773   2.740   7.045   2.059 -1.2035  1.6505  0.3084
   59MOL0     H 7774   2.471   7.910   2.542 -0.7740  0.8356 -0.0756
   59MOL0     H 7775   2.447   7.672   2.620  0.6737 -2.2049  2.6643
   59MOL0     H 7776   2.141   7.451   2.977 -0.8117 -0.2941 -3.3185
   59MOL0     H 7777   2.095   7.264   3.111 -1.7224  1.7187 -1.2807
   59MOL0     H 7778   2.218   6.934   2.924 -1.3499  3.6326  1.6986
   59MOL0     H 7779   2.093   6.872   3.032  0.3450 -2.3995 -0.8919
   59MOL0     H 7780   2.297   6.716   3.019 -0.0454 -0.5761  0.9072
   59MOL0     H 7781   2.386   6.850   3.112 -0.6984 -0.0386  2.2893
   59MOL0     H 7782   2.145   6.697   3.201 -1.2411  1.0654  1.0926
   59MOL0     H 7783   2.229   6.838   3.281  0.4505  2.1073 -1.2924
   59MOL0     H 7784   2.258   6.618   3.385 -1.1409  0.1159 -0.1532
   59MOL0     H 7785   2.354   6.563   3.256  1.8749 -0.5716  1.8910
   59MOL0     H 7786   2.670   6.779   3.407 -0.2880  0.5908 -2.0490
   59MOL0     H 7787   2.430   7.047   2.950  3.3171  1.0288  2.6222
   59MOL0     H 7788   2.492   7.254   2.816  1.2586 -2.4585  0.4156
   60MOL0     O 7789   9.303   0.135  10.937 -0.4607 -0.8031  0.5189
   60MOL0     C 7790   9.250   0.203  11.022  0.4233  0.5481 -0.7486
   60MOL0     O 7791   9.216   0.333  11.018  0.3630 -0.0921  1.0159
   60MOL0     C 7792   9.217   0.389  10.892 -0.4621  1.3630  0.0635
   60MOL0     C 7793   9.155   0.341  10.777  1.0747  0.0780 -0.1635
   60MOL0     C 7794   9.169   0.413  10.663 -0.2238  0.5387  0.5517
   60MOL0     C 7795   9.256   0.522  10.657  0.5791 -0.7498  0.2191
   60MOL0     O 7796   9.263   0.604  10.545  0.2634 -1.0617  0.8909
   60MOL0     C 7797   9.140   0.608  10.461 -0.5592  0.2951  0.3319
   60MOL0     C 7798   9.009   0.635  10.530  0.2919 -0.1448 -0.0808
   60MOL0     C 7799   8.907   0.691  10.431 -0.6848  0.0628  1.0991
   60MOL0     C 7800   8.859   0.582  10.327 -0.4023  0.5151  0.2306
   60MOL0     C 7801   8.888   0.632  10.188  0.8484  0.0424 -0.1000
   60MOL0     C 7802   9.024   0.682  10.142  0.2758 -0.8102  0.8317
   60MOL0     C 7803   9.041   0.668   9.994  0.4910  0.1088 -0.2630
   60MOL0     C 7804   9.071   0.520   9.950  0.0019  0.9577 -0.0938
   60MOL0     N 7805   9.014   0.487   9.817 -0.4483  0.5075  0.1764
   60MOL0     C 7806   9.058   0.543   9.698 -0.1256 -0.0213 -0.4441
   60MOL0     C 7807   8.993   0.469   9.601 -0.0345  0.1449 -0.7594
   60MOL0     C 7808   8.983   0.506   9.458 -0.0103 -0.8681 -0.3078
   60MOL0     C 7809   8.923   0.637   9.447 -0.5899  0.1222 -0.0015
   60MOL0     C 7810   8.946   0.710   9.307 -0.7516 -0.6194  0.1061
   60MOL0     C 7811   8.891   0.640   9.192  0.1714 -0.0878 -0.1959
   60MOL0     O 7812   8.750   0.621   9.190 -0.1416 -0.8421  0.5817
   60MOL0     C 7813   8.696   0.573   9.072  1.2252 -0.0401 -0.0040
   60MOL0     C 7814   8.565   0.522   9.086  0.7055 -0.3506  0.5722
   60MOL0     C 7815   8.496   0.481   8.976  1.0084  0.6110 -0.6897
   60MOL0     C 7816   8.554   0.470   8.851 -0.5093 -0.4974  0.0447
   60MOL0     C 7817   8.476   0.429   8.737 -0.4666 -0.3291 -0.2202
   60MOL0     O 7818   8.350   0.386   8.757  0.9044  0.5826  0.1796
   60MOL0     C 7819   8.253   0.362   8.665 -0.6013  0.9180  0.1529
   60MOL0     C 7820   8.152   0.280   8.708  0.7499  0.1557 -0.4150
   60MOL0     C 7821   8.046   0.253   8.625 -0.6524 -0.2421 -0.0884
   60MOL0     C 7822   8.045   0.296   8.497  0.7146 -1.2076  0.7114
   60MOL0     O 7823   7.937   0.287   8.412 -0.5556  0.2175 -0.3490
   60MOL0     C 7824   7.845   0.176   8.410 -0.4747  0.1089 -0.1862
   60MOL0     C 7825   7.724   0.212   8.318 -0.5760 -0.0600  0.7270
   60MOL0     C 7826   7.751   0.265   8.177 -1.8820 -0.7661  0.6301
   60MOL0     C 7827   7.626   0.245   8.087  0.6181 -0.0815  0.3966
   60MOL0     C 7828   7.676   0.250   7.943 -0.3201  0.4613  0.1151
   60MOL0     C 7829   7.552   0.275   7.848 -0.2711  0.0577  0.0900
   60MOL0     C 7830   7.509   0.417   7.854 -0.1372  0.3933 -1.0168
   60MOL0     C 7831   7.388   0.439   7.772 -0.6832  0.6144  0.1850
   60MOL0    Cl 7832   7.254   0.335   7.831  0.3301 -0.0614  0.1491
   60MOL0     C 7833   8.147   0.369   8.448 -0.0042 -0.6983  0.6249
   60MOL0     C 7834   8.249   0.403   8.526 -0.0466  0.6471 -0.8977
   60MOL0     O 7835   8.529   0.459   8.627 -0.8160  0.2818 -0.3284
   60MOL0     C 7836   8.685   0.524   8.844  0.0370 -0.0806  0.7720
   60MOL0     C 7837   8.760   0.570   8.955 -0.5709  0.6032  0.1379
   60MOL0     N 7838   8.909   0.382   9.667 -0.7866  0.2526  0.4284
   60MOL0     N 7839   8.934   0.387   9.791  0.1231  0.1597 -0.3451
   60MOL0     C 7840   9.318   0.566  10.769 -0.4341  0.2182 -0.1304
   60MOL0     C 7841   9.297   0.499  10.894  0.8653  0.3189  0.6957
   60MOL0     C 7842   9.248   0.136  11.159 -0.2264  0.7266  0.5145
   60MOL0     C 7843   9.234   0.207  11.275 -1.0093 -0.3011 -0.4146
   60MOL0     C 7844   9.240   0.148  11.403  0.0252  0.4307 -0.1804
   60MOL0     C 7845   9.256   0.011  11.418 -0.3009 -0.8405  0.7703
   60MOL0     O 7846   9.279  -0.060  11.538  0.0216 -0.1350 -0.9938
   60MOL0     C 7847   9.282   0.015  11.657  0.3297 -1.5281 -0.4871
   60MOL0     C 7848   9.306  -0.058  11.792 -0.2616 -0.0857  0.0331
   60MOL0     C 7849   9.218   0.002  11.896  0.3216 -0.4855 -0.0059
   60MOL0     C 7850   9.251  -0.054  12.035 -0.6189 -0.7729  0.2469
   60MOL0     C 7851   9.150  -0.018  12.133  0.8196 -0.5024  0.1564
   60MOL0     C 7852   9.067   0.016  12.220  1.8607  0.4280  1.0025
   60MOL0     C 7853   9.257  -0.069  11.299  0.6961  0.8310  0.3479
   60MOL0     C 7854   9.256  -0.005  11.175 -0.1725  0.2530  0.8047
   60MOL0     H 7855   9.082   0.261  10.787 -1.0913  1.7759 -1.4570
   60MOL0     H 7856   9.107   0.384  10.578  0.8566  1.5786 -0.6523
   60MOL0     H 7857   9.143   0.522  10.394 -1.3172  0.6808 -0.2140
   60MOL0     H 7858   9.158   0.697  10.400  1.4086 -0.3291 -0.0702
   60MOL0     H 7859   9.030   0.712  10.606 -0.2107  0.0527 -0.1426
   60MOL0     H 7860   8.977   0.541  10.574  0.8788 -2.0110 -3.2993
   60MOL0     H 7861   8.952   0.776  10.378  0.2273 -2.5662 -2.7540
   60MOL0     H 7862   8.819   0.733  10.480  0.4492  1.0559  2.3750
   60MOL0     H 7863   8.901   0.483  10.343 -2.0998 -0.9192 -3.2127
   60MOL0     H 7864   8.754   0.556  10.338  0.6307 -3.2542  3.9464
   60MOL0     H 7865   8.804   0.699  10.166 -0.8043 -1.6968  0.5080
   60MOL0     H 7866   8.869   0.550  10.118  2.8502  0.4249 -1.1319
   60MOL0     H 7867   9.112   0.634  10.188  1.7645  0.5559 -0.4596
   60MOL0     H 7868   9.038   0.789  10.163 -2.2660 -0.0909 -0.7311
   60MOL0     H 7869   8.949   0.704   9.947  0.8096 -0.2860 -1.2026
   60MOL0     H 7870   9.126   0.732   9.969 -0.0511  2.5306  3.2645
   60MOL0     H 7871   9.023   0.452  10.021 -4.3311  1.5003 -2.1500
   60MOL0     H 7872   9.178   0.500   9.951 -0.5741 -3.0880  2.3314
   60MOL0     H 7873   9.121   0.629   9.678  0.3052 -0.2876 -0.2618
   60MOL0     H 7874   8.915   0.431   9.414  1.5551 -2.0690 -0.7853
   60MOL0     H 7875   9.080   0.493   9.408 -0.9906 -0.8368 -2.3144
   60MOL0     H 7876   8.960   0.708   9.522  2.0340 -1.2104  0.0870
   60MOL0     H 7877   8.817   0.611   9.457 -0.3456 -3.5829 -4.1497
   60MOL0     H 7878   8.892   0.805   9.311  1.0544  0.4437  0.0637
   60MOL0     H 7879   9.050   0.726   9.277 -1.1588 -0.1689 -1.1227
   60MOL0     H 7880   8.942   0.544   9.183  0.9948  0.3641 -0.4165
   60MOL0     H 7881   8.917   0.697   9.103 -0.7114 -1.2509 -1.2484
   60MOL0     H 7882   8.508   0.532   9.178 -0.9939 -1.2449 -0.3367
   60MOL0     H 7883   8.394   0.449   8.998  1.5117  0.4126  1.6025
   60MOL0     H 7884   8.143   0.250   8.812 -3.1765  1.2224 -0.2978
   60MOL0     H 7885   7.967   0.184   8.653  0.6713 -2.0852 -0.7257
   60MOL0     H 7886   7.792   0.156   8.504 -0.7700 -0.2572 -0.4270
   60MOL0     H 7887   7.887   0.076   8.394  2.9237  1.7704 -2.7239
   60MOL0     H 7888   7.670   0.287   8.375  0.2966  0.7217  0.5485
   60MOL0     H 7889   7.666   0.120   8.314 -4.3107  2.0512  1.8139
   60MOL0     H 7890   7.844   0.219   8.142 -1.4783 -1.2000  2.1890
   60MOL0     H 7891   7.771   0.372   8.184  1.5766 -1.1119 -1.6415
   60MOL0     H 7892   7.576   0.150   8.110 -0.3215  0.7568  1.9462
   60MOL0     H 7893   7.559   0.327   8.114  1.4577  0.5721  0.5333
   60MOL0     H 7894   7.737   0.163   7.915  0.2066  1.7200 -3.0642
   60MOL0     H 7895   7.749   0.331   7.942 -1.1570  1.2173 -0.5750
   60MOL0     H 7896   7.476   0.202   7.877  1.0037 -1.3464  0.0535
   60MOL0     H 7897   7.576   0.259   7.742  2.1464 -0.6003  0.6621
   60MOL0     H 7898   7.476   0.439   7.956  2.2764 -2.9577  0.6533
   60MOL0     H 7899   7.599   0.476   7.835  0.6329  0.1106  1.4566
   60MOL0     H 7900   7.418   0.429   7.667 -3.6489  1.8705 -0.8879
   60MOL0     H 7901   7.361   0.543   7.790  2.5291  1.7775 -0.8950
   60MOL0     H 7902   8.152   0.408   8.347 -0.6380 -0.7385  0.5752
   60MOL0     H 7903   8.326   0.473   8.495  0.6057 -0.8276 -2.7785
   60MOL0     H 7904   8.719   0.537   8.742 -0.3147 -2.4618  0.2919
   60MOL0     H 7905   8.852   0.616   8.922 -1.2081  2.2123  0.4819
   60MOL0     H 7906   9.377   0.658  10.761  1.5757 -1.1366 -1.9856
   60MOL0     H 7907   9.340   0.552  10.979 -0.5514  1.6877  0.5974
   60MOL0     H 7908   9.226   0.315  11.263 -2.8602 -0.1658  1.3459
   60MOL0     H 7909   9.224   0.212  11.489  1.1818  0.0007  0.3728
   60MOL0     H 7910   9.184   0.064  11.657  0.9162  0.1932 -5.2611
   60MOL0     H 7911   9.359   0.091  11.643 -1.6049  0.7121  0.3836
   60MOL0     H 7912   9.293  -0.166  11.778 -0.2547 -0.1447  0.4762
   60MOL0     H 7913   9.409  -0.048  11.826 -0.5257  0.3280  0.7335
   60MOL0     H 7914   9.117  -0.023  11.864  0.1935 -4.4776  2.7941
   60MOL0     H 7915   9.225   0.112  11.894 -2.2572 -0.2919 -1.2281
   60MOL0     H 7916   9.249  -0.163  12.042 -1.3762 -0.8146 -0.4993
   60MOL0     H 7917   9.350  -0.019  12.069 -1.3625  2.2140 -0.3685
   60MOL0     H 7918   8.990   0.067  12.274  1.2055 -1.2280  1.6913
   60MOL0     H 7919   9.259  -0.178  11.291  0.6146  0.8624 -0.1497
   60MOL0     H 7920   9.267  -0.064  11.084  1.0032  0.6792  0.6490
   61MOL0     O 7921   7.322   7.069   2.739 -0.3854  0.3517  0.7075
   61MOL0     C 7922   7.261   6.977   2.776 -0.0706  0.7617  0.0017
   61MOL0     O 7923   7.265   6.925   2.898 -0.7014 -0.3742  0.1930
   61MOL0     C 7924   7.329   7.007   2.987 -0.1443 -0.9629  0.4556
   61MOL0     C 7925   7.444   6.967   3.051  0.3113  1.3634  0.9064
   61MOL0     C 7926   7.508   7.056   3.143  0.0332  0.3393 -0.1518
   61MOL0     C 7927   7.453   7.178   3.186  0.4779  0.1219  0.3333
   61MOL0     O 7928   7.514   7.258   3.275 -0.1046  0.0626 -0.3696
   61MOL0     C 7929   7.615   7.208   3.355 -0.5334 -0.3874  0.2777
   61MOL0     C 7930   7.667   7.312   3.457 -0.2588 -1.0342  0.4930
   61MOL0     C 7931   7.561   7.345   3.565  0.8179  0.2249 -0.7686
   61MOL0     C 7932   7.601   7.453   3.666 -0.4763 -0.6141  0.0627
   61MOL0     C 7933   7.499   7.498   3.775  0.1285 -0.6707 -0.4058
   61MOL0     C 7934   7.544   7.627   3.853  0.1366 -0.1272  0.0996
   61MOL0     C 7935   7.434   7.656   3.963  0.2355 -0.5613  0.3890
   61MOL0     C 7936   7.331   7.746   3.900 -0.2084 -1.1896 -0.6943
   61MOL0     N 7937   7.230   7.802   3.990 -0.6400  0.4856  0.0510
   61MOL0     C 7938   7.227   7.925   4.040  0.3501 -0.6139 -0.2445
   61MOL0     C 7939   7.108   7.937   4.102  0.0091 -0.4302 -0.3468
   61MOL0     C 7940   7.045   8.062   4.158 -0.0293  0.9796 -1.0125
   61MOL0     C 7941   6.940   8.118   4.061  0.1665 -0.2701 -0.5663
   61MOL0     C 7942   6.883   8.251   4.122 -0.3737  1.1967  0.2745
   61MOL0     C 7943   6.851   8.341   4.001  0.7215 -0.1675 -0.3483
   61MOL0     O 7944   6.769   8.450   4.045 -0.0104  0.1741 -0.2685
   61MOL0     C 7945   6.758   8.570   3.966 -0.5935  0.3118  1.0765
   61MOL0     C 7946   6.798   8.577   3.828  0.5989 -0.4338 -1.3269
   61MOL0     C 7947   6.779   8.702   3.768 -0.0494 -0.0245  0.5325
   61MOL0     C 7948   6.736   8.817   3.837 -0.0573 -0.7310  0.5725
   61MOL0     C 7949   6.745   8.943   3.777  0.4226 -0.0816  0.8399
   61MOL0     O 7950   6.843   8.948   3.688  0.0830  0.0948 -0.1778
   61MOL0     C 7951   6.883   9.073   3.653 -1.1207  0.4094 -0.7719
   61MOL0     C 7952   6.886   9.095   3.519 -0.2497 -0.0093  0.2947
   61MOL0     C 7953   6.945   9.213   3.468  0.6134  0.3239  0.7924
   61MOL0     C 7954   6.990   9.312   3.553 -0.2565  0.6255 -0.1313
   61MOL0     O 7955   7.029   9.428   3.511 -0.6871 -0.3406  0.2681
   61MOL0     C 7956   6.952   9.509   3.409 -0.5876 -0.2503 -0.8848
   61MOL0     C 7957   7.029   9.634   3.408  0.2527 -0.2034 -0.2731
   61MOL0     C 7958   7.172   9.625   3.355  0.5873 -0.4365 -0.1741
   61MOL0     C 7959   7.216   9.768   3.338  0.6200 -0.3391 -0.0464
   61MOL0     C 7960   7.247   9.831   3.479 -0.0891  1.1620 -0.2538
   61MOL0     C 7961   7.326   9.960   3.472  0.3822 -0.4194 -0.1532
   61MOL0     C 7962   7.470   9.929   3.454  0.0363 -0.1264 -0.6579
   61MOL0     C 7963   7.553  10.044   3.497 -0.4137  0.8272 -0.2518
   61MOL0    Cl 7964   7.508  10.101   3.661 -0.1231  0.4364 -0.6330
   61MOL0     C 7965   6.994   9.287   3.689 -0.8949 -0.7978  0.2840
   61MOL0     C 7966   6.945   9.163   3.745 -0.8374 -0.0186  0.2466
   61MOL0     O 7967   6.666   9.035   3.806 -0.4821 -0.3959  0.2731
   61MOL0     C 7968   6.695   8.804   3.970 -0.3194 -0.6421 -0.0504
   61MOL0     C 7969   6.704   8.677   4.028  0.3111 -0.7142 -0.5522
   61MOL0     N 7970   7.051   7.814   4.115 -0.5406 -0.7897  0.3208
   61MOL0     N 7971   7.127   7.730   4.044  0.3282  0.1344 -0.0878
   61MOL0     C 7972   7.329   7.208   3.117 -0.4487 -0.8043 -0.4721
   61MOL0     C 7973   7.275   7.124   3.025 -0.2647  0.6788 -1.1135
   61MOL0     C 7974   7.186   6.912   2.670  0.1338  0.7069 -1.1332
   61MOL0     C 7975   7.081   6.812   2.711 -0.2472 -0.6307  0.9883
   61MOL0     C 7976   7.001   6.757   2.608 -0.0258  0.8007  0.3513
   61MOL0     C 7977   7.011   6.788   2.474 -0.2803  0.2923  0.0065
   61MOL0     O 7978   6.934   6.714   2.390  0.0608 -0.0195  0.8106
   61MOL0     C 7979   6.909   6.759   2.259  0.5210  0.1574 -0.0010
   61MOL0     C 7980   6.768   6.719   2.216  0.0769  0.2003  0.6317
   61MOL0     C 7981   6.734   6.732   2.065 -0.7364  0.5020  0.4079
   61MOL0     C 7982   6.616   6.656   2.025  0.6201  0.1693  0.3948
   61MOL0     C 7983   6.617   6.509   2.011 -0.6563 -0.0701  0.0844
   61MOL0     C 7984   6.618   6.395   1.986  0.0148  0.3067  0.2707
   61MOL0     C 7985   7.105   6.881   2.435  0.0859 -1.0038  1.1389
   61MOL0     C 7986   7.191   6.949   2.530 -0.6064  0.0003 -0.8087
   61MOL0     H 7987   7.481   6.868   3.027  3.9204  3.0837 -1.5803
   61MOL0     H 7988   7.581   6.998   3.199 -0.4835 -1.8573 -1.6360
   61MOL0     H 7989   7.698   7.178   3.290  0.4505  2.9819 -0.2180
   61MOL0     H 7990   7.578   7.123   3.413  0.7223 -1.0598  0.1192
   61MOL0     H 7991   7.698   7.405   3.409  3.5616 -1.5065  1.6899
   61MOL0     H 7992   7.758   7.290   3.513  1.0883 -0.0420 -1.1857
   61MOL0     H 7993   7.534   7.254   3.619  0.7106  0.9843  0.4879
   61MOL0     H 7994   7.470   7.388   3.522 -1.0973 -2.4117  0.3414
   61MOL0     H 7995   7.693   7.420   3.714  0.1939  1.9706  0.7036
   61MOL0     H 7996   7.615   7.549   3.614  1.3358 -0.6848  0.3696
   61MOL0     H 7997   7.489   7.423   3.854  4.1577  0.0238  1.0024
   61MOL0     H 7998   7.404   7.528   3.731  0.2478  1.2633  0.5125
   61MOL0     H 7999   7.559   7.714   3.789 -0.3252 -1.7671 -2.4136
   61MOL0     H 8000   7.635   7.592   3.903  1.0129  3.4341  1.2385
   61MOL0     H 8001   7.387   7.562   3.992 -0.4152 -0.3925 -0.1027
   61MOL0     H 8002   7.488   7.706   4.045  2.3306  1.0961 -1.8511
   61MOL0     H 8003   7.292   7.707   3.806 -0.9624 -0.1068 -0.8439
   61MOL0     H 8004   7.392   7.833   3.876  0.8140 -1.1877  1.6127
   61MOL0     H 8005   7.289   8.012   4.023  1.3247 -1.3838 -0.7489
   61MOL0     H 8006   7.117   8.138   4.191 -1.1635  1.0085  1.6464
   61MOL0     H 8007   6.988   8.030   4.246 -1.9600  1.1227 -2.1718
   61MOL0     H 8008   6.858   8.046   4.048 -1.5118  1.7469 -1.8184
   61MOL0     H 8009   6.981   8.135   3.961 -0.1913  0.5269 -0.5876
   61MOL0     H 8010   6.795   8.230   4.185 -1.8597 -0.9486 -2.3341
   61MOL0     H 8011   6.958   8.307   4.179  2.0823 -1.1846 -0.4178
   61MOL0     H 8012   6.796   8.283   3.927 -1.2087 -0.2295  1.0596
   61MOL0     H 8013   6.942   8.381   3.956 -0.4576  0.4620 -2.2835
   61MOL0     H 8014   6.827   8.501   3.756 -1.5732  0.2873 -3.0670
   61MOL0     H 8015   6.805   8.707   3.662  1.4784  0.2201  0.8916
   61MOL0     H 8016   6.853   9.008   3.462  0.6783 -1.8899  2.4646
   61MOL0     H 8017   6.959   9.212   3.360  0.7045 -3.1296  0.7281
   61MOL0     H 8018   6.847   9.523   3.433 -0.1061  1.0887  0.6011
   61MOL0     H 8019   6.965   9.473   3.306 -0.1443  1.0183 -1.2865
   61MOL0     H 8020   7.037   9.669   3.511  1.8820 -1.3704  0.0499
   61MOL0     H 8021   6.972   9.703   3.346  2.0888  0.8587 -0.8567
   61MOL0     H 8022   7.166   9.578   3.256 -2.5960  0.2537 -0.4232
   61MOL0     H 8023   7.242   9.570   3.418  1.9693  3.0308  1.5734
   61MOL0     H 8024   7.301   9.752   3.272 -1.6791 -2.8563 -2.7030
   61MOL0     H 8025   7.138   9.823   3.284 -1.7878 -2.0056  1.5458
   61MOL0     H 8026   7.302   9.757   3.538 -1.8687  1.1834  1.5402
   61MOL0     H 8027   7.154   9.838   3.537  0.4117 -0.7678  0.9143
   61MOL0     H 8028   7.301  10.024   3.557 -0.2810 -0.3086 -0.4243
   61MOL0     H 8029   7.279  10.013   3.389 -0.4598 -0.0516  0.5426
   61MOL0     H 8030   7.491   9.849   3.526 -1.5074  1.1153  1.2749
   61MOL0     H 8031   7.499   9.901   3.352  2.2078 -1.7183  0.3146
   61MOL0     H 8032   7.526  10.115   3.419 -3.6593 -0.9959 -0.9749
   61MOL0     H 8033   7.655  10.007   3.485 -1.6832 -3.5480  0.4674
   61MOL0     H 8034   7.040   9.358   3.757  4.1143 -2.4807 -0.9018
   61MOL0     H 8035   6.971   9.146   3.849  0.6863 -2.3911 -0.4407
   61MOL0     H 8036   6.654   8.887   4.027  2.4096  1.4043 -0.8396
   61MOL0     H 8037   6.691   8.668   4.136  1.2415  1.2624 -0.2191
   61MOL0     H 8038   7.280   7.302   3.142 -0.0035 -1.2345  2.2780
   61MOL0     H 8039   7.178   7.146   2.982 -0.1070 -0.9350 -2.3791
   61MOL0     H 8040   7.058   6.770   2.808 -2.6544 -3.2261 -0.5525
   61MOL0     H 8041   6.932   6.682   2.645 -1.8393  0.8771 -2.5437
   61MOL0     H 8042   6.989   6.708   2.204  1.3233  1.6099 -0.2210
   61MOL0     H 8043   6.918   6.867   2.248  2.5246 -0.1796 -2.7051
   61MOL0     H 8044   6.757   6.621   2.264  0.5725 -0.2730 -0.2050
   61MOL0     H 8045   6.698   6.784   2.269  1.8316  0.0284  3.3579
   61MOL0     H 8046   6.814   6.686   2.006 -2.7634 -1.1783 -1.1714
   61MOL0     H 8047   6.724   6.837   2.036  0.0783  0.7149  0.8441
   61MOL0     H 8048   6.540   6.693   2.094  0.0637  4.2828 -2.0800
   61MOL0     H 8049   6.580   6.699   1.931 -3.7294 -2.1878  0.7048
   61MOL0     H 8050   6.632   6.292   1.960 -1.4740  0.0989  0.2422
   61MOL0     H 8051   7.114   6.897   2.328  2.8455 -2.8398  0.9880
   61MOL0     H 8052   7.263   7.021   2.494  1.0499 -0.7573  0.8382
   62MOL0     O 8053   3.651   0.626   4.942 -0.3793  0.2833 -0.1459
   62MOL0     C 8054   3.640   0.729   5.007 -0.0805  0.2307 -0.0333
   62MOL0     O 8055   3.692   0.745   5.131  0.4635 -0.9998 -0.2289
   62MOL0     C 8056   3.702   0.640   5.219  0.4571 -0.7658  0.1632
   62MOL0     C 8057   3.809   0.656   5.312  0.6992 -0.1167  0.7555
   62MOL0     C 8058   3.830   0.557   5.411 -0.2484  0.0974  0.2075
   62MOL0     C 8059   3.736   0.449   5.426 -0.8383  0.3754 -0.9698
   62MOL0     O 8060   3.736   0.362   5.531  0.4288 -0.4123  0.6067
   62MOL0     C 8061   3.869   0.291   5.553  0.7239  0.8344 -0.4802
   62MOL0     C 8062   3.858   0.140   5.536  0.8067 -0.1733  0.1945
   62MOL0     C 8063   3.808   0.072   5.664  0.8275 -0.5999 -0.9708
   62MOL0     C 8064   3.760  -0.075   5.658  0.3298  1.1053  0.4369
   62MOL0     C 8065   3.866  -0.162   5.575 -0.1714 -0.2913 -0.7658
   62MOL0     C 8066   3.821  -0.313   5.565  0.6825 -0.7436  0.7666
   62MOL0     C 8067   3.932  -0.404   5.537  0.4529  0.8102  0.2457
   62MOL0     C 8068   3.877  -0.552   5.505  0.2040  0.6287  0.5350
   62MOL0     N 8069   3.975  -0.645   5.445  0.1258 -0.1640 -0.4903
   62MOL0     C 8070   4.074  -0.627   5.352  0.2851 -0.4084  0.0825
   62MOL0     C 8071   4.136  -0.744   5.339  0.3463  0.2912  0.4182
   62MOL0     C 8072   4.262  -0.786   5.260  0.3321 -0.5699  0.1625
   62MOL0     C 8073   4.283  -0.717   5.124  0.6948 -0.2639 -0.4897
   62MOL0     C 8074   4.367  -0.799   5.026 -0.4500 -0.3029 -0.8850
   62MOL0     C 8075   4.336  -0.772   4.883  0.2577 -0.0280  0.0266
   62MOL0     O 8076   4.437  -0.830   4.802 -0.0206  0.4853 -0.0971
   62MOL0     C 8077   4.408  -0.824   4.669  0.4384 -0.5316  1.0469
   62MOL0     C 8078   4.321  -0.923   4.608  0.2267 -1.2252  0.4726
   62MOL0     C 8079   4.297  -0.938   4.470 -0.1606  0.2372  0.0510
   62MOL0     C 8080   4.367  -0.852   4.380  0.7516  0.2484 -0.7266
   62MOL0     C 8081   4.333  -0.854   4.240  0.4698  0.2134  0.4376
   62MOL0     O 8082   4.280  -0.980   4.195  0.3243 -0.6810 -0.3147
   62MOL0     C 8083   4.235  -0.975   4.070  1.2515  0.5199  0.1830
   62MOL0     C 8084   4.321  -0.985   3.961 -0.4589  0.7890 -0.7894
   62MOL0     C 8085   4.270  -0.984   3.835 -0.5500 -0.5420 -0.1775
   62MOL0     C 8086   4.135  -0.978   3.810  0.6613 -0.6759  0.5210
   62MOL0     O 8087   4.103  -0.960   3.678 -0.4090  0.3611 -0.4623
   62MOL0     C 8088   3.992  -1.040   3.649  0.7194  0.0483 -0.2010
   62MOL0     C 8089   3.984  -1.086   3.503  0.0178  0.2993 -0.1954
   62MOL0     C 8090   3.872  -1.181   3.481  0.8206 -0.7341 -1.5294
   62MOL0     C 8091   3.848  -1.204   3.334  0.4428 -0.0715 -0.6661
   62MOL0     C 8092   3.728  -1.294   3.327 -0.5055 -0.3246 -0.1461
   62MOL0     C 8093   3.676  -1.332   3.182 -0.1608 -0.1508  0.4218
   62MOL0     C 8094   3.772  -1.425   3.114 -0.2335  0.1739  0.3029
   62MOL0     C 8095   3.760  -1.406   2.961 -0.6853 -0.8817  0.1918
   62MOL0    Cl 8096   3.883  -1.280   2.905 -0.2779  0.0001  0.0500
   62MOL0     C 8097   4.048  -0.980   3.919  0.6808  1.4643  0.7079
   62MOL0     C 8098   4.097  -0.967   4.048 -0.0621  0.8158  0.3786
   62MOL0     O 8099   4.355  -0.750   4.182  0.7316  0.3763  0.1312
   62MOL0     C 8100   4.451  -0.758   4.435  0.1946 -0.1139  0.0123
   62MOL0     C 8101   4.473  -0.750   4.576  0.2463  0.0420 -0.1521
   62MOL0     N 8102   4.072  -0.833   5.422 -1.4052  0.5267 -0.9409
   62MOL0     N 8103   3.965  -0.778   5.476  0.4580 -0.8817 -0.2736
   62MOL0     C 8104   3.629   0.431   5.339 -0.2817  0.0919  0.4906
   62MOL0     C 8105   3.616   0.530   5.232  1.4439  0.3941 -0.3338
   62MOL0     C 8106   3.565   0.838   4.957 -0.1524  0.0786  0.9284
   62MOL0     C 8107   3.519   0.842   4.820 -0.0063  0.0876 -0.3684
   62MOL0     C 8108   3.451   0.951   4.767  0.3079  0.3118 -0.2411
   62MOL0     C 8109   3.432   1.063   4.853  0.2248  0.5021  0.2633
   62MOL0     O 8110   3.364   1.174   4.806 -0.4072  0.4727  0.3079
   62MOL0     C 8111   3.409   1.307   4.855 -0.6443  0.3363 -0.1761
   62MOL0     C 8112   3.429   1.412   4.743  0.8850 -0.5677  0.1931
   62MOL0     C 8113   3.291   1.417   4.664  0.1500  0.9744  0.5010
   62MOL0     C 8114   3.306   1.523   4.556 -0.2586 -1.0825  0.2107
   62MOL0     C 8115   3.297   1.665   4.601 -0.1348  0.5273 -0.3149
   62MOL0     C 8116   3.310   1.777   4.645  0.9332 -1.6575  0.1644
   62MOL0     C 8117   3.465   1.054   4.987  0.1734  0.4840  0.5912
   62MOL0     C 8118   3.530   0.944   5.040  0.1316  0.2124 -0.6415
   62MOL0     H 8119   3.879   0.739   5.299 -1.2475  1.7529  1.5205
   62MOL0     H 8120   3.909   0.576   5.484 -0.8323  0.0347  0.8594
   62MOL0     H 8121   3.903   0.305   5.656  3.1956  0.8561 -1.2305
   62MOL0     H 8122   3.947   0.329   5.487  2.0629 -0.1052  0.4785
   62MOL0     H 8123   3.956   0.099   5.509  1.2376  0.0683  1.3553
   62MOL0     H 8124   3.786   0.123   5.455 -1.0037  2.6115  1.0762
   62MOL0     H 8125   3.723   0.118   5.715  0.8837 -3.6097  2.3293
   62MOL0     H 8126   3.881   0.087   5.745 -2.0635  0.2412  1.6872
   62MOL0     H 8127   3.748  -0.105   5.762  1.8643  0.4831  0.4739
   62MOL0     H 8128   3.662  -0.083   5.611  2.5673 -2.4880 -4.5546
   62MOL0     H 8129   3.958  -0.156   5.633  0.3047  0.0294 -1.5403
   62MOL0     H 8130   3.886  -0.107   5.483  2.8366  2.1569  1.1717
   62MOL0     H 8131   3.740  -0.319   5.491  1.1087 -1.3170  0.3351
   62MOL0     H 8132   3.771  -0.327   5.661  1.5880  0.0038  1.3606
   62MOL0     H 8133   3.987  -0.357   5.454  0.1613  3.4345  1.4434
   62MOL0     H 8134   4.004  -0.411   5.619 -1.0483 -1.2552  1.4898
   62MOL0     H 8135   3.799  -0.527   5.432 -1.6836 -0.6535  1.9985
   62MOL0     H 8136   3.820  -0.590   5.591  1.2907  0.6020  1.2554
   62MOL0     H 8137   4.092  -0.531   5.305 -2.4283  0.1185 -0.0459
   62MOL0     H 8138   4.260  -0.894   5.241  1.7934 -0.2485 -2.2308
   62MOL0     H 8139   4.345  -0.763   5.327  1.0265  2.3815 -1.5416
   62MOL0     H 8140   4.326  -0.619   5.148  0.5697 -0.2431 -0.3442
   62MOL0     H 8141   4.184  -0.712   5.076  0.7559  2.0425 -0.5211
   62MOL0     H 8142   4.471  -0.773   5.047 -0.6984 -0.2972  0.4703
   62MOL0     H 8143   4.358  -0.907   5.040  2.4590 -0.6302 -1.0039
   62MOL0     H 8144   4.336  -0.662   4.884 -2.5693  0.0470  0.8140
   62MOL0     H 8145   4.238  -0.808   4.851 -0.6973 -2.6274  4.8161
   62MOL0     H 8146   4.291  -1.005   4.672 -0.1038 -0.6585  1.0548
   62MOL0     H 8147   4.233  -1.018   4.434 -1.0130  1.6979 -1.8612
   62MOL0     H 8148   4.429  -0.983   3.975  0.1509 -3.4399 -3.0015
   62MOL0     H 8149   4.345  -0.967   3.759 -1.1207 -1.2303 -0.9111
   62MOL0     H 8150   3.914  -0.966   3.662  1.1103  0.1144  2.4526
   62MOL0     H 8151   3.983  -1.126   3.717  0.7902  0.2619  0.0783
   62MOL0     H 8152   4.081  -1.127   3.474 -0.3688 -0.6317 -0.1795
   62MOL0     H 8153   3.975  -0.998   3.439 -1.3360  0.8272  0.6701
   62MOL0     H 8154   3.788  -1.132   3.532  1.4348 -1.3919  0.1563
   62MOL0     H 8155   3.884  -1.278   3.530 -1.0281  0.6251  1.9325
   62MOL0     H 8156   3.837  -1.108   3.282  1.2496  1.1982  1.3828
   62MOL0     H 8157   3.932  -1.253   3.284  1.8343  1.6855 -0.1522
   62MOL0     H 8158   3.645  -1.239   3.373 -0.0760  2.7957 -2.7454
   62MOL0     H 8159   3.752  -1.388   3.377 -1.5614  0.8554  2.7981
   62MOL0     H 8160   3.662  -1.246   3.116  0.7667  1.0929  1.7865
   62MOL0     H 8161   3.584  -1.389   3.193 -0.2984 -0.5023 -1.9393
   62MOL0     H 8162   3.877  -1.402   3.133 -0.3049  1.3794 -0.6611
   62MOL0     H 8163   3.746  -1.528   3.139 -1.9756  0.8268  1.3999
   62MOL0     H 8164   3.656  -1.396   2.928 -0.4715 -2.5604 -1.1307
   62MOL0     H 8165   3.791  -1.498   2.910 -0.3275  1.1536 -3.6127
   62MOL0     H 8166   3.940  -0.977   3.914  0.7739  3.4554 -1.4121
   62MOL0     H 8167   4.033  -0.953   4.134 -0.9893  3.0810 -0.6043
   62MOL0     H 8168   4.514  -0.697   4.371 -0.1503  1.3483  1.0225
   62MOL0     H 8169   4.551  -0.686   4.616  1.8877 -3.1707  2.2310
   62MOL0     H 8170   3.563   0.345   5.344  0.9097 -1.2170 -3.0109
   62MOL0     H 8171   3.521   0.532   5.179 -0.2164 -0.3583  2.3730
   62MOL0     H 8172   3.556   0.771   4.746 -1.2599 -1.0284  0.0472
   62MOL0     H 8173   3.418   0.961   4.664 -2.3551  1.8469  0.6632
   62MOL0     H 8174   3.506   1.296   4.904 -0.8145 -2.7016 -0.3040
   62MOL0     H 8175   3.345   1.336   4.939 -1.8848 -3.1149  0.2753
   62MOL0     H 8176   3.463   1.509   4.779  4.7665 -2.1997  1.3970
   62MOL0     H 8177   3.515   1.388   4.680  0.9330  0.4497 -0.1580
   62MOL0     H 8178   3.214   1.442   4.738 -0.3899  1.1653 -0.1153
   62MOL0     H 8179   3.260   1.322   4.620  0.5262  0.8376  0.5295
   62MOL0     H 8180   3.398   1.505   4.498 -1.1869 -0.1575 -1.6182
   62MOL0     H 8181   3.223   1.511   4.486 -2.0530  0.3106  2.0012
   62MOL0     H 8182   3.316   1.871   4.697 -1.0326 -0.8463 -0.9313
   62MOL0     H 8183   3.428   1.133   5.051 -2.9410 -1.7597  1.7676
   62MOL0     H 8184   3.558   0.947   5.145 -0.9640  0.8408 -0.3515
   63MOL0     O 8185   5.147   2.308   7.013 -1.0166 -0.0238  0.0826
   63MOL0     C 8186   5.205   2.362   6.918  0.0851  0.1757 -0.0455
   63MOL0     O 8187   5.234   2.301   6.806 -0.3545 -0.4224 -0.1109
   63MOL0     C 8188   5.253   2.167   6.809 -0.5988 -0.0411 -1.1821
   63MOL0     C 8189   5.167   2.080   6.727 -0.0420  0.0467 -0.0366
   63MOL0     C 8190   5.199   1.946   6.701  0.5416 -0.6316 -0.2971
   63MOL0     C 8191   5.292   1.877   6.776  0.2908  0.0329 -0.0791
   63MOL0     O 8192   5.295   1.746   6.745  0.4787  0.4914 -0.0945
   63MOL0     C 8193   5.383   1.654   6.816  0.6236 -0.4109 -0.5579
   63MOL0     C 8194   5.328   1.511   6.805 -0.5828 -0.1081 -0.0714
   63MOL0     C 8195   5.218   1.493   6.900 -0.0929  0.4899 -0.7853
   63MOL0     C 8196   5.084   1.515   6.837 -0.0351 -0.2421  0.0517
   63MOL0     C 8197   4.974   1.516   6.944  0.4251  0.0328 -0.3043
   63MOL0     C 8198   4.968   1.643   7.028 -0.3574  0.2149 -0.7374
   63MOL0     C 8199   4.959   1.764   6.936 -0.5452  1.1287 -0.5151
   63MOL0     C 8200   4.968   1.892   7.017  0.5233 -0.0974  0.0846
   63MOL0     N 8201   4.849   1.910   7.105 -0.0198  0.0161 -0.0751
   63MOL0     C 8202   4.715   1.896   7.058 -0.3390 -0.6297 -0.1152
   63MOL0     C 8203   4.648   1.849   7.168 -0.5857  0.2145 -0.4257
   63MOL0     C 8204   4.519   1.784   7.163  0.1736 -0.8509  0.0069
   63MOL0     C 8205   4.516   1.639   7.218  0.3476 -0.1852 -0.2341
   63MOL0     C 8206   4.585   1.548   7.129  0.3101 -0.4116 -0.4542
   63MOL0     C 8207   4.670   1.451   7.205 -0.0636  0.1047 -0.1335
   63MOL0     O 8208   4.742   1.348   7.124 -0.3807  0.5894  0.1913
   63MOL0     C 8209   4.821   1.262   7.186 -0.3278  0.6073  0.1435
   63MOL0     C 8210   4.826   1.137   7.124 -0.0460  1.2786  0.4924
   63MOL0     C 8211   4.917   1.031   7.156 -0.0707 -0.6388  0.3764
   63MOL0     C 8212   4.981   1.051   7.282 -0.0646  1.0965  0.5055
   63MOL0     C 8213   5.086   0.954   7.325  0.8496  0.6719  0.1741
   63MOL0     O 8214   5.095   0.932   7.462 -0.2511 -0.1917 -0.9044
   63MOL0     C 8215   5.206   0.878   7.523 -0.1184 -0.0457  0.5339
   63MOL0     C 8216   5.181   0.841   7.653 -0.9409  0.3627  0.2978
   63MOL0     C 8217   5.279   0.778   7.729  0.6231 -0.1815 -0.6149
   63MOL0     C 8218   5.413   0.791   7.682 -0.9587  0.7355 -0.1344
   63MOL0     O 8219   5.523   0.764   7.762 -0.7697  0.1174 -0.4045
   63MOL0     C 8220   5.550   0.845   7.868 -0.6382 -0.2526 -0.1242
   63MOL0     C 8221   5.686   0.823   7.945  0.0105 -0.0675 -1.1444
   63MOL0     C 8222   5.697   0.892   8.085  0.0208 -1.0012 -0.1261
   63MOL0     C 8223   5.812   0.830   8.166 -0.8142 -0.0273 -0.1119
   63MOL0     C 8224   5.944   0.889   8.120 -0.0799  0.6252 -0.3005
   63MOL0     C 8225   5.963   1.045   8.136  0.5563  0.3668  0.0106
   63MOL0     C 8226   6.106   1.101   8.152  0.6646 -0.6984  0.4037
   63MOL0     C 8227   6.118   1.244   8.216 -0.1574 -0.1295 -0.7912
   63MOL0    Cl 8228   6.050   1.232   8.394 -0.2578  0.1835 -0.6552
   63MOL0     C 8229   5.442   0.844   7.562 -0.0551 -0.8316  0.2428
   63MOL0     C 8230   5.341   0.879   7.483 -0.2617 -0.9835  0.3279
   63MOL0     O 8231   5.160   0.903   7.243 -0.0509  0.7815  0.2680
   63MOL0     C 8232   4.965   1.168   7.354 -0.3773 -0.2928  0.7281
   63MOL0     C 8233   4.889   1.273   7.305 -0.0460 -0.2543 -0.4603
   63MOL0     N 8234   4.736   1.865   7.273 -0.1998  0.5596  0.0272
   63MOL0     N 8235   4.854   1.895   7.237 -1.0422 -0.1636  0.3475
   63MOL0     C 8236   5.373   1.947   6.864 -0.3663 -0.1821  0.8134
   63MOL0     C 8237   5.361   2.091   6.875  0.2035 -0.2010  0.9492
   63MOL0     C 8238   5.226   2.509   6.896 -0.0987 -0.4434  0.0594
   63MOL0     C 8239   5.312   2.567   6.807  0.1007  0.6988  0.1468
   63MOL0     C 8240   5.341   2.704   6.792  0.0237 -0.6221  0.3062
   63MOL0     C 8241   5.285   2.789   6.885  0.4852 -0.4890  0.1177
   63MOL0     O 8242   5.291   2.926   6.879  0.2191 -0.9390  0.6801
   63MOL0     C 8243   5.365   3.011   6.787 -0.4445 -0.2361  0.5926
   63MOL0     C 8244   5.285   3.127   6.750 -0.6482  0.6223  0.4424
   63MOL0     C 8245   5.154   3.072   6.682  0.1002 -0.3558 -0.2172
   63MOL0     C 8246   5.088   3.188   6.606 -0.4643  0.1202  0.6232
   63MOL0     C 8247   4.967   3.151   6.541 -0.2635 -0.5663 -0.7917
   63MOL0     C 8248   4.858   3.148   6.495  0.2427  0.9146  0.3691
   63MOL0     C 8249   5.188   2.733   6.976  1.1830 -1.1860  0.0359
   63MOL0     C 8250   5.159   2.601   6.984 -0.4758  0.1407 -0.1220
   63MOL0     H 8251   5.091   2.130   6.669 -2.0682 -1.2515  1.3528
   63MOL0     H 8252   5.139   1.889   6.631  0.6771 -3.6813  1.8736
   63MOL0     H 8253   5.390   1.688   6.919 -2.3439  1.5723 -0.8862
   63MOL0     H 8254   5.483   1.665   6.772  1.2566  0.1869  0.9770
   63MOL0     H 8255   5.405   1.436   6.824 -1.6325 -1.7865 -1.9081
   63MOL0     H 8256   5.288   1.494   6.704 -1.3527 -0.2666  0.2488
   63MOL0     H 8257   5.231   1.554   6.990 -0.9691  0.1492 -0.4219
   63MOL0     H 8258   5.221   1.387   6.929  0.4288  0.4116 -1.1029
   63MOL0     H 8259   5.089   1.608   6.780  4.2046 -1.1088 -1.3568
   63MOL0     H 8260   5.071   1.438   6.760 -0.0896  0.3903 -0.5894
   63MOL0     H 8261   4.989   1.433   7.013  1.3600 -0.0473 -0.5915
   63MOL0     H 8262   4.878   1.506   6.892  0.0491 -2.6931  0.7076
   63MOL0     H 8263   5.051   1.642   7.100 -0.8025  0.1710 -0.2176
   63MOL0     H 8264   4.882   1.626   7.094  1.1679 -1.2067  1.0146
   63MOL0     H 8265   5.039   1.767   6.861  1.5212 -1.0376  1.4598
   63MOL0     H 8266   4.866   1.749   6.880 -0.6732 -1.9853  0.3386
   63MOL0     H 8267   4.990   1.980   6.955  1.5798  0.3820  1.1146
   63MOL0     H 8268   5.049   1.897   7.090 -1.8228  0.3867  2.8141
   63MOL0     H 8269   4.684   1.905   6.955  0.4862  2.6804 -0.1676
   63MOL0     H 8270   4.494   1.779   7.057  0.3406  0.1486 -0.0894
   63MOL0     H 8271   4.440   1.850   7.201  1.1141  0.0178  0.5065
   63MOL0     H 8272   4.411   1.610   7.225  0.2377  0.5161  1.5092
   63MOL0     H 8273   4.568   1.643   7.315  0.4760  4.7075 -0.2790
   63MOL0     H 8274   4.508   1.493   7.074 -1.7345  3.1172 -1.4300
   63MOL0     H 8275   4.637   1.598   7.047  3.9443 -4.0861 -0.7662
   63MOL0     H 8276   4.617   1.401   7.287  1.4554 -0.2644  0.6589
   63MOL0     H 8277   4.746   1.514   7.251 -0.6623  1.8141 -1.3992
   63MOL0     H 8278   4.761   1.120   7.039 -0.0054 -2.3535  1.0329
   63MOL0     H 8279   4.941   0.938   7.106  1.6193 -2.1865  3.7300
   63MOL0     H 8280   5.078   0.831   7.686 -1.0523  4.1977  1.5601
   63MOL0     H 8281   5.243   0.742   7.825  0.2359  1.3666 -0.1537
   63MOL0     H 8282   5.476   0.816   7.944 -2.5654 -0.2947 -1.9067
   63MOL0     H 8283   5.539   0.949   7.835  0.1064  0.0290  0.4954
   63MOL0     H 8284   5.762   0.860   7.875 -1.4738  2.3268 -1.6029
   63MOL0     H 8285   5.696   0.714   7.955  2.7413  0.0593 -1.5701
   63MOL0     H 8286   5.603   0.885   8.141 -1.2270  1.8368 -1.6587
   63MOL0     H 8287   5.714   0.999   8.070 -0.2712 -0.6126  1.9365
   63MOL0     H 8288   5.799   0.866   8.268 -0.3076  1.2950 -0.4952
   63MOL0     H 8289   5.816   0.721   8.154 -1.5682  0.0558 -1.2669
   63MOL0     H 8290   5.959   0.847   8.020 -0.1356  0.9456 -0.4469
   63MOL0     H 8291   6.021   0.845   8.184  1.6912 -1.3108 -3.5236
   63MOL0     H 8292   5.906   1.075   8.224  0.8494  0.4118  0.1831
   63MOL0     H 8293   5.911   1.095   8.053  0.2262  2.6977  1.5370
   63MOL0     H 8294   6.161   1.033   8.217 -0.4207 -1.9733  0.0235
   63MOL0     H 8295   6.154   1.109   8.054 -1.7410 -1.4965 -0.9155
   63MOL0     H 8296   6.059   1.314   8.157  0.6990 -1.5493 -3.4902
   63MOL0     H 8297   6.223   1.274   8.206  0.5060 -2.6915 -2.6840
   63MOL0     H 8298   5.542   0.870   7.531 -1.0064  3.3134 -0.0344
   63MOL0     H 8299   5.362   0.913   7.382  1.3692  1.2727  1.3578
   63MOL0     H 8300   5.028   1.170   7.443  2.6912 -2.6955 -1.2013
   63MOL0     H 8301   4.873   1.366   7.359  0.0310  1.0210 -2.5683
   63MOL0     H 8302   5.458   1.909   6.919 -0.7088  0.7027  2.0064
   63MOL0     H 8303   5.432   2.147   6.935  0.9098 -1.9116  1.7916
   63MOL0     H 8304   5.371   2.500   6.745 -0.3627  0.1859  0.2430
   63MOL0     H 8305   5.399   2.756   6.716 -2.0815  4.0021  1.5108
   63MOL0     H 8306   5.389   2.958   6.694 -1.9544  0.9008 -0.4875
   63MOL0     H 8307   5.461   3.044   6.829  0.1649 -0.3327 -0.6742
   63MOL0     H 8308   5.268   3.173   6.848 -2.1861  0.9209  0.0627
   63MOL0     H 8309   5.345   3.202   6.698 -0.2442  0.0397  0.0626
   63MOL0     H 8310   5.084   3.025   6.752  0.9271 -0.0858  0.8153
   63MOL0     H 8311   5.177   3.007   6.597  1.4363  4.6093 -4.1757
   63MOL0     H 8312   5.077   3.271   6.676  2.2896  2.0616 -1.0451
   63MOL0     H 8313   5.160   3.227   6.533  0.4902  0.1687  1.5741
   63MOL0     H 8314   4.765   3.143   6.441  1.7493 -1.2365 -2.2383
   63MOL0     H 8315   5.133   2.802   7.039  0.4340 -3.5136  2.1145
   63MOL0     H 8316   5.085   2.569   7.056 -0.5723  2.7691  1.0759
   64MOL0     O 8317   5.658   1.528   5.501 -0.6446  0.2251  0.3729
   64MOL0     C 8318   5.722   1.591   5.421 -0.0906 -0.0181 -0.0509
   64MOL0     O 8319   5.777   1.710   5.438 -0.7630  0.0649 -0.3542
   64MOL0     C 8320   5.752   1.789   5.550  0.0698  0.3194 -0.5329
   64MOL0     C 8321   5.756   1.743   5.679 -0.4012  0.3422 -0.1621
   64MOL0     C 8322   5.715   1.828   5.785 -0.0528 -0.1941 -0.4272
   64MOL0     C 8323   5.668   1.965   5.762 -0.4872  0.6058  0.1993
   64MOL0     O 8324   5.627   2.037   5.865  0.2675  0.0453 -0.1229
   64MOL0     C 8325   5.607   2.180   5.861  0.6292 -0.7096  0.5870
   64MOL0     C 8326   5.748   2.249   5.863  0.0308 -0.3295  1.2292
   64MOL0     C 8327   5.750   2.393   5.825  0.2507 -0.5528 -0.1246
   64MOL0     C 8328   5.721   2.483   5.941 -0.0268  0.7795 -0.2829
   64MOL0     C 8329   5.837   2.508   6.032 -0.4126 -0.1367 -0.8446
   64MOL0     C 8330   5.794   2.543   6.177 -0.2502  0.1219  0.6620
   64MOL0     C 8331   5.714   2.668   6.190 -0.1340 -0.4252  0.3833
   64MOL0     C 8332   5.565   2.651   6.183  1.1722 -0.2208 -0.6719
   64MOL0     N 8333   5.503   2.704   6.057  0.5221  0.2966 -0.0748
   64MOL0     C 8334   5.408   2.634   5.982  0.4352  0.6935  0.3469
   64MOL0     C 8335   5.370   2.720   5.885  0.4023  0.9614  0.5164
   64MOL0     C 8336   5.274   2.702   5.774  0.2281  0.2589 -0.1905
   64MOL0     C 8337   5.340   2.740   5.640 -0.7709  0.6430 -0.0528
   64MOL0     C 8338   5.470   2.655   5.619 -0.0314 -0.3971 -0.6248
   64MOL0     C 8339   5.525   2.675   5.476  1.1880 -0.8123 -0.0935
   64MOL0     O 8340   5.656   2.624   5.476  0.2723  0.0414  0.4411
   64MOL0     C 8341   5.728   2.603   5.364 -0.5672 -0.3550  1.3052
   64MOL0     C 8342   5.862   2.555   5.383  0.3912 -0.8906  0.5178
   64MOL0     C 8343   5.942   2.519   5.282 -0.7495 -0.5218 -0.1474
   64MOL0     C 8344   5.897   2.537   5.146  0.1114  0.8591 -0.9075
   64MOL0     C 8345   5.973   2.495   5.028  0.2298  0.5676 -0.9085
   64MOL0     O 8346   5.950   2.554   4.905  0.5758 -0.3504  0.5324
   64MOL0     C 8347   6.032   2.520   4.794  0.5187  0.1980 -1.3937
   64MOL0     C 8348   5.971   2.505   4.663  0.4376 -1.6164 -0.0161
   64MOL0     C 8349   6.055   2.497   4.547 -0.7377  0.7928 -0.6195
   64MOL0     C 8350   6.196   2.496   4.557 -0.5441 -0.0738 -0.1804
   64MOL0     O 8351   6.264   2.492   4.436 -0.3495 -0.6484  0.1921
   64MOL0     C 8352   6.411   2.486   4.434  0.6937 -0.2621 -0.4862
   64MOL0     C 8353   6.473   2.441   4.308  0.9647 -0.7416  0.5004
   64MOL0     C 8354   6.628   2.419   4.300 -0.2722 -0.2819 -0.4758
   64MOL0     C 8355   6.657   2.305   4.205  0.6835  0.3298  0.4049
   64MOL0     C 8356   6.802   2.275   4.179  0.0790  0.2542  0.1205
   64MOL0     C 8357   6.829   2.157   4.086 -0.9751  0.6700 -0.2318
   64MOL0     C 8358   6.877   2.192   3.941 -0.0495  0.9596 -0.1439
   64MOL0     C 8359   6.950   2.075   3.878 -0.9188  0.8611  0.4524
   64MOL0    Cl 8360   6.946   2.081   3.691  0.6319  0.2253  0.1298
   64MOL0     C 8361   6.248   2.513   4.690  0.3713  0.1307 -0.3641
   64MOL0     C 8362   6.168   2.536   4.801 -0.1677  0.5128 -0.1909
   64MOL0     O 8363   6.057   2.413   5.054  0.3629 -0.0516 -0.5049
   64MOL0     C 8364   5.764   2.585   5.125 -0.3968  0.0872 -0.8032
   64MOL0     C 8365   5.682   2.621   5.232  0.4990 -1.0422 -0.8937
   64MOL0     N 8366   5.443   2.838   5.902 -0.1883 -0.4004 -0.2528
   64MOL0     N 8367   5.523   2.821   6.000 -0.2279 -1.3311  1.4420
   64MOL0     C 8368   5.666   2.009   5.624 -0.4508  0.8543 -0.6040
   64MOL0     C 8369   5.713   1.920   5.526  0.4413 -0.1113 -0.1273
   64MOL0     C 8370   5.733   1.545   5.285 -0.8336  0.0207 -1.0417
   64MOL0     C 8371   5.757   1.632   5.186 -0.1957 -0.5436  0.3779
   64MOL0     C 8372   5.778   1.598   5.055  0.1304 -0.0477  0.3028
   64MOL0     C 8373   5.786   1.469   5.010  0.3165  0.0977 -0.0936
   64MOL0     O 8374   5.815   1.437   4.878  0.3414 -1.3084  0.0189
   64MOL0     C 8375   5.782   1.308   4.827 -0.0128 -0.1541 -0.5319
   64MOL0     C 8376   5.905   1.228   4.863  0.4574  0.2509  0.1407
   64MOL0     C 8377   5.885   1.081   4.882 -1.2484  0.6615 -0.0488
   64MOL0     C 8378   6.019   0.989   4.881 -0.6256  0.3176 -0.3932
   64MOL0     C 8379   6.062   0.969   4.740 -0.5589 -0.3763 -0.5579
   64MOL0     C 8380   6.088   0.963   4.619  0.1878  1.3659  0.3088
   64MOL0     C 8381   5.756   1.381   5.114  0.1267 -0.6855  0.2879
   64MOL0     C 8382   5.727   1.420   5.250 -0.5502 -0.7071 -0.1268
   64MOL0     H 8383   5.785   1.640   5.695  0.7775  0.2622 -2.3691
   64MOL0     H 8384   5.726   1.794   5.887  2.2486  0.1217 -0.5224
   64MOL0     H 8385   5.541   2.224   5.937 -2.0569 -2.2410 -0.7308
   64MOL0     H 8386   5.567   2.211   5.764 -0.4705 -1.1708  0.8804
   64MOL0     H 8387   5.807   2.208   5.780  1.6168  1.1585  1.5538
   64MOL0     H 8388   5.811   2.227   5.950 -0.2090 -3.9333  0.6418
   64MOL0     H 8389   5.665   2.413   5.759 -0.0205 -0.9498  0.1011
   64MOL0     H 8390   5.848   2.417   5.782  2.4535 -1.7344  3.7152
   64MOL0     H 8391   5.696   2.584   5.909  0.5951  1.1134  0.2741
   64MOL0     H 8392   5.641   2.444   6.006 -1.1479 -0.3540 -2.2319
   64MOL0     H 8393   5.887   2.599   5.998  1.3290 -0.2294  1.2186
   64MOL0     H 8394   5.907   2.425   6.042 -0.0026  0.0088 -2.3483
   64MOL0     H 8395   5.881   2.560   6.241 -1.0636  0.0184  1.8263
   64MOL0     H 8396   5.751   2.453   6.223  3.7637 -2.6705 -0.5218
   64MOL0     H 8397   5.735   2.706   6.290  4.4987 -2.6558  0.4766
   64MOL0     H 8398   5.752   2.747   6.125 -2.2500  1.0084  0.7480
   64MOL0     H 8399   5.524   2.712   6.263  0.5365  0.2345 -1.3358
   64MOL0     H 8400   5.532   2.547   6.196 -3.3983  1.3662  3.3636
   64MOL0     H 8401   5.375   2.531   6.000  1.5276  0.4406  0.9893
   64MOL0     H 8402   5.183   2.762   5.777 -0.7403 -0.9974 -2.1154
   64MOL0     H 8403   5.238   2.598   5.769  0.1086  0.0714  2.9025
   64MOL0     H 8404   5.363   2.847   5.641  1.6621  0.1856  0.8666
   64MOL0     H 8405   5.270   2.716   5.559 -1.5978  0.9208  0.5693
   64MOL0     H 8406   5.549   2.705   5.676 -1.0793  1.8396 -0.9918
   64MOL0     H 8407   5.448   2.549   5.629  0.5855 -0.7158 -2.2604
   64MOL0     H 8408   5.529   2.779   5.443  1.5989 -1.0868 -0.9447
   64MOL0     H 8409   5.456   2.620   5.410  0.2145 -0.8699  0.9449
   64MOL0     H 8410   5.900   2.538   5.483  1.2196  0.8725  0.5496
   64MOL0     H 8411   6.041   2.481   5.304 -1.0057  0.1413  2.4467
   64MOL0     H 8412   5.866   2.524   4.646  1.0079  0.6831 -1.3908
   64MOL0     H 8413   6.013   2.468   4.451  3.2751 -0.0616 -2.3266
   64MOL0     H 8414   6.454   2.421   4.510 -1.7446  0.0775  1.2890
   64MOL0     H 8415   6.442   2.590   4.449 -1.0659  0.3715 -0.8949
   64MOL0     H 8416   6.443   2.506   4.225 -0.0329 -0.4086  1.1122
   64MOL0     H 8417   6.424   2.344   4.297 -0.6418 -0.0560  1.3715
   64MOL0     H 8418   6.682   2.403   4.393  1.6760 -1.0577 -1.6855
   64MOL0     H 8419   6.679   2.500   4.248 -0.2492 -1.9670 -3.3479
   64MOL0     H 8420   6.611   2.213   4.243  2.2219 -1.3973 -1.6069
   64MOL0     H 8421   6.615   2.316   4.105  2.2053 -0.9015 -0.4279
   64MOL0     H 8422   6.848   2.252   4.275  1.3244 -0.5878 -0.6581
   64MOL0     H 8423   6.846   2.368   4.142 -2.0924  0.0078 -3.5666
   64MOL0     H 8424   6.750   2.081   4.083  0.2982 -0.6774 -1.2080
   64MOL0     H 8425   6.921   2.112   4.125 -1.9388 -2.7017 -1.4649
   64MOL0     H 8426   6.796   2.230   3.878 -1.3202  2.3687  2.2158
   64MOL0     H 8427   6.942   2.279   3.943 -0.9590  1.6440  1.9185
   64MOL0     H 8428   6.899   1.985   3.914 -1.6087  1.9679  2.4068
   64MOL0     H 8429   7.052   2.065   3.918 -0.3652 -0.0773 -1.1150
   64MOL0     H 8430   6.355   2.523   4.699  0.6626 -2.5614 -0.0631
   64MOL0     H 8431   6.233   2.545   4.887 -0.0254 -2.7060  0.1519
   64MOL0     H 8432   5.738   2.587   5.019  1.9365  1.5491 -1.4139
   64MOL0     H 8433   5.591   2.675   5.207  0.8253 -0.3344 -0.5772
   64MOL0     H 8434   5.646   2.113   5.600 -1.2654  1.6131  2.7550
   64MOL0     H 8435   5.709   1.957   5.424  0.5799  1.7774  0.5195
   64MOL0     H 8436   5.759   1.739   5.203  0.7186 -1.1028  5.2415
   64MOL0     H 8437   5.802   1.686   4.996 -2.0981  0.4110 -0.0204
   64MOL0     H 8438   5.785   1.316   4.717 -0.4387  0.2503 -0.5173
   64MOL0     H 8439   5.689   1.270   4.869  0.7153 -0.2387  1.0498
   64MOL0     H 8440   5.986   1.240   4.790 -0.8836  0.5478 -1.3374
   64MOL0     H 8441   5.935   1.267   4.961 -2.0268 -2.1499  2.0016
   64MOL0     H 8442   5.825   1.040   4.800  0.2322 -1.7695 -0.0042
   64MOL0     H 8443   5.816   1.060   4.964 -2.6009 -0.7620 -1.4861
   64MOL0     H 8444   6.105   1.016   4.943 -0.0254  0.1977 -1.1424
   64MOL0     H 8445   5.992   0.892   4.922  4.3926 -0.5514  1.5417
   64MOL0     H 8446   6.118   0.945   4.518 -0.9703 -0.1537  0.1977
   64MOL0     H 8447   5.749   1.276   5.086 -1.8646 -1.0273  1.8083
   64MOL0     H 8448   5.727   1.346   5.329 -0.4685  2.3292  2.9402
   65MOL0     O 8449   7.550   7.404   0.624 -0.7327 -0.1433  0.0264
   65MOL0     C 8450   7.521   7.361   0.734  0.4053  0.1616 -0.4977
   65MOL0     O 8451   7.595   7.265   0.806  0.3362  0.7695 -0.0699
   65MOL0     C 8452   7.690   7.209   0.725 -0.3397 -0.1111 -0.7693
   65MOL0     C 8453   7.830   7.241   0.733  0.4779  0.8152  0.4415
   65MOL0     C 8454   7.920   7.178   0.651  0.5053 -0.0329  1.3499
   65MOL0     C 8455   7.895   7.087   0.554  0.2716  0.6067  0.1218
   65MOL0     O 8456   7.979   7.041   0.452  1.1505  0.4102 -0.0255
   65MOL0     C 8457   8.113   7.088   0.462  0.6005 -0.0275  0.2015
   65MOL0     C 8458   8.187   7.021   0.335 -0.1309  0.9102 -0.2666
   65MOL0     C 8459   8.171   6.874   0.328 -0.2267  0.3678  0.7393
   65MOL0     C 8460   8.232   6.812   0.208  0.1967 -1.8591 -0.2131
   65MOL0     C 8461   8.215   6.659   0.227  0.5058 -0.3597  0.1344
   65MOL0     C 8462   8.289   6.593   0.106 -0.8751 -0.1517  0.6376
   65MOL0     C 8463   8.432   6.580   0.135  0.1115 -0.2315  0.0631
   65MOL0     C 8464   8.541   6.587   0.019 -0.5534  0.4844 -0.0561
   65MOL0     N 8465   8.679   6.534   0.051  0.2636 -0.3468 -1.1115
   65MOL0     C 8466   8.793   6.610   0.069 -0.3702 -0.6639  0.8792
   65MOL0     C 8467   8.896   6.522   0.101  1.1467 -0.6535 -0.4531
   65MOL0     C 8468   9.038   6.546   0.107 -0.2216 -1.1975  0.9461
   65MOL0     C 8469   9.089   6.634   0.225  1.2640  0.1323 -0.1166
   65MOL0     C 8470   9.218   6.716   0.187  1.1618 -0.4589 -0.6494
   65MOL0     C 8471   9.342   6.630   0.147 -0.2935  0.6902  0.2783
   65MOL0     O 8472   9.361   6.522   0.235 -0.3747 -0.7331 -0.4534
   65MOL0     C 8473   9.495   6.503   0.266  0.0045  0.3817  0.7743
   65MOL0     C 8474   9.595   6.503   0.163  0.3070  0.5553 -0.7156
   65MOL0     C 8475   9.731   6.501   0.209  0.7245 -0.5618 -0.3841
   65MOL0     C 8476   9.759   6.501   0.345 -0.2951 -0.1014 -0.1984
   65MOL0     C 8477   9.901   6.501   0.392  0.0432  0.2503 -0.4009
   65MOL0     O 8478   9.918   6.475   0.523  0.5348 -0.6440 -0.0694
   65MOL0     C 8479  10.045   6.480   0.573  0.3934  0.2862  0.1367
   65MOL0     C 8480  10.100   6.593   0.635  0.6489  0.2796 -0.9163
   65MOL0     C 8481  10.225   6.598   0.690  1.1291  0.6227  0.3046
   65MOL0     C 8482  10.308   6.485   0.685 -0.2957 -0.0693 -0.1655
   65MOL0     O 8483  10.443   6.476   0.715 -0.4763  0.0505  1.0290
   65MOL0     C 8484  10.512   6.591   0.772  0.4793  0.3278 -0.2416
   65MOL0     C 8485  10.662   6.580   0.760  0.2833 -0.7747  0.3598
   65MOL0     C 8486  10.741   6.695   0.827 -0.0283  0.4327  0.7209
   65MOL0     C 8487  10.705   6.839   0.794  0.2543 -0.9122  0.0639
   65MOL0     C 8488  10.790   6.945   0.865 -0.0693  0.0132  0.6615
   65MOL0     C 8489  10.782   7.097   0.828  0.7543 -0.2893 -0.0555
   65MOL0     C 8490  10.883   7.176   0.905  0.1130  0.1411 -1.2316
   65MOL0     C 8491  10.860   7.168   1.059 -0.3070 -0.2844  0.5183
   65MOL0    Cl 8492  10.707   7.224   1.109  0.7386 -0.6082  0.0066
   65MOL0     C 8493  10.252   6.372   0.629  0.2369  0.1332 -0.5179
   65MOL0     C 8494  10.125   6.366   0.579 -0.1302  0.0097  0.4410
   65MOL0     O 8495   9.988   6.519   0.304  0.1771 -1.3956 -0.0510
   65MOL0     C 8496   9.657   6.489   0.443  0.7565  0.0385  0.6706
   65MOL0     C 8497   9.525   6.490   0.403 -0.0576  0.5217 -0.2278
   65MOL0     N 8498   8.837   6.393   0.114  0.0960 -0.0816 -0.5051
   65MOL0     N 8499   8.714   6.399   0.069 -0.4310 -0.5595 -0.6486
   65MOL0     C 8500   7.758   7.045   0.551 -0.3265 -0.7040 -1.1693
   65MOL0     C 8501   7.659   7.097   0.639 -0.6094  0.3574 -1.3275
   65MOL0     C 8502   7.406   7.415   0.798 -0.3224 -0.3880  0.0443
   65MOL0     C 8503   7.301   7.491   0.718 -0.9581 -0.8488  0.1142
   65MOL0     C 8504   7.177   7.517   0.778  0.4001 -0.5863  0.1028
   65MOL0     C 8505   7.146   7.479   0.913 -0.9412 -0.6155 -0.5407
   65MOL0     O 8506   7.027   7.502   0.975  0.0084 -0.0678  0.6642
   65MOL0     C 8507   7.002   7.479   1.114 -0.2840  0.0700 -0.5422
   65MOL0     C 8508   6.850   7.507   1.149  0.8465  0.2320  1.1314
   65MOL0     C 8509   6.828   7.514   1.296  0.4526  0.2468 -0.2700
   65MOL0     C 8510   6.689   7.576   1.331 -0.1009  0.7210 -0.3244
   65MOL0     C 8511   6.571   7.492   1.333 -0.3221 -0.5410  0.5810
   65MOL0     C 8512   6.483   7.414   1.314 -0.1417 -0.4061  0.3716
   65MOL0     C 8513   7.252   7.419   0.980 -0.9653 -0.2288 -0.0997
   65MOL0     C 8514   7.380   7.399   0.936 -0.4868 -0.3894  0.4865
   65MOL0     H 8515   7.861   7.304   0.815  3.0177 -1.3631  1.2831
   65MOL0     H 8516   8.022   7.214   0.661  2.0678 -2.1167 -3.7519
   65MOL0     H 8517   8.165   7.056   0.553  0.6254  3.3146  1.5266
   65MOL0     H 8518   8.108   7.196   0.442 -2.8870  0.5204  2.9157
   65MOL0     H 8519   8.295   7.040   0.333  0.1245 -0.1307 -3.9559
   65MOL0     H 8520   8.136   7.071   0.252  0.4113  1.2919 -0.3727
   65MOL0     H 8521   8.064   6.851   0.333  0.1352 -1.1535  2.1370
   65MOL0     H 8522   8.215   6.837   0.421  1.9598 -0.1250 -0.4205
   65MOL0     H 8523   8.174   6.852   0.124 -0.1682  0.7693  1.1740
   65MOL0     H 8524   8.336   6.845   0.193 -0.7213  2.6152  1.7230
   65MOL0     H 8525   8.109   6.634   0.230  0.0213  1.2266 -1.7915
   65MOL0     H 8526   8.255   6.626   0.323  3.7774  0.6040 -0.7548
   65MOL0     H 8527   8.267   6.652   0.016 -0.0865 -2.8367 -1.4518
   65MOL0     H 8528   8.248   6.495   0.079  2.6980 -0.8290 -3.5256
   65MOL0     H 8529   8.454   6.657   0.209 -3.6017  1.8778 -0.7494
   65MOL0     H 8530   8.439   6.481   0.183 -2.5732 -0.1031  0.9035
   65MOL0     H 8531   8.552   6.683  -0.033  0.3410 -1.1533 -3.1038
   65MOL0     H 8532   8.503   6.518  -0.057  2.1585  2.1668 -3.2376
   65MOL0     H 8533   8.782   6.715   0.047 -5.4295 -1.1211  0.1018
   65MOL0     H 8534   9.065   6.602   0.016 -0.8238 -0.4085  1.2489
   65MOL0     H 8535   9.087   6.448   0.101  0.1544 -0.9266 -1.1368
   65MOL0     H 8536   9.089   6.586   0.323  1.6203 -0.8506 -0.5917
   65MOL0     H 8537   9.005   6.703   0.240 -0.9986 -2.5580  0.4998
   65MOL0     H 8538   9.191   6.782   0.104  1.8804 -2.7974 -2.8366
   65MOL0     H 8539   9.234   6.772   0.280  0.9205 -0.2164 -0.7525
   65MOL0     H 8540   9.427   6.696   0.128 -1.2627  1.3437 -2.1752
   65MOL0     H 8541   9.305   6.594   0.050 -3.3260  1.8292  0.9175
   65MOL0     H 8542   9.586   6.493   0.055 -0.3546  0.4081 -0.6474
   65MOL0     H 8543   9.806   6.513   0.131  2.5003 -1.5235  1.1036
   65MOL0     H 8544  10.039   6.683   0.637  1.4094  0.7957  0.0195
   65MOL0     H 8545  10.264   6.693   0.726  5.1514 -1.0368  0.9286
   65MOL0     H 8546  10.487   6.601   0.878 -0.3595  0.1849 -0.4185
   65MOL0     H 8547  10.476   6.684   0.727  1.4301  1.5642  1.4134
   65MOL0     H 8548  10.692   6.586   0.655 -1.5475  2.7957 -0.1220
   65MOL0     H 8549  10.696   6.482   0.795 -0.8092 -2.1231 -2.1144
   65MOL0     H 8550  10.847   6.685   0.802 -0.2332  1.9590 -0.8757
   65MOL0     H 8551  10.735   6.683   0.936 -2.0798  0.0148  0.5876
   65MOL0     H 8552  10.711   6.847   0.685  0.0427  1.3160  0.1658
   65MOL0     H 8553  10.599   6.857   0.814  0.5395  0.4686  0.4386
   65MOL0     H 8554  10.894   6.914   0.849  0.5555  2.1740  0.2542
   65MOL0     H 8555  10.754   6.935   0.967 -0.0204 -0.9084  0.5965
   65MOL0     H 8556  10.680   7.130   0.848  0.7709 -0.2657 -0.0041
   65MOL0     H 8557  10.793   7.123   0.723 -0.2592 -0.3356 -0.1815
   65MOL0     H 8558  10.983   7.133   0.887 -0.0388 -0.4567 -0.6596
   65MOL0     H 8559  10.881   7.281   0.873 -2.1257 -0.5536 -3.7837
   65MOL0     H 8560  10.936   7.218   1.120  0.2104  0.2546 -0.5324
   65MOL0     H 8561  10.856   7.063   1.089 -2.1579 -0.1136  0.9588
   65MOL0     H 8562  10.306   6.278   0.622  0.6754 -0.0629  3.3941
   65MOL0     H 8563  10.080   6.275   0.541 -2.3835  2.1956 -2.5951
   65MOL0     H 8564   9.672   6.493   0.550 -2.3460  1.2941  1.1731
   65MOL0     H 8565   9.450   6.491   0.481 -1.2912  0.9548 -1.3829
   65MOL0     H 8566   7.727   6.967   0.481  0.6528 -0.7972 -1.5099
   65MOL0     H 8567   7.558   7.058   0.631 -0.0315 -1.6358  0.3021
   65MOL0     H 8568   7.318   7.518   0.615  0.2454  2.3887  1.0168
   65MOL0     H 8569   7.098   7.564   0.719  0.3572 -0.5881  0.1586
   65MOL0     H 8570   7.049   7.552   1.180 -0.5768 -0.4986  0.3287
   65MOL0     H 8571   7.037   7.382   1.151 -0.7235 -0.2625 -0.9854
   65MOL0     H 8572   6.814   7.594   1.095 -1.5237 -1.7315 -0.6940
   65MOL0     H 8573   6.792   7.426   1.104 -4.3356  2.3465  3.2175
   65MOL0     H 8574   6.901   7.586   1.332 -1.7077  0.9931  3.0333
   65MOL0     H 8575   6.834   7.419   1.350 -1.2705  1.2758  1.8697
   65MOL0     H 8576   6.698   7.612   1.434 -3.7970 -0.4251  0.5757
   65MOL0     H 8577   6.665   7.659   1.264  3.2638  0.7701 -1.6332
   65MOL0     H 8578   6.403   7.343   1.308  3.8179 -5.6535  2.4914
   65MOL0     H 8579   7.239   7.383   1.081 -0.2078 -0.1071  0.0470
   65MOL0     H 8580   7.442   7.348   1.010 -2.4550 -2.1849  1.0127
   66MOL0     O 8581   3.725   5.202  10.188 -0.2876 -0.0150  0.1801
   66MOL0     C 8582   3.801   5.180  10.096 -0.6957  0.1896 -0.4015
   66MOL0     O 8583   3.924   5.243  10.073  0.9345  0.7109 -0.1041
   66MOL0     C 8584   3.977   5.332  10.158  0.3846 -0.1524 -0.3516
   66MOL0     C 8585   3.977   5.296  10.299  0.8219 -0.2742 -0.4462
   66MOL0     C 8586   4.018   5.392  10.389 -0.0168 -0.0570  0.0377
   66MOL0     C 8587   4.038   5.529  10.346  0.1291 -0.1157  0.0441
   66MOL0     O 8588   4.075   5.622  10.436  0.4968  0.1233 -0.4794
   66MOL0     C 8589   4.061   5.608  10.576  0.0983  0.0581 -0.2858
   66MOL0     C 8590   4.008   5.746  10.618  0.4344  0.3145  0.0356
   66MOL0     C 8591   4.125   5.858  10.638  0.5309 -0.7741 -0.8891
   66MOL0     C 8592   4.075   5.946  10.755  0.1056 -0.5253 -0.2654
   66MOL0     C 8593   4.170   6.060  10.778  0.0721  0.5958  0.0453
   66MOL0     C 8594   4.313   6.028  10.804 -1.0731 -0.6057  0.5225
   66MOL0     C 8595   4.402   6.149  10.834 -0.0449  0.4497  0.6513
   66MOL0     C 8596   4.554   6.113  10.848 -0.4349 -0.3242  0.4486
   66MOL0     N 8597   4.626   6.088  10.720 -0.2191 -0.6319 -0.6760
   66MOL0     C 8598   4.672   6.176  10.622 -0.3297  0.2178 -0.6981
   66MOL0     C 8599   4.736   6.090  10.539  1.0526 -0.3450 -0.2665
   66MOL0     C 8600   4.809   6.128  10.410  1.1697 -0.1409 -0.6695
   66MOL0     C 8601   4.708   6.163  10.290  0.0417  0.5404  0.5313
   66MOL0     C 8602   4.785   6.207  10.159 -0.4114 -0.7185  0.1262
   66MOL0     C 8603   4.873   6.328  10.162 -0.4478 -0.5502 -0.3920
   66MOL0     O 8604   4.794   6.448  10.135  0.2863  0.2856  0.4013
   66MOL0     C 8605   4.857   6.541  10.055 -0.1505  0.2007 -0.0310
   66MOL0     C 8606   4.975   6.602  10.097 -0.1657 -0.4906  0.0957
   66MOL0     C 8607   5.032   6.693  10.011 -0.8958  0.1217  0.4561
   66MOL0     C 8608   4.978   6.723   9.883 -0.2139 -0.0967  0.0048
   66MOL0     C 8609   5.056   6.814   9.790 -0.1983  0.4365  0.5118
   66MOL0     O 8610   5.134   6.919   9.844 -0.1099  0.8185 -0.6262
   66MOL0     C 8611   5.185   7.018   9.765 -0.5215  0.9728  0.0613
   66MOL0     C 8612   5.264   6.997   9.650  0.7706 -0.1540  0.8691
   66MOL0     C 8613   5.303   7.104   9.575 -0.3655 -0.2077  0.3012
   66MOL0     C 8614   5.271   7.240   9.614  0.2772  0.2461  0.3600
   66MOL0     O 8615   5.315   7.350   9.550  0.3674  0.6579 -0.2453
   66MOL0     C 8616   5.383   7.338   9.427 -0.2200  0.7344  0.6416
   66MOL0     C 8617   5.416   7.484   9.396  0.0733 -0.0752  0.4133
   66MOL0     C 8618   5.302   7.590   9.424 -0.1107  0.2072 -0.0924
   66MOL0     C 8619   5.169   7.556   9.370 -0.3079 -1.1110  0.2113
   66MOL0     C 8620   5.162   7.557   9.215  0.5124  0.5967  0.4045
   66MOL0     C 8621   5.161   7.696   9.154  0.6281  1.1533 -0.1049
   66MOL0     C 8622   5.198   7.666   9.005 -0.1859 -0.3368  0.7968
   66MOL0     C 8623   5.213   7.804   8.933  0.4875 -0.3951  0.8218
   66MOL0    Cl 8624   5.229   7.770   8.754  0.1080  0.6191  0.0880
   66MOL0     C 8625   5.204   7.252   9.736  0.4653 -0.5444 -0.5857
   66MOL0     C 8626   5.156   7.142   9.816 -0.6433  0.3849  0.6121
   66MOL0     O 8627   5.018   6.808   9.672  0.2027 -0.5395 -0.6123
   66MOL0     C 8628   4.855   6.663   9.844  0.4188  0.7427 -0.6573
   66MOL0     C 8629   4.789   6.573   9.937 -0.0309 -0.5343  0.7246
   66MOL0     N 8630   4.735   5.959  10.579 -0.7061  0.3787 -0.2373
   66MOL0     N 8631   4.671   5.966  10.694 -0.2622 -0.6176  0.5089
   66MOL0     C 8632   4.032   5.562  10.215  0.2061  0.0981  1.1949
   66MOL0     C 8633   4.000   5.465  10.116  0.4532  0.8863 -0.1291
   66MOL0     C 8634   3.763   5.079   9.989  0.4154 -0.4734 -0.3966
   66MOL0     C 8635   3.642   5.013   9.993  0.7452 -0.4751 -0.6547
   66MOL0     C 8636   3.605   4.920   9.890  0.5553 -0.4125  0.1560
   66MOL0     C 8637   3.700   4.875   9.793  0.3208 -0.4800 -0.1712
   66MOL0     O 8638   3.669   4.774   9.710 -0.7865 -0.2655  0.7023
   66MOL0     C 8639   3.731   4.775   9.580  0.4382  0.2298  0.8161
   66MOL0     C 8640   3.673   4.673   9.486  0.3858  0.7876 -0.9653
   66MOL0     C 8641   3.523   4.687   9.496  0.3251  0.3344  0.2364
   66MOL0     C 8642   3.445   4.621   9.383 -0.9095  0.8534 -0.0728
   66MOL0     C 8643   3.305   4.642   9.379  0.8611  0.3593 -0.3825
   66MOL0     C 8644   3.182   4.660   9.365 -0.9325 -0.7341  0.1919
   66MOL0     C 8645   3.827   4.937   9.797  1.5357  0.7957  0.2182
   66MOL0     C 8646   3.857   5.031   9.891  0.6759  0.0226 -0.2760
   66MOL0     H 8647   3.962   5.198  10.341  2.6962 -0.5735 -0.3559
   66MOL0     H 8648   4.041   5.349  10.486 -0.8208 -0.4208  0.0720
   66MOL0     H 8649   4.155   5.597  10.632 -0.2525  3.7985  1.3694
   66MOL0     H 8650   3.988   5.529  10.593  0.3601  0.0635  1.0259
   66MOL0     H 8651   3.948   5.736  10.708  0.4818 -1.3830 -0.0955
   66MOL0     H 8652   3.936   5.781  10.543 -0.9057 -0.5011  0.9043
   66MOL0     H 8653   4.153   5.914  10.549 -2.2302  1.7613 -0.3156
   66MOL0     H 8654   4.214   5.801  10.667  0.5531 -2.2672 -3.5944
   66MOL0     H 8655   3.975   5.987  10.735  0.4549 -0.4742 -2.1762
   66MOL0     H 8656   4.076   5.884  10.844 -0.3279 -3.0881 -1.9462
   66MOL0     H 8657   4.123   6.113  10.861 -0.6850  2.4887 -1.5367
   66MOL0     H 8658   4.175   6.133  10.697  0.6713  1.0345  0.4682
   66MOL0     H 8659   4.364   5.979  10.720 -0.4161  2.4673 -0.9959
   66MOL0     H 8660   4.319   5.967  10.895  0.2574 -1.7885 -0.3003
   66MOL0     H 8661   4.389   6.227  10.758 -1.2167  2.0520  2.4215
   66MOL0     H 8662   4.377   6.188  10.933  2.6089 -1.1968  2.0821
   66MOL0     H 8663   4.549   6.025  10.913  3.2716 -2.0071 -1.2472
   66MOL0     H 8664   4.608   6.197  10.892  1.0701 -0.0746 -1.7123
   66MOL0     H 8665   4.677   6.284  10.612  0.4129  0.3110  0.4595
   66MOL0     H 8666   4.871   6.040  10.394 -0.0558 -0.6807 -2.9070
   66MOL0     H 8667   4.866   6.220  10.428 -0.8924  1.5696 -2.3236
   66MOL0     H 8668   4.651   6.254  10.312  1.5862  2.3828 -2.4082
   66MOL0     H 8669   4.645   6.077  10.265  0.4076  0.1392  0.9678
   66MOL0     H 8670   4.842   6.123  10.116  0.5104 -1.0781  1.9621
   66MOL0     H 8671   4.704   6.231  10.090  0.9284 -0.7455 -1.5120
   66MOL0     H 8672   4.951   6.323  10.085 -0.6563  0.4874 -0.6915
   66MOL0     H 8673   4.929   6.336  10.256  4.1865 -1.0986 -2.8074
   66MOL0     H 8674   5.031   6.576  10.186 -3.0413 -2.5005  1.4842
   66MOL0     H 8675   5.124   6.735  10.052 -2.1407  2.4076  1.1051
   66MOL0     H 8676   5.302   6.896   9.641  0.8341 -0.2823  2.3144
   66MOL0     H 8677   5.367   7.096   9.487 -1.1671  0.8430 -0.3851
   66MOL0     H 8678   5.319   7.296   9.349  1.1936 -1.0122  0.3442
   66MOL0     H 8679   5.471   7.273   9.433 -1.4798 -1.0254  0.5208
   66MOL0     H 8680   5.442   7.495   9.290  0.4607  2.3587  0.7093
   66MOL0     H 8681   5.502   7.512   9.457 -2.2995  4.0353  2.3132
   66MOL0     H 8682   5.335   7.685   9.383  1.1153 -0.2411 -0.1791
   66MOL0     H 8683   5.294   7.606   9.532 -2.9125 -2.6118  0.2848
   66MOL0     H 8684   5.139   7.454   9.396 -0.5987 -0.9597  0.4722
   66MOL0     H 8685   5.091   7.618   9.416  0.5809 -0.9637  1.5648
   66MOL0     H 8686   5.072   7.507   9.180 -0.4426  2.8731 -0.5578
   66MOL0     H 8687   5.250   7.505   9.175  0.8275  0.9606  0.6102
   66MOL0     H 8688   5.234   7.757   9.208  1.7605  3.0622 -3.4428
   66MOL0     H 8689   5.064   7.746   9.158 -1.3250 -2.2691 -1.1895
   66MOL0     H 8690   5.285   7.600   8.993 -1.8229 -2.2804 -1.0431
   66MOL0     H 8691   5.124   7.609   8.949 -0.2689  1.3214 -0.9235
   66MOL0     H 8692   5.306   7.857   8.956 -0.6914  1.7996  0.8069
   66MOL0     H 8693   5.135   7.877   8.957 -0.5621 -0.7874 -1.1302
   66MOL0     H 8694   5.174   7.350   9.772  2.5946  0.2516 -0.8270
   66MOL0     H 8695   5.106   7.149   9.912 -0.8002 -0.0901  0.5673
   66MOL0     H 8696   4.815   6.673   9.744  0.7145  0.5323 -0.7988
   66MOL0     H 8697   4.700   6.530   9.893 -0.1961  1.0564 -0.5494
   66MOL0     H 8698   4.045   5.662  10.174  3.6999 -0.7068 -0.0492
   66MOL0     H 8699   3.980   5.486  10.011 -2.3634 -0.2531  0.0912
   66MOL0     H 8700   3.571   5.024  10.075  0.5748 -2.7216 -0.4521
   66MOL0     H 8701   3.508   4.870   9.886  1.8935 -3.0903 -2.0044
   66MOL0     H 8702   3.836   4.744   9.586  0.5189 -0.4969 -2.3789
   66MOL0     H 8703   3.720   4.875   9.537 -0.3095 -0.9536 -1.9599
   66MOL0     H 8704   3.712   4.693   9.386  0.8823  1.5204 -0.6357
   66MOL0     H 8705   3.705   4.575   9.523 -0.2750  2.3514  4.8462
   66MOL0     H 8706   3.502   4.795   9.492  2.3625  0.7625 -0.3664
   66MOL0     H 8707   3.492   4.649   9.594  2.5643  2.0558  1.7279
   66MOL0     H 8708   3.479   4.662   9.288  0.6865  3.5514  1.5277
   66MOL0     H 8709   3.477   4.516   9.389  0.5980  1.1991 -1.5525
   66MOL0     H 8710   3.080   4.685   9.344 -0.4876  1.7056  0.5646
   66MOL0     H 8711   3.898   4.896   9.727 -0.5113 -0.5679 -1.1481
   66MOL0     H 8712   3.960   5.064   9.893  1.2862 -1.6984 -0.9014
   67MOL0     O 8713   0.843   2.232   6.135 -0.7616 -0.2653  0.0545
   67MOL0     C 8714   0.925   2.176   6.208  0.3443  0.2291 -0.0340
   67MOL0     O 8715   1.037   2.241   6.254  0.4166  0.9549 -0.2321
   67MOL0     C 8716   1.087   2.356   6.196  0.6393  0.6209 -1.2013
   67MOL0     C 8717   1.115   2.357   6.061  0.4995  0.0617 -0.2081
   67MOL0     C 8718   1.140   2.481   6.000 -0.5134  0.4013  0.3244
   67MOL0     C 8719   1.158   2.597   6.073 -0.6250 -0.1689 -0.1860
   67MOL0     O 8720   1.215   2.714   6.022 -0.2894 -0.3606 -0.2094
   67MOL0     C 8721   1.199   2.837   6.091  0.7383  0.5038  0.7923
   67MOL0     C 8722   1.312   2.875   6.181  0.2010 -0.4191  0.4914
   67MOL0     C 8723   1.354   3.017   6.173  0.6453 -0.5587 -0.5639
   67MOL0     C 8724   1.482   3.038   6.255  0.1996  0.6569 -1.1413
   67MOL0     C 8725   1.528   3.180   6.261 -0.0709 -0.5462  0.2655
   67MOL0     C 8726   1.436   3.274   6.342  1.4700  0.1378  1.0503
   67MOL0     C 8727   1.486   3.419   6.324  0.4153  0.1990  0.7224
   67MOL0     C 8728   1.378   3.526   6.351 -0.3605  1.3385  1.2392
   67MOL0     N 8729   1.332   3.530   6.491  0.1395  0.5672  0.1210
   67MOL0     C 8730   1.399   3.514   6.609 -0.7829  0.5417 -0.6294
   67MOL0     C 8731   1.312   3.534   6.708 -0.1272 -0.0797  0.6635
   67MOL0     C 8732   1.339   3.524   6.856  1.1097 -0.0252 -0.0593
   67MOL0     C 8733   1.254   3.622   6.931 -0.0162  0.2002 -0.4780
   67MOL0     C 8734   1.286   3.608   7.088  0.0722  0.4440  0.6255
   67MOL0     C 8735   1.199   3.709   7.161 -0.6127 -0.3579 -0.4926
   67MOL0     O 8736   1.223   3.686   7.298 -0.5257  0.2113 -0.5988
   67MOL0     C 8737   1.129   3.737   7.384 -0.3448  0.1160  0.6808
   67MOL0     C 8738   1.041   3.843   7.347 -0.3790 -0.9435  0.4369
   67MOL0     C 8739   0.952   3.904   7.440  0.2095 -0.3075 -0.9728
   67MOL0     C 8740   0.950   3.847   7.573 -0.6889  0.6564 -0.0954
   67MOL0     C 8741   0.856   3.899   7.672  0.4164  0.8759 -0.1248
   67MOL0     O 8742   0.813   3.796   7.764  0.6329 -0.5922 -0.5990
   67MOL0     C 8743   0.740   3.812   7.881  0.0663 -0.2331 -0.1117
   67MOL0     C 8744   0.716   3.939   7.946 -0.5323  0.9684 -0.2716
   67MOL0     C 8745   0.645   3.953   8.059  0.9614 -1.1107  0.3990
   67MOL0     C 8746   0.591   3.844   8.124  0.0719  0.4809 -0.5013
   67MOL0     O 8747   0.533   3.838   8.247 -0.0386 -0.3171 -0.0064
   67MOL0     C 8748   0.505   3.962   8.319  0.3751  0.5706  0.4749
   67MOL0     C 8749   0.408   3.945   8.427  0.1744  0.2113 -0.7992
   67MOL0     C 8750   0.262   3.918   8.368 -0.4699  0.0188 -0.2880
   67MOL0     C 8751   0.149   3.922   8.476  0.9354 -0.5151 -1.9965
   67MOL0     C 8752   0.174   3.825   8.593 -0.0884  0.1733 -0.0031
   67MOL0     C 8753   0.054   3.821   8.693  0.7963  0.7458 -0.0219
   67MOL0     C 8754   0.097   3.727   8.805 -0.0433  1.0073  0.0918
   67MOL0     C 8755   0.056   3.584   8.761 -0.1562  1.1014 -0.2221
   67MOL0    Cl 8756   0.108   3.449   8.874 -0.1161  0.2461 -0.2074
   67MOL0     C 8757   0.620   3.715   8.064  0.5002 -0.4314 -0.0946
   67MOL0     C 8758   0.684   3.703   7.940  0.4415  0.2238  0.1802
   67MOL0     O 8759   0.821   4.013   7.675  0.7440  0.1606  0.7974
   67MOL0     C 8760   1.028   3.730   7.600  0.8846  0.1175  0.1898
   67MOL0     C 8761   1.125   3.684   7.513  0.7877  0.0934 -0.5796
   67MOL0     N 8762   1.193   3.576   6.650 -0.1769 -0.6158  0.5665
   67MOL0     N 8763   1.203   3.564   6.520  0.4256  0.4900  0.5392
   67MOL0     C 8764   1.149   2.580   6.209 -0.1207  0.6849 -0.8892
   67MOL0     C 8765   1.103   2.468   6.280 -1.1171 -0.2623 -0.5190
   67MOL0     C 8766   0.899   2.035   6.252 -0.5177  0.3423  0.0127
   67MOL0     C 8767   0.995   1.952   6.316  1.3022 -1.5382  0.8335
   67MOL0     C 8768   0.963   1.822   6.357  0.4856 -0.2078 -0.5870
   67MOL0     C 8769   0.837   1.763   6.336  0.7896  0.1865  0.3548
   67MOL0     O 8770   0.811   1.635   6.383 -0.6723  1.4019 -0.3485
   67MOL0     C 8771   0.681   1.581   6.364  0.3350  0.6582 -0.0131
   67MOL0     C 8772   0.664   1.431   6.400  0.4957  0.1508 -0.6519
   67MOL0     C 8773   0.789   1.345   6.373 -0.8232  0.8485 -0.7223
   67MOL0     C 8774   0.798   1.198   6.439  0.4844  0.2029  0.6385
   67MOL0     C 8775   0.710   1.103   6.359 -0.0260  0.0094  0.3486
   67MOL0     C 8776   0.637   1.029   6.289 -0.5399  0.1773 -0.7482
   67MOL0     C 8777   0.741   1.840   6.267  0.0367  0.6989  1.1539
   67MOL0     C 8778   0.774   1.971   6.220  0.0239  0.7860  0.5079
   67MOL0     H 8779   1.099   2.269   6.000 -4.1470 -0.3425  1.2041
   67MOL0     H 8780   1.148   2.496   5.892 -0.5214 -1.1950  0.0765
   67MOL0     H 8781   1.101   2.834   6.139  1.2207 -1.9285  1.7389
   67MOL0     H 8782   1.209   2.909   6.009  1.6736 -0.7306 -0.2214
   67MOL0     H 8783   1.398   2.820   6.142  1.6251  2.8018 -1.3560
   67MOL0     H 8784   1.291   2.840   6.282  0.2235 -0.0162  0.6385
   67MOL0     H 8785   1.266   3.070   6.212 -0.6612 -1.2055 -2.4925
   67MOL0     H 8786   1.363   3.052   6.070  2.7349  1.2656  0.1448
   67MOL0     H 8787   1.465   3.012   6.360  2.8507 -1.3052 -1.1008
   67MOL0     H 8788   1.560   2.979   6.208  0.1120 -1.6105  1.3730
   67MOL0     H 8789   1.540   3.222   6.160 -2.8540 -1.1210 -0.3781
   67MOL0     H 8790   1.623   3.183   6.316 -1.3868  2.8430  2.6773
   67MOL0     H 8791   1.451   3.241   6.445  2.5940  1.7130  1.4340
   67MOL0     H 8792   1.331   3.274   6.311  1.2043 -1.1815  1.8892
   67MOL0     H 8793   1.565   3.420   6.399  1.4663 -3.1510 -0.1949
   67MOL0     H 8794   1.516   3.433   6.220 -3.2449  3.1159 -0.1549
   67MOL0     H 8795   1.298   3.506   6.278  0.7764  2.1197 -0.2732
   67MOL0     H 8796   1.429   3.612   6.306  0.9594  0.6318  1.3275
   67MOL0     H 8797   1.496   3.468   6.621 -0.9516  0.7438  2.0395
   67MOL0     H 8798   1.444   3.551   6.872  1.2270 -0.8533  0.7129
   67MOL0     H 8799   1.330   3.422   6.895  0.0627  0.2405  0.4475
   67MOL0     H 8800   1.148   3.599   6.917 -0.4715  2.2310 -0.5951
   67MOL0     H 8801   1.276   3.726   6.907  0.6380  0.5448  1.4349
   67MOL0     H 8802   1.258   3.508   7.121 -1.4205  0.6026 -0.0654
   67MOL0     H 8803   1.395   3.609   7.100  0.2484  0.9476 -0.7496
   67MOL0     H 8804   1.092   3.702   7.140 -1.0660  3.2473  0.0366
   67MOL0     H 8805   1.225   3.811   7.132 -1.7044 -0.8515 -3.5435
   67MOL0     H 8806   1.025   3.883   7.247 -0.2095  0.1235  0.8215
   67MOL0     H 8807   0.891   3.992   7.418  1.9066  1.4873  1.0194
   67MOL0     H 8808   0.738   4.026   7.886  1.9530 -1.1943 -2.7617
   67MOL0     H 8809   0.619   4.053   8.090 -0.9355 -0.5511 -2.5270
   67MOL0     H 8810   0.462   4.037   8.253 -3.7564 -0.3333  1.8180
   67MOL0     H 8811   0.599   3.997   8.361  2.0016  0.5963 -2.8813
   67MOL0     H 8812   0.408   4.042   8.478 -2.5845 -0.0410 -0.1432
   67MOL0     H 8813   0.435   3.866   8.498  1.5218  3.0978  2.1183
   67MOL0     H 8814   0.254   3.818   8.324 -2.9024  0.5472 -1.1774
   67MOL0     H 8815   0.251   3.995   8.291 -1.4744 -1.7835 -2.0164
   67MOL0     H 8816   0.140   4.023   8.518  2.1846 -1.3219  0.3706
   67MOL0     H 8817   0.057   3.886   8.430  0.7992 -0.9824 -1.3693
   67MOL0     H 8818   0.259   3.860   8.653 -1.4717 -1.3693  3.1274
   67MOL0     H 8819   0.192   3.719   8.571  1.0661  0.1077  1.1645
   67MOL0     H 8820  -0.021   3.768   8.634  1.6030 -0.0641 -0.3338
   67MOL0     H 8821   0.014   3.919   8.721 -0.5688  0.2500 -0.1385
   67MOL0     H 8822   0.202   3.724   8.836  0.3603 -1.9666 -1.1859
   67MOL0     H 8823   0.047   3.764   8.896 -0.9017 -1.2160  0.5943
   67MOL0     H 8824   0.098   3.559   8.664 -0.0198  0.9745 -0.1288
   67MOL0     H 8825  -0.053   3.589   8.750 -0.1537  0.8674 -0.3517
   67MOL0     H 8826   0.571   3.625   8.101 -0.1121  0.1342  0.5028
   67MOL0     H 8827   0.682   3.610   7.884 -1.7813  0.0433  0.4719
   67MOL0     H 8828   1.012   3.693   7.701  0.5580  1.7432  0.7604
   67MOL0     H 8829   1.184   3.598   7.543 -2.4037 -2.1813 -0.3235
   67MOL0     H 8830   1.163   2.667   6.273 -1.6657  1.3397 -1.3979
   67MOL0     H 8831   1.093   2.467   6.388 -2.6058 -0.1905 -0.6268
   67MOL0     H 8832   1.092   1.998   6.331  1.0316  1.1492 -3.9169
   67MOL0     H 8833   1.038   1.761   6.407  0.2128 -2.7241 -2.9871
   67MOL0     H 8834   0.646   1.590   6.261 -2.5223 -2.3784  0.5249
   67MOL0     H 8835   0.606   1.642   6.416 -1.0706 -1.3830  0.4863
   67MOL0     H 8836   0.642   1.434   6.507 -0.3644 -1.8506 -0.7146
   67MOL0     H 8837   0.574   1.387   6.354  2.1389 -1.1079 -2.8399
   67MOL0     H 8838   0.885   1.390   6.401 -0.9556  1.0524 -0.5948
   67MOL0     H 8839   0.802   1.333   6.265 -2.8816  0.2639 -0.9477
   67MOL0     H 8840   0.904   1.173   6.431  0.3720 -0.8990  2.1167
   67MOL0     H 8841   0.777   1.201   6.546  0.0611 -3.1228  0.7596
   67MOL0     H 8842   0.574   0.963   6.233 -1.8395  1.5688 -1.0112
   67MOL0     H 8843   0.642   1.809   6.236 -0.7109  3.1598  0.8194
   67MOL0     H 8844   0.701   2.024   6.160  0.3832  0.3938 -0.2859
   68MOL0     O 8845   6.627   9.390   5.804 -0.9421  0.9932  0.6609
   68MOL0     C 8846   6.704   9.447   5.723  0.6822 -0.2382 -0.4125
   68MOL0     O 8847   6.838   9.467   5.737  0.7729  0.7909 -0.2675
   68MOL0     C 8848   6.906   9.431   5.850 -1.2474  0.8135 -0.2945
   68MOL0     C 8849   7.026   9.495   5.858 -0.9463  0.2865 -0.4287
   68MOL0     C 8850   7.118   9.472   5.958 -0.8446 -0.3218 -0.2748
   68MOL0     C 8851   7.086   9.392   6.065  0.9561  0.0815 -0.2249
   68MOL0     O 8852   7.155   9.344   6.173 -0.4644 -0.0579 -0.0609
   68MOL0     C 8853   7.283   9.411   6.179  0.1136 -0.9178 -0.9211
   68MOL0     C 8854   7.340   9.378   6.315 -0.4317 -0.3413  0.9451
   68MOL0     C 8855   7.495   9.377   6.328  0.5743  0.2108 -0.2384
   68MOL0     C 8856   7.554   9.260   6.241  0.7652  0.2974  0.6634
   68MOL0     C 8857   7.701   9.236   6.289 -0.0370 -0.5750  0.1542
   68MOL0     C 8858   7.714   9.165   6.426 -0.2441  0.4024  0.1792
   68MOL0     C 8859   7.862   9.120   6.464  0.4154  0.0940  0.2683
   68MOL0     C 8860   7.985   9.192   6.407 -0.6387  0.6906  1.1214
   68MOL0     N 8861   8.118   9.128   6.435  0.3118  0.1910  0.4225
   68MOL0     C 8862   8.166   9.067   6.553 -0.3255  0.0515 -0.0719
   68MOL0     C 8863   8.272   8.999   6.510 -0.2290  0.2286 -0.7633
   68MOL0     C 8864   8.367   8.907   6.582 -0.7333  0.2518  0.5227
   68MOL0     C 8865   8.421   8.974   6.704  0.4664 -0.8350 -0.5459
   68MOL0     C 8866   8.472   8.894   6.821 -0.9043  0.4484 -0.6354
   68MOL0     C 8867   8.601   8.806   6.779  0.1076 -0.2777 -0.6373
   68MOL0     O 8868   8.572   8.678   6.724  0.0682  0.5380  0.1894
   68MOL0     C 8869   8.662   8.584   6.749  0.6878  0.5806 -0.1658
   68MOL0     C 8870   8.624   8.455   6.765 -0.3734  0.7617 -0.4835
   68MOL0     C 8871   8.718   8.355   6.808 -0.1766 -0.2918  0.9802
   68MOL0     C 8872   8.854   8.382   6.819  0.0200 -0.5330  0.4481
   68MOL0     C 8873   8.958   8.273   6.857  0.1674  0.1032 -0.4612
   68MOL0     O 8874   8.910   8.146   6.863  0.7676  0.2593 -1.0368
   68MOL0     C 8875   9.005   8.052   6.894  0.1329  0.2365 -0.0381
   68MOL0     C 8876   9.131   8.034   6.840 -1.5068  0.1433 -0.3276
   68MOL0     C 8877   9.219   7.940   6.900 -0.4438 -0.0287 -1.0645
   68MOL0     C 8878   9.187   7.858   7.010  0.7049 -0.0185 -0.5053
   68MOL0     O 8879   9.281   7.789   7.074  0.4817  0.8543  0.1320
   68MOL0     C 8880   9.410   7.845   7.078  0.1870 -0.2012  1.1351
   68MOL0     C 8881   9.475   7.798   7.208 -0.1024 -0.0449 -0.5495
   68MOL0     C 8882   9.493   7.641   7.212 -0.6127 -0.0860 -0.1039
   68MOL0     C 8883   9.560   7.598   7.347 -0.3142  0.5535  0.4199
   68MOL0     C 8884   9.580   7.448   7.362  0.1258  0.6376 -1.2036
   68MOL0     C 8885   9.662   7.398   7.478  0.2143  0.4238  0.5605
   68MOL0     C 8886   9.581   7.392   7.603 -0.3467 -0.3109 -0.4369
   68MOL0     C 8887   9.666   7.375   7.729 -0.0564 -0.2822 -0.2960
   68MOL0    Cl 8888   9.555   7.377   7.870 -0.3024 -0.0975 -0.3593
   68MOL0     C 8889   9.058   7.868   7.057  0.5260 -0.4815 -0.2599
   68MOL0     C 8890   8.968   7.969   7.008 -1.5607 -0.2989  0.2232
   68MOL0     O 8891   9.070   8.313   6.892  0.9476 -0.1002  0.1728
   68MOL0     C 8892   8.883   8.512   6.793 -0.2988  0.6222  1.0100
   68MOL0     C 8893   8.795   8.610   6.752  0.1645 -0.1811  0.8159
   68MOL0     N 8894   8.295   9.033   6.378  0.0208  0.3290 -0.4954
   68MOL0     N 8895   8.212   9.118   6.345  0.4949 -1.0685  0.0524
   68MOL0     C 8896   6.962   9.326   6.057  0.7422 -0.7382  0.5375
   68MOL0     C 8897   6.865   9.345   5.954  0.3883  0.1954 -0.1364
   68MOL0     C 8898   6.631   9.512   5.608  0.3307  0.0493 -0.4505
   68MOL0     C 8899   6.707   9.585   5.507 -1.5777  0.0524  0.2174
   68MOL0     C 8900   6.646   9.651   5.402  0.8429 -0.4367  0.1213
   68MOL0     C 8901   6.510   9.636   5.387  1.0591 -0.3350  0.9816
   68MOL0     O 8902   6.450   9.688   5.264 -0.1821  0.8950  0.1890
   68MOL0     C 8903   6.521   9.769   5.170 -0.2915  0.5906  0.3844
   68MOL0     C 8904   6.484   9.912   5.198 -0.5283  0.2526  0.0564
   68MOL0     C 8905   6.562   9.995   5.098 -0.5726  0.1314  0.5206
   68MOL0     C 8906   6.568  10.143   5.120 -0.0222 -0.5006  0.5244
   68MOL0     C 8907   6.588  10.202   5.260 -0.0964 -0.2085  0.3810
   68MOL0     C 8908   6.585  10.230   5.375 -0.2947 -1.5087  0.5405
   68MOL0     C 8909   6.431   9.558   5.474  0.0673  1.0794  0.3480
   68MOL0     C 8910   6.491   9.499   5.584  0.2642 -0.9144 -0.1978
   68MOL0     H 8911   7.050   9.572   5.786 -1.5001  2.0684  1.2025
   68MOL0     H 8912   7.208   9.531   5.941  0.0876 -2.2888 -2.7897
   68MOL0     H 8913   7.286   9.519   6.167  0.4832 -1.1443 -3.5703
   68MOL0     H 8914   7.341   9.370   6.096  0.5040  0.3276 -1.2805
   68MOL0     H 8915   7.298   9.284   6.351  1.6682 -1.3487  0.9225
   68MOL0     H 8916   7.304   9.466   6.369 -0.1907  1.2535 -1.3525
   68MOL0     H 8917   7.520   9.368   6.434  0.5774 -0.6589 -0.3019
   68MOL0     H 8918   7.520   9.477   6.291 -0.8998  1.8875  2.9010
   68MOL0     H 8919   7.503   9.164   6.253  2.6268 -0.6918  0.9433
   68MOL0     H 8920   7.551   9.281   6.134  0.3113  0.5457  0.7204
   68MOL0     H 8921   7.756   9.331   6.295  0.3862 -0.8728  1.1776
   68MOL0     H 8922   7.733   9.168   6.209 -0.6455  0.9082 -1.4257
   68MOL0     H 8923   7.653   9.074   6.417  0.2194  0.0569  0.4779
   68MOL0     H 8924   7.667   9.229   6.501  1.9028  1.7038  0.4932
   68MOL0     H 8925   7.860   9.111   6.573  0.8353 -2.9400  0.1299
   68MOL0     H 8926   7.880   9.020   6.423 -0.6680  0.5860 -1.4902
   68MOL0     H 8927   7.977   9.294   6.445  2.9578  1.0255  1.3202
   68MOL0     H 8928   7.968   9.190   6.299 -2.0739 -0.3204  1.3348
   68MOL0     H 8929   8.106   9.067   6.644 -0.2569  0.0754 -0.0266
   68MOL0     H 8930   8.446   8.876   6.513 -3.0913 -2.1506 -1.3049
   68MOL0     H 8931   8.312   8.816   6.608 -0.1338 -0.3250 -0.1689
   68MOL0     H 8932   8.351   9.050   6.736  0.9308  0.8604 -3.2036
   68MOL0     H 8933   8.509   9.027   6.666  0.4726 -0.2817  0.2331
   68MOL0     H 8934   8.499   8.959   6.905  1.8257 -0.8817 -0.3675
   68MOL0     H 8935   8.398   8.828   6.865  0.7889 -1.1804 -0.0859
   68MOL0     H 8936   8.667   8.791   6.865 -1.8249 -0.5550  0.8867
   68MOL0     H 8937   8.643   8.865   6.697 -0.4069 -1.4806 -1.8051
   68MOL0     H 8938   8.527   8.409   6.748  0.0978  0.0266 -1.3141
   68MOL0     H 8939   8.688   8.255   6.837 -3.2334  0.6591  1.4020
   68MOL0     H 8940   9.167   8.090   6.755 -0.8567 -1.9994 -1.5558
   68MOL0     H 8941   9.319   7.932   6.859  0.6917  2.2031  1.0005
   68MOL0     H 8942   9.419   7.954   7.072  3.0058 -0.3322  1.5511
   68MOL0     H 8943   9.468   7.804   6.994  0.5718  2.3093  0.0726
   68MOL0     H 8944   9.410   7.831   7.290 -1.3701  0.2504 -1.6325
   68MOL0     H 8945   9.573   7.845   7.223 -1.3810  3.1108 -1.1447
   68MOL0     H 8946   9.565   7.607   7.137  0.1932  1.5490 -0.1001
   68MOL0     H 8947   9.392   7.602   7.194 -0.5859  0.2792 -1.0906
   68MOL0     H 8948   9.658   7.648   7.343 -1.1325  2.5865  3.0361
   68MOL0     H 8949   9.514   7.644   7.435 -0.8505  2.7167 -0.9084
   68MOL0     H 8950   9.632   7.403   7.276  1.1924  1.1221 -0.8235
   68MOL0     H 8951   9.483   7.400   7.377  1.3077 -1.3285  0.7932
   68MOL0     H 8952   9.751   7.461   7.487  1.8338 -1.2225 -2.4460
   68MOL0     H 8953   9.707   7.299   7.471 -0.2793  0.1734  0.8723
   68MOL0     H 8954   9.537   7.492   7.615 -1.0853 -0.4980 -1.3963
   68MOL0     H 8955   9.504   7.315   7.601 -0.0158 -0.6378 -0.6064
   68MOL0     H 8956   9.743   7.453   7.736 -1.1679  0.8323  0.0098
   68MOL0     H 8957   9.704   7.273   7.729  0.2537 -0.1681  0.2019
   68MOL0     H 8958   9.031   7.797   7.136  0.2973 -1.3777 -1.1217
   68MOL0     H 8959   8.868   7.973   7.049 -1.3439 -0.6526  0.7948
   68MOL0     H 8960   8.981   8.559   6.796  0.2795 -0.3932 -0.5971
   68MOL0     H 8961   8.824   8.710   6.722 -0.3719 -0.2535  0.0272
   68MOL0     H 8962   6.961   9.243   6.127  0.7318 -2.0874 -0.9894
   68MOL0     H 8963   6.766   9.300   5.951 -0.5923  2.2988 -1.7622
   68MOL0     H 8964   6.812   9.597   5.531 -1.8031  0.2897  1.1478
   68MOL0     H 8965   6.702   9.730   5.354  0.1317 -0.0699 -0.1260
   68MOL0     H 8966   6.481   9.746   5.071  0.9519  1.6915 -0.4192
   68MOL0     H 8967   6.630   9.764   5.169 -0.1189  2.9802 -0.9740
   68MOL0     H 8968   6.375   9.909   5.187 -0.9424  2.8302  2.2189
   68MOL0     H 8969   6.506   9.924   5.304 -2.1817  1.9739  0.2685
   68MOL0     H 8970   6.540   9.963   4.995  0.7835 -2.9996  1.1043
   68MOL0     H 8971   6.666   9.963   5.109 -0.2461  1.0235  0.1922
   68MOL0     H 8972   6.646  10.186   5.057 -1.6073 -0.1627 -1.2955
   68MOL0     H 8973   6.476  10.188   5.082 -0.1783 -0.8474  0.4856
   68MOL0     H 8974   6.582  10.273   5.473  1.3392  0.5107 -0.2075
   68MOL0     H 8975   6.325   9.548   5.453  0.7067 -4.1897 -1.7993
   68MOL0     H 8976   6.431   9.425   5.636 -3.2410  1.7239 -0.1358
   69MOL0     O 8977   4.491   6.689   1.757  0.4449 -0.0411 -0.1308
   69MOL0     C 8978   4.441   6.766   1.676  0.5094 -0.8196  0.3399
   69MOL0     O 8979   4.493   6.892   1.632  0.4985 -0.0351 -0.1333
   69MOL0     C 8980   4.613   6.938   1.672 -0.1461  0.0616  0.4351
   69MOL0     C 8981   4.625   6.996   1.800  0.1150 -0.1511  0.2054
   69MOL0     C 8982   4.751   7.053   1.838  0.1281 -0.3560  0.3455
   69MOL0     C 8983   4.860   7.060   1.751 -0.5497 -0.8751  0.4291
   69MOL0     O 8984   4.980   7.112   1.785 -0.6661 -1.5693 -0.2767
   69MOL0     C 8985   5.032   7.052   1.902 -0.3112 -0.3856 -0.1165
   69MOL0     C 8986   5.187   7.037   1.872  0.1713  0.3892 -0.0707
   69MOL0     C 8987   5.261   7.170   1.887  0.9458  0.1156 -0.1686
   69MOL0     C 8988   5.411   7.152   1.875  0.0760  0.0913  0.5176
   69MOL0     C 8989   5.469   7.283   1.819  0.2312  0.0592  0.1458
   69MOL0     C 8990   5.624   7.269   1.796 -0.2683  0.3049 -0.2093
   69MOL0     C 8991   5.673   7.339   1.665  0.4316 -0.5847 -0.8589
   69MOL0     C 8992   5.642   7.279   1.534  0.4383  0.0899  0.4955
   69MOL0     N 8993   5.722   7.157   1.510  0.6027 -0.4272  1.0526
   69MOL0     C 8994   5.857   7.144   1.505 -0.0375 -0.2621  0.4258
   69MOL0     C 8995   5.882   7.010   1.506  0.8347 -0.7027 -0.9129
   69MOL0     C 8996   6.021   6.943   1.495 -0.1671 -0.0187  0.4616
   69MOL0     C 8997   6.108   7.022   1.403 -0.4493  0.5331 -0.8872
   69MOL0     C 8998   6.064   7.038   1.251 -0.6625 -0.0872 -0.5316
   69MOL0     C 8999   6.154   7.154   1.189  0.0246  0.2957 -0.6996
   69MOL0     O 9000   6.120   7.279   1.256 -0.4283  0.6128  0.7991
   69MOL0     C 9001   6.052   7.374   1.183 -1.5968  0.2069  0.6513
   69MOL0     C 9002   5.939   7.427   1.226 -0.5136 -0.2119 -0.8280
   69MOL0     C 9003   5.873   7.534   1.159  0.1399 -0.0593 -0.6341
   69MOL0     C 9004   5.937   7.609   1.057  0.0230  0.5716  0.4987
   69MOL0     C 9005   5.867   7.719   0.987  0.4537  0.9075  0.2504
   69MOL0     O 9006   5.945   7.818   0.935  0.4022 -0.2822 -0.7572
   69MOL0     C 9007   5.898   7.882   0.824 -0.2210 -0.5827  0.4265
   69MOL0     C 9008   5.909   7.843   0.693  0.4154  0.7387  0.2828
   69MOL0     C 9009   5.868   7.924   0.590 -0.4428 -0.0135 -0.3010
   69MOL0     C 9010   5.806   8.050   0.617 -0.1411 -0.4770 -0.5308
   69MOL0     O 9011   5.748   8.136   0.522 -0.0012 -0.3819 -0.0324
   69MOL0     C 9012   5.731   8.103   0.378  0.1681  0.4592  0.0278
   69MOL0     C 9013   5.867   8.149   0.306 -0.4466 -0.0046 -0.3089
   69MOL0     C 9014   5.912   8.291   0.349  0.0882  0.2235 -0.6547
   69MOL0     C 9015   5.854   8.413   0.275  0.0576 -0.0179  0.0714
   69MOL0     C 9016   5.908   8.437   0.133  0.5607 -0.2111  0.5308
   69MOL0     C 9017   5.876   8.574   0.090 -0.4541 -0.1369 -0.3584
   69MOL0     C 9018   5.731   8.633   0.090 -0.6916  0.3684 -0.0407
   69MOL0     C 9019   5.732   8.784   0.049  0.7915  0.0626 -0.8924
   69MOL0    Cl 9020   5.575   8.852   0.077  0.1446 -0.2002 -0.0464
   69MOL0     C 9021   5.793   8.086   0.753  0.0257 -0.2812  0.4875
   69MOL0     C 9022   5.840   8.007   0.853  0.3291  0.2596 -0.6774
   69MOL0     O 9023   5.750   7.724   0.993  0.1384  0.3202  0.2253
   69MOL0     C 9024   6.061   7.558   1.007  0.5346  1.1607 -0.2996
   69MOL0     C 9025   6.115   7.447   1.072  0.0860  0.6015 -0.8337
   69MOL0     N 9026   5.763   6.944   1.511 -0.2750  0.4273  0.0549
   69MOL0     N 9027   5.669   7.035   1.511 -0.1837  0.2383  0.3766
   69MOL0     C 9028   4.844   7.014   1.622  0.1036  0.1929 -0.2864
   69MOL0     C 9029   4.718   6.950   1.580  0.0224 -0.6538 -0.1295
   69MOL0     C 9030   4.303   6.734   1.627 -0.3633  0.1022 -0.9752
   69MOL0     C 9031   4.230   6.815   1.543 -0.4237 -0.8880 -0.4352
   69MOL0     C 9032   4.093   6.792   1.521 -0.0660 -0.3361 -0.2103
   69MOL0     C 9033   4.035   6.683   1.586  1.2109  0.2028  0.5185
   69MOL0     O 9034   3.907   6.648   1.576  0.4391 -0.3871 -0.4296
   69MOL0     C 9035   3.809   6.735   1.511 -0.2011  0.0684 -0.1556
   69MOL0     C 9036   3.807   6.710   1.362  0.1536  0.0931 -0.2214
   69MOL0     C 9037   3.826   6.569   1.311  0.1466 -0.6673 -0.5555
   69MOL0     C 9038   3.732   6.462   1.378  0.6529 -0.6809 -0.1512
   69MOL0     C 9039   3.778   6.333   1.351 -0.0411  0.7296  0.7874
   69MOL0     C 9040   3.816   6.226   1.314 -0.6555 -0.8498 -0.3770
   69MOL0     C 9041   4.104   6.590   1.652 -0.2942 -0.6380  0.3784
   69MOL0     C 9042   4.241   6.611   1.671  0.0201 -0.6672  0.0361
   69MOL0     H 9043   4.546   6.994   1.875  1.1296 -1.0596  1.2914
   69MOL0     H 9044   4.758   7.101   1.935  0.1402 -0.8143  0.5757
   69MOL0     H 9045   4.987   6.953   1.914 -0.9648 -0.4627 -2.6427
   69MOL0     H 9046   5.007   7.125   1.980  0.2857  0.5277 -0.7606
   69MOL0     H 9047   5.202   6.989   1.775  1.4819 -0.5980  0.5852
   69MOL0     H 9048   5.210   6.960   1.946  0.1246  0.2024 -0.2505
   69MOL0     H 9049   5.239   7.210   1.986  0.5610 -4.2141  1.7294
   69MOL0     H 9050   5.221   7.243   1.815 -0.2461  2.4193  2.6181
   69MOL0     H 9051   5.455   7.112   1.967 -0.0144 -1.0586  0.0872
   69MOL0     H 9052   5.428   7.066   1.809  1.3878  1.0967 -0.5051
   69MOL0     H 9053   5.451   7.372   1.881  1.8573  0.3982  0.1821
   69MOL0     H 9054   5.430   7.298   1.719  1.5668 -1.5364 -0.6612
   69MOL0     H 9055   5.639   7.161   1.790 -0.1083  0.3587 -0.9072
   69MOL0     H 9056   5.682   7.282   1.887 -0.7447 -1.5186  0.3934
   69MOL0     H 9057   5.637   7.443   1.670  0.3161 -0.5706 -1.8009
   69MOL0     H 9058   5.781   7.349   1.681  0.4216 -2.8953  1.2920
   69MOL0     H 9059   5.685   7.354   1.467  1.1649 -0.5086  0.2835
   69MOL0     H 9060   5.536   7.265   1.509  0.4782  2.8914 -1.8663
   69MOL0     H 9061   5.933   7.220   1.490 -1.1973  0.5163 -1.9997
   69MOL0     H 9062   5.998   6.844   1.453 -2.0365  1.4228 -2.1943
   69MOL0     H 9063   6.072   6.935   1.592  0.6904 -0.2612  0.0042
   69MOL0     H 9064   6.205   6.971   1.406 -0.5180  0.2949 -2.1143
   69MOL0     H 9065   6.114   7.123   1.445 -1.1357 -0.0183  0.5999
   69MOL0     H 9066   6.074   6.946   1.193 -1.0594 -0.6127  0.2292
   69MOL0     H 9067   5.960   7.071   1.242 -1.8324 -3.0550  0.8976
   69MOL0     H 9068   6.136   7.166   1.082  0.2439  3.9041 -0.4537
   69MOL0     H 9069   6.260   7.133   1.208 -0.4505 -2.4886 -0.8039
   69MOL0     H 9070   5.884   7.378   1.306 -0.5414  0.7708 -0.2312
   69MOL0     H 9071   5.775   7.566   1.194  0.2099  1.8582 -2.0238
   69MOL0     H 9072   5.956   7.746   0.677  1.5747  0.5150  4.1435
   69MOL0     H 9073   5.884   7.899   0.486  0.4295 -0.0006 -0.1819
   69MOL0     H 9074   5.655   8.154   0.318 -1.3859  0.1285  1.6373
   69MOL0     H 9075   5.727   7.996   0.359 -1.6621  1.0528 -4.0778
   69MOL0     H 9076   5.854   8.167   0.199  4.4486  1.5211 -0.8780
   69MOL0     H 9077   5.938   8.068   0.319 -1.8123 -1.6006 -2.1600
   69MOL0     H 9078   6.021   8.300   0.359  0.1200 -1.0123  0.4220
   69MOL0     H 9079   5.882   8.305   0.453  0.1816  0.1928 -0.6229
   69MOL0     H 9080   5.745   8.417   0.264 -0.3687  1.0632  3.4792
   69MOL0     H 9081   5.866   8.507   0.331 -0.7407  2.8194 -4.0520
   69MOL0     H 9082   5.868   8.358   0.069  1.0254 -0.4093  0.4778
   69MOL0     H 9083   6.015   8.425   0.153  0.7290  0.2688 -0.0589
   69MOL0     H 9084   5.919   8.596  -0.008  2.2554 -5.4310 -0.6833
   69MOL0     H 9085   5.923   8.643   0.161 -2.0770  1.2968 -0.5920
   69MOL0     H 9086   5.670   8.572   0.022  2.3175 -0.5854 -2.0948
   69MOL0     H 9087   5.686   8.631   0.189 -2.6111 -0.5163 -0.8801
   69MOL0     H 9088   5.762   8.806  -0.054 -1.8287  0.3610 -1.6675
   69MOL0     H 9089   5.809   8.846   0.097  1.3713 -0.1428 -1.5301
   69MOL0     H 9090   5.758   8.183   0.788  1.6606  0.1540  0.9810
   69MOL0     H 9091   5.843   8.028   0.959 -1.5577  0.8154 -0.6919
   69MOL0     H 9092   6.122   7.597   0.925  2.2281 -2.5085 -0.9812
   69MOL0     H 9093   6.214   7.411   1.047 -0.6038 -1.5139 -0.7107
   69MOL0     H 9094   4.928   7.028   1.555 -1.9699  0.7084 -3.0034
   69MOL0     H 9095   4.710   6.924   1.475  3.3944  0.6658 -0.8524
   69MOL0     H 9096   4.268   6.913   1.514 -5.3448  1.7029  0.7320
   69MOL0     H 9097   4.042   6.852   1.446 -3.3735 -4.0660 -1.2770
   69MOL0     H 9098   3.824   6.842   1.528  4.0003 -0.4388  0.4125
   69MOL0     H 9099   3.711   6.703   1.549  0.8381  0.1556  2.9513
   69MOL0     H 9100   3.711   6.738   1.316 -1.1733 -3.8109 -0.1970
   69MOL0     H 9101   3.885   6.768   1.312 -0.4761  2.5704  1.4528
   69MOL0     H 9102   3.929   6.532   1.308  0.4198  0.1562 -2.4002
   69MOL0     H 9103   3.792   6.577   1.208  1.0465  0.1351 -0.8018
   69MOL0     H 9104   3.717   6.466   1.486  0.0918  2.6998 -0.2380
   69MOL0     H 9105   3.633   6.479   1.334  2.2002  0.3112 -3.5487
   69MOL0     H 9106   3.854   6.127   1.295 -0.2092 -0.8245  0.3339
   69MOL0     H 9107   4.056   6.496   1.677 -2.3682 -0.4933 -2.4872
   69MOL0     H 9108   4.295   6.539   1.731 -1.2413  0.5605  2.8047
   70MOL0     O 9109   2.383   9.505  11.371  0.3493  0.2621 -1.0016
   70MOL0     C 9110   2.327   9.584  11.293  1.0266  0.3870  0.3149
   70MOL0     O 9111   2.306   9.554  11.162 -0.8713 -0.3127  0.4290
   70MOL0     C 9112   2.352   9.438  11.109  0.7807 -0.2331 -0.0221
   70MOL0     C 9113   2.478   9.378  11.124 -0.1971  0.4716  0.3008
   70MOL0     C 9114   2.500   9.256  11.062 -0.0569 -0.1421 -0.4820
   70MOL0     C 9115   2.394   9.187  11.001  0.4797  0.0663 -0.4426
   70MOL0     O 9116   2.424   9.059  10.964  0.4906 -0.1878 -0.5607
   70MOL0     C 9117   2.350   8.993  10.867  0.0630  0.5825 -1.3142
   70MOL0     C 9118   2.409   8.864  10.819  0.2838 -0.7760 -0.1434
   70MOL0     C 9119   2.418   8.745  10.916 -0.8367  0.7255  0.6118
   70MOL0     C 9120   2.301   8.666  10.948 -0.0364  1.1806  0.2070
   70MOL0     C 9121   2.330   8.523  10.997  0.6370  0.2588 -0.5376
   70MOL0     C 9122   2.412   8.509  11.123  0.2791 -0.9268  0.3900
   70MOL0     C 9123   2.441   8.350  11.153 -0.6982 -0.2001 -0.4579
   70MOL0     C 9124   2.510   8.267  11.046 -0.5249 -0.1471  0.4002
   70MOL0     N 9125   2.636   8.340  11.002  0.4142  0.3051  0.1733
   70MOL0     C 9126   2.651   8.427  10.899  0.0016  0.3505 -0.2962
   70MOL0     C 9127   2.780   8.450  10.892  0.1249  0.0328  0.3328
   70MOL0     C 9128   2.853   8.531  10.795  0.1971  0.1800  0.2952
   70MOL0     C 9129   2.859   8.474  10.648 -0.3478  0.5874 -0.3771
   70MOL0     C 9130   2.905   8.326  10.641  0.0328 -0.4580 -0.6494
   70MOL0     C 9131   3.032   8.300  10.711  0.0668 -0.0951  0.8436
   70MOL0     O 9132   3.136   8.330  10.620 -0.4755  0.2891 -0.5099
   70MOL0     C 9133   3.259   8.365  10.669  0.0932  0.1018 -0.0969
   70MOL0     C 9134   3.310   8.341  10.792  0.1676  0.1906  0.0976
   70MOL0     C 9135   3.441   8.371  10.830  0.1687  0.2403 -0.4889
   70MOL0     C 9136   3.529   8.421  10.733 -0.0449  0.0632 -0.4843
   70MOL0     C 9137   3.670   8.455  10.757  0.5461  0.1869  0.8726
   70MOL0     O 9138   3.740   8.497  10.651  0.6907 -0.1584  0.3164
   70MOL0     C 9139   3.874   8.497  10.650 -0.6480 -0.1510  0.1525
   70MOL0     C 9140   3.943   8.584  10.733 -0.3566 -0.4598  0.6282
   70MOL0     C 9141   4.089   8.577  10.736 -0.5284  0.0133  0.2936
   70MOL0     C 9142   4.157   8.476  10.662  0.4279 -0.2915 -0.6459
   70MOL0     O 9143   4.290   8.465  10.683  0.8375 -0.6772  0.5712
   70MOL0     C 9144   4.370   8.402  10.574  0.0230  0.0947 -0.9949
   70MOL0     C 9145   4.511   8.418  10.606  1.2638  0.5768 -0.7175
   70MOL0     C 9146   4.560   8.335  10.724  0.9936 -0.8983 -0.8601
   70MOL0     C 9147   4.706   8.333  10.763  0.3540  0.2383  0.3820
   70MOL0     C 9148   4.795   8.365  10.649 -0.4670 -0.4850  0.1297
   70MOL0     C 9149   4.939   8.367  10.681 -0.9951 -0.2077 -0.0960
   70MOL0     C 9150   5.031   8.351  10.563 -0.3122  0.9555  0.3393
   70MOL0     C 9151   5.170   8.365  10.609 -0.5439  0.6218 -0.0064
   70MOL0    Cl 9152   5.232   8.540  10.669 -0.3867 -0.1604  0.1146
   70MOL0     C 9153   4.089   8.397  10.572 -0.1890  0.5486 -0.6355
   70MOL0     C 9154   3.958   8.411  10.567  0.1637 -0.3100  0.2460
   70MOL0     O 9155   3.720   8.416  10.863  0.3335  0.3352 -0.5635
   70MOL0     C 9156   3.472   8.447  10.611 -0.6448  0.1190 -0.6077
   70MOL0     C 9157   3.339   8.439  10.585 -0.2418  1.0042  0.4841
   70MOL0     N 9158   2.848   8.366  10.978  0.2384  0.6067 -0.3891
   70MOL0     N 9159   2.759   8.312  11.040 -0.5074 -0.4038  0.3739
   70MOL0     C 9160   2.275   9.258  10.975  0.1538 -0.2838 -1.2970
   70MOL0     C 9161   2.250   9.378  11.038  0.8342  1.0302  0.9457
   70MOL0     C 9162   2.268   9.699  11.367  0.8487 -0.0022 -0.2408
   70MOL0     C 9163   2.259   9.818  11.294 -0.0925 -0.2456  0.3855
   70MOL0     C 9164   2.208   9.934  11.351  0.2922 -0.4903  0.6590
   70MOL0     C 9165   2.171   9.948  11.486  0.1200 -0.0029  0.3034
   70MOL0     O 9166   2.129  10.071  11.544  0.3534  0.0360  0.3406
   70MOL0     C 9167   2.039  10.160  11.472 -0.2944  0.1351  1.0592
   70MOL0     C 9168   1.997  10.281  11.550  0.3423 -0.3346  0.2595
   70MOL0     C 9169   2.121  10.364  11.561  0.1645  0.0774  0.7873
   70MOL0     C 9170   2.079  10.499  11.632  0.5040 -0.1450  0.6703
   70MOL0     C 9171   2.000  10.584  11.533 -0.6879  1.2687 -0.4851
   70MOL0     C 9172   1.936  10.653  11.449  0.3029 -0.5270 -0.3747
   70MOL0     C 9173   2.188   9.832  11.563  0.1035 -0.6712 -0.2913
   70MOL0     C 9174   2.233   9.708  11.508  0.5155 -0.7599  0.0949
   70MOL0     H 9175   2.555   9.431  11.179  0.7274  0.6260 -1.0800
   70MOL0     H 9176   2.591   9.205  11.090  0.5386  1.2452  0.1794
   70MOL0     H 9177   2.328   9.054  10.779 -0.9711 -0.0500 -1.5118
   70MOL0     H 9178   2.251   8.983  10.913  1.5034 -0.0470  1.9035
   70MOL0     H 9179   2.516   8.881  10.804  0.0338  0.7673 -0.3710
   70MOL0     H 9180   2.357   8.819  10.734 -1.5559 -1.3878  1.2324
   70MOL0     H 9181   2.455   8.771  11.015  0.9308 -0.8648  0.4211
   70MOL0     H 9182   2.482   8.671  10.868  1.5321  2.4023  1.0456
   70MOL0     H 9183   2.243   8.725  11.020  0.5967  0.9267  0.9338
   70MOL0     H 9184   2.238   8.654  10.859 -0.5929  4.2363  0.0821
   70MOL0     H 9185   2.366   8.469  10.909  3.6408  1.9905 -0.4985
   70MOL0     H 9186   2.233   8.474  11.008  0.9632 -0.6773 -1.6594
   70MOL0     H 9187   2.350   8.550  11.203  0.6030  0.6897 -0.1603
   70MOL0     H 9188   2.497   8.577  11.121 -0.6416  0.3137  1.6823
   70MOL0     H 9189   2.515   8.357  11.234  0.4307 -0.6580 -1.4269
   70MOL0     H 9190   2.348   8.309  11.194 -0.3351 -1.7521 -1.1090
   70MOL0     H 9191   2.442   8.248  10.962 -0.5265 -0.2921  0.4334
   70MOL0     H 9192   2.537   8.168  11.083 -4.6910 -1.4804  0.3508
   70MOL0     H 9193   2.570   8.473  10.844 -0.8205 -1.7896 -0.9385
   70MOL0     H 9194   2.952   8.554  10.835  0.1867 -0.6763  0.8316
   70MOL0     H 9195   2.805   8.629  10.804 -0.1632 -0.1403  2.2706
   70MOL0     H 9196   2.926   8.539  10.590  0.8960 -0.3008  0.0225
   70MOL0     H 9197   2.755   8.465  10.616  0.3086 -2.5501 -2.0737
   70MOL0     H 9198   2.825   8.260  10.676  0.0033 -0.5055 -0.8045
   70MOL0     H 9199   2.910   8.297  10.536 -0.1634  1.5980 -1.2620
   70MOL0     H 9200   3.039   8.200  10.755  0.1947 -1.1634 -1.4682
   70MOL0     H 9201   3.046   8.364  10.798  1.3330 -0.5636  1.0080
   70MOL0     H 9202   3.252   8.297  10.873  1.3756 -1.1641  0.2794
   70MOL0     H 9203   3.462   8.357  10.936  0.7032 -0.9780 -0.7387
   70MOL0     H 9204   3.890   8.661  10.788 -0.3585 -1.3319  1.8710
   70MOL0     H 9205   4.153   8.646  10.790  3.7264 -2.4799 -1.0089
   70MOL0     H 9206   4.334   8.441  10.478  1.7963  4.6313 -0.0525
   70MOL0     H 9207   4.370   8.293  10.568 -0.6998  0.1692 -2.7579
   70MOL0     H 9208   4.521   8.526  10.620 -1.1274  0.8047 -0.3636
   70MOL0     H 9209   4.567   8.376  10.522  1.4889  0.5643 -0.5611
   70MOL0     H 9210   4.549   8.232  10.689  0.6299 -1.8610  1.7988
   70MOL0     H 9211   4.490   8.349  10.807  2.2115  4.5276 -0.3624
   70MOL0     H 9212   4.719   8.417  10.833 -2.0820  1.4390 -0.4872
   70MOL0     H 9213   4.719   8.236  10.812 -1.0822  0.1754  0.6691
   70MOL0     H 9214   4.777   8.466  10.610  0.8564  0.2288  1.2657
   70MOL0     H 9215   4.779   8.288  10.574 -0.7725 -0.5585  0.2693
   70MOL0     H 9216   4.969   8.276  10.734 -0.0642 -0.9473 -1.8099
   70MOL0     H 9217   4.964   8.462  10.729  1.6092 -0.7520 -0.2184
   70MOL0     H 9218   5.020   8.252  10.519 -1.9691  1.0852  0.4284
   70MOL0     H 9219   5.022   8.428  10.485  3.8559  2.2869  0.9023
   70MOL0     H 9220   5.234   8.352  10.521  3.1575  3.0141  2.0686
   70MOL0     H 9221   5.198   8.289  10.682  0.8427  0.5927 -0.5300
   70MOL0     H 9222   4.136   8.313  10.521 -0.7418 -1.9653  2.6730
   70MOL0     H 9223   3.901   8.339  10.509  1.6186 -0.1889 -1.4208
   70MOL0     H 9224   3.536   8.471  10.527 -0.4678 -0.6944 -0.7036
   70MOL0     H 9225   3.303   8.475  10.489  1.8227  2.2501  0.1097
   70MOL0     H 9226   2.194   9.202  10.929  0.1246 -1.0837 -0.3091
   70MOL0     H 9227   2.150   9.420  11.035  0.3401 -0.1735 -0.0819
   70MOL0     H 9228   2.301   9.833  11.195  0.9344 -0.2875  0.7941
   70MOL0     H 9229   2.205  10.024  11.290  0.9416 -0.7414  0.2458
   70MOL0     H 9230   1.947  10.114  11.436  0.6494 -0.4821 -0.7076
   70MOL0     H 9231   2.094  10.195  11.384 -1.0899  0.0976  0.5376
   70MOL0     H 9232   1.920  10.333  11.492  1.5465  0.4555 -0.6812
   70MOL0     H 9233   1.953  10.259  11.648 -0.9381 -0.5710 -0.3486
   70MOL0     H 9234   2.176  10.376  11.466 -1.8091  1.1433 -0.2709
   70MOL0     H 9235   2.189  10.313  11.630  2.3999  2.0886  0.2158
   70MOL0     H 9236   2.010  10.470  11.711 -0.0328 -3.9662 -0.9400
   70MOL0     H 9237   2.162  10.555  11.676  0.5004 -0.2415  0.8019
   70MOL0     H 9238   1.872  10.698  11.376  0.9091  0.2646 -0.4324
   70MOL0     H 9239   2.168   9.836  11.669  0.4514 -1.5259 -0.1832
   70MOL0     H 9240   2.237   9.622  11.574  0.6427 -0.7519  0.0965
   71MOL0     O 9241   1.340   1.592   5.002  0.3740  0.0284  0.0764
   71MOL0     C 9242   1.411   1.687   5.038  0.3429 -0.4468 -0.3705
   71MOL0     O 9243   1.527   1.679   5.111  0.4536 -0.8616  0.3250
   71MOL0     C 9244   1.616   1.586   5.067  0.4336  0.9008 -0.0700
   71MOL0     C 9245   1.719   1.639   4.998 -0.2335  0.2630 -0.3079
   71MOL0     C 9246   1.828   1.567   4.963 -0.9164 -0.1233 -0.4338
   71MOL0     C 9247   1.830   1.428   4.987  0.8172 -0.4128  0.2976
   71MOL0     O 9248   1.936   1.354   4.927 -0.2002 -0.1794 -0.4568
   71MOL0     C 9249   2.001   1.255   5.018  0.2630 -0.7350  0.3850
   71MOL0     C 9250   2.144   1.234   4.947 -0.1384 -0.2893  0.2333
   71MOL0     C 9251   2.226   1.354   4.947  0.4158 -0.1238  0.4373
   71MOL0     C 9252   2.366   1.312   4.897 -0.2567  0.4795 -1.3334
   71MOL0     C 9253   2.475   1.418   4.925  0.1944  0.0229  0.7777
   71MOL0     C 9254   2.607   1.346   4.930 -0.6146  0.2171 -0.5194
   71MOL0     C 9255   2.721   1.452   4.948  0.5604 -0.1425  0.1110
   71MOL0     C 9256   2.857   1.396   4.975  1.2906 -0.4313 -0.3103
   71MOL0     N 9257   2.967   1.492   5.014 -0.0286 -0.0317 -0.4840
   71MOL0     C 9258   2.964   1.623   5.047  0.3118  1.0419  0.6233
   71MOL0     C 9259   3.093   1.660   5.035 -0.1901 -0.4671  0.5599
   71MOL0     C 9260   3.149   1.799   5.058 -1.1422 -0.5846 -0.2302
   71MOL0     C 9261   3.136   1.887   4.936 -0.1104 -1.0923 -0.4838
   71MOL0     C 9262   3.233   2.013   4.952 -0.3862  0.3925 -0.4368
   71MOL0     C 9263   3.210   2.108   4.830  0.1728  0.1873 -1.3049
   71MOL0     O 9264   3.089   2.178   4.830  0.4004  0.1836 -0.1267
   71MOL0     C 9265   3.079   2.303   4.894 -0.2496  0.7406 -0.2579
   71MOL0     C 9266   2.975   2.384   4.870  0.1959 -0.1427 -0.5664
   71MOL0     C 9267   2.962   2.516   4.917 -0.2612 -0.0941 -0.3564
   71MOL0     C 9268   3.059   2.560   5.004 -0.2913 -0.6558 -1.0242
   71MOL0     C 9269   3.064   2.703   5.058 -0.7797 -0.5474 -0.9819
   71MOL0     O 9270   3.180   2.765   5.097 -0.3013 -0.6484 -0.0228
   71MOL0     C 9271   3.183   2.882   5.174 -0.0491  0.5937 -0.2903
   71MOL0     C 9272   3.307   2.951   5.186 -1.1781  0.6120 -0.8573
   71MOL0     C 9273   3.327   3.036   5.302  0.0229  0.5532  0.3999
   71MOL0     C 9274   3.224   3.062   5.390  0.2192  0.5957 -0.1531
   71MOL0     O 9275   3.226   3.150   5.492 -0.3755 -0.2936 -0.4565
   71MOL0     C 9276   3.267   3.287   5.474 -0.6898  0.4095  0.3941
   71MOL0     C 9277   3.317   3.361   5.601  0.2115 -0.2248  0.0611
   71MOL0     C 9278   3.217   3.441   5.687  0.4104  0.5883 -0.3035
   71MOL0     C 9279   3.148   3.558   5.617 -0.7851 -0.4897  0.2970
   71MOL0     C 9280   3.049   3.645   5.702  0.2577 -0.0726  0.0477
   71MOL0     C 9281   2.933   3.570   5.760 -0.1815 -0.1956  0.5732
   71MOL0     C 9282   2.834   3.658   5.852  0.7582  0.2823  0.4337
   71MOL0     C 9283   2.842   3.593   5.994  0.7431  0.1750 -0.2689
   71MOL0    Cl 9284   2.736   3.445   6.006 -0.0807  0.4440  0.5275
   71MOL0     C 9285   3.104   2.994   5.379 -0.0664  0.0785 -0.3552
   71MOL0     C 9286   3.083   2.913   5.274 -0.4819 -0.0589 -0.1857
   71MOL0     O 9287   2.954   2.744   5.063 -0.4485 -0.3003  0.2958
   71MOL0     C 9288   3.162   2.478   5.055 -0.8858  0.3163 -0.3121
   71MOL0     C 9289   3.167   2.348   5.000  0.4447  0.6163  0.4068
   71MOL0     N 9290   3.177   1.547   5.021 -0.3883  0.2866  0.0849
   71MOL0     N 9291   3.095   1.447   5.005  0.5644  0.0631  0.5646
   71MOL0     C 9292   1.715   1.370   5.040 -0.5762  0.7802 -0.3404
   71MOL0     C 9293   1.617   1.448   5.092  0.6337 -0.0956 -0.9443
   71MOL0     C 9294   1.354   1.822   5.021 -0.2234 -0.1210  0.6255
   71MOL0     C 9295   1.372   1.920   5.116 -0.2038  0.3670 -0.0624
   71MOL0     C 9296   1.330   2.055   5.095 -0.7104 -0.2747 -0.1847
   71MOL0     C 9297   1.266   2.086   4.979  0.9499 -0.3987  0.7198
   71MOL0     O 9298   1.228   2.212   4.936 -0.0790  0.1335 -0.5358
   71MOL0     C 9299   1.261   2.329   5.016  0.2381 -0.5851 -0.8583
   71MOL0     C 9300   1.133   2.336   5.099 -0.4352  0.7311 -0.2574
   71MOL0     C 9301   1.130   2.436   5.213  0.0296  0.2715 -0.1986
   71MOL0     C 9302   1.191   2.568   5.185 -0.2628  0.0760  0.5178
   71MOL0     C 9303   1.220   2.649   5.307 -0.3392 -0.0688  0.0409
   71MOL0     C 9304   1.259   2.701   5.412 -0.5975  0.3721  0.5795
   71MOL0     C 9305   1.252   1.987   4.879  0.5728 -0.0420 -0.4232
   71MOL0     C 9306   1.299   1.854   4.899  1.2666  0.1334 -0.3050
   71MOL0     H 9307   1.722   1.743   4.969 -1.3363  0.3169 -0.2744
   71MOL0     H 9308   1.918   1.616   4.926  1.2843 -1.2310  2.9420
   71MOL0     H 9309   1.936   1.168   5.021 -0.1795 -0.4269 -0.0123
   71MOL0     H 9310   2.017   1.307   5.113 -2.1622 -0.1155  0.5171
   71MOL0     H 9311   2.125   1.207   4.843  2.1291 -1.4804  0.0574
   71MOL0     H 9312   2.185   1.148   5.002 -1.4447  0.3572  2.3733
   71MOL0     H 9313   2.234   1.401   5.046  0.1362 -0.2892  0.5413
   71MOL0     H 9314   2.197   1.437   4.883  1.7913  0.3264  0.3596
   71MOL0     H 9315   2.387   1.210   4.929  0.4646  0.8469 -0.6049
   71MOL0     H 9316   2.371   1.321   4.788  1.3538  2.5213 -1.1470
   71MOL0     H 9317   2.456   1.460   5.024 -2.4768  0.4556  0.1652
   71MOL0     H 9318   2.465   1.504   4.858  0.5089 -1.2455 -0.9527
   71MOL0     H 9319   2.622   1.281   4.843  1.8959 -0.0068 -0.0090
   71MOL0     H 9320   2.601   1.281   5.017 -2.3391 -1.5395 -1.8626
   71MOL0     H 9321   2.720   1.503   4.852  1.5133 -0.2227  0.0469
   71MOL0     H 9322   2.700   1.519   5.031 -1.7647 -0.6427  0.0079
   71MOL0     H 9323   2.889   1.348   4.882 -0.8359 -0.5802 -1.0184
   71MOL0     H 9324   2.863   1.329   5.061 -1.9824 -1.5575 -0.8105
   71MOL0     H 9325   2.877   1.678   5.082  0.3721  2.2623 -1.0300
   71MOL0     H 9326   3.253   1.794   5.094 -0.3195  1.1276 -2.2012
   71MOL0     H 9327   3.094   1.843   5.142 -0.2760  2.7957 -1.3185
   71MOL0     H 9328   3.034   1.927   4.945  0.4873  0.0024  2.1421
   71MOL0     H 9329   3.154   1.825   4.848 -2.0260 -0.8080 -1.1357
   71MOL0     H 9330   3.219   2.067   5.046  4.0323 -0.8464  1.1920
   71MOL0     H 9331   3.335   1.974   4.958  0.4764  2.2049 -2.1381
   71MOL0     H 9332   3.229   2.056   4.736  0.6481  1.4890 -1.9619
   71MOL0     H 9333   3.289   2.182   4.847  0.0160 -0.2910  2.2906
   71MOL0     H 9334   2.890   2.358   4.809 -0.4757 -0.1532  0.3470
   71MOL0     H 9335   2.878   2.583   4.902 -0.2910 -0.4194 -1.8252
   71MOL0     H 9336   3.385   2.933   5.113  1.1105 -0.9230  1.7776
   71MOL0     H 9337   3.420   3.088   5.321  1.5087 -2.3485  1.7916
   71MOL0     H 9338   3.172   3.329   5.438 -0.9927 -1.2826 -0.9250
   71MOL0     H 9339   3.342   3.278   5.395 -0.0989 -3.7490  1.1969
   71MOL0     H 9340   3.392   3.433   5.567  1.4053 -1.2694  0.4279
   71MOL0     H 9341   3.373   3.299   5.671  3.7902  1.6940 -0.8259
   71MOL0     H 9342   3.269   3.474   5.778  0.2976  1.0964 -0.4171
   71MOL0     H 9343   3.152   3.360   5.719  1.9933 -1.5828 -2.2566
   71MOL0     H 9344   3.227   3.627   5.587  0.1936 -0.8159  2.0263
   71MOL0     H 9345   3.090   3.533   5.527  0.0736  0.2889 -0.4899
   71MOL0     H 9346   3.018   3.724   5.633 -0.1245 -0.6314 -0.4303
   71MOL0     H 9347   3.097   3.700   5.784  0.7454 -0.8363  0.2854
   71MOL0     H 9348   2.977   3.491   5.822  0.3204  0.0747  0.5655
   71MOL0     H 9349   2.875   3.526   5.679 -1.1902 -2.7138  2.5181
   71MOL0     H 9350   2.869   3.761   5.864 -0.7013  1.0116 -1.0472
   71MOL0     H 9351   2.734   3.679   5.811  0.9168  2.1283  0.8709
   71MOL0     H 9352   2.831   3.669   6.072  4.1595  1.2888 -0.7027
   71MOL0     H 9353   2.942   3.552   6.011  0.4865 -0.3307  0.0517
   71MOL0     H 9354   3.024   3.026   5.446  2.0499  3.3031  0.8966
   71MOL0     H 9355   2.984   2.870   5.259 -0.7028  0.0169  1.0047
   71MOL0     H 9356   3.233   2.520   5.125  0.0134  0.1032 -1.0770
   71MOL0     H 9357   3.248   2.286   5.039  0.5719 -0.1433 -1.0219
   71MOL0     H 9358   1.721   1.262   5.045  0.5566  0.7540 -1.5624
   71MOL0     H 9359   1.540   1.402   5.153 -0.8720  1.3426 -1.6657
   71MOL0     H 9360   1.407   1.889   5.214  0.2481 -0.1965 -0.3966
   71MOL0     H 9361   1.342   2.138   5.163  1.5404 -0.7639  0.1086
   71MOL0     H 9362   1.280   2.418   4.956  4.2755 -1.9424 -1.9358
   71MOL0     H 9363   1.355   2.319   5.072  0.3693  1.0821 -0.7335
   71MOL0     H 9364   1.044   2.353   5.038  0.5221  3.4210 -1.0815
   71MOL0     H 9365   1.130   2.245   5.159  1.0911  1.2321  0.6383
   71MOL0     H 9366   1.170   2.401   5.309  0.9741  4.6121  1.2098
   71MOL0     H 9367   1.023   2.447   5.234  0.9259  2.6103  4.3323
   71MOL0     H 9368   1.288   2.548   5.139 -1.3175 -1.9436 -1.0219
   71MOL0     H 9369   1.120   2.627   5.126 -0.2126  1.1204  1.4878
   71MOL0     H 9370   1.299   2.741   5.503  0.9355 -4.2808  2.2609
   71MOL0     H 9371   1.219   2.002   4.776 -0.5475  0.9400  0.0521
   71MOL0     H 9372   1.284   1.774   4.827  2.0403 -0.6131  0.3469
   72MOL0     O 9373   4.719   3.058   2.152 -0.6559 -0.5411 -0.4176
   72MOL0     C 9374   4.629   2.975   2.124  0.0105  0.6719  0.1842
   72MOL0     O 9375   4.516   3.000   2.048 -0.0082  0.6582 -0.0376
   72MOL0     C 9376   4.502   3.132   2.014  0.6699 -0.4228  1.3894
   72MOL0     C 9377   4.571   3.200   1.912 -0.3988 -0.6459 -0.5901
   72MOL0     C 9378   4.535   3.332   1.885 -0.6051 -0.0994  0.5217
   72MOL0     C 9379   4.419   3.395   1.947 -1.1074  0.5731  0.5146
   72MOL0     O 9380   4.401   3.526   1.917 -0.2224 -0.3538  0.0024
   72MOL0     C 9381   4.365   3.562   1.781  0.6259 -0.0108  0.0696
   72MOL0     C 9382   4.373   3.706   1.751  0.0311  0.3944  0.4874
   72MOL0     C 9383   4.333   3.796   1.872  0.3685  0.2248 -0.1163
   72MOL0     C 9384   4.295   3.940   1.835  0.4359  0.8854 -0.1199
   72MOL0     C 9385   4.177   3.975   1.742  0.7594  0.1078 -0.2863
   72MOL0     C 9386   4.056   3.885   1.774 -0.3033 -0.0819  0.7230
   72MOL0     C 9387   3.948   3.907   1.680  0.3466 -0.7314  1.2283
   72MOL0     C 9388   3.831   3.986   1.745 -0.0261 -0.4503 -0.5674
   72MOL0     N 9389   3.721   4.001   1.647  0.6340  0.8138 -0.0733
   72MOL0     C 9390   3.714   4.089   1.537  0.1169  1.0916 -0.1265
   72MOL0     C 9391   3.589   4.076   1.499 -0.5447  0.5021 -0.1340
   72MOL0     C 9392   3.509   4.162   1.405 -0.0333 -0.8585  0.2054
   72MOL0     C 9393   3.519   4.130   1.259  0.5175 -0.2484  0.2832
   72MOL0     C 9394   3.451   3.992   1.219  0.5411  0.1179 -0.1839
   72MOL0     C 9395   3.428   3.965   1.071 -0.2630 -0.3616 -0.2662
   72MOL0     O 9396   3.555   3.947   1.004  0.1948 -0.6446  0.1694
   72MOL0     C 9397   3.554   3.892   0.880  0.1801 -0.3380 -0.1976
   72MOL0     C 9398   3.680   3.861   0.819  0.2199 -0.3628 -0.4116
   72MOL0     C 9399   3.684   3.797   0.700 -0.0168 -0.3201  0.4664
   72MOL0     C 9400   3.570   3.746   0.632 -0.5929  0.6794  0.7444
   72MOL0     C 9401   3.589   3.662   0.511  0.2805 -0.2241  1.1977
   72MOL0     O 9402   3.492   3.567   0.477 -0.1129  0.1885  0.3351
   72MOL0     C 9403   3.518   3.463   0.388 -0.2869 -0.5380  0.7200
   72MOL0     C 9404   3.639   3.392   0.381 -0.0874 -0.6440  0.1028
   72MOL0     C 9405   3.680   3.315   0.278 -0.0391  0.0810  0.0412
   72MOL0     C 9406   3.583   3.290   0.171 -0.0588 -0.2112 -0.6557
   72MOL0     O 9407   3.602   3.203   0.068 -0.2555  1.3787 -0.6435
   72MOL0     C 9408   3.733   3.140   0.051  0.1999  0.9477  0.1136
   72MOL0     C 9409   3.727   3.013  -0.045  0.3981 -0.9353 -0.6908
   72MOL0     C 9410   3.856   2.944  -0.085 -1.2635  0.1597  0.7915
   72MOL0     C 9411   3.953   2.934   0.027 -0.2169  0.4500 -0.9055
   72MOL0     C 9412   4.099   2.905  -0.001 -0.5356  0.2605  0.5056
   72MOL0     C 9413   4.183   2.863   0.115  1.0818  0.1783 -0.2645
   72MOL0     C 9414   4.328   2.835   0.085  0.0131 -0.5761  1.4477
   72MOL0     C 9415   4.400   2.815   0.216 -0.2134 -0.8808 -1.3464
   72MOL0    Cl 9416   4.404   2.962   0.315  0.0340 -0.3554 -0.1367
   72MOL0     C 9417   3.455   3.356   0.185  0.4664  0.6691  0.2820
   72MOL0     C 9418   3.416   3.443   0.288  0.4116  1.0397  0.3357
   72MOL0     O 9419   3.689   3.682   0.445 -0.8244 -0.3435 -1.0690
   72MOL0     C 9420   3.451   3.754   0.705  0.2092  0.6697 -0.5177
   72MOL0     C 9421   3.443   3.834   0.824 -0.3911 -0.7787 -0.0915
   72MOL0     N 9422   3.521   3.975   1.568 -0.0099  0.4243 -0.9275
   72MOL0     N 9423   3.603   3.935   1.661  0.3226 -0.6359 -0.8369
   72MOL0     C 9424   4.342   3.318   2.044 -1.0649 -0.2796  0.4572
   72MOL0     C 9425   4.384   3.191   2.066 -0.2721  0.1500  0.1004
   72MOL0     C 9426   4.633   2.831   2.179  0.5643  0.2197 -0.0791
   72MOL0     C 9427   4.516   2.753   2.190  0.1803  0.9949  0.7387
   72MOL0     C 9428   4.518   2.626   2.254  0.1280  0.1666 -0.1459
   72MOL0     C 9429   4.640   2.571   2.299  0.5736 -0.6358  0.4930
   72MOL0     O 9430   4.663   2.443   2.347 -0.1205  0.3410 -0.2445
   72MOL0     C 9431   4.555   2.374   2.411 -0.1249  0.7846  0.5339
   72MOL0     C 9432   4.589   2.231   2.477 -0.0207 -0.5276  0.6083
   72MOL0     C 9433   4.475   2.169   2.552  0.2739  0.9213 -0.3586
   72MOL0     C 9434   4.339   2.164   2.484 -0.6272  0.2733 -0.0617
   72MOL0     C 9435   4.244   2.106   2.577  0.1258  0.0767  0.6809
   72MOL0     C 9436   4.151   2.050   2.640  0.1969  0.2958  0.7830
   72MOL0     C 9437   4.748   2.657   2.291  0.4516  0.1709  0.5177
   72MOL0     C 9438   4.742   2.791   2.238  0.0695  0.9674 -0.1885
   72MOL0     H 9439   4.662   3.164   1.864  0.2288 -1.9919  1.4590
   72MOL0     H 9440   4.609   3.380   1.822 -0.2440  1.3767  2.0126
   72MOL0     H 9441   4.267   3.523   1.752 -0.6067  2.7102  0.1825
   72MOL0     H 9442   4.439   3.511   1.720  0.7639 -0.4625  0.6117
   72MOL0     H 9443   4.322   3.726   1.657 -0.4555  2.6206  1.1545
   72MOL0     H 9444   4.472   3.740   1.720 -1.1400  2.2019 -1.5662
   72MOL0     H 9445   4.416   3.808   1.941 -1.2894 -0.0546  2.0226
   72MOL0     H 9446   4.250   3.751   1.927  0.6461 -0.6848 -0.4105
   72MOL0     H 9447   4.269   4.002   1.921  2.1057 -0.5793  1.5158
   72MOL0     H 9448   4.392   3.967   1.792  1.0117 -1.4343 -0.4035
   72MOL0     H 9449   4.210   3.961   1.639  0.1701 -0.6264 -0.3843
   72MOL0     H 9450   4.154   4.081   1.758 -1.2382 -0.6508  2.6320
   72MOL0     H 9451   4.036   3.907   1.880  1.0970  0.1388  0.9584
   72MOL0     H 9452   4.081   3.779   1.764 -0.5452 -0.1540  0.8702
   72MOL0     H 9453   3.975   3.953   1.584  0.4023 -3.6115 -0.2741
   72MOL0     H 9454   3.920   3.808   1.642  1.9995 -0.9652  0.5185
   72MOL0     H 9455   3.860   4.080   1.792  1.1967 -1.6081  1.1292
   72MOL0     H 9456   3.802   3.919   1.826 -1.6002 -0.6602 -1.2634
   72MOL0     H 9457   3.798   4.152   1.507 -0.4211  0.8586 -2.2682
   72MOL0     H 9458   3.544   4.264   1.426 -0.6413 -0.0683 -2.2314
   72MOL0     H 9459   3.403   4.161   1.430  0.2381 -0.2724  1.4980
   72MOL0     H 9460   3.622   4.123   1.221 -0.0265 -0.0047 -1.2898
   72MOL0     H 9461   3.466   4.208   1.205  0.9886  0.4451  0.8048
   72MOL0     H 9462   3.506   3.909   1.263  1.1520 -1.0923 -3.0211
   72MOL0     H 9463   3.351   3.981   1.263 -0.5288 -0.5535 -2.6481
   72MOL0     H 9464   3.375   4.053   1.034  1.8393  1.0336 -0.1377
   72MOL0     H 9465   3.365   3.877   1.055 -1.0732 -0.3740  2.5535
   72MOL0     H 9466   3.763   3.887   0.884 -0.4496 -0.2213  0.4183
   72MOL0     H 9467   3.786   3.791   0.662  1.1350  2.4406  2.6973
   72MOL0     H 9468   3.724   3.407   0.447 -0.2845  2.2674 -0.1635
   72MOL0     H 9469   3.775   3.262   0.278  1.1703  2.0381 -2.5625
   72MOL0     H 9470   3.771   3.102   0.147  1.3985  0.1358 -0.6619
   72MOL0     H 9471   3.799   3.218   0.013 -0.5015  0.8367 -1.3994
   72MOL0     H 9472   3.672   3.038  -0.136 -1.0083  0.2109  0.4185
   72MOL0     H 9473   3.669   2.938   0.009  0.6089 -1.4022 -1.1087
   72MOL0     H 9474   3.900   3.000  -0.169 -3.5912  1.8114  0.5734
   72MOL0     H 9475   3.841   2.843  -0.125  1.8869 -0.2123  0.2513
   72MOL0     H 9476   3.951   3.025   0.088  0.2340  0.3439 -0.7271
   72MOL0     H 9477   3.917   2.858   0.097  0.8210  0.2306 -0.5877
   72MOL0     H 9478   4.146   2.998  -0.037 -0.3438  0.5714  1.5183
   72MOL0     H 9479   4.087   2.834  -0.083  1.8439  3.3252 -2.8623
   72MOL0     H 9480   4.138   2.771   0.154 -1.0301  0.0367 -2.7372
   72MOL0     H 9481   4.167   2.940   0.191  0.5343 -0.1092 -0.0839
   72MOL0     H 9482   4.328   2.752   0.014  0.0931  0.9267 -0.3821
   72MOL0     H 9483   4.366   2.921   0.028 -0.3572 -1.2561  0.1389
   72MOL0     H 9484   4.501   2.791   0.184  0.7817  2.4109 -1.0234
   72MOL0     H 9485   4.342   2.742   0.273 -1.0456  0.8464  0.1317
   72MOL0     H 9486   3.381   3.334   0.109  1.7232 -2.7521 -0.0963
   72MOL0     H 9487   3.317   3.480   0.309 -0.3967 -0.8087  0.0015
   72MOL0     H 9488   3.364   3.697   0.674  2.7346 -2.9404 -1.6119
   72MOL0     H 9489   3.345   3.845   0.871 -0.5758 -0.4592 -0.5473
   72MOL0     H 9490   4.249   3.355   2.084  0.7888  2.8812  2.2432
   72MOL0     H 9491   4.342   3.135   2.149  0.6979  1.1277  1.2748
   72MOL0     H 9492   4.422   2.779   2.142  1.0108  1.2368 -0.8121
   72MOL0     H 9493   4.427   2.567   2.263  1.5340 -2.1724 -0.3052
   72MOL0     H 9494   4.475   2.373   2.336  1.3874 -3.3384 -1.3612
   72MOL0     H 9495   4.517   2.445   2.485 -0.9218  0.5431  0.3672
   72MOL0     H 9496   4.642   2.161   2.411  0.2714  0.7504 -0.5567
   72MOL0     H 9497   4.654   2.254   2.562  3.0056 -1.9210 -1.1363
   72MOL0     H 9498   4.453   2.236   2.635 -1.3439  1.7439 -1.4036
   72MOL0     H 9499   4.506   2.069   2.584 -1.3747  0.6236  0.4024
   72MOL0     H 9500   4.299   2.262   2.458 -0.7330  0.2812  0.1257
   72MOL0     H 9501   4.342   2.097   2.398  1.3398 -2.3534  1.8521
   72MOL0     H 9502   4.076   1.990   2.688  1.1559 -1.4803  0.1781
   72MOL0     H 9503   4.850   2.645   2.326  0.5339  3.6839  1.8633
   72MOL0     H 9504   4.831   2.852   2.240  1.4879 -0.9529 -1.0541
   73MOL0     O 9505   5.578   4.597   0.674 -0.4570 -0.4813  0.1591
   73MOL0     C 9506   5.559   4.525   0.578  1.0321  1.0664 -0.5535
   73MOL0     O 9507   5.628   4.414   0.551 -0.2173 -0.6515  0.4811
   73MOL0     C 9508   5.756   4.389   0.606  0.7928 -0.1124  0.0396
   73MOL0     C 9509   5.786   4.377   0.737  0.7009  0.4953  0.0794
   73MOL0     C 9510   5.911   4.334   0.785  0.1891 -0.1838 -0.1574
   73MOL0     C 9511   6.009   4.306   0.689 -0.3059 -0.3114 -0.0864
   73MOL0     O 9512   6.142   4.278   0.715 -0.1216 -0.2251 -0.1993
   73MOL0     C 9513   6.156   4.169   0.802 -0.5676 -0.8720 -1.0264
   73MOL0     C 9514   6.278   4.212   0.900 -0.1481 -0.0949  0.2519
   73MOL0     C 9515   6.244   4.323   1.005  0.4347 -0.0650  0.5055
   73MOL0     C 9516   6.146   4.279   1.104  0.5243  0.5102  0.2000
   73MOL0     C 9517   6.059   4.385   1.180 -0.2931 -0.8938  0.7071
   73MOL0     C 9518   6.152   4.480   1.262 -0.1596 -0.3695  0.3343
   73MOL0     C 9519   6.158   4.625   1.209 -0.3160 -0.6302  0.7815
   73MOL0     C 9520   6.020   4.696   1.180  0.5067  0.1094 -0.2009
   73MOL0     N 9521   5.949   4.725   1.305 -0.4744 -0.3811 -0.2157
   73MOL0     C 9522   5.985   4.814   1.406  0.6812 -0.1256 -0.3486
   73MOL0     C 9523   5.907   4.775   1.511  0.2315 -0.0830 -0.1340
   73MOL0     C 9524   5.910   4.836   1.645  0.1160  0.7464 -0.9968
   73MOL0     C 9525   5.841   4.973   1.641  0.2163 -0.2472 -0.1236
   73MOL0     C 9526   5.680   4.956   1.644  0.1651 -0.9077  0.4287
   73MOL0     C 9527   5.618   5.044   1.528 -0.5400 -0.0255  0.1567
   73MOL0     O 9528   5.628   5.183   1.559 -0.3197  0.4734  0.0853
   73MOL0     C 9529   5.562   5.267   1.473  0.3722 -0.1557 -0.3974
   73MOL0     C 9530   5.540   5.400   1.508  0.5246 -0.4372  0.5844
   73MOL0     C 9531   5.498   5.489   1.406 -0.4789 -0.8951 -0.7844
   73MOL0     C 9532   5.461   5.447   1.279 -0.3813 -1.0666 -0.5185
   73MOL0     C 9533   5.392   5.545   1.194  0.0340 -0.4100 -0.1323
   73MOL0     O 9534   5.310   5.631   1.261  0.0708  0.4428  0.4792
   73MOL0     C 9535   5.225   5.705   1.178 -0.2031 -0.3939 -0.9812
   73MOL0     C 9536   5.092   5.682   1.191  0.7707  0.4578 -0.1884
   73MOL0     C 9537   4.998   5.744   1.109  0.6684 -0.3284  0.5000
   73MOL0     C 9538   5.034   5.833   1.008 -0.0478 -0.8369 -0.4997
   73MOL0     O 9539   4.930   5.889   0.938  0.5392  0.1931  0.6618
   73MOL0     C 9540   4.943   6.029   0.897  0.7490 -0.6328 -0.2612
   73MOL0     C 9541   4.931   6.119   1.022  0.2452  1.2955 -0.5666
   73MOL0     C 9542   4.943   6.264   0.993 -0.2598  0.0333  0.2829
   73MOL0     C 9543   4.838   6.306   0.899 -0.2983  0.4231 -0.1593
   73MOL0     C 9544   4.826   6.455   0.909 -0.0685  0.3880  1.0875
   73MOL0     C 9545   4.727   6.495   0.798  0.3173 -0.7438 -0.6076
   73MOL0     C 9546   4.699   6.654   0.829 -0.0611  1.2051  0.6690
   73MOL0     C 9547   4.587   6.704   0.738 -0.0923  0.3595  0.8307
   73MOL0    Cl 9548   4.433   6.612   0.760  0.2406  0.1247  0.3822
   73MOL0     C 9549   5.167   5.872   0.999  0.1210  0.3479 -0.2628
   73MOL0     C 9550   5.259   5.809   1.093 -0.4098 -0.4294  0.0354
   73MOL0     O 9551   5.412   5.530   1.071 -0.4552  0.3725  0.0474
   73MOL0     C 9552   5.486   5.322   1.246  0.0068  1.2797 -0.0889
   73MOL0     C 9553   5.533   5.224   1.341  0.1428  0.7453 -0.6020
   73MOL0     N 9554   5.846   4.656   1.479 -0.4612  1.8650  0.2727
   73MOL0     N 9555   5.871   4.632   1.358  0.5110  0.0629 -0.0298
   73MOL0     C 9556   5.984   4.339   0.551 -0.6440  0.0396  0.7520
   73MOL0     C 9557   5.859   4.384   0.518 -0.6517 -0.3774  1.0339
   73MOL0     C 9558   5.430   4.526   0.506  0.5995  0.3988 -1.2719
   73MOL0     C 9559   5.348   4.644   0.514  0.0737  0.8664 -0.4184
   73MOL0     C 9560   5.229   4.657   0.442 -0.1874 -0.7704 -0.5828
   73MOL0     C 9561   5.175   4.552   0.374  0.2058  0.3114 -0.3263
   73MOL0     O 9562   5.061   4.568   0.300  0.1520 -0.0214 -0.2975
   73MOL0     C 9563   5.048   4.490   0.175  0.2777 -0.5044 -0.2965
   73MOL0     C 9564   4.907   4.485   0.116 -0.2608  0.6634 -0.6138
   73MOL0     C 9565   4.834   4.382   0.210  0.1765  0.9669  0.0899
   73MOL0     C 9566   4.688   4.379   0.177  0.5298  0.3639  0.2604
   73MOL0     C 9567   4.615   4.499   0.232 -0.6703 -0.4982 -0.1368
   73MOL0     C 9568   4.546   4.579   0.295 -0.5228 -0.2541  0.0849
   73MOL0     C 9569   5.249   4.435   0.369 -0.7940  0.1599 -0.4728
   73MOL0     C 9570   5.371   4.418   0.435  0.4694 -0.8787 -0.1127
   73MOL0     H 9571   5.710   4.394   0.812  0.8934  3.7428 -0.3108
   73MOL0     H 9572   5.929   4.330   0.892  2.3109  1.1945 -0.3978
   73MOL0     H 9573   6.201   4.084   0.750  0.1650 -2.2709  1.6946
   73MOL0     H 9574   6.063   4.135   0.849 -0.8417  0.0263 -0.8996
   73MOL0     H 9575   6.367   4.235   0.841  0.5618 -2.1423  0.4410
   73MOL0     H 9576   6.310   4.135   0.971  0.9284  2.9526  3.3672
   73MOL0     H 9577   6.203   4.403   0.943 -0.3413 -1.9071 -1.4614
   73MOL0     H 9578   6.326   4.363   1.064 -2.2338 -0.1722  4.7449
   73MOL0     H 9579   6.072   4.221   1.047  1.7708 -1.5101  0.5349
   73MOL0     H 9580   6.199   4.205   1.164 -0.9471 -2.5362 -1.9013
   73MOL0     H 9581   5.993   4.327   1.246  1.6257 -4.0942  0.0521
   73MOL0     H 9582   5.990   4.431   1.109  0.7362  2.3197  1.6364
   73MOL0     H 9583   6.255   4.442   1.266 -2.1445 -7.1499  4.8605
   73MOL0     H 9584   6.116   4.474   1.365 -0.3315  0.7643  0.3526
   73MOL0     H 9585   6.217   4.687   1.278  0.8792  0.5688 -1.1875
   73MOL0     H 9586   6.220   4.636   1.119 -1.5098 -1.0624 -0.1066
   73MOL0     H 9587   5.956   4.637   1.115 -0.6352 -0.3746  1.2892
   73MOL0     H 9588   6.041   4.782   1.115  0.9942 -0.8516 -1.3369
   73MOL0     H 9589   6.053   4.898   1.399  1.9593 -1.2087 -1.5836
   73MOL0     H 9590   6.015   4.843   1.674  1.3831  0.3350 -4.9535
   73MOL0     H 9591   5.847   4.774   1.710  0.4907 -0.4095 -1.7126
   73MOL0     H 9592   5.871   5.039   1.559 -0.4270  1.3927  0.9199
   73MOL0     H 9593   5.859   5.036   1.728  0.7083  1.5036 -1.4482
   73MOL0     H 9594   5.645   4.852   1.639 -0.1256 -0.7821 -0.3180
   73MOL0     H 9595   5.639   4.991   1.739 -0.2845  1.2563 -0.5104
   73MOL0     H 9596   5.512   5.019   1.518 -0.9179  1.1578  1.0878
   73MOL0     H 9597   5.676   5.028   1.437 -1.9797  0.3114 -0.8573
   73MOL0     H 9598   5.575   5.446   1.600  2.2747  0.3710 -0.4393
   73MOL0     H 9599   5.468   5.585   1.446 -5.3824 -2.5129  0.2239
   73MOL0     H 9600   5.053   5.620   1.271 -0.1266 -0.5797 -1.4004
   73MOL0     H 9601   4.894   5.714   1.113  0.0462  1.8021  1.5729
   73MOL0     H 9602   4.857   6.049   0.833 -0.0189  0.9104  1.1870
   73MOL0     H 9603   5.035   6.048   0.841  0.0756  0.4806 -1.0236
   73MOL0     H 9604   5.010   6.091   1.092  0.9286 -3.1226 -2.7240
   73MOL0     H 9605   4.835   6.092   1.068  1.0174 -1.3447 -0.3187
   73MOL0     H 9606   5.038   6.272   0.938 -0.4901 -3.2620 -0.7988
   73MOL0     H 9607   4.940   6.330   1.080  0.9340 -0.0155  0.3795
   73MOL0     H 9608   4.859   6.281   0.795  2.1336  1.3298  0.0440
   73MOL0     H 9609   4.741   6.268   0.932  0.0670  1.4634  2.3038
   73MOL0     H 9610   4.919   6.511   0.897 -0.4416  0.5295 -2.1120
   73MOL0     H 9611   4.791   6.495   1.004 -0.5754  3.5523 -0.3181
   73MOL0     H 9612   4.635   6.437   0.811 -1.5410  2.0084 -0.6619
   73MOL0     H 9613   4.761   6.476   0.696 -0.5715 -0.1735 -1.0239
   73MOL0     H 9614   4.667   6.668   0.933  0.6182 -0.8639  1.2071
   73MOL0     H 9615   4.787   6.718   0.822 -0.7127  1.9241 -2.6786
   73MOL0     H 9616   4.619   6.688   0.635  1.2315 -2.1589  1.5366
   73MOL0     H 9617   4.566   6.809   0.762 -0.5585  0.1599  1.3121
   73MOL0     H 9618   5.206   5.931   0.917  1.6609  0.3557  0.4359
   73MOL0     H 9619   5.363   5.841   1.099  1.2617 -4.9101 -0.4506
   73MOL0     H 9620   5.474   5.289   1.143 -1.0068 -2.1773  0.9972
   73MOL0     H 9621   5.541   5.119   1.312  0.6844 -0.9366  4.5507
   73MOL0     H 9622   6.056   4.305   0.477 -1.7850 -1.1729  0.1599
   73MOL0     H 9623   5.833   4.414   0.417 -3.8745 -0.5624  1.6961
   73MOL0     H 9624   5.378   4.728   0.577  1.3682 -0.0596  0.2431
   73MOL0     H 9625   5.171   4.748   0.455  1.8678  0.9568 -2.5375
   73MOL0     H 9626   5.072   4.384   0.186 -0.4797 -1.1088 -3.5023
   73MOL0     H 9627   5.123   4.519   0.101 -0.0636 -3.4904 -1.9934
   73MOL0     H 9628   4.853   4.580   0.116 -0.4028  0.5927  0.2028
   73MOL0     H 9629   4.903   4.445   0.015 -0.1299  1.2194 -0.8397
   73MOL0     H 9630   4.840   4.393   0.318  1.5944 -2.4236  0.4908
   73MOL0     H 9631   4.873   4.284   0.180 -0.3314  0.6871  0.3228
   73MOL0     H 9632   4.683   4.364   0.069 -1.3836 -4.0239  0.7480
   73MOL0     H 9633   4.642   4.286   0.213 -1.1466  0.3775 -1.6828
   73MOL0     H 9634   4.490   4.652   0.350  1.5177 -0.2229  2.2752
   73MOL0     H 9635   5.210   4.337   0.340 -1.8450 -0.4158  2.5121
   73MOL0     H 9636   5.427   4.325   0.427  1.7959 -0.0640 -0.4926
   74MOL0     O 9637   3.131   7.517   1.439 -0.2188  0.3140  0.0684
   74MOL0     C 9638   3.019   7.461   1.424  0.2598 -0.4706  0.7335
   74MOL0     O 9639   2.893   7.516   1.425  0.1446  0.1074  1.1988
   74MOL0     C 9640   2.891   7.648   1.472 -0.1469  0.2979 -0.7034
   74MOL0     C 9641   2.819   7.735   1.398 -0.2007  0.3165  0.2156
   74MOL0     C 9642   2.786   7.856   1.462  0.4680 -0.5626 -0.1083
   74MOL0     C 9643   2.819   7.884   1.598  0.1615  0.5423  0.9109
   74MOL0     O 9644   2.786   7.997   1.666 -0.4128  0.8995 -0.2208
   74MOL0     C 9645   2.700   8.093   1.605  0.4870  0.1386  1.0949
   74MOL0     C 9646   2.555   8.044   1.593 -0.0485 -0.5943  0.0568
   74MOL0     C 9647   2.492   8.017   1.731 -0.1757  0.2735  0.4292
   74MOL0     C 9648   2.338   8.001   1.721  0.4753  1.0002 -0.3352
   74MOL0     C 9649   2.267   7.982   1.853 -0.1688 -1.0593 -0.2831
   74MOL0     C 9650   2.304   7.846   1.941  0.1123 -0.5969  0.3874
   74MOL0     C 9651   2.316   7.719   1.842  0.1213  0.1357 -0.0630
   74MOL0     C 9652   2.182   7.687   1.778 -0.0071 -0.1813  0.8929
   74MOL0     N 9653   2.109   7.596   1.865  0.5037 -0.1128  1.4628
   74MOL0     C 9654   2.134   7.466   1.892 -0.0472  0.0991  0.1379
   74MOL0     C 9655   2.028   7.439   1.972  0.2656  0.0022  0.1844
   74MOL0     C 9656   1.995   7.302   2.016  0.6100 -0.7725  0.6110
   74MOL0     C 9657   1.851   7.279   1.999  0.3911 -0.3363 -0.4724
   74MOL0     C 9658   1.798   7.282   1.854 -0.4098 -0.5083 -0.8445
   74MOL0     C 9659   1.649   7.259   1.858 -0.1762 -0.3194 -0.0122
   74MOL0     O 9660   1.590   7.270   1.731  0.3211  0.3496  0.3403
   74MOL0     C 9661   1.466   7.220   1.709 -0.2107 -0.2811 -0.5359
   74MOL0     C 9662   1.458   7.091   1.690  0.4198  1.0184  0.2328
   74MOL0     C 9663   1.338   7.030   1.655  0.4827  0.3074  1.1181
   74MOL0     C 9664   1.212   7.103   1.665  0.3031 -0.7385  0.6112
   74MOL0     C 9665   1.088   7.046   1.645  0.1506 -0.1022 -0.2958
   74MOL0     O 9666   0.981   7.110   1.700 -0.4188 -0.7582  0.0179
   74MOL0     C 9667   0.870   7.061   1.660 -0.4078 -1.9201  0.1866
   74MOL0     C 9668   0.810   7.135   1.554  0.5499 -0.1089  0.2378
   74MOL0     C 9669   0.683   7.087   1.506  0.1047  0.5401  0.2106
   74MOL0     C 9670   0.624   6.972   1.564  0.1142  0.0528  0.8970
   74MOL0     O 9671   0.496   6.928   1.531 -0.3635 -0.7733 -0.0594
   74MOL0     C 9672   0.404   7.010   1.471 -0.1708 -0.5702 -1.3132
   74MOL0     C 9673   0.398   6.968   1.326  0.8970  0.2819 -0.4155
   74MOL0     C 9674   0.280   7.025   1.248  0.3852 -0.1080  0.1226
   74MOL0     C 9675   0.289   6.990   1.098 -1.7737  0.3067 -0.2678
   74MOL0     C 9676   0.247   6.850   1.064 -0.2574 -0.2583 -0.1450
   74MOL0     C 9677   0.283   6.821   0.916  0.3526 -0.0338 -0.2391
   74MOL0     C 9678   0.178   6.743   0.853  0.7749  0.7144  0.1420
   74MOL0     C 9679   0.174   6.763   0.700 -0.0216 -0.0194  0.2523
   74MOL0    Cl 9680   0.091   6.929   0.682 -0.2786 -0.3466  0.3375
   74MOL0     C 9681   0.698   6.898   1.659  0.9639 -0.4488 -0.3710
   74MOL0     C 9682   0.814   6.951   1.718  0.2170  0.0838 -0.2922
   74MOL0     O 9683   1.089   6.935   1.592  0.4739 -0.2769  0.1294
   74MOL0     C 9684   1.228   7.244   1.683  0.2893 -0.4290 -0.0767
   74MOL0     C 9685   1.349   7.300   1.708 -0.3519 -0.2196  0.2454
   74MOL0     N 9686   1.951   7.550   2.006 -0.0377  0.5993 -0.1813
   74MOL0     N 9687   2.000   7.646   1.932  1.0265 -0.5214 -1.2602
   74MOL0     C 9688   2.889   7.791   1.669  0.2061 -0.1591  0.3524
   74MOL0     C 9689   2.933   7.677   1.607  0.0189  0.4091 -0.3585
   74MOL0     C 9690   3.021   7.315   1.383 -0.7605 -0.0307 -0.1418
   74MOL0     C 9691   3.143   7.243   1.394 -0.7852 -0.0817 -0.1302
   74MOL0     C 9692   3.156   7.107   1.387 -0.4942  1.0797  0.1800
   74MOL0     C 9693   3.040   7.035   1.353  0.6646 -0.1657  0.0232
   74MOL0     O 9694   3.025   6.894   1.339  0.3118 -0.3997 -0.1199
   74MOL0     C 9695   3.127   6.803   1.380  0.2094 -0.6857 -1.0040
   74MOL0     C 9696   3.099   6.661   1.332  0.8216 -0.6910 -0.1189
   74MOL0     C 9697   3.181   6.551   1.398  0.2707 -0.6385  0.0824
   74MOL0     C 9698   3.331   6.560   1.364  0.3069 -0.4157  0.6017
   74MOL0     C 9699   3.411   6.647   1.449 -0.0483 -1.0205  1.9153
   74MOL0     C 9700   3.462   6.736   1.511 -0.0686 -0.8297  1.2679
   74MOL0     C 9701   2.917   7.106   1.341  1.3401  0.2514  0.0154
   74MOL0     C 9702   2.914   7.243   1.354  0.1208  0.5591 -0.3265
   74MOL0     H 9703   2.791   7.717   1.295  0.1126 -1.0814  0.3545
   74MOL0     H 9704   2.731   7.929   1.405 -1.9720 -0.4493  2.1661
   74MOL0     H 9705   2.738   8.119   1.506 -2.1655 -1.4681 -0.4950
   74MOL0     H 9706   2.704   8.189   1.657  4.5500  0.8339 -0.1953
   74MOL0     H 9707   2.556   7.956   1.529 -1.3903  1.6447 -3.3494
   74MOL0     H 9708   2.489   8.112   1.537  0.4618 -0.9575 -1.0116
   74MOL0     H 9709   2.503   8.099   1.802 -2.4165  1.0034  0.0250
   74MOL0     H 9710   2.550   7.937   1.777  0.2807  1.1153  1.3639
   74MOL0     H 9711   2.300   8.088   1.667  1.0454  1.8135  0.5441
   74MOL0     H 9712   2.328   7.912   1.658 -1.2279 -0.4187  1.7922
   74MOL0     H 9713   2.159   7.972   1.840 -0.6869  0.7841  1.9164
   74MOL0     H 9714   2.285   8.073   1.911 -0.6006 -0.5622 -0.9104
   74MOL0     H 9715   2.238   7.828   2.026 -1.0924  0.4573 -0.2958
   74MOL0     H 9716   2.404   7.856   1.983  2.0150  0.4399 -3.8128
   74MOL0     H 9717   2.388   7.745   1.764 -0.4881 -0.4998 -0.8557
   74MOL0     H 9718   2.351   7.633   1.899 -2.6193 -0.6330  0.5779
   74MOL0     H 9719   2.203   7.624   1.691 -1.7060 -1.0549  1.0761
   74MOL0     H 9720   2.119   7.771   1.747 -0.7548 -1.1834 -0.3492
   74MOL0     H 9721   2.209   7.403   1.846  0.9760  1.1322  0.3420
   74MOL0     H 9722   2.016   7.284   2.121 -2.4607 -1.5011  1.2172
   74MOL0     H 9723   2.055   7.234   1.955  0.6351  0.6966 -1.1132
   74MOL0     H 9724   1.786   7.334   2.067 -0.8011 -1.6619 -0.4782
   74MOL0     H 9725   1.836   7.175   2.031 -2.8942  0.7533  2.1953
   74MOL0     H 9726   1.824   7.376   1.804  0.7214 -0.4220 -0.1286
   74MOL0     H 9727   1.844   7.200   1.799 -1.2311 -0.9256 -0.9221
   74MOL0     H 9728   1.599   7.327   1.928 -0.5108  0.2385 -0.7829
   74MOL0     H 9729   1.636   7.155   1.891  1.7646 -1.2360 -1.9158
   74MOL0     H 9730   1.554   7.041   1.696 -0.8253 -1.4721  0.8264
   74MOL0     H 9731   1.335   6.924   1.632 -0.8330  0.8937 -1.8804
   74MOL0     H 9732   0.854   7.228   1.520 -0.2092 -1.0628 -3.8759
   74MOL0     H 9733   0.638   7.146   1.427 -0.4491  0.5797  0.5486
   74MOL0     H 9734   0.423   7.114   1.496  0.0314 -0.6216 -1.2491
   74MOL0     H 9735   0.308   6.996   1.523  1.3093  0.2254  1.8688
   74MOL0     H 9736   0.405   6.860   1.315 -1.7217  0.1660 -1.6947
   74MOL0     H 9737   0.492   7.009   1.287 -0.1745  4.6873  1.0795
   74MOL0     H 9738   0.272   7.134   1.241  0.1931 -0.2153 -2.1978
   74MOL0     H 9739   0.182   6.988   1.281 -0.4562  1.0755 -0.9151
   74MOL0     H 9740   0.247   7.065   1.031 -0.0807  0.9385 -0.6635
   74MOL0     H 9741   0.393   6.994   1.063 -0.7012 -0.6952  2.4913
   74MOL0     H 9742   0.142   6.831   1.086 -1.2910  3.4733 -1.2324
   74MOL0     H 9743   0.311   6.790   1.130  0.9374  2.6794  1.5907
   74MOL0     H 9744   0.376   6.766   0.900  1.6801  0.6534  3.9806
   74MOL0     H 9745   0.293   6.916   0.861 -1.7135  2.3388  3.1003
   74MOL0     H 9746   0.213   6.639   0.858 -0.3100  0.2879 -0.7892
   74MOL0     H 9747   0.082   6.742   0.903  1.4674 -0.4142  1.5172
   74MOL0     H 9748   0.117   6.688   0.643  0.1094 -1.5334  2.0213
   74MOL0     H 9749   0.276   6.769   0.663 -1.1605 -4.4684 -4.8119
   74MOL0     H 9750   0.644   6.819   1.710  1.8848  0.0909  1.5334
   74MOL0     H 9751   0.866   6.898   1.797  1.9322  2.7757  0.5131
   74MOL0     H 9752   1.144   7.312   1.690 -0.1559 -1.1660  2.8136
   74MOL0     H 9753   1.351   7.408   1.721 -2.3176 -0.2147  0.8773
   74MOL0     H 9754   2.893   7.798   1.777 -0.8778  0.7564  0.3483
   74MOL0     H 9755   2.982   7.598   1.662 -2.7476 -0.0139  1.7066
   74MOL0     H 9756   3.232   7.304   1.404 -1.3899  0.8629 -0.3683
   74MOL0     H 9757   3.250   7.054   1.401 -0.9559  0.0415 -0.4884
   74MOL0     H 9758   3.126   6.804   1.489  1.2713 -2.0810 -0.9477
   74MOL0     H 9759   3.224   6.838   1.343 -1.4220  0.7974 -4.2848
   74MOL0     H 9760   2.997   6.638   1.365  1.4539  1.5929  4.2026
   74MOL0     H 9761   3.108   6.661   1.223  1.3921 -1.0298 -0.0765
   74MOL0     H 9762   3.142   6.453   1.369  3.0116 -1.1257 -2.3657
   74MOL0     H 9763   3.171   6.557   1.507  0.1886 -0.4675  0.0667
   74MOL0     H 9764   3.367   6.457   1.380 -0.9534 -1.2271 -1.3766
   74MOL0     H 9765   3.345   6.576   1.257 -0.8024 -1.9786  0.1770
   74MOL0     H 9766   3.508   6.819   1.562  0.1444 -0.8148  1.0546
   74MOL0     H 9767   2.824   7.059   1.312  1.7898 -1.3492  1.0322
   74MOL0     H 9768   2.817   7.289   1.365 -1.0852 -2.0115  0.8053
   75MOL0     O 9769   4.737   8.946   5.880  0.1479 -0.2405  0.1747
   75MOL0     C 9770   4.640   9.023   5.865  0.6268 -0.3909  0.5900
   75MOL0     O 9771   4.619   9.147   5.926  0.3253 -0.1706 -0.9064
   75MOL0     C 9772   4.706   9.185   6.025 -0.1062 -0.0724  0.5998
   75MOL0     C 9773   4.760   9.315   6.033 -0.4786 -0.3950 -0.6898
   75MOL0     C 9774   4.837   9.360   6.146 -0.0381  0.5810 -0.2751
   75MOL0     C 9775   4.878   9.270   6.242  0.1746  0.7456 -0.9711
   75MOL0     O 9776   4.960   9.319   6.340 -0.0711 -0.2410  0.5906
   75MOL0     C 9777   4.991   9.251   6.459  0.3751 -0.4928  0.4618
   75MOL0     C 9778   5.078   9.342   6.533 -0.3477 -0.1768 -0.6771
   75MOL0     C 9779   5.102   9.291   6.682 -0.5809  0.2620 -0.3618
   75MOL0     C 9780   5.185   9.392   6.762  0.0993 -0.2584 -0.4812
   75MOL0     C 9781   5.339   9.384   6.732 -0.3331 -0.0488  0.1543
   75MOL0     C 9782   5.446   9.433   6.840  0.2985  0.7953  1.1570
   75MOL0     C 9783   5.404   9.546   6.929  0.2427  0.2957 -0.6592
   75MOL0     C 9784   5.393   9.683   6.855  0.9024 -0.5812  0.3341
   75MOL0     N 9785   5.510   9.772   6.870  0.1476  0.1881 -0.5372
   75MOL0     C 9786   5.503   9.903   6.912  0.0193  0.3336  0.8315
   75MOL0     C 9787   5.638   9.939   6.919 -0.2090 -0.6459 -0.5394
   75MOL0     C 9788   5.684  10.081   6.950 -0.6664  0.0016 -1.0346
   75MOL0     C 9789   5.797  10.079   7.053 -0.2775  0.3457  0.0503
   75MOL0     C 9790   5.869  10.204   7.096  0.8260 -0.6420 -0.0976
   75MOL0     C 9791   5.787  10.287   7.191  0.4682  0.2467  0.6202
   75MOL0     O 9792   5.778  10.203   7.303 -0.1341  0.8215  0.0749
   75MOL0     C 9793   5.699  10.235   7.411  0.7113  0.3067 -0.4136
   75MOL0     C 9794   5.654  10.364   7.440  0.3187 -0.1927 -0.4160
   75MOL0     C 9795   5.571  10.375   7.553  0.8392 -1.2032  0.7820
   75MOL0     C 9796   5.540  10.273   7.640 -0.7837 -0.8395  0.6997
   75MOL0     C 9797   5.482  10.289   7.775 -0.3653  0.6558  0.4511
   75MOL0     O 9798   5.423  10.179   7.838 -0.1143 -0.2158  0.7399
   75MOL0     C 9799   5.351  10.205   7.955  0.0538  0.9587 -0.2213
   75MOL0     C 9800   5.288  10.332   7.989 -0.5941  1.6021  0.2093
   75MOL0     C 9801   5.233  10.344   8.112  0.1318 -0.8155  0.4302
   75MOL0     C 9802   5.222  10.239   8.201 -0.5000 -1.0781 -0.1824
   75MOL0     O 9803   5.168  10.260   8.330 -0.4208  0.1212 -0.8842
   75MOL0     C 9804   5.027  10.274   8.330 -0.1424 -0.1529  0.4778
   75MOL0     C 9805   4.960  10.272   8.472  0.6082  0.9153  0.3320
   75MOL0     C 9806   4.995  10.410   8.544 -0.2002  0.3138 -0.1176
   75MOL0     C 9807   4.906  10.440   8.664  0.1609 -0.9507  0.2306
   75MOL0     C 9808   4.982  10.505   8.789  0.8024  0.2281  0.1819
   75MOL0     C 9809   5.062  10.628   8.748  0.2035 -0.4306  0.4812
   75MOL0     C 9810   5.161  10.669   8.859  0.0276 -0.3919  0.2383
   75MOL0     C 9811   5.247  10.798   8.835  0.7612 -0.5417 -0.5536
   75MOL0    Cl 9812   5.135  10.933   8.806 -0.3768  0.0405  0.1737
   75MOL0     C 9813   5.288  10.121   8.168 -0.1531  0.1927 -0.6040
   75MOL0     C 9814   5.345  10.101   8.049 -1.3667  0.0394  0.5931
   75MOL0     O 9815   5.490  10.400   7.816 -0.1546 -0.5659  0.3581
   75MOL0     C 9816   5.595  10.149   7.614 -0.6588  1.0247 -0.2363
   75MOL0     C 9817   5.676  10.134   7.501  0.9108  0.4920  0.6144
   75MOL0     N 9818   5.717   9.828   6.898  0.5381 -0.2588  0.9187
   75MOL0     N 9819   5.640   9.726   6.858  0.1281 -0.6379  0.5151
   75MOL0     C 9820   4.829   9.142   6.241  0.9297  0.3642  0.3116
   75MOL0     C 9821   4.733   9.101   6.141  0.2426 -0.3149 -0.8251
   75MOL0     C 9822   4.529   8.971   5.784  0.3946  0.2574  0.0330
   75MOL0     C 9823   4.430   9.056   5.738 -0.0866 -0.9369 -0.5778
   75MOL0     C 9824   4.329   9.001   5.654 -0.0403  0.0068  0.8525
   75MOL0     C 9825   4.334   8.874   5.597 -0.3796  0.3508  0.4834
   75MOL0     O 9826   4.231   8.835   5.520  0.1057 -0.0112  0.1812
   75MOL0     C 9827   4.236   8.706   5.449 -0.1547 -1.0066  1.5341
   75MOL0     C 9828   4.129   8.725   5.335 -0.1015 -0.9723 -0.9091
   75MOL0     C 9829   4.096   8.590   5.274 -1.9810  0.3327  0.4174
   75MOL0     C 9830   4.219   8.517   5.218 -0.5077 -0.1584 -0.6151
   75MOL0     C 9831   4.284   8.425   5.315 -0.0989 -0.7147 -0.0107
   75MOL0     C 9832   4.338   8.359   5.388  0.1651  1.0918 -1.0088
   75MOL0     C 9833   4.441   8.793   5.638 -1.0026 -0.0867 -0.6446
   75MOL0     C 9834   4.528   8.839   5.730  0.5474  0.4962  0.4858
   75MOL0     H 9835   4.748   9.387   5.953  4.6089  0.9322 -0.5648
   75MOL0     H 9836   4.874   9.462   6.153  0.8824  0.1901  1.0815
   75MOL0     H 9837   5.045   9.159   6.433 -2.4807 -1.4242 -2.8982
   75MOL0     H 9838   4.902   9.221   6.515  0.1304  0.2332  0.4660
   75MOL0     H 9839   5.019   9.434   6.546 -1.7102 -1.2296  1.1067
   75MOL0     H 9840   5.174   9.367   6.487  0.5323 -1.6753  0.2779
   75MOL0     H 9841   5.153   9.194   6.671  3.0981  2.0159 -0.1696
   75MOL0     H 9842   5.013   9.283   6.744  1.2362  1.4421  2.6350
   75MOL0     H 9843   5.155   9.497   6.753 -1.1725 -0.4660  0.8605
   75MOL0     H 9844   5.173   9.356   6.865 -0.1709 -1.9064 -1.0559
   75MOL0     H 9845   5.350   9.452   6.647 -1.2769 -0.8813 -0.6599
   75MOL0     H 9846   5.371   9.283   6.704 -1.2760 -0.4012  0.3109
   75MOL0     H 9847   5.549   9.445   6.804  0.0342  0.7323  0.3557
   75MOL0     H 9848   5.462   9.341   6.897  1.8818 -0.9914 -1.8922
   75MOL0     H 9849   5.305   9.522   6.969 -0.4620  3.6110 -0.1161
   75MOL0     H 9850   5.482   9.544   7.005  0.3007  2.4547 -0.5934
   75MOL0     H 9851   5.301   9.735   6.884  0.4870 -0.9043 -0.3819
   75MOL0     H 9852   5.364   9.650   6.755 -1.2150  0.6840  0.4626
   75MOL0     H 9853   5.410   9.958   6.918 -0.2740  0.3779 -2.3525
   75MOL0     H 9854   5.590  10.127   6.983 -0.3435  1.3446 -1.9165
   75MOL0     H 9855   5.728  10.122   6.858 -0.1926 -0.6202 -1.0884
   75MOL0     H 9856   5.877  10.011   7.021 -0.2554 -0.8133  2.3528
   75MOL0     H 9857   5.754  10.026   7.138 -0.7288  1.4527  0.5258
   75MOL0     H 9858   5.966  10.180   7.140  2.1051 -0.5496 -2.6632
   75MOL0     H 9859   5.892  10.259   7.004  3.7568 -2.0122 -0.2905
   75MOL0     H 9860   5.684  10.303   7.156  0.2689 -2.1136 -0.0258
   75MOL0     H 9861   5.828  10.386   7.213 -2.0160  1.1428  1.5429
   75MOL0     H 9862   5.680  10.455   7.388 -2.3723  1.8795  1.5929
   75MOL0     H 9863   5.534  10.475   7.570 -0.4762 -1.3858 -0.7891
   75MOL0     H 9864   5.289  10.421   7.927 -1.6079  0.4171 -1.6150
   75MOL0     H 9865   5.191  10.441   8.135  1.6557  0.2001 -0.8775
   75MOL0     H 9866   4.978  10.198   8.269 -0.4315 -1.0387  1.7663
   75MOL0     H 9867   4.994  10.368   8.284 -0.7707 -0.9858 -0.8340
   75MOL0     H 9868   4.993  10.193   8.541  1.0087  0.9432  0.1762
   75MOL0     H 9869   4.853  10.263   8.453  0.8002 -2.7065  0.2759
   75MOL0     H 9870   4.973  10.493   8.476 -0.9801 -1.2978 -1.9461
   75MOL0     H 9871   5.101  10.402   8.568 -0.3833 -1.2988  0.2844
   75MOL0     H 9872   4.832  10.512   8.628 -0.0799 -2.3738 -2.3355
   75MOL0     H 9873   4.845  10.352   8.686 -2.1051 -0.4734 -3.3551
   75MOL0     H 9874   5.052  10.436   8.836 -0.8944 -2.1449 -0.6175
   75MOL0     H 9875   4.905  10.538   8.860  2.3724  1.6011  1.3190
   75MOL0     H 9876   4.997  10.710   8.717  0.9599  0.5517  1.4474
   75MOL0     H 9877   5.124  10.595   8.664 -2.1001 -0.0476 -1.4780
   75MOL0     H 9878   5.103  10.694   8.948  0.2392  2.1503 -0.2599
   75MOL0     H 9879   5.232  10.592   8.888 -2.0658 -1.9852  1.4107
   75MOL0     H 9880   5.300  10.782   8.741  0.4962 -0.6010 -0.6939
   75MOL0     H 9881   5.317  10.804   8.919 -0.9958 -0.9031  1.0183
   75MOL0     H 9882   5.293  10.043   8.244  0.2896  0.0029 -0.8242
   75MOL0     H 9883   5.397  10.010   8.020  0.9883  1.0141  1.4354
   75MOL0     H 9884   5.568  10.066   7.679 -0.0440  1.0362  0.0453
   75MOL0     H 9885   5.717  10.040   7.464 -2.3405 -0.9033  0.2437
   75MOL0     H 9886   4.844   9.067   6.318 -0.7573  0.9109  1.2056
   75MOL0     H 9887   4.680   9.007   6.153 -1.0173  0.4225 -0.4624
   75MOL0     H 9888   4.434   9.162   5.760  1.4299 -1.0430 -0.2340
   75MOL0     H 9889   4.243   9.064   5.630 -0.1931  0.8345  3.2995
   75MOL0     H 9890   4.207   8.642   5.532  2.8296 -1.7329  2.1165
   75MOL0     H 9891   4.328   8.682   5.395  0.7201  0.4924  2.3031
   75MOL0     H 9892   4.043   8.753   5.397  1.7257 -2.3753  2.5434
   75MOL0     H 9893   4.162   8.809   5.272 -1.2879  1.3889  1.3946
   75MOL0     H 9894   4.038   8.622   5.187  0.8009  1.3728 -1.2073
   75MOL0     H 9895   4.031   8.527   5.336 -1.0406 -0.5398  0.5449
   75MOL0     H 9896   4.185   8.457   5.133 -2.8429  0.3061 -0.0858
   75MOL0     H 9897   4.305   8.581   5.197  2.2247 -2.7117  1.7812
   75MOL0     H 9898   4.388   8.288   5.451  0.3313  1.1664 -1.0593
   75MOL0     H 9899   4.457   8.689   5.613  0.0771 -0.6575  2.1355
   75MOL0     H 9900   4.602   8.770   5.768  1.1988  2.2076  2.5480
   76MOL0     O 9901   3.205  10.080   3.986 -0.2279 -0.2591  0.1296
   76MOL0     C 9902   3.318  10.081   3.944 -0.2441 -0.0295 -0.4164
   76MOL0     O 9903   3.434  10.115   4.010 -0.8320  0.7456 -0.3995
   76MOL0     C 9904   3.415  10.183   4.127  0.7591 -0.2668  0.1403
   76MOL0     C 9905   3.420  10.129   4.250 -0.2330 -0.1085  0.0075
   76MOL0     C 9906   3.390  10.197   4.364  0.3345 -0.8382 -0.4552
   76MOL0     C 9907   3.353  10.321   4.362 -0.0847 -0.5322  0.7472
   76MOL0     O 9908   3.333  10.395   4.475 -0.7498  0.2910  0.5064
   76MOL0     C 9909   3.191  10.422   4.497  0.2051 -0.4687  0.0737
   76MOL0     C 9910   3.164  10.496   4.632 -1.0185  1.3482 -0.1413
   76MOL0     C 9911   3.203  10.394   4.745 -0.9261 -1.0323  0.0136
   76MOL0     C 9912   3.165  10.455   4.879  0.1336 -0.1882  0.5176
   76MOL0     C 9913   3.227  10.389   5.006 -0.8027 -0.2931 -0.3087
   76MOL0     C 9914   3.169  10.435   5.135 -0.0324 -0.2071 -0.4382
   76MOL0     C 9915   3.252  10.530   5.229  0.4963  0.1071  0.6910
   76MOL0     C 9916   3.214  10.529   5.373  0.0075  0.5063 -0.4297
   76MOL0     N 9917   3.067  10.534   5.408 -0.4989 -0.6488  0.4482
   76MOL0     C 9918   2.977  10.434   5.394  0.4037 -0.2007  0.7411
   76MOL0     C 9919   2.860  10.500   5.394  0.1828  0.3820  0.0137
   76MOL0     C 9920   2.724  10.437   5.380 -0.2470  0.2717  1.3862
   76MOL0     C 9921   2.604  10.491   5.452  0.2929  0.2392 -0.8893
   76MOL0     C 9922   2.617  10.463   5.599 -0.7701  0.0632 -0.1768
   76MOL0     C 9923   2.587  10.317   5.624 -0.0762 -0.5626 -0.0337
   76MOL0     O 9924   2.576  10.293   5.765 -0.2601 -0.3963  0.9505
   76MOL0     C 9925   2.543  10.172   5.814  0.1071 -0.2937  0.0849
   76MOL0     C 9926   2.511  10.067   5.744  0.0075 -0.0259 -0.0170
   76MOL0     C 9927   2.484   9.953   5.818  0.7833  0.3377 -0.2908
   76MOL0     C 9928   2.502   9.942   5.958  0.8241  1.1819  0.7524
   76MOL0     C 9929   2.460   9.816   6.031  0.2081 -0.3168  0.0118
   76MOL0     O 9930   2.390   9.713   5.972  0.2676  0.4181  0.1150
   76MOL0     C 9931   2.329   9.610   6.034  0.5401  0.2507 -0.5383
   76MOL0     C 9932   2.236   9.537   5.962 -0.5511 -0.0668 -1.3520
   76MOL0     C 9933   2.180   9.424   6.018  0.0912  0.7791  0.4250
   76MOL0     C 9934   2.220   9.367   6.139 -0.2065  0.4304 -0.9648
   76MOL0     O 9935   2.135   9.276   6.194  0.9256  0.3411 -0.3543
   76MOL0     C 9936   2.095   9.294   6.325 -0.1381  0.2415 -0.7535
   76MOL0     C 9937   1.951   9.230   6.339  0.1963 -0.3355 -0.0856
   76MOL0     C 9938   1.943   9.085   6.286  0.5163 -0.2350  0.5152
   76MOL0     C 9939   1.800   9.021   6.299 -0.1974  0.8740  0.6194
   76MOL0     C 9940   1.790   8.937   6.421 -0.1906  0.1598  0.0478
   76MOL0     C 9941   1.662   8.865   6.418 -0.2218 -0.5633 -1.3325
   76MOL0     C 9942   1.540   8.957   6.463  0.4227 -0.6384 -0.4129
   76MOL0     C 9943   1.523   8.989   6.605 -0.8381  0.2942 -0.3217
   76MOL0    Cl 9944   1.384   9.097   6.606  0.3465  0.4484 -0.2279
   76MOL0     C 9945   2.319   9.439   6.211  0.0847  0.5161  0.2097
   76MOL0     C 9946   2.374   9.555   6.154  0.6958  0.0164 -0.2692
   76MOL0     O 9947   2.488   9.824   6.151  0.0507  0.2020 -0.7637
   76MOL0     C 9948   2.550  10.052   6.029 -0.2055  0.0771  0.3486
   76MOL0     C 9949   2.557  10.171   5.955 -0.2557  0.8143  0.8281
   76MOL0     N 9950   2.885  10.633   5.398 -0.6732  0.8932 -0.3888
   76MOL0     N 9951   3.006  10.661   5.415  0.0124 -0.9603  0.5300
   76MOL0     C 9952   3.354  10.396   4.236 -0.6353  0.1546 -0.7378
   76MOL0     C 9953   3.385  10.320   4.117  0.8589  0.1165  0.0085
   76MOL0     C 9954   3.336  10.030   3.810  0.5877  0.9196  0.0643
   76MOL0     C 9955   3.471  10.025   3.759  0.1492 -0.5129  0.4470
   76MOL0     C 9956   3.489   9.983   3.630  0.1607  0.6616 -0.1322
   76MOL0     C 9957   3.385   9.946   3.544  0.2168  0.2363 -0.8182
   76MOL0     O 9958   3.411   9.915   3.417  0.1796 -0.2993 -0.5570
   76MOL0     C 9959   3.346   9.798   3.366  0.9460  0.1742 -0.0988
   76MOL0     C 9960   3.440   9.754   3.259  0.3824  1.3107 -0.0941
   76MOL0     C 9961   3.368   9.624   3.208 -0.1699  0.4656 -0.0546
   76MOL0     C 9962   3.425   9.562   3.076 -0.3774 -0.6118 -0.9937
   76MOL0     C 9963   3.562   9.510   3.096 -0.8949  0.0179  0.5021
   76MOL0     C 9964   3.677   9.480   3.133  0.2043 -0.5130  0.7049
   76MOL0     C 9965   3.261   9.946   3.602  0.1381 -0.0377 -0.8567
   76MOL0     C 9966   3.225   9.990   3.733 -0.6333  0.4079  0.9668
   76MOL0     H 9967   3.445  10.024   4.247  1.2099  0.1373  1.7093
   76MOL0     H 9968   3.395  10.154   4.464  0.5253  1.5396  0.6086
   76MOL0     H 9969   3.138  10.327   4.505 -2.2743  0.2191 -4.7493
   76MOL0     H 9970   3.143  10.476   4.415 -1.0848  1.1889  1.8520
   76MOL0     H 9971   3.055  10.500   4.641 -1.1713  0.1868 -1.1838
   76MOL0     H 9972   3.220  10.589   4.643  0.8984  0.1563  0.6898
   76MOL0     H 9973   3.308  10.366   4.744 -0.6708 -0.1196 -1.8109
   76MOL0     H 9974   3.150  10.298   4.739  1.6624 -2.4864 -1.0099
   76MOL0     H 9975   3.183  10.563   4.875 -0.8799 -0.0091 -2.5322
   76MOL0     H 9976   3.057  10.439   4.886  0.3890 -3.3307 -0.8060
   76MOL0     H 9977   3.334  10.407   5.019 -0.2743 -2.0018 -1.9179
   76MOL0     H 9978   3.201  10.283   4.998  0.3393 -0.4883 -1.8466
   76MOL0     H 9979   3.151  10.346   5.197  2.1226 -0.2113  0.2588
   76MOL0     H 9980   3.079  10.494   5.114  0.9786  0.7392 -2.3577
   76MOL0     H 9981   3.358  10.507   5.215  0.2579 -0.7539  0.2287
   76MOL0     H 9982   3.248  10.632   5.190 -1.9348 -0.1472  0.0599
   76MOL0     H 9983   3.275  10.603   5.426 -1.3798  0.6339  1.0721
   76MOL0     H 9984   3.247  10.434   5.414 -2.0772 -0.9034 -1.8117
   76MOL0     H 9985   2.997  10.330   5.368 -1.6211 -0.0455 -1.7437
   76MOL0     H 9986   2.739  10.329   5.384  3.0417  0.5895  0.5685
   76MOL0     H 9987   2.700  10.451   5.275  0.4851  2.6592  1.4749
   76MOL0     H 9988   2.504  10.456   5.428 -1.4788  1.0975  3.9711
   76MOL0     H 9989   2.596  10.599   5.438  0.7184  0.2160 -1.3370
   76MOL0     H 9990   2.713  10.491   5.643 -2.4758  4.6725  1.2406
   76MOL0     H 9991   2.540  10.525   5.646  0.0081 -0.6365  2.1642
   76MOL0     H 9992   2.678  10.262   5.598  1.4530  1.2551  1.2437
   76MOL0     H 9993   2.497  10.284   5.571 -0.6526  3.9610 -2.3523
   76MOL0     H 9994   2.511  10.067   5.635 -0.6080 -1.0070 -0.0264
   76MOL0     H 9995   2.461   9.862   5.763  0.4575  0.7639 -0.8672
   76MOL0     H 9996   2.211   9.574   5.863  1.2454  3.4962 -0.6396
   76MOL0     H 9997   2.105   9.373   5.957  0.2547  1.2919 -0.2154
   76MOL0     H 9998   2.092   9.398   6.359 -0.8976 -0.2152  0.6702
   76MOL0     H 9999   2.153   9.231   6.393 -1.8593 -1.0940 -0.4212
   76MOL0     H10000   1.884   9.293   6.279  2.0388  2.0898  0.2090
   76MOL0     H10001   1.912   9.230   6.441  2.8254  0.0013  0.9886
   76MOL0     H10002   2.009   9.023   6.347 -0.2055 -0.0593  1.4872
   76MOL0     H10003   1.969   9.092   6.180 -0.1080 -0.6266  0.3327
   76MOL0     H10004   1.728   9.102   6.317 -3.6402 -2.1113  1.3086
   76MOL0     H10005   1.764   8.963   6.214 -0.2689 -0.7189  1.6976
   76MOL0     H10006   1.806   8.996   6.512 -1.0801 -0.3815  0.5796
   76MOL0     H10007   1.870   8.864   6.430 -0.9357 -0.6532  0.2108
   76MOL0     H10008   1.672   8.784   6.490  1.9313 -0.2469 -1.2221
   76MOL0     H10009   1.645   8.820   6.320 -0.1571  1.7109 -2.4495
   76MOL0     H10010   1.544   9.051   6.408 -4.3948 -0.8747 -1.5980
   76MOL0     H10011   1.448   8.905   6.435 -0.1843 -0.4747  1.1623
   76MOL0     H10012   1.612   9.049   6.624 -1.5874  1.6614 -1.0149
   76MOL0     H10013   1.519   8.909   6.680  4.1413 -1.9791 -1.9760
   76MOL0     H10014   2.357   9.394   6.302 -3.8355 -0.6725  1.4181
   76MOL0     H10015   2.458   9.600   6.207  1.5386  1.0396 -2.3782
   76MOL0     H10016   2.565  10.052   6.136  0.5685 -2.9871  0.3413
   76MOL0     H10017   2.587  10.258   6.014  1.5398  0.4602  0.5174
   76MOL0     H10018   3.324  10.500   4.236  0.1271  0.4032 -2.0763
   76MOL0     H10019   3.371  10.369   4.021 -0.5638 -0.2158  0.0286
   76MOL0     H10020   3.562  10.053   3.812  0.9837 -0.2491 -1.0850
   76MOL0     H10021   3.593   9.973   3.601  0.6006 -2.1078  2.0429
   76MOL0     H10022   3.252   9.841   3.329  2.5772  1.9354 -2.4245
   76MOL0     H10023   3.320   9.719   3.437 -0.8782  1.4310  0.7084
   76MOL0     H10024   3.447   9.832   3.183  2.0076  1.7220  0.4304
   76MOL0     H10025   3.534   9.732   3.312 -0.8937  1.8430  2.5662
   76MOL0     H10026   3.262   9.638   3.186  0.0100 -2.3190 -3.5628
   76MOL0     H10027   3.372   9.555   3.293 -0.8297  0.0967 -0.3143
   76MOL0     H10028   3.353   9.483   3.053 -2.2234  0.7970 -0.3022
   76MOL0     H10029   3.415   9.630   2.991  0.7490  0.1896 -0.5275
   76MOL0     H10030   3.774   9.442   3.156  0.3155 -0.3110  0.5674
   76MOL0     H10031   3.176   9.915   3.541 -1.2327 -0.9777  1.3916
   76MOL0     H10032   3.120   9.986   3.762 -1.6455  0.7526 -2.2632
   77MOL0     O10033   2.725   3.278   2.756 -0.1094  0.0816 -0.6597
   77MOL0     C10034   2.655   3.362   2.706  0.4856 -0.1842 -0.4564
   77MOL0     O10035   2.704   3.473   2.654  0.3769 -0.2046 -0.6758
   77MOL0     C10036   2.834   3.519   2.670 -0.2131  0.0128  0.4132
   77MOL0     C10037   2.883   3.614   2.575  0.0264 -0.0557  0.4105
   77MOL0     C10038   3.011   3.674   2.585  0.0247  0.1566 -0.1378
   77MOL0     C10039   3.096   3.636   2.688 -0.2531  0.3094  0.2732
   77MOL0     O10040   3.226   3.682   2.698  0.5994  0.2125 -0.3731
   77MOL0     C10041   3.235   3.828   2.699  0.6176  1.0931  0.1023
   77MOL0     C10042   3.381   3.878   2.700 -0.1828  0.2571  1.2336
   77MOL0     C10043   3.440   3.887   2.555 -0.1757  0.3240  1.0422
   77MOL0     C10044   3.547   3.986   2.541 -0.4705  0.0762  0.1148
   77MOL0     C10045   3.486   4.119   2.509  0.5500 -0.2764 -0.3636
   77MOL0     C10046   3.601   4.220   2.459  0.1662  0.1698  1.0493
   77MOL0     C10047   3.527   4.359   2.430  0.1683  0.5346  0.2265
   77MOL0     C10048   3.628   4.466   2.361  0.3291  0.7522  1.4191
   77MOL0     N10049   3.738   4.512   2.448 -0.1455  0.0582  0.2691
   77MOL0     C10050   3.836   4.434   2.503  0.0627  0.4890  0.1610
   77MOL0     C10051   3.914   4.521   2.562  0.9786 -0.5359  0.3222
   77MOL0     C10052   4.042   4.479   2.617  0.8783 -0.0612 -0.2686
   77MOL0     C10053   4.148   4.449   2.514  0.2681  0.2966 -0.3888
   77MOL0     C10054   4.187   4.570   2.436  1.6425  0.6970 -0.0360
   77MOL0     C10055   4.292   4.550   2.319  0.5842 -0.2714  0.3977
   77MOL0     O10056   4.418   4.504   2.339 -0.5922  0.2002  0.6366
   77MOL0     C10057   4.491   4.565   2.439  0.1277 -0.1630 -0.0168
   77MOL0     C10058   4.495   4.706   2.445  0.3324  1.1185  1.1750
   77MOL0     C10059   4.577   4.768   2.542  0.2349  0.1463 -0.1888
   77MOL0     C10060   4.656   4.700   2.639  0.5696 -0.0782 -0.2777
   77MOL0     C10061   4.743   4.752   2.741 -0.2328  1.5692 -0.5668
   77MOL0     O10062   4.796   4.665   2.840 -0.8021 -0.3066  0.2896
   77MOL0     C10063   4.872   4.719   2.944  0.5839 -0.4810  0.1646
   77MOL0     C10064   5.008   4.680   2.968 -0.2426  0.2196 -0.3375
   77MOL0     C10065   5.071   4.739   3.078  0.4122  0.0821 -0.6380
   77MOL0     C10066   5.006   4.828   3.161 -0.2327  0.2628  0.0473
   77MOL0     O10067   5.080   4.885   3.273 -0.1265  0.2544 -0.1416
   77MOL0     C10068   5.206   4.947   3.234 -0.4681  0.0882  0.4118
   77MOL0     C10069   5.199   5.094   3.192 -0.5019  0.5822 -0.0198
   77MOL0     C10070   5.177   5.189   3.308 -0.5881 -0.8718  0.6634
   77MOL0     C10071   5.214   5.336   3.260  0.1768  0.1020  0.4303
   77MOL0     C10072   5.368   5.367   3.255  0.2080 -0.2612  0.3440
   77MOL0     C10073   5.385   5.506   3.194  0.3471 -0.2800 -0.3970
   77MOL0     C10074   5.486   5.586   3.276  0.2404 -0.2344 -1.0882
   77MOL0     C10075   5.499   5.720   3.214 -0.4064 -1.3079 -0.1634
   77MOL0    Cl10076   5.617   5.803   3.326 -0.4877 -0.4079  0.2196
   77MOL0     C10077   4.869   4.852   3.142 -0.7262  0.2110  0.1811
   77MOL0     C10078   4.807   4.806   3.026  0.2253 -0.7755 -0.0516
   77MOL0     O10079   4.774   4.864   2.714  0.0227 -0.5283 -0.3801
   77MOL0     C10080   4.653   4.556   2.623 -0.5035  0.1336  1.1511
   77MOL0     C10081   4.575   4.492   2.527  0.0836 -0.1146  0.4831
   77MOL0     N10082   3.873   4.646   2.538 -0.3448 -0.6256  0.3684
   77MOL0     N10083   3.759   4.644   2.470 -0.3385  0.7310  0.2505
   77MOL0     C10084   3.049   3.551   2.787  0.1512  0.5489  0.9475
   77MOL0     C10085   2.921   3.482   2.776 -0.5929 -0.7841 -0.1665
   77MOL0     C10086   2.517   3.331   2.669  0.0916 -0.2238 -0.1668
   77MOL0     C10087   2.485   3.201   2.629 -0.1150  0.9640  0.0817
   77MOL0     C10088   2.357   3.179   2.571 -0.8690 -0.1990  0.7531
   77MOL0     C10089   2.255   3.277   2.567  0.8639 -0.9050  0.4168
   77MOL0     O10090   2.123   3.246   2.542  0.0757 -0.5683 -0.0963
   77MOL0     C10091   2.084   3.104   2.552  0.0291 -0.4289  0.1534
   77MOL0     C10092   1.937   3.084   2.578 -0.1134 -0.4372 -0.0620
   77MOL0     C10093   1.925   2.940   2.630  0.7063 -0.6355 -0.2848
   77MOL0     C10094   1.777   2.895   2.664 -0.6429 -0.3596 -0.9030
   77MOL0     C10095   1.692   2.901   2.547 -0.2261  0.7398  0.2331
   77MOL0     C10096   1.628   2.918   2.445  0.5989  0.8721  0.3268
   77MOL0     C10097   2.285   3.408   2.620 -0.2556  0.3343  0.8946
   77MOL0     C10098   2.412   3.425   2.678  0.4578  0.6653 -1.1371
   77MOL0     H10099   2.811   3.631   2.496 -0.3541 -2.8600  0.0671
   77MOL0     H10100   3.046   3.744   2.510 -1.6704 -0.1075 -1.2318
   77MOL0     H10101   3.195   3.857   2.796 -2.1014 -3.7167  0.7489
   77MOL0     H10102   3.185   3.865   2.609  0.9006 -1.8731 -1.4045
   77MOL0     H10103   3.449   3.816   2.760  1.4171 -0.7387 -1.4176
   77MOL0     H10104   3.380   3.982   2.732 -1.5968  0.3369  0.9742
   77MOL0     H10105   3.356   3.905   2.486  1.7074  0.4046 -1.3618
   77MOL0     H10106   3.487   3.789   2.539  4.3441  2.4541 -0.0911
   77MOL0     H10107   3.610   4.002   2.630 -2.6424  0.2029  1.6973
   77MOL0     H10108   3.608   3.956   2.455 -0.2746  2.1071 -0.5005
   77MOL0     H10109   3.452   4.170   2.600  0.2365  2.8183 -2.0613
   77MOL0     H10110   3.405   4.108   2.436 -0.5073 -2.9138  1.0767
   77MOL0     H10111   3.643   4.174   2.369 -1.6065  1.6484 -0.6067
   77MOL0     H10112   3.680   4.223   2.535  1.5211  2.1383 -0.3471
   77MOL0     H10113   3.441   4.343   2.363 -0.0428 -2.6600  1.0751
   77MOL0     H10114   3.474   4.395   2.518  0.7349 -0.3528  0.9456
   77MOL0     H10115   3.561   4.547   2.330 -2.8292 -1.8487  0.9581
   77MOL0     H10116   3.671   4.419   2.272 -0.7809 -0.9980  1.7586
   77MOL0     H10117   3.855   4.327   2.499  0.2187  0.4410  1.5428
   77MOL0     H10118   4.033   4.395   2.686  1.8629 -1.5646 -1.8878
   77MOL0     H10119   4.076   4.568   2.672 -1.5639  1.1519 -0.5701
   77MOL0     H10120   4.107   4.377   2.444  1.8773 -0.9525 -0.1126
   77MOL0     H10121   4.235   4.401   2.560 -1.5851 -3.4814 -0.4423
   77MOL0     H10122   4.096   4.616   2.398  0.1043 -2.8614 -1.0134
   77MOL0     H10123   4.221   4.645   2.508 -0.2770  3.6246 -1.9418
   77MOL0     H10124   4.291   4.632   2.247  1.3182 -1.7726 -1.4100
   77MOL0     H10125   4.245   4.468   2.264  2.6182 -1.7187  0.7297
   77MOL0     H10126   4.444   4.762   2.367 -1.1872 -0.7508  0.7640
   77MOL0     H10127   4.568   4.875   2.549  1.1931  0.1803  0.7291
   77MOL0     H10128   5.058   4.604   2.909  0.4092  2.1318 -2.4337
   77MOL0     H10129   5.173   4.707   3.096 -0.0975 -0.3835  1.7370
   77MOL0     H10130   5.245   4.896   3.145 -0.2707  1.3213 -0.2254
   77MOL0     H10131   5.276   4.924   3.315 -1.1997 -1.2199  0.7074
   77MOL0     H10132   5.120   5.113   3.119 -0.3825  2.4016  0.2621
   77MOL0     H10133   5.296   5.117   3.148 -1.3219  2.3472 -1.0474
   77MOL0     H10134   5.247   5.165   3.389  0.2779 -0.1443  0.1502
   77MOL0     H10135   5.077   5.178   3.350 -0.8703 -2.9585 -0.4507
   77MOL0     H10136   5.173   5.363   3.163  2.8625  1.6267 -0.4016
   77MOL0     H10137   5.178   5.402   3.340 -0.9887 -0.9137  0.7635
   77MOL0     H10138   5.418   5.300   3.185 -1.8788  2.2389 -3.8821
   77MOL0     H10139   5.420   5.357   3.352 -0.7566  2.8669  1.2974
   77MOL0     H10140   5.297   5.571   3.183  0.0778 -0.4796  0.5386
   77MOL0     H10141   5.430   5.486   3.096  2.2014  1.2902  0.0652
   77MOL0     H10142   5.465   5.595   3.383  0.0149 -0.1201 -1.1416
   77MOL0     H10143   5.582   5.534   3.285 -0.7706 -1.9996  0.0411
   77MOL0     H10144   5.404   5.773   3.206 -0.6170 -1.9089 -2.7253
   77MOL0     H10145   5.535   5.715   3.110  0.6349  3.2980 -0.2428
   77MOL0     H10146   4.822   4.928   3.204  0.8079  0.9323  0.5239
   77MOL0     H10147   4.704   4.839   3.016  0.8066  1.1983  0.0653
   77MOL0     H10148   4.699   4.488   2.693  0.7696 -1.1254 -0.7961
   77MOL0     H10149   4.576   4.384   2.512  2.6203  0.1016 -1.6544
   77MOL0     H10150   3.127   3.520   2.856 -0.9494 -0.9946  1.5687
   77MOL0     H10151   2.891   3.415   2.856  1.1945 -1.0322  0.3401
   77MOL0     H10152   2.550   3.114   2.635  2.0078  2.4859 -0.0169
   77MOL0     H10153   2.337   3.080   2.531  0.8354 -1.0820  1.9745
   77MOL0     H10154   2.134   3.037   2.623  1.1418 -2.9178 -2.7358
   77MOL0     H10155   2.107   3.059   2.455  1.5693 -0.4880  0.5175
   77MOL0     H10156   1.900   3.145   2.661  0.6997 -1.9499  1.4674
   77MOL0     H10157   1.884   3.101   2.484 -0.1967  3.7868  0.5575
   77MOL0     H10158   1.981   2.931   2.724 -4.6811 -4.2775  3.2192
   77MOL0     H10159   1.964   2.865   2.561 -2.4860 -1.4763 -1.3650
   77MOL0     H10160   1.780   2.793   2.703  0.2443 -0.2045 -0.5384
   77MOL0     H10161   1.731   2.967   2.733 -0.7576 -0.1428 -1.1996
   77MOL0     H10162   1.555   2.942   2.370  1.7580 -0.1132 -1.1602
   77MOL0     H10163   2.202   3.479   2.624 -0.6752 -0.1012  0.2250
   77MOL0     H10164   2.441   3.519   2.724  1.0443  1.9562 -3.9687
   78MOL0     O10165   3.306   2.728   7.063  1.1182 -0.7532 -0.2288
   78MOL0     C10166   3.373   2.644   7.012  1.0668  0.0599  1.0203
   78MOL0     O10167   3.501   2.608   7.047  0.1896  0.4475  0.3309
   78MOL0     C10168   3.573   2.685   7.137 -0.0191  0.2237  1.1530
   78MOL0     C10169   3.655   2.615   7.229 -0.7475  0.4098 -0.2457
   78MOL0     C10170   3.743   2.679   7.316 -0.0296 -0.2996 -0.0767
   78MOL0     C10171   3.747   2.825   7.320  0.6372 -0.4624 -0.5974
   78MOL0     O10172   3.853   2.878   7.403 -0.5630  0.5945  0.2420
   78MOL0     C10173   3.914   3.013   7.376  0.2609  0.2329 -1.2556
   78MOL0     C10174   4.003   3.020   7.252 -0.0422  0.3298  0.3362
   78MOL0     C10175   3.934   2.987   7.120  0.3740  0.1355 -0.6579
   78MOL0     C10176   4.015   2.991   6.999  0.1614 -0.1442 -0.4798
   78MOL0     C10177   3.936   2.929   6.877 -0.3047  0.3049  0.2042
   78MOL0     C10178   4.009   2.937   6.745 -0.9883  0.8101  0.1839
   78MOL0     C10179   3.946   2.866   6.623 -0.0998  0.3905  0.3253
   78MOL0     C10180   3.939   2.713   6.631 -0.3452  0.3495  0.4085
   78MOL0     N10181   3.878   2.642   6.519  0.1532 -0.2780 -0.4996
   78MOL0     C10182   3.763   2.571   6.532  0.2857 -0.0708 -0.7407
   78MOL0     C10183   3.764   2.488   6.428  0.1056  0.5270  0.2038
   78MOL0     C10184   3.661   2.398   6.386  0.3660 -1.0214 -0.4692
   78MOL0     C10185   3.699   2.275   6.301  0.5165 -0.0574 -0.2434
   78MOL0     C10186   3.580   2.187   6.257 -0.4996  0.6286 -1.0259
   78MOL0     C10187   3.613   2.093   6.137 -0.0607  0.3045  0.7890
   78MOL0     O10188   3.706   2.000   6.199  0.7793 -0.7319  0.2138
   78MOL0     C10189   3.773   1.908   6.114 -0.3503  0.4277 -1.1014
   78MOL0     C10190   3.842   1.827   6.205 -0.0353  0.9771  0.0146
   78MOL0     C10191   3.901   1.706   6.156  0.4650  0.1637  0.3813
   78MOL0     C10192   3.882   1.676   6.017 -0.7953  1.0059 -1.4348
   78MOL0     C10193   3.948   1.553   5.970 -0.0142  0.0510  0.1652
   78MOL0     O10194   3.953   1.539   5.831 -0.0455  0.4194  0.4089
   78MOL0     C10195   4.034   1.452   5.770 -0.8817  0.2532 -0.3771
   78MOL0     C10196   4.173   1.435   5.796 -0.4292  0.5993 -0.5238
   78MOL0     C10197   4.249   1.344   5.723  0.5663  0.6159 -0.7175
   78MOL0     C10198   4.185   1.252   5.632  0.6309  0.8625  0.5629
   78MOL0     O10199   4.257   1.158   5.556 -0.6396 -0.6761 -0.5204
   78MOL0     C10200   4.356   1.093   5.633  0.3744 -0.6264  0.5005
   78MOL0     C10201   4.395   0.979   5.551  0.5843  0.1707  1.4224
   78MOL0     C10202   4.522   0.899   5.610  0.0332 -0.7143  0.3448
   78MOL0     C10203   4.483   0.822   5.736  0.5636 -0.3534  0.3484
   78MOL0     C10204   4.587   0.729   5.787 -0.2776 -0.4306  0.2457
   78MOL0     C10205   4.592   0.701   5.946 -0.1944  0.8117  0.3771
   78MOL0     C10206   4.457   0.666   6.000  0.0128 -0.8791  1.1063
   78MOL0     C10207   4.478   0.622   6.148 -0.5352 -0.1428 -0.0340
   78MOL0    Cl10208   4.601   0.721   6.244 -0.0170 -0.2126 -0.6064
   78MOL0     C10209   4.046   1.263   5.620 -0.0545 -0.6758  0.5841
   78MOL0     C10210   3.974   1.353   5.684  0.4068  0.0271 -0.0883
   78MOL0     O10211   3.984   1.471   6.060 -0.1131 -0.4604  0.4878
   78MOL0     C10212   3.802   1.759   5.940 -0.8482 -0.0702 -0.2638
   78MOL0     C10213   3.755   1.879   5.986 -0.5300 -0.3051  0.6126
   78MOL0     N10214   3.872   2.515   6.345 -0.5447 -0.5777 -0.4875
   78MOL0     N10215   3.947   2.592   6.411  0.0427  0.2878 -0.4289
   78MOL0     C10216   3.648   2.897   7.248  0.3641 -0.0716  0.2888
   78MOL0     C10217   3.569   2.826   7.148 -0.3363  0.2129 -0.8747
   78MOL0     C10218   3.306   2.573   6.889 -0.3920  0.6116 -0.2314
   78MOL0     C10219   3.386   2.489   6.808  0.2487  0.9497 -0.3721
   78MOL0     C10220   3.330   2.418   6.697 -0.4672 -0.5725  0.0097
   78MOL0     C10221   3.189   2.431   6.673  0.5741 -0.8862 -0.1514
   78MOL0     O10222   3.123   2.350   6.589  0.2521  0.8749 -0.6307
   78MOL0     C10223   3.195   2.275   6.496 -0.4973  0.3940  0.0445
   78MOL0     C10224   3.105   2.194   6.397 -0.0483 -0.5087 -0.1448
   78MOL0     C10225   3.198   2.163   6.282 -0.2395  0.4841  0.7791
   78MOL0     C10226   3.124   2.081   6.178 -0.9116  0.3983 -0.2421
   78MOL0     C10227   3.216   2.054   6.068 -0.1793 -0.5868  0.8028
   78MOL0     C10228   3.295   2.033   5.985  0.5501  0.5160 -0.0480
   78MOL0     C10229   3.117   2.515   6.761 -0.6590  0.2004  1.3263
   78MOL0     C10230   3.169   2.583   6.872  0.2781 -0.3096 -0.0728
   78MOL0     H10231   3.655   2.507   7.226  3.2835  0.2617 -1.6285
   78MOL0     H10232   3.818   2.617   7.366 -0.9346 -1.7425 -0.4552
   78MOL0     H10233   3.976   3.039   7.462 -1.4649  2.1338 -0.4868
   78MOL0     H10234   3.842   3.096   7.379  1.0589  0.9210  0.6410
   78MOL0     H10235   4.091   2.956   7.262 -1.8322 -3.1440 -3.3179
   78MOL0     H10236   4.019   3.128   7.242 -0.0483  0.1527 -2.1628
   78MOL0     H10237   3.845   3.051   7.112 -0.9957 -1.8895 -2.8584
   78MOL0     H10238   3.899   2.884   7.113 -2.9414  1.0988 -0.0172
   78MOL0     H10239   4.050   3.093   6.979  1.3258 -0.5429 -0.5194
   78MOL0     H10240   4.103   2.929   7.012  1.1167  0.5689 -2.9162
   78MOL0     H10241   3.837   2.976   6.869  0.1705  0.9559 -2.4704
   78MOL0     H10242   3.913   2.824   6.900  1.0686  0.4215  2.4427
   78MOL0     H10243   4.114   2.911   6.764 -1.7586 -2.0944  0.9303
   78MOL0     H10244   4.022   3.042   6.717  1.0202  0.3224 -0.8962
   78MOL0     H10245   3.847   2.908   6.604 -1.0639 -2.7243 -2.7158
   78MOL0     H10246   4.012   2.880   6.537  0.8529 -1.0192  0.7857
   78MOL0     H10247   3.867   2.687   6.709  1.2212 -1.6116  1.2819
   78MOL0     H10248   4.032   2.662   6.657 -0.3426 -2.6132 -4.1686
   78MOL0     H10249   3.684   2.567   6.607  0.6305 -2.4178 -0.4266
   78MOL0     H10250   3.594   2.463   6.329  1.0618 -1.2641 -1.5776
   78MOL0     H10251   3.606   2.374   6.478 -1.2577  2.5481 -0.2943
   78MOL0     H10252   3.769   2.221   6.364  1.3802  3.2262  1.8152
   78MOL0     H10253   3.745   2.316   6.210 -0.8516 -1.9364 -1.8945
   78MOL0     H10254   3.546   2.120   6.336 -1.8877  2.6057  0.1477
   78MOL0     H10255   3.493   2.245   6.223 -1.0085  2.7145  3.1649
   78MOL0     H10256   3.656   2.156   6.059 -0.6761 -0.4732 -0.2215
   78MOL0     H10257   3.527   2.039   6.095 -1.8758  3.2124  0.5064
   78MOL0     H10258   3.851   1.843   6.312 -1.6625 -3.6773  1.1136
   78MOL0     H10259   3.950   1.647   6.232  1.7445 -0.8107 -1.1286
   78MOL0     H10260   4.214   1.509   5.863 -3.3853  2.4892 -0.6543
   78MOL0     H10261   4.357   1.338   5.730  0.4415 -2.1546  0.1455
   78MOL0     H10262   4.301   1.053   5.719 -2.3652  1.9302  0.1004
   78MOL0     H10263   4.436   1.159   5.664  0.1448 -0.1400  0.0692
   78MOL0     H10264   4.422   1.016   5.452 -0.4955  1.0052  1.4289
   78MOL0     H10265   4.309   0.912   5.542  0.2868  0.2564  3.2477
   78MOL0     H10266   4.598   0.971   5.643 -1.5892  0.9499  0.5780
   78MOL0     H10267   4.563   0.834   5.532 -0.2194  0.6951 -1.0104
   78MOL0     H10268   4.464   0.893   5.817 -1.5648  0.4688 -0.8037
   78MOL0     H10269   4.378   0.790   5.737 -0.1985  1.9566  0.6576
   78MOL0     H10270   4.689   0.750   5.753  0.1239 -3.0649 -0.3702
   78MOL0     H10271   4.568   0.632   5.741  0.9100 -1.7895  2.4252
   78MOL0     H10272   4.629   0.785   6.007 -0.7162  0.8905  0.5862
   78MOL0     H10273   4.659   0.615   5.954 -1.9259 -0.4860  1.6699
   78MOL0     H10274   4.393   0.754   6.003  1.4748  0.1790  2.2051
   78MOL0     H10275   4.412   0.584   5.942 -1.9054  1.2217 -0.5474
   78MOL0     H10276   4.514   0.519   6.134  1.0910  0.3588  0.1541
   78MOL0     H10277   4.383   0.624   6.201  0.3342 -0.7460  1.6025
   78MOL0     H10278   4.001   1.199   5.544  1.2356 -0.2103 -0.6211
   78MOL0     H10279   3.866   1.353   5.670  0.2815  2.2590  0.5040
   78MOL0     H10280   3.790   1.730   5.836  1.2488 -0.9441 -0.3169
   78MOL0     H10281   3.685   1.929   5.919 -2.7572 -1.7896  1.7292
   78MOL0     H10282   3.638   3.005   7.252  0.3787 -0.0651  0.1778
   78MOL0     H10283   3.510   2.881   7.075  1.9364 -1.1510 -3.9274
   78MOL0     H10284   3.491   2.482   6.834  0.1184 -1.2091 -0.2670
   78MOL0     H10285   3.396   2.351   6.642  2.2964  2.5128 -0.7613
   78MOL0     H10286   3.247   2.199   6.554 -1.5194 -1.2077 -1.0331
   78MOL0     H10287   3.270   2.342   6.453 -1.9501  1.0481 -1.5896
   78MOL0     H10288   3.060   2.106   6.444 -2.2792 -1.0289 -3.0116
   78MOL0     H10289   3.016   2.251   6.372 -1.3211 -1.5577  1.7127
   78MOL0     H10290   3.292   2.114   6.307 -0.0305 -0.9452 -2.2774
   78MOL0     H10291   3.219   2.258   6.232 -1.0741 -0.2866 -1.1632
   78MOL0     H10292   3.072   1.997   6.225 -3.3922  2.7366  1.5574
   78MOL0     H10293   3.040   2.140   6.139  0.6793  3.5439  0.7404
   78MOL0     H10294   3.357   2.001   5.904 -1.5261 -2.2823 -0.6874
   78MOL0     H10295   3.012   2.528   6.736 -0.3382  2.2423  0.8209
   78MOL0     H10296   3.103   2.644   6.933 -1.0535 -0.3735 -1.3903
   79MOL0     O10297   3.588   0.983   0.230  0.2403  0.0538  0.1011
   79MOL0     C10298   3.588   0.978   0.105  0.3505 -0.1912 -0.8326
   79MOL0     O10299   3.484   0.926   0.027  0.0208 -0.2333  0.0928
   79MOL0     C10300   3.392   0.846   0.087  0.2468  0.1335 -0.7517
   79MOL0     C10301   3.274   0.899   0.158  0.5075  0.7891 -0.4064
   79MOL0     C10302   3.183   0.814   0.215  0.6372  0.4460 -0.3961
   79MOL0     C10303   3.193   0.670   0.207 -0.0723 -0.0046  0.0561
   79MOL0     O10304   3.100   0.600   0.280 -0.1061  0.5059  0.0717
   79MOL0     C10305   3.132   0.469   0.314  0.0626  0.2704 -0.3284
   79MOL0     C10306   3.053   0.434   0.429  0.1959 -0.5102 -0.9765
   79MOL0     C10307   3.099   0.496   0.559 -0.1581 -0.2464  0.4987
   79MOL0     C10308   3.028   0.444   0.690 -0.4797 -0.1290  0.3236
   79MOL0     C10309   3.043   0.294   0.725 -0.5146 -0.0458 -0.4711
   79MOL0     C10310   2.987   0.242   0.853 -0.8966 -0.3620  0.8207
   79MOL0     C10311   2.839   0.255   0.867 -0.6389  0.0409  0.3936
   79MOL0     C10312   2.770   0.152   0.775  1.4438 -0.2300  1.2724
   79MOL0     N10313   2.834   0.025   0.737  0.0310  0.4833  0.0253
   79MOL0     C10314   2.839  -0.084   0.820 -0.1108  0.4160  0.2089
   79MOL0     C10315   2.904  -0.179   0.750 -0.1708 -0.7480 -0.4949
   79MOL0     C10316   2.945  -0.315   0.802  0.2640 -0.0082  0.8057
   79MOL0     C10317   2.844  -0.383   0.894 -0.0052 -0.0790  0.2190
   79MOL0     C10318   2.708  -0.402   0.829 -0.1622 -0.6722  0.2548
   79MOL0     C10319   2.598  -0.455   0.925 -0.0154  0.1763  0.0035
   79MOL0     O10320   2.524  -0.342   0.970 -0.2337 -0.5395  0.2213
   79MOL0     C10321   2.487  -0.347   1.098  0.0116 -0.3853  0.7529
   79MOL0     C10322   2.543  -0.247   1.182 -0.5176  0.3289 -0.0349
   79MOL0     C10323   2.524  -0.249   1.322 -1.1636  0.1861  0.5135
   79MOL0     C10324   2.429  -0.347   1.372  0.0090 -0.2385  0.4347
   79MOL0     C10325   2.389  -0.340   1.507 -0.1002 -0.2410  0.1054
   79MOL0     O10326   2.299  -0.435   1.552  0.9202 -0.2239 -0.0622
   79MOL0     C10327   2.276  -0.435   1.693  0.2702 -0.5242 -0.6387
   79MOL0     C10328   2.357  -0.393   1.796 -0.2832 -0.6461 -0.2352
   79MOL0     C10329   2.313  -0.386   1.928  0.1782  0.0437 -0.3912
   79MOL0     C10330   2.185  -0.430   1.963 -0.0246  0.1416 -0.6145
   79MOL0     O10331   2.149  -0.406   2.093  0.5368  0.5007 -0.8332
   79MOL0     C10332   2.039  -0.325   2.114 -0.0768 -1.1896  0.0862
   79MOL0     C10333   2.065  -0.260   2.257 -0.3083  0.0559 -0.2490
   79MOL0     C10334   2.039  -0.363   2.366 -0.9123  0.2575  1.0691
   79MOL0     C10335   2.027  -0.303   2.503  0.4681 -0.2006 -0.1186
   79MOL0     C10336   1.960  -0.409   2.587  0.3304 -1.1546 -0.3398
   79MOL0     C10337   1.948  -0.345   2.718  0.3228 -0.6219 -0.7491
   79MOL0     C10338   1.931  -0.440   2.832 -0.4620  0.6105 -0.2587
   79MOL0     C10339   2.044  -0.541   2.852  0.2439  0.2128 -0.6200
   79MOL0    Cl10340   2.163  -0.443   2.920 -0.5391 -0.0634 -0.5033
   79MOL0     C10341   2.100  -0.480   1.861  1.2721  0.0756 -0.3598
   79MOL0     C10342   2.146  -0.478   1.730 -0.1290 -0.1031 -0.6192
   79MOL0     O10343   2.441  -0.242   1.569  0.6554  0.3584 -0.1853
   79MOL0     C10344   2.368  -0.435   1.276  0.0522  0.4365  0.3708
   79MOL0     C10345   2.402  -0.449   1.145  0.0084  0.2171  1.3024
   79MOL0     N10346   2.951  -0.116   0.633  0.9160  0.5893 -0.1175
   79MOL0     N10347   2.910   0.003   0.627  0.1087 -0.4192 -0.3701
   79MOL0     C10348   3.311   0.623   0.147 -0.5157 -0.3556 -0.3410
   79MOL0     C10349   3.410   0.707   0.090  0.0481 -0.7592 -0.0425
   79MOL0     C10350   3.707   1.034   0.042 -0.3778  0.2944 -0.1032
   79MOL0     C10351   3.832   1.052   0.108 -0.6380  0.4013  0.1890
   79MOL0     C10352   3.944   1.106   0.033  0.3864 -0.0862  0.3151
   79MOL0     C10353   3.937   1.149  -0.103  0.6908  0.9050 -0.1952
   79MOL0     O10354   4.044   1.207  -0.168 -0.4178  0.1773  0.4978
   79MOL0     C10355   4.085   1.148  -0.290 -0.8874 -0.0085 -0.2212
   79MOL0     C10356   4.150   1.017  -0.270 -0.6572 -0.2371  0.7425
   79MOL0     C10357   4.165   0.930  -0.394  0.1083  0.2522  0.1809
   79MOL0     C10358   4.262   0.999  -0.494  0.6292  0.2437  0.2396
   79MOL0     C10359   4.391   1.047  -0.452  0.8214 -0.1047 -0.0188
   79MOL0     C10360   4.496   1.082  -0.407 -0.6468 -0.6400 -0.5421
   79MOL0     C10361   3.812   1.128  -0.164  0.1398 -0.7241 -0.0793
   79MOL0     C10362   3.704   1.072  -0.092 -0.3502 -0.3538  0.5116
   79MOL0     H10363   3.252   1.004   0.147 -4.6612 -0.1658 -1.7874
   79MOL0     H10364   3.099   0.869   0.256 -0.9894 -0.9777 -1.6358
   79MOL0     H10365   3.238   0.452   0.332  0.5118  3.7975  1.0594
   79MOL0     H10366   3.111   0.402   0.230 -1.2278  1.5063 -1.0429
   79MOL0     H10367   3.047   0.325   0.433 -0.4174 -0.6222 -3.5641
   79MOL0     H10368   2.952   0.471   0.410  1.3836  1.5911 -3.9531
   79MOL0     H10369   3.092   0.605   0.556  3.1120  0.0713  0.3179
   79MOL0     H10370   3.208   0.489   0.570 -0.0807  1.1055  0.8965
   79MOL0     H10371   3.065   0.501   0.776  3.4937 -1.0959 -0.5388
   79MOL0     H10372   2.925   0.478   0.678 -0.5122 -0.5449 -0.6871
   79MOL0     H10373   3.147   0.266   0.706 -0.8707 -1.9579  0.1750
   79MOL0     H10374   2.988   0.239   0.647 -2.9464  1.5600 -0.0056
   79MOL0     H10375   3.036   0.305   0.927  0.6711 -1.3547  0.6589
   79MOL0     H10376   3.027   0.142   0.871  0.5863 -0.3027 -1.6565
   79MOL0     H10377   2.827   0.224   0.971  0.5090  2.7241  1.4260
   79MOL0     H10378   2.805   0.359   0.865  1.6455  0.8786  1.2577
   79MOL0     H10379   2.749   0.215   0.688  0.9635  0.4365  1.8554
   79MOL0     H10380   2.679   0.137   0.835  1.0436  0.0661  0.7443
   79MOL0     H10381   2.806  -0.084   0.923 -0.7212 -1.8598  0.0519
   79MOL0     H10382   3.034  -0.297   0.862 -0.5305 -0.0048  2.0127
   79MOL0     H10383   2.976  -0.379   0.718 -0.5906 -0.8649  1.1234
   79MOL0     H10384   2.823  -0.320   0.981 -0.4283  0.3343 -0.1843
   79MOL0     H10385   2.873  -0.487   0.914  1.3022  0.2584  0.1495
   79MOL0     H10386   2.678  -0.308   0.784 -2.5640 -0.5119  1.9673
   79MOL0     H10387   2.708  -0.477   0.750  1.2908 -0.2727 -0.1538
   79MOL0     H10388   2.649  -0.517   0.999  1.5560 -0.1629 -1.3127
   79MOL0     H10389   2.532  -0.517   0.863 -2.6130  0.9008  1.8809
   79MOL0     H10390   2.613  -0.174   1.141 -0.8348  0.5006 -0.2732
   79MOL0     H10391   2.586  -0.187   1.386 -1.5381 -2.1367  3.3303
   79MOL0     H10392   2.462  -0.374   1.780  0.0279 -2.7885 -1.0579
   79MOL0     H10393   2.391  -0.353   1.996  0.6522 -1.2006 -0.3040
   79MOL0     H10394   1.948  -0.385   2.110 -1.9991  1.3820  1.4978
   79MOL0     H10395   2.031  -0.240   2.045 -2.3421 -2.2077 -1.0234
   79MOL0     H10396   1.995  -0.177   2.274 -0.1681 -0.2138  1.9055
   79MOL0     H10397   2.169  -0.229   2.262 -0.5948  0.9023  0.9830
   79MOL0     H10398   2.130  -0.424   2.369 -1.9272 -1.3024  1.6476
   79MOL0     H10399   1.955  -0.430   2.343 -0.9504  0.5943  0.1802
   79MOL0     H10400   2.130  -0.277   2.530  1.4555 -2.1820 -1.7311
   79MOL0     H10401   1.965  -0.213   2.492 -1.1431 -1.3206 -0.5543
   79MOL0     H10402   2.023  -0.499   2.592  2.1357  0.0709  0.1106
   79MOL0     H10403   1.860  -0.438   2.553  0.0723 -0.0048 -0.5745
   79MOL0     H10404   1.858  -0.285   2.726  0.4598 -0.6125  1.1479
   79MOL0     H10405   2.035  -0.284   2.746 -2.1378  2.7839 -0.0011
   79MOL0     H10406   1.916  -0.391   2.929  2.2183 -5.1744  3.6442
   79MOL0     H10407   1.843  -0.502   2.815 -0.2070  0.6288 -1.7432
   79MOL0     H10408   2.080  -0.583   2.757  2.2910 -1.4761  0.8276
   79MOL0     H10409   1.995  -0.620   2.910  4.2151 -1.7494  0.3487
   79MOL0     H10410   1.994  -0.488   1.885  0.8356  0.6616 -1.9949
   79MOL0     H10411   2.078  -0.507   1.651 -0.4608 -2.1070  0.3442
   79MOL0     H10412   2.283  -0.498   1.300 -0.8928  1.6514  0.2970
   79MOL0     H10413   2.366  -0.524   1.075 -0.4846  1.2224  0.4454
   79MOL0     H10414   3.326   0.516   0.135  0.0004 -0.3305  0.0427
   79MOL0     H10415   3.499   0.677   0.037 -0.2605 -2.8825  0.5617
   79MOL0     H10416   3.847   1.021   0.211  2.0989 -4.0160 -1.2712
   79MOL0     H10417   4.040   1.119   0.081  1.3431 -1.0490 -1.2428
   79MOL0     H10418   4.146   1.220  -0.345 -0.3391  0.7620  1.3021
   79MOL0     H10419   4.007   1.133  -0.365 -1.3403  1.3418 -0.0504
   79MOL0     H10420   4.248   1.027  -0.222  0.7831 -0.3160 -1.9503
   79MOL0     H10421   4.095   0.963  -0.192 -3.5141  4.6892  2.5974
   79MOL0     H10422   4.068   0.929  -0.444  0.8766 -0.0482 -1.3844
   79MOL0     H10423   4.208   0.830  -0.384 -0.3180 -0.0567 -0.8917
   79MOL0     H10424   4.292   0.936  -0.579  0.9462 -0.2054  0.6733
   79MOL0     H10425   4.212   1.084  -0.540  1.6375 -0.7126 -2.9074
   79MOL0     H10426   4.595   1.114  -0.380  0.2716 -3.2808 -0.3940
   79MOL0     H10427   3.805   1.143  -0.271  1.8653 -0.2113 -0.1481
   79MOL0     H10428   3.608   1.058  -0.140  0.1671 -3.1252  0.1513
   80MOL0     O10429   7.618  10.745   0.457  0.1769  0.2480  0.1675
   80MOL0     C10430   7.542  10.789   0.371  0.0096 -0.5266 -0.1250
   80MOL0     O10431   7.421  10.739   0.336  0.0771  0.0067  0.0999
   80MOL0     C10432   7.346  10.659   0.420 -0.3234  0.2612 -0.5987
   80MOL0     C10433   7.335  10.663   0.557 -0.0079 -0.8632 -0.0242
   80MOL0     C10434   7.244  10.592   0.631  0.0573  0.4888  0.4679
   80MOL0     C10435   7.166  10.498   0.556 -0.3392  0.3315 -0.0654
   80MOL0     O10436   7.085  10.418   0.630 -0.7888  0.2473  0.7193
   80MOL0     C10437   7.091  10.274   0.592  0.7654  0.0132  0.4973
   80MOL0     C10438   7.026  10.198   0.690 -0.0469  0.0399 -0.2379
   80MOL0     C10439   6.869  10.166   0.677  0.3660 -0.2048 -0.9223
   80MOL0     C10440   6.829  10.083   0.805  0.0147 -0.0819  0.2303
   80MOL0     C10441   6.728  10.166   0.897  0.5200 -0.2419  0.8151
   80MOL0     C10442   6.704  10.097   1.027  0.4237 -0.1503  0.1198
   80MOL0     C10443   6.654  10.201   1.132  0.1358 -0.1883 -0.1895
   80MOL0     C10444   6.606  10.145   1.271  0.3005 -0.5627  0.1564
   80MOL0     N10445   6.710  10.169   1.362 -0.5132 -1.0849 -0.1441
   80MOL0     C10446   6.689  10.220   1.489 -0.2014 -0.3547  0.1531
   80MOL0     C10447   6.807  10.198   1.552 -1.0850  0.5624  0.6915
   80MOL0     C10448   6.849  10.288   1.672  0.0974 -0.1294 -0.8795
   80MOL0     C10449   6.901  10.419   1.612  1.0878  0.1770 -0.4673
   80MOL0     C10450   6.979  10.513   1.703  0.1750  0.0279  0.0995
   80MOL0     C10451   6.894  10.584   1.813 -1.3676 -0.6688 -0.0420
   80MOL0     O10452   6.844  10.493   1.913  0.9818 -0.1213  0.0018
   80MOL0     C10453   6.795  10.541   2.033  0.5796 -0.9415 -0.8135
   80MOL0     C10454   6.754  10.440   2.112  0.1376 -0.0858  0.1000
   80MOL0     C10455   6.658  10.461   2.215  0.0251 -0.0180  0.0995
   80MOL0     C10456   6.638  10.599   2.269  0.5694  1.0253  0.7504
   80MOL0     C10457   6.543  10.621   2.382 -0.2112 -0.8784 -0.4240
   80MOL0     O10458   6.528  10.757   2.411 -0.5857  0.2619  0.1371
   80MOL0     C10459   6.436  10.798   2.507 -0.1793 -0.4933  0.1520
   80MOL0     C10460   6.488  10.912   2.577 -0.3009  0.1845 -0.9006
   80MOL0     C10461   6.401  10.961   2.672 -0.5648 -0.8885  0.1480
   80MOL0     C10462   6.270  10.911   2.699 -0.5908  0.7347  0.1257
   80MOL0     O10463   6.193  10.971   2.790 -0.5606  0.4576 -0.6364
   80MOL0     C10464   6.103  10.884   2.864 -0.3195 -0.1263  0.3469
   80MOL0     C10465   6.013  10.953   2.960  0.0317 -0.0559 -0.9481
   80MOL0     C10466   5.917  11.045   2.888 -0.2996 -0.8154  0.1388
   80MOL0     C10467   5.846  11.139   2.985 -0.2046  0.7766 -0.2039
   80MOL0     C10468   5.788  11.269   2.921  0.3205 -0.1692  0.3450
   80MOL0     C10469   5.679  11.235   2.816 -0.7528 -0.0007  0.1130
   80MOL0     C10470   5.540  11.254   2.865 -0.1367  0.5806 -0.0280
   80MOL0     C10471   5.505  11.176   2.995 -0.5173  0.6972  0.1136
   80MOL0    Cl10472   5.505  11.001   2.968  0.5016 -0.3072  0.2659
   80MOL0     C10473   6.216  10.815   2.609 -0.3701 -0.0296 -0.7153
   80MOL0     C10474   6.304  10.744   2.524 -0.8598 -0.3651 -0.4102
   80MOL0     O10475   6.483  10.532   2.434  0.2836 -0.0161 -0.6080
   80MOL0     C10476   6.711  10.700   2.200  0.5490 -0.2871  0.3209
   80MOL0     C10477   6.785  10.670   2.083 -0.3166  0.5218  0.4221
   80MOL0     N10478   6.892  10.128   1.463 -0.4626 -0.5338 -0.3439
   80MOL0     N10479   6.834  10.113   1.349  0.5934  0.0770  0.4851
   80MOL0     C10480   7.186  10.488   0.420  1.0664  0.0632 -0.9850
   80MOL0     C10481   7.265  10.572   0.350  0.5238  0.2544  0.0934
   80MOL0     C10482   7.611  10.885   0.283 -0.1176 -0.2987 -0.0397
   80MOL0     C10483   7.549  10.930   0.171  0.8105 -0.7711  0.4828
   80MOL0     C10484   7.603  11.032   0.093 -0.5260  0.0605 -0.4155
   80MOL0     C10485   7.738  11.079   0.116 -0.1909 -0.3658 -0.2347
   80MOL0     O10486   7.811  11.155   0.031 -0.5975 -0.6940 -0.2576
   80MOL0     C10487   7.732  11.230  -0.063 -0.8345  0.7764 -0.1177
   80MOL0     C10488   7.824  11.334  -0.122  0.1021  0.7360  0.2689
   80MOL0     C10489   7.767  11.388  -0.265  0.0525 -0.1680 -0.4361
   80MOL0     C10490   7.878  11.478  -0.322 -1.1073 -0.6611 -0.4635
   80MOL0     C10491   7.985  11.391  -0.384  0.4646  0.0642  0.1518
   80MOL0     C10492   8.085  11.333  -0.424 -0.1924  0.3382  0.4334
   80MOL0     C10493   7.811  11.015   0.217  0.2516  0.0388  0.1686
   80MOL0     C10494   7.751  10.926   0.303  0.8984 -0.1583 -0.2994
   80MOL0     H10495   7.402  10.725   0.616 -1.6728 -0.1698  1.2076
   80MOL0     H10496   7.248  10.599   0.739  1.4312  0.4409  0.4366
   80MOL0     H10497   7.190  10.230   0.575  0.2890 -0.4712 -1.1943
   80MOL0     H10498   7.036  10.264   0.498  2.4162  0.6465 -0.5824
   80MOL0     H10499   7.036  10.254   0.783 -0.9699 -1.3303  0.7166
   80MOL0     H10500   7.079  10.103   0.695  2.2543  1.2923  0.6284
   80MOL0     H10501   6.852  10.107   0.586 -3.7207  2.6053 -2.2522
   80MOL0     H10502   6.813  10.260   0.673 -1.4112 -1.1920 -0.2571
   80MOL0     H10503   6.775   9.990   0.786 -0.7796 -0.1111  2.4336
   80MOL0     H10504   6.921  10.064   0.861  0.1508  3.5198  1.4648
   80MOL0     H10505   6.635  10.156   0.841  0.8785 -1.9691  0.4747
   80MOL0     H10506   6.770  10.267   0.910  2.7026 -1.0074  0.2374
   80MOL0     H10507   6.800  10.056   1.061  0.5294 -1.3539 -1.5177
   80MOL0     H10508   6.633  10.015   1.022 -0.8494  0.8195  1.2740
   80MOL0     H10509   6.739  10.268   1.147 -0.0673 -0.1754  0.9960
   80MOL0     H10510   6.574  10.263   1.090  1.1602 -0.3040 -2.4717
   80MOL0     H10511   6.578  10.041   1.256  0.8826 -1.3381  3.5847
   80MOL0     H10512   6.521  10.206   1.303  0.6119 -0.9178  1.7579
   80MOL0     H10513   6.601  10.274   1.524 -1.1683 -1.0431 -1.1469
   80MOL0     H10514   6.920  10.239   1.738 -1.2467 -0.4653  0.3819
   80MOL0     H10515   6.764  10.303   1.740  0.4627  3.0192 -0.9412
   80MOL0     H10516   6.820  10.477   1.567  0.1831  1.8471  2.9822
   80MOL0     H10517   6.979  10.390   1.541  1.8663 -2.4665  1.3109
   80MOL0     H10518   7.058  10.451   1.745  0.3896 -0.5388 -1.1016
   80MOL0     H10519   7.030  10.587   1.642  0.9693 -1.2272 -0.8050
   80MOL0     H10520   6.810  10.642   1.772 -0.1408  3.4290  2.6237
   80MOL0     H10521   6.955  10.666   1.852  0.2281  1.0201 -5.2128
   80MOL0     H10522   6.776  10.344   2.066 -1.0256 -0.1639 -0.3248
   80MOL0     H10523   6.609  10.371   2.250 -1.5939 -0.6090 -3.2201
   80MOL0     H10524   6.591  10.935   2.551 -0.3550  0.4369 -0.8925
   80MOL0     H10525   6.425  11.049   2.731  0.7480 -0.4968 -0.9129
   80MOL0     H10526   6.164  10.811   2.920  2.2659  0.1969 -1.8509
   80MOL0     H10527   6.039  10.818   2.805  2.1405 -2.4864  0.0877
   80MOL0     H10528   6.078  11.017   3.019  1.6539 -1.1792 -1.4307
   80MOL0     H10529   5.954  10.888   3.026 -1.3926  1.4119 -0.7231
   80MOL0     H10530   5.852  10.973   2.838  1.2119 -0.0975 -3.1528
   80MOL0     H10531   5.971  11.102   2.812 -2.3945  1.3863  0.1794
   80MOL0     H10532   5.767  11.077   3.028  2.0131 -0.6548  2.1139
   80MOL0     H10533   5.927  11.170   3.052  0.5807  1.5749 -1.4883
   80MOL0     H10534   5.858  11.335   2.870  0.4389 -1.6882 -1.5725
   80MOL0     H10535   5.754  11.334   3.002 -0.9225  1.3891 -1.3361
   80MOL0     H10536   5.706  11.136   2.778 -2.9083  0.0446 -1.7630
   80MOL0     H10537   5.684  11.307   2.735  0.4183  0.4424  0.5560
   80MOL0     H10538   5.536  11.360   2.892 -1.9684  0.1474  1.6671
   80MOL0     H10539   5.465  11.239   2.787 -1.6293 -1.0390  1.6109
   80MOL0     H10540   5.403  11.194   3.032 -1.5594 -2.2943 -0.9460
   80MOL0     H10541   5.565  11.203   3.082 -0.4022 -1.5826  0.8055
   80MOL0     H10542   6.115  10.777   2.622  0.2864 -0.6554  4.6115
   80MOL0     H10543   6.272  10.660   2.463  1.0171 -0.3957 -1.4410
   80MOL0     H10544   6.724  10.796   2.248  1.9589 -0.7353  0.9083
   80MOL0     H10545   6.828  10.748   2.021  0.5173  0.6820  1.1772
   80MOL0     H10546   7.106  10.429   0.375  0.2771 -0.3164  0.8184
   80MOL0     H10547   7.253  10.574   0.242 -1.3866  1.9224  0.2623
   80MOL0     H10548   7.445  10.903   0.152  1.3622 -0.8050 -3.3408
   80MOL0     H10549   7.547  11.081   0.014  3.2734  0.3418 -3.1871
   80MOL0     H10550   7.652  11.285  -0.013  0.5199  1.4499  1.3692
   80MOL0     H10551   7.700  11.158  -0.140  1.5676 -0.5127 -0.0050
   80MOL0     H10552   7.831  11.421  -0.056 -2.7593  0.2972  1.2681
   80MOL0     H10553   7.921  11.287  -0.141  0.3550  0.8621  1.1956
   80MOL0     H10554   7.678  11.447  -0.242  0.6215  0.5942 -0.1547
   80MOL0     H10555   7.757  11.301  -0.331  0.9833 -0.5837 -0.0627
   80MOL0     H10556   7.821  11.531  -0.399 -2.4935  1.2260  1.7419
   80MOL0     H10557   7.901  11.552  -0.245  0.8023 -0.0491 -1.5594
   80MOL0     H10558   8.171  11.287  -0.467 -0.4983 -1.8896  2.0306
   80MOL0     H10559   7.911  11.057   0.225  0.9894 -1.7183  0.6792
   80MOL0     H10560   7.803  10.901   0.395  0.6180  1.3323  0.2792
   81MOL0     O10561   2.156   7.107   6.412  0.5157  0.4132 -0.0241
   81MOL0     C10562   2.054   7.150   6.459  0.6871  0.6146 -0.6112
   81MOL0     O10563   1.957   7.229   6.400  0.2109 -0.6192 -0.1081
   81MOL0     C10564   1.961   7.262   6.267  0.3183 -0.4216 -0.6461
   81MOL0     C10565   1.957   7.171   6.164 -0.6249  0.3774 -0.1793
   81MOL0     C10566   1.955   7.210   6.030  0.2095  0.3486  0.9333
   81MOL0     C10567   1.937   7.342   6.001 -0.4679  0.6260 -0.4137
   81MOL0     O10568   1.943   7.388   5.866 -0.2599 -0.4133 -0.5355
   81MOL0     C10569   1.876   7.515   5.843  0.2325  0.1189 -0.2875
   81MOL0     C10570   1.868   7.553   5.696  0.0859 -0.1454 -0.1459
   81MOL0     C10571   2.003   7.615   5.642  0.3493 -0.2354 -0.0620
   81MOL0     C10572   1.995   7.690   5.505  0.1517 -0.0396 -0.1374
   81MOL0     C10573   2.132   7.719   5.438  0.3494 -1.4915  0.4003
   81MOL0     C10574   2.217   7.817   5.519 -0.0092  0.7208  0.1567
   81MOL0     C10575   2.361   7.798   5.470 -0.5721 -0.2127 -1.2157
   81MOL0     C10576   2.391   7.860   5.326 -0.3411  0.2940  1.2617
   81MOL0     N10577   2.535   7.826   5.298 -0.1390 -0.5508 -0.5007
   81MOL0     C10578   2.637   7.911   5.349 -0.4778  0.1845 -1.2347
   81MOL0     C10579   2.753   7.862   5.283 -0.3889 -0.5674  0.1680
   81MOL0     C10580   2.887   7.924   5.285  0.3138  0.5024 -0.1358
   81MOL0     C10581   2.869   8.050   5.202 -0.1028 -0.0427 -1.2145
   81MOL0     C10582   3.006   8.125   5.203 -0.1106  0.1619  0.1405
   81MOL0     C10583   3.009   8.218   5.083  0.8781 -0.5039 -0.7045
   81MOL0     O10584   2.889   8.308   5.091 -0.1296 -0.3092 -0.8462
   81MOL0     C10585   2.876   8.414   5.187 -0.1806 -0.0297  0.0712
   81MOL0     C10586   2.969   8.444   5.288 -0.3291 -0.0034  0.8859
   81MOL0     C10587   2.944   8.538   5.377  0.5524 -0.5448  0.3252
   81MOL0     C10588   2.826   8.607   5.381 -0.3710 -0.3048  0.0947
   81MOL0     C10589   2.819   8.724   5.471  0.2636 -0.2237  0.0185
   81MOL0     O10590   2.913   8.726   5.573 -0.2059  0.0664 -0.8502
   81MOL0     C10591   2.934   8.823   5.671 -0.2400 -0.4438  0.0489
   81MOL0     C10592   2.835   8.914   5.712  0.1012  0.8483 -0.2808
   81MOL0     C10593   2.872   9.010   5.811  0.7290 -0.2765 -0.1152
   81MOL0     C10594   3.001   9.006   5.880  0.9747 -1.0873 -0.3501
   81MOL0     O10595   3.004   9.094   5.991 -0.0466  0.2532 -0.2658
   81MOL0     C10596   3.137   9.131   6.026  0.9193 -0.3979  0.1732
   81MOL0     C10597   3.141   9.097   6.175  0.1875 -0.0097 -0.3553
   81MOL0     C10598   3.262   9.159   6.246  0.8404 -1.2487  0.7486
   81MOL0     C10599   3.225   9.309   6.267 -0.9159  0.3509 -0.0650
   81MOL0     C10600   3.337   9.388   6.338 -0.4656  0.5887  0.9999
   81MOL0     C10601   3.471   9.389   6.254  0.5498  0.7918 -0.5578
   81MOL0     C10602   3.590   9.430   6.338 -0.6734 -0.1967  0.6108
   81MOL0     C10603   3.709   9.404   6.255 -0.8148 -0.3164  0.1380
   81MOL0    Cl10604   3.741   9.227   6.274  0.5033  0.1078  0.3934
   81MOL0     C10605   3.087   8.912   5.855  0.7818  0.4726  1.4784
   81MOL0     C10606   3.051   8.814   5.750 -0.0146  0.3322  0.4437
   81MOL0     O10607   2.731   8.804   5.452 -0.1803 -0.2873 -0.2059
   81MOL0     C10608   2.726   8.579   5.287  1.3337  0.5766  0.3603
   81MOL0     C10609   2.751   8.479   5.189 -0.0666  0.0184 -0.5443
   81MOL0     N10610   2.712   7.751   5.202  0.3669 -0.4520 -1.0929
   81MOL0     N10611   2.587   7.728   5.226  0.2433 -0.1881 -0.3236
   81MOL0     C10612   1.934   7.438   6.109 -0.5131 -0.3303  0.4880
   81MOL0     C10613   1.941   7.392   6.233 -0.3679  0.5479 -0.7238
   81MOL0     C10614   2.020   7.085   6.586  0.3774 -0.0377 -0.5619
   81MOL0     C10615   1.920   7.142   6.670  0.5741  0.0282 -0.1603
   81MOL0     C10616   1.881   7.079   6.785 -0.2770 -0.0519 -0.7947
   81MOL0     C10617   1.937   6.969   6.834  0.2303  0.4155 -0.3882
   81MOL0     O10618   1.915   6.911   6.960 -0.0549 -0.0914 -0.1027
   81MOL0     C10619   1.789   6.952   7.021  0.4963 -0.4352 -0.2689
   81MOL0     C10620   1.733   6.844   7.111  0.6158 -0.0344  0.7754
   81MOL0     C10621   1.804   6.818   7.243  0.2784  0.0955 -0.1874
   81MOL0     C10622   1.938   6.752   7.235 -0.5343  0.2333 -0.0599
   81MOL0     C10623   1.990   6.711   7.360  0.2553 -0.1757  0.9041
   81MOL0     C10624   2.020   6.671   7.472  0.6432 -0.6577  0.2448
   81MOL0     C10625   2.036   6.916   6.757 -0.1615  0.2860  0.3522
   81MOL0     C10626   2.085   6.969   6.631 -0.3490 -0.4744 -0.0894
   81MOL0     H10627   1.963   7.064   6.184  1.4167  0.8615  2.1904
   81MOL0     H10628   1.952   7.137   5.950 -0.4439  0.0531  1.2213
   81MOL0     H10629   1.928   7.599   5.889  1.3119  0.1666 -1.5176
   81MOL0     H10630   1.770   7.505   5.869 -0.5437  0.8682 -2.8241
   81MOL0     H10631   1.789   7.626   5.681 -0.5464 -0.7869  0.0015
   81MOL0     H10632   1.837   7.459   5.649 -2.6469  0.9367 -0.6424
   81MOL0     H10633   2.080   7.538   5.628  0.7770  0.2445 -0.4084
   81MOL0     H10634   2.042   7.687   5.714  1.4312  0.1545 -1.0028
   81MOL0     H10635   1.935   7.625   5.440  1.8808 -1.3525 -0.4949
   81MOL0     H10636   1.940   7.784   5.512 -0.8666 -0.3878 -2.4673
   81MOL0     H10637   2.108   7.772   5.345  2.1481 -1.7011 -0.2237
   81MOL0     H10638   2.192   7.630   5.415  2.2156 -0.2709  0.3199
   81MOL0     H10639   2.204   7.784   5.622  4.6563 -4.4639 -0.4582
   81MOL0     H10640   2.183   7.919   5.499 -1.5743 -0.1666 -2.2457
   81MOL0     H10641   2.416   7.862   5.540  0.9361 -1.2843 -1.3792
   81MOL0     H10642   2.403   7.699   5.489 -1.5770 -0.2960  0.9411
   81MOL0     H10643   2.376   7.967   5.306  1.0829  0.2138 -0.5368
   81MOL0     H10644   2.329   7.803   5.255  2.3376 -0.1589 -0.8808
   81MOL0     H10645   2.639   7.987   5.426  2.6403 -2.6553  1.8557
   81MOL0     H10646   2.963   7.852   5.253 -3.2117 -3.8976  0.3581
   81MOL0     H10647   2.916   7.934   5.390  0.3253 -3.1152  0.3456
   81MOL0     H10648   2.782   8.107   5.237  1.1192  1.8641 -1.0918
   81MOL0     H10649   2.844   8.014   5.103 -0.8879  2.3603 -1.9585
   81MOL0     H10650   3.005   8.172   5.302 -1.2827 -3.2207  1.9317
   81MOL0     H10651   3.089   8.054   5.202 -0.0839  0.1846 -1.2959
   81MOL0     H10652   3.005   8.167   4.987  0.8797 -0.5435 -0.6832
   81MOL0     H10653   3.103   8.275   5.084  0.7125 -0.2123  0.6626
   81MOL0     H10654   3.057   8.381   5.301 -0.2279  0.0211  0.3747
   81MOL0     H10655   3.017   8.574   5.449  0.5271  0.6257 -0.2302
   81MOL0     H10656   2.740   8.926   5.660  0.9102  5.4326 -1.1328
   81MOL0     H10657   2.801   9.083   5.849  2.7913  2.2417 -0.7213
   81MOL0     H10658   3.137   9.240   6.012 -0.5844  0.4332  4.8629
   81MOL0     H10659   3.221   9.100   5.963  0.7104  1.7351 -1.2854
   81MOL0     H10660   3.158   8.989   6.186 -2.9736 -0.6258 -0.4508
   81MOL0     H10661   3.046   9.112   6.227  0.1372 -1.4969  0.0368
   81MOL0     H10662   3.351   9.134   6.187  0.2146 -0.8439 -0.3909
   81MOL0     H10663   3.269   9.105   6.341  1.5540 -1.8242  0.3897
   81MOL0     H10664   3.197   9.356   6.172  0.6462  0.6814 -0.3916
   81MOL0     H10665   3.142   9.301   6.337 -0.2934 -1.3988  0.5045
   81MOL0     H10666   3.351   9.344   6.438 -0.9317 -2.3060 -0.1108
   81MOL0     H10667   3.300   9.487   6.367 -0.1183  0.9714  0.1393
   81MOL0     H10668   3.456   9.457   6.170 -0.4837  0.4993 -0.6251
   81MOL0     H10669   3.491   9.289   6.214 -3.9789  0.4998 -2.6605
   81MOL0     H10670   3.576   9.537   6.357 -0.4217 -0.3088  1.4572
   81MOL0     H10671   3.605   9.362   6.422  0.4534 -1.9585 -0.9309
   81MOL0     H10672   3.799   9.444   6.303 -0.4563  1.0512 -1.5990
   81MOL0     H10673   3.710   9.442   6.153  2.5418 -1.0262 -0.2163
   81MOL0     H10674   3.184   8.893   5.900  0.2296  2.7248  3.8471
   81MOL0     H10675   3.118   8.732   5.726  0.2518  1.7027 -4.7537
   81MOL0     H10676   2.641   8.647   5.289  1.5798  1.1364 -2.8043
   81MOL0     H10677   2.669   8.457   5.122  1.1913  1.0865 -2.5248
   81MOL0     H10678   1.925   7.545   6.095  1.3236  0.0026  1.5636
   81MOL0     H10679   1.935   7.449   6.324 -2.2921 -3.5961  2.0453
   81MOL0     H10680   1.882   7.240   6.643 -0.8083 -1.0385 -2.3840
   81MOL0     H10681   1.813   7.134   6.850 -0.3520 -3.6107  2.5256
   81MOL0     H10682   1.711   6.967   6.946 -0.7753 -3.0163  0.4412
   81MOL0     H10683   1.794   7.044   7.080  0.4099  0.7333 -1.9988
   81MOL0     H10684   1.626   6.865   7.126 -0.4192 -2.7199 -1.8051
   81MOL0     H10685   1.739   6.753   7.050  3.1069  1.1295 -0.8959
   81MOL0     H10686   1.734   6.755   7.300  0.4550  1.3994  1.5275
   81MOL0     H10687   1.824   6.915   7.289 -1.0818  0.0011  0.6914
   81MOL0     H10688   1.918   6.659   7.181  0.2730  1.0258 -1.7875
   81MOL0     H10689   2.007   6.809   7.173 -1.6696  0.2717 -1.3520
   81MOL0     H10690   2.029   6.622   7.566  0.3646  0.1737  0.7186
   81MOL0     H10691   2.092   6.828   6.787 -0.4938 -0.8405 -2.0604
   81MOL0     H10692   2.150   6.904   6.572  1.9918 -1.1649  3.0019
   82MOL0     O10693  10.289   6.137  11.239  0.4841 -0.0453 -0.0670
   82MOL0     C10694  10.207   6.216  11.286 -0.2820 -0.2886  0.9936
   82MOL0     O10695  10.228   6.350  11.300 -0.1844 -0.8651 -0.2624
   82MOL0     C10696  10.355   6.394  11.278  0.7038 -0.4789 -0.2821
   82MOL0     C10697  10.440   6.411  11.388  0.0961  0.2024 -0.7049
   82MOL0     C10698  10.577   6.448  11.373  0.2536 -0.4163  0.1017
   82MOL0     C10699  10.639   6.452  11.247  0.1670  0.2900 -0.5328
   82MOL0     O10700  10.767   6.467  11.200  0.5724 -1.3710 -0.8307
   82MOL0     C10701  10.876   6.473  11.294  0.2189 -0.5647  0.1013
   82MOL0     C10702  11.007   6.500  11.212  0.4627 -1.0758 -0.0884
   82MOL0     C10703  11.048   6.643  11.223  0.0053 -0.5925  0.8909
   82MOL0     C10704  10.973   6.740  11.129  0.5342 -0.2421 -0.5639
   82MOL0     C10705  11.027   6.885  11.155  0.4198 -0.3537 -0.1577
   82MOL0     C10706  10.992   6.983  11.046 -0.1879  0.6263 -0.0809
   82MOL0     C10707  11.053   7.119  11.083  0.5734 -1.1602 -0.5657
   82MOL0     C10708  10.999   7.217  10.986  0.9420  0.2738  0.1871
   82MOL0     N10709  10.855   7.203  10.960  0.1843  0.7415 -1.5207
   82MOL0     C10710  10.764   7.215  11.069 -0.4950  0.1272 -0.0921
   82MOL0     C10711  10.654   7.158  11.005 -0.3209  0.5825  0.2892
   82MOL0     C10712  10.518   7.116  11.069  0.3678  1.1051 -0.1069
   82MOL0     C10713  10.395   7.158  10.997 -0.3337  0.1857  0.0689
   82MOL0     C10714  10.266   7.098  11.069 -0.0143  0.3466 -0.0964
   82MOL0     C10715  10.142   7.107  10.982 -0.0427 -0.3038  0.2626
   82MOL0     O10716  10.022   7.134  11.058 -0.9285 -0.5094 -0.1396
   82MOL0     C10717   9.930   7.028  11.076 -0.0091  0.4834  0.1076
   82MOL0     C10718   9.910   6.925  10.988  0.3416  0.8935 -0.4427
   82MOL0     C10719   9.802   6.827  11.003 -0.7770 -0.2699 -0.2791
   82MOL0     C10720   9.715   6.828  11.114  0.1259  0.1609 -0.3078
   82MOL0     C10721   9.604   6.734  11.130  0.8902 -0.0496  0.3523
   82MOL0     O10722   9.595   6.635  11.032  0.1382  0.6771 -0.4488
   82MOL0     C10723   9.471   6.570  11.041  0.8178 -1.4362  0.6789
   82MOL0     C10724   9.360   6.616  10.966  0.1663  0.0379 -0.1527
   82MOL0     C10725   9.240   6.542  10.976 -0.6315 -0.4428 -0.4523
   82MOL0     C10726   9.227   6.433  11.058  0.4891 -0.3350  0.8689
   82MOL0     O10727   9.106   6.375  11.072  0.4562 -0.0180 -0.5209
   82MOL0     C10728   9.077   6.243  11.127  0.0784  0.0147  0.1502
   82MOL0     C10729   8.936   6.251  11.198  0.1829 -0.7142 -0.9483
   82MOL0     C10730   8.827   6.271  11.077  1.4292 -1.2757  1.1654
   82MOL0     C10731   8.683   6.272  11.131 -0.2470 -0.6519  0.4810
   82MOL0     C10732   8.633   6.126  11.134 -0.0865  0.2841  0.4204
   82MOL0     C10733   8.478   6.108  11.170  0.0122 -1.0240  0.5211
   82MOL0     C10734   8.445   5.960  11.196 -0.1213  0.1153  0.7023
   82MOL0     C10735   8.516   5.880  11.302  1.0293 -1.0296  1.1106
   82MOL0    Cl10736   8.472   5.706  11.282 -0.3486  0.2721  0.2490
   82MOL0     C10737   9.346   6.385  11.118 -0.1081 -0.3080 -0.0301
   82MOL0     C10738   9.471   6.451  11.107  0.5462  0.3643  0.2889
   82MOL0     O10739   9.525   6.755  11.224  0.1819 -0.2187  0.3435
   82MOL0     C10740   9.730   6.941  11.204  0.7944  0.1968  1.1536
   82MOL0     C10741   9.831   7.048  11.178 -0.7410 -0.0692 -0.7867
   82MOL0     N10742  10.684   7.131  10.874 -0.1152 -0.8661 -0.2865
   82MOL0     N10743  10.802   7.171  10.852 -0.0681  0.2706 -0.0337
   82MOL0     C10744  10.553   6.434  11.136 -0.5772  0.6169  0.6229
   82MOL0     C10745  10.423   6.402  11.148  0.1692 -0.0981 -0.2264
   82MOL0     C10746  10.074   6.158  11.322 -0.5567  0.9047  0.4428
   82MOL0     C10747  10.060   6.021  11.361 -1.1173  0.0276  0.1025
   82MOL0     C10748   9.938   5.968  11.402 -0.5194 -0.1513  1.2003
   82MOL0     C10749   9.832   6.061  11.408  0.8245 -0.9587  0.0315
   82MOL0     O10750   9.717   6.016  11.460 -0.1319 -0.3958 -0.4784
   82MOL0     C10751   9.595   6.042  11.394  0.3842 -0.5908  0.1008
   82MOL0     C10752   9.502   6.059  11.502  0.2114  0.1851  0.8945
   82MOL0     C10753   9.355   6.074  11.466  0.3967  0.3661  0.2134
   82MOL0     C10754   9.252   6.081  11.578 -0.1949  0.3551 -0.9181
   82MOL0     C10755   9.219   5.952  11.630 -0.2060 -0.5564  0.7013
   82MOL0     C10756   9.213   5.840  11.665 -0.4409  0.0541 -0.7662
   82MOL0     C10757   9.849   6.200  11.384  0.0868  0.2476  0.2074
   82MOL0     C10758   9.972   6.247  11.332  0.9153 -0.0467  0.7871
   82MOL0     H10759  10.388   6.416  11.484 -1.9590 -1.7875 -1.6044
   82MOL0     H10760  10.651   6.482  11.444  1.6430  0.8870 -1.8624
   82MOL0     H10761  10.879   6.377  11.347  0.1959 -0.7786 -0.2885
   82MOL0     H10762  10.851   6.548  11.370 -1.6380  0.5917 -1.5790
   82MOL0     H10763  11.011   6.436  11.124 -1.9697 -0.4448 -0.7324
   82MOL0     H10764  11.080   6.442  11.270  1.1588 -3.7288 -3.2850
   82MOL0     H10765  11.153   6.651  11.193 -0.9375 -2.1980 -3.7959
   82MOL0     H10766  11.032   6.690  11.320  0.0962  0.1984  0.5300
   82MOL0     H10767  10.993   6.716  11.024  1.5585  3.8169 -1.4439
   82MOL0     H10768  10.865   6.740  11.145  0.3802 -1.7114 -1.4015
   82MOL0     H10769  11.135   6.896  11.165  0.2099  0.1305  2.4231
   82MOL0     H10770  10.985   6.918  11.251  0.5745  0.9490 -0.5250
   82MOL0     H10771  10.882   6.986  11.046 -0.2597 -0.7379  1.2067
   82MOL0     H10772  11.033   6.950  10.950  1.3047  1.6645  0.1540
   82MOL0     H10773  11.014   7.141  11.183 -1.8622 -0.9968 -1.4832
   82MOL0     H10774  11.161   7.102  11.076  0.7276  0.2668 -2.2531
   82MOL0     H10775  11.054   7.213  10.892 -0.5366  4.1660 -1.0471
   82MOL0     H10776  11.015   7.322  11.013  3.1372  0.8720 -2.9271
   82MOL0     H10777  10.775   7.226  11.176 -2.6379 -1.5403  0.3660
   82MOL0     H10778  10.513   7.160  11.169  1.7684 -1.3437  1.1531
   82MOL0     H10779  10.519   7.008  11.088  0.4636  1.2980  1.0669
   82MOL0     H10780  10.406   7.102  10.904 -0.7946  0.1543  0.0291
   82MOL0     H10781  10.387   7.267  10.987 -0.1005  0.1110 -1.0284
   82MOL0     H10782  10.281   6.990  11.076  0.1668 -0.2834 -5.5679
   82MOL0     H10783  10.257   7.149  11.165 -1.4013  1.0686 -0.5789
   82MOL0     H10784  10.131   7.022  10.913 -3.8842  0.3388 -0.1837
   82MOL0     H10785  10.155   7.187  10.909  0.1481  1.4963  2.1848
   82MOL0     H10786   9.956   6.916  10.890  0.2713  3.2502 -0.7447
   82MOL0     H10787   9.794   6.749  10.928  0.2716  0.4624 -1.1837
   82MOL0     H10788   9.361   6.708  10.907  1.6109 -1.2829 -2.3308
   82MOL0     H10789   9.149   6.583  10.933 -1.7935 -0.8455  1.4862
   82MOL0     H10790   9.156   6.224  11.199  1.2361 -1.7898 -1.5127
   82MOL0     H10791   9.069   6.160  11.056 -3.2878 -0.0847  0.4806
   82MOL0     H10792   8.926   6.331  11.272 -2.5274 -2.5398  0.8152
   82MOL0     H10793   8.909   6.159  11.251 -1.9131  1.1026  1.3025
   82MOL0     H10794   8.848   6.184  11.014  1.2603 -2.2086  2.3570
   82MOL0     H10795   8.855   6.358  11.018 -0.6946  0.4783  2.5525
   82MOL0     H10796   8.680   6.318  11.229 -2.4504  1.4792 -0.4827
   82MOL0     H10797   8.616   6.318  11.057  0.2260 -1.7612 -0.6863
   82MOL0     H10798   8.691   6.069  11.207 -1.3355 -0.9503  0.4909
   82MOL0     H10799   8.649   6.079  11.036 -1.1314  0.3282  0.2247
   82MOL0     H10800   8.409   6.166  11.108 -2.6464 -2.1596  2.2620
   82MOL0     H10801   8.465   6.157  11.267  1.2252  0.7656 -0.1633
   82MOL0     H10802   8.341   5.966  11.228 -1.6623 -2.9877 -2.9163
   82MOL0     H10803   8.443   5.901  11.104 -2.3369 -1.3820  1.6307
   82MOL0     H10804   8.483   5.913  11.400 -2.4407  1.3499 -0.6264
   82MOL0     H10805   8.624   5.892  11.297  1.0849 -0.3997  3.1636
   82MOL0     H10806   9.372   6.284  11.150  1.0459 -1.7983 -4.8241
   82MOL0     H10807   9.552   6.391  11.146 -1.4899 -4.0172 -1.5320
   82MOL0     H10808   9.663   6.963  11.286  1.0236  1.1857  1.0936
   82MOL0     H10809   9.853   7.138  11.235 -0.1308  0.7990 -2.3532
   82MOL0     H10810  10.599   6.439  11.038 -1.1395 -2.4308  0.0708
   82MOL0     H10811  10.362   6.390  11.059  0.5185  2.3291 -0.8750
   82MOL0     H10812  10.143   5.952  11.365 -1.1019  0.0272  4.8967
   82MOL0     H10813   9.930   5.872  11.451 -2.3669  0.1141  1.4851
   82MOL0     H10814   9.571   5.951  11.339  0.8598 -0.8205  0.2653
   82MOL0     H10815   9.599   6.130  11.329  0.5513  0.8786  2.0084
   82MOL0     H10816   9.505   5.964  11.558 -2.4073 -0.1145  0.6864
   82MOL0     H10817   9.533   6.146  11.561  3.7419 -1.4437  1.7275
   82MOL0     H10818   9.325   6.013  11.381 -0.6679  1.6568 -0.3919
   82MOL0     H10819   9.364   6.175  11.425 -1.3214  0.3945 -0.1659
   82MOL0     H10820   9.291   6.138  11.662 -0.1181 -1.6286  0.4600
   82MOL0     H10821   9.156   6.128  11.553 -0.2746  0.9220  0.3778
   82MOL0     H10822   9.227   5.736  11.687  2.3100  0.0520 -2.1174
   82MOL0     H10823   9.760   6.261  11.398 -1.3053 -0.7676 -3.1370
   82MOL0     H10824   9.986   6.351  11.304 -0.2604  0.0926  0.6652
   83MOL0     O10825   2.651   1.433   5.758 -0.2127  0.0246  0.3664
   83MOL0     C10826   2.619   1.315   5.784  0.2573 -1.2496 -1.3100
   83MOL0     O10827   2.700   1.223   5.845  0.8344 -0.4794  0.2269
   83MOL0     C10828   2.826   1.271   5.865 -0.0465  0.3788 -0.0555
   83MOL0     C10829   2.919   1.229   5.768 -0.4071 -1.2149 -0.1220
   83MOL0     C10830   3.057   1.272   5.779  1.1314  0.3478  0.3379
   83MOL0     C10831   3.112   1.338   5.893  0.1384  0.4823  0.3491
   83MOL0     O10832   3.242   1.370   5.923  0.6852  0.3356 -0.2077
   83MOL0     C10833   3.344   1.347   5.821 -0.3171 -0.4170 -0.0835
   83MOL0     C10834   3.478   1.389   5.882 -0.1660 -0.8033  0.7410
   83MOL0     C10835   3.506   1.311   6.016 -1.1990  0.5826  0.3540
   83MOL0     C10836   3.646   1.345   6.062 -0.6520  0.2940  0.0687
   83MOL0     C10837   3.660   1.294   6.199  0.1651  0.2927 -0.1473
   83MOL0     C10838   3.784   1.343   6.274  0.8247  0.3439 -0.3427
   83MOL0     C10839   3.765   1.319   6.426  0.3989 -0.0105 -0.3283
   83MOL0     C10840   3.850   1.424   6.500 -0.2134  0.6412  0.2582
   83MOL0     N10841   3.991   1.375   6.498 -0.9789 -0.1981 -0.2322
   83MOL0     C10842   4.092   1.391   6.395  0.3255  0.1546  0.3279
   83MOL0     C10843   4.208   1.359   6.459 -0.4440  0.1368  0.7149
   83MOL0     C10844   4.344   1.354   6.396 -0.5826 -0.5609  0.4323
   83MOL0     C10845   4.433   1.455   6.471  0.3896 -0.2193  0.4173
   83MOL0     C10846   4.385   1.599   6.493  0.0254  1.0816  0.6562
   83MOL0     C10847   4.330   1.666   6.376  0.1565 -0.1024  0.1731
   83MOL0     O10848   4.403   1.649   6.252  0.9510  0.7060 -0.9608
   83MOL0     C10849   4.352   1.694   6.134  0.1618  0.5159 -0.2182
   83MOL0     C10850   4.236   1.767   6.121  0.3010 -0.1550  0.3950
   83MOL0     C10851   4.207   1.821   5.997 -0.0587 -0.2904 -0.3956
   83MOL0     C10852   4.292   1.804   5.882  0.8272  0.6857  0.0338
   83MOL0     C10853   4.256   1.851   5.748  0.3190 -0.1037 -1.0931
   83MOL0     O10854   4.173   1.961   5.748  0.0238 -0.1640 -1.3504
   83MOL0     C10855   4.127   1.998   5.621  0.7220  0.3769  0.2343
   83MOL0     C10856   3.993   1.961   5.590  0.3132 -0.5085  0.4025
   83MOL0     C10857   3.938   2.002   5.467  0.7230 -1.2280 -0.3209
   83MOL0     C10858   4.008   2.079   5.381 -0.5647  0.2786 -0.2894
   83MOL0     O10859   3.951   2.121   5.270  0.0800  0.1097  0.0898
   83MOL0     C10860   3.934   2.017   5.173  0.2461 -0.6230  0.5231
   83MOL0     C10861   4.013   2.049   5.039  0.7471 -0.5704  0.1174
   83MOL0     C10862   4.168   2.039   5.039  0.2823 -0.4960 -1.1957
   83MOL0     C10863   4.224   2.057   4.905  0.6062  0.8963 -0.2083
   83MOL0     C10864   4.235   1.913   4.831 -0.3480 -0.2884 -0.4274
   83MOL0     C10865   4.315   1.934   4.715  0.0333 -0.2908  0.1031
   83MOL0     C10866   4.373   1.807   4.664  0.3439  0.0002 -0.0538
   83MOL0     C10867   4.489   1.844   4.565  0.8533  0.7879  0.2528
   83MOL0    Cl10868   4.536   1.679   4.506 -0.2303 -0.5427  0.0023
   83MOL0     C10869   4.130   2.126   5.410  0.7599 -0.3658  0.3776
   83MOL0     C10870   4.194   2.078   5.526 -0.0990  0.1932  0.2039
   83MOL0     O10871   4.290   1.793   5.645 -0.2260 -0.7136 -0.4176
   83MOL0     C10872   4.402   1.724   5.905  0.7936 -0.3821  0.5279
   83MOL0     C10873   4.440   1.676   6.033 -0.4921  1.0781  1.0955
   83MOL0     N10874   4.182   1.332   6.592  0.0030 -0.0474 -0.2154
   83MOL0     N10875   4.058   1.338   6.613 -0.3059  0.9517  0.0287
   83MOL0     C10876   3.020   1.374   5.989 -1.4526 -0.6616  0.7286
   83MOL0     C10877   2.880   1.339   5.975  0.0791  0.6076 -1.2430
   83MOL0     C10878   2.478   1.277   5.752  0.4750  0.5475 -0.1109
   83MOL0     C10879   2.425   1.161   5.798 -0.3864  0.0025 -0.0269
   83MOL0     C10880   2.290   1.139   5.770  0.4579  0.3258  0.8641
   83MOL0     C10881   2.209   1.223   5.709 -0.3145 -0.6614  0.5464
   83MOL0     O10882   2.074   1.208   5.684 -0.5080 -0.3357 -0.0758
   83MOL0     C10883   2.005   1.232   5.805  0.4556 -0.3173 -0.6761
   83MOL0     C10884   1.898   1.122   5.813 -0.5821  0.0643  0.3518
   83MOL0     C10885   1.958   0.978   5.801  0.3911  0.1609 -0.0824
   83MOL0     C10886   1.853   0.875   5.828  0.7187  0.5805 -0.1837
   83MOL0     C10887   1.730   0.871   5.746 -0.1214 -0.6502 -0.8695
   83MOL0     C10888   1.626   0.863   5.691  1.0823  0.3246  0.7293
   83MOL0     C10889   2.263   1.349   5.672  0.2846 -0.6385  0.4588
   83MOL0     C10890   2.400   1.368   5.683  0.7050 -0.1163  0.8556
   83MOL0     H10891   2.888   1.167   5.685  0.1361 -2.3666  0.5149
   83MOL0     H10892   3.116   1.252   5.691 -0.2362 -3.2445  0.0659
   83MOL0     H10893   3.328   1.413   5.736 -0.1190  1.7683  1.4875
   83MOL0     H10894   3.341   1.243   5.789  2.1337  0.1119 -2.3845
   83MOL0     H10895   3.478   1.494   5.914  0.9142 -0.7099  0.4774
   83MOL0     H10896   3.552   1.367   5.805  0.3739  2.7602  0.0813
   83MOL0     H10897   3.480   1.206   5.996 -2.7246  1.1411 -0.7721
   83MOL0     H10898   3.432   1.347   6.088  1.0928  0.2676  3.0626
   83MOL0     H10899   3.730   1.315   5.999  0.2122  0.6420  1.0105
   83MOL0     H10900   3.653   1.454   6.068 -0.8614  0.2421  4.0999
   83MOL0     H10901   3.652   1.186   6.216  0.0909  0.3524  0.2055
   83MOL0     H10902   3.567   1.326   6.247 -0.7819 -1.1409 -0.9437
   83MOL0     H10903   3.810   1.445   6.246 -1.9984  0.4669 -3.0689
   83MOL0     H10904   3.875   1.289   6.246  2.2009  2.2006  0.4198
   83MOL0     H10905   3.660   1.316   6.457  0.0560 -2.7424 -1.4934
   83MOL0     H10906   3.799   1.216   6.445 -0.4031 -0.2188 -0.0064
   83MOL0     H10907   3.816   1.421   6.604  1.9987 -0.2707  1.0210
   83MOL0     H10908   3.836   1.519   6.449  0.0684 -1.0794 -3.3167
   83MOL0     H10909   4.075   1.427   6.295  2.5000  0.4413  0.0100
   83MOL0     H10910   4.340   1.394   6.294 -3.5130  0.9600  1.0340
   83MOL0     H10911   4.389   1.255   6.394 -2.8537 -1.7231  2.3967
   83MOL0     H10912   4.532   1.447   6.427 -0.2687 -0.9461 -0.9943
   83MOL0     H10913   4.441   1.415   6.573 -1.8310  1.8848  1.5402
   83MOL0     H10914   4.324   1.601   6.584 -0.5571 -4.0056  0.6484
   83MOL0     H10915   4.476   1.658   6.509  0.1246  1.2529 -0.4556
   83MOL0     H10916   4.322   1.774   6.394 -1.5170  0.2417 -2.1843
   83MOL0     H10917   4.225   1.642   6.357  0.1500  1.3074 -1.9383
   83MOL0     H10918   4.164   1.788   6.201  1.0928 -4.2776  2.4618
   83MOL0     H10919   4.105   1.857   6.002 -0.8939 -2.5989  0.7492
   83MOL0     H10920   3.946   1.895   5.662  2.3000 -1.6495  0.7479
   83MOL0     H10921   3.840   1.964   5.441  1.0546 -2.4911  0.1935
   83MOL0     H10922   3.829   1.999   5.151  0.1246 -1.7875  1.9300
   83MOL0     H10923   3.973   1.920   5.205 -1.4574 -1.9412 -1.1811
   83MOL0     H10924   3.984   2.146   4.996  0.4521 -0.0133  1.5064
   83MOL0     H10925   3.987   1.971   4.967  0.6905 -0.6435  0.2158
   83MOL0     H10926   4.211   1.958   5.098  0.9782  0.5716 -0.1689
   83MOL0     H10927   4.193   2.132   5.092 -3.6539  0.0873 -0.0563
   83MOL0     H10928   4.158   2.115   4.840 -1.0489 -1.4662 -0.7609
   83MOL0     H10929   4.321   2.106   4.918  0.3465  1.5353 -0.6067
   83MOL0     H10930   4.134   1.871   4.818 -0.4662 -0.3077  0.4351
   83MOL0     H10931   4.291   1.847   4.898 -0.2464  1.9528  1.8442
   83MOL0     H10932   4.398   1.994   4.752  0.2786 -1.1052  0.9025
   83MOL0     H10933   4.265   1.997   4.640 -0.3401 -2.0243 -1.1679
   83MOL0     H10934   4.403   1.734   4.740 -1.0219 -1.8416 -1.2101
   83MOL0     H10935   4.288   1.759   4.614  0.2327 -2.0973  1.9549
   83MOL0     H10936   4.573   1.898   4.609  1.3242  1.9424 -1.8946
   83MOL0     H10937   4.451   1.904   4.481 -2.1283  0.7174  1.4121
   83MOL0     H10938   4.171   2.187   5.329 -4.7221  1.2690 -1.5911
   83MOL0     H10939   4.296   2.104   5.552 -0.0652 -1.0896  1.5040
   83MOL0     H10940   4.478   1.708   5.829  2.8053  3.5686  1.4388
   83MOL0     H10941   4.534   1.626   6.056 -0.8122 -0.5666 -0.9160
   83MOL0     H10942   3.048   1.426   6.080 -0.5281 -1.7850  1.1044
   83MOL0     H10943   2.804   1.368   6.047 -0.2436 -3.3011  0.2193
   83MOL0     H10944   2.482   1.080   5.843  0.5623 -0.6503 -2.2559
   83MOL0     H10945   2.253   1.047   5.815 -0.3035  1.0386  1.7227
   83MOL0     H10946   1.956   1.330   5.803 -0.3472 -0.6535 -3.9611
   83MOL0     H10947   2.059   1.231   5.900 -1.2406  0.2468  0.3536
   83MOL0     H10948   1.851   1.149   5.908 -3.1397  0.5711 -0.9966
   83MOL0     H10949   1.833   1.145   5.729  1.5237  2.0554 -0.8604
   83MOL0     H10950   2.036   0.963   5.876 -2.2270  2.6265  3.4455
   83MOL0     H10951   1.991   0.949   5.700 -1.8413 -2.4202 -0.1825
   83MOL0     H10952   1.901   0.778   5.817 -0.5760  0.0574 -1.5333
   83MOL0     H10953   1.816   0.876   5.931 -1.1108 -0.7813 -0.7755
   83MOL0     H10954   1.535   0.868   5.635  2.1525  4.2859 -1.0327
   83MOL0     H10955   2.191   1.417   5.626 -1.9884 -3.0146  0.3329
   83MOL0     H10956   2.441   1.462   5.647  1.6212 -1.3883 -1.7213
   84MOL0     O10957   1.912   4.770   9.667  0.0245 -0.2480 -0.5903
   84MOL0     C10958   2.008   4.767   9.748 -0.6060 -0.7249  0.0352
   84MOL0     O10959   2.139   4.806   9.714 -0.4120  0.1331  0.3060
   84MOL0     C10960   2.154   4.876   9.596 -0.6330  0.2665 -0.0108
   84MOL0     C10961   2.105   5.005   9.569 -0.6205 -0.1973  0.2311
   84MOL0     C10962   2.139   5.065   9.449 -0.3328  0.6565  0.7709
   84MOL0     C10963   2.207   4.997   9.347 -0.3082 -0.9032  0.0225
   84MOL0     O10964   2.204   5.045   9.216 -0.9902  0.0284  0.6476
   84MOL0     C10965   2.245   5.181   9.178  0.4173  0.6053  0.5622
   84MOL0     C10966   2.395   5.189   9.179  0.5220  0.2064 -0.1922
   84MOL0     C10967   2.464   5.084   9.087 -1.1974  0.6924  0.2514
   84MOL0     C10968   2.618   5.102   9.091 -0.7286 -0.1169  0.1577
   84MOL0     C10969   2.687   5.015   8.990 -0.4043  0.1118 -0.1420
   84MOL0     C10970   2.836   5.031   9.003  0.0465  0.1263  0.4759
   84MOL0     C10971   2.902   4.951   8.885  0.3206 -1.4459  0.8342
   84MOL0     C10972   3.037   4.915   8.923 -0.0283  0.9364  0.2140
   84MOL0     N10973   3.125   5.028   8.935 -0.0332 -0.2419 -0.0079
   84MOL0     C10974   3.212   5.055   8.830 -0.3064  0.2514 -0.3778
   84MOL0     C10975   3.283   5.158   8.878 -0.1336 -0.9386 -1.5935
   84MOL0     C10976   3.402   5.218   8.810 -0.4172  0.2956  0.6145
   84MOL0     C10977   3.519   5.117   8.786 -0.9164  0.7133  0.5878
   84MOL0     C10978   3.640   5.185   8.714  0.5104  0.2948 -0.4244
   84MOL0     C10979   3.625   5.258   8.572 -0.4576 -0.8046 -0.2348
   84MOL0     O10980   3.537   5.184   8.489  0.5147  0.0740  0.0474
   84MOL0     C10981   3.577   5.093   8.396  0.2978  0.8801  0.6049
   84MOL0     C10982   3.705   5.035   8.402  0.3674 -0.5802  0.7020
   84MOL0     C10983   3.743   4.943   8.296 -0.3087  1.4701  0.0114
   84MOL0     C10984   3.649   4.887   8.207  0.3054  0.0546 -0.1838
   84MOL0     C10985   3.691   4.792   8.097  0.3108  0.4773 -0.5327
   84MOL0     O10986   3.591   4.742   8.016  0.3723 -0.1985  0.3935
   84MOL0     C10987   3.622   4.677   7.896 -0.5031 -0.9431 -0.4557
   84MOL0     C10988   3.566   4.554   7.878 -0.6082  0.1734 -0.3643
   84MOL0     C10989   3.601   4.480   7.760 -0.1615  0.0440 -0.6655
   84MOL0     C10990   3.676   4.533   7.654  0.2230 -0.4378  0.3748
   84MOL0     O10991   3.721   4.459   7.545 -0.0353 -1.1335 -0.3178
   84MOL0     C10992   3.641   4.353   7.489  0.7611 -0.4641 -0.3173
   84MOL0     C10993   3.610   4.362   7.341 -0.2078  0.2936 -0.7104
   84MOL0     C10994   3.515   4.261   7.279  0.4010  0.2967 -0.4251
   84MOL0     C10995   3.510   4.263   7.129 -0.0983 -0.2388  0.1437
   84MOL0     C10996   3.385   4.174   7.086 -1.0076  0.3707 -0.5667
   84MOL0     C10997   3.364   4.187   6.940  0.1373  0.7711 -0.0910
   84MOL0     C10998   3.256   4.100   6.883  0.1601 -0.0243  0.2509
   84MOL0     C10999   3.198   4.154   6.751  0.3874 -0.1188  0.4580
   84MOL0    Cl11000   3.314   4.182   6.618 -0.0909  0.2493 -0.2227
   84MOL0     C11001   3.733   4.661   7.678  0.6989  0.2922 -1.0409
   84MOL0     C11002   3.708   4.732   7.795  0.2260 -0.3835  0.2403
   84MOL0     O11003   3.811   4.762   8.093  0.6679  0.7474 -0.3405
   84MOL0     C11004   3.521   4.953   8.197  0.1180 -0.0839 -0.1880
   84MOL0     C11005   3.490   5.053   8.293 -0.0742  0.2224  0.0909
   84MOL0     N11006   3.230   5.200   9.003 -0.6472  0.3187 -0.0559
   84MOL0     N11007   3.131   5.122   9.043 -0.5796  0.4808  1.0379
   84MOL0     C11008   2.260   4.874   9.375  0.6347 -0.2592  0.2201
   84MOL0     C11009   2.230   4.819   9.494  0.0558 -0.2614 -0.0774
   84MOL0     C11010   2.010   4.694   9.879 -0.7865 -0.4722  1.3807
   84MOL0     C11011   2.121   4.701   9.962  1.7691  0.1780  0.2361
   84MOL0     C11012   2.127   4.626  10.081  0.7888 -0.0366 -0.2477
   84MOL0     C11013   2.013   4.558  10.132  0.6508  0.2044 -0.3858
   84MOL0     O11014   2.016   4.523  10.262 -0.1710  0.2741 -1.1654
   84MOL0     C11015   1.953   4.400  10.313  0.1945 -0.4962  0.4530
   84MOL0     C11016   2.071   4.305  10.341  0.0837 -0.1296  1.2518
   84MOL0     C11017   2.159   4.278  10.207  0.1665  0.0230  1.2045
   84MOL0     C11018   2.280   4.183  10.232 -0.1469  0.1733 -0.0892
   84MOL0     C11019   2.262   4.053  10.157  0.2275  0.4777  0.6464
   84MOL0     C11020   2.231   3.957  10.084 -0.1787  0.6713 -0.6460
   84MOL0     C11021   1.901   4.538  10.043  0.0557 -0.2668  0.6653
   84MOL0     C11022   1.900   4.612   9.920 -0.0730 -1.1651 -0.2839
   84MOL0     H11023   2.038   5.054   9.639  0.1173  0.6481  0.3711
   84MOL0     H11024   2.082   5.155   9.427  1.3452  0.9772 -3.1567
   84MOL0     H11025   2.193   5.250   9.245  1.2925  2.7417 -0.8662
   84MOL0     H11026   2.203   5.218   9.084 -0.8658  1.5119  1.4550
   84MOL0     H11027   2.424   5.155   9.279 -2.6188 -1.5701  0.2588
   84MOL0     H11028   2.414   5.293   9.151 -0.5507 -0.1819 -2.5722
   84MOL0     H11029   2.416   5.092   8.989 -1.7642 -0.0427  0.4604
   84MOL0     H11030   2.440   4.982   9.118 -2.2286  0.9616  0.3953
   84MOL0     H11031   2.648   5.207   9.084  2.5073 -0.5618  3.7436
   84MOL0     H11032   2.651   5.076   9.192  3.3435 -1.5876 -1.3408
   84MOL0     H11033   2.664   5.052   8.890  1.5335  2.0147  0.0486
   84MOL0     H11034   2.664   4.909   9.008 -0.5925  0.5664  2.6611
   84MOL0     H11035   2.871   4.993   9.100 -3.0574 -1.2412  1.1730
   84MOL0     H11036   2.864   5.133   8.973 -0.5112 -0.4267 -2.1578
   84MOL0     H11037   2.844   4.859   8.869 -0.2059 -0.7523 -1.6576
   84MOL0     H11038   2.911   5.011   8.795 -0.4681 -0.8441  1.1454
   84MOL0     H11039   3.078   4.854   8.842  2.7535  0.9043  1.5044
   84MOL0     H11040   3.036   4.863   9.019 -1.8372  1.9373  0.7748
   84MOL0     H11041   3.231   5.002   8.737 -2.1936 -1.5132  0.1563
   84MOL0     H11042   3.433   5.307   8.867 -0.7505  0.9146 -0.1494
   84MOL0     H11043   3.376   5.254   8.710  3.5333  3.4450  0.4343
   84MOL0     H11044   3.473   5.035   8.730 -0.8206 -0.1500  1.7429
   84MOL0     H11045   3.548   5.074   8.882  0.0668  2.2168  1.0012
   84MOL0     H11046   3.665   5.268   8.781  0.2710  2.4515 -2.8881
   84MOL0     H11047   3.719   5.110   8.718 -0.4344 -0.6990  2.2384
   84MOL0     H11048   3.715   5.272   8.513 -1.3413  0.9558 -1.2427
   84MOL0     H11049   3.571   5.354   8.577 -5.8109 -3.4567  0.5828
   84MOL0     H11050   3.767   5.055   8.488  2.2609  0.2917 -0.7887
   84MOL0     H11051   3.842   4.902   8.309 -0.4637  1.6045  2.0167
   84MOL0     H11052   3.493   4.523   7.952 -0.6691 -0.5778 -0.7283
   84MOL0     H11053   3.543   4.389   7.747 -0.7180  0.3574 -0.4293
   84MOL0     H11054   3.545   4.349   7.541  0.2746 -3.3294 -1.2334
   84MOL0     H11055   3.679   4.252   7.506 -0.1515 -0.6608  0.6375
   84MOL0     H11056   3.705   4.353   7.287  0.4219  0.3295  0.3752
   84MOL0     H11057   3.565   4.461   7.332 -0.1948  0.8458  3.3378
   84MOL0     H11058   3.419   4.274   7.329  0.5849 -2.5334  0.8784
   84MOL0     H11059   3.540   4.158   7.307 -1.6642 -0.8521 -2.5191
   84MOL0     H11060   3.499   4.370   7.110  2.9655  0.0372 -0.4846
   84MOL0     H11061   3.603   4.235   7.079  0.9754  0.9936  1.3788
   84MOL0     H11062   3.289   4.206   7.129  0.2579  3.5575  0.1142
   84MOL0     H11063   3.408   4.069   7.107 -0.2387  1.1183  2.7879
   84MOL0     H11064   3.456   4.178   6.882 -0.7482  1.1669 -1.6287
   84MOL0     H11065   3.343   4.293   6.920  0.3087  0.8224 -0.0028
   84MOL0     H11066   3.276   3.992   6.876 -0.3492 -0.0447 -1.5619
   84MOL0     H11067   3.166   4.110   6.945 -0.1639  0.5046 -0.2904
   84MOL0     H11068   3.166   4.257   6.770  1.1188 -0.2667  2.9105
   84MOL0     H11069   3.115   4.095   6.712  0.1293 -0.4548  1.4746
   84MOL0     H11070   3.794   4.722   7.612 -0.4246  0.9195 -1.5277
   84MOL0     H11071   3.758   4.826   7.818  0.9484 -1.2447  2.4626
   84MOL0     H11072   3.443   4.938   8.124 -0.0465  0.5051 -0.1348
   84MOL0     H11073   3.391   5.098   8.286 -1.1110 -1.7728  1.2275
   84MOL0     H11074   2.311   4.816   9.298  1.3956 -0.3349  0.7647
   84MOL0     H11075   2.255   4.718   9.526 -0.4617 -0.2189  0.4563
   84MOL0     H11076   2.213   4.753   9.938  1.2059  0.7298 -0.7856
   84MOL0     H11077   2.213   4.631  10.147  0.5254 -4.3129  0.7291
   84MOL0     H11078   1.891   4.354  10.235  0.7540  0.2579 -0.4497
   84MOL0     H11079   1.887   4.411  10.400 -2.9898  0.1025 -1.8440
   84MOL0     H11080   2.141   4.340  10.418  1.4074 -0.2050  0.1333
   84MOL0     H11081   2.028   4.209  10.372 -0.7311  0.0772  0.7977
   84MOL0     H11082   2.202   4.372  10.172 -0.9820 -0.6386 -2.4821
   84MOL0     H11083   2.091   4.246  10.127  1.7241 -0.0803 -0.1368
   84MOL0     H11084   2.368   4.235  10.192  0.4341 -0.2166  0.6622
   84MOL0     H11085   2.304   4.159  10.336 -0.7811  0.7229  0.1883
   84MOL0     H11086   2.216   3.861  10.039  0.1925 -0.9128  2.3347
   84MOL0     H11087   1.812   4.486  10.076 -0.8661  1.0222  0.3262
   84MOL0     H11088   1.813   4.602   9.856 -0.0036  2.3038 -1.0808
   85MOL0     O11089   9.223  11.003   4.920 -0.8856  1.0437  0.6142
   85MOL0     C11090   9.173  11.090   4.999  0.0094  0.0330  0.0277
   85MOL0     O11091   9.184  11.229   4.982 -0.6475  0.0390  0.1914
   85MOL0     C11092   9.262  11.283   4.884  0.0108  0.4179 -0.3531
   85MOL0     C11093   9.212  11.389   4.810  0.6436  0.5700  0.6708
   85MOL0     C11094   9.297  11.468   4.734  0.2337 -0.5476 -0.6347
   85MOL0     C11095   9.424  11.429   4.701  0.3857  0.1168 -0.1737
   85MOL0     O11096   9.478  11.504   4.596  0.8822 -0.1484 -1.2435
   85MOL0     C11097   9.598  11.489   4.532 -0.1499  0.4931 -0.4551
   85MOL0     C11098   9.608  11.563   4.402 -0.4842  0.9505  0.3005
   85MOL0     C11099   9.760  11.559   4.356  0.2844  0.5304 -1.0963
   85MOL0     C11100   9.762  11.630   4.223 -0.2578  1.1905  0.0917
   85MOL0     C11101   9.774  11.774   4.235 -0.1032  0.2118 -0.1321
   85MOL0     C11102   9.791  11.845   4.104 -0.9833 -0.3733  0.2086
   85MOL0     C11103   9.805  11.997   4.137 -0.4212 -0.2798 -0.1822
   85MOL0     C11104   9.837  12.081   4.004  0.0106 -0.1046  0.8906
   85MOL0     N11105   9.851  12.222   4.020  0.3715 -0.7145  0.1180
   85MOL0     C11106   9.825  12.289   4.141 -0.4851  0.2341  0.2734
   85MOL0     C11107   9.819  12.420   4.098  0.0386  0.5743  0.5142
   85MOL0     C11108   9.781  12.522   4.197  0.0218 -0.3525 -0.3475
   85MOL0     C11109   9.766  12.666   4.145  0.5672  0.6200  0.2124
   85MOL0     C11110   9.722  12.742   4.272 -0.4718 -1.2250  0.1493
   85MOL0     C11111   9.701  12.895   4.257 -0.6109 -0.4405 -0.3429
   85MOL0     O11112   9.574  12.917   4.194 -0.1885  0.1444 -0.2534
   85MOL0     C11113   9.539  13.046   4.155  0.0600 -2.1313 -0.2482
   85MOL0     C11114   9.409  13.075   4.101 -0.2643  0.7353  0.3392
   85MOL0     C11115   9.374  13.210   4.065 -0.5558  0.1570 -0.0293
   85MOL0     C11116   9.468  13.318   4.086 -0.1311  0.6397  0.4236
   85MOL0     C11117   9.421  13.457   4.071  0.2867 -0.1675  0.5575
   85MOL0     O11118   9.511  13.554   4.101 -0.4043 -0.4525 -0.0785
   85MOL0     C11119   9.466  13.681   4.093 -0.2860 -0.9818  0.0900
   85MOL0     C11120   9.452  13.753   3.973  0.3103 -0.5547 -0.7471
   85MOL0     C11121   9.392  13.874   3.979 -1.0422 -0.3463 -1.1939
   85MOL0     C11122   9.351  13.934   4.097 -0.3235 -0.4874  0.4856
   85MOL0     O11123   9.276  14.050   4.087 -0.4404  0.1093  0.4576
   85MOL0     C11124   9.318  14.157   4.162 -0.4667  0.0380 -0.4030
   85MOL0     C11125   9.219  14.183   4.283 -0.1916 -0.0704  0.2918
   85MOL0     C11126   9.102  14.258   4.225  0.5850  0.2166 -0.7390
   85MOL0     C11127   9.005  14.294   4.336  0.2390 -0.2506  0.2065
   85MOL0     C11128   8.897  14.400   4.304  0.7162  0.1916  0.4773
   85MOL0     C11129   8.822  14.454   4.430 -0.3137 -0.1667 -0.3054
   85MOL0     C11130   8.728  14.571   4.405  0.1421  0.3305  0.1461
   85MOL0     C11131   8.615  14.511   4.326 -0.1041 -0.4650 -0.5390
   85MOL0    Cl11132   8.469  14.603   4.353  0.5392 -0.6102 -0.0414
   85MOL0     C11133   9.381  13.874   4.215 -0.3161  0.2283 -0.4476
   85MOL0     C11134   9.437  13.746   4.211 -0.2161 -0.4305  0.2301
   85MOL0     O11135   9.298  13.463   4.024 -0.2054  0.0848 -0.0462
   85MOL0     C11136   9.592  13.288   4.134  0.5554  0.6752  0.5870
   85MOL0     C11137   9.629  13.157   4.161 -0.0648 -0.1629  0.1629
   85MOL0     N11138   9.856  12.431   3.972  0.2892  1.0687  0.1089
   85MOL0     N11139   9.885  12.315   3.925  0.3527 -0.7481  0.3153
   85MOL0     C11140   9.477  11.315   4.770 -0.2827 -0.6712  0.8653
   85MOL0     C11141   9.392  11.254   4.869 -0.1157  0.9078  0.4555
   85MOL0     C11142   9.099  11.040   5.111 -1.0891 -0.5816  0.3320
   85MOL0     C11143   9.061  11.129   5.216  0.1925  0.0306 -0.8351
   85MOL0     C11144   8.979  11.073   5.322 -0.2742 -0.5424  0.3715
   85MOL0     C11145   8.952  10.939   5.335  0.2446 -0.3174  0.0681
   85MOL0     O11146   8.873  10.904   5.443 -0.6165 -0.8296  0.4038
   85MOL0     C11147   8.859  10.766   5.463 -0.4587  0.2151 -0.8378
   85MOL0     C11148   8.810  10.728   5.595  0.4703 -0.8318 -0.0850
   85MOL0     C11149   8.660  10.759   5.592 -0.0008  1.1199  0.3742
   85MOL0     C11150   8.618  10.781   5.739  1.2834  0.7630 -0.3150
   85MOL0     C11151   8.590  10.657   5.812 -0.5327  0.6270 -0.0812
   85MOL0     C11152   8.570  10.558   5.873 -0.1070  0.5082 -0.0755
   85MOL0     C11153   9.011  10.849   5.239  1.2622 -0.9710  0.6205
   85MOL0     C11154   9.095  10.902   5.140 -0.1702  1.0492 -0.5145
   85MOL0     H11155   9.104  11.395   4.818  0.2346 -2.7211 -0.6825
   85MOL0     H11156   9.265  11.564   4.694  0.2138 -0.2811  0.0168
   85MOL0     H11157   9.612  11.381   4.521 -0.9755  0.0821  1.9923
   85MOL0     H11158   9.671  11.520   4.607 -2.6613  1.2933  1.8162
   85MOL0     H11159   9.569  11.665   4.414  0.1990  1.5444 -1.9500
   85MOL0     H11160   9.556  11.505   4.325  0.6686  0.5504 -0.1948
   85MOL0     H11161   9.780  11.452   4.342 -4.8225 -0.4444 -3.2240
   85MOL0     H11162   9.823  11.603   4.434  0.0505 -1.7144  0.4757
   85MOL0     H11163   9.849  11.597   4.165  1.1587  1.3686  1.9972
   85MOL0     H11164   9.681  11.599   4.157  0.6547 -2.2580  0.3603
   85MOL0     H11165   9.857  11.808   4.298 -1.3082  0.5092  1.3385
   85MOL0     H11166   9.684  11.819   4.278  0.0643 -0.8664  1.4225
   85MOL0     H11167   9.707  11.825   4.037 -1.1843 -1.4006  0.7485
   85MOL0     H11168   9.889  11.813   4.067 -0.3776 -0.3382  1.7162
   85MOL0     H11169   9.713  12.034   4.182  0.4808  2.0241 -0.1158
   85MOL0     H11170   9.887  12.002   4.209 -1.1159 -0.9507  0.6763
   85MOL0     H11171   9.746  12.060   3.945 -0.6234  0.5287  1.6207
   85MOL0     H11172   9.919  12.043   3.942 -0.0833 -0.9349  1.2637
   85MOL0     H11173   9.818  12.243   4.239  3.2038  0.1121  0.6263
   85MOL0     H11174   9.848  12.526   4.283  1.9529  0.2694 -1.8033
   85MOL0     H11175   9.686  12.483   4.234  1.4344 -1.3125  2.5148
   85MOL0     H11176   9.683  12.677   4.075 -1.3910 -0.3481  2.2263
   85MOL0     H11177   9.854  12.701   4.091 -0.6332 -0.1348 -2.3696
   85MOL0     H11178   9.627  12.699   4.303 -0.3614 -0.2760  2.0009
   85MOL0     H11179   9.786  12.729   4.360  1.8771  3.1569 -0.6203
   85MOL0     H11180   9.784  12.936   4.199  0.2476 -2.0403 -0.3146
   85MOL0     H11181   9.693  12.938   4.357 -1.8454 -0.4948 -0.3999
   85MOL0     H11182   9.338  12.994   4.093 -0.7032  1.0623  0.8845
   85MOL0     H11183   9.275  13.241   4.030 -0.1790  0.5591 -0.7778
   85MOL0     H11184   9.476  13.702   3.881 -1.9777 -3.2994  0.0144
   85MOL0     H11185   9.383  13.934   3.889 -1.4815  1.2407 -0.1215
   85MOL0     H11186   9.306  14.244   4.097 -1.9086 -0.0979 -0.3503
   85MOL0     H11187   9.425  14.145   4.178 -0.1637  0.4237 -1.9335
   85MOL0     H11188   9.274  14.249   4.351  0.3717 -0.1706 -0.0602
   85MOL0     H11189   9.192  14.100   4.349 -0.4703 -0.2423 -0.0405
   85MOL0     H11190   9.046  14.191   4.159 -2.5432  0.3560  1.5325
   85MOL0     H11191   9.127  14.352   4.174 -1.1936  0.7846 -0.6425
   85MOL0     H11192   8.948  14.209   4.375  0.2251  0.5334  1.9457
   85MOL0     H11193   9.057  14.351   4.413 -2.1038  1.8221  0.3527
   85MOL0     H11194   8.829  14.355   4.231 -0.4357  0.0030  1.6395
   85MOL0     H11195   8.942  14.485   4.251 -1.6761  0.5424 -1.1253
   85MOL0     H11196   8.907  14.496   4.485  0.5625 -3.2786  0.9389
   85MOL0     H11197   8.785  14.375   4.495  0.5547 -0.6478 -0.3775
   85MOL0     H11198   8.694  14.611   4.501 -0.1995  0.2599  0.0571
   85MOL0     H11199   8.780  14.648   4.347  3.1270 -1.3318  0.4018
   85MOL0     H11200   8.612  14.405   4.351  3.1423 -0.2796  1.1584
   85MOL0     H11201   8.644  14.525   4.221  0.8148 -1.0523 -0.3688
   85MOL0     H11202   9.361  13.917   4.312 -3.0699 -1.3835 -0.2091
   85MOL0     H11203   9.458  13.697   4.306 -1.2530  0.8267  1.1432
   85MOL0     H11204   9.662  13.371   4.144 -1.4263  3.7342 -5.6851
   85MOL0     H11205   9.736  13.147   4.177  0.4277  2.7923 -0.6021
   85MOL0     H11206   9.583  11.296   4.757  0.6063  4.4961 -2.6174
   85MOL0     H11207   9.436  11.175   4.930 -4.1252 -1.6454  0.4356
   85MOL0     H11208   9.064  11.237   5.213 -0.7415  0.2889  2.9341
   85MOL0     H11209   8.953  11.143   5.401  0.9439  1.0521 -0.5808
   85MOL0     H11210   8.954  10.712   5.459 -1.9946 -2.6945 -0.9067
   85MOL0     H11211   8.788  10.727   5.389 -1.6375 -1.0102  0.8506
   85MOL0     H11212   8.831  10.624   5.623 -2.2511 -1.9550 -1.8353
   85MOL0     H11213   8.854  10.785   5.678 -0.8424 -2.0935  1.5577
   85MOL0     H11214   8.615  10.671   5.545  3.4918 -2.0595  2.4527
   85MOL0     H11215   8.637  10.847   5.532 -0.5809  0.8885  0.2498
   85MOL0     H11216   8.690  10.843   5.794 -0.2552  0.1508  2.6080
   85MOL0     H11217   8.531  10.847   5.740  1.9558  1.7863 -2.7471
   85MOL0     H11218   8.545  10.470   5.929 -0.0981  0.5244 -0.0463
   85MOL0     H11219   8.993  10.743   5.254 -1.2388 -0.3177  3.0010
   85MOL0     H11220   9.150  10.833   5.076 -1.2731  0.3248 -0.7058
   86MOL0     O11221   7.355  11.191   7.370 -0.1177  0.2392 -0.1553
   86MOL0     C11222   7.285  11.107   7.314  1.4154 -0.5679 -0.7585
   86MOL0     O11223   7.217  11.009   7.382  0.0428 -0.1693 -0.1495
   86MOL0     C11224   7.259  10.973   7.498 -0.7576  0.1284 -0.7826
   86MOL0     C11225   7.153  10.929   7.577  0.1795 -0.5915 -0.2906
   86MOL0     C11226   7.183  10.884   7.709  0.0676 -0.5140  0.4047
   86MOL0     C11227   7.311  10.886   7.761  0.6495  0.3372 -0.2745
   86MOL0     O11228   7.318  10.826   7.886 -0.4858 -0.5871  0.2086
   86MOL0     C11229   7.448  10.810   7.940 -0.5591  0.0259  0.8216
   86MOL0     C11230   7.485  10.894   8.061  0.4530 -1.2447  0.9458
   86MOL0     C11231   7.606  10.825   8.136  0.3339 -0.3760 -0.1799
   86MOL0     C11232   7.738  10.823   8.063 -0.9926  1.0361  0.1797
   86MOL0     C11233   7.852  10.803   8.161  0.3262 -0.2463 -0.4005
   86MOL0     C11234   7.874  10.663   8.216 -0.9267 -0.3283  0.7478
   86MOL0     C11235   7.981  10.659   8.332 -1.2487 -0.5881  0.4925
   86MOL0     C11236   7.966  10.527   8.402 -0.3742 -0.2423  0.0551
   86MOL0     N11237   8.023  10.405   8.332  0.3184 -0.6344 -0.1153
   86MOL0     C11238   7.967  10.315   8.259  0.6951  0.5673 -1.1840
   86MOL0     C11239   8.048  10.209   8.254 -0.6955  0.6503  0.3492
   86MOL0     C11240   8.020  10.077   8.186  1.0577  0.2321  0.0521
   86MOL0     C11241   8.028  10.095   8.033  0.1692 -0.2045  0.2254
   86MOL0     C11242   8.037   9.957   7.957 -0.3135  0.1167  0.7471
   86MOL0     C11243   8.117   9.971   7.835  0.5824 -0.9468 -0.4563
   86MOL0     O11244   8.033  10.045   7.740 -0.2580 -0.8449 -0.7992
   86MOL0     C11245   8.073  10.061   7.605 -0.3183  0.3774  0.5817
   86MOL0     C11246   8.200  10.036   7.543  0.3919  0.5322 -0.7672
   86MOL0     C11247   8.224  10.050   7.398 -0.3303  0.1266 -0.4520
   86MOL0     C11248   8.114  10.094   7.322  0.0449  0.4104  0.3562
   86MOL0     C11249   8.136  10.133   7.175  0.1723  0.4198  0.3828
   86MOL0     O11250   8.263  10.160   7.135 -0.0102 -0.1719  0.2300
   86MOL0     C11251   8.285  10.203   7.008  0.4660 -0.6905 -0.0126
   86MOL0     C11252   8.281  10.118   6.900  0.2524 -0.8861 -0.2943
   86MOL0     C11253   8.322  10.147   6.771 -0.5285 -0.3173  0.0672
   86MOL0     C11254   8.364  10.284   6.747  0.7514  0.0810  0.1112
   86MOL0     O11255   8.386  10.322   6.617 -0.0425  0.2232 -1.0448
   86MOL0     C11256   8.415  10.236   6.510 -0.0317  0.0919  0.3950
   86MOL0     C11257   8.460  10.328   6.395 -0.0231  0.0346 -0.7585
   86MOL0     C11258   8.551  10.259   6.287  0.5598 -0.7070 -0.4605
   86MOL0     C11259   8.465  10.162   6.195 -0.2883  0.3480 -0.3976
   86MOL0     C11260   8.537  10.026   6.178  0.9737  0.3295 -0.3660
   86MOL0     C11261   8.631  10.042   6.059  0.6553  0.1548 -0.5967
   86MOL0     C11262   8.717   9.924   6.034 -1.0321  0.4803  0.1352
   86MOL0     C11263   8.759   9.934   5.889 -0.3418  0.1640  0.1981
   86MOL0    Cl11264   8.847   9.777   5.858 -0.1387  0.2185  0.1249
   86MOL0     C11265   8.353  10.378   6.850 -0.2618  0.7048  0.1176
   86MOL0     C11266   8.323  10.334   6.979  0.0034  0.2086 -0.1756
   86MOL0     O11267   8.038  10.124   7.101 -0.1013 -0.3425  0.6159
   86MOL0     C11268   7.981  10.106   7.380  0.2152  0.5192 -1.4805
   86MOL0     C11269   7.971  10.097   7.517 -0.4522 -0.1444  0.5845
   86MOL0     N11270   8.165  10.250   8.317 -0.5916 -0.6430  0.5153
   86MOL0     N11271   8.155  10.377   8.363  1.3581 -0.6455  0.5915
   86MOL0     C11272   7.415  10.941   7.688 -0.1512 -0.3293  1.2391
   86MOL0     C11273   7.392  10.989   7.556 -0.6872 -0.1870  0.0088
   86MOL0     C11274   7.263  11.128   7.173  0.3173  0.2386  0.7480
   86MOL0     C11275   7.193  11.030   7.107 -0.7892  0.7002  1.3049
   86MOL0     C11276   7.187  11.021   6.970 -0.2744  0.3294 -0.1859
   86MOL0     C11277   7.236  11.128   6.895 -0.1536  0.1115 -0.2518
   86MOL0     O11278   7.203  11.133   6.759 -0.1726 -0.3848 -0.4320
   86MOL0     C11279   7.211  11.247   6.677 -0.9546  0.3228  0.2609
   86MOL0     C11280   7.254  11.202   6.534 -0.6181  0.1258 -0.0210
   86MOL0     C11281   7.258  11.308   6.425  0.6731 -0.1184 -0.3027
   86MOL0     C11282   7.238  11.265   6.279 -0.0544 -0.2135 -1.0600
   86MOL0     C11283   7.194  11.375   6.203 -0.5079 -1.2097  0.4086
   86MOL0     C11284   7.137  11.468   6.145  0.0574 -0.0460  0.4058
   86MOL0     C11285   7.286  11.248   6.957  0.7362  0.0107  0.0322
   86MOL0     C11286   7.311  11.239   7.093  0.5044 -0.2907  0.2755
   86MOL0     H11287   7.048  10.924   7.549  0.0326  0.1905  0.1064
   86MOL0     H11288   7.109  10.839   7.774 -2.0920 -2.1765 -2.9114
   86MOL0     H11289   7.531  10.816   7.869 -1.4354  4.5749 -0.1059
   86MOL0     H11290   7.454  10.708   7.978  0.6142  0.5410  2.1018
   86MOL0     H11291   7.397  10.906   8.126  0.6721 -1.3365  1.2628
   86MOL0     H11292   7.507  10.996   8.030  0.3927 -0.4835  3.2447
   86MOL0     H11293   7.573  10.722   8.157  4.8295 -2.1852 -0.8140
   86MOL0     H11294   7.626  10.878   8.229  1.1604 -1.2967  0.1754
   86MOL0     H11295   7.747  10.745   7.988  2.3201  2.8203 -1.5400
   86MOL0     H11296   7.731  10.918   8.008 -1.9829  1.2191  0.5910
   86MOL0     H11297   7.849  10.882   8.236  1.8411  1.1055 -1.6938
   86MOL0     H11298   7.948  10.814   8.110  1.1187 -3.4327  0.1711
   86MOL0     H11299   7.899  10.597   8.133  1.2704 -0.4781  1.4480
   86MOL0     H11300   7.778  10.629   8.257 -0.7459 -3.4030 -1.0930
   86MOL0     H11301   8.080  10.669   8.287 -2.2715 -0.9571 -1.9420
   86MOL0     H11302   7.953  10.744   8.396 -0.0253 -0.2829  0.6458
   86MOL0     H11303   7.860  10.517   8.425 -0.1459  2.2851  2.6622
   86MOL0     H11304   8.024  10.553   8.491  2.9987 -2.7995 -1.1672
   86MOL0     H11305   7.863  10.305   8.231  0.9187 -0.8865 -1.5678
   86MOL0     H11306   7.919  10.040   8.209  0.0729 -0.1685 -4.0150
   86MOL0     H11307   8.085   9.998   8.224 -0.9165 -0.7584  1.5273
   86MOL0     H11308   8.116  10.159   8.022  0.4525  0.4831  4.6762
   86MOL0     H11309   7.936  10.148   8.005 -0.3107 -1.3552 -0.4342
   86MOL0     H11310   8.090   9.885   8.020  1.4959 -0.7704 -1.6061
   86MOL0     H11311   7.944   9.910   7.924  1.5823 -2.2900 -1.6867
   86MOL0     H11312   8.134   9.870   7.796  3.5135 -1.0685  0.8706
   86MOL0     H11313   8.215  10.017   7.853 -0.3574  1.8039 -1.7097
   86MOL0     H11314   8.280   9.988   7.598 -0.3596 -1.6018 -1.4559
   86MOL0     H11315   8.329  10.047   7.371 -0.5918 -1.5823 -1.3776
   86MOL0     H11316   8.245  10.016   6.910 -0.7732 -0.3796  1.6830
   86MOL0     H11317   8.318  10.074   6.691 -2.4794  0.1257 -0.2836
   86MOL0     H11318   8.326  10.177   6.484  0.2586 -0.5009  0.7152
   86MOL0     H11319   8.508  10.180   6.526  1.8557  2.4907 -1.3228
   86MOL0     H11320   8.519  10.409   6.439 -0.6705  0.3361 -0.4341
   86MOL0     H11321   8.377  10.377   6.342  0.4003  2.2583  0.4900
   86MOL0     H11322   8.639  10.216   6.336  2.0627 -0.8188 -3.0304
   86MOL0     H11323   8.591  10.340   6.225  0.8639 -0.2997  0.2478
   86MOL0     H11324   8.373  10.147   6.251  0.0412  1.1963  0.3909
   86MOL0     H11325   8.440  10.209   6.100 -1.2643  0.7406  0.0463
   86MOL0     H11326   8.449   9.964   6.158  2.2440 -1.5819 -0.2615
   86MOL0     H11327   8.589   9.990   6.266 -0.9207  0.9306  1.0679
   86MOL0     H11328   8.695  10.125   6.089 -0.2412  1.8672 -3.1230
   86MOL0     H11329   8.571  10.073   5.973  0.3166  0.9074 -0.0989
   86MOL0     H11330   8.807   9.926   6.096 -1.6303 -1.0469  1.1137
   86MOL0     H11331   8.659   9.836   6.065 -1.2920  0.3881 -0.6061
   86MOL0     H11332   8.827  10.015   5.860  0.7751 -1.5230 -2.2170
   86MOL0     H11333   8.670   9.941   5.826 -0.1583 -0.9259 -0.2034
   86MOL0     H11334   8.376  10.484   6.847 -3.6303  1.5625 -0.1596
   86MOL0     H11335   8.333  10.411   7.055  0.0654 -1.0900  1.1958
   86MOL0     H11336   7.892  10.136   7.325 -0.7705 -0.0694 -0.2422
   86MOL0     H11337   7.875  10.118   7.563  0.2011  0.6882  1.6157
   86MOL0     H11338   7.515  10.960   7.727  0.3123  1.0490 -0.5151
   86MOL0     H11339   7.472  11.026   7.493 -0.3610  3.6400  2.3531
   86MOL0     H11340   7.156  10.941   7.156 -2.5665  0.7668  0.1773
   86MOL0     H11341   7.132  10.944   6.917  1.8179 -2.5621  1.5634
   86MOL0     H11342   7.284  11.325   6.701  0.4346 -0.7859 -0.2213
   86MOL0     H11343   7.113  11.294   6.687 -1.4930 -0.6232 -0.4067
   86MOL0     H11344   7.358  11.169   6.540 -0.2973  1.1890  0.5659
   86MOL0     H11345   7.192  11.117   6.504  1.9588 -1.3452 -1.5806
   86MOL0     H11346   7.349  11.368   6.438  1.7271 -1.9559  1.4609
   86MOL0     H11347   7.180  11.382   6.443  0.6462 -0.1281 -0.3886
   86MOL0     H11348   7.337  11.236   6.242 -0.1955  0.9737 -2.4963
   86MOL0     H11349   7.161  11.189   6.262  0.5960 -0.6746 -2.0503
   86MOL0     H11350   7.073  11.547   6.112 -0.9288  0.1764  2.6666
   86MOL0     H11351   7.332  11.325   6.895  0.4766  0.2663  0.1547
   86MOL0     H11352   7.360  11.322   7.143  1.2430 -0.0968 -0.7370
   87MOL0     O11353   8.694   5.625   6.628  0.7176 -0.0902  0.1640
   87MOL0     C11354   8.790   5.654   6.565  0.4995 -0.1343  0.3126
   87MOL0     O11355   8.918   5.625   6.592  0.4058  0.4112  0.6949
   87MOL0     C11356   8.961   5.550   6.693  0.5541  0.3032 -0.9189
   87MOL0     C11357   8.881   5.474   6.781 -0.3351  0.7061 -0.7149
   87MOL0     C11358   8.937   5.394   6.885  0.6855  0.4102  0.5236
   87MOL0     C11359   9.075   5.394   6.903  1.1983  0.9992  0.0348
   87MOL0     O11360   9.121   5.321   7.007 -0.7932 -0.6397  0.8576
   87MOL0     C11361   9.065   5.358   7.127  0.2429  0.5916 -0.0128
   87MOL0     C11362   9.114   5.262   7.234 -0.5202 -0.5214  0.3707
   87MOL0     C11363   9.103   5.115   7.196 -0.0910 -0.6046 -0.1565
   87MOL0     C11364   9.134   5.047   7.337 -0.4509  0.6318 -0.0502
   87MOL0     C11365   9.285   5.063   7.368  0.5068  0.4740  0.3693
   87MOL0     C11366   9.341   4.961   7.469  0.9945  0.2260 -0.0029
   87MOL0     C11367   9.306   5.011   7.616 -0.7901  0.0409 -0.0961
   87MOL0     C11368   9.426   5.102   7.670  0.1335  0.7664  0.0825
   87MOL0     N11369   9.530   5.018   7.734 -0.2832 -0.4407  0.3304
   87MOL0     C11370   9.539   4.996   7.864  0.9003 -0.4079  0.4008
   87MOL0     C11371   9.667   4.955   7.887  0.1314 -0.1991  0.4274
   87MOL0     C11372   9.712   4.909   8.022  0.0700 -0.4072 -0.5025
   87MOL0     C11373   9.757   5.021   8.119  0.7291 -0.4004 -0.8247
   87MOL0     C11374   9.800   4.962   8.251 -0.6889 -0.8175 -0.3587
   87MOL0     C11375   9.954   4.934   8.268  0.1040  0.9176  0.2548
   87MOL0     O11376  10.023   5.061   8.294 -0.5747  0.0238  0.2019
   87MOL0     C11377  10.083   5.072   8.418  0.2087  0.5675 -0.3795
   87MOL0     C11378  10.222   5.078   8.422 -0.2046  0.0052 -1.1079
   87MOL0     C11379  10.296   5.081   8.548  0.6399 -0.3672 -0.2069
   87MOL0     C11380  10.212   5.082   8.665  0.1481 -0.0305  0.0027
   87MOL0     C11381  10.275   5.084   8.800 -0.9130 -0.7976  0.1229
   87MOL0     O11382  10.409   5.083   8.802 -0.1295 -0.5927  0.6423
   87MOL0     C11383  10.488   5.080   8.914  0.2343  0.9283  0.5640
   87MOL0     C11384  10.550   4.959   8.945  0.6324 -0.0982 -0.4668
   87MOL0     C11385  10.619   4.946   9.078 -0.0736 -0.0073 -0.2416
   87MOL0     C11386  10.640   5.059   9.154  0.2362  0.4224 -0.6382
   87MOL0     O11387  10.728   5.072   9.258  0.3027 -0.0491  0.1667
   87MOL0     C11388  10.809   4.960   9.299  0.4162  0.4043  0.3151
   87MOL0     C11389  10.732   4.851   9.377 -0.6249 -0.1253  0.5837
   87MOL0     C11390  10.767   4.704   9.347 -0.7059 -0.7076 -0.3578
   87MOL0     C11391  10.918   4.659   9.365 -0.7009  0.4104 -0.9441
   87MOL0     C11392  10.968   4.538   9.265 -0.1563 -0.3409 -1.1484
   87MOL0     C11393  11.000   4.582   9.128  0.1213 -0.5007  0.2427
   87MOL0     C11394  11.107   4.692   9.114  0.1375  0.3223 -0.3637
   87MOL0     C11395  11.175   4.702   8.979  0.5709 -0.4361 -1.2741
   87MOL0    Cl11396  11.047   4.692   8.842  0.4419  0.2754  0.1545
   87MOL0     C11397  10.576   5.174   9.122  0.5799  0.2017 -0.0794
   87MOL0     C11398  10.497   5.190   9.005  0.4104  0.3961 -1.2163
   87MOL0     O11399  10.199   5.080   8.895 -0.5062  0.6557  0.4981
   87MOL0     C11400  10.072   5.086   8.649 -0.3739 -0.3784  0.1094
   87MOL0     C11401  10.007   5.088   8.530  0.3078  0.4361 -0.6956
   87MOL0     N11402   9.736   4.958   7.768  0.5946 -0.6796 -0.8075
   87MOL0     N11403   9.653   4.992   7.671 -0.3881 -0.1090 -0.5853
   87MOL0     C11404   9.149   5.488   6.831 -0.4067  1.0096  0.2312
   87MOL0     C11405   9.092   5.557   6.722  0.1640 -0.4539 -0.2987
   87MOL0     C11406   8.753   5.731   6.440 -0.3376 -1.0698  0.2470
   87MOL0     C11407   8.629   5.801   6.419 -0.2343 -0.6295  0.5826
   87MOL0     C11408   8.609   5.886   6.315 -0.8951  0.1957  0.1138
   87MOL0     C11409   8.718   5.928   6.238  0.7803 -0.0794 -0.5593
   87MOL0     O11410   8.698   6.022   6.134 -0.3672  0.3536 -0.3108
   87MOL0     C11411   8.633   6.145   6.161  0.2106  1.1278 -0.0668
   87MOL0     C11412   8.495   6.173   6.086 -0.1009 -0.5976 -0.3499
   87MOL0     C11413   8.481   6.325   6.064  0.3304  0.1176  1.2166
   87MOL0     C11414   8.463   6.409   6.188  1.2140  0.5988 -0.7481
   87MOL0     C11415   8.594   6.433   6.256 -0.0101 -0.3125  0.1107
   87MOL0     C11416   8.694   6.470   6.310 -1.0629 -0.5441  0.0159
   87MOL0     C11417   8.831   5.859   6.250 -1.0391  0.5872 -0.5646
   87MOL0     C11418   8.850   5.759   6.346 -0.2839  0.0416 -1.6960
   87MOL0     H11419   8.773   5.476   6.772 -0.5989  1.3083  1.8599
   87MOL0     H11420   8.858   5.340   6.936 -0.4783  0.1535 -1.4343
   87MOL0     H11421   8.956   5.367   7.124  0.4203  4.0305 -0.3274
   87MOL0     H11422   9.087   5.464   7.144 -1.1750  1.1956 -1.5819
   87MOL0     H11423   9.065   5.288   7.328  1.4214 -1.1443  1.6194
   87MOL0     H11424   9.219   5.288   7.249 -0.6206  2.0076 -2.2910
   87MOL0     H11425   9.180   5.098   7.120 -1.0019 -1.3717 -0.9410
   87MOL0     H11426   9.002   5.091   7.160 -0.4687 -0.5047  0.7845
   87MOL0     H11427   9.072   5.083   7.419  1.4492  0.5210  1.4851
   87MOL0     H11428   9.111   4.941   7.323 -0.3608  0.3533  1.7181
   87MOL0     H11429   9.327   5.160   7.398  1.3633  0.8661 -1.8953
   87MOL0     H11430   9.318   5.061   7.263 -7.2369 -0.6486 -2.7850
   87MOL0     H11431   9.448   4.944   7.454  1.3074  0.6613  1.5791
   87MOL0     H11432   9.286   4.870   7.442 -0.6532  1.4239 -0.9173
   87MOL0     H11433   9.209   5.060   7.613 -1.0035 -0.0526  2.5085
   87MOL0     H11434   9.294   4.919   7.674 -1.4829  2.3261  3.8094
   87MOL0     H11435   9.394   5.174   7.745  0.3955  0.9571  0.0158
   87MOL0     H11436   9.460   5.176   7.596 -2.9921  2.9686  0.6643
   87MOL0     H11437   9.447   5.004   7.921 -0.7684  1.1878 -2.2585
   87MOL0     H11438   9.803   4.852   8.002  0.8089  1.1892 -1.9635
   87MOL0     H11439   9.628   4.851   8.059 -0.0715 -0.0084 -0.1889
   87MOL0     H11440   9.677   5.096   8.118  0.8383 -0.2720 -0.0768
   87MOL0     H11441   9.839   5.071   8.067  0.6276 -0.0023 -0.6071
   87MOL0     H11442   9.769   5.045   8.315  2.5660  0.3972 -0.2095
   87MOL0     H11443   9.741   4.873   8.276  0.4130 -1.6007 -0.4559
   87MOL0     H11444   9.986   4.901   8.169 -1.7756  3.1296 -1.2060
   87MOL0     H11445   9.964   4.858   8.347  0.6527 -0.0784 -0.7422
   87MOL0     H11446  10.269   5.067   8.324  1.0745  1.0490 -0.6376
   87MOL0     H11447  10.404   5.082   8.546  0.6932 -2.2848  0.4529
   87MOL0     H11448  10.541   4.868   8.887  3.6121 -0.9330  0.2088
   87MOL0     H11449  10.659   4.847   9.097 -0.9252 -0.9477 -2.8675
   87MOL0     H11450  10.892   5.007   9.353 -2.0036  3.4575  1.6898
   87MOL0     H11451  10.849   4.921   9.205 -1.4821  0.8732 -0.7430
   87MOL0     H11452  10.626   4.868   9.358 -0.1573  2.5178 -0.0161
   87MOL0     H11453  10.757   4.867   9.482  0.8259  0.6887  0.1419
   87MOL0     H11454  10.737   4.708   9.241 -1.9921  1.4730  0.0229
   87MOL0     H11455  10.715   4.633   9.412  3.5231 -2.3355  1.5501
   87MOL0     H11456  10.970   4.754   9.350  0.0677  0.5746  2.1032
   87MOL0     H11457  10.955   4.622   9.460  0.1500 -0.5011 -1.6149
   87MOL0     H11458  10.887   4.464   9.257 -1.0157  0.4972 -0.4387
   87MOL0     H11459  11.059   4.485   9.294  0.6139  2.1729  1.4811
   87MOL0     H11460  10.911   4.616   9.075  1.4920  0.2843 -1.6906
   87MOL0     H11461  11.026   4.493   9.069  0.9082  0.6085 -1.1504
   87MOL0     H11462  11.064   4.788   9.145  1.9933  1.2628 -0.5926
   87MOL0     H11463  11.191   4.664   9.177 -0.8815 -1.7489  0.1729
   87MOL0     H11464  11.256   4.629   8.976  0.9199 -0.2096  1.0491
   87MOL0     H11465  11.210   4.805   8.967 -1.6414  0.5442 -0.0943
   87MOL0     H11466  10.598   5.265   9.178 -0.1456 -1.0462  2.3809
   87MOL0     H11467  10.432   5.275   8.989  1.9062  1.8531  0.0117
   87MOL0     H11468  10.004   5.078   8.733 -2.3780 -0.0198 -1.4144
   87MOL0     H11469   9.899   5.085   8.526  0.3136 -0.7394 -0.2802
   87MOL0     H11470   9.255   5.510   6.844  0.6171 -2.9921 -0.0132
   87MOL0     H11471   9.158   5.627   6.672  0.1676  2.2730  3.1348
   87MOL0     H11472   8.547   5.777   6.487  0.0554 -1.0904  0.7750
   87MOL0     H11473   8.516   5.942   6.313 -0.6627  0.5767 -0.1073
   87MOL0     H11474   8.711   6.217   6.133  0.3023  1.5619  1.2544
   87MOL0     H11475   8.620   6.155   6.269  1.5875  1.0625  0.1172
   87MOL0     H11476   8.510   6.129   5.987  3.0274  1.6921 -1.0696
   87MOL0     H11477   8.406   6.138   6.138 -0.3893 -2.4010 -1.9316
   87MOL0     H11478   8.390   6.338   6.006  0.2178 -2.5746  0.6747
   87MOL0     H11479   8.569   6.354   6.007  0.4835 -0.3212  1.2216
   87MOL0     H11480   8.406   6.496   6.154 -0.8923 -1.7776 -4.0204
   87MOL0     H11481   8.401   6.347   6.253  2.3743  0.5022  0.3115
   87MOL0     H11482   8.785   6.497   6.361 -1.2792 -2.3031  1.4179
   87MOL0     H11483   8.904   5.887   6.175 -1.6126 -0.1078 -1.4021
   87MOL0     H11484   8.942   5.703   6.362  0.3616  1.2918 -0.8224
   88MOL0     O11485   7.371   6.854   6.729  0.2132 -0.3540  0.1063
   88MOL0     C11486   7.456   6.891   6.647  0.0981 -0.7535 -0.3647
   88MOL0     O11487   7.473   6.846   6.521 -0.3692 -0.7180  0.4310
   88MOL0     C11488   7.402   6.746   6.465  0.6606 -0.2928 -0.5694
   88MOL0     C11489   7.387   6.614   6.518  0.1798 -0.7644 -1.0807
   88MOL0     C11490   7.307   6.522   6.464  0.3675  0.2802 -0.3240
   88MOL0     C11491   7.240   6.543   6.338 -0.0878 -0.3003 -0.0622
   88MOL0     O11492   7.147   6.461   6.272  0.1327 -0.2433 -0.0537
   88MOL0     C11493   7.069   6.367   6.358  0.3490  0.0149  0.3543
   88MOL0     C11494   6.948   6.319   6.283  0.0447 -0.1240 -0.3407
   88MOL0     C11495   6.897   6.187   6.354  0.2660  0.1876  0.3717
   88MOL0     C11496   6.800   6.219   6.465 -0.0597  0.1777  0.0604
   88MOL0     C11497   6.664   6.263   6.406  0.0441 -0.2839  0.0077
   88MOL0     C11498   6.557   6.261   6.515  0.2023 -0.3064 -0.1408
   88MOL0     C11499   6.561   6.378   6.621 -0.5950 -1.3206  0.1954
   88MOL0     C11500   6.461   6.359   6.737 -0.1484  0.3003 -0.8319
   88MOL0     N11501   6.443   6.493   6.823 -0.2881  0.4489 -0.3517
   88MOL0     C11502   6.487   6.510   6.953  0.0367 -0.2497  0.2110
   88MOL0     C11503   6.437   6.631   6.990  0.6365  0.3867 -0.1137
   88MOL0     C11504   6.463   6.704   7.115 -0.9770 -0.0546 -0.0049
   88MOL0     C11505   6.511   6.844   7.090 -0.0911 -0.9183 -0.0431
   88MOL0     C11506   6.515   6.931   7.219 -1.0119  0.1581  0.4808
   88MOL0     C11507   6.634   6.877   7.309 -0.2270  0.5004  0.0667
   88MOL0     O11508   6.654   6.942   7.436  1.0783  0.7588  0.2726
   88MOL0     C11509   6.700   7.066   7.434  0.3232 -0.0542  0.2773
   88MOL0     C11510   6.677   7.140   7.546  0.4473  0.2808 -0.7327
   88MOL0     C11511   6.702   7.277   7.560  0.2315 -0.5953 -0.2728
   88MOL0     C11512   6.747   7.351   7.459 -0.1297 -0.0294 -0.1227
   88MOL0     C11513   6.771   7.500   7.479  0.1526 -1.0814  0.6233
   88MOL0     O11514   6.726   7.566   7.592  0.0033 -0.7160  0.1991
   88MOL0     C11515   6.743   7.705   7.592 -0.0423  0.1458  0.2453
   88MOL0     C11516   6.668   7.787   7.517 -0.2937 -0.2093  0.5421
   88MOL0     C11517   6.696   7.925   7.528  0.7132 -0.3654  0.0813
   88MOL0     C11518   6.799   7.970   7.616 -0.3167 -0.0859 -0.4679
   88MOL0     O11519   6.830   8.108   7.639  0.6560 -0.1768  0.2489
   88MOL0     C11520   6.726   8.204   7.625 -0.1068  0.2675 -0.2453
   88MOL0     C11521   6.758   8.327   7.712 -0.0621  0.0727 -0.1699
   88MOL0     C11522   6.877   8.405   7.648  0.4960 -0.2215 -0.0711
   88MOL0     C11523   6.930   8.530   7.732 -0.0544  0.2053 -0.0763
   88MOL0     C11524   7.079   8.571   7.698 -0.3905 -0.3015  0.1601
   88MOL0     C11525   7.144   8.631   7.829  0.0757  0.4260 -0.0592
   88MOL0     C11526   7.296   8.653   7.821  0.3269  0.4059  0.4518
   88MOL0     C11527   7.340   8.743   7.941  0.2079 -0.0428  0.2545
   88MOL0    Cl11528   7.510   8.787   7.903  0.6866 -0.1597  0.1550
   88MOL0     C11529   6.874   7.872   7.686 -0.3150 -0.4792  0.0628
   88MOL0     C11530   6.846   7.745   7.676  0.1859  0.0945 -0.5880
   88MOL0     O11531   6.824   7.551   7.380  0.1170 -0.4465 -0.0245
   88MOL0     C11532   6.788   7.270   7.341 -0.2318 -0.6811 -0.0358
   88MOL0     C11533   6.773   7.132   7.326  0.3660  0.3309  0.1572
   88MOL0     N11534   6.370   6.682   6.884 -0.9759 -0.6411  0.0487
   88MOL0     N11535   6.372   6.602   6.785  0.4354 -0.4035  1.0470
   88MOL0     C11536   7.252   6.675   6.280 -0.2058  0.3921  0.1468
   88MOL0     C11537   7.334   6.775   6.348  0.4731 -0.4975  1.0157
   88MOL0     C11538   7.551   7.011   6.686 -1.2954  0.9390  0.3507
   88MOL0     C11539   7.666   7.040   6.596  0.5749 -0.6685 -1.1547
   88MOL0     C11540   7.767   7.128   6.644  0.2570  1.0098  0.5736
   88MOL0     C11541   7.751   7.206   6.757 -0.3923  0.8183 -0.5419
   88MOL0     O11542   7.830   7.306   6.793 -0.3243 -0.0301 -0.5272
   88MOL0     C11543   7.951   7.326   6.729 -0.3206  0.6810  0.4056
   88MOL0     C11544   8.015   7.456   6.769 -0.4973 -0.5584 -0.4299
   88MOL0     C11545   8.062   7.482   6.921 -0.7153  0.7265 -0.0968
   88MOL0     C11546   8.082   7.634   6.951  0.5141  0.2421 -0.3690
   88MOL0     C11547   8.051   7.649   7.090  0.1829 -0.7087 -0.6189
   88MOL0     C11548   8.020   7.654   7.209 -0.1772 -0.6537  0.6136
   88MOL0     C11549   7.638   7.186   6.837 -0.2905  0.0492  0.7758
   88MOL0     C11550   7.542   7.088   6.803  0.0958  0.6788  0.5287
   88MOL0     H11551   7.441   6.601   6.612  3.4766  1.3012 -2.5223
   88MOL0     H11552   7.287   6.420   6.495 -2.2033  0.9242  0.4268
   88MOL0     H11553   7.035   6.416   6.450 -0.8846 -2.2378  1.1590
   88MOL0     H11554   7.132   6.284   6.390  0.9731  0.3245 -0.0546
   88MOL0     H11555   6.982   6.291   6.183  1.5601  0.9546 -0.1628
   88MOL0     H11556   6.877   6.403   6.280  0.5692  0.3476  0.1108
   88MOL0     H11557   6.978   6.133   6.404 -0.4099  0.3713  1.7149
   88MOL0     H11558   6.857   6.121   6.276  2.3206  0.6781 -1.1715
   88MOL0     H11559   6.789   6.126   6.521 -4.0049  0.5064  0.0488
   88MOL0     H11560   6.832   6.294   6.538  0.7537  0.2868 -0.3885
   88MOL0     H11561   6.627   6.190   6.334  0.7805 -0.6224 -0.0402
   88MOL0     H11562   6.672   6.359   6.355  1.7820 -0.2228  0.3431
   88MOL0     H11563   6.569   6.174   6.581  1.0656  1.9184  2.8500
   88MOL0     H11564   6.463   6.263   6.459  1.6026 -0.6984 -2.6634
   88MOL0     H11565   6.663   6.408   6.648 -1.0426 -0.5845  1.1517
   88MOL0     H11566   6.529   6.465   6.563  2.7048 -1.1789 -1.6586
   88MOL0     H11567   6.492   6.280   6.806  0.2462  0.1949 -1.1299
   88MOL0     H11568   6.359   6.335   6.706 -1.4319  3.0645  0.8400
   88MOL0     H11569   6.547   6.435   7.005 -0.4926 -1.6321 -1.0739
   88MOL0     H11570   6.538   6.653   7.176  0.8030 -1.2318 -2.9829
   88MOL0     H11571   6.377   6.713   7.183 -0.5751 -1.3626  0.7074
   88MOL0     H11572   6.447   6.895   7.018 -0.2745 -1.9584 -0.6394
   88MOL0     H11573   6.606   6.850   7.037 -2.0376  0.8345 -3.7726
   88MOL0     H11574   6.540   7.033   7.186  1.9027 -1.1611 -1.8956
   88MOL0     H11575   6.420   6.925   7.273 -0.8426  3.2198  1.3079
   88MOL0     H11576   6.722   6.876   7.245 -0.7520  2.2271 -0.7478
   88MOL0     H11577   6.612   6.772   7.333  3.1464 -0.7087 -1.5366
   88MOL0     H11578   6.642   7.070   7.622 -2.5934 -1.2799 -3.3495
   88MOL0     H11579   6.691   7.318   7.660  0.6162 -0.1295 -0.4177
   88MOL0     H11580   6.598   7.745   7.445 -0.7630 -2.2167  2.0802
   88MOL0     H11581   6.614   7.985   7.489  1.6666  3.7028  3.5134
   88MOL0     H11582   6.636   8.165   7.672  2.4978 -0.8166  4.5250
   88MOL0     H11583   6.708   8.223   7.518  0.7698  0.2124 -0.4179
   88MOL0     H11584   6.786   8.290   7.812 -1.8444  4.3916  2.1859
   88MOL0     H11585   6.672   8.391   7.734 -1.3391 -1.9263  0.9721
   88MOL0     H11586   6.850   8.453   7.553 -1.6974  3.4783  2.1417
   88MOL0     H11587   6.956   8.331   7.633 -0.3177 -0.8760 -1.2829
   88MOL0     H11588   6.864   8.616   7.718  0.9446  1.2160  1.1827
   88MOL0     H11589   6.914   8.517   7.839 -2.4904  0.9814 -0.2847
   88MOL0     H11590   7.084   8.634   7.609  2.7617 -3.6495 -2.3633
   88MOL0     H11591   7.134   8.481   7.667  1.1117  1.1134 -1.5440
   88MOL0     H11592   7.127   8.575   7.922 -0.0868  0.4432 -0.0790
   88MOL0     H11593   7.099   8.729   7.846 -1.8809 -0.7677  2.1985
   88MOL0     H11594   7.336   8.551   7.829 -1.3167 -0.3961 -0.8790
   88MOL0     H11595   7.329   8.691   7.724 -1.8224  0.6271 -0.2476
   88MOL0     H11596   7.336   8.696   8.040  0.9941  0.8308  0.7185
   88MOL0     H11597   7.288   8.839   7.951 -0.0893 -0.3735  2.2431
   88MOL0     H11598   6.955   7.901   7.752  1.7324 -4.8789 -0.1305
   88MOL0     H11599   6.913   7.676   7.727  2.5124  1.7240 -1.2982
   88MOL0     H11600   6.832   7.315   7.252 -2.5826 -0.5872 -1.2224
   88MOL0     H11601   6.800   7.073   7.239 -2.6909 -0.1832 -0.5546
   88MOL0     H11602   7.194   6.680   6.189 -0.1880 -3.6144 -0.2563
   88MOL0     H11603   7.339   6.875   6.305  1.4776 -0.2461  1.7060
   88MOL0     H11604   7.673   6.988   6.501 -0.0114 -3.5881  0.2865
   88MOL0     H11605   7.847   7.157   6.576 -2.1383  0.6585 -2.6454
   88MOL0     H11606   7.949   7.324   6.619  3.1473  4.4726  0.0739
   88MOL0     H11607   8.024   7.250   6.758  0.6503  0.6208 -1.9806
   88MOL0     H11608   8.107   7.475   6.712  0.4515  1.1946  1.5822
   88MOL0     H11609   7.940   7.532   6.747  0.2737  0.2116 -0.4820
   88MOL0     H11610   8.154   7.423   6.923 -0.9887  0.1502 -2.1608
   88MOL0     H11611   7.995   7.426   6.987  2.7513 -0.7585  2.4456
   88MOL0     H11612   8.180   7.677   6.927  0.2710  2.0502  1.5777
   88MOL0     H11613   8.003   7.685   6.894 -0.1683 -0.5446 -0.1496
   88MOL0     H11614   7.995   7.678   7.310 -0.2239 -0.0046  0.4539
   88MOL0     H11615   7.616   7.246   6.925 -0.8597  2.2256 -0.7804
   88MOL0     H11616   7.454   7.085   6.867  0.7024  2.4079  1.5131
   89MOL0     O11617   2.796   2.960   6.480  0.4347  0.0895 -0.5408
   89MOL0     C11618   2.897   2.908   6.438  0.9533  0.4808  0.0944
   89MOL0     O11619   2.982   2.839   6.529  0.2929  0.1409 -0.8126
   89MOL0     C11620   2.953   2.843   6.661 -0.2027 -0.7534  0.2532
   89MOL0     C11621   3.046   2.906   6.745 -0.0334  0.1268  0.2387
   89MOL0     C11622   3.038   2.894   6.887 -0.5804  0.3438 -0.2864
   89MOL0     C11623   2.919   2.841   6.934 -0.3521 -0.9628 -0.2926
   89MOL0     O11624   2.891   2.862   7.067 -0.8983 -0.0004  0.2109
   89MOL0     C11625   2.875   2.998   7.100  0.1087  0.3955  0.6746
   89MOL0     C11626   2.763   3.018   7.203 -0.1801  1.2707  0.9617
   89MOL0     C11627   2.797   3.130   7.294 -0.5392 -0.4215  0.7408
   89MOL0     C11628   2.669   3.167   7.366  0.4164  0.7638 -0.2502
   89MOL0     C11629   2.681   3.298   7.442 -0.1906 -0.4285 -0.5310
   89MOL0     C11630   2.781   3.279   7.562  0.1311  1.1635  0.0170
   89MOL0     C11631   2.750   3.375   7.676  0.3079  0.3571  0.4601
   89MOL0     C11632   2.652   3.313   7.771 -0.9919 -0.4371  0.6566
   89MOL0     N11633   2.709   3.208   7.846 -0.0575 -0.0792  0.6457
   89MOL0     C11634   2.767   3.226   7.966 -0.2216 -0.3045 -0.7634
   89MOL0     C11635   2.818   3.113   8.003  0.4614  0.4937  0.2303
   89MOL0     C11636   2.903   3.083   8.128 -0.7796  0.4561  0.4374
   89MOL0     C11637   3.036   3.014   8.106 -0.0264 -0.0097 -0.1304
   89MOL0     C11638   3.033   2.883   8.025 -0.5068  0.7356  0.5444
   89MOL0     C11639   3.162   2.801   8.023 -0.2639  0.3269  1.3031
   89MOL0     O11640   3.210   2.777   8.156  0.0754 -0.1513  0.2181
   89MOL0     C11641   3.335   2.715   8.171  0.2734 -0.3692  0.2940
   89MOL0     C11642   3.430   2.701   8.074 -0.6326  0.4688  1.2708
   89MOL0     C11643   3.555   2.647   8.103  0.1532  0.9086  0.0352
   89MOL0     C11644   3.587   2.614   8.235  0.5178 -0.5928  0.0884
   89MOL0     C11645   3.722   2.563   8.277  0.2512  0.0816 -0.8424
   89MOL0     O11646   3.757   2.539   8.406 -0.4089 -0.1119  0.1374
   89MOL0     C11647   3.892   2.540   8.439 -1.1016  0.7134  0.0466
   89MOL0     C11648   3.958   2.421   8.447 -0.0851 -0.4020 -0.0275
   89MOL0     C11649   4.099   2.424   8.485  0.5461  0.5571  0.2044
   89MOL0     C11650   4.165   2.540   8.510 -0.7717  0.7896 -0.3404
   89MOL0     O11651   4.300   2.534   8.539 -0.1237  0.3523 -0.0579
   89MOL0     C11652   4.391   2.438   8.493  0.2010 -0.2530  0.6275
   89MOL0     C11653   4.536   2.491   8.510 -0.6876 -0.6085 -0.0062
   89MOL0     C11654   4.582   2.624   8.446 -0.1639  0.5374 -0.4176
   89MOL0     C11655   4.728   2.623   8.422 -1.1550  0.4942  0.9673
   89MOL0     C11656   4.776   2.548   8.294 -0.6226  0.7748 -0.2090
   89MOL0     C11657   4.742   2.632   8.163  0.0329  0.4058 -0.8275
   89MOL0     C11658   4.826   2.757   8.131  0.0732 -1.2011 -0.3229
   89MOL0     C11659   4.796   2.811   7.997  0.0610  0.2371  0.2069
   89MOL0    Cl11660   4.888   2.961   7.988  0.4142  0.2362  0.4795
   89MOL0     C11661   4.099   2.662   8.503  0.2261 -0.3350 -0.4948
   89MOL0     C11662   3.961   2.657   8.473 -0.2095 -0.6199  0.6933
   89MOL0     O11663   3.804   2.537   8.181 -0.3611  0.0238  0.2712
   89MOL0     C11664   3.490   2.629   8.344  0.1755  0.0863  0.7022
   89MOL0     C11665   3.361   2.681   8.305 -0.1285 -0.1356 -0.1040
   89MOL0     N11666   2.776   3.020   7.905  0.2255  1.3104 -0.3441
   89MOL0     N11667   2.706   3.074   7.816 -0.0474  0.3825 -0.2403
   89MOL0     C11668   2.821   2.779   6.852  0.4496 -0.7533  0.5924
   89MOL0     C11669   2.840   2.779   6.714 -0.2544 -0.2258 -0.1944
   89MOL0     C11670   2.918   2.902   6.298  0.1676  0.4407 -0.9368
   89MOL0     C11671   2.974   2.792   6.229  0.0128 -0.4211  0.2826
   89MOL0     C11672   2.977   2.790   6.090 -0.0624 -0.1506  0.7657
   89MOL0     C11673   2.943   2.893   6.009  0.0367 -0.7606  0.4065
   89MOL0     O11674   2.966   2.884   5.872 -0.7144  0.0569  0.1709
   89MOL0     C11675   2.973   2.999   5.788  0.6855 -0.0403 -0.1986
   89MOL0     C11676   2.836   3.012   5.724 -0.0879 -0.2146  1.0353
   89MOL0     C11677   2.798   3.152   5.681  0.2787  0.6519  0.8949
   89MOL0     C11678   2.666   3.158   5.595  0.0597  0.5125  0.1570
   89MOL0     C11679   2.697   3.094   5.464 -0.6517 -0.1064 -0.5548
   89MOL0     C11680   2.690   3.045   5.347 -1.0657 -0.0075  0.7674
   89MOL0     C11681   2.892   3.010   6.080  1.1138  0.2601  1.0286
   89MOL0     C11682   2.885   3.019   6.222  0.4762  0.8049 -0.6019
   89MOL0     H11683   3.132   2.943   6.689  0.0537  1.5702  1.2735
   89MOL0     H11684   3.105   2.932   6.964  0.1995 -2.0555  0.3182
   89MOL0     H11685   2.853   3.054   7.009  0.2172 -1.5493 -0.6258
   89MOL0     H11686   2.974   3.029   7.133 -1.3800  3.0984  3.0405
   89MOL0     H11687   2.754   2.923   7.257  3.5604 -0.2027 -0.6083
   89MOL0     H11688   2.677   3.036   7.138  0.9908  2.4419 -0.3481
   89MOL0     H11689   2.810   3.222   7.235 -1.7397  0.5036  1.8589
   89MOL0     H11690   2.875   3.118   7.370  0.6626 -1.2555 -0.5688
   89MOL0     H11691   2.592   3.180   7.289 -0.6396 -1.6232  0.3117
   89MOL0     H11692   2.637   3.092   7.440  1.4220 -0.1099 -0.6720
   89MOL0     H11693   2.590   3.334   7.491  0.2810 -1.2172  1.0191
   89MOL0     H11694   2.706   3.374   7.368 -2.6603  1.2119  0.1947
   89MOL0     H11695   2.877   3.304   7.515 -0.5195  2.8757 -0.4518
   89MOL0     H11696   2.791   3.174   7.593 -1.7904  1.1758  0.7622
   89MOL0     H11697   2.836   3.398   7.739  0.4155  1.0484  0.0699
   89MOL0     H11698   2.714   3.472   7.639  0.3940  1.1869  2.4380
   89MOL0     H11699   2.557   3.283   7.726 -0.5740  0.4582 -0.8905
   89MOL0     H11700   2.626   3.394   7.841 -0.5199  0.4718 -0.1916
   89MOL0     H11701   2.779   3.324   8.012 -1.4806 -0.3182 -0.3457
   89MOL0     H11702   2.842   3.011   8.183 -0.7441 -1.6337 -2.0534
   89MOL0     H11703   2.914   3.176   8.184 -3.5359  0.0540  1.7925
   89MOL0     H11704   3.068   2.980   8.205 -0.1394 -0.8208 -0.3584
   89MOL0     H11705   3.115   3.079   8.068 -1.5075  1.0623 -1.5034
   89MOL0     H11706   2.953   2.822   8.068 -0.6232 -1.0231 -1.9989
   89MOL0     H11707   3.005   2.911   7.923 -1.4052 -3.8278 -0.6734
   89MOL0     H11708   3.241   2.853   7.968  0.7414 -1.5447  0.8930
   89MOL0     H11709   3.145   2.705   7.973  0.6786 -0.6349  2.7566
   89MOL0     H11710   3.413   2.736   7.973 -2.3905  1.8981  1.9935
   89MOL0     H11711   3.636   2.639   8.032 -2.4527 -0.5491 -3.0262
   89MOL0     H11712   3.905   2.327   8.442  2.3869 -1.9813  1.6564
   89MOL0     H11713   4.150   2.329   8.498 -0.0933 -0.0501 -1.4513
   89MOL0     H11714   4.358   2.424   8.390 -1.2877  0.7153  0.9479
   89MOL0     H11715   4.377   2.348   8.552  1.6040  1.3622  3.6398
   89MOL0     H11716   4.604   2.418   8.465  1.1642  1.2178 -0.3059
   89MOL0     H11717   4.567   2.497   8.615 -0.4984 -1.3244 -0.0123
   89MOL0     H11718   4.558   2.711   8.507 -0.1013  0.7284 -0.6654
   89MOL0     H11719   4.525   2.646   8.356 -1.8617 -3.3920 -0.5183
   89MOL0     H11720   4.761   2.727   8.406 -0.9913  0.3651  0.4392
   89MOL0     H11721   4.781   2.585   8.509  0.5094  1.5507  0.4827
   89MOL0     H11722   4.741   2.445   8.285  0.7955  0.3991 -2.2210
   89MOL0     H11723   4.885   2.536   8.286 -0.6557  0.6004 -0.3845
   89MOL0     H11724   4.635   2.653   8.163  0.2956  1.8853 -1.3221
   89MOL0     H11725   4.755   2.557   8.084 -1.9673 -0.7831 -0.1020
   89MOL0     H11726   4.792   2.835   8.200 -0.7130 -2.2614  0.5174
   89MOL0     H11727   4.932   2.738   8.150 -0.0901  0.1202  2.4554
   89MOL0     H11728   4.690   2.836   7.983  0.5139  2.0942 -0.1160
   89MOL0     H11729   4.832   2.732   7.930 -0.6522 -2.4765  2.7920
   89MOL0     H11730   4.151   2.752   8.534 -0.1698 -0.6572  1.1731
   89MOL0     H11731   3.905   2.750   8.476  0.4397 -0.2364  1.1371
   89MOL0     H11732   3.527   2.617   8.446  0.9151  0.4009  0.4760
   89MOL0     H11733   3.279   2.697   8.373  1.5688  0.7708  1.8247
   89MOL0     H11734   2.730   2.740   6.896 -0.7728 -0.8993 -1.9017
   89MOL0     H11735   2.768   2.726   6.652  0.1782  0.9326 -1.7492
   89MOL0     H11736   3.014   2.699   6.270 -2.1163 -0.2010  3.2120
   89MOL0     H11737   3.019   2.700   6.047  0.2625 -0.6585  2.1251
   89MOL0     H11738   3.054   2.976   5.719  0.8634 -0.0031 -0.0051
   89MOL0     H11739   3.001   3.090   5.843  1.9315  0.0624 -0.9674
   89MOL0     H11740   2.838   2.953   5.631 -1.2226 -4.1804  3.2796
   89MOL0     H11741   2.756   2.969   5.785  0.1080  3.9313  4.7276
   89MOL0     H11742   2.878   3.206   5.631 -1.0510  1.7144 -0.1764
   89MOL0     H11743   2.762   3.207   5.769 -2.0940  0.8968 -0.1473
   89MOL0     H11744   2.587   3.101   5.643  0.5665 -1.5162 -1.3148
   89MOL0     H11745   2.630   3.260   5.580 -1.5093 -0.0144  0.2469
   89MOL0     H11746   2.691   3.016   5.244  0.9302 -0.6835  0.9218
   89MOL0     H11747   2.859   3.102   6.033 -4.5333 -1.2685  1.1902
   89MOL0     H11748   2.850   3.111   6.268  1.4762  0.1181  1.6925
   90MOL0     O11749   2.317   5.442   8.900  0.0864 -0.2689 -0.1998
   90MOL0     C11750   2.316   5.354   8.815  0.7678  0.6553  0.2592
   90MOL0     O11751   2.208   5.284   8.768  0.0773 -0.4006  0.4537
   90MOL0     C11752   2.082   5.314   8.798 -0.6969  0.0678 -0.2884
   90MOL0     C11753   2.031   5.430   8.751 -0.3978 -0.5016  0.1886
   90MOL0     C11754   1.906   5.473   8.795  0.5875  0.4714 -0.3856
   90MOL0     C11755   1.825   5.394   8.879 -0.6720 -0.2470  0.3634
   90MOL0     O11756   1.703   5.444   8.911  0.0031 -0.5428 -0.7707
   90MOL0     C11757   1.672   5.438   9.054  0.4247 -1.1978  0.8699
   90MOL0     C11758   1.534   5.496   9.098 -0.6464  0.2046 -1.0293
   90MOL0     C11759   1.496   5.617   9.025 -1.0890 -0.1503  0.1284
   90MOL0     C11760   1.585   5.740   9.050  0.3523 -0.2475  0.6301
   90MOL0     C11761   1.554   5.861   8.958 -0.0696 -0.2126 -0.0954
   90MOL0     C11762   1.666   5.953   8.957 -0.2205  0.3337 -0.0867
   90MOL0     C11763   1.633   6.087   8.905  1.0500  0.2124  0.1697
   90MOL0     C11764   1.752   6.178   8.922 -1.0793  0.6802  1.2161
   90MOL0     N11765   1.723   6.311   8.855  0.7446  0.9044 -0.1046
   90MOL0     C11766   1.619   6.383   8.898 -0.3175  0.3367 -0.5169
   90MOL0     C11767   1.631   6.491   8.824  0.5361  0.3055  0.6291
   90MOL0     C11768   1.550   6.607   8.835  1.0929 -0.1075  0.4009
   90MOL0     C11769   1.618   6.715   8.929 -0.3639 -0.6751  0.8138
   90MOL0     C11770   1.552   6.851   8.953 -0.0938 -0.1205  0.4267
   90MOL0     C11771   1.645   6.975   8.967  0.1188  0.8128  0.0183
   90MOL0     O11772   1.709   6.969   9.094  0.5240  0.0201 -0.6162
   90MOL0     C11773   1.689   7.080   9.169  0.3662  0.1414 -0.3395
   90MOL0     C11774   1.716   7.209   9.128 -0.3027  0.9336 -0.4152
   90MOL0     C11775   1.681   7.308   9.220 -0.6630  0.2369 -0.5679
   90MOL0     C11776   1.639   7.275   9.351  1.3669 -0.5170 -0.0814
   90MOL0     C11777   1.631   7.382   9.452 -0.5433 -0.3561  0.4832
   90MOL0     O11778   1.708   7.494   9.438  0.4927  0.7942 -0.2069
   90MOL0     C11779   1.701   7.591   9.539 -0.1429 -0.0934  0.4626
   90MOL0     C11780   1.811   7.633   9.604 -0.3943 -0.1629  0.4202
   90MOL0     C11781   1.800   7.730   9.700 -0.2846  0.3078  0.0615
   90MOL0     C11782   1.671   7.765   9.745  0.5955 -0.9158  0.4064
   90MOL0     O11783   1.651   7.826   9.862 -0.2837 -0.2561 -0.2268
   90MOL0     C11784   1.708   7.747   9.973 -0.5821 -0.9960  0.0436
   90MOL0     C11785   1.672   7.794  10.113 -0.7334  0.0581 -0.4811
   90MOL0     C11786   1.526   7.798  10.125  0.0240 -0.6663  0.5264
   90MOL0     C11787   1.487   7.821  10.271  0.3815  0.0294  0.1435
   90MOL0     C11788   1.344   7.867  10.283  1.0763 -1.0940 -1.9402
   90MOL0     C11789   1.247   7.752  10.249 -0.4282  0.8607  0.5947
   90MOL0     C11790   1.096   7.769  10.268  1.1267 -0.3505  0.0159
   90MOL0     C11791   1.004   7.659  10.210  0.3422 -0.1518  0.2961
   90MOL0    Cl11792   0.991   7.676  10.032  0.3779 -0.5735  0.1774
   90MOL0     C11793   1.556   7.721   9.680 -0.2526  0.4871 -0.5263
   90MOL0     C11794   1.572   7.643   9.569  0.5679  0.1923  0.0221
   90MOL0     O11795   1.557   7.363   9.548  0.0659  0.1147  0.3094
   90MOL0     C11796   1.623   7.141   9.393  0.9826  0.6938 -0.4360
   90MOL0     C11797   1.654   7.036   9.298 -0.4603  0.8433  0.3768
   90MOL0     N11798   1.731   6.486   8.731  0.7081  0.2263 -0.6093
   90MOL0     N11799   1.777   6.366   8.741  0.2855 -0.3561  0.2374
   90MOL0     C11800   1.888   5.270   8.927  0.4899  0.0602 -0.5200
   90MOL0     C11801   2.015   5.230   8.886  0.4650  0.3877 -0.2943
   90MOL0     C11802   2.449   5.320   8.765  0.0528  0.2525 -0.9078
   90MOL0     C11803   2.558   5.405   8.790 -0.0921  0.7204 -0.5073
   90MOL0     C11804   2.689   5.380   8.735  0.3782  0.4946  0.6291
   90MOL0     C11805   2.708   5.251   8.678 -0.5186  0.1855  0.6927
   90MOL0     O11806   2.836   5.221   8.627 -0.9419  0.9140 -0.1999
   90MOL0     C11807   2.953   5.296   8.657 -0.2921 -0.6697 -0.0572
   90MOL0     C11808   2.954   5.422   8.566  0.2425  0.0553 -0.1624
   90MOL0     C11809   3.023   5.547   8.635 -0.5478  0.1225  0.2579
   90MOL0     C11810   3.165   5.520   8.701  0.8946 -0.0269  0.3564
   90MOL0     C11811   3.253   5.499   8.592 -1.5656  0.0004 -0.8900
   90MOL0     C11812   3.324   5.469   8.496 -0.3167 -0.5006 -0.0226
   90MOL0     C11813   2.599   5.170   8.637  0.3777 -0.5223 -0.5232
   90MOL0     C11814   2.468   5.207   8.685 -0.4008  0.2127  0.8292
   90MOL0     H11815   2.092   5.494   8.688  1.1628 -1.0380  1.0725
   90MOL0     H11816   1.860   5.568   8.770 -0.3653 -0.3535 -1.8871
   90MOL0     H11817   1.755   5.485   9.106 -0.4108 -0.2759  1.3959
   90MOL0     H11818   1.675   5.333   9.086  2.2949 -1.4164  0.0730
   90MOL0     H11819   1.538   5.513   9.206 -1.1239 -0.7784 -0.8460
   90MOL0     H11820   1.469   5.410   9.078  0.0280  0.3002 -4.0868
   90MOL0     H11821   1.397   5.631   9.069 -0.8719  2.4201 -0.0065
   90MOL0     H11822   1.492   5.606   8.917 -0.2355 -0.9278  0.1658
   90MOL0     H11823   1.578   5.774   9.154 -0.6894 -2.4985  1.3561
   90MOL0     H11824   1.683   5.694   9.031 -0.3770 -0.7168 -2.3863
   90MOL0     H11825   1.461   5.906   8.995 -0.3311 -1.0458  0.2917
   90MOL0     H11826   1.542   5.825   8.855  1.9936 -2.1253  0.2476
   90MOL0     H11827   1.737   5.900   8.893 -0.0434 -0.8670  1.0546
   90MOL0     H11828   1.716   5.963   9.054  0.4313 -0.6171 -0.3110
   90MOL0     H11829   1.596   6.096   8.802 -4.0061  1.2891  1.8027
   90MOL0     H11830   1.542   6.117   8.957 -1.0660 -1.2978 -2.4381
   90MOL0     H11831   1.844   6.138   8.879 -0.5612  0.7994  2.1744
   90MOL0     H11832   1.773   6.189   9.029 -1.8267 -0.7471  1.5398
   90MOL0     H11833   1.549   6.360   8.978  2.8621 -1.0308  2.0738
   90MOL0     H11834   1.452   6.595   8.882  1.3033  1.6463  1.3823
   90MOL0     H11835   1.537   6.656   8.738  0.5258  2.2531  1.5812
   90MOL0     H11836   1.723   6.730   8.904 -0.5199  0.3391  0.7128
   90MOL0     H11837   1.635   6.675   9.029 -1.6708 -1.4401  0.7516
   90MOL0     H11838   1.486   6.859   8.865 -3.1389 -1.2458  2.4309
   90MOL0     H11839   1.496   6.838   9.046 -1.9751 -0.9499 -0.7666
   90MOL0     H11840   1.576   7.057   8.945  0.2030  0.2960 -2.4512
   90MOL0     H11841   1.718   6.992   8.887  1.4874  1.8595  1.4289
   90MOL0     H11842   1.771   7.214   9.034 -1.4121 -2.9721 -1.4563
   90MOL0     H11843   1.696   7.413   9.197  1.1269 -0.0588 -0.9094
   90MOL0     H11844   1.911   7.605   9.573 -0.6045 -0.3743 -0.0742
   90MOL0     H11845   1.893   7.777   9.731 -0.7490 -0.7427  3.5234
   90MOL0     H11846   1.816   7.734   9.961 -0.4896 -1.3837  1.1325
   90MOL0     H11847   1.665   7.647   9.976  1.9627 -2.1990 -0.7454
   90MOL0     H11848   1.709   7.897  10.126  1.2700 -0.7102  0.2028
   90MOL0     H11849   1.719   7.727  10.184 -0.6050 -1.7756 -2.2120
   90MOL0     H11850   1.478   7.704  10.097  0.8016 -1.1919  0.9048
   90MOL0     H11851   1.488   7.876  10.058  0.2327 -2.5140 -1.8651
   90MOL0     H11852   1.511   7.735  10.334 -1.1632 -0.2321  0.4229
   90MOL0     H11853   1.557   7.895  10.309  1.6767  0.9059 -3.5291
   90MOL0     H11854   1.324   7.952  10.217  0.1128  1.1223  1.0047
   90MOL0     H11855   1.327   7.907  10.383  1.0542  1.1951 -2.7922
   90MOL0     H11856   1.278   7.662  10.303 -1.5056 -0.3846 -0.7621
   90MOL0     H11857   1.257   7.735  10.141  1.2569 -0.4540  0.9231
   90MOL0     H11858   1.060   7.780  10.371 -1.3802 -3.8010 -0.3205
   90MOL0     H11859   1.059   7.858  10.217  3.1456  0.1259 -0.7446
   90MOL0     H11860   0.906   7.676  10.256 -0.1131  0.7204 -0.9413
   90MOL0     H11861   1.041   7.562  10.244  2.5392  1.6564  3.6883
   90MOL0     H11862   1.463   7.754   9.725 -0.7496 -2.0365  0.4842
   90MOL0     H11863   1.493   7.615   9.500 -0.1611 -0.1747  0.9808
   90MOL0     H11864   1.596   7.112   9.494  0.6941 -1.8191 -1.1661
   90MOL0     H11865   1.658   6.929   9.319  1.8599  0.6067 -0.8708
   90MOL0     H11866   1.837   5.210   9.002 -1.7488 -0.6991 -2.5373
   90MOL0     H11867   2.073   5.148   8.928  0.5225  0.9690  0.7941
   90MOL0     H11868   2.536   5.481   8.865 -2.1138 -0.6666  0.3870
   90MOL0     H11869   2.775   5.432   8.776  0.9837 -0.0288  0.0385
   90MOL0     H11870   3.044   5.237   8.639  0.3946  0.7699 -1.6363
   90MOL0     H11871   2.960   5.337   8.758  0.3056 -0.2370 -0.2609
   90MOL0     H11872   3.000   5.404   8.469  1.0448  0.3405  0.1581
   90MOL0     H11873   2.851   5.454   8.545  0.0299 -1.0005 -0.8019
   90MOL0     H11874   2.965   5.590   8.717  1.0491  2.6971  0.1396
   90MOL0     H11875   3.015   5.621   8.555  0.4924 -1.6873 -1.6179
   90MOL0     H11876   3.193   5.601   8.768 -3.2924  0.2643  2.0543
   90MOL0     H11877   3.170   5.432   8.766  0.3251 -1.2474 -1.1932
   90MOL0     H11878   3.380   5.429   8.414  0.3818 -0.2283  0.3215
   90MOL0     H11879   2.624   5.074   8.593 -2.1753 -0.8217 -1.4915
   90MOL0     H11880   2.385   5.142   8.659  1.5139 -1.9846 -0.2426
   91MOL0     O11881   5.873  10.620   2.539  0.0092 -0.2110 -0.3052
   91MOL0     C11882   5.767  10.632   2.479 -0.5963 -0.3015 -1.0729
   91MOL0     O11883   5.647  10.629   2.534  0.4360 -0.1689 -0.7560
   91MOL0     C11884   5.653  10.568   2.658 -0.2518 -0.3668 -0.3582
   91MOL0     C11885   5.639  10.428   2.667 -0.1877 -0.4027 -0.9468
   91MOL0     C11886   5.632  10.365   2.791 -0.4075  0.9397 -0.0661
   91MOL0     C11887   5.642  10.431   2.911 -0.2663 -0.3951  0.0109
   91MOL0     O11888   5.652  10.373   3.038 -0.0168 -0.1608  0.7018
   91MOL0     C11889   5.618  10.230   3.034  0.2915 -0.0330  0.1946
   91MOL0     C11890   5.631  10.182   3.183  0.1047  0.5333 -0.3153
   91MOL0     C11891   5.597  10.036   3.213 -0.0654  0.1597 -0.8127
   91MOL0     C11892   5.572  10.021   3.356 -0.7501  1.0241 -0.5287
   91MOL0     C11893   5.543   9.877   3.396  1.1688  0.1513 -0.0227
   91MOL0     C11894   5.407   9.821   3.352 -0.4145  0.1033 -0.7897
   91MOL0     C11895   5.392   9.683   3.408 -0.3334  0.5369  0.0990
   91MOL0     C11896   5.508   9.586   3.362 -0.0141 -0.4983  0.5625
   91MOL0     N11897   5.466   9.443   3.379  1.2576  0.3247  0.2080
   91MOL0     C11898   5.521   9.365   3.484 -0.8932  0.2732  0.7139
   91MOL0     C11899   5.448   9.246   3.471 -0.3120  0.5763  0.8672
   91MOL0     C11900   5.467   9.130   3.575 -0.7148 -0.2218 -0.6203
   91MOL0     C11901   5.352   9.032   3.561 -0.0913 -0.4065 -0.5044
   91MOL0     C11902   5.246   9.062   3.673 -0.2273  0.5386 -0.5799
   91MOL0     C11903   5.107   9.000   3.648  0.3181 -0.8109 -0.0120
   91MOL0     O11904   5.114   8.864   3.694  0.4611 -0.5919  0.0964
   91MOL0     C11905   5.004   8.792   3.652 -0.1694  0.9490  0.4631
   91MOL0     C11906   4.925   8.712   3.738 -0.6472  1.5741  0.1437
   91MOL0     C11907   4.822   8.641   3.683  0.1825  0.2323 -1.3121
   91MOL0     C11908   4.793   8.630   3.544  0.0212  0.0026 -0.1941
   91MOL0     C11909   4.667   8.559   3.504 -1.0349  0.5813 -0.1346
   91MOL0     O11910   4.662   8.517   3.375  0.0297 -0.1122  0.0165
   91MOL0     C11911   4.539   8.480   3.327  0.2064  0.4761  0.7017
   91MOL0     C11912   4.486   8.352   3.352 -0.1434 -0.9314  0.1404
   91MOL0     C11913   4.369   8.311   3.287 -0.5167  0.0857  0.2066
   91MOL0     C11914   4.298   8.400   3.205 -0.0470 -0.5238  1.1899
   91MOL0     O11915   4.184   8.375   3.136  0.6879  0.6188  1.2249
   91MOL0     C11916   4.144   8.240   3.100 -0.0354 -0.1157  0.7611
   91MOL0     C11917   4.091   8.256   2.950 -0.2070  1.2296  0.2372
   91MOL0     C11918   4.070   8.106   2.901  0.4444 -0.4309  0.0637
   91MOL0     C11919   3.991   8.008   2.999 -0.3786 -0.7163  1.5134
   91MOL0     C11920   3.973   7.872   2.928  0.2847  0.8353 -0.0213
   91MOL0     C11921   3.918   7.774   3.032 -0.0434 -0.9803 -0.3946
   91MOL0     C11922   3.924   7.630   2.973  0.2538 -0.0709 -0.0505
   91MOL0     C11923   4.054   7.556   3.000 -0.9387 -0.7655 -0.5525
   91MOL0    Cl11924   4.085   7.387   2.931  0.4899  0.1563  0.3401
   91MOL0     C11925   4.352   8.530   3.189 -0.4794 -1.2860  0.7624
   91MOL0     C11926   4.475   8.569   3.239  0.9407 -0.3701 -0.5728
   91MOL0     O11927   4.581   8.540   3.587 -0.2146 -0.3067 -0.2152
   91MOL0     C11928   4.881   8.694   3.452  0.2247  0.6118 -0.4221
   91MOL0     C11929   4.982   8.775   3.511 -0.5852  0.1467  0.0157
   91MOL0     N11930   5.367   9.250   3.357 -0.7436  0.5753  0.8141
   91MOL0     N11931   5.374   9.365   3.305 -0.4247 -0.6378 -0.3394
   91MOL0     C11932   5.661  10.566   2.902  1.0851  0.2266  0.1408
   91MOL0     C11933   5.662  10.631   2.780 -1.0340  0.5047 -0.9992
   91MOL0     C11934   5.793  10.646   2.335  0.1224 -0.4060  0.0819
   91MOL0     C11935   5.905  10.709   2.282  0.0342 -0.7296  0.2340
   91MOL0     C11936   5.909  10.729   2.141 -0.7614 -1.3022 -0.3926
   91MOL0     C11937   5.813  10.674   2.050 -0.7991  0.3862 -0.2206
   91MOL0     O11938   5.814  10.675   1.910 -0.7567 -0.5095 -0.2206
   91MOL0     C11939   5.902  10.769   1.852  0.2071 -1.3029  0.6073
   91MOL0     C11940   5.872  10.790   1.703 -0.1544  0.6718  0.8607
   91MOL0     C11941   5.966  10.902   1.640  1.0322 -0.1149 -0.2746
   91MOL0     C11942   5.931  11.046   1.675  1.4478 -0.4605 -0.4309
   91MOL0     C11943   6.008  11.140   1.598  0.2539  0.9973 -0.3148
   91MOL0     C11944   6.067  11.219   1.526 -0.1752 -0.7580 -0.6223
   91MOL0     C11945   5.700  10.621   2.114  0.7470 -0.2796  0.1587
   91MOL0     C11946   5.687  10.610   2.251  0.5200 -0.2825  0.4634
   91MOL0     H11947   5.625  10.375   2.573 -0.5337 -0.0181 -1.1226
   91MOL0     H11948   5.636  10.257   2.798  1.9371  0.8863 -1.3506
   91MOL0     H11949   5.682  10.171   2.968  0.5408  1.1400 -0.6390
   91MOL0     H11950   5.510  10.234   3.016 -0.4206 -0.0201  3.7261
   91MOL0     H11951   5.566  10.255   3.232  1.3852  0.9586  0.8049
   91MOL0     H11952   5.733  10.191   3.221  0.2525  0.5135 -0.7040
   91MOL0     H11953   5.673   9.968   3.173 -1.0676 -0.7306 -1.2523
   91MOL0     H11954   5.509   9.999   3.160 -0.8622 -1.9118  1.7697
   91MOL0     H11955   5.662  10.055   3.409  1.5035 -1.9787 -2.1299
   91MOL0     H11956   5.488  10.084   3.389 -1.2242  0.0193  0.2302
   91MOL0     H11957   5.525   9.876   3.504 -1.2700  2.1002 -0.3088
   91MOL0     H11958   5.626   9.815   3.363 -0.3998 -1.9498 -0.2490
   91MOL0     H11959   5.398   9.826   3.243 -1.3338  2.3449 -0.6726
   91MOL0     H11960   5.326   9.888   3.383  0.3582  0.9083 -0.4613
   91MOL0     H11961   5.389   9.691   3.517  0.8916  1.5358  0.0839
   91MOL0     H11962   5.291   9.654   3.377  0.8788 -2.6389 -1.3031
   91MOL0     H11963   5.590   9.591   3.434  0.2204  0.9798  0.2299
   91MOL0     H11964   5.531   9.604   3.256  4.2028 -0.8638  1.2785
   91MOL0     H11965   5.601   9.403   3.547 -0.5733 -0.4978  0.7899
   91MOL0     H11966   5.480   9.162   3.679 -0.0866 -0.9503 -0.4653
   91MOL0     H11967   5.558   9.078   3.543 -0.7704 -0.1903 -0.8289
   91MOL0     H11968   5.383   8.927   3.558 -5.0204 -2.3867 -6.8958
   91MOL0     H11969   5.299   9.051   3.467 -1.3063  0.4691  0.3414
   91MOL0     H11970   5.282   9.046   3.775  0.0669  0.9629 -0.6138
   91MOL0     H11971   5.234   9.171   3.666  0.4389  0.9079  2.5074
   91MOL0     H11972   5.090   9.013   3.541  0.0218  2.4553  0.3292
   91MOL0     H11973   5.030   9.041   3.715  0.9309 -1.7040  1.2964
   91MOL0     H11974   4.949   8.718   3.844 -1.1117  4.6395  0.1438
   91MOL0     H11975   4.763   8.582   3.753  4.8449 -2.4195  0.8694
   91MOL0     H11976   4.549   8.277   3.400 -0.3473 -0.2198  1.5517
   91MOL0     H11977   4.330   8.214   3.318 -3.6765  2.3571  4.3661
   91MOL0     H11978   4.061   8.208   3.163 -2.2934 -0.5964 -2.2471
   91MOL0     H11979   4.226   8.167   3.102  1.0015  1.0323  2.0087
   91MOL0     H11980   4.165   8.303   2.884 -0.5039 -0.6016 -1.4961
   91MOL0     H11981   4.000   8.314   2.932  0.0892  1.3840 -0.8561
   91MOL0     H11982   4.169   8.068   2.877  0.2784 -1.1765  0.5278
   91MOL0     H11983   4.013   8.102   2.807  0.0610 -0.5221  0.2971
   91MOL0     H11984   4.059   7.990   3.083 -1.1901 -0.1948  2.2935
   91MOL0     H11985   3.888   8.044   3.010 -0.9452 -1.1892 -1.4728
   91MOL0     H11986   4.071   7.837   2.891  1.5912  4.7842 -0.7623
   91MOL0     H11987   3.905   7.887   2.844 -1.2347  0.8833  1.1742
   91MOL0     H11988   3.818   7.801   3.067  0.3027 -2.7487  2.3137
   91MOL0     H11989   3.981   7.771   3.121  0.6163  3.7097 -0.4459
   91MOL0     H11990   3.833   7.581   3.009 -0.2365  1.5323  1.0204
   91MOL0     H11991   3.914   7.624   2.865  0.0246  0.1981 -0.0462
   91MOL0     H11992   4.085   7.564   3.105  1.9205  1.3798 -1.4237
   91MOL0     H11993   4.135   7.607   2.947 -1.0100  0.9738  0.9077
   91MOL0     H11994   4.299   8.600   3.126  0.9984 -0.3616  0.5003
   91MOL0     H11995   4.522   8.665   3.220  2.1704 -1.2155 -2.0486
   91MOL0     H11996   4.878   8.685   3.344  2.6756  2.0840 -0.6806
   91MOL0     H11997   5.053   8.826   3.447  2.0512 -0.3770  2.3285
   91MOL0     H11998   5.664  10.636   2.985 -1.8440 -1.3385  1.7195
   91MOL0     H11999   5.684  10.737   2.783 -1.1208  0.5635 -2.2524
   91MOL0     H12000   5.994  10.745   2.334  0.5031 -1.1641 -0.2540
   91MOL0     H12001   5.999  10.774   2.100 -1.8238 -1.6078 -3.3151
   91MOL0     H12002   6.008  10.744   1.852  1.2907  2.2620  4.3120
   91MOL0     H12003   5.893  10.866   1.901  2.2350 -1.6145  1.6512
   91MOL0     H12004   5.885  10.702   1.638 -0.5870 -0.0277  1.7045
   91MOL0     H12005   5.768  10.824   1.703 -0.8791 -1.3058 -1.0320
   91MOL0     H12006   5.952  10.903   1.531 -4.1969 -0.4359  0.1433
   91MOL0     H12007   6.071  10.883   1.661  1.7140  1.7697 -1.6398
   91MOL0     H12008   5.824  11.062   1.656  1.2474 -1.4778 -0.2452
   91MOL0     H12009   5.942  11.066   1.782 -2.2828  0.9875 -0.1852
   91MOL0     H12010   6.123  11.279   1.456  1.1480 -2.9892 -1.5681
   91MOL0     H12011   5.628  10.570   2.050  1.0498 -1.2693  0.6048
   91MOL0     H12012   5.599  10.568   2.299 -0.4063 -0.1288 -1.0390
   92MOL0     O12013   9.312   6.336   1.439  0.5775 -0.0405  0.5367
   92MOL0     C12014   9.351   6.436   1.380  0.3942  0.2213 -0.4652
   92MOL0     O12015   9.310   6.485   1.260  0.4520  0.0776  0.3747
   92MOL0     C12016   9.207   6.422   1.202 -1.1810  0.1882 -0.9705
   92MOL0     C12017   9.076   6.466   1.222 -0.1949  0.1233 -0.0723
   92MOL0     C12018   8.974   6.402   1.152  0.3732  0.4232 -1.0932
   92MOL0     C12019   8.989   6.285   1.083 -0.9663 -0.1872  0.3091
   92MOL0     O12020   8.896   6.216   1.009 -0.0939  0.0653 -0.6144
   92MOL0     C12021   8.768   6.277   0.991 -0.4913  0.5280  0.0844
   92MOL0     C12022   8.679   6.182   0.910 -0.0929  0.3603 -0.4934
   92MOL0     C12023   8.534   6.236   0.911  0.2472  1.2094  0.9602
   92MOL0     C12024   8.422   6.126   0.898 -0.1526 -1.4334 -0.0520
   92MOL0     C12025   8.420   6.038   1.027  0.3448  0.0342  0.6220
   92MOL0     C12026   8.293   5.948   1.049 -0.1080 -0.5567  0.3169
   92MOL0     C12027   8.294   5.828   1.150 -0.1407  0.2948 -0.1469
   92MOL0     C12028   8.157   5.758   1.155  0.2908 -0.2759 -0.3905
   92MOL0     N12029   8.055   5.814   1.251 -0.0451 -0.1412  0.3321
   92MOL0     C12030   7.956   5.745   1.321  0.0040 -0.6906 -0.3851
   92MOL0     C12031   7.878   5.845   1.365 -0.2018 -0.2947 -0.5245
   92MOL0     C12032   7.755   5.812   1.443  0.0799 -0.2528 -0.1412
   92MOL0     C12033   7.645   5.733   1.368 -1.7316  0.2313  0.1884
   92MOL0     C12034   7.588   5.636   1.461  0.0801 -0.1403  0.3401
   92MOL0     C12035   7.681   5.512   1.496  0.9345 -0.3938 -0.3992
   92MOL0     O12036   7.712   5.437   1.374  0.0745 -0.3264  0.0313
   92MOL0     C12037   7.750   5.308   1.399  0.0505  0.1543 -0.0830
   92MOL0     C12038   7.809   5.258   1.517 -0.1868 -0.1505 -0.3793
   92MOL0     C12039   7.843   5.124   1.540  0.1928  0.2223 -0.0328
   92MOL0     C12040   7.839   5.035   1.429  0.6237  0.2026 -0.2447
   92MOL0     C12041   7.895   4.902   1.443  0.2158 -0.3783 -0.2637
   92MOL0     O12042   7.934   4.837   1.330 -0.0909 -0.0353  0.4563
   92MOL0     C12043   7.981   4.707   1.338 -0.1459  0.1665  0.5647
   92MOL0     C12044   8.114   4.664   1.374 -0.8257 -0.0743 -0.4376
   92MOL0     C12045   8.160   4.532   1.356 -0.4016  0.3929  1.1203
   92MOL0     C12046   8.072   4.432   1.336 -0.5801 -0.5399  0.1159
   92MOL0     O12047   8.109   4.303   1.348  0.1956  0.1540 -0.3540
   92MOL0     C12048   8.016   4.220   1.421  0.5395 -0.8242  0.3277
   92MOL0     C12049   8.084   4.108   1.507 -1.1111 -0.4059 -0.4048
   92MOL0     C12050   7.986   4.022   1.584  0.3898 -0.5624 -0.2013
   92MOL0     C12051   7.897   3.943   1.493 -0.5493  0.0099 -0.1799
   92MOL0     C12052   7.839   3.831   1.576 -0.0795  0.0188 -0.1741
   92MOL0     C12053   7.714   3.772   1.516 -0.3480  0.4072  1.1671
   92MOL0     C12054   7.691   3.635   1.595 -0.3596  1.0953  0.0690
   92MOL0     C12055   7.603   3.538   1.521  0.6438 -0.1263 -0.0176
   92MOL0    Cl12056   7.528   3.418   1.623 -0.1779 -0.3634 -0.2846
   92MOL0     C12057   7.945   4.472   1.302 -0.3246  0.7175 -0.9265
   92MOL0     C12058   7.893   4.605   1.304 -0.3793 -0.4002 -0.0636
   92MOL0     O12059   7.915   4.857   1.555  0.2886 -0.4137  0.4978
   92MOL0     C12060   7.784   5.077   1.308 -0.1687  0.0593  0.1293
   92MOL0     C12061   7.733   5.212   1.297 -0.7593  0.1145 -0.2698
   92MOL0     N12062   7.921   5.970   1.325 -0.5526  0.4378 -0.4345
   92MOL0     N12063   8.033   5.947   1.262  0.8498  0.0687  0.0476
   92MOL0     C12064   9.117   6.231   1.079  0.5587 -0.1732  0.1888
   92MOL0     C12065   9.228   6.298   1.134 -0.0990  0.0214  0.6297
   92MOL0     C12066   9.442   6.538   1.451  0.0576  0.7175  0.0127
   92MOL0     C12067   9.437   6.677   1.424 -0.3454 -0.7895  0.4322
   92MOL0     C12068   9.513   6.766   1.508 -0.4758  0.7608 -0.4093
   92MOL0     C12069   9.571   6.719   1.629 -0.1257 -0.3478  0.1132
   92MOL0     O12070   9.628   6.818   1.706 -0.2551 -0.6884  0.3428
   92MOL0     C12071   9.734   6.775   1.796 -0.1891 -0.5970 -0.4492
   92MOL0     C12072   9.806   6.901   1.844  0.8007  0.0797 -0.5476
   92MOL0     C12073   9.857   6.999   1.735  0.2821 -0.8402  0.0903
   92MOL0     C12074   9.953   6.931   1.630 -0.2231 -0.0486 -0.2155
   92MOL0     C12075   9.883   6.880   1.513 -0.1183  0.5951 -0.8675
   92MOL0     C12076   9.835   6.822   1.414  0.5302 -0.1452  0.5248
   92MOL0     C12077   9.556   6.576   1.660 -0.4833 -0.3082 -0.6046
   92MOL0     C12078   9.484   6.491   1.574  0.4732  0.8844  0.5492
   92MOL0     H12079   9.045   6.548   1.286 -1.0013 -2.2299  2.7527
   92MOL0     H12080   8.875   6.444   1.164 -0.9076 -2.1794 -1.7122
   92MOL0     H12081   8.766   6.379   0.951 -0.7020  0.5594  0.1769
   92MOL0     H12082   8.721   6.275   1.090 -2.6870  0.6195 -0.8922
   92MOL0     H12083   8.664   6.083   0.954 -3.6668  0.5009 -1.0814
   92MOL0     H12084   8.712   6.161   0.808 -0.6578 -0.1224 -0.5852
   92MOL0     H12085   8.533   6.298   0.821  0.7094  0.2834  0.3055
   92MOL0     H12086   8.515   6.293   1.003 -0.6460 -1.6472  2.6725
   92MOL0     H12087   8.326   6.176   0.916  1.3983  0.3795  4.4771
   92MOL0     H12088   8.430   6.068   0.805 -1.4322  0.9454 -1.7718
   92MOL0     H12089   8.425   6.105   1.113  0.8271 -0.0523  0.6626
   92MOL0     H12090   8.505   5.970   1.015 -2.2217 -3.3471  0.0635
   92MOL0     H12091   8.273   5.911   0.948  0.8611 -0.2535  0.0007
   92MOL0     H12092   8.214   6.020   1.072  1.9566  3.2067 -3.0693
   92MOL0     H12093   8.363   5.746   1.126 -0.5465 -0.2997  0.6546
   92MOL0     H12094   8.328   5.861   1.248  0.4251 -1.9289  0.4714
   92MOL0     H12095   8.163   5.652   1.183  0.8883  0.1806  1.3378
   92MOL0     H12096   8.110   5.746   1.056  1.5204 -0.4478 -0.9685
   92MOL0     H12097   7.946   5.638   1.333  3.3939 -1.1565 -0.7582
   92MOL0     H12098   7.703   5.901   1.479 -1.2586 -0.8895 -0.4226
   92MOL0     H12099   7.791   5.766   1.536  0.1937 -0.5666 -0.3365
   92MOL0     H12100   7.699   5.676   1.292 -1.0762 -1.8483  2.1205
   92MOL0     H12101   7.582   5.803   1.313  0.6312  0.8717 -1.8788
   92MOL0     H12102   7.564   5.693   1.551  2.4650  1.9340 -0.2414
   92MOL0     H12103   7.506   5.594   1.402  1.9259 -2.7599 -0.5523
   92MOL0     H12104   7.641   5.456   1.581  2.0513 -1.7783 -0.7347
   92MOL0     H12105   7.774   5.556   1.534  0.7618 -2.3076  2.4844
   92MOL0     H12106   7.823   5.325   1.600 -2.5119  1.6099 -1.2929
   92MOL0     H12107   7.902   5.091   1.625  0.9130  1.8259  0.1265
   92MOL0     H12108   8.199   4.730   1.390 -0.9098  0.3530 -1.6729
   92MOL0     H12109   8.266   4.507   1.354 -1.0240 -2.5865  1.0918
   92MOL0     H12110   7.945   4.182   1.346  1.4578  0.6753 -1.3852
   92MOL0     H12111   7.957   4.282   1.489  1.1417 -0.0285  0.1318
   92MOL0     H12112   8.160   4.143   1.577 -1.4360 -0.2296 -0.1335
   92MOL0     H12113   8.152   4.056   1.441 -0.4708 -1.2839  0.9046
   92MOL0     H12114   7.933   4.084   1.657  3.1380  2.4716 -0.5348
   92MOL0     H12115   8.045   3.961   1.653 -1.8636 -0.3259  2.1177
   92MOL0     H12116   7.809   3.996   1.455  0.9998  1.8115 -1.4638
   92MOL0     H12117   7.956   3.887   1.420 -1.6793 -2.6486  0.8489
   92MOL0     H12118   7.801   3.865   1.672  0.4348  2.6965 -0.8414
   92MOL0     H12119   7.915   3.753   1.586  0.3410  0.4295 -0.1347
   92MOL0     H12120   7.738   3.764   1.409 -1.3555  0.8515  0.8866
   92MOL0     H12121   7.624   3.835   1.510 -0.6334 -0.0741 -0.0585
   92MOL0     H12122   7.784   3.586   1.626 -0.0806  1.4695 -0.1664
   92MOL0     H12123   7.649   3.654   1.695 -1.0906  0.9568 -0.2052
   92MOL0     H12124   7.659   3.498   1.435  1.6651  1.9089 -0.3622
   92MOL0     H12125   7.514   3.586   1.478  0.5159 -0.7251 -0.4421
   92MOL0     H12126   7.869   4.401   1.271 -1.1201  0.8360  0.6440
   92MOL0     H12127   7.796   4.632   1.264  1.1933  2.6008 -2.2170
   92MOL0     H12128   7.769   5.007   1.226  0.5184  1.3721 -1.1663
   92MOL0     H12129   7.677   5.235   1.207  1.5552  0.9373 -1.5849
   92MOL0     H12130   9.129   6.138   1.024 -2.1541 -1.0855  1.0009
   92MOL0     H12131   9.324   6.249   1.146  0.7234  0.8777 -1.8228
   92MOL0     H12132   9.377   6.707   1.339 -2.9491  1.0759  2.7494
   92MOL0     H12133   9.520   6.868   1.473  0.9081  0.7023 -0.3708
   92MOL0     H12134   9.804   6.707   1.747  1.6273 -0.6610  2.0055
   92MOL0     H12135   9.686   6.731   1.884 -1.2358 -0.4214 -0.9207
   92MOL0     H12136   9.729   6.963   1.891  0.6803 -0.4180 -0.0666
   92MOL0     H12137   9.878   6.881   1.924  1.1820  1.3574 -0.5543
   92MOL0     H12138   9.920   7.076   1.781  1.7278  0.2476 -3.3615
   92MOL0     H12139   9.768   7.033   1.682  1.1857  0.9580 -0.3486
   92MOL0     H12140  10.044   6.983   1.599 -1.1297  2.7424  1.4543
   92MOL0     H12141   9.984   6.838   1.679  0.6655 -0.0683 -0.7810
   92MOL0     H12142   9.785   6.771   1.335  1.2505  0.3077 -0.2346
   92MOL0     H12143   9.583   6.535   1.757 -1.1538 -4.8293 -2.0717
   92MOL0     H12144   9.472   6.389   1.612 -1.6453  0.5720 -0.8189
   93MOL0     O12145   2.795   6.763   7.224  0.2582 -0.4762  0.2083
   93MOL0     C12146   2.874   6.860   7.203  0.1655  0.1037 -0.6569
   93MOL0     O12147   2.945   6.938   7.290  0.0422 -0.6802 -0.0992
   93MOL0     C12148   2.940   6.932   7.423  0.0024 -0.3134  0.6204
   93MOL0     C12149   2.826   6.881   7.487 -0.2750 -0.7203 -0.7418
   93MOL0     C12150   2.825   6.886   7.630  0.6292  0.1671 -0.1020
   93MOL0     C12151   2.923   6.953   7.703 -0.3473  0.3787 -0.3472
   93MOL0     O12152   2.889   6.975   7.833  0.0008 -0.0569 -0.8293
   93MOL0     C12153   2.889   7.116   7.868  1.1095  0.3557  0.0371
   93MOL0     C12154   2.942   7.122   8.010 -0.1813 -0.3638 -0.0141
   93MOL0     C12155   2.926   7.269   8.057 -0.0011  0.4429 -0.2629
   93MOL0     C12156   2.989   7.271   8.204  0.5454 -0.2884  0.1205
   93MOL0     C12157   2.952   7.398   8.284  0.3556 -0.4808  0.3785
   93MOL0     C12158   3.012   7.414   8.421  0.6937  0.1625 -0.6744
   93MOL0     C12159   3.160   7.453   8.413 -0.4538  0.4118 -0.2994
   93MOL0     C12160   3.201   7.572   8.506  0.3333 -0.3177  0.9496
   93MOL0     N12161   3.222   7.550   8.654 -0.0388 -0.2224  0.8755
   93MOL0     C12162   3.342   7.513   8.713  0.0607 -1.1867  0.3484
   93MOL0     C12163   3.314   7.508   8.848 -0.0334  0.3044  0.3495
   93MOL0     C12164   3.409   7.499   8.964 -0.3651  0.0273  0.2242
   93MOL0     C12165   3.364   7.570   9.093 -0.4714  0.6810 -0.5462
   93MOL0     C12166   3.475   7.575   9.193 -0.0984  0.5717  0.3551
   93MOL0     C12167   3.440   7.655   9.312 -0.1579  1.1061  0.4473
   93MOL0     O12168   3.445   7.790   9.275  0.4038 -0.5972 -1.1374
   93MOL0     C12169   3.479   7.884   9.373  0.6621 -0.9070 -0.0782
   93MOL0     C12170   3.529   8.005   9.315  0.6763  0.3326  0.3971
   93MOL0     C12171   3.571   8.113   9.396  0.3117  0.3033 -0.1067
   93MOL0     C12172   3.566   8.093   9.537 -0.5050  0.6557  0.6398
   93MOL0     C12173   3.617   8.202   9.632 -0.1190 -0.4497  0.6507
   93MOL0     O12174   3.601   8.330   9.587 -1.5718  0.5767  0.1100
   93MOL0     C12175   3.692   8.427   9.614  0.3044 -0.1804  0.8032
   93MOL0     C12176   3.815   8.426   9.542  0.0639 -0.2626  1.0154
   93MOL0     C12177   3.908   8.524   9.552 -0.5262 -0.0852  0.5759
   93MOL0     C12178   3.878   8.635   9.631  0.0356  0.0377  0.2655
   93MOL0     O12179   3.971   8.735   9.637 -1.2234  0.5656  0.0814
   93MOL0     C12180   3.977   8.822   9.525  0.3004 -0.3026 -0.7320
   93MOL0     C12181   4.072   8.933   9.560  0.3010  0.6818 -1.1822
   93MOL0     C12182   4.208   8.876   9.517  0.6443 -0.3876  0.9161
   93MOL0     C12183   4.323   8.963   9.553 -0.4425 -1.2130  0.1034
   93MOL0     C12184   4.456   8.887   9.536  0.4641  1.1695  0.6248
   93MOL0     C12185   4.495   8.847   9.385  0.7397  0.0413 -0.2949
   93MOL0     C12186   4.618   8.771   9.393 -0.9590 -0.2373  0.1498
   93MOL0     C12187   4.693   8.781   9.259 -0.6243 -0.0054  0.0408
   93MOL0    Cl12188   4.761   8.611   9.203 -0.2052 -0.2039 -0.6933
   93MOL0     C12189   3.762   8.632   9.711  0.6516 -0.2284 -0.7562
   93MOL0     C12190   3.660   8.534   9.691 -1.1285  0.3150 -0.1322
   93MOL0     O12191   3.682   8.167   9.729  0.7201 -0.3883 -0.5683
   93MOL0     C12192   3.515   7.971   9.596  0.7599  0.2999 -0.6286
   93MOL0     C12193   3.471   7.865   9.510  0.0289  0.6915 -0.2234
   93MOL0     N12194   3.171   7.522   8.855  0.3431  0.4489  0.1346
   93MOL0     N12195   3.122   7.538   8.739  0.6609 -0.0875 -0.1463
   93MOL0     C12196   3.035   6.991   7.637 -0.0395  0.1228  0.9715
   93MOL0     C12197   3.043   6.978   7.497 -0.4548 -0.0834 -0.4390
   93MOL0     C12198   2.885   6.902   7.066  0.4609 -0.1993  0.4717
   93MOL0     C12199   3.006   6.962   7.015  0.0366  0.1524 -0.0422
   93MOL0     C12200   3.020   7.014   6.882  0.2933  0.2970  0.5892
   93MOL0     C12201   2.907   7.008   6.793 -1.2006  0.0869 -0.0586
   93MOL0     O12202   2.907   7.054   6.660  0.5841  0.0743 -0.1622
   93MOL0     C12203   3.018   7.138   6.614 -0.4540  0.4192  0.9783
   93MOL0     C12204   3.012   7.178   6.468  0.4207  0.1922 -0.4740
   93MOL0     C12205   2.902   7.285   6.442  0.8745 -0.7233  0.1354
   93MOL0     C12206   2.900   7.330   6.296 -0.0452  0.1585 -0.0018
   93MOL0     C12207   3.013   7.414   6.261  0.2010  0.8379 -0.0516
   93MOL0     C12208   3.108   7.486   6.236  0.3271  0.6589  0.1301
   93MOL0     C12209   2.794   6.948   6.838  0.5532 -0.1052  0.1237
   93MOL0     C12210   2.784   6.893   6.967  0.4217 -0.6442 -0.7732
   93MOL0     H12211   2.735   6.847   7.440 -0.2666 -0.2911 -1.0803
   93MOL0     H12212   2.730   6.861   7.677 -0.0280  0.7311 -1.0815
   93MOL0     H12213   2.792   7.161   7.847  2.0711  2.1464 -0.8616
   93MOL0     H12214   2.959   7.165   7.799 -0.2523 -0.6877 -2.1967
   93MOL0     H12215   3.046   7.089   8.012 -0.4513 -1.2881  1.9888
   93MOL0     H12216   2.883   7.063   8.081 -0.7318  1.8528  1.4736
   93MOL0     H12217   2.821   7.300   8.062 -0.4460 -0.9718 -0.3082
   93MOL0     H12218   2.973   7.339   7.988 -2.7554  1.6331 -1.0544
   93MOL0     H12219   2.952   7.184   8.258 -0.1624  0.7569  1.3509
   93MOL0     H12220   3.098   7.263   8.209  0.3740 -3.1713  0.6913
   93MOL0     H12221   2.848   7.392   8.317  0.2637 -0.8445  0.0334
   93MOL0     H12222   2.965   7.483   8.217 -1.2053 -1.9527 -1.9262
   93MOL0     H12223   2.992   7.324   8.480  1.2668  1.6294  1.9245
   93MOL0     H12224   2.962   7.492   8.480 -0.5063  0.0562 -1.5017
   93MOL0     H12225   3.210   7.357   8.431  1.6250  1.5057  0.0778
   93MOL0     H12226   3.183   7.483   8.310 -4.5632  2.6543 -0.7620
   93MOL0     H12227   3.130   7.655   8.500  2.3804  1.4939  0.7267
   93MOL0     H12228   3.289   7.616   8.458 -0.2012 -3.2067 -3.2063
   93MOL0     H12229   3.433   7.499   8.655 -1.4993 -1.0854 -2.2830
   93MOL0     H12230   3.498   7.552   8.929 -2.0695  3.5085  0.7294
   93MOL0     H12231   3.430   7.395   8.990  0.3671 -0.4841 -2.2066
   93MOL0     H12232   3.267   7.539   9.132  0.3574 -0.4745  0.6714
   93MOL0     H12233   3.351   7.674   9.063  2.3867  0.5219 -2.7884
   93MOL0     H12234   3.488   7.475   9.234  2.7457 -0.2000 -2.0663
   93MOL0     H12235   3.571   7.586   9.141 -1.3483 -0.9085 -2.5162
   93MOL0     H12236   3.518   7.623   9.382  2.5397  2.1609 -1.8608
   93MOL0     H12237   3.343   7.618   9.345  0.3445 -0.7389 -0.0282
   93MOL0     H12238   3.546   8.016   9.208  1.4035 -0.6751  0.3909
   93MOL0     H12239   3.588   8.211   9.353  1.2319 -0.3658 -1.3399
   93MOL0     H12240   3.838   8.344   9.474 -2.0010 -2.9161  3.2468
   93MOL0     H12241   4.004   8.518   9.502 -0.1126 -3.0119  1.5214
   93MOL0     H12242   3.884   8.877   9.503  1.8833  3.5219  1.2211
   93MOL0     H12243   4.003   8.759   9.439 -3.5533 -0.9226 -1.6427
   93MOL0     H12244   4.074   8.977   9.660  1.1779 -0.6864 -0.5653
   93MOL0     H12245   4.046   9.019   9.497  1.0613  1.1186 -0.9138
   93MOL0     H12246   4.198   8.879   9.408  0.3544 -2.1935  0.8599
   93MOL0     H12247   4.219   8.773   9.552 -0.9265 -1.3140 -1.0879
   93MOL0     H12248   4.332   9.043   9.479  1.7975  0.7215  2.3152
   93MOL0     H12249   4.310   8.996   9.656  0.6024  0.7829 -0.3771
   93MOL0     H12250   4.443   8.790   9.584 -0.6518  1.0621  0.1155
   93MOL0     H12251   4.540   8.945   9.576  0.1655  0.0243  3.0775
   93MOL0     H12252   4.510   8.939   9.328 -1.5762  0.3974 -0.4395
   93MOL0     H12253   4.416   8.792   9.333  3.5849 -3.6699 -1.1533
   93MOL0     H12254   4.686   8.809   9.470  0.5139 -0.2278 -1.0989
   93MOL0     H12255   4.600   8.665   9.407 -1.1610 -0.3143 -0.6291
   93MOL0     H12256   4.781   8.842   9.282 -1.9345  2.5866 -1.3666
   93MOL0     H12257   4.638   8.839   9.184  0.0245 -0.9673 -1.2312
   93MOL0     H12258   3.760   8.719   9.777  0.4608  1.8425 -3.3405
   93MOL0     H12259   3.559   8.548   9.728 -1.3038  0.4280 -0.6405
   93MOL0     H12260   3.513   7.962   9.704 -0.1105 -2.2029 -0.7877
   93MOL0     H12261   3.441   7.768   9.547 -1.0357  0.5696 -1.3145
   93MOL0     H12262   3.122   7.027   7.691  1.7225  0.9257 -2.1408
   93MOL0     H12263   3.141   7.009   7.465 -1.3817  2.0095 -1.4384
   93MOL0     H12264   3.098   6.956   7.072  0.2161  1.9889 -0.0916
   93MOL0     H12265   3.103   7.080   6.860 -0.4835  1.8938  2.1782
   93MOL0     H12266   3.111   7.083   6.627 -0.4596  0.9230  3.7199
   93MOL0     H12267   3.024   7.231   6.671  0.7138 -0.2556  1.9970
   93MOL0     H12268   3.109   7.216   6.434  1.8304 -1.9454  0.9126
   93MOL0     H12269   2.980   7.095   6.405  1.4207 -0.3203 -0.3361
   93MOL0     H12270   2.902   7.376   6.504 -0.0791 -1.2556  0.9615
   93MOL0     H12271   2.805   7.237   6.459 -2.1363  3.7141 -2.3751
   93MOL0     H12272   2.901   7.242   6.231  2.1809 -0.5975  0.9586
   93MOL0     H12273   2.816   7.400   6.287 -0.9311 -0.7866  0.6557
   93MOL0     H12274   3.190   7.553   6.219  2.2947 -1.5986  0.2126
   93MOL0     H12275   2.706   6.946   6.775 -0.2159 -2.5765  1.1449
   93MOL0     H12276   2.696   6.835   6.996  0.2151  0.0077 -0.0757
   94MOL0     O12277   3.610   5.296   6.505  0.0071  0.1478  0.3736
   94MOL0     C12278   3.512   5.340   6.564  0.1907  1.2788  0.2944
   94MOL0     O12279   3.395   5.271   6.570  0.0881 -0.3039 -0.8048
   94MOL0     C12280   3.386   5.130   6.551 -0.2242 -0.3694  1.0419
   94MOL0     C12281   3.469   5.058   6.466  0.1261  0.0101 -0.2855
   94MOL0     C12282   3.444   4.916   6.441 -0.3007  0.0457 -0.5049
   94MOL0     C12283   3.334   4.855   6.509  0.4200 -0.1642  0.0390
   94MOL0     O12284   3.297   4.738   6.458 -0.1101  0.1426  0.0999
   94MOL0     C12285   3.162   4.731   6.403 -0.1824 -0.0157  0.6830
   94MOL0     C12286   3.125   4.579   6.401  0.7962 -0.1747 -0.1580
   94MOL0     C12287   3.236   4.488   6.357 -0.1097  0.1190 -0.6457
   94MOL0     C12288   3.178   4.350   6.338 -0.3607  0.7087  0.7869
   94MOL0     C12289   3.298   4.261   6.283  0.0161 -0.5480  0.0520
   94MOL0     C12290   3.249   4.114   6.291 -0.6087 -0.8358  0.3823
   94MOL0     C12291   3.148   4.092   6.187 -0.1437 -0.2089  0.2394
   94MOL0     C12292   3.080   3.959   6.193  0.0205 -0.0371 -0.1413
   94MOL0     N12293   2.932   3.965   6.160  0.3859 -0.1675 -0.2080
   94MOL0     C12294   2.834   3.963   6.249 -0.0215  0.6147  0.9330
   94MOL0     C12295   2.726   3.984   6.175 -0.2032 -0.5331  0.2774
   94MOL0     C12296   2.592   3.968   6.235 -0.1031 -0.6280 -0.1734
   94MOL0     C12297   2.557   3.835   6.314  0.0706 -0.4552 -0.4640
   94MOL0     C12298   2.519   3.723   6.226 -0.2438 -0.9066 -0.0934
   94MOL0     C12299   2.472   3.613   6.316 -0.5204  0.5045 -0.8890
   94MOL0     O12300   2.589   3.566   6.392 -0.4606 -0.4414  0.1541
   94MOL0     C12301   2.568   3.501   6.514  0.4811 -0.4849 -0.5067
   94MOL0     C12302   2.647   3.394   6.547 -0.0753  0.1005 -0.1822
   94MOL0     C12303   2.621   3.329   6.668 -0.4777 -0.7831 -0.3355
   94MOL0     C12304   2.518   3.366   6.753  0.6703 -0.4111  0.4514
   94MOL0     C12305   2.498   3.286   6.879  1.1353  0.8311 -0.2107
   94MOL0     O12306   2.429   3.352   6.985 -0.4518 -0.5826  1.4753
   94MOL0     C12307   2.377   3.274   7.089  0.4369  0.3846 -0.1093
   94MOL0     C12308   2.338   3.144   7.088 -0.0438 -0.6760  0.7184
   94MOL0     C12309   2.277   3.087   7.198 -0.7833 -0.2165 -0.9784
   94MOL0     C12310   2.286   3.138   7.328 -0.8729 -0.6377  0.9134
   94MOL0     O12311   2.248   3.061   7.438 -0.4948  0.0509  0.1836
   94MOL0     C12312   2.308   3.095   7.562 -0.3796  0.2111 -0.0222
   94MOL0     C12313   2.258   2.981   7.662  0.7218 -0.5471 -0.4202
   94MOL0     C12314   2.332   2.999   7.790  0.2030  0.7065  0.8634
   94MOL0     C12315   2.289   2.885   7.889 -0.4269 -1.4996 -0.1054
   94MOL0     C12316   2.146   2.905   7.940 -0.6869  0.4307 -0.1594
   94MOL0     C12317   2.106   2.797   8.053 -0.2878 -0.4668  0.2611
   94MOL0     C12318   1.989   2.848   8.133  0.3401 -0.9045  0.3209
   94MOL0     C12319   1.878   2.740   8.132 -0.1288  0.6114 -0.9538
   94MOL0    Cl12320   1.721   2.789   8.197  0.5403  0.1068  0.6471
   94MOL0     C12321   2.346   3.262   7.331 -0.5627 -0.1089 -0.2181
   94MOL0     C12322   2.384   3.335   7.214  0.7014 -0.1696  0.0994
   94MOL0     O12323   2.536   3.174   6.879 -0.4442  0.6322 -0.1678
   94MOL0     C12324   2.446   3.477   6.722 -0.1112 -0.1484  0.2998
   94MOL0     C12325   2.470   3.541   6.599  0.5115 -1.4636 -0.1007
   94MOL0     N12326   2.762   4.006   6.041 -0.3987  0.9397  0.4070
   94MOL0     N12327   2.886   3.985   6.035 -0.4493 -0.4737 -0.3352
   94MOL0     C12328   3.247   4.928   6.595 -0.0968  0.2665  1.3045
   94MOL0     C12329   3.278   5.061   6.610  0.0174 -0.7436 -0.4920
   94MOL0     C12330   3.511   5.484   6.597 -1.0477  0.3686 -0.1707
   94MOL0     C12331   3.627   5.563   6.560  0.1504  0.3622  0.5025
   94MOL0     C12332   3.627   5.696   6.595  0.0447 -0.1716  0.1010
   94MOL0     C12333   3.531   5.751   6.672  0.3603  0.0479  0.0821
   94MOL0     O12334   3.533   5.882   6.696  0.2716  0.0326 -0.7565
   94MOL0     C12335   3.444   5.950   6.794 -0.4849  0.4917  0.0109
   94MOL0     C12336   3.494   6.094   6.815 -0.2024 -0.5058  0.0093
   94MOL0     C12337   3.620   6.096   6.909  0.0696  0.2007  0.0274
   94MOL0     C12338   3.599   6.070   7.061  0.2521 -0.0275  0.3212
   94MOL0     C12339   3.732   6.102   7.119  0.4200 -1.0427  0.2471
   94MOL0     C12340   3.842   6.132   7.159  0.6683 -0.0720 -0.5250
   94MOL0     C12341   3.421   5.678   6.714  0.0711 -0.2059 -0.4410
   94MOL0     C12342   3.405   5.541   6.673  0.4138  0.0098 -0.2914
   94MOL0     H12343   3.550   5.106   6.412 -1.0670  4.6547  1.5639
   94MOL0     H12344   3.498   4.855   6.370 -1.0175 -1.4789  0.2136
   94MOL0     H12345   3.156   4.773   6.302 -0.9084  1.5332  1.3343
   94MOL0     H12346   3.088   4.776   6.470 -3.1046 -3.1954 -0.2021
   94MOL0     H12347   3.030   4.573   6.347 -0.1296  1.1718  1.2445
   94MOL0     H12348   3.106   4.547   6.504 -1.2825  1.0051 -0.1125
   94MOL0     H12349   3.314   4.498   6.433  1.8257  2.5075 -2.7451
   94MOL0     H12350   3.263   4.529   6.259 -0.9641  5.5004  1.0539
   94MOL0     H12351   3.132   4.314   6.430  0.0620 -0.6674  0.4819
   94MOL0     H12352   3.097   4.365   6.265  0.1722  0.4914  0.1412
   94MOL0     H12353   3.396   4.286   6.325  0.1410  3.9810 -2.3172
   94MOL0     H12354   3.304   4.288   6.177 -1.2530 -3.0159 -0.7319
   94MOL0     H12355   3.216   4.094   6.393  0.4311  1.0533  1.1406
   94MOL0     H12356   3.345   4.066   6.270  1.3309  3.2780 -1.3614
   94MOL0     H12357   3.064   4.160   6.205 -0.9949 -1.8206  3.0355
   94MOL0     H12358   3.193   4.111   6.089  1.6510 -2.8441  0.4336
   94MOL0     H12359   3.088   3.922   6.296  3.0592 -1.2994 -0.7086
   94MOL0     H12360   3.126   3.884   6.128 -1.8211 -1.7615  0.4321
   94MOL0     H12361   2.829   3.938   6.354 -1.9331 -0.9187  0.5350
   94MOL0     H12362   2.523   3.984   6.151 -1.2565  0.5468  0.9395
   94MOL0     H12363   2.563   4.042   6.310 -1.2568 -0.1175 -1.0893
   94MOL0     H12364   2.464   3.861   6.365 -0.3890 -0.4396 -1.2931
   94MOL0     H12365   2.630   3.810   6.392 -1.6198  0.2754  1.4417
   94MOL0     H12366   2.435   3.764   6.168  0.4527  2.3749  1.0110
   94MOL0     H12367   2.607   3.686   6.172 -0.5504 -3.1630  0.8307
   94MOL0     H12368   2.442   3.536   6.244  0.5648 -2.3738  1.5316
   94MOL0     H12369   2.380   3.633   6.372  0.5443  3.2460  0.0399
   94MOL0     H12370   2.702   3.356   6.461  0.1207 -1.0799  0.4359
   94MOL0     H12371   2.675   3.237   6.687  0.3393 -0.8179 -2.5994
   94MOL0     H12372   2.335   3.087   6.996  0.7091 -0.3830  0.5071
   94MOL0     H12373   2.240   2.985   7.189  0.9050 -0.8728 -0.8203
   94MOL0     H12374   2.265   3.188   7.599  0.5877 -0.1766  2.2112
   94MOL0     H12375   2.417   3.099   7.557 -0.0458 -2.7405  2.0378
   94MOL0     H12376   2.279   2.879   7.628 -1.2728 -1.6254  1.3482
   94MOL0     H12377   2.154   2.992   7.692  1.1374 -0.5928  1.1399
   94MOL0     H12378   2.312   3.103   7.819 -1.3642  0.8954 -0.6759
   94MOL0     H12379   2.438   2.986   7.766  0.7866 -2.0746  4.1808
   94MOL0     H12380   2.297   2.789   7.838 -1.1369 -1.8471  0.4287
   94MOL0     H12381   2.353   2.904   7.976 -1.8590  0.3251  0.6265
   94MOL0     H12382   2.076   2.905   7.856 -1.6706 -1.0445  0.6192
   94MOL0     H12383   2.129   2.998   7.995 -1.6091 -0.5947  1.3439
   94MOL0     H12384   2.192   2.785   8.119 -0.0101  4.6632  1.2001
   94MOL0     H12385   2.086   2.696   8.015 -0.5088 -1.3998  2.6294
   94MOL0     H12386   2.014   2.873   8.237 -0.3095  1.0224  0.0541
   94MOL0     H12387   1.956   2.942   8.088  1.2703  0.4350  2.2683
   94MOL0     H12388   1.918   2.656   8.190  0.2289  1.2448 -0.2684
   94MOL0     H12389   1.843   2.708   8.034 -2.1480  0.6618 -0.2896
   94MOL0     H12390   2.351   3.311   7.428 -0.7461  0.3526 -0.4379
   94MOL0     H12391   2.434   3.431   7.215  0.3948  0.0243 -1.2060
   94MOL0     H12392   2.374   3.509   6.796 -1.9119 -5.5602  1.3254
   94MOL0     H12393   2.405   3.624   6.576  1.8170 -0.5763 -0.7067
   94MOL0     H12394   3.164   4.891   6.654  0.9645 -2.7607  1.0965
   94MOL0     H12395   3.205   5.118   6.668 -1.4410 -2.5484 -0.4719
   94MOL0     H12396   3.704   5.524   6.494 -2.6103 -0.7562 -2.2972
   94MOL0     H12397   3.711   5.760   6.571  0.7664 -0.8580  0.7601
   94MOL0     H12398   3.434   5.898   6.889  0.9470  0.6566  0.2763
   94MOL0     H12399   3.341   5.952   6.759 -0.2956  2.6352 -0.6094
   94MOL0     H12400   3.520   6.143   6.720 -0.1022 -2.3124 -0.9362
   94MOL0     H12401   3.419   6.159   6.862 -0.1635  1.0823 -1.9553
   94MOL0     H12402   3.654   6.200   6.907  1.0049 -0.0941  0.3497
   94MOL0     H12403   3.693   6.027   6.866 -0.3712 -0.4508  0.3167
   94MOL0     H12404   3.525   6.145   7.093  0.7564  1.3903 -1.6434
   94MOL0     H12405   3.577   5.965   7.081  0.4909 -0.3886 -1.1889
   94MOL0     H12406   3.939   6.148   7.201 -0.3995  1.6882  1.4545
   94MOL0     H12407   3.356   5.735   6.780  0.2030 -0.0301 -0.4638
   94MOL0     H12408   3.323   5.475   6.699 -1.0140  1.8414  0.0832
   95MOL0     O12409   9.387   8.954   4.240  0.0023 -0.0790  0.8575
   95MOL0     C12410   9.430   8.844   4.278 -0.6429 -0.2581 -0.8466
   95MOL0     O12411   9.371   8.724   4.256 -0.9930 -1.2677 -0.0248
   95MOL0     C12412   9.262   8.723   4.167  0.0071 -0.6731  0.1996
   95MOL0     C12413   9.274   8.777   4.041 -0.1586 -0.2376  0.9386
   95MOL0     C12414   9.165   8.784   3.958  0.1244  0.5470 -0.5614
   95MOL0     C12415   9.037   8.739   4.004 -0.9770 -0.7932  0.4702
   95MOL0     O12416   8.921   8.753   3.932 -0.2140 -0.0569  0.1004
   95MOL0     C12417   8.833   8.646   3.926 -0.0368 -0.2201 -0.4725
   95MOL0     C12418   8.761   8.647   3.789 -0.5265 -0.3873  0.2303
   95MOL0     C12419   8.865   8.561   3.689  0.5121 -1.0256 -0.8861
   95MOL0     C12420   8.826   8.568   3.538  0.5713  0.3169  0.5119
   95MOL0     C12421   8.938   8.526   3.433  0.2567 -0.7076 -1.0459
   95MOL0     C12422   9.053   8.626   3.442  0.8218 -0.9048  0.3321
   95MOL0     C12423   9.153   8.606   3.330 -0.0161  0.2732  0.9995
   95MOL0     C12424   9.247   8.491   3.356  0.6911 -0.0495  0.5138
   95MOL0     N12425   9.358   8.517   3.451 -0.0341 -1.3007 -0.2391
   95MOL0     C12426   9.359   8.530   3.590  0.6514  0.0661  0.1393
   95MOL0     C12427   9.479   8.579   3.618  1.3508  0.9300 -1.1230
   95MOL0     C12428   9.515   8.576   3.763  0.1187 -0.1291 -0.8642
   95MOL0     C12429   9.657   8.638   3.781  0.0695  0.1704 -0.1967
   95MOL0     C12430   9.714   8.641   3.926  0.4961  0.5613  0.3546
   95MOL0     C12431   9.737   8.491   3.967  0.7568  0.3744 -0.4762
   95MOL0     O12432   9.664   8.446   4.076  0.1854 -0.5434 -0.1815
   95MOL0     C12433   9.730   8.386   4.174  0.2156  0.1135 -0.1383
   95MOL0     C12434   9.818   8.443   4.260 -0.1941 -0.4036  0.2862
   95MOL0     C12435   9.875   8.364   4.365  0.1881 -0.4021 -0.1003
   95MOL0     C12436   9.851   8.222   4.373 -0.5964  0.4903  0.9927
   95MOL0     C12437   9.917   8.133   4.473 -0.1985 -0.3702  0.2145
   95MOL0     O12438   9.841   8.047   4.542  0.8761 -0.7611 -0.0947
   95MOL0     C12439   9.911   7.973   4.635 -0.0138 -1.0629  0.0666
   95MOL0     C12440   9.891   7.974   4.776 -0.0098  0.5488 -0.2299
   95MOL0     C12441   9.953   7.887   4.857  0.5584 -0.4102  0.6393
   95MOL0     C12442  10.034   7.784   4.806  0.8432 -0.1491  0.7235
   95MOL0     O12443  10.098   7.692   4.872 -0.0020  0.4323  0.3641
   95MOL0     C12444  10.151   7.724   5.003 -0.3108 -0.8396  0.5554
   95MOL0     C12445  10.297   7.662   5.011 -0.5603  0.1093 -1.0718
   95MOL0     C12446  10.303   7.514   4.973  0.5546  0.4650 -0.1301
   95MOL0     C12447  10.441   7.451   5.008  0.8298 -0.5282  0.4212
   95MOL0     C12448  10.445   7.401   5.148  0.0023 -0.0160  0.1381
   95MOL0     C12449  10.572   7.315   5.190 -0.5717 -0.4468 -0.9288
   95MOL0     C12450  10.593   7.307   5.341 -0.2074  0.0816 -0.3239
   95MOL0     C12451  10.712   7.209   5.372 -0.1022 -0.2126  0.5614
   95MOL0    Cl12452  10.710   7.217   5.543  0.1580 -0.2379 -0.1537
   95MOL0     C12453  10.068   7.790   4.666  0.6231  0.3943 -0.2834
   95MOL0     C12454  10.009   7.883   4.584 -0.5551 -0.2925  1.1822
   95MOL0     O12455  10.032   8.158   4.493 -1.0510 -0.0436 -0.3255
   95MOL0     C12456   9.761   8.166   4.279 -0.1372 -0.7518 -0.1064
   95MOL0     C12457   9.705   8.249   4.181  0.5582 -0.6246 -0.9633
   95MOL0     N12458   9.543   8.620   3.503  0.0823 -0.6233  0.1545
   95MOL0     N12459   9.465   8.597   3.407  0.3751 -0.2644 -0.4466
   95MOL0     C12460   9.020   8.708   4.134 -0.6716  0.2070  0.4462
   95MOL0     C12461   9.133   8.689   4.209 -0.8151  0.3022  0.3774
   95MOL0     C12462   9.562   8.839   4.347  0.0000  0.2568  0.1433
   95MOL0     C12463   9.627   8.954   4.404 -0.8947 -0.5235 -0.2313
   95MOL0     C12464   9.754   8.931   4.460 -0.2370 -1.0590 -0.1181
   95MOL0     C12465   9.814   8.813   4.488 -0.7180 -0.3319 -0.0093
   95MOL0     O12466   9.939   8.796   4.547 -0.1123 -0.5421 -0.7273
   95MOL0     C12467  10.002   8.917   4.597 -0.4209  1.0612 -0.9803
   95MOL0     C12468   9.949   8.973   4.727  0.1906 -0.0786 -0.5411
   95MOL0     C12469   9.983   8.887   4.848  0.1569 -0.1774 -0.2500
   95MOL0     C12470   9.912   8.933   4.975  0.7072 -1.6125 -0.4219
   95MOL0     C12471   9.765   8.926   4.961  0.6668  1.2582 -0.3566
   95MOL0     C12472   9.643   8.908   4.946  0.7002  0.2911  0.4297
   95MOL0     C12473   9.737   8.701   4.459 -0.0033 -0.6135  0.0731
   95MOL0     C12474   9.614   8.714   4.390  0.1676  0.1027  0.3460
   95MOL0     H12475   9.359   8.832   4.002 -1.5226  1.6446  0.5031
   95MOL0     H12476   9.152   8.825   3.859 -3.7645  1.3909  0.1471
   95MOL0     H12477   8.750   8.655   3.997 -1.6171 -0.8607 -2.1437
   95MOL0     H12478   8.892   8.555   3.937  3.9530  2.1292 -0.2759
   95MOL0     H12479   8.764   8.747   3.746  1.8108 -1.2097 -1.8182
   95MOL0     H12480   8.658   8.612   3.792 -1.5348  2.2627 -0.5969
   95MOL0     H12481   8.873   8.457   3.722  1.6209 -0.6927 -0.0443
   95MOL0     H12482   8.958   8.617   3.695 -0.0004 -0.3062  2.0653
   95MOL0     H12483   8.758   8.485   3.517  0.0486  1.5476 -3.6762
   95MOL0     H12484   8.770   8.657   3.507 -1.7357 -1.1139  0.3453
   95MOL0     H12485   8.895   8.527   3.332  2.2201 -0.0553 -1.9296
   95MOL0     H12486   8.972   8.426   3.459  1.8739 -0.1339 -0.8478
   95MOL0     H12487   9.099   8.620   3.541 -1.6874  2.5191  1.9073
   95MOL0     H12488   9.007   8.725   3.443 -1.3427 -1.8449  0.5962
   95MOL0     H12489   9.101   8.580   3.238  2.9745  0.2213 -0.7978
   95MOL0     H12490   9.211   8.698   3.317  0.1530  0.2207  1.3739
   95MOL0     H12491   9.293   8.473   3.258  1.7871  1.1400  0.7829
   95MOL0     H12492   9.186   8.408   3.392 -0.6645  0.4067 -0.6456
   95MOL0     H12493   9.286   8.484   3.656  0.5794 -3.4310 -2.1180
   95MOL0     H12494   9.508   8.475   3.804 -0.0092 -0.0629 -0.7204
   95MOL0     H12495   9.446   8.646   3.809  0.7380  1.3205 -2.0641
   95MOL0     H12496   9.644   8.744   3.755 -0.9614 -0.0088 -0.4457
   95MOL0     H12497   9.717   8.594   3.701  1.1585 -0.2610  0.8231
   95MOL0     H12498   9.804   8.702   3.935 -1.2197  3.6633 -1.4062
   95MOL0     H12499   9.646   8.682   4.002 -0.2032 -1.8067  1.1065
   95MOL0     H12500   9.843   8.488   3.993  0.3807  2.1111  1.5354
   95MOL0     H12501   9.714   8.423   3.884 -0.7582 -0.5587  0.6559
   95MOL0     H12502   9.831   8.550   4.248  0.8314 -0.2044  2.5715
   95MOL0     H12503   9.940   8.406   4.441  0.8805 -2.7663  0.6840
   95MOL0     H12504   9.820   8.043   4.820  0.0369  2.1073 -2.4370
   95MOL0     H12505   9.935   7.895   4.964 -2.4008  0.8074  0.1276
   95MOL0     H12506  10.090   7.698   5.090 -0.0152 -1.4651  0.5795
   95MOL0     H12507  10.161   7.833   4.997 -0.8493 -0.8505 -2.1174
   95MOL0     H12508  10.348   7.683   5.106 -3.3335 -1.8957  1.0580
   95MOL0     H12509  10.365   7.719   4.947  2.4516  1.6044  3.0108
   95MOL0     H12510  10.290   7.497   4.865  1.0196 -0.0986 -0.1045
   95MOL0     H12511  10.216   7.461   5.014  1.6064 -1.9357 -0.8436
   95MOL0     H12512  10.449   7.372   4.933 -1.6062  1.8411 -2.5933
   95MOL0     H12513  10.525   7.520   4.999  2.3615 -2.1832  1.4258
   95MOL0     H12514  10.358   7.337   5.168 -0.5274  0.0309 -1.8077
   95MOL0     H12515  10.444   7.484   5.219  2.3739 -1.3263  1.8531
   95MOL0     H12516  10.667   7.361   5.163  0.6050 -0.7825  2.1597
   95MOL0     H12517  10.572   7.216   5.144 -2.4066  0.5337 -3.2351
   95MOL0     H12518  10.623   7.404   5.382  2.3850  0.1476 -2.1423
   95MOL0     H12519  10.498   7.272   5.382  0.6823 -0.3877  1.4858
   95MOL0     H12520  10.805   7.247   5.330 -2.0198  2.2145 -1.9503
   95MOL0     H12521  10.688   7.106   5.344 -2.3549  1.0026 -2.6548
   95MOL0     H12522  10.131   7.713   4.623  0.6742 -0.2130  0.8263
   95MOL0     H12523  10.045   7.872   4.483 -0.0840  0.6059  1.2355
   95MOL0     H12524   9.739   8.060   4.278 -1.5103 -0.6517  3.5175
   95MOL0     H12525   9.643   8.199   4.107 -0.1224 -0.5803 -0.4341
   95MOL0     H12526   8.922   8.665   4.155 -1.6588  1.5640 -1.0839
   95MOL0     H12527   9.114   8.660   4.312  1.1590 -1.6565  0.2571
   95MOL0     H12528   9.591   9.056   4.398 -1.6281 -0.6735  1.1996
   95MOL0     H12529   9.808   9.022   4.484 -2.1217 -0.3320  1.6638
   95MOL0     H12530   9.995   8.999   4.526 -0.0423  1.6014 -0.4094
   95MOL0     H12531  10.107   8.889   4.614 -1.0330 -2.4728 -2.0865
   95MOL0     H12532   9.996   9.071   4.740 -1.1286  0.9290 -2.8227
   95MOL0     H12533   9.846   9.008   4.720  0.0831  0.3517  2.0435
   95MOL0     H12534  10.090   8.866   4.858 -0.0050 -3.9335 -3.7743
   95MOL0     H12535   9.951   8.789   4.811 -0.0589  0.4635 -1.8420
   95MOL0     H12536   9.938   8.876   5.065 -2.3701 -2.5640 -0.0115
   95MOL0     H12537   9.945   9.036   4.992  1.0338 -1.6841 -0.5960
   95MOL0     H12538   9.541   8.907   4.912 -0.6293  2.3365  3.8190
   95MOL0     H12539   9.751   8.597   4.489 -1.8089 -1.1507 -0.7856
   95MOL0     H12540   9.567   8.620   4.363 -0.2248  0.5969 -0.7596
   96MOL0     O12541   6.843   0.720   1.831 -0.1161  0.4703  0.4037
   96MOL0     C12542   6.891   0.614   1.776 -0.2813 -0.1273 -0.5427
   96MOL0     O12543   6.847   0.482   1.794  0.1428 -0.1311 -0.2869
   96MOL0     C12544   6.745   0.459   1.883 -0.4646 -0.7139  0.2982
   96MOL0     C12545   6.765   0.493   2.011 -0.8911 -0.1189  0.0018
   96MOL0     C12546   6.671   0.470   2.112  0.4948  0.2049  0.8768
   96MOL0     C12547   6.551   0.408   2.072 -0.0782  0.2655  0.4285
   96MOL0     O12548   6.454   0.362   2.151 -0.4708 -0.9685  0.7286
   96MOL0     C12549   6.461   0.379   2.293 -0.3263 -0.2719  0.2367
   96MOL0     C12550   6.357   0.283   2.355 -0.5134  0.3520 -0.5344
   96MOL0     C12551   6.398   0.237   2.501 -0.0842  0.5968 -0.6944
   96MOL0     C12552   6.282   0.192   2.588 -0.0529 -0.2594  0.5286
   96MOL0     C12553   6.326   0.094   2.700 -0.1286  0.3216  0.1976
   96MOL0     C12554   6.194   0.041   2.765  0.1623 -0.2283  0.4345
   96MOL0     C12555   6.215  -0.076   2.854 -0.0871 -1.0703 -0.3107
   96MOL0     C12556   6.351  -0.093   2.918 -1.0707  0.1052  0.6447
   96MOL0     N12557   6.335  -0.204   3.013  0.9029 -0.1812  0.0566
   96MOL0     C12558   6.427  -0.305   3.009  0.0424 -0.1955 -0.3558
   96MOL0     C12559   6.393  -0.383   3.120  0.1751  0.2534 -0.6239
   96MOL0     C12560   6.457  -0.505   3.172  0.1562 -0.3174  0.5475
   96MOL0     C12561   6.411  -0.624   3.087  0.4031 -0.8515 -0.6467
   96MOL0     C12562   6.489  -0.648   2.954  0.5667 -1.6302  0.8450
   96MOL0     C12563   6.451  -0.776   2.883 -0.6084 -0.7134 -0.5478
   96MOL0     O12564   6.308  -0.784   2.875 -0.3561 -0.1991 -0.1337
   96MOL0     C12565   6.245  -0.902   2.841  0.2697  0.2184  0.4053
   96MOL0     C12566   6.309  -1.013   2.776  0.0743  0.1239 -0.3119
   96MOL0     C12567   6.240  -1.130   2.743 -0.0920  0.1204  0.3025
   96MOL0     C12568   6.102  -1.144   2.770  0.3897  0.7010  0.0229
   96MOL0     C12569   6.027  -1.266   2.742  1.1285  0.4509 -0.5482
   96MOL0     O12570   6.096  -1.381   2.696  0.2517  0.2949 -0.0397
   96MOL0     C12571   6.041  -1.495   2.677 -0.0327  0.3240 -0.3453
   96MOL0     C12572   5.966  -1.521   2.562  0.6263  0.2326 -0.5152
   96MOL0     C12573   5.911  -1.642   2.542 -0.3238 -0.1527 -1.1352
   96MOL0     C12574   5.923  -1.742   2.640 -1.0172  0.1254  0.2859
   96MOL0     O12575   5.876  -1.867   2.612  0.4293 -0.2002 -0.5066
   96MOL0     C12576   5.943  -1.939   2.510 -0.1596 -0.4482 -0.2200
   96MOL0     C12577   5.971  -2.072   2.571 -0.4302  0.1574 -0.2162
   96MOL0     C12578   6.092  -2.086   2.673  0.1955 -0.1367  0.2871
   96MOL0     C12579   6.209  -1.993   2.645  0.1723 -0.3120 -0.7736
   96MOL0     C12580   6.270  -2.025   2.513 -0.1710 -0.2178  0.5588
   96MOL0     C12581   6.373  -1.917   2.479 -0.3848 -0.8509  0.0394
   96MOL0     C12582   6.402  -1.924   2.328  0.9343  0.0455 -0.2134
   96MOL0     C12583   6.467  -1.795   2.267 -0.4567 -0.3848  1.1938
   96MOL0    Cl12584   6.639  -1.768   2.312  0.5306 -0.6977 -0.3651
   96MOL0     C12585   5.998  -1.717   2.751  0.8970  0.3658 -0.5187
   96MOL0     C12586   6.056  -1.595   2.773  0.3605 -1.0977 -0.5560
   96MOL0     O12587   5.903  -1.261   2.758  1.0016  0.8035  0.1973
   96MOL0     C12588   6.039  -1.033   2.818 -0.3559  0.9570 -0.0976
   96MOL0     C12589   6.103  -0.919   2.857  0.7882 -0.0695  0.0330
   96MOL0     N12590   6.284  -0.322   3.180 -0.5475  0.4086  0.5046
   96MOL0     N12591   6.253  -0.214   3.124  0.8327 -0.0177 -0.1842
   96MOL0     C12592   6.534   0.366   1.947 -0.2470  0.6286 -0.1798
   96MOL0     C12593   6.630   0.390   1.857  0.1075 -0.6919  0.5704
   96MOL0     C12594   7.016   0.648   1.695 -0.1501  0.3925 -0.3987
   96MOL0     C12595   7.089   0.762   1.704 -0.3528  0.3690  0.6185
   96MOL0     C12596   7.214   0.770   1.644  0.1237 -0.9606  0.1988
   96MOL0     C12597   7.265   0.683   1.549  0.0185  0.6458  0.0549
   96MOL0     O12598   7.380   0.700   1.478  0.2134  0.2842 -0.0953
   96MOL0     C12599   7.381   0.652   1.347  0.0724  0.5996  0.3314
   96MOL0     C12600   7.504   0.697   1.274 -0.2140  0.5627  0.0598
   96MOL0     C12601   7.500   0.848   1.266 -0.6746 -0.3894  0.3832
   96MOL0     C12602   7.631   0.891   1.208  0.3537 -0.3853  0.3202
   96MOL0     C12603   7.625   0.876   1.061 -0.2405 -0.3209 -0.7121
   96MOL0     C12604   7.637   0.870   0.938 -0.7740 -0.0036 -0.4098
   96MOL0     C12605   7.192   0.561   1.549  1.2842  0.3078  0.4867
   96MOL0     C12606   7.074   0.544   1.619 -0.7666 -0.5386  0.0333
   96MOL0     H12607   6.858   0.543   2.038 -1.2828  0.2269  0.7366
   96MOL0     H12608   6.700   0.510   2.208  1.3449  0.2334  0.6220
   96MOL0     H12609   6.438   0.481   2.325 -2.5565 -0.4765 -0.5818
   96MOL0     H12610   6.562   0.343   2.315 -0.2268 -0.3324 -0.3019
   96MOL0     H12611   6.346   0.196   2.289  1.0145  0.6976 -1.2887
   96MOL0     H12612   6.267   0.344   2.361 -0.8697 -0.2071 -0.0988
   96MOL0     H12613   6.444   0.325   2.548 -0.5326  1.1489 -1.2778
   96MOL0     H12614   6.467   0.156   2.476 -1.0363 -0.8694  1.1537
   96MOL0     H12615   6.223   0.271   2.635 -1.9813 -1.8895  0.9585
   96MOL0     H12616   6.215   0.136   2.523  2.0033  0.0172 -2.0145
   96MOL0     H12617   6.398   0.139   2.769 -0.0229 -0.2107  0.4400
   96MOL0     H12618   6.378   0.012   2.650  0.7230 -0.1046  1.7088
   96MOL0     H12619   6.115   0.015   2.694 -0.1882 -1.2354  1.1765
   96MOL0     H12620   6.154   0.120   2.829 -0.9446 -1.0333  0.7451
   96MOL0     H12621   6.135  -0.066   2.928  1.8309 -1.5690  1.9483
   96MOL0     H12622   6.195  -0.169   2.800  0.0862 -0.8841 -0.7005
   96MOL0     H12623   6.383   0.003   2.960  2.5132 -0.0786 -1.2708
   96MOL0     H12624   6.419  -0.124   2.838 -1.1514 -1.9798  1.3257
   96MOL0     H12625   6.508  -0.306   2.937  1.7210 -1.5232  1.4373
   96MOL0     H12626   6.418  -0.517   3.274  0.9900 -0.5508  0.8418
   96MOL0     H12627   6.566  -0.503   3.169  0.1846 -1.3310  0.5303
   96MOL0     H12628   6.304  -0.623   3.065  0.4290  0.4152 -0.8179
   96MOL0     H12629   6.432  -0.710   3.151 -0.5951 -0.7084 -0.1106
   96MOL0     H12630   6.456  -0.566   2.891  0.8214 -2.3406 -0.2479
   96MOL0     H12631   6.595  -0.632   2.976  0.5803  1.5998 -1.0561
   96MOL0     H12632   6.481  -0.862   2.943  0.2078  0.4601  0.7784
   96MOL0     H12633   6.500  -0.783   2.785  0.8310  2.4729 -0.1786
   96MOL0     H12634   6.410  -1.010   2.738 -0.4470  2.3815 -1.7197
   96MOL0     H12635   6.291  -1.213   2.695  1.5386  1.9325 -1.2690
   96MOL0     H12636   5.983  -1.446   2.486 -0.4652  0.2342 -0.7794
   96MOL0     H12637   5.857  -1.654   2.448  4.2070  2.2815 -4.4104
   96MOL0     H12638   6.025  -1.876   2.473 -2.0123  2.4613  0.3046
   96MOL0     H12639   5.887  -1.954   2.417  1.2033  0.9497 -1.3239
   96MOL0     H12640   5.987  -2.145   2.491  1.1867  0.5398 -0.2857
   96MOL0     H12641   5.879  -2.105   2.620  0.4443  0.2373  1.5969
   96MOL0     H12642   6.118  -2.191   2.685  1.3495 -0.0427 -1.0790
   96MOL0     H12643   6.051  -2.034   2.760 -0.2506  2.2943 -1.2862
   96MOL0     H12644   6.174  -1.889   2.649  0.3048 -0.2387 -1.3220
   96MOL0     H12645   6.270  -2.005   2.735 -2.2705 -1.5318  0.8365
   96MOL0     H12646   6.189  -2.023   2.439  1.9029  0.6011 -1.8186
   96MOL0     H12647   6.318  -2.123   2.520 -1.0053 -0.6761  0.0738
   96MOL0     H12648   6.459  -1.899   2.544 -2.1356  5.3182  1.2632
   96MOL0     H12649   6.320  -1.822   2.485  0.9182 -0.0088 -1.2310
   96MOL0     H12650   6.480  -1.998   2.310 -1.3685 -2.1997 -1.6820
   96MOL0     H12651   6.315  -1.939   2.264  0.2690  2.6646 -0.0566
   96MOL0     H12652   6.407  -1.708   2.295 -0.7765 -0.5227  0.9389
   96MOL0     H12653   6.474  -1.810   2.159  0.5017  1.8295  0.8948
   96MOL0     H12654   6.006  -1.794   2.827 -2.1890  1.0377  0.6142
   96MOL0     H12655   6.112  -1.573   2.863  0.9613 -0.8761 -0.9764
   96MOL0     H12656   5.931  -1.044   2.819 -0.6923  3.5224 -1.2356
   96MOL0     H12657   6.048  -0.831   2.888 -0.6630 -0.7650 -0.4726
   96MOL0     H12658   6.449   0.305   1.918  2.2077 -2.1870 -2.1080
   96MOL0     H12659   6.619   0.360   1.753  0.5231 -0.2592  0.4000
   96MOL0     H12660   7.051   0.834   1.776 -1.1529  1.8828 -1.2334
   96MOL0     H12661   7.280   0.854   1.661  0.0900 -0.7677 -0.5940
   96MOL0     H12662   7.298   0.701   1.296 -0.4652  1.1954  1.7315
   96MOL0     H12663   7.361   0.545   1.334 -0.9500  0.9945 -1.7474
   96MOL0     H12664   7.591   0.659   1.328  0.4151 -0.5460 -1.6464
   96MOL0     H12665   7.508   0.653   1.174 -2.7234  0.9484 -0.2694
   96MOL0     H12666   7.490   0.901   1.362 -2.8828 -0.3492  0.1656
   96MOL0     H12667   7.425   0.873   1.191  2.1672 -0.7926 -2.8194
   96MOL0     H12668   7.643   0.998   1.229 -1.7522  0.0590 -0.5369
   96MOL0     H12669   7.718   0.844   1.256  1.3526  0.3391 -0.7013
   96MOL0     H12670   7.685   0.861   0.843  0.5650  1.1500  0.1306
   96MOL0     H12671   7.230   0.478   1.491 -1.6984 -3.2842  3.1927
   96MOL0     H12672   7.017   0.452   1.603  1.0688 -2.1340  2.1443
   97MOL0     O12673   5.042   4.047   3.326 -0.1165  0.2659  0.1855
   97MOL0     C12674   5.053   3.922   3.333 -0.7466 -0.1953 -0.8441
   97MOL0     O12675   5.073   3.834   3.232 -0.2044 -0.6770 -0.0048
   97MOL0     C12676   5.117   3.873   3.108 -0.6946  0.6829  0.8969
   97MOL0     C12677   5.080   3.795   3.000 -0.9514 -0.2209  0.2009
   97MOL0     C12678   5.129   3.816   2.871  0.5658  0.7274  0.1489
   97MOL0     C12679   5.226   3.917   2.846  0.0593  0.7570 -0.4624
   97MOL0     O12680   5.291   3.957   2.730 -0.5514 -0.3455  0.7550
   97MOL0     C12681   5.217   3.931   2.610 -0.0957 -0.2578 -0.4356
   97MOL0     C12682   5.266   3.991   2.472  0.0508  0.5649 -0.2721
   97MOL0     C12683   5.306   4.139   2.476  0.0409 -0.3532  0.2524
   97MOL0     C12684   5.191   4.233   2.489 -0.0448 -0.0027 -0.1721
   97MOL0     C12685   5.254   4.376   2.504  0.9226 -0.2541 -0.7744
   97MOL0     C12686   5.265   4.425   2.652  0.5567 -0.5258 -0.1139
   97MOL0     C12687   5.296   4.571   2.679 -0.9267  0.5255 -0.1138
   97MOL0     C12688   5.195   4.662   2.606  0.1988  0.4498 -0.1722
   97MOL0     N12689   5.244   4.804   2.603 -0.0340  0.0062  0.2562
   97MOL0     C12690   5.223   4.894   2.707 -0.1341  0.3691 -0.1463
   97MOL0     C12691   5.277   5.007   2.656 -0.4334 -0.0981 -0.6085
   97MOL0     C12692   5.262   5.136   2.717  0.9631  0.1525  0.2200
   97MOL0     C12693   5.387   5.166   2.804  0.0351  0.5101 -0.1507
   97MOL0     C12694   5.386   5.315   2.843 -0.6729 -0.3592 -0.9892
   97MOL0     C12695   5.408   5.412   2.724  0.9473 -0.0248 -1.0581
   97MOL0     O12696   5.512   5.381   2.631  0.1449  0.1488  0.2228
   97MOL0     C12697   5.530   5.463   2.521 -0.4730  0.8999 -1.1571
   97MOL0     C12698   5.614   5.409   2.425 -0.6573  0.6076 -0.6505
   97MOL0     C12699   5.640   5.475   2.307 -0.2190 -0.7032  0.7161
   97MOL0     C12700   5.591   5.612   2.290  0.9378  0.3162 -1.1175
   97MOL0     C12701   5.616   5.681   2.165 -0.9474 -1.8244  0.7167
   97MOL0     O12702   5.547   5.803   2.152  0.0011  0.1113 -0.8894
   97MOL0     C12703   5.594   5.895   2.065 -0.6407 -0.6574  0.2296
   97MOL0     C12704   5.717   5.955   2.091  1.0628  0.7306 -0.1402
   97MOL0     C12705   5.774   6.056   2.011  0.5176 -0.1681 -0.4199
   97MOL0     C12706   5.698   6.090   1.896 -0.8288  0.5102  0.3719
   97MOL0     O12707   5.734   6.194   1.819 -0.2114  0.4790  0.7110
   97MOL0     C12708   5.741   6.176   1.682  0.6315  1.2575  0.0714
   97MOL0     C12709   5.855   6.083   1.628 -0.6374 -0.3761 -0.2957
   97MOL0     C12710   5.999   6.138   1.647  0.3099  0.7694 -0.5074
   97MOL0     C12711   6.088   6.069   1.548 -0.5988  0.7639 -0.5404
   97MOL0     C12712   6.231   6.144   1.553 -0.4353  0.9044  0.7028
   97MOL0     C12713   6.343   6.041   1.509 -0.9442 -0.2775 -0.8852
   97MOL0     C12714   6.338   6.021   1.351  0.6099  0.1292  0.1166
   97MOL0     C12715   6.486   6.024   1.302 -0.5968 -0.8932  0.4130
   97MOL0    Cl12716   6.488   6.010   1.126 -0.2312 -0.6900  0.3082
   97MOL0     C12717   5.572   6.041   1.881 -0.0177 -0.4723  0.4938
   97MOL0     C12718   5.511   5.954   1.966 -0.7723  0.3244 -0.4826
   97MOL0     O12719   5.702   5.638   2.088  0.1881  0.3351  0.6541
   97MOL0     C12720   5.513   5.662   2.393 -0.7804  0.6027  0.9121
   97MOL0     C12721   5.492   5.594   2.508 -0.0649  0.2676 -0.0579
   97MOL0     N12722   5.320   4.994   2.524  1.0692  0.8419  0.2635
   97MOL0     N12723   5.300   4.868   2.497 -0.3333 -0.6903  0.8413
   97MOL0     C12724   5.248   4.002   2.954  0.2908  0.3200  0.6765
   97MOL0     C12725   5.193   3.988   3.078 -0.3709  0.0253 -0.3583
   97MOL0     C12726   5.041   3.865   3.466 -0.6568  0.4628 -0.0324
   97MOL0     C12727   5.037   3.940   3.584 -0.1164  0.1383 -0.3989
   97MOL0     C12728   5.026   3.873   3.709 -0.3707 -0.0858 -0.0829
   97MOL0     C12729   5.015   3.738   3.718  1.2408 -0.5842 -0.5248
   97MOL0     O12730   5.000   3.691   3.850 -0.0016 -0.2617  0.0628
   97MOL0     C12731   5.019   3.554   3.886  0.3432  0.7732  0.8056
   97MOL0     C12732   4.884   3.489   3.905  0.6921  0.1406 -0.1526
   97MOL0     C12733   4.894   3.338   3.936 -0.1315 -0.7955 -0.4898
   97MOL0     C12734   4.938   3.256   3.823 -0.0631 -0.7641  1.2536
   97MOL0     C12735   4.855   3.260   3.697 -0.0661  0.1455  0.6624
   97MOL0     C12736   4.798   3.277   3.589 -0.1594 -0.2604 -0.4015
   97MOL0     C12737   5.009   3.665   3.596 -0.2050 -0.2866 -0.1577
   97MOL0     C12738   5.015   3.729   3.473  0.0295  0.5514  0.1208
   97MOL0     H12739   5.020   3.709   3.027 -2.6849 -0.0302 -2.6732
   97MOL0     H12740   5.103   3.746   2.793  0.0757 -1.1223  1.9012
   97MOL0     H12741   5.123   3.981   2.634  0.2340 -0.6867  2.0001
   97MOL0     H12742   5.196   3.824   2.612 -1.6961  0.0426  0.3716
   97MOL0     H12743   5.194   3.967   2.394  1.8299 -3.0621 -1.0194
   97MOL0     H12744   5.363   3.942   2.457 -1.2632 -2.8595  1.3669
   97MOL0     H12745   5.365   4.181   2.394  0.4880  2.6439  1.9536
   97MOL0     H12746   5.375   4.145   2.561  3.2540 -0.8660 -2.1373
   97MOL0     H12747   5.139   4.218   2.394  3.2142 -3.6953 -1.6286
   97MOL0     H12748   5.120   4.222   2.571 -0.7602  3.6045 -0.1420
   97MOL0     H12749   5.185   4.437   2.446 -2.2127 -0.1776  2.6279
   97MOL0     H12750   5.346   4.393   2.449  1.4244  0.6945  0.3022
   97MOL0     H12751   5.337   4.364   2.708  3.1482  2.0405 -0.3908
   97MOL0     H12752   5.164   4.402   2.687  0.2965  0.1057 -0.4279
   97MOL0     H12753   5.297   4.581   2.788  5.6252  0.2616  0.2558
   97MOL0     H12754   5.402   4.587   2.657 -0.2111 -1.8807  1.2233
   97MOL0     H12755   5.097   4.663   2.654  0.5598 -0.5062  0.6221
   97MOL0     H12756   5.192   4.642   2.499  0.7070  2.8388 -0.6840
   97MOL0     H12757   5.165   4.874   2.797 -1.4858  1.5376 -0.7221
   97MOL0     H12758   5.174   5.148   2.781  0.4950  0.3741 -0.4504
   97MOL0     H12759   5.242   5.211   2.641 -0.6768  1.8168  2.1614
   97MOL0     H12760   5.480   5.144   2.751  0.1027 -1.8034  0.8327
   97MOL0     H12761   5.388   5.096   2.888 -2.2204  0.0397 -0.4693
   97MOL0     H12762   5.296   5.343   2.898 -1.6688 -1.1429 -2.1609
   97MOL0     H12763   5.466   5.329   2.916 -2.7552  1.3550  1.0956
   97MOL0     H12764   5.438   5.510   2.761  2.6943 -0.8317 -0.1961
   97MOL0     H12765   5.305   5.422   2.690 -0.7481  2.2127  3.7156
   97MOL0     H12766   5.649   5.308   2.445  0.3790  1.4022  2.1755
   97MOL0     H12767   5.696   5.432   2.224  2.5748  3.6352 -0.0066
   97MOL0     H12768   5.763   5.933   2.187 -0.0467  1.1042  0.4980
   97MOL0     H12769   5.866   6.108   2.036  0.2765 -0.4508  1.1301
   97MOL0     H12770   5.761   6.271   1.631  1.6873  1.8245  1.4681
   97MOL0     H12771   5.650   6.130   1.644  1.0235  1.0933 -0.6906
   97MOL0     H12772   5.847   6.080   1.519 -1.6971  1.6377 -0.3161
   97MOL0     H12773   5.850   5.981   1.665  1.1672  0.1353  1.5788
   97MOL0     H12774   6.029   6.129   1.752 -1.6685 -1.1676 -0.0303
   97MOL0     H12775   6.001   6.244   1.623  1.4553  0.6768 -0.8705
   97MOL0     H12776   6.097   5.963   1.572 -2.3831  0.0219 -2.8114
   97MOL0     H12777   6.058   6.085   1.444  1.1675 -0.7995 -1.3372
   97MOL0     H12778   6.255   6.178   1.654  0.3573 -0.0333  0.8432
   97MOL0     H12779   6.232   6.224   1.478  0.5407 -0.8291 -1.2249
   97MOL0     H12780   6.339   5.949   1.568  0.2684 -0.9087 -1.7595
   97MOL0     H12781   6.440   6.075   1.548 -0.2409  1.0728 -3.6022
   97MOL0     H12782   6.290   5.928   1.318  0.4816 -0.4269  1.7791
   97MOL0     H12783   6.292   6.109   1.305  0.1525 -0.0960  0.1329
   97MOL0     H12784   6.541   5.940   1.344 -0.2087 -0.6989  0.2965
   97MOL0     H12785   6.533   6.121   1.321  0.5731 -1.7264  2.0431
   97MOL0     H12786   5.505   6.063   1.799  0.1914 -2.0297 -0.1312
   97MOL0     H12787   5.409   5.916   1.964 -0.1072 -1.8688  1.4772
   97MOL0     H12788   5.461   5.758   2.394 -2.6260 -0.3613  1.5013
   97MOL0     H12789   5.430   5.642   2.583  1.6785 -0.0163  1.6494
   97MOL0     H12790   5.307   4.088   2.922  0.9864 -0.2730  0.3457
   97MOL0     H12791   5.229   4.061   3.150  2.7001 -0.9912 -0.7182
   97MOL0     H12792   5.052   4.048   3.581  0.4199  0.0627 -0.4995
   97MOL0     H12793   5.038   3.928   3.802 -0.3858 -2.5317  1.4340
   97MOL0     H12794   5.071   3.538   3.981  0.4073 -2.3450  0.3653
   97MOL0     H12795   5.064   3.498   3.803  0.0910 -1.1932  1.9184
   97MOL0     H12796   4.837   3.525   3.997  3.5699 -0.8235  1.8387
   97MOL0     H12797   4.828   3.490   3.811  0.7783 -0.6260 -0.2179
   97MOL0     H12798   4.801   3.288   3.963 -0.6410  0.6197  0.4551
   97MOL0     H12799   4.962   3.322   4.021  1.4388  2.4726 -0.9893
   97MOL0     H12800   5.040   3.274   3.788 -0.4583  0.0503  0.4861
   97MOL0     H12801   4.934   3.153   3.861  1.0397 -0.6212  1.7980
   97MOL0     H12802   4.757   3.284   3.490 -3.0557  0.1338  0.7184
   97MOL0     H12803   4.991   3.558   3.601  2.5227 -0.7546  1.5947
   97MOL0     H12804   5.000   3.672   3.382 -1.6449  1.4561 -0.2073
   98MOL0     O12805   8.090   9.756   1.682  0.1484 -0.1002  0.1703
   98MOL0     C12806   8.109   9.729   1.562  0.2014  0.2078 -0.4361
   98MOL0     O12807   8.080   9.601   1.509 -0.1864  1.0827  0.2727
   98MOL0     C12808   8.062   9.493   1.601 -0.1694 -0.5575  1.0334
   98MOL0     C12809   8.145   9.471   1.718  0.0331  0.4034  0.0660
   98MOL0     C12810   8.110   9.368   1.808 -0.4660 -0.6935 -0.4289
   98MOL0     C12811   7.998   9.285   1.782  0.2469  0.4708 -0.0478
   98MOL0     O12812   7.951   9.182   1.857  0.0639  0.3366 -0.2390
   98MOL0     C12813   7.940   9.216   1.996  0.7439  0.8002  0.1196
   98MOL0     C12814   7.884   9.079   2.044  0.5532  0.3525 -0.7355
   98MOL0     C12815   7.733   9.063   2.024  0.2858 -0.4004  0.0657
   98MOL0     C12816   7.692   8.920   1.986 -0.4407  0.5294 -0.1315
   98MOL0     C12817   7.543   8.904   1.969  0.2694  0.3184  0.0535
   98MOL0     C12818   7.516   8.756   1.965  0.9041  0.0716 -0.5974
   98MOL0     C12819   7.362   8.734   1.967  0.8457  0.5961  0.4687
   98MOL0     C12820   7.287   8.712   2.104 -0.1684 -0.7649 -1.1051
   98MOL0     N12821   7.139   8.731   2.103  0.1693 -1.0200 -1.2882
   98MOL0     C12822   7.057   8.686   2.006  0.3872 -0.1085  0.6018
   98MOL0     C12823   6.954   8.778   2.002  0.8866 -0.0006  0.0125
   98MOL0     C12824   6.850   8.798   1.892  0.0141  0.6167  1.2439
   98MOL0     C12825   6.835   8.935   1.832 -1.3958  0.1542  0.3598
   98MOL0     C12826   6.963   9.015   1.796 -0.7372 -0.5817 -0.2496
   98MOL0     C12827   7.050   8.968   1.691 -1.2720 -0.0626 -0.3384
   98MOL0     O12828   7.165   9.051   1.691  0.0858 -0.1609  0.1389
   98MOL0     C12829   7.287   9.012   1.650  0.5691  0.7491  0.3226
   98MOL0     C12830   7.384   9.103   1.684 -0.4073  0.0574  0.2878
   98MOL0     C12831   7.527   9.079   1.641 -0.0469  0.6903 -0.7551
   98MOL0     C12832   7.562   8.957   1.583 -0.4746  0.0181  0.3085
   98MOL0     C12833   7.701   8.926   1.539  0.0663  0.4954  0.4663
   98MOL0     O12834   7.798   9.011   1.573  0.1453 -0.0888 -0.2594
   98MOL0     C12835   7.920   8.984   1.523 -0.1506  0.0146  0.2758
   98MOL0     C12836   7.955   9.066   1.414 -0.8942 -0.6470 -0.2746
   98MOL0     C12837   8.081   9.058   1.362  0.7434  0.6296  0.4312
   98MOL0     C12838   8.173   8.966   1.407 -0.4527  1.2046 -0.2984
   98MOL0     O12839   8.292   8.948   1.340  0.1478  0.0642  0.5018
   98MOL0     C12840   8.412   8.941   1.408  0.0296 -0.2474 -0.7162
   98MOL0     C12841   8.542   8.953   1.312 -0.1751  0.1066 -0.5737
   98MOL0     C12842   8.517   9.048   1.196  0.2635 -0.9228  0.4448
   98MOL0     C12843   8.491   9.190   1.243  0.4027  0.1531  0.1815
   98MOL0     C12844   8.548   9.284   1.130  0.7206  0.1158 -0.6851
   98MOL0     C12845   8.536   9.424   1.159 -0.7015 -0.0310 -0.0399
   98MOL0     C12846   8.614   9.506   1.063  0.1352 -0.2748 -0.7359
   98MOL0     C12847   8.596   9.657   1.091 -1.0528 -0.2925 -0.1174
   98MOL0    Cl12848   8.635   9.742   0.941  0.4818 -0.3119 -0.1383
   98MOL0     C12849   8.152   8.895   1.527 -0.2553 -0.0589  0.1358
   98MOL0     C12850   8.023   8.903   1.577  1.1289  0.1689  0.4896
   98MOL0     O12851   7.712   8.836   1.459 -0.9715  0.5642 -1.0646
   98MOL0     C12852   7.455   8.867   1.548 -0.3191 -0.9084 -0.2619
   98MOL0     C12853   7.322   8.901   1.568  0.3788  0.3178  0.1712
   98MOL0     N12854   6.961   8.857   2.116  0.2158  0.5044 -1.1478
   98MOL0     N12855   7.065   8.820   2.174  0.5094 -0.7382 -0.2842
   98MOL0     C12856   7.938   9.295   1.650 -0.1099  0.5310  0.0725
   98MOL0     C12857   7.967   9.404   1.566 -0.3855  0.8138 -0.0140
   98MOL0     C12858   8.156   9.822   1.462 -0.2182  0.5658 -0.8230
   98MOL0     C12859   8.138   9.960   1.483 -0.0741  0.8579  0.5198
   98MOL0     C12860   8.198  10.053   1.395 -0.2107 -0.6503  0.2587
   98MOL0     C12861   8.250  10.016   1.271 -0.4141  0.0158 -1.1114
   98MOL0     O12862   8.300  10.097   1.172  1.4799  0.6344 -0.5888
   98MOL0     C12863   8.200  10.163   1.101 -1.0519  0.8919  0.1304
   98MOL0     C12864   8.255  10.277   1.012 -0.1184  0.4489 -0.1312
   98MOL0     C12865   8.305  10.231   0.880 -0.6065  0.0701  0.7722
   98MOL0     C12866   8.369  10.320   0.781 -0.0304  0.3823  0.0906
   98MOL0     C12867   8.264  10.401   0.725  0.1746 -0.2041  1.5520
   98MOL0     C12868   8.178  10.472   0.675 -0.2656 -0.8095  0.0676
   98MOL0     C12869   8.253   9.875   1.245  0.2949 -0.9978 -0.2173
   98MOL0     C12870   8.223   9.783   1.347  0.2330 -0.1682  0.2570
   98MOL0     H12871   8.233   9.533   1.731 -1.2647  2.3656 -0.0265
   98MOL0     H12872   8.165   9.339   1.897  1.2038 -2.1430 -1.8688
   98MOL0     H12873   7.876   9.304   2.008  2.5014  1.9593  1.7421
   98MOL0     H12874   8.032   9.238   2.051  1.4269  0.9148 -1.0370
   98MOL0     H12875   7.912   9.055   2.147  1.9723  1.5784 -0.8079
   98MOL0     H12876   7.938   9.006   1.982  0.8115  0.6462 -0.8568
   98MOL0     H12877   7.691   9.143   1.963  0.2842  1.4281  2.3338
   98MOL0     H12878   7.678   9.093   2.113 -0.7585  2.3182 -1.3840
   98MOL0     H12879   7.751   8.902   1.895 -0.3689  2.3298 -0.4723
   98MOL0     H12880   7.729   8.851   2.063  0.5440  0.5459 -0.5652
   98MOL0     H12881   7.504   8.955   1.880  0.7296 -1.2063 -1.0577
   98MOL0     H12882   7.489   8.938   2.058 -0.8827  0.0841 -0.5358
   98MOL0     H12883   7.558   8.710   2.055  2.0931 -1.7913 -2.0303
   98MOL0     H12884   7.563   8.697   1.886  0.9919 -3.5118  1.9036
   98MOL0     H12885   7.304   8.812   1.917 -1.4319 -0.0918  1.8601
   98MOL0     H12886   7.324   8.661   1.895 -0.3055  3.2565 -1.7922
   98MOL0     H12887   7.335   8.782   2.174 -1.6584  0.3868 -1.1785
   98MOL0     H12888   7.308   8.611   2.140 -1.0367 -1.6874 -3.0749
   98MOL0     H12889   7.072   8.616   1.924 -0.0032  0.8308 -0.2940
   98MOL0     H12890   6.756   8.753   1.924 -0.1049 -0.1520 -0.1226
   98MOL0     H12891   6.883   8.752   1.798 -0.5799  1.9557  0.3562
   98MOL0     H12892   6.776   8.993   1.905 -3.5780 -1.5113  0.0302
   98MOL0     H12893   6.772   8.924   1.743 -0.8970 -2.2797  0.2471
   98MOL0     H12894   6.927   9.116   1.777 -1.5102 -1.3059 -3.2018
   98MOL0     H12895   7.028   9.027   1.883  1.3179 -0.6790 -1.7028
   98MOL0     H12896   7.001   8.974   1.594 -2.4872 -0.7773  0.2078
   98MOL0     H12897   7.074   8.862   1.704  0.7054  0.4954  0.9703
   98MOL0     H12898   7.357   9.191   1.742  0.6697  0.4153  0.2677
   98MOL0     H12899   7.606   9.151   1.660  1.8155 -1.5748  0.7141
   98MOL0     H12900   7.879   9.140   1.391 -0.2257  0.0323 -0.3446
   98MOL0     H12901   8.108   9.124   1.280  3.9905  0.3065  1.0933
   98MOL0     H12902   8.410   8.849   1.467  2.2747 -0.1235 -0.3421
   98MOL0     H12903   8.402   9.020   1.483 -0.4621 -1.9565  1.1142
   98MOL0     H12904   8.551   8.852   1.270  0.0011  0.6935 -2.0180
   98MOL0     H12905   8.634   8.982   1.363 -2.2607  1.0726  2.9212
   98MOL0     H12906   8.431   9.005   1.142 -0.7447  1.5264 -0.0611
   98MOL0     H12907   8.601   9.046   1.126  0.3615 -0.4706  0.5470
   98MOL0     H12908   8.386   9.221   1.243  1.0322  2.5072 -0.2363
   98MOL0     H12909   8.519   9.201   1.348  0.3362 -4.1185  0.8247
   98MOL0     H12910   8.483   9.262   1.045 -0.7139 -1.4676  0.7615
   98MOL0     H12911   8.653   9.256   1.117  1.7582  1.5845  3.2370
   98MOL0     H12912   8.569   9.445   1.261  1.8027 -1.0444 -0.5636
   98MOL0     H12913   8.434   9.462   1.143  0.1787  1.6539 -2.1740
   98MOL0     H12914   8.718   9.471   1.061  0.2718 -0.0623  0.8332
   98MOL0     H12915   8.563   9.495   0.967 -3.5039  1.9418  0.7360
   98MOL0     H12916   8.654   9.678   1.182  1.8306 -0.4552 -1.7794
   98MOL0     H12917   8.493   9.684   1.115 -0.7443  0.1568  0.7256
   98MOL0     H12918   8.215   8.816   1.566 -0.3683 -1.0526 -1.6075
   98MOL0     H12919   7.992   8.851   1.667 -0.3476  0.0581 -0.0422
   98MOL0     H12920   7.480   8.783   1.484 -0.0709  1.0375 -2.8715
   98MOL0     H12921   7.246   8.828   1.542  2.7513 -1.7086 -1.5771
   98MOL0     H12922   7.855   9.235   1.613 -1.5976  2.7842 -0.4940
   98MOL0     H12923   7.908   9.409   1.476  0.3371 -1.4103 -0.6742
   98MOL0     H12924   8.092   9.993   1.575  0.8293  1.0095  0.9254
   98MOL0     H12925   8.197  10.153   1.436 -0.3928 -1.8192  3.3739
   98MOL0     H12926   8.125  10.203   1.170 -0.2379  0.5697  1.2256
   98MOL0     H12927   8.142  10.089   1.045 -0.4870  0.7945 -0.3348
   98MOL0     H12928   8.169  10.344   1.004  0.5101  1.2701 -0.0479
   98MOL0     H12929   8.332  10.339   1.058  0.2880  0.3924 -0.7280
   98MOL0     H12930   8.218  10.179   0.838  0.3898 -3.2155  2.4291
   98MOL0     H12931   8.380  10.153   0.899  0.6154  1.2250  0.8531
   98MOL0     H12932   8.446  10.377   0.833  2.2933 -2.4500 -0.0108
   98MOL0     H12933   8.415  10.267   0.697 -0.4638  0.3973 -0.1596
   98MOL0     H12934   8.111  10.534   0.618 -0.5681 -0.6683  0.5739
   98MOL0     H12935   8.291   9.835   1.152  1.1941 -2.4038  0.7131
   98MOL0     H12936   8.240   9.682   1.310  0.8528 -0.3326  0.9470
   99MOL0     O12937   5.443   7.655   1.968  0.1786 -0.5069 -0.5094
   99MOL0     C12938   5.435   7.675   1.847 -1.1977 -0.1530  0.2344
   99MOL0     O12939   5.525   7.755   1.776 -0.6107  0.0212  0.2472
   99MOL0     C12940   5.622   7.811   1.852  0.1112 -0.5638 -0.0627
   99MOL0     C12941   5.752   7.769   1.827  0.5308 -0.2968  1.2271
   99MOL0     C12942   5.870   7.812   1.887 -0.0799 -0.1156  0.8881
   99MOL0     C12943   5.854   7.892   2.006  0.2170 -0.4471  0.1196
   99MOL0     O12944   5.974   7.930   2.070 -0.5866 -0.2021 -0.1755
   99MOL0     C12945   5.968   8.038   2.161 -0.9792 -0.0197  0.5216
   99MOL0     C12946   6.101   8.094   2.197 -0.6827  0.6046 -0.0072
   99MOL0     C12947   6.222   7.991   2.173 -0.5420  0.6634  1.0179
   99MOL0     C12948   6.350   8.062   2.211  0.4691  0.0058  0.6328
   99MOL0     C12949   6.462   7.959   2.210 -0.3197  1.0614  0.3976
   99MOL0     C12950   6.595   8.030   2.186 -1.4469 -0.4317  0.2407
   99MOL0     C12951   6.710   7.935   2.196  0.8749  0.2693 -0.3926
   99MOL0     C12952   6.736   7.852   2.066 -0.3313 -0.5964 -0.0348
   99MOL0     N12953   6.817   7.932   1.966  0.1596  0.2145 -0.9418
   99MOL0     C12954   6.951   7.948   1.969  0.1946 -0.4579  0.3483
   99MOL0     C12955   6.973   8.018   1.857 -0.5289 -0.5238  1.5266
   99MOL0     C12956   7.113   8.049   1.808 -0.8750  0.0568 -0.8927
   99MOL0     C12957   7.175   7.937   1.723  0.3274 -1.0568  0.0131
   99MOL0     C12958   7.197   7.985   1.573  0.1648 -0.6500 -0.5801
   99MOL0     C12959   7.332   8.064   1.543  0.2238 -0.0526  0.3722
   99MOL0     O12960   7.447   7.977   1.566  0.2827  0.1601  0.4736
   99MOL0     C12961   7.551   7.980   1.480 -0.1057 -0.7114  0.1570
   99MOL0     C12962   7.586   8.095   1.411  0.0858  0.0310 -0.0732
   99MOL0     C12963   7.707   8.105   1.333 -0.0263 -0.0572 -1.3062
   99MOL0     C12964   7.778   7.978   1.312  0.5536 -0.6037 -0.0352
   99MOL0     C12965   7.910   7.975   1.234  0.0133  0.2269 -0.5708
   99MOL0     O12966   7.930   8.081   1.149 -0.2754  0.5070  0.2041
   99MOL0     C12967   8.037   8.088   1.062  0.2454  0.8993 -0.7690
   99MOL0     C12968   8.043   8.208   1.004 -0.2548  0.1447 -0.2018
   99MOL0     C12969   8.134   8.232   0.898  0.1322 -0.1922  0.2968
   99MOL0     C12970   8.210   8.136   0.847  0.5200  0.3285 -0.4659
   99MOL0     O12971   8.308   8.163   0.745  0.8231  0.1148 -0.1956
   99MOL0     C12972   8.258   8.263   0.651  0.5335 -0.2813 -0.5572
   99MOL0     C12973   8.308   8.246   0.514 -0.0150 -0.3516 -0.1183
   99MOL0     C12974   8.240   8.122   0.441  0.2978  0.0668  0.5794
   99MOL0     C12975   8.282   8.127   0.297 -1.5958  0.1835  0.0955
   99MOL0     C12976   8.232   8.012   0.209 -0.4093  0.0273 -1.1155
   99MOL0     C12977   8.299   8.019   0.066 -0.5888  0.5909 -0.2969
   99MOL0     C12978   8.267   8.137  -0.030 -0.0970  0.1697  0.8746
   99MOL0     C12979   8.349   8.126  -0.164  1.0778 -0.0513  0.2136
   99MOL0    Cl12980   8.301   8.277  -0.255 -0.2223  0.4614  0.3076
   99MOL0     C12981   8.212   8.016   0.921  0.1526  0.1153 -0.1695
   99MOL0     C12982   8.127   7.990   1.033  0.0519  0.0549  0.1328
   99MOL0     O12983   7.977   7.870   1.255  0.2075 -0.6313 -0.2887
   99MOL0     C12984   7.735   7.864   1.375  1.0136  0.6944  0.0607
   99MOL0     C12985   7.626   7.870   1.464  0.2716  0.2303  0.1469
   99MOL0     N12986   6.857   8.042   1.790 -0.0049 -1.5392  0.5424
   99MOL0     N12987   6.760   7.991   1.856 -0.3498 -0.8753  0.2637
   99MOL0     C12988   5.724   7.935   2.039  1.0289 -0.0430 -1.0297
   99MOL0     C12989   5.611   7.899   1.957  0.2580 -0.7249 -0.4629
   99MOL0     C12990   5.343   7.603   1.761  0.1573 -0.9940  0.9773
   99MOL0     C12991   5.365   7.584   1.628 -0.1269 -0.4573  0.8638
   99MOL0     C12992   5.263   7.540   1.537 -0.1157  0.0555 -0.3299
   99MOL0     C12993   5.140   7.522   1.580  0.3077  0.3945  0.3925
   99MOL0     O12994   5.036   7.485   1.499  0.3942  0.0378  0.0376
   99MOL0     C12995   4.991   7.349   1.523 -0.6084 -1.2111  0.3157
   99MOL0     C12996   4.946   7.291   1.381  0.2663 -0.3712  0.3235
   99MOL0     C12997   4.818   7.361   1.318  0.8215  0.6028 -1.1079
   99MOL0     C12998   4.825   7.510   1.285  0.5466  0.0328  0.2892
   99MOL0     C12999   4.741   7.531   1.165  0.0398  0.2617  0.2152
   99MOL0     C13000   4.658   7.533   1.071 -0.7099  0.6732 -0.0894
   99MOL0     C13001   5.114   7.526   1.721  0.8571  0.0578  0.0901
   99MOL0     C13002   5.210   7.569   1.812 -1.0562  0.6199 -0.0725
   99MOL0     H13003   5.772   7.692   1.754  5.2927  1.3526  0.5023
   99MOL0     H13004   5.964   7.784   1.842 -0.6791  0.2440 -0.6333
   99MOL0     H13005   5.942   7.983   2.251 -1.9210 -1.2005 -0.4408
   99MOL0     H13006   5.902   8.117   2.122  1.0154  0.1826 -2.9153
   99MOL0     H13007   6.106   8.097   2.306  2.8782  1.1609 -0.0716
   99MOL0     H13008   6.108   8.192   2.150 -0.9305  0.4036 -0.4695
   99MOL0     H13009   6.227   7.926   2.085 -1.3380 -2.3005  3.0081
   99MOL0     H13010   6.200   7.917   2.250  1.5979 -1.6261 -0.4354
   99MOL0     H13011   6.368   8.126   2.124  1.1046 -1.7454 -0.5863
   99MOL0     H13012   6.337   8.105   2.311 -0.9285 -2.6027  1.6743
   99MOL0     H13013   6.435   7.904   2.119  1.1178 -0.8953  1.1029
   99MOL0     H13014   6.449   7.885   2.289 -2.8596 -0.5911 -1.4073
   99MOL0     H13015   6.607   8.117   2.250 -0.8684  1.4047 -2.1923
   99MOL0     H13016   6.592   8.087   2.092  0.1808  2.2173  1.6997
   99MOL0     H13017   6.799   7.996   2.215  0.6040  0.3175  0.7723
   99MOL0     H13018   6.691   7.866   2.278 -0.3150 -1.0474 -1.7071
   99MOL0     H13019   6.640   7.827   2.019  0.1162 -2.1812 -0.1316
   99MOL0     H13020   6.794   7.762   2.082  4.4739  1.5545 -3.1627
   99MOL0     H13021   7.031   7.906   2.028  0.5656  3.1591  2.7284
   99MOL0     H13022   7.172   8.067   1.898  0.2813 -2.3314 -1.0867
   99MOL0     H13023   7.132   8.135   1.743  0.4872 -0.0327 -0.6475
   99MOL0     H13024   7.109   7.851   1.721 -2.5751  1.0171  0.8082
   99MOL0     H13025   7.277   7.910   1.752  1.5426  3.4528  0.7501
   99MOL0     H13026   7.191   7.898   1.507  1.2761 -2.0486  1.0635
   99MOL0     H13027   7.125   8.067   1.566  3.4646  2.9388  2.5927
   99MOL0     H13028   7.357   8.146   1.612 -0.0534 -0.3769  0.8651
   99MOL0     H13029   7.323   8.106   1.443 -0.3385 -1.3849 -0.1585
   99MOL0     H13030   7.534   8.189   1.423 -1.8943 -0.8241 -1.4180
   99MOL0     H13031   7.728   8.200   1.285 -1.2002  0.0711 -1.5895
   99MOL0     H13032   7.969   8.285   1.026  0.6898  0.3564  2.7506
   99MOL0     H13033   8.121   8.328   0.849  2.6059  0.6591  1.1378
   99MOL0     H13034   8.274   8.363   0.692 -3.5779 -0.8221  3.0742
   99MOL0     H13035   8.150   8.260   0.638  0.2272  0.5872  1.4247
   99MOL0     H13036   8.417   8.237   0.519  0.2485  2.3894  1.7933
   99MOL0     H13037   8.298   8.342   0.462 -0.8373 -1.4524 -2.1216
   99MOL0     H13038   8.130   8.129   0.439  0.3923  3.2749 -2.6667
   99MOL0     H13039   8.274   8.030   0.489  1.9030  0.1475 -0.3548
   99MOL0     H13040   8.250   8.220   0.250  4.8875  0.8000 -4.4087
   99MOL0     H13041   8.390   8.137   0.283 -1.7757 -1.1820 -2.9259
   99MOL0     H13042   8.122   8.017   0.206 -0.3655  0.7526 -1.8409
   99MOL0     H13043   8.256   7.916   0.255 -2.4928  0.4696  1.1217
   99MOL0     H13044   8.254   7.935   0.012 -0.2966 -2.0159  3.2143
   99MOL0     H13045   8.406   8.005   0.082 -0.9453 -1.4823  0.6079
   99MOL0     H13046   8.158   8.136  -0.036 -0.1793 -2.0233  1.7570
   99MOL0     H13047   8.309   8.213   0.037  1.0573 -1.0150  1.5586
   99MOL0     H13048   8.312   8.040  -0.221  2.4662 -0.4740 -0.0937
   99MOL0     H13049   8.457   8.129  -0.145  0.7582 -1.3512  2.7111
   99MOL0     H13050   8.266   7.926   0.893 -1.6532 -1.1094  0.1192
   99MOL0     H13051   8.118   7.897   1.088 -0.1586  0.5908  1.0239
   99MOL0     H13052   7.795   7.777   1.353  1.1019  1.2104 -1.8563
   99MOL0     H13053   7.577   7.787   1.513 -0.7468  2.1995  2.7231
   99MOL0     H13054   5.697   7.996   2.125  1.5013 -0.1570 -0.7997
   99MOL0     H13055   5.506   7.922   1.974 -0.2416 -0.4958 -3.3307
   99MOL0     H13056   5.465   7.610   1.593 -1.1780  1.6195 -0.7924
   99MOL0     H13057   5.288   7.509   1.436  1.6012  1.3348 -0.3319
   99MOL0     H13058   4.910   7.342   1.598 -0.7216 -2.1487  0.1223
   99MOL0     H13059   5.073   7.283   1.554  2.2677  2.0507  0.1384
   99MOL0     H13060   5.025   7.285   1.305 -2.9906 -0.7900 -3.3167
   99MOL0     H13061   4.906   7.190   1.394 -1.9216 -0.0530 -2.9358
   99MOL0     H13062   4.727   7.347   1.376 -1.2067  3.1049 -3.4217
   99MOL0     H13063   4.811   7.292   1.233 -2.5525 -1.1777  0.4222
   99MOL0     H13064   4.780   7.554   1.374 -2.6119  1.6299 -1.8939
   99MOL0     H13065   4.920   7.563   1.272  0.6720 -0.4319 -0.8600
   99MOL0     H13066   4.600   7.540   0.981 -2.8719 -0.0141  1.1654
   99MOL0     H13067   5.015   7.492   1.751  1.1583  1.3097  2.7816
   99MOL0     H13068   5.171   7.591   1.910  2.2908  0.3923  1.4432
  100MOL0     O13069   8.508   5.622   7.399 -0.7112 -0.2303 -0.0333
  100MOL0     C13070   8.412   5.547   7.392  0.1125 -0.6399  0.2896
  100MOL0     O13071   8.333   5.522   7.277  0.3651  0.1088  0.1277
  100MOL0     C13072   8.353   5.605   7.175  0.4038 -0.1991 -0.0915
  100MOL0     C13073   8.277   5.728   7.165 -0.8683  0.8635 -0.6419
  100MOL0     C13074   8.307   5.818   7.063 -1.0697  0.4791 -0.6721
  100MOL0     C13075   8.419   5.793   6.985  0.3828 -0.6811 -0.1028
  100MOL0     O13076   8.434   5.881   6.888 -1.1892 -0.4207  0.4056
  100MOL0     C13077   8.563   5.903   6.821  0.4795 -0.8435  0.0502
  100MOL0     C13078   8.579   6.033   6.744  1.8219 -0.0760  0.3665
  100MOL0     C13079   8.731   6.051   6.702  0.5767 -0.1064  0.3655
  100MOL0     C13080   8.733   6.186   6.622  0.2850  0.4594  0.0446
  100MOL0     C13081   8.873   6.220   6.580  0.7053 -0.8378  0.5573
  100MOL0     C13082   8.931   6.150   6.456  0.0944  0.6417 -1.1087
  100MOL0     C13083   9.044   6.224   6.389 -0.5942  0.5608 -0.8374
  100MOL0     C13084   9.101   6.156   6.266  0.2643  0.1757  0.5200
  100MOL0     N13085   9.193   6.230   6.182  0.6565  0.3877 -1.1199
  100MOL0     C13086   9.327   6.242   6.205  0.3759 -0.2768 -0.1515
  100MOL0     C13087   9.372   6.320   6.102 -0.9425  0.6140  0.1229
  100MOL0     C13088   9.522   6.332   6.084 -0.3345 -0.3156 -0.3410
  100MOL0     C13089   9.550   6.440   5.982 -0.7136  1.5416 -0.0515
  100MOL0     C13090   9.703   6.467   5.957  0.4008 -0.6401 -0.6810
  100MOL0     C13091   9.771   6.347   5.889 -1.4864 -0.9761 -1.2491
  100MOL0     O13092   9.733   6.365   5.757 -1.0348  0.0356 -0.2587
  100MOL0     C13093   9.818   6.321   5.670 -1.7489  0.5073  0.6013
  100MOL0     C13094   9.847   6.395   5.552  0.5190 -0.2119 -0.1642
  100MOL0     C13095   9.940   6.358   5.460  0.4330 -0.2928  0.4926
  100MOL0     C13096  10.009   6.233   5.476  0.4797  0.3100 -0.0190
  100MOL0     C13097  10.110   6.191   5.378 -0.7423 -0.3637 -1.1404
  100MOL0     O13098  10.207   6.115   5.426 -0.9970 -0.2421  0.0531
  100MOL0     C13099  10.305   6.060   5.345 -0.8582 -0.0889 -0.1356
  100MOL0     C13100  10.268   5.984   5.231  0.8434 -0.2388 -0.2564
  100MOL0     C13101  10.364   5.914   5.156  0.0021  0.1987 -0.4412
  100MOL0     C13102  10.499   5.918   5.192  0.1798  0.0933  0.2764
  100MOL0     O13103  10.587   5.846   5.114  0.2181  0.4612 -0.6407
  100MOL0     C13104  10.731   5.841   5.148 -0.8710  0.4194  0.2367
  100MOL0     C13105  10.805   5.954   5.068  0.7285  0.4960  0.0297
  100MOL0     C13106  10.955   5.935   5.050 -0.3136 -0.7868  0.5752
  100MOL0     C13107  11.034   5.931   5.181  0.5025 -0.1098  0.7896
  100MOL0     C13108  11.171   5.864   5.177 -1.1895 -0.4856  0.0869
  100MOL0     C13109  11.276   5.940   5.089  0.7458 -0.1884 -0.0380
  100MOL0     C13110  11.302   6.093   5.125  0.5384  0.2797  0.5371
  100MOL0     C13111  11.419   6.146   5.043 -0.2724  0.3558 -0.4423
  100MOL0    Cl13112  11.568   6.079   5.117  0.0901  0.1963 -0.0726
  100MOL0     C13113  10.542   6.003   5.293  0.0448 -0.5075 -0.2074
  100MOL0     C13114  10.443   6.064   5.377  0.0879 -0.5712  0.1219
  100MOL0     O13115  10.111   6.246   5.264  0.1533 -0.5271  0.8732
  100MOL0     C13116   9.971   6.154   5.594 -0.6320 -0.9620  0.9803
  100MOL0     C13117   9.880   6.201   5.686  0.5452 -1.2991  0.4903
  100MOL0     N13118   9.272   6.347   6.018 -0.0992  0.3747  0.3589
  100MOL0     N13119   9.164   6.289   6.063 -1.3631  0.1733 -0.1210
  100MOL0     C13120   8.504   5.682   7.002  0.3174  0.0597 -0.3505
  100MOL0     C13121   8.457   5.585   7.089 -0.0616  0.6639  0.1758
  100MOL0     C13122   8.369   5.481   7.516  0.6891  0.7239  1.4986
  100MOL0     C13123   8.433   5.470   7.638 -0.5753 -0.9773 -0.2743
  100MOL0     C13124   8.370   5.424   7.753  0.7212  0.2095  0.1475
  100MOL0     C13125   8.238   5.369   7.754  0.3567  0.3604  0.1428
  100MOL0     O13126   8.176   5.332   7.875 -0.2370  0.1680 -0.3553
  100MOL0     C13127   8.041   5.279   7.878 -0.9259 -0.1197 -0.4521
  100MOL0     C13128   7.989   5.286   8.020 -0.7399 -0.0021  0.6444
  100MOL0     C13129   7.843   5.231   8.029  0.9277  0.7401 -0.2988
  100MOL0     C13130   7.779   5.266   8.169  0.7598 -0.9141  0.0167
  100MOL0     C13131   7.829   5.178   8.277 -0.1465  0.6728 -0.0521
  100MOL0     C13132   7.878   5.103   8.353 -0.7441  0.1004  0.7193
  100MOL0     C13133   8.177   5.362   7.623  0.3823 -0.1127 -0.0993
  100MOL0     C13134   8.237   5.418   7.511  0.2005 -0.1210  0.2914
  100MOL0     H13135   8.188   5.738   7.227 -0.9031  2.2249 -0.8777
  100MOL0     H13136   8.254   5.909   7.036 -0.5623  1.7393  2.2895
  100MOL0     H13137   8.565   5.824   6.745 -3.4103 -0.7534 -0.3583
  100MOL0     H13138   8.654   5.909   6.881 -0.8649  1.3916  2.0407
  100MOL0     H13139   8.553   6.110   6.817 -2.1595  0.5369 -1.4450
  100MOL0     H13140   8.518   6.039   6.653  2.4420 -0.8856 -0.1189
  100MOL0     H13141   8.773   5.974   6.637 -0.2392 -1.6340  1.5811
  100MOL0     H13142   8.800   6.074   6.784  3.3192 -2.1042 -1.2129
  100MOL0     H13143   8.672   6.177   6.532  0.6304 -4.5705 -0.0055
  100MOL0     H13144   8.686   6.269   6.675  0.2496 -1.1141  2.6638
  100MOL0     H13145   8.943   6.219   6.664  0.5315  0.7451  0.7534
  100MOL0     H13146   8.876   6.326   6.554 -1.7857 -0.6375  0.8807
  100MOL0     H13147   8.861   6.136   6.373  1.8522 -1.1518 -2.3756
  100MOL0     H13148   8.959   6.050   6.490 -0.1692  2.2157  4.9537
  100MOL0     H13149   8.992   6.314   6.355 -1.8296  0.0666 -0.3053
  100MOL0     H13150   9.118   6.253   6.465 -1.8249 -2.3506  1.6754
  100MOL0     H13151   9.021   6.130   6.195 -0.5746 -0.0012  1.5135
  100MOL0     H13152   9.147   6.062   6.297 -0.0126 -0.8676 -1.9414
  100MOL0     H13153   9.384   6.216   6.293  0.8029  1.0694  0.0048
  100MOL0     H13154   9.559   6.235   6.052 -2.7241 -1.7096  0.8237
  100MOL0     H13155   9.564   6.355   6.182  0.6009 -0.8777 -0.6051
  100MOL0     H13156   9.502   6.528   6.026 -0.8705  0.4866  2.0338
  100MOL0     H13157   9.500   6.435   5.886 -1.6359  3.4916  0.2701
  100MOL0     H13158   9.712   6.563   5.905 -4.0377  0.9250  0.9429
  100MOL0     H13159   9.759   6.474   6.051  0.5718  0.9170 -0.8781
  100MOL0     H13160   9.750   6.250   5.933 -0.2086  0.0653  1.9622
  100MOL0     H13161   9.877   6.354   5.913 -1.5848 -3.3805  0.2232
  100MOL0     H13162   9.804   6.493   5.536  0.3872 -0.2679 -0.1596
  100MOL0     H13163   9.955   6.425   5.376 -2.7279  0.0431  0.0640
  100MOL0     H13164  10.171   5.996   5.185 -1.6312  2.3257  4.8211
  100MOL0     H13165  10.331   5.859   5.069 -2.6102  0.9849 -0.0309
  100MOL0     H13166  10.776   5.745   5.120 -0.5419 -0.5365  3.5717
  100MOL0     H13167  10.757   5.853   5.253  1.4352  1.3512 -0.3721
  100MOL0     H13168  10.795   6.044   5.128 -1.3734  0.7774 -0.6884
  100MOL0     H13169  10.751   5.986   4.978 -0.7170  2.5165  1.5445
  100MOL0     H13170  10.993   6.024   5.000  1.2453 -0.9001  1.5033
  100MOL0     H13171  10.982   5.854   4.982 -0.0640  1.1395 -1.7751
  100MOL0     H13172  11.047   6.032   5.221 -3.3697  0.8002  0.1740
  100MOL0     H13173  10.987   5.872   5.261  5.5494 -2.5070  2.3918
  100MOL0     H13174  11.164   5.757   5.156  0.0147 -0.7697  1.0123
  100MOL0     H13175  11.209   5.866   5.279 -0.2931  0.9157 -0.2404
  100MOL0     H13176  11.247   5.926   4.984 -0.0663  0.4421  0.0980
  100MOL0     H13177  11.373   5.890   5.104 -1.1089 -4.6237 -1.1149
  100MOL0     H13178  11.215   6.148   5.089  0.7300  1.5084  1.8285
  100MOL0     H13179  11.323   6.099   5.233  3.3988 -0.1589  0.0880
  100MOL0     H13180  11.418   6.255   5.046 -0.2983  0.3296  0.6625
  100MOL0     H13181  11.414   6.117   4.937  1.4537 -3.0647  0.2928
  100MOL0     H13182  10.642   6.044   5.296 -0.0915 -0.2409  1.7368
  100MOL0     H13183  10.479   6.128   5.458 -0.5322 -1.5797  1.2245
  100MOL0     H13184  10.037   6.072   5.617  0.5408 -0.4492 -0.3492
  100MOL0     H13185   9.866   6.140   5.774 -0.8014 -3.5250 -1.1460
  100MOL0     H13186   8.590   5.672   6.937 -0.1710  3.1387 -1.6373
  100MOL0     H13187   8.519   5.496   7.079 -0.6575 -0.0035  1.9522
  100MOL0     H13188   8.535   5.506   7.650 -0.9569 -0.5690  2.2010
  100MOL0     H13189   8.428   5.417   7.845 -1.3661  0.3170  1.5629
  100MOL0     H13190   8.041   5.178   7.834 -2.5006 -1.1636  1.7504
  100MOL0     H13191   7.977   5.340   7.814 -2.1118 -0.5227  0.3119
  100MOL0     H13192   8.055   5.242   8.096 -0.5522  1.9504  1.6828
  100MOL0     H13193   7.983   5.391   8.051 -2.2774 -0.4396  1.9586
  100MOL0     H13194   7.844   5.122   8.018 -0.5379  0.6754 -0.0721
  100MOL0     H13195   7.782   5.270   7.946  1.9074  1.6727 -0.5996
  100MOL0     H13196   7.790   5.369   8.206  0.7800 -1.6109  2.0946
  100MOL0     H13197   7.671   5.253   8.158  0.7258 -0.5224 -0.1240
  100MOL0     H13198   7.910   5.022   8.415 -0.7364  0.0756  0.6828
  100MOL0     H13199   8.076   5.328   7.603 -0.4566  3.8672 -4.3434
  100MOL0     H13200   8.165   5.414   7.431  1.6394 -1.7524 -1.0117
  101MOL0     O13201   6.259   8.814   8.461  0.0705 -0.4713 -0.7976
  101MOL0     C13202   6.257   8.923   8.396 -0.1479  0.1421 -0.0449
  101MOL0     O13203   6.273   9.039   8.455 -0.1868 -0.7829 -0.6355
  101MOL0     C13204   6.328   9.054   8.583  0.2766 -0.2547 -0.5623
  101MOL0     C13205   6.436   9.140   8.590  0.2022  0.5398  0.0979
  101MOL0     C13206   6.488   9.172   8.714  0.1294  0.1331 -0.0377
  101MOL0     C13207   6.429   9.122   8.835 -0.6640 -0.5295  0.6952
  101MOL0     O13208   6.493   9.150   8.953 -0.4456  0.6983  0.4653
  101MOL0     C13209   6.479   9.055   9.050  0.5371  0.1006 -0.4852
  101MOL0     C13210   6.598   9.079   9.146 -0.5381 -0.0823  0.3237
  101MOL0     C13211   6.584   9.002   9.278 -0.2735 -0.9047  0.0501
  101MOL0     C13212   6.708   9.031   9.356  0.1534  0.4635 -0.9524
  101MOL0     C13213   6.709   8.929   9.482 -0.4151 -0.1328 -0.7615
  101MOL0     C13214   6.839   8.920   9.558  0.3237 -0.4990  0.0503
  101MOL0     C13215   6.952   8.842   9.480 -0.8645 -0.2117  0.4268
  101MOL0     C13216   7.060   8.793   9.573 -0.0825  0.9435  0.4559
  101MOL0     N13217   7.174   8.728   9.504 -0.4201 -0.0176  0.2436
  101MOL0     C13218   7.274   8.799   9.436 -0.1087  0.2777  0.2591
  101MOL0     C13219   7.365   8.707   9.391 -0.1915 -0.5490  0.2825
  101MOL0     C13220   7.506   8.742   9.340  0.6325  1.4498  0.6619
  101MOL0     C13221   7.596   8.752   9.456  0.1674  0.0110 -0.5535
  101MOL0     C13222   7.632   8.611   9.498  1.1323 -0.0385 -0.3630
  101MOL0     C13223   7.736   8.603   9.596 -0.5015 -0.1668 -0.9038
  101MOL0     O13224   7.719   8.677   9.722 -0.2917  0.1234 -0.0788
  101MOL0     C13225   7.598   8.669   9.782  1.5238 -0.3693  0.1223
  101MOL0     C13226   7.537   8.776   9.854  0.1017  0.4687  0.0439
  101MOL0     C13227   7.398   8.781   9.889 -0.6655  0.0709 -0.0790
  101MOL0     C13228   7.327   8.660   9.882  1.9195 -0.7505  0.2365
  101MOL0     C13229   7.179   8.660   9.929 -0.0191 -0.6670 -0.2984
  101MOL0     O13230   7.120   8.540   9.917  0.3877 -0.4022  0.0193
  101MOL0     C13231   6.983   8.540   9.927  1.0235 -1.2617  1.1827
  101MOL0     C13232   6.897   8.636   9.865 -0.6729 -0.0180 -0.7873
  101MOL0     C13233   6.764   8.616   9.858 -0.2357 -0.2762  0.3978
  101MOL0     C13234   6.702   8.503   9.896  0.3809  1.2793  0.2528
  101MOL0     O13235   6.573   8.463   9.868 -0.2849  0.1076 -0.0238
  101MOL0     C13236   6.486   8.547   9.801  0.4273 -0.6875 -0.7518
  101MOL0     C13237   6.382   8.459   9.743 -0.5012  0.1562 -0.0540
  101MOL0     C13238   6.264   8.548   9.709  0.6133  0.3900  0.2025
  101MOL0     C13239   6.186   8.606   9.832 -0.2683  0.1790 -0.3109
  101MOL0     C13240   6.059   8.674   9.779  1.2790  0.1986 -0.4915
  101MOL0     C13241   5.954   8.587   9.706 -0.2095 -0.1835  0.4615
  101MOL0     C13242   5.932   8.450   9.776  0.5724  0.6910 -0.0291
  101MOL0     C13243   5.782   8.395   9.755 -0.8912 -0.5985 -0.3072
  101MOL0    Cl13244   5.663   8.509   9.821 -0.3605 -0.1823 -0.3638
  101MOL0     C13245   6.779   8.406   9.959 -0.8766 -0.1044 -0.8882
  101MOL0     C13246   6.917   8.430   9.987 -0.5016 -1.0944  0.1354
  101MOL0     O13247   7.126   8.771   9.964 -1.1129  0.2304  0.1231
  101MOL0     C13248   7.387   8.542   9.834 -0.2992  0.0101 -0.3599
  101MOL0     C13249   7.523   8.551   9.786  0.8607 -0.1535 -0.2853
  101MOL0     N13250   7.308   8.591   9.430 -0.0421  1.0658  0.4581
  101MOL0     N13251   7.213   8.600   9.516 -0.6763  0.9207  0.1229
  101MOL0     C13252   6.306   9.046   8.823 -0.2784 -0.7709 -0.6819
  101MOL0     C13253   6.259   9.012   8.699  0.0132 -0.0505  0.5800
  101MOL0     C13254   6.217   8.920   8.256  0.4169  0.7398 -0.5462
  101MOL0     C13255   6.198   8.802   8.187 -1.4927  0.5216  0.0712
  101MOL0     C13256   6.153   8.802   8.057 -0.6753  1.4280 -0.0520
  101MOL0     C13257   6.113   8.919   8.000  0.7379  0.4745  0.6325
  101MOL0     O13258   6.075   8.939   7.869  1.0223  0.6791  0.1619
  101MOL0     C13259   6.185   8.898   7.779  0.4379  0.5167 -0.2548
  101MOL0     C13260   6.166   8.965   7.646 -0.3680 -0.3186  0.0107
  101MOL0     C13261   6.045   8.901   7.575  0.4435 -1.5914  0.3936
  101MOL0     C13262   5.982   9.005   7.485 -0.4258  0.1781 -0.8690
  101MOL0     C13263   5.890   8.949   7.379 -0.5919  0.4369  1.3708
  101MOL0     C13264   5.833   8.913   7.282  0.1118 -0.0444  0.3614
  101MOL0     C13265   6.137   9.041   8.064 -0.2455  0.2013  0.4949
  101MOL0     C13266   6.189   9.044   8.194  0.3016 -0.7978  0.1863
  101MOL0     H13267   6.476   9.183   8.499 -2.1242  1.9437 -0.3463
  101MOL0     H13268   6.567   9.246   8.705 -1.3586  1.8442  0.4010
  101MOL0     H13269   6.479   8.949   9.024  1.0003 -0.9337  3.1281
  101MOL0     H13270   6.388   9.076   9.107  0.4041  4.9049 -2.0527
  101MOL0     H13271   6.603   9.186   9.165 -1.2916 -0.3612  2.2809
  101MOL0     H13272   6.685   9.035   9.096 -1.6931  0.7449 -2.5946
  101MOL0     H13273   6.569   8.899   9.244 -0.0174 -0.4706 -1.4790
  101MOL0     H13274   6.505   9.048   9.337  1.8604  3.7736 -0.2540
  101MOL0     H13275   6.801   9.034   9.300 -0.9417  3.5794 -2.8416
  101MOL0     H13276   6.702   9.130   9.401  1.8656  0.4040 -0.5381
  101MOL0     H13277   6.666   8.832   9.455  0.0550 -1.2922  2.2694
  101MOL0     H13278   6.638   8.971   9.553  1.3833  1.8903 -0.0519
  101MOL0     H13279   6.829   8.858   9.647 -0.1284  0.0064  0.3523
  101MOL0     H13280   6.885   9.012   9.596  0.2942 -1.4315  2.5480
  101MOL0     H13281   6.909   8.754   9.433 -1.2753  0.3038 -0.1715
  101MOL0     H13282   6.987   8.913   9.405  1.5368 -0.6775  1.0153
  101MOL0     H13283   7.015   8.708   9.625 -2.2021  1.4085 -0.5114
  101MOL0     H13284   7.087   8.881   9.631  0.8407  0.2645  1.0926
  101MOL0     H13285   7.278   8.907   9.428 -1.9943  0.3040 -1.0165
  101MOL0     H13286   7.502   8.835   9.284  1.6278  1.9036  1.3235
  101MOL0     H13287   7.538   8.667   9.267 -0.1765 -0.5695  2.2711
  101MOL0     H13288   7.552   8.812   9.536  1.1164 -0.3940  0.2941
  101MOL0     H13289   7.685   8.799   9.415  2.5395 -4.0187 -0.5506
  101MOL0     H13290   7.548   8.555   9.539  1.5003 -0.1929  0.1997
  101MOL0     H13291   7.664   8.556   9.408 -2.4378  2.2643 -3.3415
  101MOL0     H13292   7.821   8.653   9.547 -1.5106  0.5260 -1.9878
  101MOL0     H13293   7.756   8.497   9.614 -3.1376 -0.7955 -1.3582
  101MOL0     H13294   7.605   8.860   9.870 -0.9293  1.0267  1.6138
  101MOL0     H13295   7.355   8.872   9.930  4.3817  1.2115  3.6701
  101MOL0     H13296   6.933   8.730   9.824  2.0486 -1.1546 -1.2076
  101MOL0     H13297   6.728   8.707   9.811  3.6223 -0.3266 -3.2916
  101MOL0     H13298   6.540   8.589   9.715  2.1566 -2.0605 -0.3911
  101MOL0     H13299   6.447   8.626   9.866  0.4904 -3.2536  2.6560
  101MOL0     H13300   6.350   8.392   9.824 -0.4648 -0.9259 -0.8999
  101MOL0     H13301   6.422   8.419   9.649 -1.2089 -0.0171 -0.2902
  101MOL0     H13302   6.186   8.490   9.658 -0.5086  3.3917 -1.8002
  101MOL0     H13303   6.294   8.618   9.630 -3.7104 -1.1597 -3.2858
  101MOL0     H13304   6.178   8.523   9.903 -0.4556 -1.0835 -1.7408
  101MOL0     H13305   6.241   8.687   9.880 -0.3499 -0.5448  1.0575
  101MOL0     H13306   6.091   8.757   9.714 -0.1255  2.2816  1.3582
  101MOL0     H13307   6.018   8.723   9.867 -0.3552  1.0000 -1.6408
  101MOL0     H13308   5.991   8.588   9.603 -1.1786  1.5690  0.0872
  101MOL0     H13309   5.854   8.628   9.686  0.0295 -0.7877 -2.4366
  101MOL0     H13310   5.995   8.370   9.736 -1.0248 -0.5616 -0.1237
  101MOL0     H13311   5.943   8.452   9.885 -3.0634 -2.9021  0.6158
  101MOL0     H13312   5.766   8.297   9.799 -0.9901 -0.6323 -0.4181
  101MOL0     H13313   5.764   8.377   9.649  3.6441  2.3654 -1.8903
  101MOL0     H13314   6.723   8.319   9.990  1.4547 -0.1704  3.9848
  101MOL0     H13315   6.977   8.346  10.021 -1.9332 -2.6221 -0.9582
  101MOL0     H13316   7.333   8.449   9.825  0.9869 -1.2252  2.9938
  101MOL0     H13317   7.554   8.451   9.756  1.6549  0.3818 -1.2810
  101MOL0     H13318   6.252   9.009   8.909 -5.1956  1.1963 -2.5227
  101MOL0     H13319   6.166   8.955   8.703 -0.9664  1.3356 -1.1277
  101MOL0     H13320   6.229   8.712   8.239  0.1671  0.8057 -0.3869
  101MOL0     H13321   6.133   8.706   8.010  0.1816  1.9861 -1.6146
  101MOL0     H13322   6.168   8.791   7.770  2.8623  0.0982 -0.5891
  101MOL0     H13323   6.280   8.925   7.828  0.9913 -1.8349  0.0708
  101MOL0     H13324   6.144   9.070   7.669  1.0010 -0.7929  4.2865
  101MOL0     H13325   6.258   8.956   7.587 -1.2289 -0.9658 -1.2678
  101MOL0     H13326   5.980   8.854   7.648 -1.3434  0.6069  0.3174
  101MOL0     H13327   6.079   8.826   7.503 -0.5399 -0.3962 -1.3882
  101MOL0     H13328   5.912   9.059   7.550 -1.5266 -2.3624  0.1572
  101MOL0     H13329   6.059   9.068   7.438  0.5282 -1.5703 -1.7327
  101MOL0     H13330   5.765   8.891   7.202 -0.8444  1.2778  0.7831
  101MOL0     H13331   6.122   9.131   8.005  0.8566  1.4563  2.0311
  101MOL0     H13332   6.212   9.137   8.244  2.3629 -0.7469 -0.7435
  102MOL0     O13333   9.854   3.700   2.671  0.3549  0.3717 -0.5438
  102MOL0     C13334   9.945   3.701   2.587 -0.6678 -0.2718 -0.5615
  102MOL0     O13335  10.075   3.680   2.610 -0.3634 -0.1913 -0.0065
  102MOL0     C13336  10.110   3.681   2.746 -0.0960  0.9863 -0.9464
  102MOL0     C13337  10.126   3.567   2.827  0.6761 -0.7642 -0.5357
  102MOL0     C13338  10.175   3.580   2.956 -1.0789 -0.2995 -0.1408
  102MOL0     C13339  10.214   3.708   3.012  0.3635  0.5636 -0.5117
  102MOL0     O13340  10.251   3.716   3.141  0.2660  0.3142 -0.4854
  102MOL0     C13341  10.351   3.816   3.178 -0.1991  0.9032  1.0822
  102MOL0     C13342  10.418   3.772   3.312 -0.1108 -0.1901  0.0544
  102MOL0     C13343  10.497   3.878   3.384 -0.2047 -0.0785  0.5133
  102MOL0     C13344  10.639   3.880   3.327  0.5414  0.3197 -0.3192
  102MOL0     C13345  10.720   3.994   3.389  0.9490 -0.4123 -0.8415
  102MOL0     C13346  10.651   4.128   3.358  0.0819  0.6641 -0.7044
  102MOL0     C13347  10.741   4.243   3.411 -0.4376 -0.1887 -0.1668
  102MOL0     C13348  10.756   4.245   3.563  0.2708  0.2603 -0.0931
  102MOL0     N13349  10.628   4.262   3.646  0.3829  0.1062  1.0125
  102MOL0     C13350  10.533   4.359   3.614 -0.2190  1.1377 -0.4536
  102MOL0     C13351  10.429   4.325   3.689  0.8137 -0.0854  0.1675
  102MOL0     C13352  10.309   4.429   3.697  0.5615  1.1657 -0.5052
  102MOL0     C13353  10.202   4.382   3.801 -0.5397 -0.7330  0.2838
  102MOL0     C13354  10.114   4.270   3.754  0.4583  0.7691  0.6136
  102MOL0     C13355   9.999   4.317   3.663  0.8400 -0.7793 -0.0928
  102MOL0     O13356   9.899   4.385   3.744 -0.3784  0.4137  0.0978
  102MOL0     C13357   9.771   4.345   3.745 -0.2837  0.9411  0.3896
  102MOL0     C13358   9.661   4.419   3.697  0.3249  0.0494  0.9622
  102MOL0     C13359   9.537   4.367   3.692  0.1147 -0.7220 -0.1320
  102MOL0     C13360   9.516   4.231   3.730  0.2658 -0.3358 -0.2235
  102MOL0     C13361   9.390   4.157   3.717  0.2974  1.1738  0.2730
  102MOL0     O13362   9.365   4.049   3.797 -0.2384 -0.3430 -0.8986
  102MOL0     C13363   9.238   3.998   3.791 -0.8674  0.4416 -0.4199
  102MOL0     C13364   9.116   4.046   3.842  0.0671 -0.3763 -0.5496
  102MOL0     C13365   8.991   3.987   3.818 -0.1765  0.2901 -1.1554
  102MOL0     C13366   8.977   3.855   3.756  0.5397 -0.2030 -1.2085
  102MOL0     O13367   8.865   3.773   3.761 -0.3885 -0.1880 -0.2141
  102MOL0     C13368   8.749   3.837   3.811  0.3286 -1.0946  0.6316
  102MOL0     C13369   8.631   3.739   3.804 -0.6060  1.0435 -0.0416
  102MOL0     C13370   8.548   3.760   3.671  0.5469 -0.6835 -0.8645
  102MOL0     C13371   8.621   3.700   3.549 -0.3677 -0.0183  0.2757
  102MOL0     C13372   8.542   3.724   3.420  0.6046  0.6652 -0.1229
  102MOL0     C13373   8.521   3.863   3.372 -0.6675  0.4999 -0.3872
  102MOL0     C13374   8.451   3.870   3.232  0.2176 -0.0012 -0.2077
  102MOL0     C13375   8.289   3.876   3.243 -0.2252 -1.2562 -0.0364
  102MOL0    Cl13376   8.237   4.024   3.323  0.3791  0.2247  0.0260
  102MOL0     C13377   9.096   3.801   3.724 -0.2170 -0.0533  0.7004
  102MOL0     C13378   9.219   3.864   3.740 -0.3486 -0.6317  0.1198
  102MOL0     O13379   9.305   4.208   3.643  0.3908  0.3916 -0.1439
  102MOL0     C13380   9.625   4.158   3.788  0.0731 -1.3309  0.1198
  102MOL0     C13381   9.753   4.215   3.804  0.2206  0.2517  0.6176
  102MOL0     N13382  10.454   4.211   3.753  0.2304  0.1364 -0.8375
  102MOL0     N13383  10.570   4.167   3.725  0.0051  1.1132  0.0127
  102MOL0     C13384  10.198   3.821   2.933 -0.0752 -0.0019 -0.1861
  102MOL0     C13385  10.158   3.803   2.804  0.0875  0.1383 -0.5008
  102MOL0     C13386   9.906   3.759   2.447 -0.4917  0.8001  0.6595
  102MOL0     C13387   9.995   3.803   2.352 -0.4503 -0.4316 -0.3068
  102MOL0     C13388   9.947   3.839   2.226  0.4014 -0.3352  0.2716
  102MOL0     C13389   9.810   3.831   2.194  0.8625  0.0375  0.2477
  102MOL0     O13390   9.753   3.865   2.078  0.3566 -0.2741 -0.0377
  102MOL0     C13391   9.846   3.887   1.962  0.8741 -0.3010 -0.3542
  102MOL0     C13392   9.928   3.770   1.906  0.5169  0.2891 -0.0254
  102MOL0     C13393   9.852   3.632   1.892 -0.4675  0.0272 -1.0477
  102MOL0     C13394   9.743   3.630   1.787  0.5357 -0.3500  0.2480
  102MOL0     C13395   9.802   3.675   1.659 -0.0897 -0.7587 -0.7391
  102MOL0     C13396   9.860   3.710   1.561 -0.0488  0.5240  0.7742
  102MOL0     C13397   9.722   3.778   2.286 -0.1413 -0.8568 -0.1660
  102MOL0     C13398   9.770   3.748   2.413 -0.0835 -0.8912 -0.7387
  102MOL0     H13399  10.097   3.472   2.783  0.8313 -0.7515 -0.6693
  102MOL0     H13400  10.188   3.490   3.014  1.9442  1.0360  1.5030
  102MOL0     H13401  10.303   3.914   3.187  3.3292  2.8257  0.7409
  102MOL0     H13402  10.429   3.827   3.102 -1.3953  3.9804  0.1091
  102MOL0     H13403  10.482   3.690   3.278  1.5272  1.2168 -0.4051
  102MOL0     H13404  10.341   3.730   3.377 -1.4164  0.2247 -1.1602
  102MOL0     H13405  10.507   3.857   3.491  0.5579 -2.3037  0.0695
  102MOL0     H13406  10.444   3.973   3.371 -0.8658 -0.5006  0.0599
  102MOL0     H13407  10.687   3.782   3.342 -0.4729 -0.4744 -1.9658
  102MOL0     H13408  10.644   3.872   3.218 -2.8251 -3.5899 -0.4399
  102MOL0     H13409  10.823   3.996   3.351  1.3857  2.2240  0.2652
  102MOL0     H13410  10.731   3.993   3.497  1.4605  1.7108 -0.8283
  102MOL0     H13411  10.549   4.139   3.395 -0.2482 -2.0680 -0.6252
  102MOL0     H13412  10.644   4.136   3.249  0.9197 -0.6401 -0.8706
  102MOL0     H13413  10.840   4.239   3.365  0.1660 -3.0741  1.2015
  102MOL0     H13414  10.696   4.340   3.384  3.8454  1.2053 -3.4199
  102MOL0     H13415  10.820   4.332   3.584 -2.0086  1.7461  1.2358
  102MOL0     H13416  10.795   4.148   3.593 -3.5867 -1.0208  1.3622
  102MOL0     H13417  10.535   4.453   3.561 -1.9007 -0.3407 -3.3972
  102MOL0     H13418  10.271   4.454   3.598 -0.7633  2.1185  0.2036
  102MOL0     H13419  10.358   4.519   3.738  1.4546  0.8743 -0.8937
  102MOL0     H13420  10.143   4.473   3.817  1.7978  0.7929  0.8731
  102MOL0     H13421  10.256   4.357   3.893  2.7427  0.6279 -1.0997
  102MOL0     H13422  10.166   4.192   3.698 -3.4968 -0.0650 -2.3200
  102MOL0     H13423  10.065   4.231   3.844 -0.8906  0.3316 -0.2803
  102MOL0     H13424   9.949   4.233   3.615  0.3546  0.3517 -1.6525
  102MOL0     H13425  10.029   4.383   3.581  0.0746  0.5038  0.6364
  102MOL0     H13426   9.671   4.524   3.672  0.6331 -0.6378 -2.1408
  102MOL0     H13427   9.447   4.415   3.656  0.3590  0.7209  1.1103
  102MOL0     H13428   9.126   4.147   3.881 -0.9891  0.0411 -1.3070
  102MOL0     H13429   8.913   4.045   3.867 -0.9046 -1.6468  0.1399
  102MOL0     H13430   8.721   3.929   3.758  0.3487 -0.3551  1.8517
  102MOL0     H13431   8.757   3.869   3.916 -2.4002 -0.2899  0.6729
  102MOL0     H13432   8.560   3.758   3.885 -0.9957 -1.7145  0.3576
  102MOL0     H13433   8.651   3.632   3.814  0.7900  1.2473 -0.4791
  102MOL0     H13434   8.528   3.867   3.658  0.2425 -0.0787  3.2895
  102MOL0     H13435   8.457   3.703   3.691 -1.5439  3.3117  2.6551
  102MOL0     H13436   8.716   3.751   3.534 -0.4647 -0.0885 -0.6235
  102MOL0     H13437   8.643   3.593   3.559 -0.0113  0.0720  0.4585
  102MOL0     H13438   8.445   3.675   3.429  1.6941 -2.3172 -2.6703
  102MOL0     H13439   8.594   3.681   3.335  1.1996  1.5012 -0.1938
  102MOL0     H13440   8.622   3.904   3.358  0.4224 -1.9632 -0.3837
  102MOL0     H13441   8.465   3.916   3.449 -4.6111 -0.4969 -2.2956
  102MOL0     H13442   8.481   3.962   3.180 -0.8545  1.0093  0.8867
  102MOL0     H13443   8.491   3.789   3.170 -0.1461 -0.2759 -0.0873
  102MOL0     H13444   8.247   3.791   3.297  1.1566 -0.1252  3.0889
  102MOL0     H13445   8.247   3.871   3.142  0.9339  1.0500 -0.7172
  102MOL0     H13446   9.081   3.699   3.687 -0.2519 -0.1913  1.0926
  102MOL0     H13447   9.310   3.816   3.703  0.3962  0.4403  0.4978
  102MOL0     H13448   9.620   4.060   3.833 -1.5585  0.5975  4.7893
  102MOL0     H13449   9.836   4.164   3.852  1.3853 -0.1157 -1.6943
  102MOL0     H13450  10.207   3.919   2.979 -2.9228  0.1326  0.2474
  102MOL0     H13451  10.141   3.896   2.752  3.7233  1.1367 -0.1906
  102MOL0     H13452  10.100   3.814   2.376 -0.5859  2.9009 -0.7760
  102MOL0     H13453  10.027   3.865   2.158  1.3541 -1.7207  0.8031
  102MOL0     H13454   9.912   3.971   1.982  2.4847 -1.8008  1.0292
  102MOL0     H13455   9.781   3.919   1.880 -0.1855 -1.6394 -0.0714
  102MOL0     H13456   9.978   3.798   1.813  0.5304  3.6741  0.8904
  102MOL0     H13457  10.008   3.759   1.980 -0.6228  0.5379  1.2808
  102MOL0     H13458   9.811   3.604   1.990 -0.5362  0.4746 -0.9461
  102MOL0     H13459   9.934   3.562   1.873  0.2621  1.5585 -4.2253
  102MOL0     H13460   9.707   3.528   1.769  0.6773  0.1505 -3.6182
  102MOL0     H13461   9.659   3.696   1.811 -0.0312 -0.4128 -1.4021
  102MOL0     H13462   9.912   3.764   1.484  0.6941  3.3831  3.1269
  102MOL0     H13463   9.616   3.779   2.264 -0.3986  2.9988  0.5707
  102MOL0     H13464   9.703   3.719   2.493 -0.5655 -1.0742 -1.1952
  103MOL0     O13465   1.946   2.112   7.439 -0.5433 -0.1685 -0.5243
  103MOL0     C13466   1.836   2.160   7.463 -0.3042  0.2838  0.2108
  103MOL0     O13467   1.731   2.156   7.387  0.2836  0.2300 -1.6493
  103MOL0     C13468   1.731   2.074   7.278 -0.5901 -0.8195 -1.2012
  103MOL0     C13469   1.692   2.124   7.162  0.6158 -0.1753 -0.2393
  103MOL0     C13470   1.682   2.040   7.048 -0.0298 -0.4903  0.6179
  103MOL0     C13471   1.696   1.901   7.047 -0.4954 -0.3302  0.6534
  103MOL0     O13472   1.672   1.833   6.933 -0.6918 -0.2827 -1.0688
  103MOL0     C13473   1.691   1.690   6.939  0.3449 -0.8534  0.2249
  103MOL0     C13474   1.674   1.637   6.793 -0.3489  0.8253 -0.3424
  103MOL0     C13475   1.714   1.488   6.796 -0.0572 -1.1230  0.9354
  103MOL0     C13476   1.708   1.444   6.655  0.7064  0.2285  0.2645
  103MOL0     C13477   1.743   1.297   6.649 -0.1019 -0.8342  0.1038
  103MOL0     C13478   1.718   1.248   6.512 -1.1784  0.4624  0.4395
  103MOL0     C13479   1.610   1.146   6.505  0.2200  0.2405  0.1427
  103MOL0     C13480   1.580   1.100   6.357  0.4822 -0.5578 -1.0579
  103MOL0     N13481   1.696   1.058   6.281  0.0439 -0.0057 -0.5106
  103MOL0     C13482   1.785   0.955   6.291  0.1112 -0.3011  0.6533
  103MOL0     C13483   1.884   0.985   6.195  1.4493  0.9722  0.9837
  103MOL0     C13484   2.003   0.897   6.159  0.1325  0.5434 -0.0838
  103MOL0     C13485   2.048   0.814   6.279 -0.2849 -0.7073 -0.0193
  103MOL0     C13486   2.194   0.753   6.258 -0.6229 -0.2990  0.2318
  103MOL0     C13487   2.216   0.631   6.359  0.5933 -0.8654 -0.8629
  103MOL0     O13488   2.119   0.523   6.335  0.5899 -0.4233 -0.8415
  103MOL0     C13489   2.130   0.416   6.422  0.0957  0.1772 -0.5870
  103MOL0     C13490   2.128   0.287   6.364 -0.1439 -0.2612 -0.1286
  103MOL0     C13491   2.164   0.168   6.439  0.2288 -0.7404 -0.0738
  103MOL0     C13492   2.205   0.188   6.580 -0.9913 -0.0197  0.4500
  103MOL0     C13493   2.231   0.072   6.657  0.4920  0.4201 -0.4492
  103MOL0     O13494   2.225   0.099   6.794 -0.0158 -0.3706 -0.6514
  103MOL0     C13495   2.213  -0.007   6.878  0.4499 -0.0030  0.2172
  103MOL0     C13496   2.286   0.003   6.995 -0.5119  0.0983 -0.3434
  103MOL0     C13497   2.271  -0.092   7.092 -0.9647  0.7866 -0.7789
  103MOL0     C13498   2.191  -0.204   7.069 -0.2499  0.3648  0.2525
  103MOL0     O13499   2.173  -0.302   7.155 -0.2513  0.3261 -0.2084
  103MOL0     C13500   2.238  -0.326   7.280  0.2992  0.2295  0.0164
  103MOL0     C13501   2.161  -0.426   7.373 -0.9432 -1.1778  0.7371
  103MOL0     C13502   2.121  -0.550   7.298  0.9096  0.5026  0.3655
  103MOL0     C13503   2.086  -0.669   7.396  0.0410 -0.5065 -0.2093
  103MOL0     C13504   2.094  -0.816   7.345 -0.3415 -0.8358 -0.8904
  103MOL0     C13505   2.091  -0.901   7.467 -0.4425 -0.0436 -0.2852
  103MOL0     C13506   2.076  -1.045   7.422 -0.9073  0.2507  1.0100
  103MOL0     C13507   2.093  -1.141   7.536 -0.9681  0.5117 -0.4817
  103MOL0    Cl13508   2.104  -1.308   7.462 -0.0329 -0.4579 -0.0839
  103MOL0     C13509   2.125  -0.217   6.949  0.4955 -1.1540  0.8911
  103MOL0     C13510   2.118  -0.106   6.855  0.1707  1.2705  0.6842
  103MOL0     O13511   2.255  -0.031   6.604 -0.0238 -0.0992 -0.8379
  103MOL0     C13512   2.217   0.318   6.629 -0.5393 -0.2413  0.3782
  103MOL0     C13513   2.180   0.424   6.553 -0.6414  0.0020 -0.2044
  103MOL0     N13514   1.851   1.098   6.126  0.6890  0.1563  0.3640
  103MOL0     N13515   1.734   1.138   6.175 -0.1745  0.0864  0.7305
  103MOL0     C13516   1.744   1.848   7.167  0.5280 -0.4339 -1.3259
  103MOL0     C13517   1.771   1.936   7.279 -0.3887  0.1466  0.2671
  103MOL0     C13518   1.810   2.230   7.595  0.2365  0.4157 -0.1925
  103MOL0     C13519   1.912   2.316   7.641 -0.1734 -0.2363  0.6319
  103MOL0     C13520   1.893   2.380   7.758  0.0455  0.4340  0.0226
  103MOL0     C13521   1.774   2.371   7.841 -0.0147  0.4698 -0.4805
  103MOL0     O13522   1.754   2.446   7.958  0.6643 -0.3237  0.1270
  103MOL0     C13523   1.693   2.373   8.071  0.2306 -0.0421  0.4652
  103MOL0     C13524   1.576   2.455   8.138 -0.3937 -0.3744 -0.3597
  103MOL0     C13525   1.531   2.368   8.255 -0.2695 -0.8104  0.2574
  103MOL0     C13526   1.402   2.435   8.318  0.7701 -0.1742  0.6097
  103MOL0     C13527   1.454   2.539   8.405  0.1354 -0.2735 -0.5789
  103MOL0     C13528   1.514   2.627   8.461  0.2032  0.3418 -0.8016
  103MOL0     C13529   1.671   2.289   7.787 -1.5788  0.3648  0.0889
  103MOL0     C13530   1.689   2.212   7.668  0.5915 -0.8845 -0.9278
  103MOL0     H13531   1.670   2.231   7.158 -0.9400 -0.4892 -0.9139
  103MOL0     H13532   1.653   2.083   6.953 -0.0279 -1.0827  0.3472
  103MOL0     H13533   1.619   1.646   7.008  0.6827 -0.8645  0.5738
  103MOL0     H13534   1.786   1.654   6.980  0.0190 -3.8672 -1.3291
  103MOL0     H13535   1.723   1.696   6.714 -4.3934  2.8951 -1.5796
  103MOL0     H13536   1.567   1.641   6.772 -0.1480  2.5316 -1.2133
  103MOL0     H13537   1.660   1.417   6.859  0.2429 -1.9773  0.2378
  103MOL0     H13538   1.817   1.481   6.833  1.1537 -0.2317 -2.0225
  103MOL0     H13539   1.605   1.446   6.618  0.3690 -1.9186  0.9214
  103MOL0     H13540   1.763   1.509   6.587 -1.2184  2.4699  0.7370
  103MOL0     H13541   1.687   1.233   6.718 -0.6729 -4.9481 -3.6509
  103MOL0     H13542   1.851   1.286   6.661  0.3416  1.4345 -1.2996
  103MOL0     H13543   1.805   1.199   6.467 -1.2155  1.4120 -0.7434
  103MOL0     H13544   1.693   1.336   6.452  1.5098  1.1409  0.1756
  103MOL0     H13545   1.646   1.053   6.549  0.9714 -0.2914 -1.4929
  103MOL0     H13546   1.520   1.179   6.556 -1.4961  0.0572 -2.5573
  103MOL0     H13547   1.515   1.177   6.313  1.9130  1.0101 -0.5174
  103MOL0     H13548   1.516   1.013   6.376 -0.3571  0.1630 -0.4367
  103MOL0     H13549   1.778   0.871   6.360  2.8911 -2.8267 -1.8738
  103MOL0     H13550   2.083   0.968   6.139  0.0227  0.1533 -2.1594
  103MOL0     H13551   1.994   0.827   6.075 -0.5306 -0.4869  0.8157
  103MOL0     H13552   1.974   0.737   6.301 -0.5683  0.1263  2.1478
  103MOL0     H13553   2.053   0.891   6.357  0.8635 -2.7865  2.0434
  103MOL0     H13554   2.203   0.702   6.162 -1.6564 -0.2038  0.0764
  103MOL0     H13555   2.268   0.835   6.255 -0.8357 -0.1133  0.0083
  103MOL0     H13556   2.203   0.681   6.456  1.0144 -1.8512 -0.2776
  103MOL0     H13557   2.319   0.594   6.355  1.8341  2.3075 -0.7636
  103MOL0     H13558   2.085   0.283   6.264  0.4421  1.3707 -0.4800
  103MOL0     H13559   2.161   0.073   6.387  0.1416 -1.0736  0.5346
  103MOL0     H13560   2.348   0.086   7.029 -3.5976  2.8984 -1.0826
  103MOL0     H13561   2.329  -0.087   7.184  2.7691  0.0987 -2.8457
  103MOL0     H13562   2.252  -0.237   7.342  0.0628 -0.5288  1.1795
  103MOL0     H13563   2.338  -0.368   7.265  0.5565  1.0377 -0.6376
  103MOL0     H13564   2.074  -0.375   7.414  0.6173  2.6315 -0.2524
  103MOL0     H13565   2.226  -0.450   7.458  1.1806 -0.6880 -0.6530
  103MOL0     H13566   2.202  -0.589   7.235  1.0722 -1.4280  1.6926
  103MOL0     H13567   2.033  -0.528   7.237  1.1854 -0.7046 -0.4952
  103MOL0     H13568   2.161  -0.661   7.475 -0.2702 -1.0243  0.1494
  103MOL0     H13569   1.989  -0.645   7.442  1.3730  1.2543  1.8646
  103MOL0     H13570   2.187  -0.844   7.295  0.7378 -1.1403  1.1726
  103MOL0     H13571   2.003  -0.837   7.288  0.3529  0.1733 -2.4229
  103MOL0     H13572   2.011  -0.868   7.533  1.4063 -0.2265  2.2454
  103MOL0     H13573   2.182  -0.884   7.526  0.6612 -3.2336 -0.8266
  103MOL0     H13574   1.976  -1.058   7.380 -0.8304 -1.9628  1.3823
  103MOL0     H13575   2.137  -1.057   7.333 -2.9671  1.0031 -0.5932
  103MOL0     H13576   2.012  -1.140   7.609 -0.9265 -1.0588 -0.3907
  103MOL0     H13577   2.190  -1.128   7.585 -0.0642 -1.3308 -1.6767
  103MOL0     H13578   2.067  -0.306   6.930  2.9523 -2.5593 -0.5543
  103MOL0     H13579   2.051  -0.122   6.770  1.5343  0.1621 -0.2303
  103MOL0     H13580   2.251   0.344   6.728  3.7775 -1.2452 -0.6439
  103MOL0     H13581   2.167   0.520   6.602 -2.9197 -0.9379  1.1871
  103MOL0     H13582   1.776   1.745   7.182  2.4531  0.4416  1.4747
  103MOL0     H13583   1.821   1.887   7.363  0.8050 -4.2570 -2.6225
  103MOL0     H13584   2.003   2.330   7.584 -0.8410  2.2435  0.0350
  103MOL0     H13585   1.975   2.436   7.803  1.5774  0.2058 -2.2841
  103MOL0     H13586   1.777   2.362   8.140  0.8405  2.0537  0.1197
  103MOL0     H13587   1.652   2.273   8.051  0.2391 -0.0532  0.5029
  103MOL0     H13588   1.603   2.548   8.190  0.9083 -1.2354  0.5716
  103MOL0     H13589   1.493   2.472   8.068 -1.2011 -0.5550  0.5313
  103MOL0     H13590   1.619   2.365   8.320  0.7219  1.4122 -0.8603
  103MOL0     H13591   1.496   2.270   8.220 -0.0692 -0.4185 -1.1251
  103MOL0     H13592   1.332   2.484   8.249  2.2468  0.2195 -0.6602
  103MOL0     H13593   1.343   2.361   8.373 -0.9499 -1.6802 -2.9210
  103MOL0     H13594   1.562   2.701   8.523 -0.0683 -0.3150  0.2140
  103MOL0     H13595   1.569   2.283   7.826 -0.8397 -2.5985  1.9251
  103MOL0     H13596   1.599   2.163   7.631 -0.4348 -0.7055  1.1926
  104MOL0     O13597   8.519   6.907   7.040 -1.0303  0.0214  0.2111
  104MOL0     C13598   8.403   6.870   7.026  0.7151 -1.0170 -0.7100
  104MOL0     O13599   8.322   6.793   7.108 -0.2217 -0.4384  0.1767
  104MOL0     C13600   8.363   6.721   7.221 -0.1263 -0.9874  0.2443
  104MOL0     C13601   8.474   6.749   7.301  0.2215  0.3865 -0.4475
  104MOL0     C13602   8.489   6.678   7.421  0.6136 -0.5576 -0.8309
  104MOL0     C13603   8.392   6.587   7.470  1.2237 -0.2358  0.4164
  104MOL0     O13604   8.393   6.518   7.582 -0.6802 -0.3365 -0.3413
  104MOL0     C13605   8.509   6.546   7.668  0.1956 -0.8680 -0.6695
  104MOL0     C13606   8.612   6.438   7.638  0.8031  0.0069 -0.2353
  104MOL0     C13607   8.714   6.425   7.747 -0.3688  0.6473 -0.8315
  104MOL0     C13608   8.640   6.352   7.869  0.5877 -0.1067 -0.1735
  104MOL0     C13609   8.756   6.299   7.959  0.3068  0.2390  1.0750
  104MOL0     C13610   8.741   6.317   8.110 -1.3114  0.1217  0.0045
  104MOL0     C13611   8.800   6.456   8.145  0.7446  0.2048 -0.7963
  104MOL0     C13612   8.830   6.476   8.295  1.3200  0.0251 -0.2805
  104MOL0     N13613   8.702   6.440   8.378 -0.3718 -0.8504 -0.0302
  104MOL0     C13614   8.580   6.511   8.381  0.1213  0.3968 -0.5811
  104MOL0     C13615   8.511   6.445   8.484  0.1272  0.6883 -0.9730
  104MOL0     C13616   8.368   6.467   8.513  0.4193 -0.5548 -0.1886
  104MOL0     C13617   8.317   6.412   8.650 -0.4409  0.2565  0.8281
  104MOL0     C13618   8.171   6.452   8.669 -0.0943  0.0007 -0.3508
  104MOL0     C13619   8.070   6.349   8.630 -0.5445  0.3379 -0.0520
  104MOL0     O13620   8.059   6.352   8.484 -0.0708 -0.3935  0.5672
  104MOL0     C13621   7.948   6.335   8.410  0.3294  0.5157 -0.5016
  104MOL0     C13622   7.826   6.310   8.466 -0.4457 -1.0018 -0.6749
  104MOL0     C13623   7.725   6.263   8.387  0.4935 -0.5116  1.0995
  104MOL0     C13624   7.743   6.262   8.236  0.1774 -0.2915 -0.0120
  104MOL0     C13625   7.643   6.211   8.142 -0.4601 -0.4013  0.5527
  104MOL0     O13626   7.687   6.186   8.016 -0.3035 -0.2919 -0.4751
  104MOL0     C13627   7.600   6.137   7.914 -0.2085  0.6463 -0.2797
  104MOL0     C13628   7.513   6.032   7.931  0.0994 -0.5436  0.6995
  104MOL0     C13629   7.432   6.001   7.826 -0.0012  0.3669 -0.1544
  104MOL0     C13630   7.438   6.063   7.699 -0.7333  0.0267  1.0897
  104MOL0     O13631   7.349   6.027   7.600 -0.5059  0.1518 -0.0906
  104MOL0     C13632   7.361   6.068   7.468  0.4747  0.0175 -0.3234
  104MOL0     C13633   7.247   6.002   7.392  1.0898  0.4403 -0.8572
  104MOL0     C13634   7.239   6.049   7.254  0.3893 -0.7370  0.1030
  104MOL0     C13635   7.180   5.931   7.175  0.3983 -0.4584 -0.5597
  104MOL0     C13636   7.133   5.973   7.036  0.1322 -0.2368 -0.5436
  104MOL0     C13637   7.037   6.087   7.017  0.0129 -0.5653  0.2860
  104MOL0     C13638   6.960   6.082   6.883  0.4037  0.0288 -0.8441
  104MOL0     C13639   6.868   6.198   6.857 -0.2695  0.3731  0.2924
  104MOL0    Cl13640   6.740   6.215   6.987 -0.5443  0.1439  0.6147
  104MOL0     C13641   7.531   6.168   7.684  0.4988  0.1279 -0.7023
  104MOL0     C13642   7.610   6.206   7.795 -0.5463  0.6684  0.5804
  104MOL0     O13643   7.527   6.191   8.188 -0.7877  0.4874 -0.0398
  104MOL0     C13644   7.869   6.300   8.189  0.7529  0.2988  0.7645
  104MOL0     C13645   7.967   6.335   8.276 -0.4612  0.1606 -0.3537
  104MOL0     N13646   8.588   6.346   8.532 -0.8696  0.1748 -0.3534
  104MOL0     N13647   8.709   6.348   8.481  0.3607 -0.8828  0.2266
  104MOL0     C13648   8.278   6.560   7.388  1.4590  0.3419 -0.6307
  104MOL0     C13649   8.267   6.635   7.261 -0.4490  0.4935  0.0133
  104MOL0     C13650   8.332   6.916   6.896  0.0815  0.1955  0.1699
  104MOL0     C13651   8.408   6.969   6.792 -0.5680  0.3269  1.3105
  104MOL0     C13652   8.350   7.014   6.670 -0.4645  0.4202  0.2152
  104MOL0     C13653   8.208   6.996   6.657 -1.4265  0.3902 -0.2592
  104MOL0     O13654   8.129   7.025   6.547 -0.2671 -0.6353 -0.1550
  104MOL0     C13655   8.204   7.103   6.442  0.0504 -0.4031  0.1468
  104MOL0     C13656   8.102   7.164   6.348 -0.7746 -0.4205 -1.0404
  104MOL0     C13657   8.184   7.221   6.229  0.0889  0.2565 -0.5535
  104MOL0     C13658   8.082   7.294   6.147 -0.4820  0.0732 -0.3536
  104MOL0     C13659   8.134   7.355   6.026 -1.1169 -0.8951  0.6213
  104MOL0     C13660   8.170   7.403   5.918 -0.2737  0.0585  0.1867
  104MOL0     C13661   8.141   6.949   6.758  0.1347  0.5901  0.7317
  104MOL0     C13662   8.187   6.906   6.882  0.1913 -0.4159  0.3867
  104MOL0     H13663   8.548   6.819   7.264  1.2176 -0.5310 -0.2221
  104MOL0     H13664   8.585   6.694   7.469 -1.1445 -1.8095  3.5758
  104MOL0     H13665   8.465   6.529   7.766  3.1775 -2.1820  0.5585
  104MOL0     H13666   8.559   6.643   7.657  2.8380 -2.1374 -0.6428
  104MOL0     H13667   8.661   6.469   7.545 -1.7498  2.2005 -1.0030
  104MOL0     H13668   8.556   6.347   7.616  4.7654 -2.9209  0.8738
  104MOL0     H13669   8.748   6.526   7.771  2.3015 -0.7233  1.7099
  104MOL0     H13670   8.795   6.358   7.713 -0.0807 -0.1118  1.1802
  104MOL0     H13671   8.584   6.430   7.922  1.6571 -0.7682  2.0761
  104MOL0     H13672   8.571   6.269   7.849 -1.6279  1.1067  1.9394
  104MOL0     H13673   8.844   6.344   7.912 -2.9188  3.6645 -2.4671
  104MOL0     H13674   8.764   6.193   7.934 -2.8932  0.4392 -1.5353
  104MOL0     H13675   8.807   6.249   8.163  1.4015  1.7845 -1.0158
  104MOL0     H13676   8.639   6.303   8.146 -1.2758  1.4222  0.7134
  104MOL0     H13677   8.896   6.477   8.096  0.4929  1.1631 -0.8904
  104MOL0     H13678   8.750   6.546   8.109 -2.9471 -0.3459  2.3663
  104MOL0     H13679   8.845   6.584   8.305 -0.4851  0.4032 -1.1973
  104MOL0     H13680   8.924   6.432   8.327  1.6701 -0.3720 -1.7527
  104MOL0     H13681   8.545   6.591   8.317 -2.2822 -1.1341 -1.3117
  104MOL0     H13682   8.321   6.414   8.430  1.2519 -3.8989  1.2932
  104MOL0     H13683   8.357   6.576   8.515 -0.4680 -0.6300 -0.1848
  104MOL0     H13684   8.388   6.451   8.723  1.1774 -2.9626  1.1318
  104MOL0     H13685   8.331   6.305   8.664  0.4103  0.2291 -0.0567
  104MOL0     H13686   8.154   6.465   8.777 -1.7730  0.2565 -0.6284
  104MOL0     H13687   8.169   6.551   8.624  5.4850  2.1534  3.0146
  104MOL0     H13688   7.973   6.366   8.678 -2.6006 -2.1800 -2.9109
  104MOL0     H13689   8.098   6.250   8.667  0.8063  0.2957 -1.1153
  104MOL0     H13690   7.801   6.319   8.572 -0.8837  1.6268 -0.9393
  104MOL0     H13691   7.621   6.252   8.416  0.1867  1.3202  0.8018
  104MOL0     H13692   7.494   5.990   8.029  0.1653  1.4370  1.6039
  104MOL0     H13693   7.367   5.914   7.837 -1.3431  1.1673 -1.4832
  104MOL0     H13694   7.456   6.037   7.423  0.4554  0.8209 -0.9287
  104MOL0     H13695   7.346   6.175   7.479  0.9561 -0.0612  1.3342
  104MOL0     H13696   7.163   6.039   7.451  2.4356 -0.2702  1.6873
  104MOL0     H13697   7.250   5.894   7.409  3.3576  0.4527 -0.7993
  104MOL0     H13698   7.335   6.091   7.222 -0.4099  0.3623 -0.9797
  104MOL0     H13699   7.172   6.135   7.249  1.0248 -0.2803 -1.0568
  104MOL0     H13700   7.257   5.856   7.157  1.6440  0.4445  0.8244
  104MOL0     H13701   7.091   5.896   7.230 -0.7957  1.6214 -1.0542
  104MOL0     H13702   7.102   5.876   6.996 -0.9580 -1.3492  2.6978
  104MOL0     H13703   7.229   5.993   6.987 -0.5776 -0.0154 -1.8857
  104MOL0     H13704   7.106   6.173   7.019  1.6633 -1.8418  0.3836
  104MOL0     H13705   6.972   6.089   7.105 -2.4042 -2.0685 -1.3493
  104MOL0     H13706   7.021   6.056   6.797  0.1710  0.9421 -1.2952
  104MOL0     H13707   6.890   6.000   6.905  0.3490  0.0922 -0.7790
  104MOL0     H13708   6.817   6.187   6.761 -0.3118  0.0257  0.3506
  104MOL0     H13709   6.921   6.293   6.846 -3.5069  2.2893 -0.0592
  104MOL0     H13710   7.526   6.213   7.586 -1.7384  2.8090  0.5316
  104MOL0     H13711   7.682   6.288   7.794 -0.2197  0.5770  3.9872
  104MOL0     H13712   7.898   6.294   8.085  1.1719 -0.7374  0.9276
  104MOL0     H13713   8.064   6.354   8.230  0.6537  0.3732  1.9298
  104MOL0     H13714   8.195   6.500   7.424  0.5103  2.8976  1.8137
  104MOL0     H13715   8.183   6.623   7.194 -1.1703 -1.2195  1.1663
  104MOL0     H13716   8.515   6.982   6.791 -0.4437 -0.3757 -1.3102
  104MOL0     H13717   8.409   7.059   6.592 -0.7282  3.0263  1.4135
  104MOL0     H13718   8.261   7.030   6.383 -1.8007 -0.5323 -1.5681
  104MOL0     H13719   8.272   7.177   6.484  2.3001 -2.4734  0.4403
  104MOL0     H13720   8.040   7.080   6.317  0.9393 -2.6035  1.1115
  104MOL0     H13721   8.036   7.233   6.402 -1.0108 -1.2241 -0.2748
  104MOL0     H13722   8.223   7.146   6.160 -1.6136  0.6217 -1.9984
  104MOL0     H13723   8.266   7.290   6.251 -1.3073  1.6411  0.5875
  104MOL0     H13724   8.008   7.216   6.125  0.8535 -1.4211  0.2355
  104MOL0     H13725   8.045   7.382   6.200 -0.6396 -0.3236  0.2086
  104MOL0     H13726   8.192   7.433   5.817 -1.0515 -2.4854 -0.8028
  104MOL0     H13727   8.036   6.923   6.755  0.1535  0.3166  2.0431
  104MOL0     H13728   8.117   6.866   6.955 -0.6786 -0.9580 -0.7024
  105MOL0     O13729   2.418   4.884   4.227 -0.1450  0.1314  0.1579
  105MOL0     C13730   2.469   4.828   4.335  1.1081  0.4236 -0.7151
  105MOL0     O13731   2.487   4.890   4.450  0.1521 -0.3408  0.2972
  105MOL0     C13732   2.453   5.021   4.467  0.1455  0.2232  0.2303
  105MOL0     C13733   2.346   5.085   4.417  1.1646 -0.0534 -0.2315
  105MOL0     C13734   2.325   5.220   4.451  0.5480 -0.2571  0.6276
  105MOL0     C13735   2.398   5.289   4.543 -0.2662 -0.1632 -0.3004
  105MOL0     O13736   2.349   5.418   4.580  0.4500 -0.6580  0.5793
  105MOL0     C13737   2.407   5.528   4.507 -0.7351 -0.2008  0.4018
  105MOL0     C13738   2.314   5.646   4.507 -0.6704  0.4058 -0.1919
  105MOL0     C13739   2.351   5.779   4.427  1.0189  0.1552 -0.2148
  105MOL0     C13740   2.250   5.896   4.452  0.7464 -0.6229  0.3309
  105MOL0     C13741   2.261   6.023   4.369 -1.0688  0.1335 -1.0034
  105MOL0     C13742   2.160   6.127   4.430  0.4812  0.4546 -0.0581
  105MOL0     C13743   2.167   6.274   4.379 -0.1802  0.5597  0.1684
  105MOL0     C13744   2.267   6.361   4.461 -0.0791 -0.3110  0.6928
  105MOL0     N13745   2.219   6.495   4.471 -0.4536 -0.3093 -0.5557
  105MOL0     C13746   2.239   6.608   4.389  0.9870  0.5464 -0.5358
  105MOL0     C13747   2.169   6.706   4.449 -0.3086 -0.4305 -0.1381
  105MOL0     C13748   2.153   6.845   4.394 -0.4477 -0.8566 -1.1220
  105MOL0     C13749   2.066   6.845   4.273  1.0821  0.0132  0.6017
  105MOL0     C13750   2.025   6.992   4.229 -0.5503  0.1611 -0.7728
  105MOL0     C13751   1.898   6.989   4.146 -0.4541 -0.8732 -0.5378
  105MOL0     O13752   1.927   6.934   4.014  0.2737 -0.4581 -0.8120
  105MOL0     C13753   1.811   6.932   3.941  0.0104  0.1757 -0.9690
  105MOL0     C13754   1.788   7.040   3.856  0.0869  0.1588 -1.2027
  105MOL0     C13755   1.665   7.058   3.787  0.2950 -0.0627  0.1533
  105MOL0     C13756   1.567   6.959   3.801  0.1250  1.2316  0.6508
  105MOL0     C13757   1.443   6.969   3.721  0.4458 -0.8318 -0.6011
  105MOL0     O13758   1.328   6.927   3.781 -0.1895 -1.4524  0.5660
  105MOL0     C13759   1.207   6.939   3.716  0.5962  1.2266 -1.2305
  105MOL0     C13760   1.193   6.894   3.587  0.1362 -1.2073  0.5351
  105MOL0     C13761   1.062   6.895   3.529 -0.6570 -0.0836  0.4308
  105MOL0     C13762   0.949   6.944   3.599 -0.1761  0.9598 -0.0327
  105MOL0     O13763   0.831   6.935   3.532 -0.5937  0.1004  0.5383
  105MOL0     C13764   0.707   6.936   3.610 -0.0357 -0.1149  0.3177
  105MOL0     C13765   0.627   7.061   3.589  0.6199 -0.7392  0.2549
  105MOL0     C13766   0.501   7.056   3.686  0.1434  0.0188  1.5244
  105MOL0     C13767   0.405   7.162   3.633  0.8711  0.7029  0.1043
  105MOL0     C13768   0.276   7.163   3.713  0.7979 -0.5787 -0.5819
  105MOL0     C13769   0.169   7.256   3.654  0.1373  0.1262 -0.7092
  105MOL0     C13770   0.217   7.394   3.634  0.2612  0.3968  1.4609
  105MOL0     C13771   0.208   7.429   3.486  0.3969  0.8962 -0.2068
  105MOL0    Cl13772   0.242   7.592   3.463  0.2609  0.0351 -0.2535
  105MOL0     C13773   0.973   7.006   3.720  0.6644 -0.2434 -1.4849
  105MOL0     C13774   1.096   7.004   3.780 -0.1215  0.5151 -0.8345
  105MOL0     O13775   1.450   7.021   3.606  0.2518 -0.0924  0.1813
  105MOL0     C13776   1.592   6.849   3.885 -0.4227  0.0158  0.4123
  105MOL0     C13777   1.716   6.830   3.949  1.4137  0.4712  0.3473
  105MOL0     N13778   2.097   6.660   4.561  0.8202  0.1909  0.5018
  105MOL0     N13779   2.127   6.534   4.567 -0.2157  0.3558 -0.6782
  105MOL0     C13780   2.500   5.218   4.609 -0.2188  0.0622  1.1463
  105MOL0     C13781   2.529   5.088   4.563  0.2534 -1.0387 -0.3494
  105MOL0     C13782   2.462   4.681   4.341  0.1121 -0.4213 -1.3857
  105MOL0     C13783   2.380   4.612   4.252 -0.0924 -0.3893 -0.2216
  105MOL0     C13784   2.365   4.471   4.259 -0.0886  0.8557 -0.3706
  105MOL0     C13785   2.434   4.398   4.366 -1.3174 -0.9556  0.4368
  105MOL0     O13786   2.426   4.264   4.383  0.3094  0.4680 -0.6792
  105MOL0     C13787   2.386   4.184   4.272 -0.7741 -0.3793  0.7016
  105MOL0     C13788   2.403   4.033   4.307 -0.0741 -0.1449  0.0619
  105MOL0     C13789   2.551   3.992   4.348  0.6273 -0.8247  0.9410
  105MOL0     C13790   2.653   4.011   4.236 -0.0822 -0.1248  0.5569
  105MOL0     C13791   2.602   3.935   4.115 -0.2803 -0.6000 -1.0564
  105MOL0     C13792   2.565   3.879   4.016 -0.1125  0.2758  0.1394
  105MOL0     C13793   2.513   4.479   4.455 -0.8986  0.6927  1.0298
  105MOL0     C13794   2.527   4.617   4.447 -0.0773 -0.2065 -0.8048
  105MOL0     H13795   2.279   5.049   4.339  2.2299  3.4731 -3.0857
  105MOL0     H13796   2.251   5.277   4.395  0.3177 -0.9805  0.1857
  105MOL0     H13797   2.423   5.496   4.404  3.7600  1.2278  0.4179
  105MOL0     H13798   2.503   5.551   4.554  0.0113  1.7616 -1.8417
  105MOL0     H13799   2.315   5.672   4.614 -0.2360 -0.6362  0.0657
  105MOL0     H13800   2.215   5.610   4.478 -0.1934 -2.1757  1.1244
  105MOL0     H13801   2.345   5.755   4.321 -0.2178 -0.2145 -0.0883
  105MOL0     H13802   2.451   5.818   4.444  1.8818  0.2304 -4.5153
  105MOL0     H13803   2.149   5.860   4.434  0.0273  1.5472 -0.3190
  105MOL0     H13804   2.280   5.913   4.556 -0.1937 -1.7348  0.8122
  105MOL0     H13805   2.231   5.997   4.267  0.1928 -1.0586 -1.0968
  105MOL0     H13806   2.362   6.064   4.364 -0.8698 -0.3376 -0.7902
  105MOL0     H13807   2.165   6.118   4.539 -1.4358 -0.4461 -0.0188
  105MOL0     H13808   2.059   6.090   4.409  1.4470 -1.6734 -1.3251
  105MOL0     H13809   2.185   6.271   4.271 -1.5397 -3.5135 -0.1197
  105MOL0     H13810   2.068   6.315   4.402 -0.1300  1.0931 -0.5358
  105MOL0     H13811   2.368   6.362   4.419  0.8372  0.5078  2.7979
  105MOL0     H13812   2.284   6.323   4.562  1.1284  1.3641  1.1535
  105MOL0     H13813   2.290   6.629   4.296  1.0638  0.4236 -0.5213
  105MOL0     H13814   2.252   6.881   4.365  0.9419 -4.3119 -1.1069
  105MOL0     H13815   2.121   6.923   4.464  1.2953  1.0059 -2.2918
  105MOL0     H13816   1.983   6.783   4.307  1.1214 -1.3322 -1.6133
  105MOL0     H13817   2.118   6.801   4.188  1.5357  5.0800 -2.1717
  105MOL0     H13818   2.012   7.062   4.312  0.0712  1.4690 -1.7281
  105MOL0     H13819   2.110   7.028   4.170 -0.8877  0.3527 -1.1487
  105MOL0     H13820   1.877   7.095   4.126 -1.4014 -1.4089 -2.7249
  105MOL0     H13821   1.825   6.924   4.195  1.3420 -1.3468  1.6553
  105MOL0     H13822   1.863   7.118   3.849 -1.1295  1.2988 -1.9381
  105MOL0     H13823   1.640   7.145   3.727  0.8996 -1.8143 -2.8723
  105MOL0     H13824   1.267   6.862   3.515 -3.4272 -0.4630 -3.8969
  105MOL0     H13825   1.050   6.844   3.434  0.9715 -1.3557  0.8735
  105MOL0     H13826   0.726   6.917   3.715 -1.0614  2.4736  1.0601
  105MOL0     H13827   0.642   6.858   3.569 -3.1919  2.0146  0.9241
  105MOL0     H13828   0.591   7.073   3.486 -1.5055 -1.6459  0.8300
  105MOL0     H13829   0.692   7.145   3.615 -3.5760  3.5869 -1.6991
  105MOL0     H13830   0.525   7.085   3.789  1.5282  1.6021  0.7961
  105MOL0     H13831   0.445   6.962   3.681  0.3904 -0.1107  1.1888
  105MOL0     H13832   0.465   7.254   3.629  3.0827 -0.7158 -2.3463
  105MOL0     H13833   0.374   7.140   3.530 -2.4641  4.2061  0.1225
  105MOL0     H13834   0.296   7.207   3.811 -0.4609 -2.0252  0.3624
  105MOL0     H13835   0.245   7.061   3.737 -1.1272  0.4434  1.6315
  105MOL0     H13836   0.091   7.259   3.731 -0.0168  1.3131 -0.8785
  105MOL0     H13837   0.124   7.222   3.560 -1.2234  1.4389 -0.5831
  105MOL0     H13838   0.159   7.476   3.679 -3.8850 -1.2120 -0.4275
  105MOL0     H13839   0.316   7.408   3.678  1.4866 -1.1813 -0.6334
  105MOL0     H13840   0.108   7.410   3.444  1.5703 -1.2790 -2.3018
  105MOL0     H13841   0.278   7.378   3.418  0.2551  0.3928  0.0166
  105MOL0     H13842   0.899   7.057   3.780  0.9974 -0.5503 -0.7970
  105MOL0     H13843   1.113   7.043   3.879  1.3944 -0.5793 -0.6301
  105MOL0     H13844   1.516   6.772   3.892 -1.9143  1.2856 -0.8363
  105MOL0     H13845   1.729   6.741   4.010 -0.1257 -0.1721 -0.2065
  105MOL0     H13846   2.558   5.256   4.692  2.5492  0.0077 -0.6309
  105MOL0     H13847   2.612   5.031   4.603 -0.1836 -1.5798 -0.2019
  105MOL0     H13848   2.333   4.658   4.166  2.6999 -1.5080 -2.5172
  105MOL0     H13849   2.318   4.426   4.173  0.2399  0.2766 -0.2554
  105MOL0     H13850   2.451   4.211   4.189 -2.6669  3.9876  0.3618
  105MOL0     H13851   2.280   4.201   4.253 -0.5042  0.7132  0.0742
  105MOL0     H13852   2.338   4.028   4.394  2.8392  1.0029  2.4838
  105MOL0     H13853   2.373   3.957   4.234  0.0895 -0.8793  0.7442
  105MOL0     H13854   2.565   3.886   4.369  0.4489 -1.1412 -0.4499
  105MOL0     H13855   2.579   4.066   4.423  3.1915  2.3406 -2.7149
  105MOL0     H13856   2.671   4.118   4.220  2.2483 -0.5300  0.1209
  105MOL0     H13857   2.750   3.972   4.270 -0.3936 -1.2038  0.2065
  105MOL0     H13858   2.530   3.824   3.931  0.2360  0.1019  0.1027
  105MOL0     H13859   2.565   4.429   4.536  1.3484  1.4383  0.1141
  105MOL0     H13860   2.589   4.673   4.515 -0.2198 -2.9218  1.7347
  106MOL0     O13861   9.173   3.331  10.985  0.4127  0.2588  0.6544
  106MOL0     C13862   9.165   3.347  11.107 -0.3318  0.3264 -0.1348
  106MOL0     O13863   9.074   3.282  11.189  0.0445 -0.5825  0.1720
  106MOL0     C13864   9.003   3.183  11.141  0.7199  0.2426  0.6396
  106MOL0     C13865   8.927   3.193  11.018 -0.1659 -0.7099  0.3125
  106MOL0     C13866   8.827   3.098  10.990  0.6727 -0.1498  0.0227
  106MOL0     C13867   8.822   2.987  11.060 -0.9285 -0.1733  0.2549
  106MOL0     O13868   8.735   2.880  11.038 -0.1614  0.2433 -0.2466
  106MOL0     C13869   8.606   2.904  10.990 -0.5481  0.4624  0.2156
  106MOL0     C13870   8.514   2.789  11.022 -0.1520  0.1809  0.9707
  106MOL0     C13871   8.587   2.659  10.984  0.8936 -0.0782 -0.1939
  106MOL0     C13872   8.477   2.552  10.974  0.4337 -0.0673 -0.7159
  106MOL0     C13873   8.535   2.418  10.932  0.2694  0.5213  0.4063
  106MOL0     C13874   8.426   2.318  10.896  0.2203  0.7075  0.0178
  106MOL0     C13875   8.479   2.195  10.819  0.0503 -0.6720 -0.4613
  106MOL0     C13876   8.369   2.089  10.794 -0.0097  0.3548 -0.3035
  106MOL0     N13877   8.242   2.130  10.737  0.3157 -0.4396  0.0511
  106MOL0     C13878   8.217   2.202  10.625  0.3326  0.7398 -0.3553
  106MOL0     C13879   8.085   2.220  10.641  1.2585 -0.0240 -0.3181
  106MOL0     C13880   7.997   2.294  10.544  0.9413  0.3466  0.1052
  106MOL0     C13881   7.935   2.208  10.430 -0.2004  0.5404  0.7685
  106MOL0     C13882   7.799   2.154  10.467  0.3426 -0.0594 -0.4852
  106MOL0     C13883   7.747   2.046  10.369 -0.4051 -0.4856  0.0889
  106MOL0     O13884   7.835   1.932  10.363  0.4422  0.2515 -0.0925
  106MOL0     C13885   7.826   1.854  10.481  0.8101  0.3664  0.6550
  106MOL0     C13886   7.908   1.862  10.584 -0.1763  0.5603 -1.4981
  106MOL0     C13887   7.908   1.784  10.701  0.0475 -0.3078  0.0809
  106MOL0     C13888   7.806   1.686  10.709  0.5586 -0.0278 -0.5187
  106MOL0     C13889   7.799   1.591  10.821  0.0210  0.1112  0.4672
  106MOL0     O13890   7.909   1.577  10.902  0.9237 -0.0518 -0.3822
  106MOL0     C13891   7.891   1.493  11.014 -0.1478  0.2122 -0.2391
  106MOL0     C13892   7.877   1.560  11.133  0.7150 -0.0245  0.2870
  106MOL0     C13893   7.859   1.484  11.251 -0.4523  0.6679  0.7410
  106MOL0     C13894   7.840   1.343  11.249  0.5414 -0.8064 -0.9833
  106MOL0     O13895   7.813   1.273  11.364  0.1223  0.0358  0.7626
  106MOL0     C13896   7.694   1.313  11.434  0.2622 -0.5073  0.9760
  106MOL0     C13897   7.623   1.211  11.501  0.1569 -0.2971 -0.8238
  106MOL0     C13898   7.710   1.143  11.614  0.1315 -0.3288 -0.7011
  106MOL0     C13899   7.649   1.013  11.666  0.2562  1.5334  0.0214
  106MOL0     C13900   7.699   0.963  11.802 -1.0096 -0.8566  0.2907
  106MOL0     C13901   7.610   0.850  11.848 -0.1062  0.4743 -0.1679
  106MOL0     C13902   7.594   0.729  11.747  0.0214 -0.3524  0.7006
  106MOL0     C13903   7.580   0.600  11.820  0.2752  0.5715  0.2987
  106MOL0    Cl13904   7.413   0.605  11.900  0.4912  0.2542  0.1395
  106MOL0     C13905   7.850   1.277  11.123  0.1604  0.4785  0.0097
  106MOL0     C13906   7.881   1.352  11.010  0.6268 -0.5341  0.0950
  106MOL0     O13907   7.703   1.514  10.822  0.6346  0.3440 -0.1143
  106MOL0     C13908   7.711   1.674  10.603 -0.5506  0.3449  0.1138
  106MOL0     C13909   7.727   1.754  10.486 -0.6735 -0.5372  0.1517
  106MOL0     N13910   8.034   2.156  10.749 -0.4372 -0.4454 -0.4059
  106MOL0     N13911   8.132   2.101  10.811 -0.7394 -0.5978 -0.5429
  106MOL0     C13912   8.886   2.982  11.185 -0.5783 -0.1930  0.2513
  106MOL0     C13913   8.968   3.082  11.229 -0.6245  0.4529  0.2341
  106MOL0     C13914   9.248   3.460  11.166 -0.2719  0.7105  0.1074
  106MOL0     C13915   9.241   3.484  11.302  0.2009 -0.1990 -0.9275
  106MOL0     C13916   9.317   3.582  11.366  0.8380 -0.1786 -0.3831
  106MOL0     C13917   9.402   3.660  11.287 -0.6427  0.4819 -0.0728
  106MOL0     O13918   9.473   3.764  11.341  0.0617  1.0359  0.2239
  106MOL0     C13919   9.613   3.748  11.363 -0.7215  0.1503  0.7140
  106MOL0     C13920   9.675   3.884  11.324  0.0002  0.1636  0.9368
  106MOL0     C13921   9.817   3.886  11.355  0.6917  0.1742 -0.8817
  106MOL0     C13922   9.873   4.020  11.326 -0.1833 -0.4506 -0.0557
  106MOL0     C13923   9.851   4.120  11.429 -0.8445  0.1260 -0.5123
  106MOL0     C13924   9.850   4.213  11.509 -0.1857 -0.7755  0.2954
  106MOL0     C13925   9.408   3.645  11.145 -0.9991  0.5724 -0.5052
  106MOL0     C13926   9.332   3.542  11.087 -0.8171  0.2921 -0.1053
  106MOL0     H13927   8.941   3.279  10.954 -2.4037 -1.8546 -1.8989
  106MOL0     H13928   8.760   3.117  10.906 -1.6027 -2.4572  1.1847
  106MOL0     H13929   8.619   2.927  10.883  3.1734 -0.4808  0.3528
  106MOL0     H13930   8.579   2.993  11.048  3.7728  1.1514  1.5105
  106MOL0     H13931   8.422   2.804  10.964  0.4532 -0.5595 -0.2135
  106MOL0     H13932   8.497   2.799  11.130  1.2181  2.7825  1.0187
  106MOL0     H13933   8.660   2.620  11.056  1.3422 -1.0668 -1.1601
  106MOL0     H13934   8.635   2.654  10.886 -3.4565 -0.5673 -2.5692
  106MOL0     H13935   8.427   2.541  11.071 -0.5877 -0.8361 -1.3117
  106MOL0     H13936   8.397   2.581  10.905 -2.6080 -1.6530  1.8348
  106MOL0     H13937   8.595   2.372  11.012  0.2290 -2.3086 -1.0548
  106MOL0     H13938   8.602   2.430  10.846 -0.2526 -1.2022 -0.2959
  106MOL0     H13939   8.352   2.378  10.843 -1.6842  0.1904  1.9526
  106MOL0     H13940   8.378   2.286  10.989  0.1591 -1.6723 -0.7620
  106MOL0     H13941   8.519   2.221  10.720 -0.7696  1.9917 -0.1722
  106MOL0     H13942   8.554   2.148  10.884  2.7598 -0.7214 -3.3645
  106MOL0     H13943   8.338   2.050  10.891 -5.0393 -0.7021 -2.0152
  106MOL0     H13944   8.412   2.012  10.729  0.2634  0.0279  0.2601
  106MOL0     H13945   8.277   2.248  10.547  0.0103 -0.9194 -1.6246
  106MOL0     H13946   8.065   2.373  10.509 -1.2363  2.0742 -0.5109
  106MOL0     H13947   7.917   2.357  10.585  1.4114  0.7401  0.4372
  106MOL0     H13948   8.002   2.122  10.419 -1.1644 -0.2182  0.6962
  106MOL0     H13949   7.938   2.273  10.342  1.3807 -0.5571 -0.0507
  106MOL0     H13950   7.786   2.101  10.562 -2.5775 -0.2549 -0.9087
  106MOL0     H13951   7.723   2.232  10.468 -1.6250 -1.7019  3.6844
  106MOL0     H13952   7.756   2.094  10.271  0.0947 -0.2538  0.2465
  106MOL0     H13953   7.643   2.012  10.370 -0.4480 -0.5032 -1.8252
  106MOL0     H13954   7.990   1.933  10.582 -0.4366  1.4021  4.0026
  106MOL0     H13955   7.972   1.789  10.788 -0.7720  0.7667  0.6431
  106MOL0     H13956   7.890   1.668  11.143  0.8645 -0.1631  1.8081
  106MOL0     H13957   7.845   1.521  11.352 -0.1898 -2.7535  2.1644
  106MOL0     H13958   7.620   1.346  11.361 -1.5833 -1.4356  2.3261
  106MOL0     H13959   7.719   1.390  11.508 -1.6304 -0.3822  1.5307
  106MOL0     H13960   7.603   1.135  11.425  1.5481 -0.8076 -0.7127
  106MOL0     H13961   7.522   1.229  11.537 -0.2292 -1.1180 -1.4522
  106MOL0     H13962   7.724   1.215  11.694  0.5047  1.1956 -2.0855
  106MOL0     H13963   7.813   1.126  11.581  0.8998 -0.3419  1.5445
  106MOL0     H13964   7.540   1.017  11.671  0.2299  1.7322 -0.6957
  106MOL0     H13965   7.680   0.935  11.597 -0.9370  1.4257 -0.4040
  106MOL0     H13966   7.703   1.051  11.868  0.6447 -0.5263 -0.2176
  106MOL0     H13967   7.800   0.925  11.785 -2.0941 -3.6630 -0.3586
  106MOL0     H13968   7.508   0.879  11.874 -0.1943 -1.3917  1.8655
  106MOL0     H13969   7.662   0.811  11.936 -1.9164 -1.1658  0.2405
  106MOL0     H13970   7.517   0.749  11.672  2.4414 -0.3506 -1.9864
  106MOL0     H13971   7.684   0.721  11.684  0.1921 -1.9395  1.1058
  106MOL0     H13972   7.660   0.588  11.894 -0.0544 -2.5684  0.3003
  106MOL0     H13973   7.567   0.509  11.761  0.3309  0.2812  0.7260
  106MOL0     H13974   7.808   1.180  11.099  1.4710 -0.3307  0.8885
  106MOL0     H13975   7.871   1.314  10.908 -1.3918  0.4493 -0.1351
  106MOL0     H13976   7.631   1.600  10.604 -0.7819  0.5966  1.1744
  106MOL0     H13977   7.650   1.739  10.411 -0.8998  1.4446 -0.0675
  106MOL0     H13978   8.873   2.898  11.253  0.1963 -0.2407  0.3493
  106MOL0     H13979   9.004   3.067  11.330 -0.3146 -1.5245 -0.1330
  106MOL0     H13980   9.179   3.438  11.379 -1.2715  2.5802 -0.3418
  106MOL0     H13981   9.306   3.595  11.473  1.4728  1.1826 -0.4633
  106MOL0     H13982   9.668   3.670  11.309  1.6089  1.6163  0.8125
  106MOL0     H13983   9.633   3.728  11.468 -1.4643 -1.1473  0.6218
  106MOL0     H13984   9.662   3.916  11.220 -0.1487 -1.8340  0.3037
  106MOL0     H13985   9.637   3.961  11.392  1.8187  2.1182 -0.1367
  106MOL0     H13986   9.855   3.818  11.278 -2.8459  0.8101 -3.4327
  106MOL0     H13987   9.838   3.848  11.455 -2.2932  0.4188 -0.0518
  106MOL0     H13988   9.981   4.003  11.317 -0.1281  0.7105 -2.4499
  106MOL0     H13989   9.842   4.058  11.228 -2.1309  3.0830  1.7529
  106MOL0     H13990   9.834   4.304  11.564 -0.1928 -0.5018 -0.1501
  106MOL0     H13991   9.479   3.711  11.097  1.4392  0.9571  3.2456
  106MOL0     H13992   9.341   3.517  10.982 -0.5047 -3.9810  0.7628
  107MOL0     O13993   8.315   9.713   8.893 -0.6093  0.3026 -0.9624
  107MOL0     C13994   8.435   9.743   8.862  0.0685  0.3170  0.0999
  107MOL0     O13995   8.473   9.775   8.738 -0.8518 -0.5071 -0.3826
  107MOL0     C13996   8.374   9.776   8.640 -0.1238  0.3048 -0.9678
  107MOL0     C13997   8.357   9.886   8.561 -0.2380 -0.4166  1.4085
  107MOL0     C13998   8.265   9.885   8.455 -0.6925 -0.5621 -0.3932
  107MOL0     C13999   8.189   9.770   8.436 -0.2354  0.8544  0.6344
  107MOL0     O14000   8.092   9.781   8.341  0.1555  0.7978 -0.6432
  107MOL0     C14001   7.985   9.685   8.351  1.0728  0.2402  0.0473
  107MOL0     C14002   7.860   9.727   8.277  0.5883 -0.0508  0.1412
  107MOL0     C14003   7.761   9.611   8.288  1.1749  0.8348  0.3552
  107MOL0     C14004   7.629   9.621   8.205  0.1879 -0.7174  0.0262
  107MOL0     C14005   7.554   9.490   8.195  1.1656  0.3466 -0.0364
  107MOL0     C14006   7.427   9.508   8.096 -0.0143  0.0113  1.0094
  107MOL0     C14007   7.306   9.576   8.169 -0.8071  0.5012  0.2617
  107MOL0     C14008   7.186   9.592   8.078 -0.3480 -0.1395 -0.6437
  107MOL0     N14009   7.109   9.465   8.085 -0.6217  0.1246  0.2047
  107MOL0     C14010   7.134   9.350   7.998  0.3945 -0.7095 -0.8946
  107MOL0     C14011   7.030   9.265   8.031  0.3573  0.8898 -0.1632
  107MOL0     C14012   6.987   9.140   7.958  0.8926 -0.0321 -0.0928
  107MOL0     C14013   6.855   9.072   8.010 -0.2685  0.3054  0.5998
  107MOL0     C14014   6.817   8.958   7.911 -0.2679 -0.1440  0.0302
  107MOL0     C14015   6.671   8.922   7.951  1.2270  0.3508  0.5571
  107MOL0     O14016   6.650   8.866   8.086 -1.2823  0.0924 -0.3018
  107MOL0     C14017   6.614   8.734   8.091 -0.4400  0.6100 -0.1633
  107MOL0     C14018   6.539   8.705   8.197 -0.1139 -0.3735 -0.6466
  107MOL0     C14019   6.505   8.573   8.235  0.2783  1.1271 -0.7005
  107MOL0     C14020   6.547   8.462   8.165  0.9490  0.3976 -0.1825
  107MOL0     C14021   6.513   8.325   8.218 -0.9554 -0.4861 -0.4637
  107MOL0     O14022   6.435   8.316   8.336 -0.2214  0.1035  0.0737
  107MOL0     C14023   6.367   8.194   8.352  0.2191  0.7754  0.1203
  107MOL0     C14024   6.246   8.179   8.277 -0.2946 -0.0427  0.3530
  107MOL0     C14025   6.181   8.052   8.282 -0.0514 -1.4669 -0.1684
  107MOL0     C14026   6.238   7.954   8.360 -0.6716  1.1135  0.5768
  107MOL0     O14027   6.173   7.835   8.367 -0.9673 -0.2875  0.4149
  107MOL0     C14028   6.257   7.719   8.346  0.2507 -1.2106  0.7036
  107MOL0     C14029   6.224   7.614   8.449  0.0897  0.1499  0.0416
  107MOL0     C14030   6.080   7.562   8.417  0.4581 -0.2554  0.0171
  107MOL0     C14031   6.068   7.425   8.490  0.2875  0.0415  0.8183
  107MOL0     C14032   5.928   7.379   8.500 -0.1239 -0.2702 -0.4026
  107MOL0     C14033   5.830   7.463   8.589 -0.2159 -0.8779  0.6331
  107MOL0     C14034   5.696   7.406   8.633  0.0519  0.5592 -0.0085
  107MOL0     C14035   5.708   7.297   8.748  0.4216  0.5287  1.0052
  107MOL0    Cl14036   5.556   7.281   8.834  0.0810  0.7553  0.4859
  107MOL0     C14037   6.358   7.969   8.435  0.4414  1.3687 -0.3016
  107MOL0     C14038   6.424   8.089   8.434 -0.2427 -1.1600  0.2935
  107MOL0     O14039   6.554   8.237   8.154 -0.2104 -0.5611  0.3746
  107MOL0     C14040   6.636   8.484   8.060 -0.5913 -0.4195 -0.0060
  107MOL0     C14041   6.661   8.619   8.024  0.4602  0.2015  1.5718
  107MOL0     N14042   6.964   9.329   8.140  0.0717 -0.5059  0.0158
  107MOL0     N14043   7.002   9.445   8.160  0.2361  0.2739  0.1617
  107MOL0     C14044   8.206   9.657   8.516 -0.1969 -0.5174  0.0004
  107MOL0     C14045   8.301   9.656   8.617  0.3017  0.0955  0.3957
  107MOL0     C14046   8.542   9.750   8.963 -1.0356 -0.7153 -0.4279
  107MOL0     C14047   8.641   9.840   8.944 -0.1926 -0.8733  0.1453
  107MOL0     C14048   8.741   9.850   9.031 -0.0329  0.1970 -0.5698
  107MOL0     C14049   8.744   9.783   9.153  0.3266 -0.7032 -0.6773
  107MOL0     O14050   8.832   9.800   9.254  0.3384  0.1575 -0.7144
  107MOL0     C14051   8.953   9.878   9.255 -0.0116 -0.1800  0.3405
  107MOL0     C14052   9.024   9.875   9.394  0.7699  0.1866 -0.4360
  107MOL0     C14053   9.079   9.733   9.420 -0.1266 -0.7777 -0.3677
  107MOL0     C14054   9.138   9.726   9.557  0.1161 -0.3917 -1.2647
  107MOL0     C14055   9.191   9.587   9.589  0.3157 -0.4721 -0.3211
  107MOL0     C14056   9.244   9.490   9.639  0.3381 -0.1462  0.7244
  107MOL0     C14057   8.633   9.698   9.177  0.0484  0.5549  0.8211
  107MOL0     C14058   8.535   9.676   9.075 -0.3188 -0.0244 -0.6374
  107MOL0     H14059   8.407   9.979   8.587  0.0622  0.3060 -1.4733
  107MOL0     H14060   8.253   9.974   8.394  2.1126 -0.1303 -0.4852
  107MOL0     H14061   7.955   9.665   8.455 -1.8319 -2.8456 -1.2006
  107MOL0     H14062   8.025   9.598   8.298  0.9712 -0.4184  1.0104
  107MOL0     H14063   7.890   9.746   8.173  2.4373  1.4854  0.9102
  107MOL0     H14064   7.816   9.824   8.300 -2.6132 -0.3880 -3.4559
  107MOL0     H14065   7.735   9.579   8.389  3.9594 -3.8109 -0.0834
  107MOL0     H14066   7.815   9.519   8.260 -1.0079 -0.1379 -0.9710
  107MOL0     H14067   7.564   9.703   8.236 -1.0049 -0.8540 -1.9608
  107MOL0     H14068   7.655   9.658   8.105  0.1714  2.2881  1.0341
  107MOL0     H14069   7.514   9.448   8.288  0.1046 -2.4091 -1.6282
  107MOL0     H14070   7.622   9.418   8.148 -0.9084 -1.4956 -0.3406
  107MOL0     H14071   7.393   9.409   8.065 -0.3140  0.2257  0.6500
  107MOL0     H14072   7.454   9.559   8.003 -0.1249 -0.9019  0.4586
  107MOL0     H14073   7.288   9.511   8.255  0.1801 -1.4863 -0.9620
  107MOL0     H14074   7.347   9.672   8.199  0.4634  0.1904 -0.4067
  107MOL0     H14075   7.216   9.612   7.974  3.2084  3.7221  0.8411
  107MOL0     H14076   7.130   9.680   8.110 -0.0725 -1.1555  3.0603
  107MOL0     H14077   7.189   9.341   7.905  1.6037 -2.6688 -0.0640
  107MOL0     H14078   7.068   9.066   7.960  0.3338 -0.6603  1.9249
  107MOL0     H14079   6.972   9.164   7.852 -1.9425 -1.6506 -0.1480
  107MOL0     H14080   6.773   9.143   8.002 -4.8882 -4.6287 -2.2104
  107MOL0     H14081   6.874   9.035   8.111  0.0767 -3.5810 -0.7130
  107MOL0     H14082   6.833   8.997   7.810 -0.5191  0.8161  0.3476
  107MOL0     H14083   6.885   8.873   7.927  2.6158  1.8619 -0.7867
  107MOL0     H14084   6.626   8.852   7.879 -1.9339 -0.2069  2.8813
  107MOL0     H14085   6.615   9.016   7.957 -1.1950 -0.9312 -0.6493
  107MOL0     H14086   6.511   8.795   8.252 -0.2756 -1.5853  1.3853
  107MOL0     H14087   6.451   8.566   8.328  1.2121 -0.0637 -0.2165
  107MOL0     H14088   6.224   8.265   8.214 -1.5394 -0.8178 -0.2995
  107MOL0     H14089   6.090   8.043   8.224  0.1018  3.3007 -1.5207
  107MOL0     H14090   6.363   7.745   8.350 -0.6343  3.4568 -0.2458
  107MOL0     H14091   6.229   7.682   8.247 -2.8603  2.0861  0.1746
  107MOL0     H14092   6.236   7.657   8.548 -2.7116  6.7037 -1.8872
  107MOL0     H14093   6.290   7.533   8.417  1.2571  1.6061 -1.4387
  107MOL0     H14094   6.056   7.548   8.312  1.3189 -0.8729 -0.0986
  107MOL0     H14095   6.015   7.647   8.443  1.2911  1.2983 -2.6407
  107MOL0     H14096   6.129   7.362   8.424 -2.4638 -2.3797  0.3887
  107MOL0     H14097   6.112   7.425   8.591 -3.3439  2.2632  2.5926
  107MOL0     H14098   5.921   7.273   8.526 -2.9980  0.2102  1.1211
  107MOL0     H14099   5.898   7.378   8.395  3.3722 -0.3078 -1.5364
  107MOL0     H14100   5.810   7.555   8.532 -1.1359  0.1125  2.4523
  107MOL0     H14101   5.881   7.490   8.682  0.0802 -1.3211  0.5990
  107MOL0     H14102   5.639   7.486   8.683 -0.7292 -1.1854  2.0511
  107MOL0     H14103   5.641   7.365   8.548  2.7964 -1.5690 -0.8855
  107MOL0     H14104   5.789   7.333   8.812  0.0459  3.4728  0.0197
  107MOL0     H14105   5.742   7.202   8.705 -2.2971  0.3833 -1.1082
  107MOL0     H14106   6.384   7.881   8.492 -2.4201 -1.5733 -3.0760
  107MOL0     H14107   6.510   8.096   8.500 -2.5444  0.9552  3.4504
  107MOL0     H14108   6.684   8.402   8.008 -2.7027 -1.7330  0.0193
  107MOL0     H14109   6.729   8.644   7.943 -0.2524 -3.1997 -0.2393
  107MOL0     H14110   8.149   9.567   8.497  0.2567 -1.1395  1.4136
  107MOL0     H14111   8.315   9.575   8.688  1.3921 -0.5690 -0.5408
  107MOL0     H14112   8.635   9.900   8.854 -0.1004  0.4570  0.9999
  107MOL0     H14113   8.818   9.917   8.995  0.1223  2.4889  3.4154
  107MOL0     H14114   8.934   9.981   9.222  3.0911  0.0690 -0.9558
  107MOL0     H14115   9.030   9.839   9.189  2.2319  3.2398  0.6928
  107MOL0     H14116   9.097   9.957   9.398  0.5796  0.3204  0.5371
  107MOL0     H14117   8.959   9.897   9.479  1.9131 -1.0575  0.8251
  107MOL0     H14118   9.159   9.697   9.355  1.0276  0.6540  0.1819
  107MOL0     H14119   8.992   9.668   9.423 -0.3613 -0.7238  5.4721
  107MOL0     H14120   9.218   9.800   9.572 -0.5142 -0.3815  4.2106
  107MOL0     H14121   9.065   9.748   9.636  0.0977 -2.7826 -0.5414
  107MOL0     H14122   9.286   9.411   9.698 -1.3664 -1.8421 -0.2371
  107MOL0     H14123   8.621   9.646   9.271 -1.0573 -1.3628 -0.3202
  107MOL0     H14124   8.454   9.606   9.091  1.6344 -1.9210  1.9431
  108MOL0     O14125   2.751   5.809   3.918  0.3645  0.1793 -0.0035
  108MOL0     C14126   2.762   5.820   4.038  0.4914  0.2180 -0.2213
  108MOL0     O14127   2.712   5.921   4.118 -0.2577  0.4875 -0.0381
  108MOL0     C14128   2.640   6.024   4.072 -0.3227 -0.1186  0.9794
  108MOL0     C14129   2.556   6.078   4.164  0.3596  0.0485 -0.6100
  108MOL0     C14130   2.486   6.198   4.142  0.5344  0.0256 -0.8543
  108MOL0     C14131   2.499   6.256   4.020  0.8481  0.4351 -0.4796
  108MOL0     O14132   2.434   6.375   3.998  0.2185  0.2589 -0.0416
  108MOL0     C14133   2.400   6.422   3.861  0.4476  0.0945  0.2235
  108MOL0     C14134   2.268   6.514   3.864 -0.3108  0.9687 -0.3589
  108MOL0     C14135   2.156   6.447   3.937  0.1633  0.4086 -0.4788
  108MOL0     C14136   2.038   6.534   3.943 -0.5471  0.3612 -0.1882
  108MOL0     C14137   1.947   6.507   4.056 -0.4659  0.0676 -0.4315
  108MOL0     C14138   1.898   6.362   4.041  0.4091 -1.1537  0.1012
  108MOL0     C14139   1.838   6.310   4.170 -0.5922  0.0897 -0.4978
  108MOL0     C14140   1.705   6.363   4.225 -0.7244 -1.0535  0.3884
  108MOL0     N14141   1.618   6.396   4.119  0.0304 -0.0464 -0.7720
  108MOL0     C14142   1.519   6.304   4.091  0.3686 -0.1890  0.2645
  108MOL0     C14143   1.455   6.370   3.987  0.9773 -0.6263 -1.2534
  108MOL0     C14144   1.363   6.329   3.874  0.0953 -0.1305  0.0489
  108MOL0     C14145   1.262   6.224   3.924  0.8521  0.0724 -0.0469
  108MOL0     C14146   1.169   6.267   4.042 -1.1367 -0.7530 -0.2246
  108MOL0     C14147   1.145   6.137   4.122  0.3454  0.6934 -0.5985
  108MOL0     O14148   1.112   6.181   4.250  0.2063 -0.4155 -0.5564
  108MOL0     C14149   0.997   6.248   4.257  0.7093  0.5556 -0.4564
  108MOL0     C14150   1.006   6.362   4.340  0.6521 -0.3646  0.3180
  108MOL0     C14151   0.890   6.443   4.348  0.2685  0.1196 -1.0171
  108MOL0     C14152   0.768   6.394   4.290  0.4341 -0.1505 -0.1443
  108MOL0     C14153   0.643   6.473   4.306  0.3282  0.3929 -0.1980
  108MOL0     O14154   0.651   6.597   4.371  0.6048 -0.2052  0.4025
  108MOL0     C14155   0.546   6.681   4.366 -0.1113 -0.5255  0.0509
  108MOL0     C14156   0.422   6.650   4.408  0.5353  0.6753 -0.4232
  108MOL0     C14157   0.314   6.731   4.390  0.2425 -0.6136 -0.0579
  108MOL0     C14158   0.338   6.866   4.352  0.1151 -0.8126 -0.8398
  108MOL0     O14159   0.226   6.946   4.352 -0.3385 -0.1103 -0.0101
  108MOL0     C14160   0.233   7.077   4.291  0.1091  0.3349  0.5199
  108MOL0     C14161   0.089   7.139   4.261 -0.0764  0.3218 -0.3130
  108MOL0     C14162   0.088   7.273   4.196  0.2301  0.0876  0.0340
  108MOL0     C14163  -0.051   7.333   4.221  1.1892 -0.0171 -0.3940
  108MOL0     C14164  -0.085   7.441   4.118  0.0717  0.3583  0.2635
  108MOL0     C14165  -0.225   7.506   4.144  0.5699  0.8428  0.9023
  108MOL0     C14166  -0.222   7.634   4.058 -0.6177 -0.3282  0.7685
  108MOL0     C14167  -0.355   7.705   4.029 -0.8326 -0.4961  0.3070
  108MOL0    Cl14168  -0.426   7.623   3.888 -0.1824  0.3120  0.4770
  108MOL0     C14169   0.467   6.904   4.314 -0.4242  0.5920 -0.3866
  108MOL0     C14170   0.567   6.809   4.322 -0.6849 -0.2320 -0.7952
  108MOL0     O14171   0.542   6.424   4.269  0.3740 -0.3493 -0.0720
  108MOL0     C14172   0.763   6.281   4.212 -0.4749  0.6278 -0.2661
  108MOL0     C14173   0.880   6.206   4.195 -0.2147  0.2972  0.3930
  108MOL0     N14174   1.498   6.504   3.985  1.0479  0.4266 -0.0304
  108MOL0     N14175   1.595   6.522   4.066 -0.1953  0.5999  0.3725
  108MOL0     C14176   2.584   6.209   3.929  0.1278  0.8459  0.6913
  108MOL0     C14177   2.660   6.093   3.952 -0.3943 -0.4035  0.4362
  108MOL0     C14178   2.863   5.737   4.106 -0.1721  0.7525 -0.5262
  108MOL0     C14179   2.942   5.648   4.026  0.1651 -0.2888 -0.1472
  108MOL0     C14180   3.055   5.586   4.094  0.2965 -0.8290  0.5488
  108MOL0     C14181   3.081   5.613   4.230  0.2076  0.2507 -0.1191
  108MOL0     O14182   3.179   5.548   4.310  0.3818 -0.2639  0.6396
  108MOL0     C14183   3.167   5.406   4.298  0.3899 -0.1112 -0.6028
  108MOL0     C14184   3.289   5.346   4.362 -0.9217  0.7082  0.3187
  108MOL0     C14185   3.429   5.387   4.299  0.1436  0.1266 -1.0296
  108MOL0     C14186   3.541   5.305   4.374 -0.0691  1.0042  0.0052
  108MOL0     C14187   3.506   5.155   4.372  0.0020  0.2110  0.0209
  108MOL0     C14188   3.459   5.041   4.361  0.9414 -0.3380 -0.2887
  108MOL0     C14189   3.009   5.709   4.304  0.5531 -0.2909 -0.8450
  108MOL0     C14190   2.900   5.769   4.235  0.7381  0.0774 -0.2905
  108MOL0     H14191   2.549   6.035   4.264  0.9956  2.4813  0.5597
  108MOL0     H14192   2.439   6.255   4.221 -0.8495  0.1312 -1.7066
  108MOL0     H14193   2.372   6.337   3.799 -2.5244  1.8557 -1.0273
  108MOL0     H14194   2.475   6.484   3.810  0.3519  2.0776  2.3310
  108MOL0     H14195   2.228   6.538   3.765  2.3865  3.3417 -1.0016
  108MOL0     H14196   2.305   6.607   3.908  3.7355 -1.1705  1.3340
  108MOL0     H14197   2.193   6.420   4.036  0.5858  0.2112 -0.6888
  108MOL0     H14198   2.132   6.358   3.878 -0.5514  0.4761 -0.2987
  108MOL0     H14199   2.047   6.643   3.946 -0.4177  0.3681  3.7155
  108MOL0     H14200   1.981   6.514   3.851 -1.0764  2.2584 -0.3313
  108MOL0     H14201   1.869   6.583   4.056 -0.2268  0.3173 -0.0699
  108MOL0     H14202   1.989   6.527   4.155  1.4376  2.4520 -1.6135
  108MOL0     H14203   1.975   6.290   4.012  2.2949  0.6077  0.4518
  108MOL0     H14204   1.830   6.369   3.956 -3.2893 -1.3046  2.8163
  108MOL0     H14205   1.825   6.201   4.165 -0.7767  0.1457 -1.4125
  108MOL0     H14206   1.908   6.322   4.254  0.4150 -3.9820 -0.5360
  108MOL0     H14207   1.724   6.455   4.281 -3.5950 -0.3718  0.4162
  108MOL0     H14208   1.665   6.280   4.284 -4.8346 -1.4656 -2.4715
  108MOL0     H14209   1.510   6.204   4.131  2.8823  0.7913  3.7209
  108MOL0     H14210   1.422   6.278   3.798  0.1764  2.2562 -1.5826
  108MOL0     H14211   1.309   6.413   3.829 -0.0746 -1.2677 -2.0241
  108MOL0     H14212   1.318   6.132   3.939  0.1039 -0.1295  1.6600
  108MOL0     H14213   1.198   6.197   3.839 -0.7843 -1.8118  1.7071
  108MOL0     H14214   1.228   6.327   4.112 -0.5008 -1.2689 -0.3053
  108MOL0     H14215   1.079   6.311   3.998 -0.8601  2.0999  1.8090
  108MOL0     H14216   1.235   6.076   4.140 -0.4688  0.0335  1.5084
  108MOL0     H14217   1.075   6.066   4.077 -0.1796  0.5778  0.3691
  108MOL0     H14218   1.098   6.385   4.392 -0.7064 -0.7152  3.0295
  108MOL0     H14219   0.895   6.542   4.393 -5.0649  3.0376 -5.5598
  108MOL0     H14220   0.403   6.559   4.463  2.4893  0.1601 -0.5168
  108MOL0     H14221   0.211   6.717   4.423  0.8766 -3.8214  0.9074
  108MOL0     H14222   0.281   7.061   4.193  1.2488  1.4776  0.8721
  108MOL0     H14223   0.295   7.154   4.338  0.5788 -1.3045  2.7299
  108MOL0     H14224   0.042   7.151   4.359  0.6930 -1.9806  0.4127
  108MOL0     H14225   0.026   7.066   4.209  1.5936 -0.6384 -1.0709
  108MOL0     H14226   0.107   7.254   4.090 -0.4321 -1.2074  0.1228
  108MOL0     H14227   0.160   7.336   4.250  2.1095 -1.9801  0.1183
  108MOL0     H14228  -0.122   7.252   4.202  0.7940  0.1504  0.3291
  108MOL0     H14229  -0.058   7.372   4.323  1.9227  1.9145 -1.0430
  108MOL0     H14230  -0.097   7.395   4.020 -0.2744  2.1897 -0.5828
  108MOL0     H14231  -0.012   7.522   4.125  0.5140  0.0841 -1.0933
  108MOL0     H14232  -0.229   7.523   4.252  1.1174 -1.4942  1.3558
  108MOL0     H14233  -0.308   7.448   4.103  1.8941 -1.2347  0.9640
  108MOL0     H14234  -0.160   7.700   4.118  0.3617  0.5805 -1.1498
  108MOL0     H14235  -0.165   7.613   3.967  0.7859 -0.3125  1.6130
  108MOL0     H14236  -0.332   7.811   4.017 -1.6410 -0.6042 -3.2548
  108MOL0     H14237  -0.424   7.693   4.112  1.2125  0.6008  2.2763
  108MOL0     H14238   0.503   7.002   4.284  1.7517  0.1106  0.4655
  108MOL0     H14239   0.667   6.831   4.288 -0.0000 -1.2846  0.4410
  108MOL0     H14240   0.675   6.252   4.157 -1.2258  3.6997 -0.8604
  108MOL0     H14241   0.881   6.108   4.147 -2.3081 -0.4095  1.6721
  108MOL0     H14242   2.598   6.264   3.836 -1.3979  0.6596  0.3269
  108MOL0     H14243   2.732   6.056   3.880 -1.5823 -0.0683 -0.9654
  108MOL0     H14244   2.916   5.640   3.921  1.6168  1.8741 -0.7458
  108MOL0     H14245   3.114   5.518   4.033  3.0368  2.4716 -0.8110
  108MOL0     H14246   3.162   5.384   4.191 -0.5542 -1.3944 -0.3236
  108MOL0     H14247   3.075   5.366   4.340  0.6899 -1.4564 -1.1809
  108MOL0     H14248   3.299   5.374   4.468 -1.9602 -1.3828  1.0287
  108MOL0     H14249   3.269   5.239   4.350  0.5219  0.6670 -2.2904
  108MOL0     H14250   3.438   5.495   4.309 -2.3771  0.1833  3.7319
  108MOL0     H14251   3.426   5.365   4.192  0.0121 -1.0819 -0.7962
  108MOL0     H14252   3.641   5.325   4.336  0.0924  3.3086  1.4187
  108MOL0     H14253   3.536   5.345   4.476  2.0364  3.2248 -0.6769
  108MOL0     H14254   3.445   4.935   4.360 -1.5467 -0.0739 -1.2209
  108MOL0     H14255   3.028   5.720   4.410  1.8341 -0.7087 -1.0165
  108MOL0     H14256   2.839   5.839   4.291 -1.8554 -2.5150  0.3848
  109MOL0     O14257   3.314   5.906   9.061  0.5618 -0.6903  0.6654
  109MOL0     C14258   3.207   5.883   9.122 -0.2622  0.3753 -0.1623
  109MOL0     O14259   3.087   5.865   9.073  0.0106  0.0920  0.2536
  109MOL0     C14260   3.070   5.960   8.972 -1.2965 -0.0161 -0.3611
  109MOL0     C14261   3.065   5.921   8.839  1.0385  0.2681  0.1153
  109MOL0     C14262   3.034   6.010   8.743  0.5757  0.5083  0.4153
  109MOL0     C14263   3.005   6.143   8.781 -0.8350 -0.0587  0.0254
  109MOL0     O14264   2.979   6.242   8.688  0.2521  0.0002  0.4643
  109MOL0     C14265   2.838   6.267   8.660 -0.3064  0.9430 -0.0504
  109MOL0     C14266   2.790   6.169   8.549  0.2279  0.9646 -0.2658
  109MOL0     C14267   2.724   6.039   8.605 -0.4202 -0.5152  0.2815
  109MOL0     C14268   2.726   5.942   8.483 -0.0209  0.6149  0.3449
  109MOL0     C14269   2.710   5.798   8.521  0.2772  0.1889 -0.0544
  109MOL0     C14270   2.669   5.719   8.401 -0.0401  0.0975 -0.1888
  109MOL0     C14271   2.521   5.728   8.367 -0.4690  0.2250 -0.8841
  109MOL0     C14272   2.444   5.621   8.453 -0.1824  0.1178  0.4128
  109MOL0     N14273   2.305   5.651   8.457  0.4284 -0.1518  0.1810
  109MOL0     C14274   2.218   5.622   8.355 -0.1780  0.2770  0.0187
  109MOL0     C14275   2.100   5.649   8.406 -0.5838 -0.4413 -0.0309
  109MOL0     C14276   1.969   5.656   8.334  0.1501 -0.2018 -1.2388
  109MOL0     C14277   1.939   5.518   8.267 -0.0997 -0.3204 -0.3413
  109MOL0     C14278   1.789   5.502   8.216 -0.2926  1.1453  1.0354
  109MOL0     C14279   1.743   5.592   8.100  0.4034 -0.1341 -0.4439
  109MOL0     O14280   1.802   5.545   7.981 -0.1241  0.4026  0.7121
  109MOL0     C14281   1.816   5.634   7.877  0.3887 -0.6432  0.1685
  109MOL0     C14282   1.932   5.626   7.792  1.0422 -0.1642  0.4090
  109MOL0     C14283   1.954   5.699   7.682  1.0013  0.4384 -0.3883
  109MOL0     C14284   1.855   5.795   7.646 -0.1582  0.2737 -1.9012
  109MOL0     C14285   1.870   5.890   7.536 -0.7722 -0.2659 -0.1329
  109MOL0     O14286   1.801   6.011   7.538  0.1000  0.1796  0.5352
  109MOL0     C14287   1.799   6.090   7.424  0.4498 -0.1570 -1.0687
  109MOL0     C14288   1.854   6.221   7.421 -0.0482  1.1128 -0.7106
  109MOL0     C14289   1.835   6.293   7.306  0.3067 -0.2801 -0.3603
  109MOL0     C14290   1.759   6.252   7.197  0.7520  1.2699  0.4029
  109MOL0     O14291   1.742   6.343   7.099  0.8924  0.7086 -0.7436
  109MOL0     C14292   1.594   6.355   7.054 -0.2481  0.5529  0.0164
  109MOL0     C14293   1.586   6.488   6.986  0.9969  0.4160 -0.0558
  109MOL0     C14294   1.464   6.518   6.900 -1.2040 -0.0310  0.8603
  109MOL0     C14295   1.470   6.646   6.812 -0.7366  0.6960  0.0615
  109MOL0     C14296   1.359   6.656   6.703 -0.1922  1.1728 -0.1699
  109MOL0     C14297   1.372   6.789   6.627  0.8747  0.6695 -0.3837
  109MOL0     C14298   1.281   6.783   6.500  0.3496 -0.1256 -0.1284
  109MOL0     C14299   1.145   6.835   6.519  0.3173 -0.0669  0.1777
  109MOL0    Cl14300   1.146   7.018   6.541  0.2043  0.0201  0.3701
  109MOL0     C14301   1.721   6.117   7.196  0.2860  0.7092  0.0626
  109MOL0     C14302   1.738   6.040   7.312 -0.6795 -0.4546  0.2878
  109MOL0     O14303   1.950   5.859   7.448  0.6906 -0.0483  0.3271
  109MOL0     C14304   1.744   5.821   7.744  0.1649  0.8089  0.9844
  109MOL0     C14305   1.718   5.734   7.845 -0.4391 -0.1634  0.0154
  109MOL0     N14306   2.113   5.671   8.537 -0.5652 -0.0297 -0.3789
  109MOL0     N14307   2.237   5.683   8.575 -0.4635  0.0694 -0.4143
  109MOL0     C14308   3.015   6.186   8.910  0.3248 -0.3064  0.1046
  109MOL0     C14309   3.049   6.093   9.009  0.0520  0.7098 -0.4506
  109MOL0     C14310   3.225   5.847   9.266  0.6497 -0.3464 -0.1927
  109MOL0     C14311   3.349   5.811   9.331 -0.9607  1.0901 -0.4499
  109MOL0     C14312   3.365   5.794   9.467  0.3413  0.3083  0.6775
  109MOL0     C14313   3.245   5.789   9.542  0.9825 -0.4556  0.2683
  109MOL0     O14314   3.240   5.757   9.670 -0.2309  0.6660  0.1817
  109MOL0     C14315   3.372   5.765   9.741  0.2419 -0.1232  0.4560
  109MOL0     C14316   3.344   5.742   9.890  0.4131 -0.8622 -0.7849
  109MOL0     C14317   3.270   5.614   9.915  0.5145  0.1685  0.5325
  109MOL0     C14318   3.362   5.494   9.892 -0.2814  0.1824  0.4601
  109MOL0     C14319   3.445   5.465  10.011 -0.5450  0.3155 -0.0373
  109MOL0     C14320   3.526   5.448  10.105  0.1798  0.0676  0.7132
  109MOL0     C14321   3.111   5.812   9.481  0.4055  0.0833  0.9818
  109MOL0     C14322   3.105   5.852   9.345  0.4268  0.0821 -0.7749
  109MOL0     H14323   3.069   5.813   8.828 -0.8246  0.1836 -0.0066
  109MOL0     H14324   3.040   5.996   8.636 -1.7783 -3.1390  0.5823
  109MOL0     H14325   2.821   6.363   8.609 -2.3048  0.3938 -0.4836
  109MOL0     H14326   2.780   6.264   8.752  3.6313  0.7296  2.6961
  109MOL0     H14327   2.867   6.144   8.475 -0.7676 -1.0007 -0.7054
  109MOL0     H14328   2.709   6.218   8.495  0.1524  1.0050 -0.1170
  109MOL0     H14329   2.623   6.056   8.645 -0.3487  2.6202 -0.6025
  109MOL0     H14330   2.787   5.998   8.684  1.9025  2.1772 -0.0074
  109MOL0     H14331   2.656   5.973   8.405  1.3370 -1.5587 -1.8996
  109MOL0     H14332   2.818   5.945   8.423  1.5939  2.2850  2.7311
  109MOL0     H14333   2.643   5.782   8.606  1.2434 -1.3047  0.4682
  109MOL0     H14334   2.806   5.756   8.552  0.1704  0.6358  0.9182
  109MOL0     H14335   2.693   5.612   8.405  1.6900  0.4883  0.9497
  109MOL0     H14336   2.725   5.752   8.313  2.7858 -3.1815  0.1710
  109MOL0     H14337   2.498   5.832   8.392 -0.7283 -0.2363  0.9516
  109MOL0     H14338   2.510   5.708   8.260 -0.1559 -0.6954 -0.7520
  109MOL0     H14339   2.482   5.619   8.555  0.3262 -3.9522  0.3044
  109MOL0     H14340   2.453   5.525   8.400 -1.5968 -0.0786  0.4988
  109MOL0     H14341   2.238   5.602   8.250  0.0495  2.3908 -0.3841
  109MOL0     H14342   1.973   5.740   8.264  0.2418  1.0145  0.1821
  109MOL0     H14343   1.887   5.673   8.404 -0.0275 -3.1195 -0.6160
  109MOL0     H14344   1.964   5.438   8.337 -0.6663 -2.8756 -2.8613
  109MOL0     H14345   2.015   5.518   8.188 -0.2415  0.3893 -0.4871
  109MOL0     H14346   1.775   5.395   8.196  3.6411  0.6583  0.2256
  109MOL0     H14347   1.724   5.533   8.298 -0.9394  0.4922  0.7840
  109MOL0     H14348   1.790   5.689   8.120 -1.1662  0.5117  0.2560
  109MOL0     H14349   1.636   5.613   8.096  1.0764  4.4757 -0.4254
  109MOL0     H14350   2.001   5.555   7.835 -1.2172 -0.9532  3.0273
  109MOL0     H14351   2.046   5.695   7.625  0.9062 -0.6201 -0.4776
  109MOL0     H14352   1.900   6.256   7.513  2.4721  3.1214 -2.5845
  109MOL0     H14353   1.879   6.392   7.306 -0.7096  0.2102 -1.6237
  109MOL0     H14354   1.520   6.328   7.130 -2.1354  0.4990 -1.7578
  109MOL0     H14355   1.573   6.276   6.981 -0.9887  0.4395  0.3501
  109MOL0     H14356   1.678   6.509   6.932  0.7829 -1.7342 -1.3923
  109MOL0     H14357   1.585   6.573   7.055 -1.6045  1.0056 -0.7228
  109MOL0     H14358   1.379   6.519   6.969 -0.6823 -2.2832  1.6351
  109MOL0     H14359   1.448   6.437   6.828  0.2133 -0.5334  1.0650
  109MOL0     H14360   1.469   6.730   6.881 -0.9901  1.3334 -0.7002
  109MOL0     H14361   1.569   6.659   6.767  1.3139  1.2349  4.2671
  109MOL0     H14362   1.262   6.660   6.752 -0.1938 -0.5783  0.0417
  109MOL0     H14363   1.378   6.574   6.633  2.9571  1.6086  0.0225
  109MOL0     H14364   1.477   6.806   6.600  1.4303  2.4184  2.4632
  109MOL0     H14365   1.334   6.872   6.687 -4.4181 -1.5079 -0.1795
  109MOL0     H14366   1.322   6.827   6.409 -0.2484  1.5857  0.3911
  109MOL0     H14367   1.273   6.676   6.478 -2.8944  0.4409 -2.4282
  109MOL0     H14368   1.104   6.801   6.615  0.7068  3.5673  1.7681
  109MOL0     H14369   1.088   6.806   6.430 -1.5369 -3.8329  2.3123
  109MOL0     H14370   1.655   6.078   7.119  0.7936  0.2953 -0.1777
  109MOL0     H14371   1.694   5.941   7.318 -2.8966  0.5272  1.7781
  109MOL0     H14372   1.666   5.890   7.716 -1.0953 -0.8540  0.2162
  109MOL0     H14373   1.631   5.739   7.911 -0.8098  0.5090 -0.5159
  109MOL0     H14374   2.991   6.286   8.944 -0.3224 -1.1076  2.1699
  109MOL0     H14375   3.052   6.126   9.113  0.8155 -0.7141  0.0022
  109MOL0     H14376   3.440   5.821   9.273 -0.9419 -1.2243 -0.9118
  109MOL0     H14377   3.462   5.766   9.508  1.0387 -1.2145 -1.8117
  109MOL0     H14378   3.415   5.865   9.728 -0.5542  1.1641  5.6575
  109MOL0     H14379   3.446   5.692   9.707  2.0821  1.3241  1.2108
  109MOL0     H14380   3.442   5.739   9.938 -0.4688 -0.8312  1.1383
  109MOL0     H14381   3.285   5.826   9.929  0.9234 -0.4238 -0.9441
  109MOL0     H14382   3.180   5.606   9.853  1.0479  1.6682 -0.4825
  109MOL0     H14383   3.233   5.621  10.017 -0.0307  1.6001  0.2548
  109MOL0     H14384   3.281   5.420   9.890 -2.5759  2.3675  3.2283
  109MOL0     H14385   3.432   5.506   9.809  1.8508 -0.7604  1.9936
  109MOL0     H14386   3.592   5.422  10.185  2.2834 -0.6641 -1.1509
  109MOL0     H14387   3.018   5.806   9.537  0.5372  0.6025  1.2706
  109MOL0     H14388   3.010   5.866   9.293  1.2522  0.9952 -2.1043
  110MOL0     O14389   8.140   5.884   9.712 -0.1267 -0.0953  0.1948
  110MOL0     C14390   8.069   5.855   9.618 -0.1335 -0.8265  0.4969
  110MOL0     O14391   8.114   5.836   9.493  0.2755 -0.2681  0.3593
  110MOL0     C14392   8.248   5.799   9.472 -0.0086 -0.9663  0.1616
  110MOL0     C14393   8.329   5.719   9.554  1.3173  0.3682 -0.4804
  110MOL0     C14394   8.462   5.691   9.516  0.3350 -0.2159  0.4253
  110MOL0     C14395   8.510   5.756   9.392 -0.3260  1.1755 -0.5242
  110MOL0     O14396   8.631   5.723   9.330  0.0593  0.4735  0.7298
  110MOL0     C14397   8.715   5.609   9.382 -0.0838 -0.1804 -0.1876
  110MOL0     C14398   8.784   5.669   9.505  0.1706  0.0307  0.3585
  110MOL0     C14399   8.897   5.584   9.565  0.2466  1.4668  0.1854
  110MOL0     C14400   8.980   5.645   9.675 -0.4771  0.4279  0.2299
  110MOL0     C14401   8.900   5.654   9.805  0.3461 -1.1951  0.2923
  110MOL0     C14402   8.983   5.717   9.923 -0.5693 -0.3358  1.2669
  110MOL0     C14403   9.088   5.626   9.982 -0.1878  0.3048  0.4131
  110MOL0     C14404   9.042   5.485  10.029 -0.0058  0.2762 -0.5566
  110MOL0     N14405   9.139   5.409  10.110 -0.5920 -0.4050  0.9135
  110MOL0     C14406   9.132   5.284  10.152  0.7061 -0.2621 -0.7574
  110MOL0     C14407   9.249   5.252  10.215  0.0223 -0.4190 -0.1058
  110MOL0     C14408   9.282   5.118  10.270 -0.3101  0.6672 -0.2667
  110MOL0     C14409   9.424   5.060  10.228 -0.1334 -0.8947  0.6656
  110MOL0     C14410   9.454   4.928  10.285  0.5546 -0.7278 -0.6467
  110MOL0     C14411   9.341   4.825  10.282 -0.5940  0.6150 -0.2103
  110MOL0     O14412   9.274   4.825  10.155  0.5847  0.1413 -0.5937
  110MOL0     C14413   9.312   4.733  10.058 -0.4601  0.1489 -0.0282
  110MOL0     C14414   9.417   4.642  10.059 -0.7686 -0.3344 -0.8407
  110MOL0     C14415   9.441   4.548   9.961 -0.2619  0.4557  0.1885
  110MOL0     C14416   9.363   4.549   9.842 -0.0627 -0.2604  0.3829
  110MOL0     C14417   9.378   4.444   9.729 -0.3706 -0.1160  0.0380
  110MOL0     O14418   9.470   4.346   9.744  0.7436 -0.0146 -0.6510
  110MOL0     C14419   9.458   4.241   9.652 -0.3967  0.8854 -0.2259
  110MOL0     C14420   9.559   4.220   9.556  0.1938 -0.1975  0.6032
  110MOL0     C14421   9.549   4.116   9.461 -0.5693  0.9434 -0.1790
  110MOL0     C14422   9.437   4.024   9.464  0.1871 -0.9635 -1.1162
  110MOL0     O14423   9.416   3.925   9.376  0.6129 -0.2617  0.1496
  110MOL0     C14424   9.516   3.902   9.267  0.0046  0.6003 -0.3211
  110MOL0     C14425   9.507   3.763   9.209 -1.5229 -0.1589  0.1874
  110MOL0     C14426   9.580   3.744   9.072 -0.5464 -1.7604  0.1528
  110MOL0     C14427   9.567   3.602   9.007  0.7486  0.1737  0.4818
  110MOL0     C14428   9.629   3.592   8.872  0.6572  0.5449 -0.2202
  110MOL0     C14429   9.778   3.618   8.869  0.4063 -1.1782 -0.7641
  110MOL0     C14430   9.824   3.568   8.726 -0.0268  1.3322 -0.4973
  110MOL0     C14431   9.977   3.576   8.717  0.1156 -0.8130  0.5930
  110MOL0    Cl14432  10.038   3.745   8.742 -0.0414  0.3407 -0.4161
  110MOL0     C14433   9.335   4.056   9.559  0.5279 -0.3382  0.1384
  110MOL0     C14434   9.345   4.161   9.648  0.1242 -0.9587 -0.4590
  110MOL0     O14435   9.302   4.459   9.629  0.1931  0.7728  0.7820
  110MOL0     C14436   9.255   4.642   9.836 -0.1122  0.0473 -0.2151
  110MOL0     C14437   9.230   4.732   9.938 -0.1210 -1.4722  0.0595
  110MOL0     N14438   9.316   5.370  10.210  0.5904 -0.0033 -0.6857
  110MOL0     N14439   9.256   5.467  10.154 -0.1394  0.2639 -0.4407
  110MOL0     C14440   8.432   5.848   9.322 -0.9330  0.3497 -0.0780
  110MOL0     C14441   8.304   5.870   9.368 -0.6182 -0.3984 -0.1700
  110MOL0     C14442   7.923   5.883   9.633  0.4473 -0.1643 -0.7346
  110MOL0     C14443   7.831   5.853   9.536  0.3097  0.3677  0.7571
  110MOL0     C14444   7.694   5.886   9.550  0.4330  0.6364 -0.2216
  110MOL0     C14445   7.644   5.936   9.669 -0.9867 -0.1409  0.2677
  110MOL0     O14446   7.520   5.979   9.699 -0.5316 -0.4021  0.8133
  110MOL0     C14447   7.430   5.988   9.590  0.6637  0.1084  0.3487
  110MOL0     C14448   7.296   6.037   9.646 -0.6037  0.3430  0.0685
  110MOL0     C14449   7.170   6.021   9.559  0.3919  0.0960  0.8716
  110MOL0     C14450   7.081   5.909   9.611  0.5861  0.4773  0.0558
  110MOL0     C14451   7.018   5.941   9.739 -0.5812  0.7045 -0.1816
  110MOL0     C14452   6.979   5.955   9.857 -1.6587 -0.3514  0.5141
  110MOL0     C14453   7.736   5.966   9.773 -0.5727 -0.1488 -0.3089
  110MOL0     C14454   7.875   5.943   9.754  0.4042 -0.0613  0.5768
  110MOL0     H14455   8.284   5.674   9.642 -1.0432 -0.5643 -2.0503
  110MOL0     H14456   8.514   5.619   9.580 -2.0609 -0.5666  2.1114
  110MOL0     H14457   8.795   5.598   9.309 -1.1001  3.9684 -2.2329
  110MOL0     H14458   8.652   5.522   9.406  0.9746 -0.6170  1.1373
  110MOL0     H14459   8.720   5.696   9.590  1.8999  0.9649  1.4109
  110MOL0     H14460   8.843   5.756   9.478  1.4693 -0.4634  1.5011
  110MOL0     H14461   8.960   5.551   9.482 -1.5685 -2.8435  0.2740
  110MOL0     H14462   8.862   5.492   9.611  2.6942  0.7892  0.8494
  110MOL0     H14463   9.059   5.572   9.691 -2.5422 -2.3841 -1.6250
  110MOL0     H14464   9.011   5.744   9.640  2.9005 -1.0562 -1.3699
  110MOL0     H14465   8.860   5.555   9.829  0.1064 -1.0850  0.3459
  110MOL0     H14466   8.820   5.727   9.792  1.8256 -0.0517 -3.4685
  110MOL0     H14467   8.919   5.730  10.010 -3.7525 -0.1648 -0.9216
  110MOL0     H14468   9.013   5.818   9.894 -1.5978 -1.1355 -3.4902
  110MOL0     H14469   9.174   5.622   9.914 -1.0924  0.1077 -0.7512
  110MOL0     H14470   9.115   5.682  10.072 -0.5213 -1.5551  1.7244
  110MOL0     H14471   9.014   5.421   9.946  1.4157  1.2855 -1.8759
  110MOL0     H14472   8.956   5.513  10.090  0.0420  1.5166 -1.0218
  110MOL0     H14473   9.046   5.223  10.128 -0.7784  2.0379 -1.6001
  110MOL0     H14474   9.206   5.046  10.237  1.0338 -1.3639  0.7984
  110MOL0     H14475   9.284   5.130  10.379  0.5685  0.1907 -0.2242
  110MOL0     H14476   9.507   5.125  10.258 -0.8072  0.2722  0.0834
  110MOL0     H14477   9.431   5.047  10.119 -1.2514 -1.9431  0.6996
  110MOL0     H14478   9.543   4.894  10.232  2.0069  1.3031  0.3624
  110MOL0     H14479   9.479   4.946  10.389 -1.7355  1.0422 -0.3100
  110MOL0     H14480   9.274   4.827  10.368 -0.0525 -1.0718  0.2887
  110MOL0     H14481   9.369   4.720  10.297 -2.2020  0.3287  1.1348
  110MOL0     H14482   9.480   4.644  10.147  3.2453  1.0595 -3.4673
  110MOL0     H14483   9.511   4.467   9.980  1.1887  1.7357  0.5380
  110MOL0     H14484   9.647   4.284   9.557 -0.6223  1.1816 -2.9295
  110MOL0     H14485   9.633   4.097   9.395  0.0129 -0.8559  1.0109
  110MOL0     H14486   9.620   3.917   9.300 -0.0447  2.0391 -0.7597
  110MOL0     H14487   9.501   3.968   9.181  1.5693  0.7252 -0.5268
  110MOL0     H14488   9.407   3.729   9.180 -1.0968 -1.2678 -0.0096
  110MOL0     H14489   9.540   3.690   9.283 -3.8701 -4.0021 -2.2127
  110MOL0     H14490   9.687   3.762   9.083  0.0904 -3.0512 -2.7606
  110MOL0     H14491   9.532   3.813   9.002 -3.6642 -2.7920  1.1009
  110MOL0     H14492   9.616   3.534   9.077 -1.3461  0.2058  2.0768
  110MOL0     H14493   9.462   3.576   8.991  0.3021  2.4691 -0.8225
  110MOL0     H14494   9.579   3.668   8.811 -2.6695 -0.2878  1.2899
  110MOL0     H14495   9.597   3.493   8.838 -0.1773  1.1778 -1.3659
  110MOL0     H14496   9.815   3.561   8.955  0.8710  1.6787  1.0819
  110MOL0     H14497   9.786   3.725   8.889 -2.5854 -1.1933  1.2523
  110MOL0     H14498   9.794   3.465   8.701  1.4109  0.4295  1.2309
  110MOL0     H14499   9.783   3.639   8.653 -2.0514 -1.4899 -2.3408
  110MOL0     H14500  10.005   3.544   8.616 -0.4371 -1.8795  0.7645
  110MOL0     H14501  10.025   3.501   8.781  0.8262 -0.2541  0.7325
  110MOL0     H14502   9.247   3.994   9.545  1.3445 -1.1702 -1.5999
  110MOL0     H14503   9.260   4.169   9.716  0.3956 -1.3421 -0.0690
  110MOL0     H14504   9.191   4.640   9.748  2.1879  1.7508 -2.0556
  110MOL0     H14505   9.149   4.804   9.932  0.2583 -0.9870  0.6461
  110MOL0     H14506   8.477   5.905   9.242  0.8123 -2.9809 -1.6602
  110MOL0     H14507   8.245   5.942   9.311  2.2524  0.9997 -1.6021
  110MOL0     H14508   7.860   5.808   9.441 -2.4668 -0.4046  0.1750
  110MOL0     H14509   7.618   5.855   9.480  2.0308 -3.2437 -0.5054
  110MOL0     H14510   7.419   5.884   9.560  0.8768 -0.7355  2.9461
  110MOL0     H14511   7.473   6.047   9.509  0.2189 -0.7711 -0.5527
  110MOL0     H14512   7.281   5.977   9.737 -1.8401 -3.9422 -2.6543
  110MOL0     H14513   7.299   6.141   9.681 -4.0700  0.4202  0.5166
  110MOL0     H14514   7.195   5.997   9.456  0.7914  0.5661  0.8581
  110MOL0     H14515   7.110   6.112   9.548  0.3554 -0.1175 -1.0019
  110MOL0     H14516   7.012   5.897   9.527 -1.0922  0.2728  1.4162
  110MOL0     H14517   7.156   5.830   9.625  1.5572  1.6625  1.9517
  110MOL0     H14518   6.949   5.970   9.959 -2.5820 -0.2562  0.2407
  110MOL0     H14519   7.696   6.024   9.856  0.2086  0.8695 -0.6278
  110MOL0     H14520   7.944   5.959   9.836  2.0604 -1.4256 -0.4905
  111MOL0     O14521   3.529   6.169   2.050  0.1562  0.4977  0.9552
  111MOL0     C14522   3.638   6.120   2.044 -0.5856 -0.0732  0.6139
  111MOL0     O14523   3.746   6.164   2.109  0.0092 -0.0068  0.5488
  111MOL0     C14524   3.733   6.272   2.195  1.0489  0.7800 -0.4353
  111MOL0     C14525   3.725   6.258   2.341  0.0368 -0.2176  1.0188
  111MOL0     C14526   3.712   6.370   2.421 -0.3837 -0.1917 -0.4156
  111MOL0     C14527   3.687   6.497   2.364 -0.7910  1.3133 -0.7078
  111MOL0     O14528   3.668   6.611   2.438  0.8070  0.0714  0.7490
  111MOL0     C14529   3.707   6.615   2.579  0.9594  0.5620  0.0904
  111MOL0     C14530   3.765   6.756   2.611  0.0918 -0.8872 -0.1273
  111MOL0     C14531   3.648   6.859   2.582 -0.0569 -1.1173 -0.1646
  111MOL0     C14532   3.676   7.008   2.638 -0.5678 -0.0780  0.5888
  111MOL0     C14533   3.554   7.075   2.688  0.4860  0.6835  0.2128
  111MOL0     C14534   3.484   7.180   2.598 -0.2961 -0.4503 -0.6620
  111MOL0     C14535   3.359   7.250   2.663  0.8205 -0.2310 -0.5207
  111MOL0     C14536   3.321   7.375   2.576 -0.2614  0.4711 -0.3181
  111MOL0     N14537   3.423   7.472   2.570 -0.2622  0.1436 -0.6556
  111MOL0     C14538   3.462   7.552   2.677  0.3208 -1.3460  0.3895
  111MOL0     C14539   3.569   7.629   2.628  0.5176 -0.1274 -0.4736
  111MOL0     C14540   3.636   7.740   2.718  0.1708 -0.0163 -0.2723
  111MOL0     C14541   3.633   7.881   2.654  0.0118  0.3395 -0.2601
  111MOL0     C14542   3.484   7.929   2.676  0.8173 -0.4537  0.3995
  111MOL0     C14543   3.449   8.059   2.606 -0.6869 -0.0125 -0.4494
  111MOL0     O14544   3.526   8.164   2.672 -0.4280 -0.2271  0.1776
  111MOL0     C14545   3.608   8.255   2.606  0.3281  0.6790 -0.2333
  111MOL0     C14546   3.707   8.212   2.526 -0.3014 -0.3422  0.1582
  111MOL0     C14547   3.784   8.296   2.439  0.5855  0.5025 -0.2107
  111MOL0     C14548   3.765   8.431   2.448 -0.0769 -0.5989  0.9794
  111MOL0     C14549   3.845   8.520   2.368 -1.1345 -0.3988 -0.3865
  111MOL0     O14550   3.831   8.655   2.383  0.2467 -0.2768  0.9013
  111MOL0     C14551   3.878   8.757   2.299  0.3980 -0.8825  0.8731
  111MOL0     C14552   3.787   8.860   2.276 -0.6946  0.1616  0.0250
  111MOL0     C14553   3.819   8.969   2.197 -0.4851  0.2528 -0.7727
  111MOL0     C14554   3.939   8.972   2.129 -0.1979 -0.1733  0.9291
  111MOL0     O14555   3.960   9.080   2.049 -0.0712  0.3206  0.2054
  111MOL0     C14556   4.092   9.140   2.068 -0.7536 -0.6285 -0.1469
  111MOL0     C14557   4.097   9.286   2.007  0.4439  0.2023  0.0945
  111MOL0     C14558   4.051   9.396   2.109 -0.1655  0.8058 -0.2539
  111MOL0     C14559   4.050   9.520   2.021 -0.7184  0.1549 -0.5431
  111MOL0     C14560   3.978   9.644   2.076 -0.3320  1.2279  0.3377
  111MOL0     C14561   3.986   9.748   1.963  0.4956 -0.9329  0.0117
  111MOL0     C14562   3.923   9.877   1.998  0.6794 -1.0598 -0.0805
  111MOL0     C14563   3.972   9.949   2.121 -0.3503 -0.2742 -0.2240
  111MOL0    Cl14564   4.145   9.999   2.089  0.2948 -0.1074  0.7306
  111MOL0     C14565   4.036   8.862   2.144 -0.2470 -0.3342 -0.8630
  111MOL0     C14566   4.007   8.758   2.235 -0.0701  0.3313 -0.9453
  111MOL0     O14567   3.928   8.466   2.288 -0.4020  0.5768 -0.3714
  111MOL0     C14568   3.669   8.481   2.537 -0.3331 -0.4272  0.9040
  111MOL0     C14569   3.591   8.396   2.611  0.2354  0.5428  0.9636
  111MOL0     N14570   3.589   7.593   2.492  0.3638  0.7450 -0.1689
  111MOL0     N14571   3.502   7.500   2.459  0.6207  0.5288 -0.7001
  111MOL0     C14572   3.688   6.512   2.226 -0.5157 -0.1622  0.2223
  111MOL0     C14573   3.711   6.396   2.139 -0.9483 -0.4322  0.0866
  111MOL0     C14574   3.663   5.994   1.972 -0.6659 -0.8405  0.5517
  111MOL0     C14575   3.576   5.964   1.862 -0.9638 -0.2651  0.2301
  111MOL0     C14576   3.590   5.845   1.787 -0.9391  0.5865  0.3058
  111MOL0     C14577   3.687   5.750   1.816  1.3618 -0.2809 -0.5752
  111MOL0     O14578   3.685   5.638   1.735  0.8399 -0.1602 -0.0794
  111MOL0     C14579   3.779   5.535   1.752  0.2012  0.4348 -0.6270
  111MOL0     C14580   3.740   5.410   1.667  0.7159 -0.1242 -0.9945
  111MOL0     C14581   3.781   5.443   1.525  0.5986  0.6916 -0.1836
  111MOL0     C14582   3.761   5.337   1.419 -0.0094 -0.8026 -0.1573
  111MOL0     C14583   3.850   5.217   1.432  0.3874  0.5800 -0.1603
  111MOL0     C14584   3.924   5.125   1.459 -0.4730 -0.3484 -0.4576
  111MOL0     C14585   3.783   5.781   1.920  0.3220 -0.3462 -0.7022
  111MOL0     C14586   3.763   5.896   1.997 -0.1065 -0.6217  0.9668
  111MOL0     H14587   3.734   6.160   2.386  4.6001  0.1264  1.2893
  111MOL0     H14588   3.717   6.362   2.529 -2.2931 -1.9900 -0.3823
  111MOL0     H14589   3.786   6.540   2.579  0.1364 -0.3343 -0.7985
  111MOL0     H14590   3.628   6.598   2.652  2.1729  0.8454  1.5103
  111MOL0     H14591   3.846   6.769   2.539  1.1745  2.2485  1.4761
  111MOL0     H14592   3.808   6.764   2.712  3.3355  1.6326 -1.5262
  111MOL0     H14593   3.559   6.817   2.630 -0.2391  0.7258  1.2417
  111MOL0     H14594   3.639   6.869   2.473 -0.1968 -3.6884 -0.4506
  111MOL0     H14595   3.760   6.996   2.708  0.3863 -2.1975 -0.8359
  111MOL0     H14596   3.718   7.067   2.556  0.5595 -1.4496  0.1340
  111MOL0     H14597   3.589   7.123   2.781 -0.0560 -0.6259  1.1186
  111MOL0     H14598   3.482   7.001   2.723  2.5509 -0.2219  2.9496
  111MOL0     H14599   3.448   7.134   2.506  0.5002  1.3855 -1.9501
  111MOL0     H14600   3.561   7.256   2.587  0.2896 -0.4232  2.6567
  111MOL0     H14601   3.270   7.186   2.666  0.1845  0.5448 -1.9160
  111MOL0     H14602   3.373   7.259   2.771  0.5579 -1.5800 -0.3449
  111MOL0     H14603   3.225   7.413   2.613 -1.7756  1.8418 -4.9570
  111MOL0     H14604   3.319   7.344   2.471  0.6208  1.2660 -0.5810
  111MOL0     H14605   3.414   7.594   2.765  0.8055  4.2438 -1.6073
  111MOL0     H14606   3.740   7.708   2.725 -0.6411 -3.0123 -0.3384
  111MOL0     H14607   3.586   7.730   2.815 -0.0584 -1.3952 -0.4989
  111MOL0     H14608   3.639   7.865   2.546 -1.7247 -2.0230 -0.1078
  111MOL0     H14609   3.710   7.948   2.692  0.1507  2.0077 -3.2187
  111MOL0     H14610   3.409   7.862   2.633  1.7302 -0.8046 -0.6801
  111MOL0     H14611   3.460   7.936   2.783  2.2480  0.4000  0.6857
  111MOL0     H14612   3.345   8.086   2.625 -1.2076  0.4621 -3.4662
  111MOL0     H14613   3.479   8.047   2.502  0.6269 -2.0000  0.1108
  111MOL0     H14614   3.732   8.107   2.531  0.6430 -0.1609 -0.4245
  111MOL0     H14615   3.860   8.260   2.370  1.6791  1.0018  0.7073
  111MOL0     H14616   3.700   8.861   2.340 -1.4881  0.4726 -1.0395
  111MOL0     H14617   3.753   9.053   2.174 -2.2954 -0.3799  1.6903
  111MOL0     H14618   4.166   9.077   2.019 -0.9833 -2.5273  1.7925
  111MOL0     H14619   4.122   9.153   2.172  0.2352  3.0942 -0.7476
  111MOL0     H14620   4.034   9.280   1.917  1.2906 -0.6583 -0.4537
  111MOL0     H14621   4.193   9.322   1.969 -0.9428  3.9318 -0.3063
  111MOL0     H14622   4.093   9.413   2.208 -2.3131  0.9250  0.6929
  111MOL0     H14623   3.947   9.371   2.130  0.5706 -1.5478  0.9564
  111MOL0     H14624   4.153   9.550   2.000 -0.1894 -2.9584 -3.1927
  111MOL0     H14625   4.007   9.501   1.922 -1.1373  2.3007 -0.8286
  111MOL0     H14626   4.027   9.683   2.166 -0.0595 -2.6066  2.0856
  111MOL0     H14627   3.875   9.619   2.105  0.8791 -1.4527  2.8969
  111MOL0     H14628   3.944   9.713   1.869 -0.7285 -0.1177  0.2348
  111MOL0     H14629   4.090   9.775   1.940  0.8458  1.3025  3.4753
  111MOL0     H14630   3.927   9.948   1.915 -2.9043 -0.8114 -0.2015
  111MOL0     H14631   3.823   9.843   2.025  1.1330 -2.1196  0.2992
  111MOL0     H14632   3.973   9.873   2.200 -0.3435 -1.9126 -1.7425
  111MOL0     H14633   3.912  10.037   2.144 -2.6101 -2.3626  2.7776
  111MOL0     H14634   4.135   8.867   2.099  0.1613  3.5021  0.1181
  111MOL0     H14635   4.075   8.676   2.250 -1.0956 -0.2038  1.1440
  111MOL0     H14636   3.647   8.587   2.547 -1.7160 -0.4278 -1.4634
  111MOL0     H14637   3.516   8.437   2.678 -1.9833  1.3252 -1.8005
  111MOL0     H14638   3.669   6.616   2.202  0.2540 -0.0955 -0.1307
  111MOL0     H14639   3.732   6.413   2.033  1.1993 -1.2399  0.3308
  111MOL0     H14640   3.488   6.023   1.839 -0.1870  0.4656 -0.9193
  111MOL0     H14641   3.532   5.820   1.699  0.3875 -1.3492 -0.0875
  111MOL0     H14642   3.785   5.509   1.858  1.7214  2.5024 -0.1447
  111MOL0     H14643   3.882   5.564   1.728  0.4732 -1.4681 -2.0176
  111MOL0     H14644   3.784   5.321   1.713  1.9329  1.1838  0.5036
  111MOL0     H14645   3.632   5.393   1.664  0.7611 -0.2336 -2.2361
  111MOL0     H14646   3.887   5.469   1.516  0.0304  3.7302  0.9032
  111MOL0     H14647   3.733   5.532   1.485 -4.3089 -0.9762  1.3379
  111MOL0     H14648   3.662   5.292   1.431  0.6549 -2.1478  0.5402
  111MOL0     H14649   3.779   5.383   1.322  2.5794  1.6889  1.3222
  111MOL0     H14650   3.984   5.040   1.484  1.6279  0.5219 -2.2391
  111MOL0     H14651   3.864   5.714   1.945  0.1779  0.0675  1.0217
  111MOL0     H14652   3.832   5.905   2.080  2.8568  0.8069 -1.4601
  112MOL0     O14653   4.159   5.121   0.862  0.0380 -0.0316  0.2775
  112MOL0     C14654   4.251   5.141   0.779  0.9712 -0.3045 -0.9659
  112MOL0     O14655   4.238   5.205   0.659 -0.1270  0.3916  0.3023
  112MOL0     C14656   4.119   5.250   0.599  0.0837  0.4558 -0.8101
  112MOL0     C14657   3.982   5.238   0.650 -0.2325  0.9732 -0.0614
  112MOL0     C14658   3.878   5.306   0.583 -0.2104  0.8555 -0.1890
  112MOL0     C14659   3.904   5.398   0.484  0.3027 -1.2065  0.3968
  112MOL0     O14660   3.791   5.447   0.423 -0.3262 -0.3735 -0.5268
  112MOL0     C14661   3.808   5.536   0.304 -0.8243 -0.0497 -0.2723
  112MOL0     C14662   3.676   5.618   0.272  0.0917  0.1131  0.6322
  112MOL0     C14663   3.552   5.531   0.245  0.7089 -0.0766  0.0344
  112MOL0     C14664   3.424   5.614   0.242  1.2389  0.3034 -0.1988
  112MOL0     C14665   3.295   5.532   0.250 -0.3689  0.9830  0.3854
  112MOL0     C14666   3.177   5.613   0.289 -0.2738  0.4561 -0.5112
  112MOL0     C14667   3.047   5.539   0.241 -0.2926  0.2202  0.4920
  112MOL0     C14668   3.025   5.418   0.327  0.3857 -0.2936 -0.0517
  112MOL0     N14669   2.913   5.332   0.290  0.1683 -0.9536 -0.0986
  112MOL0     C14670   2.804   5.313   0.371 -0.4599  0.2731  0.8493
  112MOL0     C14671   2.725   5.216   0.303  0.9365 -0.7720  0.5718
  112MOL0     C14672   2.590   5.179   0.333  0.3374  0.1535 -1.7277
  112MOL0     C14673   2.484   5.269   0.279 -0.9878 -0.2854 -0.0468
  112MOL0     C14674   2.453   5.248   0.133 -0.5975  0.2252 -0.2643
  112MOL0     C14675   2.335   5.323   0.092 -0.4542 -1.6260  0.5288
  112MOL0     O14676   2.303   5.302  -0.046  0.7456  0.4691 -0.2701
  112MOL0     C14677   2.270   5.170  -0.095 -0.0657  0.6479 -0.5139
  112MOL0     C14678   2.281   5.138  -0.230 -0.5149 -0.6404  0.2104
  112MOL0     C14679   2.257   5.015  -0.278  0.2684 -0.5635 -0.3097
  112MOL0     C14680   2.227   4.907  -0.198 -0.5821  0.3424  0.1258
  112MOL0     C14681   2.208   4.775  -0.255  0.7105 -0.1580  0.6484
  112MOL0     O14682   2.216   4.760  -0.388  0.0381  0.6421  0.2314
  112MOL0     C14683   2.233   4.640  -0.450 -0.2399  0.0599  0.1534
  112MOL0     C14684   2.122   4.551  -0.461  0.0857 -0.2357  0.9328
  112MOL0     C14685   2.132   4.447  -0.562  0.0113  0.3898 -0.4248
  112MOL0     C14686   2.244   4.427  -0.635 -0.7087  1.1936  0.2985
  112MOL0     O14687   2.261   4.314  -0.722 -0.5171  0.4801 -0.0872
  112MOL0     C14688   2.393   4.261  -0.752  0.0626 -0.0396  0.5786
  112MOL0     C14689   2.388   4.111  -0.739  0.0729 -0.4433 -0.6304
  112MOL0     C14690   2.309   4.056  -0.614  0.4499  0.2731  0.5191
  112MOL0     C14691   2.386   4.091  -0.488  1.0667 -0.6852 -0.0624
  112MOL0     C14692   2.288   4.111  -0.370  0.0069  0.3493  1.0498
  112MOL0     C14693   2.211   3.973  -0.341 -0.3646 -0.4903 -0.6739
  112MOL0     C14694   2.159   3.969  -0.195  0.8695  0.3324  0.1352
  112MOL0     C14695   2.081   3.833  -0.173  0.3908 -0.6758  0.7693
  112MOL0    Cl14696   1.911   3.829  -0.162  0.8204  0.1696 -0.4450
  112MOL0     C14697   2.357   4.514  -0.630  0.4065 -0.6096  0.2535
  112MOL0     C14698   2.336   4.627  -0.544 -0.1958 -0.3186  0.1962
  112MOL0     O14699   2.173   4.686  -0.176 -0.9598  0.3410  0.1500
  112MOL0     C14700   2.218   4.931  -0.062 -0.3111 -0.3275 -0.2432
  112MOL0     C14701   2.233   5.064  -0.015 -0.1779 -0.5117 -0.2452
  112MOL0     N14702   2.789   5.194   0.174 -0.0924 -0.1768 -0.5046
  112MOL0     N14703   2.906   5.252   0.172 -0.4840  0.1883 -0.6449
  112MOL0     C14704   4.042   5.401   0.430  0.3195 -0.4551 -0.2925
  112MOL0     C14705   4.139   5.329   0.488 -0.0674  0.3688  0.5191
  112MOL0     C14706   4.363   5.056   0.799 -0.3299 -1.2314 -0.0329
  112MOL0     C14707   4.370   4.961   0.900  0.4440 -0.0981 -0.1880
  112MOL0     C14708   4.474   4.872   0.905 -0.2900  0.3676  0.3766
  112MOL0     C14709   4.581   4.886   0.814 -0.4635  0.3548  0.9813
  112MOL0     O14710   4.678   4.784   0.791 -0.0878  0.0004 -0.3844
  112MOL0     C14711   4.667   4.673   0.887  0.0557 -1.0259  1.1864
  112MOL0     C14712   4.767   4.567   0.854 -0.2550  0.4985  1.0431
  112MOL0     C14713   4.725   4.513   0.716 -0.3766  0.1439 -0.2652
  112MOL0     C14714   4.797   4.385   0.682 -0.0711  0.6711  0.1469
  112MOL0     C14715   4.947   4.400   0.683 -0.3609 -1.2236 -1.0014
  112MOL0     C14716   5.064   4.419   0.678  0.5632 -0.4580 -0.1178
  112MOL0     C14717   4.584   4.986   0.724  0.1422  0.4059  0.5229
  112MOL0     C14718   4.474   5.067   0.705 -0.2280  0.1175  0.3383
  112MOL0     H14719   3.947   5.174   0.730  0.3699  0.8730  0.1278
  112MOL0     H14720   3.780   5.282   0.622  0.8043 -2.4959  0.6155
  112MOL0     H14721   3.831   5.483   0.210  1.3587  2.3802 -1.2212
  112MOL0     H14722   3.876   5.620   0.320 -1.9023  1.6378 -3.5321
  112MOL0     H14723   3.686   5.686   0.186 -2.3015  0.7659  0.7860
  112MOL0     H14724   3.652   5.680   0.359 -0.9214  1.0946 -0.3135
  112MOL0     H14725   3.544   5.460   0.329 -1.1845  0.3729  0.2890
  112MOL0     H14726   3.563   5.478   0.150 -1.5910  0.8056 -0.8030
  112MOL0     H14727   3.428   5.682   0.327  1.1021  0.5659 -0.4009
  112MOL0     H14728   3.418   5.666   0.146  1.0394 -1.8260 -1.4156
  112MOL0     H14729   3.297   5.460   0.333 -1.1053  1.6346  1.0008
  112MOL0     H14730   3.290   5.476   0.156  2.3409  2.4885 -0.7526
  112MOL0     H14731   3.174   5.714   0.246  3.3115  0.3686 -1.2582
  112MOL0     H14732   3.172   5.619   0.398 -0.8950 -2.4860 -0.3099
  112MOL0     H14733   2.964   5.610   0.247  0.9897  1.8620 -0.4839
  112MOL0     H14734   3.040   5.501   0.139 -1.3656 -0.3741  0.7708
  112MOL0     H14735   3.004   5.457   0.427  1.2133  2.4306 -0.8731
  112MOL0     H14736   3.116   5.357   0.329  0.3031 -0.5771 -2.3563
  112MOL0     H14737   2.764   5.361   0.460  0.9904  0.5645  1.3661
  112MOL0     H14738   2.596   5.189   0.441  0.8480 -2.6831 -1.4128
  112MOL0     H14739   2.587   5.073   0.308  2.6964 -0.9838  2.0242
  112MOL0     H14740   2.511   5.375   0.277 -1.3407 -0.1802  0.5451
  112MOL0     H14741   2.386   5.261   0.326  0.6408 -0.3238  3.6632
  112MOL0     H14742   2.542   5.280   0.078 -0.4516  0.0695 -0.1238
  112MOL0     H14743   2.436   5.140   0.121  3.7128 -0.7215  0.1958
  112MOL0     H14744   2.337   5.431   0.105 -0.2324 -1.6665  0.8539
  112MOL0     H14745   2.258   5.282   0.159 -2.3290  0.2246 -0.3924
  112MOL0     H14746   2.311   5.217  -0.299  1.1358  0.7103  2.3410
  112MOL0     H14747   2.270   5.003  -0.385 -1.2525  2.8098 -1.0216
  112MOL0     H14748   2.034   4.554  -0.397  0.0647 -3.8833  1.2483
  112MOL0     H14749   2.051   4.379  -0.587  1.3189 -1.2452 -0.3743
  112MOL0     H14750   2.479   4.296  -0.693  2.9341 -3.7924 -0.9548
  112MOL0     H14751   2.411   4.278  -0.859  0.7699 -4.2048 -0.1130
  112MOL0     H14752   2.486   4.062  -0.736  1.4352  2.0880 -1.2850
  112MOL0     H14753   2.329   4.071  -0.822 -0.7952 -0.4638 -0.0274
  112MOL0     H14754   2.310   3.947  -0.611  4.0402  0.1396 -0.5646
  112MOL0     H14755   2.207   4.096  -0.617 -0.7036 -2.4518  0.7884
  112MOL0     H14756   2.469   4.024  -0.464  4.4764  2.6526 -1.4839
  112MOL0     H14757   2.436   4.187  -0.501 -1.2918  0.3053 -2.8549
  112MOL0     H14758   2.228   4.199  -0.392  0.1743 -0.0112 -1.0319
  112MOL0     H14759   2.350   4.142  -0.285 -1.7075  0.5205  2.2884
  112MOL0     H14760   2.291   3.899  -0.340 -0.1504 -0.3260  1.7477
  112MOL0     H14761   2.126   3.964  -0.409 -2.0420 -2.1045  1.4617
  112MOL0     H14762   2.238   3.973  -0.119  0.2643 -0.7737  0.8454
  112MOL0     H14763   2.083   4.048  -0.191 -2.6184 -2.6227 -2.1410
  112MOL0     H14764   2.126   3.778  -0.090 -0.9146 -1.4979  0.9590
  112MOL0     H14765   2.108   3.773  -0.260  1.1894 -0.5902  0.9542
  112MOL0     H14766   2.429   4.512  -0.711 -0.2772 -0.8277 -0.3559
  112MOL0     H14767   2.405   4.710  -0.542 -1.0743  0.4565  3.0944
  112MOL0     H14768   2.212   4.851   0.010  3.2594 -1.6847 -1.2404
  112MOL0     H14769   2.226   5.078   0.092  1.4259 -0.0675 -0.1694
  112MOL0     H14770   4.068   5.455   0.340 -0.0204  1.0869  0.4996
  112MOL0     H14771   4.235   5.339   0.438 -0.0289 -1.1062  0.2578
  112MOL0     H14772   4.294   4.953   0.977  1.3994  3.4450  1.3425
  112MOL0     H14773   4.469   4.797   0.983 -3.0755  0.6371  0.5552
  112MOL0     H14774   4.564   4.638   0.883  0.1507 -1.2829  0.9699
  112MOL0     H14775   4.681   4.714   0.987 -3.4502  1.7793  0.7183
  112MOL0     H14776   4.866   4.613   0.845 -0.6523  1.1490 -0.3406
  112MOL0     H14777   4.756   4.485   0.925 -0.3440 -2.4248 -2.1070
  112MOL0     H14778   4.762   4.582   0.639  3.0618 -1.4760 -0.2697
  112MOL0     H14779   4.618   4.494   0.713 -0.5296  0.7412 -4.3947
  112MOL0     H14780   4.775   4.306   0.754  1.6869  0.1010  0.0953
  112MOL0     H14781   4.764   4.356   0.582 -0.4328  1.4167  0.0423
  112MOL0     H14782   5.169   4.435   0.675  0.9170 -2.5218  0.2255
  112MOL0     H14783   4.670   4.991   0.658 -0.1467  0.6222  0.1619
  112MOL0     H14784   4.480   5.143   0.628  1.9486 -3.4634 -3.4260
  113MOL0     O14785  11.134   8.699   9.184  0.5742 -0.4593  0.2276
  113MOL0     C14786  11.135   8.819   9.181 -0.6259  0.0414  0.0974
  113MOL0     O14787  11.206   8.889   9.090  0.1560  0.2709  0.3150
  113MOL0     C14788  11.268   8.835   8.976  1.4183 -0.3392 -1.2444
  113MOL0     C14789  11.374   8.916   8.927  0.0047  0.3941 -0.6113
  113MOL0     C14790  11.446   8.880   8.805 -0.1974 -0.2423 -0.0095
  113MOL0     C14791  11.413   8.766   8.735  0.9082  0.4389  0.0135
  113MOL0     O14792  11.498   8.731   8.639  0.5784  0.3815  0.3934
  113MOL0     C14793  11.438   8.653   8.524  0.0094  0.6668 -0.4414
  113MOL0     C14794  11.491   8.728   8.402  0.7458  0.3869 -0.7683
  113MOL0     C14795  11.629   8.693   8.382 -1.4310 -0.1129  0.8755
  113MOL0     C14796  11.691   8.775   8.267  0.2063  1.1680  0.1940
  113MOL0     C14797  11.651   8.714   8.125  0.1961  0.6562  0.5525
  113MOL0     C14798  11.658   8.817   8.012  0.7779  0.4891 -0.4510
  113MOL0     C14799  11.785   8.898   7.996 -0.1412  0.0846 -0.0088
  113MOL0     C14800  11.774   8.997   7.873  0.1052 -1.0078  0.7486
  113MOL0     N14801  11.773   8.927   7.746  0.0790  0.0739  1.0193
  113MOL0     C14802  11.655   8.906   7.685  0.5374  0.3648  0.2729
  113MOL0     C14803  11.690   8.902   7.544  0.8211 -0.7737 -1.1768
  113MOL0     C14804  11.601   8.909   7.424 -0.0210  0.2995 -0.2361
  113MOL0     C14805  11.468   8.833   7.416  0.0227 -0.3275 -0.1304
  113MOL0     C14806  11.495   8.680   7.394  0.1102 -0.4283 -0.3231
  113MOL0     C14807  11.371   8.595   7.394  0.4675 -0.6335  0.1507
  113MOL0     O14808  11.254   8.636   7.482 -0.3349 -0.0058 -0.3661
  113MOL0     C14809  11.272   8.637   7.618 -0.2150 -1.7195 -0.6802
  113MOL0     C14810  11.291   8.522   7.678 -1.0913 -0.9645  0.0953
  113MOL0     C14811  11.297   8.513   7.822  0.2149 -0.2252  0.4825
  113MOL0     C14812  11.256   8.621   7.903  0.4896 -0.2110  0.4762
  113MOL0     C14813  11.232   8.601   8.049 -1.3656 -0.4412 -0.1472
  113MOL0     O14814  11.266   8.479   8.103 -0.0877  0.2318  0.4336
  113MOL0     C14815  11.240   8.461   8.236  0.3318  0.9486 -0.0464
  113MOL0     C14816  11.110   8.493   8.292 -0.8670  0.5831  0.4336
  113MOL0     C14817  11.091   8.484   8.430 -0.2256  0.3137  0.3567
  113MOL0     C14818  11.189   8.416   8.509  0.3521 -0.5849 -0.3086
  113MOL0     O14819  11.162   8.384   8.640  0.6518  0.3216 -0.3013
  113MOL0     C14820  11.258   8.324   8.732  0.8611 -0.1494 -0.5320
  113MOL0     C14821  11.171   8.278   8.853  0.1427 -0.1018 -0.4890
  113MOL0     C14822  11.261   8.214   8.955  0.4575  0.0021  0.3075
  113MOL0     C14823  11.183   8.173   9.085  0.0261  0.6272  1.0432
  113MOL0     C14824  11.159   8.293   9.176  0.1533  0.6869  1.2156
  113MOL0     C14825  11.034   8.277   9.256  0.2990  0.0447  0.9229
  113MOL0     C14826  11.019   8.357   9.378 -0.0722 -0.7380 -0.3696
  113MOL0     C14827  10.880   8.379   9.439 -0.2569 -0.1755  0.1899
  113MOL0    Cl14828  10.825   8.222   9.509 -0.0134  0.2645 -0.4418
  113MOL0     C14829  11.311   8.366   8.447  0.6352 -0.1626 -1.1342
  113MOL0     C14830  11.338   8.396   8.316 -0.3595  0.2007  0.6084
  113MOL0     O14831  11.192   8.699   8.113  0.3130 -0.5291 -0.0671
  113MOL0     C14832  11.255   8.746   7.832 -0.1829  0.1915 -1.0225
  113MOL0     C14833  11.257   8.743   7.697 -0.5793 -0.4282 -0.2578
  113MOL0     N14834  11.830   8.905   7.535  0.0606  0.7565 -0.8354
  113MOL0     N14835  11.875   8.924   7.662  0.1496  0.5753  0.2337
  113MOL0     C14836  11.292   8.692   8.774 -0.0545 -0.2541  0.5588
  113MOL0     C14837  11.226   8.728   8.898  0.1015 -0.5292  0.0614
  113MOL0     C14838  11.041   8.880   9.269 -0.0582  0.2194 -0.4957
  113MOL0     C14839  11.067   9.007   9.321  0.3267  0.6000  0.1543
  113MOL0     C14840  10.974   9.073   9.410  0.1754 -0.0310  0.2552
  113MOL0     C14841  10.852   9.016   9.446  0.0591 -0.2075  0.2154
  113MOL0     O14842  10.755   9.077   9.520 -0.2734  0.4280  0.5898
  113MOL0     C14843  10.774   9.200   9.590  0.1388  0.2494 -0.2682
  113MOL0     C14844  10.639   9.219   9.649  0.9703  0.2048  0.3269
  113MOL0     C14845  10.630   9.350   9.718  0.9316 -0.1965 -0.4109
  113MOL0     C14846  10.518   9.373   9.821 -0.1767 -0.6051 -0.6805
  113MOL0     C14847  10.469   9.513   9.837  0.5913  0.6865 -0.0040
  113MOL0     C14848  10.443   9.628   9.861  0.3723 -0.4557  0.3732
  113MOL0     C14849  10.845   8.880   9.413  0.7004  0.4778 -0.1798
  113MOL0     C14850  10.936   8.815   9.331  0.4874 -0.4969  0.0701
  113MOL0     H14851  11.405   9.002   8.986  1.3431  2.2484 -3.7305
  113MOL0     H14852  11.525   8.936   8.756  0.1292 -1.2124 -0.6087
  113MOL0     H14853  11.329   8.654   8.525 -0.0095 -0.2051  0.4899
  113MOL0     H14854  11.489   8.555   8.528  1.2133  1.2854 -0.0405
  113MOL0     H14855  11.481   8.835   8.421  3.0440  0.3426  1.0831
  113MOL0     H14856  11.429   8.703   8.315 -2.9584  1.3533  1.3849
  113MOL0     H14857  11.643   8.586   8.365 -2.7597  0.1258 -2.3898
  113MOL0     H14858  11.692   8.729   8.465  0.9726 -0.1042 -0.8518
  113MOL0     H14859  11.651   8.876   8.279  0.7806  1.4877 -0.5092
  113MOL0     H14860  11.799   8.790   8.271  0.0060  2.5712  0.9959
  113MOL0     H14861  11.544   8.689   8.122 -0.0030  1.3827  1.1937
  113MOL0     H14862  11.710   8.626   8.098  0.8829  1.4064 -0.4452
  113MOL0     H14863  11.586   8.897   8.034  1.0928  1.4062 -2.4549
  113MOL0     H14864  11.632   8.766   7.919  4.0782  0.5280 -1.5316
  113MOL0     H14865  11.819   8.948   8.087 -1.3448  3.1778 -1.1468
  113MOL0     H14866  11.858   8.819   7.974  0.8119  0.0050  3.0472
  113MOL0     H14867  11.856   9.069   7.870 -1.8229  1.2924 -0.1000
  113MOL0     H14868  11.687   9.063   7.885 -0.6208 -1.1145 -2.8908
  113MOL0     H14869  11.557   8.894   7.729  0.4556 -4.3318 -0.6866
  113MOL0     H14870  11.670   8.873   7.347  2.0944  2.9871  0.2286
  113MOL0     H14871  11.593   9.016   7.401  0.3369  0.1949 -0.8633
  113MOL0     H14872  11.416   8.872   7.328  0.3077  0.0754 -0.1224
  113MOL0     H14873  11.406   8.859   7.502  0.8023 -0.8988  0.6196
  113MOL0     H14874  11.544   8.668   7.297 -0.9653  1.8092 -1.2145
  113MOL0     H14875  11.558   8.648   7.477 -1.4133 -0.4458  0.8553
  113MOL0     H14876  11.390   8.489   7.414  2.3441 -0.5677 -1.0651
  113MOL0     H14877  11.331   8.589   7.292 -0.0497  0.2189  0.2859
  113MOL0     H14878  11.309   8.431   7.622  1.4962 -0.4019 -0.1378
  113MOL0     H14879  11.310   8.420   7.877  2.2429  0.2516  0.9147
  113MOL0     H14880  11.027   8.532   8.235 -0.3201 -2.7510 -3.0232
  113MOL0     H14881  10.997   8.522   8.470 -0.3646  0.0490  0.2836
  113MOL0     H14882  11.336   8.390   8.771 -0.1406  0.6982  0.0896
  113MOL0     H14883  11.292   8.232   8.683 -0.5749 -1.2690  0.4995
  113MOL0     H14884  11.093   8.211   8.817  0.5397 -1.1850  0.5967
  113MOL0     H14885  11.112   8.357   8.900  0.0663 -0.4891  0.0746
  113MOL0     H14886  11.350   8.266   8.990  0.0000  0.2879  1.0550
  113MOL0     H14887  11.293   8.120   8.908  2.2232 -0.4675  2.3022
  113MOL0     H14888  11.085   8.129   9.061 -0.0012  1.8138 -1.2871
  113MOL0     H14889  11.246   8.098   9.134 -2.9308 -0.0553  4.1551
  113MOL0     H14890  11.148   8.383   9.115  0.6989 -0.0910 -0.0868
  113MOL0     H14891  11.250   8.293   9.237 -0.8674  0.7238  2.7994
  113MOL0     H14892  11.035   8.174   9.292  4.5913 -1.1500 -1.7935
  113MOL0     H14893  10.950   8.289   9.187  0.1172 -1.4833  0.8377
  113MOL0     H14894  11.073   8.309   9.461 -1.6342  0.7376  1.6271
  113MOL0     H14895  11.076   8.448   9.357 -0.3358  0.0288  1.9550
  113MOL0     H14896  10.815   8.413   9.358  1.1408 -1.0774 -1.3803
  113MOL0     H14897  10.885   8.451   9.521  1.2477 -3.3177  3.1053
  113MOL0     H14898  11.391   8.320   8.505  0.3632 -0.3343 -0.8944
  113MOL0     H14899  11.436   8.375   8.275  0.2947  1.9138  1.1964
  113MOL0     H14900  11.239   8.835   7.893  0.2726 -0.7536  0.5258
  113MOL0     H14901  11.234   8.833   7.641 -1.2131  0.3235  1.1612
  113MOL0     H14902  11.250   8.605   8.725  0.8636 -0.6252  0.3979
  113MOL0     H14903  11.144   8.669   8.937 -1.6134  1.7493  0.1185
  113MOL0     H14904  11.155   9.062   9.290 -1.0177  2.2911 -0.8809
  113MOL0     H14905  10.985   9.177   9.437 -0.4094  0.4917 -1.4098
  113MOL0     H14906  10.800   9.284   9.525  1.0618 -0.4445 -0.8273
  113MOL0     H14907  10.842   9.181   9.673 -0.3880  1.6379  0.5022
  113MOL0     H14908  10.569   9.225   9.565  0.6234 -1.9734  0.4074
  113MOL0     H14909  10.618   9.140   9.722  2.3064  2.0319  2.8415
  113MOL0     H14910  10.619   9.419   9.635 -1.9784 -0.9936 -0.7999
  113MOL0     H14911  10.726   9.367   9.768  1.0378  2.3601 -1.3618
  113MOL0     H14912  10.439   9.302   9.795  0.9999 -2.5567  0.7893
  113MOL0     H14913  10.552   9.349   9.922  2.9437 -0.0922 -1.5232
  113MOL0     H14914  10.403   9.723   9.889 -0.8858 -1.5275  2.3696
  113MOL0     H14915  10.761   8.815   9.437 -0.1193  0.1462 -3.4526
  113MOL0     H14916  10.926   8.710   9.305  0.1673 -0.1063 -1.5494
  114MOL0     O14917   5.124   6.575   8.111  1.3818 -0.4537  0.2258
  114MOL0     C14918   5.192   6.485   8.162 -0.3744  0.7576 -0.6452
  114MOL0     O14919   5.269   6.387   8.101 -0.0170  0.0152  0.6012
  114MOL0     C14920   5.263   6.358   7.961  0.1117 -0.4843  0.5422
  114MOL0     C14921   5.160   6.405   7.880 -0.3357 -0.2955 -0.3622
  114MOL0     C14922   5.170   6.402   7.744  0.4203  0.3102 -0.2125
  114MOL0     C14923   5.278   6.339   7.679  0.0521  0.0394 -0.2153
  114MOL0     O14924   5.285   6.336   7.538  0.2589 -0.6548  0.2320
  114MOL0     C14925   5.289   6.466   7.478 -0.4741 -0.5535  0.4166
  114MOL0     C14926   5.183   6.478   7.351 -0.3352  0.4190 -0.7942
  114MOL0     C14927   5.144   6.626   7.332 -0.1757  0.9891  0.0212
  114MOL0     C14928   5.068   6.659   7.200 -0.2863  0.2575 -0.5707
  114MOL0     C14929   4.954   6.760   7.230 -0.1046  0.4194  0.3045
  114MOL0     C14930   4.843   6.760   7.120 -0.8255  0.3474 -0.4235
  114MOL0     C14931   4.901   6.838   6.995  0.3412 -0.1085  0.2032
  114MOL0     C14932   4.837   6.797   6.858  0.7859  0.1929 -0.1428
  114MOL0     N14933   4.903   6.861   6.743  0.0097 -0.0330  0.2793
  114MOL0     C14934   4.841   6.892   6.618 -0.3606  0.3032  0.1783
  114MOL0     C14935   4.939   6.900   6.529 -0.3832 -0.1162 -0.7631
  114MOL0     C14936   4.931   6.951   6.389  0.5415 -0.0212 -0.7309
  114MOL0     C14937   4.985   7.084   6.367  0.0913  0.2258  0.8731
  114MOL0     C14938   4.892   7.192   6.424 -0.3504  0.0660 -0.7393
  114MOL0     C14939   4.931   7.333   6.354 -0.6848  0.2335 -0.3841
  114MOL0     O14940   4.862   7.331   6.228 -0.1955 -0.8500  0.2837
  114MOL0     C14941   4.861   7.452   6.160 -0.4799  0.1256  0.7158
  114MOL0     C14942   4.945   7.568   6.184  0.8838  0.7374  0.9264
  114MOL0     C14943   4.951   7.662   6.083  0.0470 -0.3418 -0.6214
  114MOL0     C14944   4.869   7.658   5.978  0.1519 -0.6231 -0.2267
  114MOL0     C14945   4.868   7.763   5.872  0.1227 -0.2248  0.5851
  114MOL0     O14946   4.777   7.740   5.768  0.2201 -0.3447  0.7116
  114MOL0     C14947   4.749   7.825   5.669 -0.6657  0.3628  0.5632
  114MOL0     C14948   4.779   7.970   5.668 -0.0546  0.5267  0.4496
  114MOL0     C14949   4.747   8.055   5.567  0.9950 -0.6553  0.9324
  114MOL0     C14950   4.680   8.009   5.450  0.1707  0.8989  0.4910
  114MOL0     O14951   4.645   8.080   5.331  0.1793 -0.3984 -0.3902
  114MOL0     C14952   4.700   8.209   5.319  0.3582  0.3643 -0.3143
  114MOL0     C14953   4.670   8.285   5.193  0.6609  0.3007  0.2601
  114MOL0     C14954   4.748   8.421   5.173  0.2389  0.1465 -0.1780
  114MOL0     C14955   4.712   8.517   5.289  0.5127 -0.3991 -0.6710
  114MOL0     C14956   4.708   8.663   5.252 -0.4836  0.4465 -0.1310
  114MOL0     C14957   4.689   8.748   5.384  0.4147 -0.3629  0.3927
  114MOL0     C14958   4.680   8.895   5.335  0.4958  1.3116 -0.0942
  114MOL0     C14959   4.716   8.997   5.439 -0.0498 -0.3594  0.0592
  114MOL0    Cl14960   4.682   9.157   5.377 -0.3535  0.2112 -0.3338
  114MOL0     C14961   4.648   7.865   5.449 -0.0115  0.2664  1.0349
  114MOL0     C14962   4.687   7.782   5.556  0.6741 -0.9354  1.0747
  114MOL0     O14963   4.944   7.859   5.881 -1.0747 -0.4668  0.4554
  114MOL0     C14964   4.785   7.552   5.964  0.0307  0.3373  1.0770
  114MOL0     C14965   4.776   7.445   6.055 -0.0963 -1.3090  0.1939
  114MOL0     N14966   5.053   6.876   6.598 -0.3521  0.0748 -0.7807
  114MOL0     N14967   5.030   6.858   6.721  0.1008 -1.1993 -0.3489
  114MOL0     C14968   5.375   6.279   7.755 -0.8207  0.8333 -0.3772
  114MOL0     C14969   5.372   6.294   7.894  0.2321  0.3603 -0.3686
  114MOL0     C14970   5.195   6.468   8.308  0.0607  0.8769 -0.2378
  114MOL0     C14971   5.256   6.351   8.367 -0.5525 -0.4747  0.2189
  114MOL0     C14972   5.264   6.330   8.499  0.2209  0.1181 -1.2454
  114MOL0     C14973   5.192   6.414   8.591  0.5432 -0.5265  0.0951
  114MOL0     O14974   5.175   6.385   8.724 -0.7696  0.3058 -0.2495
  114MOL0     C14975   5.230   6.264   8.781  0.3547 -1.0635 -0.1000
  114MOL0     C14976   5.137   6.148   8.748  0.1084  1.0634 -0.0467
  114MOL0     C14977   5.162   6.005   8.816  0.2333  1.2527 -0.3079
  114MOL0     C14978   5.312   5.964   8.829  0.1034 -0.3981  0.2358
  114MOL0     C14979   5.379   5.940   8.703  0.5369  0.2482 -0.1645
  114MOL0     C14980   5.415   5.933   8.580 -0.0574  0.0013 -0.1410
  114MOL0     C14981   5.136   6.526   8.538 -0.2080 -0.1279  0.6039
  114MOL0     C14982   5.133   6.554   8.398 -0.5954  0.0782 -1.1795
  114MOL0     H14983   5.076   6.457   7.927  1.0799  2.9418 -1.1087
  114MOL0     H14984   5.085   6.437   7.685 -0.7481 -4.4565 -1.8233
  114MOL0     H14985   5.393   6.474   7.445 -0.3609 -3.5087 -0.2275
  114MOL0     H14986   5.253   6.541   7.549 -2.4932 -0.1781 -0.9281
  114MOL0     H14987   5.089   6.427   7.372 -0.5784  1.2424  0.1913
  114MOL0     H14988   5.231   6.435   7.262  0.9884 -1.8142  0.8920
  114MOL0     H14989   5.237   6.683   7.324 -0.7228  1.7057 -1.5734
  114MOL0     H14990   5.089   6.654   7.422 -2.8988  1.3854 -1.6641
  114MOL0     H14991   5.143   6.685   7.125  1.3973 -0.1445  0.9046
  114MOL0     H14992   5.025   6.569   7.155 -0.0451  0.8732 -2.1135
  114MOL0     H14993   5.004   6.856   7.250  2.6993 -0.5893 -1.3566
  114MOL0     H14994   4.903   6.733   7.323 -0.5567  3.8697  1.1999
  114MOL0     H14995   4.754   6.792   7.174 -0.6687 -1.0517  0.7158
  114MOL0     H14996   4.821   6.663   7.075  0.3505 -0.3537  0.4549
  114MOL0     H14997   4.884   6.944   7.015 -1.9891 -0.5905  1.0420
  114MOL0     H14998   5.008   6.822   6.980  0.1630 -1.3883  0.1691
  114MOL0     H14999   4.730   6.820   6.858  0.4609 -1.2658 -0.1930
  114MOL0     H15000   4.837   6.690   6.839  1.8636  0.1147  0.2139
  114MOL0     H15001   4.742   6.926   6.591  0.2081  1.2937 -0.7601
  114MOL0     H15002   4.830   6.948   6.346 -0.4675  1.0236  1.4103
  114MOL0     H15003   4.989   6.884   6.325 -0.6909 -1.3915 -0.4545
  114MOL0     H15004   4.996   7.109   6.261  2.7053  2.1918  1.4958
  114MOL0     H15005   5.082   7.093   6.418  0.0475  2.3386  0.7044
  114MOL0     H15006   4.786   7.192   6.396 -0.5924  1.7982  0.0058
  114MOL0     H15007   4.907   7.198   6.532  3.9191  3.1103 -1.2445
  114MOL0     H15008   5.037   7.335   6.326 -0.6375 -1.7705 -0.5029
  114MOL0     H15009   4.895   7.418   6.414 -1.6435 -2.5610  3.3412
  114MOL0     H15010   4.996   7.569   6.280 -1.6803 -0.2078  2.4101
  114MOL0     H15011   5.015   7.749   6.098  4.2941 -3.2841  0.1763
  114MOL0     H15012   4.817   8.018   5.758  0.8601 -1.1268  0.9950
  114MOL0     H15013   4.764   8.162   5.574 -2.5701  0.0478  0.8064
  114MOL0     H15014   4.809   8.197   5.321  0.3119 -0.0501 -0.2683
  114MOL0     H15015   4.658   8.261   5.405 -0.7816 -0.3196 -0.4328
  114MOL0     H15016   4.561   8.296   5.187  0.9730  3.0222 -2.8957
  114MOL0     H15017   4.700   8.219   5.112 -1.7813 -1.3302  0.5776
  114MOL0     H15018   4.713   8.452   5.074 -1.0770 -3.2892 -0.9245
  114MOL0     H15019   4.852   8.389   5.181 -0.5361 -2.4915  0.4379
  114MOL0     H15020   4.619   8.502   5.345  2.0716  1.5037  2.7105
  114MOL0     H15021   4.791   8.499   5.362  0.1066 -2.8846 -0.7520
  114MOL0     H15022   4.628   8.667   5.176  0.9986 -1.8028 -1.9632
  114MOL0     H15023   4.805   8.681   5.205  0.3990  1.1834  1.8625
  114MOL0     H15024   4.777   8.746   5.448  0.9852  3.3547 -0.0245
  114MOL0     H15025   4.598   8.716   5.435  0.7646 -0.1840  1.1441
  114MOL0     H15026   4.752   8.916   5.255 -0.2199 -1.2103 -1.5115
  114MOL0     H15027   4.579   8.923   5.302 -1.1499 -1.8563  1.8026
  114MOL0     H15028   4.819   8.995   5.474  0.2776  2.4192 -0.5007
  114MOL0     H15029   4.653   8.989   5.528 -1.3514  0.8226 -0.7079
  114MOL0     H15030   4.591   7.824   5.366 -3.2664  0.4140  3.0288
  114MOL0     H15031   4.657   7.678   5.554  3.4146 -1.8100  1.3814
  114MOL0     H15032   4.712   7.529   5.887  0.9093  0.7114  0.1221
  114MOL0     H15033   4.709   7.365   6.025 -2.3672  0.9931 -1.3810
  114MOL0     H15034   5.463   6.231   7.712 -2.2120 -4.1699  1.6920
  114MOL0     H15035   5.457   6.256   7.950 -3.2579 -1.9342  4.0258
  114MOL0     H15036   5.301   6.277   8.302  2.4371  0.5453  0.9854
  114MOL0     H15037   5.326   6.246   8.527 -0.9178 -0.1293  0.6385
  114MOL0     H15038   5.222   6.289   8.887  0.2443  1.7927 -0.7124
  114MOL0     H15039   5.334   6.243   8.756  1.6233  1.3037  2.7332
  114MOL0     H15040   5.036   6.177   8.777 -0.5378 -2.5764  1.9621
  114MOL0     H15041   5.145   6.142   8.639  1.3360 -0.7745  0.0946
  114MOL0     H15042   5.120   5.924   8.755 -0.0540  0.2250  1.2000
  114MOL0     H15043   5.120   5.992   8.916  0.8236 -2.1753 -0.3986
  114MOL0     H15044   5.378   6.039   8.875 -1.9717  2.0293 -0.5404
  114MOL0     H15045   5.306   5.869   8.883 -0.5507 -1.3983 -1.5005
  114MOL0     H15046   5.447   5.939   8.478  0.6090  3.0735  0.1393
  114MOL0     H15047   5.079   6.604   8.587 -1.0535 -0.0549 -0.4469
  114MOL0     H15048   5.097   6.651   8.363 -1.0202  1.5911  2.9300
  115MOL0     O15049   8.701   9.717  10.936 -0.1059 -0.2428  0.1455
  115MOL0     C15050   8.800   9.785  10.955  1.0315  0.2369  0.4843
  115MOL0     O15051   8.880   9.831  10.862 -0.3861  0.1062  0.6505
  115MOL0     C15052   8.843   9.791  10.735  0.4019 -1.1995 -0.6959
  115MOL0     C15053   8.727   9.841  10.662 -0.7866 -0.2849 -0.9779
  115MOL0     C15054   8.691   9.802  10.535 -1.4449 -0.4732  0.3277
  115MOL0     C15055   8.776   9.715  10.472 -0.3551 -0.1494 -0.0481
  115MOL0     O15056   8.738   9.685  10.338 -0.7227 -0.1377  0.6736
  115MOL0     C15057   8.811   9.576  10.280 -0.2143  0.6883 -0.5560
  115MOL0     C15058   8.746   9.535  10.143 -0.7896  0.0358  0.6286
  115MOL0     C15059   8.772   9.640  10.039 -0.6305  0.0199  0.4935
  115MOL0     C15060   8.708   9.596   9.904  0.8869 -1.1719  0.0144
  115MOL0     C15061   8.773   9.678   9.796  0.2989 -0.1623 -0.0896
  115MOL0     C15062   8.700   9.704   9.666  0.5537  0.5924  0.7375
  115MOL0     C15063   8.687   9.578   9.579  0.1532 -0.7666 -0.0436
  115MOL0     C15064   8.575   9.478   9.610  0.5148 -0.1461 -0.3018
  115MOL0     N15065   8.527   9.421   9.486  0.0822  0.3532  0.2123
  115MOL0     C15066   8.584   9.344   9.394  0.0279  0.0644 -0.9285
  115MOL0     C15067   8.488   9.333   9.294 -0.2933  0.0694 -1.0554
  115MOL0     C15068   8.511   9.273   9.155  0.0526  0.1421 -0.7434
  115MOL0     C15069   8.427   9.145   9.148 -0.4293  0.2176  0.5911
  115MOL0     C15070   8.356   9.145   9.013 -0.5124  1.3686 -0.7303
  115MOL0     C15071   8.232   9.054   9.013 -0.4741 -0.4685  0.0848
  115MOL0     O15072   8.283   8.928   9.060 -1.0706 -0.5222 -0.2036
  115MOL0     C15073   8.364   8.873   8.960 -0.0664 -0.4178 -0.8708
  115MOL0     C15074   8.482   8.813   9.001 -0.0581  0.0215  0.6849
  115MOL0     C15075   8.579   8.768   8.913  0.3560  0.3468  0.4016
  115MOL0     C15076   8.559   8.763   8.776 -0.7968 -0.3425  1.0341
  115MOL0     C15077   8.660   8.715   8.686  0.1721  0.7070  0.6190
  115MOL0     O15078   8.653   8.755   8.560 -0.0158 -0.3242  0.0134
  115MOL0     C15079   8.749   8.715   8.470  1.1128 -0.4361  0.5631
  115MOL0     C15080   8.723   8.587   8.420 -0.5968 -0.0583 -0.4298
  115MOL0     C15081   8.818   8.516   8.349 -0.1432 -0.6992 -0.4479
  115MOL0     C15082   8.948   8.579   8.339  0.7086  0.4866  0.1949
  115MOL0     O15083   9.059   8.506   8.290  0.8124  0.6073  0.4270
  115MOL0     C15084   9.187   8.553   8.332  0.2247 -0.6929 -0.0192
  115MOL0     C15085   9.289   8.463   8.281 -0.0571  0.5678 -0.5721
  115MOL0     C15086   9.433   8.505   8.315  0.1300  0.4116 -0.3625
  115MOL0     C15087   9.517   8.385   8.261  0.5267  0.1175 -0.0923
  115MOL0     C15088   9.670   8.408   8.270 -0.5415  0.1698 -0.1003
  115MOL0     C15089   9.744   8.300   8.192 -0.1187  0.6488  0.2779
  115MOL0     C15090   9.882   8.351   8.167  0.2107  0.3424  0.3793
  115MOL0     C15091   9.958   8.401   8.288  0.1454  0.3615  0.2044
  115MOL0    Cl15092  10.124   8.415   8.231  0.1038 -0.2696 -0.0336
  115MOL0     C15093   8.968   8.708   8.388 -0.0393 -0.2086 -0.0730
  115MOL0     C15094   8.872   8.782   8.449 -0.0675 -0.5929  0.2951
  115MOL0     O15095   8.756   8.652   8.735  0.1629  0.6064 -0.2416
  115MOL0     C15096   8.426   8.795   8.736  0.6093 -0.0946 -0.3036
  115MOL0     C15097   8.334   8.854   8.825  0.0946 -1.4430 -0.4021
  115MOL0     N15098   8.371   9.387   9.345 -0.2320 -0.1070  0.0386
  115MOL0     N15099   8.388   9.438   9.455 -0.0251 -0.0684 -0.6593
  115MOL0     C15100   8.898   9.672  10.534 -0.3731  0.0625 -0.5002
  115MOL0     C15101   8.930   9.717  10.663 -0.1398 -0.5035 -1.2207
  115MOL0     C15102   8.847   9.799  11.092 -0.1943  0.2329 -0.7083
  115MOL0     C15103   8.956   9.894  11.123  0.4838 -0.1774  0.6672
  115MOL0     C15104   8.972   9.940  11.251  0.4372  0.6864  0.4816
  115MOL0     C15105   8.909   9.877  11.356 -0.7845  0.2947 -0.8350
  115MOL0     O15106   8.960   9.913  11.477 -0.6841 -0.8344 -0.0790
  115MOL0     C15107   8.896   9.873  11.596 -0.3030  0.7365  1.3893
  115MOL0     C15108   8.964   9.737  11.632  0.0886 -0.5867  0.5798
  115MOL0     C15109   8.911   9.701  11.772 -0.7968  0.5555  0.6113
  115MOL0     C15110   8.960   9.562  11.824  0.1788 -0.3953 -0.1299
  115MOL0     C15111   8.927   9.457  11.718  1.1490 -0.2845 -1.0914
  115MOL0     C15112   8.896   9.362  11.643 -0.2230 -0.4495  0.3923
  115MOL0     C15113   8.819   9.781  11.331 -0.8331 -0.0568 -0.7257
  115MOL0     C15114   8.783   9.747  11.201  0.0263 -0.4729  0.0378
  115MOL0     H15115   8.655   9.905  10.711  2.4344  1.9253  1.2527
  115MOL0     H15116   8.613   9.848  10.475 -0.7708  0.4265  0.1169
  115MOL0     H15117   8.840   9.492  10.344  1.8556  1.6838 -0.0989
  115MOL0     H15118   8.901   9.625  10.243  1.7551 -1.1296  1.4727
  115MOL0     H15119   8.639   9.516  10.155 -0.3639 -0.8162  4.0691
  115MOL0     H15120   8.781   9.437  10.110  2.5500  1.0914  0.6238
  115MOL0     H15121   8.880   9.648  10.023 -0.7248 -2.2184 -2.0595
  115MOL0     H15122   8.734   9.736  10.074  3.8189  3.2403 -2.3947
  115MOL0     H15123   8.713   9.490   9.881  1.2362 -0.8102 -1.7104
  115MOL0     H15124   8.600   9.613   9.910  0.9457 -0.3291 -1.0161
  115MOL0     H15125   8.878   9.653   9.785  0.4959  0.3432  0.5769
  115MOL0     H15126   8.773   9.774   9.849  0.6479 -0.5947  0.7042
  115MOL0     H15127   8.743   9.780   9.599  1.1934  0.2958  0.8002
  115MOL0     H15128   8.599   9.742   9.682 -0.7439 -1.6848 -1.3671
  115MOL0     H15129   8.680   9.593   9.471  0.2594 -1.7432 -0.1890
  115MOL0     H15130   8.779   9.522   9.597  1.5099  0.7693 -1.8698
  115MOL0     H15131   8.486   9.530   9.646 -0.6720 -0.1801 -2.9734
  115MOL0     H15132   8.609   9.398   9.677 -0.4394  0.5984  1.1296
  115MOL0     H15133   8.685   9.305   9.388  1.1502  1.9265  2.7340
  115MOL0     H15134   8.616   9.248   9.140 -0.1126 -0.1522 -1.4664
  115MOL0     H15135   8.479   9.358   9.093  1.6057  1.3207 -0.0114
  115MOL0     H15136   8.347   9.142   9.223 -3.5151  2.9067 -2.2757
  115MOL0     H15137   8.492   9.057   9.154  0.8438  1.1884  1.5644
  115MOL0     H15138   8.315   9.244   8.991  0.4235  1.4785 -2.1277
  115MOL0     H15139   8.420   9.111   8.931  0.4860  1.1550  0.1150
  115MOL0     H15140   8.181   9.053   8.916 -1.6350 -3.0978  0.6521
  115MOL0     H15141   8.160   9.095   9.085 -0.5013 -1.9856  0.9539
  115MOL0     H15142   8.509   8.808   9.106  0.1453  2.3656  0.7936
  115MOL0     H15143   8.679   8.741   8.945  0.6668  0.7990 -0.1606
  115MOL0     H15144   8.625   8.541   8.433 -0.2592 -0.6095  0.2149
  115MOL0     H15145   8.808   8.411   8.325  2.3786 -1.4516  1.4315
  115MOL0     H15146   9.196   8.553   8.441 -0.1518 -3.5211  0.1041
  115MOL0     H15147   9.204   8.650   8.285  0.3137 -0.3752  0.6464
  115MOL0     H15148   9.267   8.462   8.173 -2.3796 -2.0261 -0.1909
  115MOL0     H15149   9.274   8.361   8.316 -1.4364  1.6199  2.2863
  115MOL0     H15150   9.452   8.529   8.421  0.1218  1.9018 -0.6742
  115MOL0     H15151   9.458   8.595   8.259  2.8100 -1.0241 -1.6777
  115MOL0     H15152   9.496   8.292   8.315  0.3718  0.1791 -0.0465
  115MOL0     H15153   9.490   8.377   8.155  0.7289 -0.9397 -0.0675
  115MOL0     H15154   9.705   8.420   8.373  3.5940 -0.0380 -1.2934
  115MOL0     H15155   9.681   8.506   8.223 -3.2284 -0.3316 -2.0235
  115MOL0     H15156   9.701   8.272   8.096 -0.1446 -1.0860  0.7469
  115MOL0     H15157   9.747   8.208   8.253 -1.5363  1.5564  1.8143
  115MOL0     H15158   9.936   8.263   8.129  1.2932  1.2511 -0.2354
  115MOL0     H15159   9.881   8.419   8.081 -2.4594  0.2358  0.2376
  115MOL0     H15160   9.956   8.340   8.379  0.1481 -0.5846 -0.4084
  115MOL0     H15161   9.933   8.507   8.299 -0.5663  0.1344  0.8014
  115MOL0     H15162   9.063   8.759   8.379  0.8166 -1.7907 -0.4410
  115MOL0     H15163   8.894   8.874   8.502  0.0504  0.0054 -0.7609
  115MOL0     H15164   8.378   8.788   8.639 -0.2620  2.5852 -0.1611
  115MOL0     H15165   8.240   8.894   8.788  1.9724  2.9783 -1.0899
  115MOL0     H15166   8.960   9.597  10.486  2.0221  1.4002  0.3078
  115MOL0     H15167   9.021   9.685  10.714  0.0465  2.1413  0.3177
  115MOL0     H15168   9.013   9.936  11.041 -1.1794 -0.4610 -0.6779
  115MOL0     H15169   9.039  10.022  11.275 -0.8799  1.2364  2.5316
  115MOL0     H15170   8.787   9.872  11.584 -0.2295 -0.9975  0.5201
  115MOL0     H15171   8.905   9.950  11.674 -1.1920  1.3263  0.9308
  115MOL0     H15172   8.953   9.671  11.546 -2.1637 -0.5592  0.7950
  115MOL0     H15173   9.070   9.764  11.637 -0.1569  1.1720 -1.6270
  115MOL0     H15174   8.802   9.707  11.781 -0.8103  1.2981  0.0175
  115MOL0     H15175   8.951   9.785  11.829  0.5627  0.3277  0.0349
  115MOL0     H15176   9.070   9.564  11.827  0.2226 -0.9438  3.5235
  115MOL0     H15177   8.915   9.540  11.922  0.1152 -0.3149 -0.1410
  115MOL0     H15178   8.867   9.284  11.576 -1.3857  0.4153 -0.1472
  115MOL0     H15179   8.768   9.717  11.402  3.1932 -3.4986 -0.4810
  115MOL0     H15180   8.692   9.688  11.186 -0.5778  1.1714 -4.1170
  116MOL0     O15181  10.077  10.196   9.927  0.2783  0.6865 -0.0572
  116MOL0     C15182   9.992  10.138   9.993  0.5292 -0.6005  0.4683
  116MOL0     O15183   9.914  10.031   9.946 -0.3087 -0.1437  1.0190
  116MOL0     C15184   9.964   9.945   9.848 -0.0216 -0.2346 -0.5184
  116MOL0     C15185  10.099   9.902   9.830  0.2026 -0.0983  0.3223
  116MOL0     C15186  10.129   9.808   9.733 -0.0605 -0.0493 -0.6150
  116MOL0     C15187  10.034   9.737   9.658 -0.2442 -0.2135  0.0239
  116MOL0     O15188  10.072   9.638   9.571  0.4054 -0.0144  0.9719
  116MOL0     C15189   9.976   9.592   9.478  0.1789  0.2782  0.2209
  116MOL0     C15190  10.057   9.578   9.349 -0.7714  0.2326 -0.1040
  116MOL0     C15191   9.989   9.505   9.236 -0.8977  0.5563  0.1924
  116MOL0     C15192   9.984   9.356   9.255  0.2550  0.6708  0.6105
  116MOL0     C15193   9.953   9.276   9.124  0.3326  1.2597 -0.5392
  116MOL0     C15194  10.088   9.246   9.041 -0.6066 -0.5393 -1.0521
  116MOL0     C15195  10.049   9.165   8.916  0.6714 -0.5924  0.0889
  116MOL0     C15196   9.937   9.244   8.829 -0.6808  0.3285 -0.8544
  116MOL0     N15197   9.916   9.165   8.698  0.2536 -0.7436 -0.0612
  116MOL0     C15198  10.008   9.085   8.634 -0.1264 -1.1469  0.1050
  116MOL0     C15199   9.966   9.066   8.509  0.0430  0.2194 -0.3625
  116MOL0     C15200  10.044   8.991   8.402 -0.5007 -0.6904 -0.1796
  116MOL0     C15201   9.991   8.854   8.380 -0.4915  0.7417  0.4442
  116MOL0     C15202   9.889   8.846   8.272  0.5942  0.1407  0.1573
  116MOL0     C15203   9.740   8.868   8.306 -0.9231  0.6495  0.1739
  116MOL0     O15204   9.695   8.780   8.408 -0.6050 -0.5153  0.2817
  116MOL0     C15205   9.586   8.822   8.491  0.1433 -0.1016 -0.0046
  116MOL0     C15206   9.540   8.741   8.587  0.0845 -0.4715 -0.0216
  116MOL0     C15207   9.418   8.762   8.656 -0.2589 -0.0150 -0.5098
  116MOL0     C15208   9.344   8.877   8.638 -0.2639  0.1334  0.5800
  116MOL0     C15209   9.218   8.896   8.698  0.2943 -0.4043 -0.6236
  116MOL0     O15210   9.174   8.797   8.785  0.2825 -0.8786  0.3820
  116MOL0     C15211   9.110   8.827   8.904 -0.0250 -0.1481 -1.4688
  116MOL0     C15212   8.979   8.792   8.922 -0.8088 -1.2050  0.0796
  116MOL0     C15213   8.923   8.810   9.055  0.7031 -0.0409  0.9414
  116MOL0     C15214   8.992   8.865   9.156  0.2118  0.2926  0.2281
  116MOL0     O15215   8.942   8.904   9.282  0.2301  0.6120  0.0885
  116MOL0     C15216   8.799   8.880   9.311 -0.6595 -0.3960 -0.4753
  116MOL0     C15217   8.778   8.916   9.453  1.8171 -0.4177  0.2858
  116MOL0     C15218   8.628   8.941   9.481  0.3167 -0.8982 -0.2560
  116MOL0     C15219   8.545   8.828   9.425  0.3333  0.0143 -0.7031
  116MOL0     C15220   8.407   8.835   9.476 -0.1126 -0.0002 -0.0542
  116MOL0     C15221   8.314   8.731   9.411 -0.7907 -0.7184 -0.3336
  116MOL0     C15222   8.175   8.783   9.433  1.2375  0.7105  0.1834
  116MOL0     C15223   8.134   8.799   9.579 -0.0900 -0.6353 -0.3693
  116MOL0    Cl15224   8.123   8.645   9.671  0.3890  0.0282  0.0908
  116MOL0     C15225   9.126   8.886   9.141  0.3934 -0.3006  0.3623
  116MOL0     C15226   9.182   8.873   9.012  0.6724  0.0299 -0.1544
  116MOL0     O15227   9.164   9.008   8.685 -0.5281  0.0073  0.3438
  116MOL0     C15228   9.410   8.977   8.568  0.3125  0.0223  0.2684
  116MOL0     C15229   9.517   8.948   8.480 -0.3271  0.2032 -0.4259
  116MOL0     N15230   9.860   9.150   8.495 -1.0868  0.3428 -0.1319
  116MOL0     N15231   9.834   9.204   8.604  0.6758 -0.2719  0.2612
  116MOL0     C15232   9.898   9.771   9.690 -0.2494  0.3188 -0.0992
  116MOL0     C15233   9.864   9.878   9.782 -0.4566  0.9984  0.4154
  116MOL0     C15234   9.986  10.170  10.134  0.6524 -0.0603  0.0028
  116MOL0     C15235   9.930  10.077  10.229 -0.2292 -0.4133  0.7429
  116MOL0     C15236   9.934  10.097  10.367 -0.3423  0.6914 -0.6684
  116MOL0     C15237   9.974  10.225  10.413  0.2544 -0.6859  0.3024
  116MOL0     O15238   9.995  10.259  10.549  0.4551  0.5850 -0.7076
  116MOL0     C15239   9.990  10.137  10.633 -0.6049  0.5551  0.4791
  116MOL0     C15240  10.024  10.169  10.786 -0.1855  0.9980  0.8507
  116MOL0     C15241   9.900  10.178  10.863  0.2474  0.8237  0.7932
  116MOL0     C15242   9.907  10.145  11.015  0.5690 -0.1674 -0.3592
  116MOL0     C15243   9.987  10.236  11.092 -0.3392  0.7417  0.0890
  116MOL0     C15244  10.056  10.313  11.154  0.3360  0.0456  0.2629
  116MOL0     C15245  10.023  10.321  10.325  0.3230 -0.4739 -0.2434
  116MOL0     C15246  10.034  10.294  10.189 -0.1486  0.7156  1.2463
  116MOL0     H15247  10.176   9.950   9.889 -0.7393  0.0886  1.4298
  116MOL0     H15248  10.234   9.788   9.715  0.1783  1.1857 -0.6915
  116MOL0     H15249   9.904   9.671   9.455  1.4629  1.6607  0.7958
  116MOL0     H15250   9.928   9.499   9.511  0.0763 -0.3694 -1.6705
  116MOL0     H15251  10.154   9.534   9.374 -0.7700  0.9023  1.1356
  116MOL0     H15252  10.078   9.683   9.327 -1.4444  0.7069  1.4233
  116MOL0     H15253  10.046   9.532   9.147 -2.4788 -1.2297 -1.4371
  116MOL0     H15254   9.888   9.543   9.220 -0.8543 -0.0668 -1.7062
  116MOL0     H15255  10.068   9.313   9.310  0.0466 -0.3960  0.1145
  116MOL0     H15256   9.904   9.334   9.326 -0.0586 -1.7545 -0.3908
  116MOL0     H15257   9.888   9.335   9.059 -1.1628 -2.3220 -2.5351
  116MOL0     H15258   9.898   9.185   9.148 -0.4658  1.4759 -1.4876
  116MOL0     H15259  10.162   9.195   9.103 -1.5849 -2.3047 -1.2599
  116MOL0     H15260  10.128   9.343   9.010  2.2520 -1.6075 -0.9563
  116MOL0     H15261  10.137   9.152   8.852  0.0359  1.4029 -1.2762
  116MOL0     H15262  10.016   9.066   8.950  0.7424 -0.8598 -0.6057
  116MOL0     H15263   9.962   9.348   8.807 -0.6263 -0.0866 -2.9339
  116MOL0     H15264   9.846   9.243   8.888  0.9862  2.6723  2.0394
  116MOL0     H15265  10.088   9.026   8.678  1.9525  1.1070 -0.4250
  116MOL0     H15266  10.150   9.006   8.425 -1.2814  1.2683  2.7795
  116MOL0     H15267  10.028   9.046   8.309  0.2001 -2.6289 -1.5004
  116MOL0     H15268   9.954   8.801   8.468  0.9473 -3.5848 -1.3107
  116MOL0     H15269  10.079   8.799   8.346  1.2246  4.7071 -2.3615
  116MOL0     H15270   9.927   8.912   8.194 -0.5064  0.4727 -0.1160
  116MOL0     H15271   9.898   8.749   8.222 -0.8816 -0.3362  0.7721
  116MOL0     H15272   9.690   8.841   8.213  1.1121 -2.1459 -0.2461
  116MOL0     H15273   9.726   8.970   8.343 -4.6703  0.5591 -0.5632
  116MOL0     H15274   9.599   8.653   8.607  0.9277  0.7323  3.3096
  116MOL0     H15275   9.387   8.679   8.718  0.7390 -1.3787 -1.7832
  116MOL0     H15276   8.920   8.759   8.837 -2.5351  2.1259 -0.1766
  116MOL0     H15277   8.821   8.778   9.075  0.1467  0.4080 -1.0301
  116MOL0     H15278   8.760   8.782   9.282 -1.2281  0.2719 -2.0717
  116MOL0     H15279   8.748   8.959   9.256 -3.0852 -0.5251  1.3875
  116MOL0     H15280   8.821   9.013   9.476 -1.1766  1.4258 -1.2231
  116MOL0     H15281   8.811   8.837   9.521  2.2320 -1.1356 -0.7198
  116MOL0     H15282   8.599   9.032   9.427  1.0462 -1.0153 -0.8647
  116MOL0     H15283   8.621   8.974   9.585 -1.8426  0.1139 -0.6628
  116MOL0     H15284   8.551   8.829   9.316  1.0532 -3.3353 -0.8101
  116MOL0     H15285   8.587   8.731   9.455 -0.4196  0.4275  1.9178
  116MOL0     H15286   8.374   8.936   9.450 -0.4292 -0.1129 -0.0927
  116MOL0     H15287   8.395   8.808   9.581 -2.9278 -0.8420 -0.5193
  116MOL0     H15288   8.331   8.634   9.458  0.3594  0.4404  1.8137
  116MOL0     H15289   8.336   8.727   9.304  0.6817  2.6847 -0.2995
  116MOL0     H15290   8.165   8.874   9.373 -1.8486 -0.6383 -1.5705
  116MOL0     H15291   8.103   8.716   9.385  1.1169  0.7411  0.3210
  116MOL0     H15292   8.037   8.851   9.583  0.7353  0.9037  0.6396
  116MOL0     H15293   8.196   8.871   9.632 -0.0779 -0.5592 -0.4873
  116MOL0     H15294   9.190   8.930   9.217  0.5040 -0.4619  0.3631
  116MOL0     H15295   9.289   8.874   8.992  0.7294 -0.9267  0.0364
  116MOL0     H15296   9.360   9.073   8.570 -2.1697 -1.1936  0.1898
  116MOL0     H15297   9.546   9.014   8.398 -0.1671 -2.5801 -2.7516
  116MOL0     H15298   9.822   9.724   9.628 -0.4211  3.1828 -2.2984
  116MOL0     H15299   9.764   9.902   9.816 -0.1908  0.5920  1.5210
  116MOL0     H15300   9.903   9.980  10.190  5.6901 -2.0235 -0.3760
  116MOL0     H15301   9.900  10.019  10.435  1.9131 -0.0602 -0.2959
  116MOL0     H15302  10.061  10.066  10.592 -0.1398 -0.3400  2.7113
  116MOL0     H15303   9.893  10.086  10.628 -0.3466  0.0362  0.6971
  116MOL0     H15304  10.078  10.079  10.817 -0.2640  0.8266  0.5014
  116MOL0     H15305  10.091  10.254  10.799  0.8866  1.0144 -3.4983
  116MOL0     H15306   9.818  10.123  10.817  1.9010 -0.2730 -1.0543
  116MOL0     H15307   9.872  10.283  10.864  0.0549  0.7904  0.0625
  116MOL0     H15308   9.805  10.146  11.055  0.9440 -2.5730  0.8111
  116MOL0     H15309   9.945  10.042  11.016  2.0504  0.3733  0.3568
  116MOL0     H15310  10.119  10.374  11.216  5.2543 -5.6289  1.7668
  116MOL0     H15311  10.051  10.421  10.355 -2.0672  1.0791 -2.7253
  116MOL0     H15312  10.085  10.365  10.125  2.4641 -0.3181  2.0407
  117MOL0     O15313  10.320   1.906   8.997  0.1819 -0.0372  0.6037
  117MOL0     C15314  10.403   1.827   8.954 -0.0382  0.4166  0.1467
  117MOL0     O15315  10.400   1.774   8.825  0.1230  0.1930  0.0651
  117MOL0     C15316  10.297   1.819   8.748 -0.3224  0.7222 -0.4711
  117MOL0     C15317  10.316   1.947   8.687 -0.3973  0.3732 -0.1328
  117MOL0     C15318  10.224   2.002   8.598  0.6991 -0.0894 -0.1989
  117MOL0     C15319  10.110   1.921   8.565 -0.4537 -0.3013 -0.4621
  117MOL0     O15320  10.029   1.978   8.470 -0.0481  0.3728  0.3215
  117MOL0     C15321   9.902   1.921   8.449 -0.3852  0.6186 -0.4608
  117MOL0     C15322   9.801   1.936   8.572 -0.8015 -0.3491 -0.3922
  117MOL0     C15323   9.650   1.917   8.534  0.1313 -0.2944 -0.5572
  117MOL0     C15324   9.623   1.793   8.448 -0.1374 -1.0113  0.1504
  117MOL0     C15325   9.492   1.731   8.471  1.7852  0.4837 -0.3210
  117MOL0     C15326   9.468   1.604   8.396 -0.3848  0.3771  0.5753
  117MOL0     C15327   9.468   1.610   8.240  0.3892 -0.3667  0.6093
  117MOL0     C15328   9.453   1.467   8.182 -0.8236  0.7384 -0.5573
  117MOL0     N15329   9.346   1.388   8.235  0.5396  1.4449  0.7390
  117MOL0     C15330   9.208   1.401   8.208 -0.3109 -0.4713  0.0251
  117MOL0     C15331   9.156   1.281   8.244  0.6020  0.1082  0.1903
  117MOL0     C15332   9.011   1.237   8.231 -0.2750  0.6370  0.0277
  117MOL0     C15333   8.960   1.187   8.358  0.0366  0.6854 -0.3686
  117MOL0     C15334   8.814   1.158   8.373  0.3618 -0.0944  0.4626
  117MOL0     C15335   8.715   1.167   8.251 -0.3609  0.5187 -0.8049
  117MOL0     O15336   8.738   1.072   8.150 -0.2027 -0.0934  0.2789
  117MOL0     C15337   8.675   1.095   8.022 -0.8519  0.6585 -0.8657
  117MOL0     C15338   8.568   1.171   7.990 -0.9207 -0.0796  0.1131
  117MOL0     C15339   8.519   1.193   7.860  0.7288 -0.4870 -0.4099
  117MOL0     C15340   8.572   1.110   7.761 -0.2345 -0.5960  0.3694
  117MOL0     C15341   8.534   1.130   7.619  0.3149  0.4079 -0.8487
  117MOL0     O15342   8.613   1.057   7.530  1.1178  0.1245 -0.2534
  117MOL0     C15343   8.596   1.076   7.393  0.7099 -0.4685 -0.5690
  117MOL0     C15344   8.715   1.101   7.328 -0.9083  0.3745 -0.0157
  117MOL0     C15345   8.705   1.121   7.191  0.0208  0.7188  0.1492
  117MOL0     C15346   8.581   1.103   7.123 -0.0406  0.0642  0.5244
  117MOL0     O15347   8.600   1.106   6.989  0.7472  0.4754  0.1139
  117MOL0     C15348   8.480   1.149   6.911  0.5672 -0.7472  0.2727
  117MOL0     C15349   8.528   1.240   6.793  0.2652  0.9891 -0.7005
  117MOL0     C15350   8.409   1.284   6.713 -0.0456 -0.6576 -0.3597
  117MOL0     C15351   8.458   1.347   6.582  0.8369 -0.9081  0.1024
  117MOL0     C15352   8.348   1.431   6.511 -0.5981 -0.5132  0.0850
  117MOL0     C15353   8.402   1.459   6.365  0.2025 -0.5680 -0.5710
  117MOL0     C15354   8.316   1.545   6.286  0.0764  0.4807 -0.1887
  117MOL0     C15355   8.387   1.563   6.150  0.1390  0.0707  0.0712
  117MOL0    Cl15356   8.286   1.656   6.026 -0.4544 -0.2264  0.3977
  117MOL0     C15357   8.462   1.076   7.195  1.4406 -0.4601  0.0406
  117MOL0     C15358   8.472   1.066   7.327 -0.2920 -0.9033 -0.6630
  117MOL0     O15359   8.439   1.207   7.592 -0.1104  0.8496 -0.1943
  117MOL0     C15360   8.685   1.031   7.797  0.4769 -0.3987  0.9329
  117MOL0     C15361   8.734   1.021   7.926  0.2867 -0.0517  0.2393
  117MOL0     N15362   9.247   1.200   8.293  0.4430 -0.0269  0.1807
  117MOL0     N15363   9.360   1.263   8.296  0.8778 -0.3866  0.1853
  117MOL0     C15364  10.090   1.792   8.619  1.3581  1.0125 -1.4049
  117MOL0     C15365  10.177   1.746   8.719  0.9237 -0.0942 -0.0384
  117MOL0     C15366  10.503   1.792   9.043 -0.3214  0.1165  0.5745
  117MOL0     C15367  10.633   1.771   8.994  0.1511  0.0858  0.3983
  117MOL0     C15368  10.739   1.762   9.079  0.3787 -0.6454  0.5239
  117MOL0     C15369  10.720   1.775   9.223 -0.2462 -0.5062 -0.0704
  117MOL0     O15370  10.836   1.779   9.295 -0.2753 -0.4533 -1.0282
  117MOL0     C15371  10.821   1.816   9.434  0.0027 -0.6653 -0.7507
  117MOL0     C15372  10.955   1.817   9.510  0.8946  0.0038  0.7858
  117MOL0     C15373  11.053   1.917   9.436  0.1051  0.8406  0.1816
  117MOL0     C15374  11.195   1.919   9.502  0.1775 -0.0189 -0.3387
  117MOL0     C15375  11.222   2.029   9.596 -0.2522 -0.3687 -0.8135
  117MOL0     C15376  11.255   2.115   9.678 -0.1886 -0.4733  0.8387
  117MOL0     C15377  10.587   1.797   9.275  1.0429  0.5386  0.4527
  117MOL0     C15378  10.490   1.807   9.179  0.3406  0.1811  0.0657
  117MOL0     H15379  10.402   2.007   8.714  1.1374 -0.8636 -2.0257
  117MOL0     H15380  10.232   2.105   8.564 -0.4863 -0.1554 -0.7177
  117MOL0     H15381   9.910   1.814   8.425  0.3950  0.7174 -0.6474
  117MOL0     H15382   9.858   1.971   8.363 -0.1975 -0.2751 -1.0867
  117MOL0     H15383   9.793   2.034   8.621 -3.1014  0.2115 -1.7376
  117MOL0     H15384   9.821   1.857   8.645  0.6759 -0.1063 -0.4846
  117MOL0     H15385   9.617   2.012   8.490  0.0657  1.2091  2.4435
  117MOL0     H15386   9.585   1.907   8.621 -0.2042 -1.2592 -0.9125
  117MOL0     H15387   9.617   1.825   8.344 -6.0298 -1.4317  0.0077
  117MOL0     H15388   9.702   1.718   8.460  1.4789  0.2779 -1.8355
  117MOL0     H15389   9.407   1.794   8.444  0.4132 -1.3310 -0.4733
  117MOL0     H15390   9.486   1.716   8.579  0.3916  4.1450  0.2392
  117MOL0     H15391   9.367   1.578   8.429 -0.3194  1.8046  1.9851
  117MOL0     H15392   9.538   1.524   8.420 -0.1519  0.1049 -0.8725
  117MOL0     H15393   9.393   1.677   8.197 -2.2290 -0.2915  4.7662
  117MOL0     H15394   9.569   1.648   8.227 -0.6682  3.0890  1.3436
  117MOL0     H15395   9.547   1.420   8.210  0.0979  3.1447  0.6792
  117MOL0     H15396   9.435   1.471   8.074 -3.9565  1.4280 -0.1016
  117MOL0     H15397   9.161   1.495   8.182 -0.9559 -0.4923  1.0597
  117MOL0     H15398   9.006   1.173   8.143  1.2045  1.2795 -0.5738
  117MOL0     H15399   8.950   1.327   8.218  0.2919  1.1890  1.0653
  117MOL0     H15400   8.989   1.262   8.433  0.0878  2.3498 -1.9756
  117MOL0     H15401   9.010   1.097   8.395  2.7651  0.9405 -3.0509
  117MOL0     H15402   8.796   1.068   8.432 -2.0862 -2.0945 -3.0020
  117MOL0     H15403   8.778   1.230   8.447 -2.0244 -3.0045  2.3459
  117MOL0     H15404   8.710   1.271   8.218  1.3423  0.9313  0.1389
  117MOL0     H15405   8.614   1.148   8.290 -0.1248 -3.9335 -1.8082
  117MOL0     H15406   8.528   1.226   8.074 -0.7629 -2.9399  2.2042
  117MOL0     H15407   8.458   1.283   7.847  3.4100  1.4804 -0.1459
  117MOL0     H15408   8.796   1.112   7.399 -4.1569  1.9104  3.8363
  117MOL0     H15409   8.793   1.142   7.131  0.3097 -0.2305  0.2346
  117MOL0     H15410   8.413   1.206   6.975  0.2597  0.9833 -1.4642
  117MOL0     H15411   8.419   1.067   6.871 -2.2322  2.1174 -1.8977
  117MOL0     H15412   8.589   1.180   6.724 -2.5763 -0.5122 -2.0667
  117MOL0     H15413   8.588   1.324   6.830  1.6969 -0.0717 -0.4903
  117MOL0     H15414   8.337   1.344   6.770 -1.6999 -1.3256 -1.6628
  117MOL0     H15415   8.351   1.195   6.689 -1.2154 -1.3393  4.0144
  117MOL0     H15416   8.536   1.422   6.596  1.9294 -1.8800 -0.5918
  117MOL0     H15417   8.495   1.271   6.511  0.0700 -0.0949 -1.2174
  117MOL0     H15418   8.318   1.522   6.564 -2.5519 -0.9651 -0.1368
  117MOL0     H15419   8.261   1.364   6.502 -2.3072  1.6015  0.0416
  117MOL0     H15420   8.422   1.369   6.306 -3.2242 -2.4343  0.8471
  117MOL0     H15421   8.500   1.508   6.374  1.6100 -2.5330 -3.5025
  117MOL0     H15422   8.216   1.503   6.272  1.2682 -3.0331  0.8794
  117MOL0     H15423   8.303   1.643   6.334  1.6432  0.4602  0.3355
  117MOL0     H15424   8.406   1.467   6.101 -0.5372  0.5095 -1.0791
  117MOL0     H15425   8.486   1.610   6.157  0.7084  0.1199 -4.7400
  117MOL0     H15426   8.372   1.070   7.135  0.4650  1.3985  1.2103
  117MOL0     H15427   8.384   1.020   7.371 -0.3438 -0.7504 -0.6038
  117MOL0     H15428   8.749   0.972   7.733  2.2331  1.2213  1.1147
  117MOL0     H15429   8.820   0.955   7.933 -0.6022 -1.8605 -3.2890
  117MOL0     H15430  10.013   1.722   8.591  0.4445  2.2705 -2.0940
  117MOL0     H15431  10.158   1.656   8.777 -3.7560  2.7736  3.6314
  117MOL0     H15432  10.650   1.770   8.887 -1.1650  2.0945  0.1282
  117MOL0     H15433  10.838   1.737   9.043  0.3417  0.9115 -0.7293
  117MOL0     H15434  10.758   1.737   9.475  1.0134 -1.9673 -1.6313
  117MOL0     H15435  10.772   1.912   9.454  1.4164  0.0834 -0.7517
  117MOL0     H15436  10.940   1.840   9.616 -1.2356  1.0313  0.3071
  117MOL0     H15437  10.993   1.714   9.508  1.9746  0.3963  0.5041
  117MOL0     H15438  11.021   2.020   9.449 -0.1778  0.6870  0.7059
  117MOL0     H15439  11.065   1.884   9.332  1.4137 -0.6306  0.7562
  117MOL0     H15440  11.210   1.830   9.563  4.2276  0.5181 -0.2795
  117MOL0     H15441  11.276   1.917   9.428 -0.0870  0.6857 -0.6565
  117MOL0     H15442  11.287   2.206   9.724 -3.0501 -0.0542  2.2496
  117MOL0     H15443  10.566   1.819   9.379  1.8654 -2.4301  1.3466
  117MOL0     H15444  10.388   1.829   9.210  1.1196  1.9886  1.5406
  118MOL0     O15445   3.151   0.859   2.464  0.0060  0.1839  0.2561
  118MOL0     C15446   3.249   0.909   2.516  0.2564  0.7532  0.7030
  118MOL0     O15447   3.318   1.010   2.460 -0.6210  0.5340 -0.4488
  118MOL0     C15448   3.287   1.073   2.341 -0.2513 -0.6401  0.5561
  118MOL0     C15449   3.324   1.201   2.329  0.2329 -0.7522 -0.4941
  118MOL0     C15450   3.284   1.289   2.226 -0.1603  0.4199 -0.4334
  118MOL0     C15451   3.199   1.232   2.128 -0.1755 -0.2574 -0.4507
  118MOL0     O15452   3.149   1.309   2.027 -0.4162 -0.3074  0.1596
  118MOL0     C15453   3.117   1.446   2.061 -0.4101 -0.5105  0.3342
  118MOL0     C15454   3.088   1.518   1.932  1.2288  0.3628 -0.5101
  118MOL0     C15455   3.188   1.504   1.819 -0.6621 -0.6384 -0.8556
  118MOL0     C15456   3.294   1.608   1.846  0.1171  0.2231  1.0133
  118MOL0     C15457   3.407   1.581   1.746 -0.0135 -0.3660  0.3498
  118MOL0     C15458   3.524   1.678   1.773  0.1220  0.0816 -0.7360
  118MOL0     C15459   3.604   1.672   1.901  0.0954  0.4311 -0.0497
  118MOL0     C15460   3.743   1.735   1.887 -0.5727  0.1837 -0.4900
  118MOL0     N15461   3.750   1.879   1.900 -0.0510 -1.6541 -0.5910
  118MOL0     C15462   3.761   1.972   1.790  1.2319 -0.7626 -0.0707
  118MOL0     C15463   3.747   2.089   1.848  0.4375 -0.6337  0.2651
  118MOL0     C15464   3.733   2.218   1.780  0.2214  0.3229  0.0684
  118MOL0     C15465   3.861   2.299   1.795 -0.1534 -0.6693 -0.8930
  118MOL0     C15466   3.963   2.247   1.713  0.6558 -0.3052  0.7614
  118MOL0     C15467   4.105   2.287   1.748 -0.6243  1.0970 -0.7927
  118MOL0     O15468   4.214   2.194   1.714  0.7322 -0.0078 -0.3609
  118MOL0     C15469   4.255   2.168   1.590 -0.0052 -1.0542  0.0227
  118MOL0     C15470   4.385   2.150   1.562 -0.4936 -0.2445 -0.1137
  118MOL0     C15471   4.428   2.133   1.427  0.4500 -0.7823 -0.2157
  118MOL0     C15472   4.349   2.122   1.325 -1.0384 -0.5908 -0.0495
  118MOL0     C15473   4.396   2.063   1.192 -0.1292 -0.1537  0.2878
  118MOL0     O15474   4.527   2.025   1.176 -0.0098  0.1031 -0.2259
  118MOL0     C15475   4.573   1.991   1.052 -0.3993 -0.5559  0.1426
  118MOL0     C15476   4.537   1.869   0.990  0.9398  0.1203  0.0013
  118MOL0     C15477   4.576   1.857   0.858 -0.2192  0.5173 -0.7410
  118MOL0     C15478   4.655   1.945   0.796  0.2084 -1.0298  1.0441
  118MOL0     O15479   4.689   1.936   0.658  0.5944  0.2452  0.4785
  118MOL0     C15480   4.630   1.832   0.570  0.4370 -0.6239  0.3447
  118MOL0     C15481   4.663   1.873   0.429  0.7838 -0.5628 -0.0938
  118MOL0     C15482   4.703   1.740   0.361 -1.1921 -1.0485  1.0521
  118MOL0     C15483   4.587   1.643   0.350  0.3707 -0.3405  0.5148
  118MOL0     C15484   4.466   1.707   0.282 -0.1238  0.9077 -0.0921
  118MOL0     C15485   4.352   1.602   0.268  0.6171  1.6001  0.3295
  118MOL0     C15486   4.250   1.652   0.154 -0.2011  0.3041 -0.2389
  118MOL0     C15487   4.292   1.608   0.012  0.0711 -0.3281  0.6253
  118MOL0    Cl15488   4.306   1.429   0.010  0.2091  0.1054 -0.2650
  118MOL0     C15489   4.701   2.055   0.861 -0.4439 -0.9736 -0.2950
  118MOL0     C15490   4.663   2.084   0.989  0.1775  0.2588  0.2379
  118MOL0     O15491   4.306   2.042   1.109  0.0553  1.5739 -0.9161
  118MOL0     C15492   4.216   2.147   1.342 -0.0735 -0.3594  0.3841
  118MOL0     C15493   4.168   2.173   1.472  0.2997 -0.3757  0.8881
  118MOL0     N15494   3.741   2.074   1.987  0.1354 -0.5662  0.1222
  118MOL0     N15495   3.743   1.951   2.013  0.7575  0.2281 -0.2734
  118MOL0     C15496   3.162   1.095   2.127 -0.6228  0.6789 -0.1264
  118MOL0     C15497   3.207   1.019   2.237  0.0139  0.2428 -1.1977
  118MOL0     C15498   3.307   0.825   2.631 -0.7900  0.2473  0.1075
  118MOL0     C15499   3.262   0.704   2.677  0.1628  0.3721  0.2841
  118MOL0     C15500   3.330   0.630   2.771 -0.4858  0.1604 -0.0768
  118MOL0     C15501   3.450   0.676   2.821 -0.6265 -0.1612  0.3739
  118MOL0     O15502   3.512   0.602   2.918 -0.0722  0.6736 -0.1357
  118MOL0     C15503   3.653   0.617   2.945  0.4947  0.7944 -0.9215
  118MOL0     C15504   3.753   0.606   2.830  0.8879  0.8426  0.7692
  118MOL0     C15505   3.897   0.645   2.868  0.5437  0.5752  0.0015
  118MOL0     C15506   3.922   0.795   2.907 -0.8628 -0.1858  0.5508
  118MOL0     C15507   3.878   0.889   2.808  0.8777  0.2821  0.9817
  118MOL0     C15508   3.845   0.973   2.725  0.3467  0.9890  0.0411
  118MOL0     C15509   3.494   0.804   2.780 -0.5685  0.0142  0.1637
  118MOL0     C15510   3.430   0.872   2.682 -0.2988  0.3320 -0.1821
  118MOL0     H15511   3.409   1.223   2.393  0.6232 -2.1802 -0.4896
  118MOL0     H15512   3.319   1.392   2.219 -0.4600  0.5993  0.6483
  118MOL0     H15513   3.205   1.497   2.102  0.9232 -1.0203 -1.7320
  118MOL0     H15514   3.032   1.449   2.129 -0.8963 -0.6171 -0.2651
  118MOL0     H15515   3.073   1.625   1.944 -1.1458 -0.0624  1.0491
  118MOL0     H15516   2.992   1.495   1.885  1.6553  0.6500 -1.5367
  118MOL0     H15517   3.143   1.524   1.722 -3.6587 -0.3996  0.4836
  118MOL0     H15518   3.219   1.399   1.819 -3.5728 -1.6070 -2.2115
  118MOL0     H15519   3.249   1.703   1.816 -3.3229 -1.2041  1.2061
  118MOL0     H15520   3.321   1.616   1.952  0.8967  4.0580  0.6520
  118MOL0     H15521   3.381   1.612   1.644  1.2083  1.9668  0.6857
  118MOL0     H15522   3.430   1.474   1.745 -0.6729 -0.5670 -2.6286
  118MOL0     H15523   3.486   1.778   1.754  0.0973 -0.2265 -2.4387
  118MOL0     H15524   3.593   1.650   1.693  0.5690  2.0245 -1.0678
  118MOL0     H15525   3.542   1.730   1.970  2.2613  1.7203  0.9600
  118MOL0     H15526   3.617   1.566   1.926 -2.0309  0.7660  3.1182
  118MOL0     H15527   3.794   1.694   1.799  0.7289  1.8109 -0.5282
  118MOL0     H15528   3.803   1.703   1.973 -1.4949 -4.5555 -1.3295
  118MOL0     H15529   3.774   1.950   1.684  1.0523 -2.1967  0.1735
  118MOL0     H15530   3.653   2.278   1.824 -0.7358 -0.2970 -0.8089
  118MOL0     H15531   3.692   2.198   1.681  2.2446 -1.9506 -0.3962
  118MOL0     H15532   3.876   2.292   1.903 -2.6806 -1.4623 -0.5300
  118MOL0     H15533   3.842   2.404   1.772 -4.4167 -0.7122  1.3526
  118MOL0     H15534   3.966   2.138   1.717  2.1302 -0.2587  2.6623
  118MOL0     H15535   3.943   2.291   1.615  0.3194 -2.2413 -0.0850
  118MOL0     H15536   4.111   2.296   1.856 -1.2365  1.1964 -0.7618
  118MOL0     H15537   4.128   2.381   1.697  2.9644 -0.7236 -2.9334
  118MOL0     H15538   4.457   2.147   1.644 -0.6366 -0.0197  0.0220
  118MOL0     H15539   4.536   2.127   1.418  0.3663 -0.4980 -1.6805
  118MOL0     H15540   4.453   1.825   1.041 -1.0139  3.4299 -0.0890
  118MOL0     H15541   4.547   1.765   0.807  3.4673  0.0131 -2.3265
  118MOL0     H15542   4.522   1.817   0.582  0.7593 -2.3580  1.5534
  118MOL0     H15543   4.663   1.731   0.597 -2.0167 -1.6204 -0.1146
  118MOL0     H15544   4.753   1.935   0.431  1.1343 -0.9055 -2.4337
  118MOL0     H15545   4.588   1.926   0.371  2.6549 -2.3079 -4.5168
  118MOL0     H15546   4.775   1.683   0.421 -0.5004 -1.1483  0.1500
  118MOL0     H15547   4.742   1.757   0.261 -0.4989  0.7612  1.5917
  118MOL0     H15548   4.623   1.565   0.282  0.4563 -1.2798  1.6127
  118MOL0     H15549   4.557   1.594   0.443  2.9171 -0.9051  1.1121
  118MOL0     H15550   4.498   1.745   0.184  1.2614  1.7487  0.6648
  118MOL0     H15551   4.434   1.792   0.342 -1.7370  0.3990 -0.1831
  118MOL0     H15552   4.293   1.616   0.360 -1.4860  2.4654 -1.0620
  118MOL0     H15553   4.381   1.497   0.274 -1.7544  0.9238  4.6442
  118MOL0     H15554   4.153   1.608   0.178 -0.7088  1.6342  0.2342
  118MOL0     H15555   4.243   1.760   0.172  0.3558  0.4374 -0.7781
  118MOL0     H15556   4.381   1.660  -0.024 -2.2559  3.8364  0.3403
  118MOL0     H15557   4.216   1.647  -0.055 -0.2508 -1.6176  0.1990
  118MOL0     H15558   4.764   2.126   0.809 -0.5079 -0.5366  0.2150
  118MOL0     H15559   4.678   2.180   1.038 -3.7938  0.7790  0.7330
  118MOL0     H15560   4.149   2.146   1.256  0.2374  0.1966  0.1305
  118MOL0     H15561   4.062   2.193   1.487  0.7568  3.5191  0.0051
  118MOL0     H15562   3.113   1.058   2.038  3.7742 -2.9517 -1.3439
  118MOL0     H15563   3.185   0.913   2.228  0.9642 -0.3943  2.2985
  118MOL0     H15564   3.167   0.667   2.639 -0.8756 -2.0355  4.4990
  118MOL0     H15565   3.281   0.542   2.811  0.0624 -0.2698 -0.3375
  118MOL0     H15566   3.686   0.553   3.027  0.6091 -0.4520 -1.8995
  118MOL0     H15567   3.663   0.715   2.993 -1.7196 -0.5584  2.6882
  118MOL0     H15568   3.751   0.505   2.787 -0.6015  1.0967  0.1492
  118MOL0     H15569   3.727   0.670   2.745  0.5037 -3.0505 -2.4102
  118MOL0     H15570   3.958   0.626   2.779 -1.5283 -1.1087 -1.1392
  118MOL0     H15571   3.922   0.583   2.955 -0.8051 -0.2699 -0.1874
  118MOL0     H15572   3.865   0.810   2.999  0.4199  1.2324  1.1421
  118MOL0     H15573   4.030   0.808   2.916 -0.5362 -2.1274 -0.0805
  118MOL0     H15574   3.809   1.047   2.658  1.7816 -0.7448 -2.8285
  118MOL0     H15575   3.585   0.846   2.824 -0.4273 -0.2172  0.0959
  118MOL0     H15576   3.494   0.943   2.631  1.6185 -2.1519 -1.4173
  119MOL0     O15577  10.188   7.582   0.334 -0.4571 -0.6473  0.0146
  119MOL0     C15578  10.157   7.698   0.349  0.6211  0.2775 -0.1303
  119MOL0     O15579  10.145   7.760   0.471 -0.4914 -0.0075 -0.2777
  119MOL0     C15580  10.159   7.696   0.597  0.6971 -0.6211 -0.0856
  119MOL0     C15581  10.211   7.765   0.702  0.4398  0.4806 -0.0483
  119MOL0     C15582  10.210   7.711   0.832 -1.2157  0.1220 -0.4169
  119MOL0     C15583  10.179   7.574   0.845  0.4825  0.2979 -0.6786
  119MOL0     O15584  10.214   7.510   0.965  0.0651  1.0420  0.5876
  119MOL0     C15585  10.176   7.373   0.991  0.1777 -0.1486  0.0562
  119MOL0     C15586  10.208   7.339   1.132  0.1880  1.1328 -1.2984
  119MOL0     C15587  10.348   7.358   1.182 -0.3505  0.5323 -0.4147
  119MOL0     C15588  10.353   7.327   1.333 -0.3603  0.0938 -0.5362
  119MOL0     C15589  10.307   7.183   1.383 -0.0630  0.3386 -0.4254
  119MOL0     C15590  10.417   7.077   1.359 -0.3318  0.6269 -0.3697
  119MOL0     C15591  10.539   7.090   1.453 -0.2870  1.0399 -0.5087
  119MOL0     C15592  10.507   7.090   1.606  0.2909 -0.4346 -1.1663
  119MOL0     N15593  10.446   6.969   1.661  1.5991  0.2346 -0.0176
  119MOL0     C15594  10.512   6.851   1.654 -0.1420 -0.3284 -0.4597
  119MOL0     C15595  10.431   6.757   1.708  1.2086 -0.5113 -1.5686
  119MOL0     C15596  10.464   6.617   1.755 -0.8318  0.2388  0.3425
  119MOL0     C15597  10.515   6.519   1.650  0.5167 -0.0027 -0.1484
  119MOL0     C15598  10.396   6.448   1.585  0.6971  0.7939 -1.0424
  119MOL0     C15599  10.307   6.530   1.485 -0.0152 -0.2199 -1.2412
  119MOL0     O15600  10.387   6.607   1.418 -0.3352  0.7878  0.0468
  119MOL0     C15601  10.333   6.671   1.306 -0.6665  0.0130  0.1414
  119MOL0     C15602  10.196   6.705   1.292  0.6391 -0.3683 -0.5963
  119MOL0     C15603  10.155   6.780   1.178  0.3397 -0.5060  0.7529
  119MOL0     C15604  10.246   6.826   1.082  0.9523  0.0863 -0.3288
  119MOL0     C15605  10.190   6.918   0.973 -0.0347 -0.3712  0.4414
  119MOL0     O15606  10.057   6.912   0.936  0.1158  0.1037  0.2636
  119MOL0     C15607  10.017   7.016   0.851 -0.5186 -0.5453  0.1175
  119MOL0     C15608  10.057   7.000   0.717  0.2874 -0.9832  0.4923
  119MOL0     C15609  10.008   7.076   0.612  0.0924 -0.1995  0.0323
  119MOL0     C15610   9.900   7.162   0.639 -0.9088 -0.0834 -1.1600
  119MOL0     O15611   9.850   7.231   0.535  0.3781 -0.1933  0.6753
  119MOL0     C15612   9.767   7.345   0.577  0.2787  0.1546 -0.4293
  119MOL0     C15613   9.723   7.418   0.448  0.2928  0.1673 -0.1294
  119MOL0     C15614   9.835   7.478   0.361 -0.8524  0.1514 -0.3748
  119MOL0     C15615   9.782   7.526   0.224 -0.5144 -0.4438 -0.0086
  119MOL0     C15616   9.706   7.662   0.214  0.2779  1.0349 -0.3744
  119MOL0     C15617   9.637   7.682   0.078  0.8400  0.6692  1.0653
  119MOL0     C15618   9.559   7.816   0.071 -0.4326  0.0383  0.2664
  119MOL0     C15619   9.528   7.867  -0.073 -0.7706  0.4698 -0.1915
  119MOL0    Cl15620   9.415   8.015  -0.051  0.2313  0.1811  0.5781
  119MOL0     C15621   9.864   7.180   0.776  0.1216  0.4464 -0.4691
  119MOL0     C15622   9.914   7.100   0.879 -0.8264  0.5117  0.7261
  119MOL0     O15623  10.274   6.997   0.916 -0.0585 -0.1662  0.4167
  119MOL0     C15624  10.385   6.807   1.111 -0.3642 -1.3236 -0.8295
  119MOL0     C15625  10.425   6.725   1.217  0.1096 -0.6495  0.8121
  119MOL0     N15626  10.307   6.824   1.729  0.2798 -0.0639 -0.4048
  119MOL0     N15627  10.319   6.946   1.704 -0.3565 -0.0594  0.3667
  119MOL0     C15628  10.108   7.515   0.741  0.6644  0.3531 -0.4909
  119MOL0     C15629  10.103   7.569   0.613  0.5871  0.2970  0.6964
  119MOL0     C15630  10.106   7.778   0.237  0.5239 -1.5770  0.2807
  119MOL0     C15631  10.047   7.906   0.258 -0.4452  0.7852  0.6617
  119MOL0     C15632   9.985   7.977   0.152 -0.8145  0.7124 -0.0121
  119MOL0     C15633   9.989   7.917   0.024 -0.3494 -0.1467  0.2617
  119MOL0     O15634   9.916   7.964  -0.085  0.2082  0.0516  0.2958
  119MOL0     C15635   9.896   8.106  -0.102  0.1173 -0.5540 -1.1112
  119MOL0     C15636   9.950   8.158  -0.233  1.2859  0.3155  0.1222
  119MOL0     C15637   9.965   8.315  -0.244  0.0255 -0.1388 -0.5492
  119MOL0     C15638  10.054   8.334  -0.372 -0.4832 -0.0972  0.0205
  119MOL0     C15639  10.115   8.476  -0.370 -0.4136  0.3172  0.5267
  119MOL0     C15640  10.169   8.581  -0.386 -0.7172 -0.7093  0.3459
  119MOL0     C15641  10.049   7.791   0.002 -1.0149 -0.4201 -0.3321
  119MOL0     C15642  10.108   7.724   0.112  0.0740  0.1728 -0.6159
  119MOL0     H15643  10.223   7.871   0.681  0.3501 -0.1071 -3.5711
  119MOL0     H15644  10.243   7.767   0.918  0.7249  1.1524 -1.7542
  119MOL0     H15645  10.231   7.303   0.929 -0.9725  0.1537 -1.3743
  119MOL0     H15646  10.067   7.359   0.983 -0.0512  1.6080 -0.5326
  119MOL0     H15647  10.188   7.232   1.142 -1.5058  1.4454 -1.0351
  119MOL0     H15648  10.136   7.389   1.198 -1.1125  1.8211 -3.1323
  119MOL0     H15649  10.368   7.465   1.184  1.1773  0.3207  2.7863
  119MOL0     H15650  10.414   7.301   1.116  0.7812  0.1558  0.9818
  119MOL0     H15651  10.451   7.357   1.371 -1.8486  1.2482  2.7898
  119MOL0     H15652  10.287   7.395   1.388  0.8056 -0.1173  1.1905
  119MOL0     H15653  10.229   7.130   1.327  0.5612 -3.4593  1.9372
  119MOL0     H15654  10.270   7.188   1.486  0.8919 -0.7000 -0.0059
  119MOL0     H15655  10.451   7.082   1.255  0.1033 -1.0797 -0.3355
  119MOL0     H15656  10.381   6.974   1.360  2.5078 -0.4431 -0.3225
  119MOL0     H15657  10.599   6.999   1.441 -0.2023  0.9304  0.6519
  119MOL0     H15658  10.600   7.176   1.424  1.6781  0.0600  0.4661
  119MOL0     H15659  10.452   7.180   1.634  0.5467  0.0588 -2.1736
  119MOL0     H15660  10.598   7.094   1.666 -0.7234 -0.7961  0.4408
  119MOL0     H15661  10.615   6.834   1.624  0.3093  2.9802 -1.2285
  119MOL0     H15662  10.380   6.580   1.815 -0.5636 -0.9929 -0.0196
  119MOL0     H15663  10.549   6.629   1.822 -1.3994  0.0174  1.1199
  119MOL0     H15664  10.571   6.441   1.703 -0.2918 -1.2931 -1.1294
  119MOL0     H15665  10.579   6.567   1.576  0.3952 -0.4706 -0.5679
  119MOL0     H15666  10.448   6.370   1.530 -1.6006 -1.9319  0.4135
  119MOL0     H15667  10.325   6.406   1.658  2.6989 -1.9377 -0.5108
  119MOL0     H15668  10.241   6.595   1.543  1.9417  2.3859 -1.7176
  119MOL0     H15669  10.251   6.464   1.418 -0.6680  0.7420 -1.6659
  119MOL0     H15670  10.120   6.671   1.361  0.4647 -0.0655 -0.6375
  119MOL0     H15671  10.049   6.802   1.169  0.9950  2.4048 -1.2281
  119MOL0     H15672  10.124   6.916   0.702  2.2621  0.1765  2.2448
  119MOL0     H15673  10.044   7.057   0.512 -1.0491 -1.0134 -0.2529
  119MOL0     H15674   9.817   7.415   0.644 -1.5765  0.4391  0.7108
  119MOL0     H15675   9.682   7.315   0.638  1.4450  2.5078  2.6188
  119MOL0     H15676   9.660   7.500   0.482  0.1475  0.2567 -0.6146
  119MOL0     H15677   9.661   7.357   0.382 -1.7928  1.1244  0.8435
  119MOL0     H15678   9.911   7.402   0.342 -2.3166 -1.1466 -1.2816
  119MOL0     H15679   9.869   7.569   0.412 -2.3507  0.0792  0.8387
  119MOL0     H15680   9.868   7.533   0.157 -1.0326 -0.4884 -0.6911
  119MOL0     H15681   9.719   7.456   0.168 -1.5813  1.0450 -0.7407
  119MOL0     H15682   9.772   7.746   0.235  0.1362  1.3552 -1.1547
  119MOL0     H15683   9.631   7.658   0.293 -0.2291  1.5102 -0.8236
  119MOL0     H15684   9.578   7.592   0.058  0.6066  1.2613 -1.2423
  119MOL0     H15685   9.723   7.683   0.009 -0.7794 -0.5275 -1.0792
  119MOL0     H15686   9.462   7.809   0.120 -0.7288  0.7377 -0.2077
  119MOL0     H15687   9.613   7.901   0.114  0.1393 -0.1139 -0.1328
  119MOL0     H15688   9.467   7.793  -0.126 -0.1144 -0.0039 -0.3012
  119MOL0     H15689   9.621   7.895  -0.122  0.0952  0.6923  1.5031
  119MOL0     H15690   9.781   7.246   0.802 -1.0557 -0.9287 -0.5997
  119MOL0     H15691   9.865   7.106   0.975 -3.1935  0.3651 -0.4009
  119MOL0     H15692  10.455   6.856   1.043 -2.3226 -0.4516 -2.3138
  119MOL0     H15693  10.532   6.710   1.227  0.5069  0.9984 -0.4992
  119MOL0     H15694  10.066   7.416   0.749 -1.7761  1.0898 -3.0326
  119MOL0     H15695  10.057   7.520   0.528 -0.0107  1.6042  0.2493
  119MOL0     H15696  10.045   7.951   0.357  0.2724  1.6311  0.3052
  119MOL0     H15697   9.933   8.067   0.183 -1.4519  1.0263 -1.8714
  119MOL0     H15698   9.943   8.165  -0.023 -0.9944  0.6726 -1.3298
  119MOL0     H15699   9.791   8.135  -0.100  0.0199 -0.9544  0.0816
  119MOL0     H15700  10.047   8.112  -0.252  1.4264  1.0353 -1.0138
  119MOL0     H15701   9.880   8.134  -0.314 -1.2889  1.9422  1.7178
  119MOL0     H15702  10.020   8.361  -0.160  0.2755  1.1317 -1.3815
  119MOL0     H15703   9.864   8.357  -0.249  0.7288  1.6741 -0.4473
  119MOL0     H15704  10.137   8.263  -0.369 -1.7816 -1.6392  1.8357
  119MOL0     H15705   9.998   8.321  -0.465  1.3905  0.7616 -1.3070
  119MOL0     H15706  10.218   8.675  -0.399 -0.2973 -1.1532 -1.6448
  119MOL0     H15707  10.059   7.758  -0.101  1.3539  1.9306 -0.9617
  119MOL0     H15708  10.148   7.624   0.098  4.0807  1.5124  0.0174
  120MOL0     O15709   7.555   2.938   6.189 -0.5420  0.1725 -0.4131
  120MOL0     C15710   7.652   3.007   6.155 -0.3183  0.9260  0.5275
  120MOL0     O15711   7.649   3.108   6.057  1.3598  0.1656  0.2836
  120MOL0     C15712   7.527   3.153   6.025  0.6644  1.3368  0.7405
  120MOL0     C15713   7.468   3.275   6.061  0.1153  0.8244  0.1342
  120MOL0     C15714   7.350   3.317   6.001  0.0016  0.9212  0.3949
  120MOL0     C15715   7.285   3.242   5.901 -0.1710 -1.1142 -0.5266
  120MOL0     O15716   7.172   3.300   5.853 -0.0246  0.8593 -0.2905
  120MOL0     C15717   7.126   3.268   5.724  0.7938  0.1566 -0.3754
  120MOL0     C15718   7.032   3.146   5.725 -0.8820  0.3628 -0.8779
  120MOL0     C15719   6.913   3.161   5.810  0.1251 -0.4072 -0.6251
  120MOL0     C15720   6.815   3.277   5.783 -0.1563  0.6301 -0.2500
  120MOL0     C15721   6.673   3.234   5.803 -0.0565 -0.3496 -0.0638
  120MOL0     C15722   6.629   3.184   5.937 -0.4583 -0.3551 -1.0141
  120MOL0     C15723   6.476   3.174   5.929 -0.3370 -0.2624 -0.2931
  120MOL0     C15724   6.421   3.109   6.065  0.4861 -1.1188  0.7822
  120MOL0     N15725   6.311   3.021   6.027 -0.0667  0.4407 -0.5804
  120MOL0     C15726   6.177   3.048   6.058 -0.7176 -0.1101 -0.5825
  120MOL0     C15727   6.106   2.947   6.022 -0.4535 -0.0956 -0.0020
  120MOL0     C15728   5.965   2.928   6.062  0.2676  0.2158  0.9522
  120MOL0     C15729   5.870   2.977   5.953 -0.4433 -0.6662  0.5280
  120MOL0     C15730   5.839   2.853   5.855 -0.4545 -2.1533 -0.1943
  120MOL0     C15731   5.784   2.912   5.722  0.2085  0.7532 -0.9555
  120MOL0     O15732   5.885   2.992   5.651 -0.1170  0.8035  1.1910
  120MOL0     C15733   5.970   2.913   5.566  0.1043  0.0403 -0.0783
  120MOL0     C15734   5.940   2.901   5.431 -0.0463  0.0908 -1.3171
  120MOL0     C15735   6.028   2.828   5.347 -0.3804 -0.8921  0.6366
  120MOL0     C15736   6.147   2.767   5.393  0.0991 -0.2151  0.4533
  120MOL0     C15737   6.245   2.708   5.300  1.0671 -0.4610  0.6071
  120MOL0     O15738   6.228   2.746   5.161  0.0632  0.0069 -0.2834
  120MOL0     C15739   6.324   2.716   5.069 -0.2076 -0.1855  0.1094
  120MOL0     C15740   6.349   2.799   4.954  0.9775 -0.3005 -0.3710
  120MOL0     C15741   6.444   2.771   4.848  0.3843  1.0301 -1.5056
  120MOL0     C15742   6.525   2.658   4.865 -0.6396  0.0962 -0.4349
  120MOL0     O15743   6.621   2.628   4.769  0.8504 -0.3460 -0.6280
  120MOL0     C15744   6.710   2.529   4.801 -0.2584  1.0878 -0.0708
  120MOL0     C15745   6.828   2.566   4.722 -0.6015  0.7344 -1.2494
  120MOL0     C15746   6.944   2.471   4.753 -0.1036  0.9484  0.1961
  120MOL0     C15747   7.024   2.488   4.884 -0.2660  1.0805  0.7278
  120MOL0     C15748   7.029   2.356   4.973 -0.5041  0.0189  0.1609
  120MOL0     C15749   6.904   2.351   5.063 -0.1193 -0.7732  0.2758
  120MOL0     C15750   6.910   2.238   5.181  0.9387 -0.0251 -0.1201
  120MOL0     C15751   6.883   2.095   5.114 -0.1823 -0.5104  0.1808
  120MOL0    Cl15752   6.794   2.010   5.238 -0.2673  0.3370 -0.3289
  120MOL0     C15753   6.505   2.575   4.987 -0.2363  0.3299 -1.4151
  120MOL0     C15754   6.398   2.596   5.076 -0.0920 -0.1371  1.4810
  120MOL0     O15755   6.344   2.661   5.339 -0.0732 -0.5763  0.3819
  120MOL0     C15756   6.167   2.768   5.532  0.7987 -0.4023 -0.4401
  120MOL0     C15757   6.073   2.831   5.613 -0.6943 -0.5102  0.4568
  120MOL0     N15758   6.189   2.863   5.957  0.1451  0.2681  0.3902
  120MOL0     N15759   6.310   2.906   5.954  0.1693 -0.0924  0.0993
  120MOL0     C15760   7.343   3.123   5.863 -0.5552 -0.5003  1.3555
  120MOL0     C15761   7.465   3.073   5.919  0.8213 -0.0615 -0.0105
  120MOL0     C15762   7.788   2.991   6.215 -0.1459 -0.8134 -0.3314
  120MOL0     C15763   7.826   2.895   6.312  0.4359  0.0699  0.5613
  120MOL0     C15764   7.952   2.881   6.367  0.3088 -0.1483  0.2477
  120MOL0     C15765   8.049   2.978   6.324  0.6664  0.2261  0.0502
  120MOL0     O15766   8.177   2.996   6.382 -0.8264 -0.1384 -0.4315
  120MOL0     C15767   8.217   2.916   6.486  0.5953  0.6739 -0.6703
  120MOL0     C15768   8.352   2.967   6.533  0.2234  0.8841  0.8379
  120MOL0     C15769   8.440   2.961   6.410 -0.1272 -0.0760  0.4067
  120MOL0     C15770   8.467   2.813   6.355 -0.1962 -0.4076 -0.0856
  120MOL0     C15771   8.600   2.811   6.288  0.7778  0.7058 -0.7949
  120MOL0     C15772   8.701   2.809   6.229 -0.1885 -0.6647 -0.4277
  120MOL0     C15773   8.018   3.063   6.222  0.2957 -0.0799 -0.0861
  120MOL0     C15774   7.892   3.064   6.165  0.2873  0.4978 -0.5232
  120MOL0     H15775   7.516   3.330   6.142  2.8687 -0.7805 -0.2939
  120MOL0     H15776   7.301   3.412   6.019  0.7072  1.5570 -0.9416
  120MOL0     H15777   7.210   3.262   5.654  1.7569  0.7313  0.6918
  120MOL0     H15778   7.073   3.356   5.687  1.1250 -0.1824 -1.7273
  120MOL0     H15779   7.091   3.056   5.747  1.2537  1.7233 -0.7410
  120MOL0     H15780   6.994   3.136   5.622 -0.0821 -0.7254 -1.0827
  120MOL0     H15781   6.946   3.153   5.913 -1.3017 -0.0557 -0.1139
  120MOL0     H15782   6.862   3.065   5.796  0.0753 -0.5311  0.3822
  120MOL0     H15783   6.834   3.365   5.845 -0.5629  2.4005 -2.4580
  120MOL0     H15784   6.831   3.286   5.675  0.4635 -2.1284 -0.4667
  120MOL0     H15785   6.651   3.161   5.724  0.0823 -2.8066  2.0339
  120MOL0     H15786   6.624   3.331   5.793  0.4506  0.0783  1.3824
  120MOL0     H15787   6.660   3.247   6.021  0.8017 -3.2345  0.8208
  120MOL0     H15788   6.679   3.090   5.962 -2.5894 -1.7272 -1.6610
  120MOL0     H15789   6.434   3.264   5.885 -1.8031 -1.2054 -0.9143
  120MOL0     H15790   6.444   3.106   5.850  2.1790 -0.4697 -1.2035
  120MOL0     H15791   6.391   3.184   6.139 -3.4972 -3.0132  1.3480
  120MOL0     H15792   6.501   3.050   6.111  3.9376  2.4939 -0.0103
  120MOL0     H15793   6.152   3.135   6.117  0.9020  1.2120 -1.7624
  120MOL0     H15794   5.944   2.976   6.159  0.0900 -1.7316  1.9246
  120MOL0     H15795   5.946   2.824   6.087 -0.5700  0.4593  1.3747
  120MOL0     H15796   5.927   3.051   5.896 -1.7258  0.0043  0.0840
  120MOL0     H15797   5.777   3.021   5.990 -0.0504  0.6024  0.0435
  120MOL0     H15798   5.933   2.797   5.848  0.1417 -1.1377 -0.5307
  120MOL0     H15799   5.770   2.781   5.901  0.7170 -2.2009  1.6069
  120MOL0     H15800   5.697   2.966   5.759 -0.4689 -0.2197 -1.1018
  120MOL0     H15801   5.746   2.832   5.658 -3.1487 -0.1267  1.8508
  120MOL0     H15802   5.850   2.952   5.400 -2.0081 -2.0906  0.4943
  120MOL0     H15803   5.993   2.822   5.244  0.1193  2.3555  0.1642
  120MOL0     H15804   6.290   2.890   4.948  1.2345 -0.0347  0.8840
  120MOL0     H15805   6.460   2.850   4.776  2.0344  3.5027  1.3438
  120MOL0     H15806   6.692   2.425   4.771  2.8098  0.2311  0.6679
  120MOL0     H15807   6.729   2.523   4.908  3.5760  1.8805 -0.5630
  120MOL0     H15808   6.859   2.660   4.769  3.1413 -2.7000  4.3883
  120MOL0     H15809   6.804   2.566   4.615 -0.4692 -2.0813 -1.3397
  120MOL0     H15810   7.016   2.468   4.671 -1.0446 -1.2528 -0.6264
  120MOL0     H15811   6.901   2.370   4.758 -3.2977  2.2406  2.6930
  120MOL0     H15812   7.130   2.509   4.862  0.0822 -1.0158  0.2418
  120MOL0     H15813   6.997   2.572   4.948  1.9472  1.7578  0.8763
  120MOL0     H15814   7.120   2.370   5.034  2.3045  2.2336 -4.0690
  120MOL0     H15815   7.039   2.262   4.918  1.5304  1.6223 -2.4605
  120MOL0     H15816   6.817   2.340   4.998  1.7193  1.7823 -2.9034
  120MOL0     H15817   6.895   2.447   5.115  0.6472 -0.7620  0.4014
  120MOL0     H15818   7.004   2.244   5.237  0.6057  1.6978  0.2941
  120MOL0     H15819   6.831   2.256   5.254  2.4837  1.7773  1.2230
  120MOL0     H15820   6.982   2.052   5.096  0.8940  0.8388  2.4794
  120MOL0     H15821   6.820   2.111   5.026 -0.1207  2.4655  0.5677
  120MOL0     H15822   6.559   2.484   5.008 -1.2768  0.3447  1.8841
  120MOL0     H15823   6.377   2.521   5.151 -2.7620 -2.7180 -1.5513
  120MOL0     H15824   6.258   2.732   5.581  0.5046  1.0958  1.3199
  120MOL0     H15825   6.104   2.838   5.717  1.4273  2.4367 -0.2344
  120MOL0     H15826   7.292   3.072   5.782 -0.2680 -0.2616  1.0218
  120MOL0     H15827   7.505   2.973   5.901 -1.4927 -0.8124 -1.5070
  120MOL0     H15828   7.750   2.823   6.342 -1.0921  0.9526 -0.9808
  120MOL0     H15829   7.955   2.823   6.459  2.6999 -0.3429  0.0946
  120MOL0     H15830   8.216   2.811   6.455 -0.4836  1.6740 -4.6682
  120MOL0     H15831   8.150   2.927   6.572 -0.4619  0.9918 -1.5102
  120MOL0     H15832   8.341   3.072   6.563 -3.3417  1.3877 -1.6426
  120MOL0     H15833   8.391   2.903   6.613 -1.1565  0.5036  1.2238
  120MOL0     H15834   8.534   3.005   6.445  0.4972 -2.2247  1.6510
  120MOL0     H15835   8.407   3.030   6.332  3.8699  2.5743  0.7474
  120MOL0     H15836   8.470   2.734   6.431 -0.7483  0.0705  0.4434
  120MOL0     H15837   8.395   2.784   6.278  0.1947 -1.8258  0.0508
  120MOL0     H15838   8.798   2.809   6.183  0.4892  2.7294  0.7290
  120MOL0     H15839   8.095   3.129   6.183  0.6520 -0.0095  0.7025
  120MOL0     H15840   7.869   3.135   6.087 -1.0576 -1.4540 -1.9914
  121MOL0     O15841   0.220   2.936   1.452  0.3289  0.9872 -0.6100
  121MOL0     C15842   0.094   2.937   1.440 -1.0534  1.3261  1.1891
  121MOL0     O15843   0.024   2.928   1.328 -0.0210 -0.3839 -0.4798
  121MOL0     C15844   0.093   2.872   1.229  0.5394 -0.2882  0.3747
  121MOL0     C15845   0.103   2.736   1.215 -0.7940 -1.1132 -0.9612
  121MOL0     C15846   0.150   2.685   1.101 -0.4517 -0.1855  0.3195
  121MOL0     C15847   0.174   2.764   0.989 -0.3386  0.4932 -0.1338
  121MOL0     O15848   0.202   2.710   0.862  0.7420 -0.2166  0.2637
  121MOL0     C15849   0.330   2.741   0.805  0.0338  0.2342 -0.7910
  121MOL0     C15850   0.371   2.672   0.667 -0.2346  0.8394  0.0302
  121MOL0     C15851   0.469   2.557   0.692 -0.5952 -0.4682  0.3998
  121MOL0     C15852   0.376   2.437   0.729 -0.3343  0.4087 -0.1680
  121MOL0     C15853   0.444   2.306   0.752  0.3127  0.4533 -0.0488
  121MOL0     C15854   0.462   2.254   0.890 -0.5573 -0.4260 -0.3820
  121MOL0     C15855   0.345   2.225   0.975  0.8473 -0.3558 -0.0169
  121MOL0     C15856   0.289   2.344   1.057  0.8457 -0.0597  1.1124
  121MOL0     N15857   0.267   2.301   1.196  0.5619  0.0539  0.5150
  121MOL0     C15858   0.137   2.281   1.240 -0.1902  0.1442  0.2289
  121MOL0     C15859   0.158   2.269   1.374  0.2390 -0.1585 -0.0773
  121MOL0     C15860   0.054   2.236   1.477  0.2604 -0.9635  0.0523
  121MOL0     C15861   0.041   2.345   1.580 -0.7080  0.4574 -0.5018
  121MOL0     C15862   0.150   2.344   1.698 -0.1597 -1.1744  0.2513
  121MOL0     C15863   0.094   2.416   1.823  0.2227  0.2180  0.1977
  121MOL0     O15864   0.178   2.410   1.943 -0.2579 -0.1003 -0.1594
  121MOL0     C15865   0.187   2.307   2.036  0.3747  0.0769 -0.0383
  121MOL0     C15866   0.109   2.195   2.020 -0.5509  0.3717  0.9338
  121MOL0     C15867   0.102   2.099   2.129 -0.2384  0.0396 -0.6200
  121MOL0     C15868   0.177   2.110   2.245 -0.5354  0.2414 -0.4959
  121MOL0     C15869   0.173   2.017   2.361 -0.2938 -0.9426  0.1504
  121MOL0     O15870   0.281   2.026   2.442 -0.2052  0.9282 -0.4300
  121MOL0     C15871   0.296   1.931   2.543 -0.0401  0.6207  0.1112
  121MOL0     C15872   0.231   1.949   2.672 -0.2118  0.4446  0.1912
  121MOL0     C15873   0.221   1.845   2.762 -0.0617  0.3451 -0.3990
  121MOL0     C15874   0.290   1.723   2.726  0.9802  0.0728  0.2611
  121MOL0     O15875   0.301   1.609   2.806  0.0776  0.5496  0.6645
  121MOL0     C15876   0.281   1.631   2.940  0.4385  0.6513 -0.9022
  121MOL0     C15877   0.136   1.619   2.984 -0.8325 -0.0925  0.1789
  121MOL0     C15878   0.106   1.714   3.101  0.3693  0.4794  0.1210
  121MOL0     C15879  -0.040   1.767   3.094 -0.3304 -0.4892 -0.3378
  121MOL0     C15880  -0.088   1.827   3.228 -0.2329 -0.0989  0.5989
  121MOL0     C15881  -0.105   1.730   3.342  1.0858  0.7036  0.0339
  121MOL0     C15882  -0.211   1.624   3.312  0.7151 -0.0572 -0.2023
  121MOL0     C15883  -0.236   1.533   3.423 -0.0946 -0.8708 -0.8132
  121MOL0    Cl15884  -0.101   1.436   3.450  0.2276  0.0231  0.0179
  121MOL0     C15885   0.361   1.715   2.605 -0.3458 -0.3765 -0.1919
  121MOL0     C15886   0.350   1.814   2.508  1.2430  0.9474  0.3416
  121MOL0     O15887   0.080   1.933   2.377 -0.5570 -0.0891  0.3794
  121MOL0     C15888   0.259   2.223   2.258 -0.6963  0.1399  0.5107
  121MOL0     C15889   0.268   2.321   2.147  0.4508  0.3227  0.1155
  121MOL0     N15890   0.290   2.266   1.403  0.7800 -0.0657  1.0342
  121MOL0     N15891   0.351   2.285   1.296 -0.5906  0.4173 -0.2891
  121MOL0     C15892   0.158   2.902   1.003 -0.2166  0.0301 -0.1067
  121MOL0     C15893   0.125   2.954   1.124  0.5269 -0.4259  0.0411
  121MOL0     C15894   0.011   2.926   1.560 -0.3588  0.6976  0.4921
  121MOL0     C15895  -0.117   2.868   1.569  0.1926  0.2870  0.0098
  121MOL0     C15896  -0.191   2.859   1.683  0.6503  0.1985 -1.0588
  121MOL0     C15897  -0.145   2.899   1.813  1.3711  0.6268 -0.0968
  121MOL0     O15898  -0.208   2.882   1.935  0.1586 -0.6145  0.8214
  121MOL0     C15899  -0.122   2.864   2.057  1.1166 -0.9561 -1.0961
  121MOL0     C15900  -0.193   2.786   2.159  0.1088 -0.2072  0.0563
  121MOL0     C15901  -0.243   2.653   2.096  0.8640 -0.1973 -0.3658
  121MOL0     C15902  -0.141   2.540   2.128  0.0934 -0.0144  0.6797
  121MOL0     C15903  -0.180   2.414   2.074  0.0219  1.0433  0.1628
  121MOL0     C15904  -0.214   2.302   2.030 -0.9817 -0.3673 -0.6238
  121MOL0     C15905  -0.014   2.958   1.810 -0.2962  0.2829  0.4629
  121MOL0     C15906   0.058   2.968   1.685  0.9394 -0.3334 -0.5368
  121MOL0     H15907   0.078   2.668   1.296  3.8349 -3.0484 -0.8569
  121MOL0     H15908   0.151   2.578   1.084 -1.8886  0.0223 -1.3308
  121MOL0     H15909   0.408   2.703   0.871 -2.1717 -5.5101 -0.8265
  121MOL0     H15910   0.338   2.848   0.785 -0.7215  0.8414  1.8692
  121MOL0     H15911   0.415   2.742   0.594  1.7435  3.9939  3.8328
  121MOL0     H15912   0.275   2.635   0.630  0.3111 -1.0615  0.4146
  121MOL0     H15913   0.539   2.558   0.776  2.3098 -2.1405 -1.8128
  121MOL0     H15914   0.539   2.537   0.611  1.6691  1.7978  1.6775
  121MOL0     H15915   0.325   2.465   0.822  2.1325  1.2146  1.0377
  121MOL0     H15916   0.300   2.419   0.653  0.3033  0.3618 -0.8104
  121MOL0     H15917   0.540   2.311   0.700  0.0806 -0.5453 -0.6035
  121MOL0     H15918   0.391   2.230   0.693 -0.9343  1.5185 -0.3637
  121MOL0     H15919   0.514   2.337   0.938  2.1757 -0.3868 -3.0723
  121MOL0     H15920   0.533   2.171   0.882  0.0948 -0.0178  0.9898
  121MOL0     H15921   0.266   2.199   0.905  0.0066  2.8851 -0.4261
  121MOL0     H15922   0.362   2.140   1.042 -0.2120 -0.1920  0.4806
  121MOL0     H15923   0.188   2.372   1.025  1.5098 -0.7182 -1.8925
  121MOL0     H15924   0.346   2.438   1.056  0.1793  0.3646  2.0781
  121MOL0     H15925   0.041   2.275   1.189 -0.8083  0.1156  1.3484
  121MOL0     H15926   0.078   2.137   1.517  2.9261 -0.3552  0.1766
  121MOL0     H15927  -0.039   2.241   1.420 -0.1830  2.8635  0.8646
  121MOL0     H15928  -0.060   2.328   1.620 -0.5103  0.5464  0.0371
  121MOL0     H15929   0.043   2.444   1.533 -0.7809 -0.0169 -1.5271
  121MOL0     H15930   0.167   2.244   1.739  0.3204 -0.8905  0.7549
  121MOL0     H15931   0.245   2.383   1.659 -2.2176  0.2481 -4.0381
  121MOL0     H15932  -0.006   2.378   1.846 -0.4367  0.8336 -1.4873
  121MOL0     H15933   0.079   2.522   1.803 -2.4563 -0.0967  0.1122
  121MOL0     H15934   0.063   2.173   1.924  4.9988  1.9823 -2.5359
  121MOL0     H15935   0.037   2.014   2.111 -2.9748  1.6216  1.0465
  121MOL0     H15936   0.192   2.050   2.681 -1.9447 -0.3290  2.2824
  121MOL0     H15937   0.163   1.858   2.852 -1.0183  0.0083 -0.9551
  121MOL0     H15938   0.316   1.728   2.976  1.8011 -0.4572  0.9551
  121MOL0     H15939   0.340   1.559   2.998  2.1896 -0.5731 -3.9671
  121MOL0     H15940   0.120   1.515   3.012  2.9268 -1.1154 -0.9520
  121MOL0     H15941   0.064   1.645   2.905 -0.4529 -0.3394 -0.2540
  121MOL0     H15942   0.158   1.810   3.094  0.5380  0.3074 -1.0707
  121MOL0     H15943   0.125   1.667   3.198 -0.5054  2.2759  1.2210
  121MOL0     H15944  -0.034   1.851   3.023  0.8771 -0.7846 -0.6076
  121MOL0     H15945  -0.101   1.684   3.059 -1.0132  0.8676 -2.6140
  121MOL0     H15946  -0.179   1.879   3.198  1.4568  0.4660 -4.4481
  121MOL0     H15947  -0.019   1.900   3.271 -0.4634  0.6470 -0.2792
  121MOL0     H15948  -0.129   1.784   3.433 -3.0626  1.0908 -1.0813
  121MOL0     H15949  -0.010   1.680   3.364  0.9345  0.7439  0.8076
  121MOL0     H15950  -0.306   1.673   3.289 -1.3629 -1.9418  3.3449
  121MOL0     H15951  -0.193   1.563   3.223  0.4748 -1.1557  0.4789
  121MOL0     H15952  -0.318   1.460   3.427 -1.4958  0.6622 -0.3753
  121MOL0     H15953  -0.255   1.605   3.503 -2.0765 -1.8797 -0.3091
  121MOL0     H15954   0.424   1.629   2.584  1.6633 -0.2802  4.3153
  121MOL0     H15955   0.379   1.823   2.404  0.6262  2.6014  0.2786
  121MOL0     H15956   0.332   2.240   2.336 -0.1558 -1.9309  0.5011
  121MOL0     H15957   0.330   2.407   2.166  2.1836 -0.3211 -2.2593
  121MOL0     H15958   0.183   2.969   0.921 -0.7110  0.3183 -0.0247
  121MOL0     H15959   0.123   3.062   1.135 -0.5576 -0.0105 -3.2374
  121MOL0     H15960  -0.167   2.833   1.479  1.7935 -1.6307 -0.2130
  121MOL0     H15961  -0.279   2.796   1.686  1.5786 -1.1269 -0.3919
  121MOL0     H15962  -0.099   2.960   2.104 -2.4090 -1.1621  1.3740
  121MOL0     H15963  -0.035   2.806   2.023  1.3365 -0.9733 -0.5177
  121MOL0     H15964  -0.136   2.764   2.250 -0.2265  1.6480  0.7687
  121MOL0     H15965  -0.277   2.849   2.191  1.4557  1.5075  0.3557
  121MOL0     H15966  -0.267   2.652   1.989  3.1056  1.2021 -0.9486
  121MOL0     H15967  -0.339   2.631   2.144 -1.4030  3.0779 -2.9086
  121MOL0     H15968  -0.048   2.559   2.073  0.6818 -4.6390 -0.3356
  121MOL0     H15969  -0.120   2.536   2.235  1.1518 -2.4562  0.4373
  121MOL0     H15970  -0.228   2.198   2.008 -1.0534 -0.3656 -0.5873
  121MOL0     H15971   0.032   2.988   1.904 -2.0391 -0.8345  1.7400
  121MOL0     H15972   0.160   3.004   1.695  0.7574 -0.2717  1.5040
  122MOL0     O15973   4.829   8.987   3.126 -0.5928  0.5106 -0.0390
  122MOL0     C15974   4.879   9.040   3.027 -0.7053 -0.6481  0.2001
  122MOL0     O15975   4.941   9.164   3.025  0.4455  0.9482 -0.0310
  122MOL0     C15976   4.951   9.230   3.141 -0.9465 -0.5227  0.1777
  122MOL0     C15977   5.015   9.178   3.253  0.3534  0.0790  0.1624
  122MOL0     C15978   5.040   9.261   3.365 -0.7092  0.3650  0.8164
  122MOL0     C15979   4.984   9.386   3.377  0.1548 -1.0625  0.5658
  122MOL0     O15980   4.992   9.455   3.497  0.0966  0.4736 -0.0818
  122MOL0     C15981   5.099   9.432   3.598 -0.4681 -1.0804  1.1716
  122MOL0     C15982   5.058   9.527   3.712 -0.3548  0.3681 -0.7030
  122MOL0     C15983   4.949   9.458   3.791  0.2034 -0.1497 -0.5236
  122MOL0     C15984   4.898   9.571   3.887 -0.5572  0.5851  0.4954
  122MOL0     C15985   4.975   9.579   4.017 -0.5564  0.7510  0.9819
  122MOL0     C15986   4.989   9.734   4.055 -0.1907 -0.3682  0.0348
  122MOL0     C15987   4.862   9.787   4.108 -0.6212  0.1437 -0.2054
  122MOL0     C15988   4.871   9.933   4.151 -0.7424 -0.3058  0.0044
  122MOL0     N15989   4.820  10.012   4.035 -0.3932  0.1110  0.4892
  122MOL0     C15990   4.798  10.149   4.024  0.7198  0.0113  0.8473
  122MOL0     C15991   4.759  10.172   3.898  0.1600  0.1987  0.6620
  122MOL0     C15992   4.725  10.309   3.835  1.2304  0.5525  0.8435
  122MOL0     C15993   4.822  10.412   3.895 -0.2451  0.0816  0.8830
  122MOL0     C15994   4.816  10.533   3.790  0.7987  0.5982  0.4649
  122MOL0     C15995   4.889  10.641   3.866  1.1924 -1.0196 -0.6369
  122MOL0     O15996   5.027  10.607   3.916  0.1015  0.3894 -1.2001
  122MOL0     C15997   5.084  10.684   4.014 -0.1566 -0.3747 -0.1150
  122MOL0     C15998   5.045  10.807   4.046  0.1312 -0.4817  0.2196
  122MOL0     C15999   5.109  10.881   4.135  0.0466  0.9834  0.1427
  122MOL0     C16000   5.208  10.832   4.213  0.3069  0.1452 -0.0026
  122MOL0     C16001   5.277  10.923   4.307  0.9300  0.5788 -1.4470
  122MOL0     O16002   5.194  11.012   4.372  0.6058 -0.7317 -0.3041
  122MOL0     C16003   5.217  11.060   4.499  0.3778  0.2846 -0.1220
  122MOL0     C16004   5.107  11.116   4.553  0.2873  0.4973 -0.4266
  122MOL0     C16005   5.090  11.162   4.681  0.6451 -0.2748  0.8560
  122MOL0     C16006   5.195  11.140   4.775 -0.0383 -1.5286 -0.8771
  122MOL0     O16007   5.199  11.182   4.905  0.8295 -0.2149  0.5548
  122MOL0     C16008   5.120  11.294   4.946 -0.1759 -0.2848 -1.1202
  122MOL0     C16009   5.011  11.224   5.020 -0.4596 -0.6820 -0.5174
  122MOL0     C16010   4.910  11.331   5.083  0.5261 -0.2505 -0.7788
  122MOL0     C16011   4.926  11.342   5.239  0.2002 -0.1639 -0.6211
  122MOL0     C16012   4.815  11.438   5.295  0.4757 -0.1361  0.3842
  122MOL0     C16013   4.809  11.448   5.439 -1.1599 -0.4555  0.7445
  122MOL0     C16014   4.663  11.484   5.481 -0.9569  0.6189 -0.2378
  122MOL0     C16015   4.667  11.565   5.618  0.0408 -0.4181  0.6605
  122MOL0    Cl16016   4.725  11.466   5.766  0.0083  0.0612 -0.0197
  122MOL0     C16017   5.310  11.106   4.722 -0.7686  0.4822  0.7772
  122MOL0     C16018   5.317  11.055   4.589  0.2900 -0.1397  0.3922
  122MOL0     O16019   5.391  10.885   4.352  0.9579  0.1083 -0.1349
  122MOL0     C16020   5.254  10.702   4.181  0.5510 -0.7961  0.8980
  122MOL0     C16021   5.195  10.626   4.080 -0.8046  0.2104  0.3052
  122MOL0     N16022   4.772  10.059   3.828 -0.5123 -0.8275  0.3397
  122MOL0     N16023   4.810   9.960   3.906  0.3288 -0.2635 -0.6839
  122MOL0     C16024   4.919   9.445   3.261 -0.9100  0.1658  0.3059
  122MOL0     C16025   4.912   9.361   3.150  0.1679  0.1453  0.5386
  122MOL0     C16026   4.871   8.964   2.907  0.0955 -0.3116 -0.6444
  122MOL0     C16027   4.774   8.860   2.890  0.5310 -0.3461 -0.1125
  122MOL0     C16028   4.754   8.807   2.760 -1.1109  0.1372 -0.2460
  122MOL0     C16029   4.831   8.837   2.651 -0.3070 -0.7456 -0.1356
  122MOL0     O16030   4.797   8.777   2.532  0.2352 -0.8365 -0.3077
  122MOL0     C16031   4.906   8.768   2.441  0.9031 -0.0949  0.2092
  122MOL0     C16032   4.882   8.882   2.330  1.0132  0.1365 -1.2031
  122MOL0     C16033   5.009   8.962   2.302  0.3276 -0.0822 -0.2655
  122MOL0     C16034   5.008   9.061   2.188 -0.4438 -0.4008 -0.1994
  122MOL0     C16035   5.003   8.984   2.063  0.7096  0.6127  0.1432
  122MOL0     C16036   4.952   8.946   1.963 -1.0050 -0.1773  0.8380
  122MOL0     C16037   4.940   8.924   2.680 -0.1402 -0.3977 -0.2053
  122MOL0     C16038   4.963   8.989   2.796  0.1826  0.4395 -0.3927
  122MOL0     H16039   5.067   9.082   3.250  0.8998  0.3725 -2.3734
  122MOL0     H16040   5.103   9.216   3.441 -4.2830 -2.2409  2.5352
  122MOL0     H16041   5.195   9.454   3.553 -0.2151  0.3218  2.3197
  122MOL0     H16042   5.089   9.332   3.642  1.4210 -1.3744  0.9998
  122MOL0     H16043   5.011   9.614   3.664  1.4907  1.3788 -0.7793
  122MOL0     H16044   5.150   9.546   3.767 -0.3451 -1.2476 -0.1301
  122MOL0     H16045   4.980   9.362   3.834  1.8495 -2.1653 -5.4337
  122MOL0     H16046   4.868   9.426   3.724 -1.2995  1.4230  0.4660
  122MOL0     H16047   4.894   9.668   3.838 -0.7376  0.9439  1.2068
  122MOL0     H16048   4.797   9.542   3.919 -1.1452 -0.0117 -1.7217
  122MOL0     H16049   5.073   9.532   4.002 -0.5610  0.9819  0.1553
  122MOL0     H16050   4.926   9.525   4.099  0.7706 -0.2561  1.1599
  122MOL0     H16051   5.031   9.778   3.964  2.6399 -0.8192  1.0432
  122MOL0     H16052   5.062   9.737   4.136 -0.5292  0.0532  0.3291
  122MOL0     H16053   4.777   9.755   4.047 -1.0566 -0.2737  0.6008
  122MOL0     H16054   4.845   9.737   4.204  0.2130 -0.2627 -0.2589
  122MOL0     H16055   4.974   9.963   4.173  0.1961  0.2196 -4.1992
  122MOL0     H16056   4.802   9.948   4.234 -0.6109  0.4115 -0.0077
  122MOL0     H16057   4.790  10.219   4.107  0.4518  0.4125  0.4889
  122MOL0     H16058   4.618  10.335   3.839  0.9702  0.8802 -3.1622
  122MOL0     H16059   4.750  10.297   3.729  2.1856 -5.2752  1.4191
  122MOL0     H16060   4.922  10.367   3.891 -0.5527 -0.5093 -2.2224
  122MOL0     H16061   4.797  10.440   3.998 -0.8992  1.5397  0.3566
  122MOL0     H16062   4.863  10.504   3.696 -0.3561  0.9390 -0.2375
  122MOL0     H16063   4.713  10.570   3.783  0.6074 -0.2854 -2.6952
  122MOL0     H16064   4.828  10.660   3.955 -1.3837 -2.4493 -1.9953
  122MOL0     H16065   4.906  10.730   3.805  4.1412 -1.9285 -1.3118
  122MOL0     H16066   4.967  10.856   3.989  0.9956 -2.0661 -2.5374
  122MOL0     H16067   5.077  10.984   4.145  0.5750  1.1973 -0.3344
  122MOL0     H16068   5.016  11.128   4.495  0.6199 -1.8200 -1.5192
  122MOL0     H16069   4.989  11.202   4.686  1.5826  2.2755  0.7944
  122MOL0     H16070   5.090  11.354   4.859 -1.5550  2.0817  0.8618
  122MOL0     H16071   5.165  11.375   5.004 -0.1116 -1.0957 -0.0068
  122MOL0     H16072   5.076  11.180   5.097  4.4046  2.1881 -2.4754
  122MOL0     H16073   4.957  11.150   4.960 -1.5421  0.6493 -1.2253
  122MOL0     H16074   4.810  11.295   5.060 -2.0936  3.5836  3.0100
  122MOL0     H16075   4.910  11.429   5.035 -3.8815  0.7016  0.7087
  122MOL0     H16076   4.934  11.249   5.296  1.7640  1.3194  1.7442
  122MOL0     H16077   5.017  11.392   5.274  1.2565 -2.4594  0.1239
  122MOL0     H16078   4.719  11.398   5.259  0.4960  1.0627 -1.0927
  122MOL0     H16079   4.833  11.533   5.244 -1.5197 -0.3296 -0.7732
  122MOL0     H16080   4.881  11.520   5.477  0.8823 -1.2385 -1.3905
  122MOL0     H16081   4.828  11.356   5.495 -1.2671  0.1725  1.8480
  122MOL0     H16082   4.615  11.552   5.410 -0.3290  4.2479  2.5397
  122MOL0     H16083   4.599  11.397   5.501 -1.7972  0.8576 -1.7469
  122MOL0     H16084   4.566  11.606   5.623  1.2096  2.4982  3.0161
  122MOL0     H16085   4.731  11.653   5.606  1.5368 -1.7284 -2.0382
  122MOL0     H16086   5.403  11.114   4.776 -0.9394 -0.0714  1.1623
  122MOL0     H16087   5.412  11.015   4.553  0.9793  1.3730  0.4642
  122MOL0     H16088   5.337  10.652   4.229  2.1114  3.4123  3.0947
  122MOL0     H16089   5.232  10.525   4.062  1.5859  0.7852  1.5821
  122MOL0     H16090   4.883   9.546   3.246 -0.8939 -0.0989 -1.8389
  122MOL0     H16091   4.868   9.409   3.063  1.4611  0.1800 -0.1260
  122MOL0     H16092   4.706   8.826   2.967 -1.6891  1.1953 -1.2848
  122MOL0     H16093   4.688   8.723   2.741  2.1690 -2.5119 -0.9797
  122MOL0     H16094   4.906   8.674   2.385  0.4755 -0.3164  0.5765
  122MOL0     H16095   5.008   8.766   2.480 -0.0549  3.9302  3.7517
  122MOL0     H16096   4.852   8.839   2.233 -1.2807 -1.3231  0.0553
  122MOL0     H16097   4.804   8.953   2.361 -1.5442 -2.9709  0.0818
  122MOL0     H16098   5.081   8.881   2.291 -2.8628 -3.3560  1.1343
  122MOL0     H16099   5.033   9.029   2.385 -0.6600  1.9118 -1.4938
  122MOL0     H16100   4.908   9.106   2.191 -0.7302 -1.0416  0.3463
  122MOL0     H16101   5.093   9.129   2.191 -1.8697  1.4638  2.4346
  122MOL0     H16102   4.936   8.897   1.869 -1.2432  1.0275  0.2297
  122MOL0     H16103   4.999   8.949   2.592 -0.0224  2.9152  0.6868
  122MOL0     H16104   5.055   9.045   2.809  2.5594 -3.2965  0.4318
  123MOL0     O16105   9.952  10.560   9.191  0.8052 -0.0415 -0.6449
  123MOL0     C16106  10.036  10.642   9.175  0.2722 -0.2443 -0.5651
  123MOL0     O16107  10.114  10.660   9.056  0.0946  0.0982 -0.4962
  123MOL0     C16108  10.104  10.569   8.953 -0.1881  0.9442 -0.4766
  123MOL0     C16109  10.086  10.614   8.817 -0.7675 -0.2502  0.5370
  123MOL0     C16110  10.091  10.525   8.705 -0.4181 -0.5172 -0.8313
  123MOL0     C16111  10.098  10.382   8.726  0.6426  0.2224  0.4665
  123MOL0     O16112  10.078  10.309   8.611  0.1940  0.8566  0.1259
  123MOL0     C16113  10.078  10.165   8.625 -1.3026  0.0257 -0.4694
  123MOL0     C16114  10.014  10.095   8.510  0.2176 -0.8338 -0.4703
  123MOL0     C16115  10.022   9.948   8.523 -0.8811 -0.0269 -0.1578
  123MOL0     C16116   9.929   9.880   8.416 -0.2081  0.4551 -0.4317
  123MOL0     C16117   9.954   9.731   8.417 -0.0116  0.5388  0.2499
  123MOL0     C16118   9.844   9.660   8.346  0.3482  0.9630 -0.6786
  123MOL0     C16119   9.853   9.510   8.325  0.1723 -0.6288  0.0200
  123MOL0     C16120   9.730   9.467   8.248  0.1879  0.1031 -0.1191
  123MOL0     N16121   9.754   9.331   8.190 -0.7968  0.5541  0.0742
  123MOL0     C16122   9.815   9.315   8.062  0.4292  0.3078  0.5308
  123MOL0     C16123   9.798   9.181   8.030 -0.4398 -0.7226  0.2847
  123MOL0     C16124   9.832   9.108   7.902  0.9971 -0.1412 -0.2819
  123MOL0     C16125   9.722   9.123   7.793 -0.6341  0.0012 -0.2744
  123MOL0     C16126   9.735   9.246   7.709  0.1605 -1.0557 -0.3590
  123MOL0     C16127   9.615   9.256   7.608  0.0607  0.3511  0.0139
  123MOL0     O16128   9.644   9.144   7.519 -0.9486  0.8478 -0.1260
  123MOL0     C16129   9.574   9.137   7.404  0.2359  0.8964  0.2478
  123MOL0     C16130   9.630   9.063   7.299 -0.2628 -0.6372  0.6208
  123MOL0     C16131   9.564   9.058   7.175  0.7640 -0.1439  1.1084
  123MOL0     C16132   9.436   9.116   7.152 -1.2611 -0.7059  0.5820
  123MOL0     C16133   9.374   9.115   7.019  0.4529 -0.3274 -0.9542
  123MOL0     O16134   9.314   9.242   6.986 -0.2496 -0.6706  0.1585
  123MOL0     C16135   9.253   9.270   6.868 -0.2655 -0.6360 -0.7664
  123MOL0     C16136   9.282   9.210   6.745 -0.3058 -0.3258  0.2428
  123MOL0     C16137   9.208   9.252   6.638  0.2532  0.5460  1.0264
  123MOL0     C16138   9.097   9.346   6.649 -0.0931  0.9492 -0.0933
  123MOL0     O16139   9.014   9.375   6.537  0.2482  0.6455  0.0776
  123MOL0     C16140   8.877   9.409   6.561  0.5194 -0.5733 -0.3593
  123MOL0     C16141   8.807   9.412   6.422  0.8863  0.7757 -0.2361
  123MOL0     C16142   8.662   9.464   6.428  0.2768  0.9633  0.7040
  123MOL0     C16143   8.590   9.477   6.295 -0.1391  0.1481  0.6795
  123MOL0     C16144   8.440   9.520   6.307  0.3380  0.3537  0.3673
  123MOL0     C16145   8.348   9.484   6.184  0.1478 -0.2755 -0.1182
  123MOL0     C16146   8.202   9.537   6.211 -0.4178 -0.0090 -0.2589
  123MOL0     C16147   8.115   9.537   6.078 -0.8265  0.6231  0.8016
  123MOL0    Cl16148   7.947   9.586   6.118 -0.0824  0.2596 -0.0910
  123MOL0     C16149   9.073   9.407   6.775  0.5818  0.2468 -0.4622
  123MOL0     C16150   9.151   9.371   6.883 -0.5287 -0.4814 -1.1438
  123MOL0     O16151   9.379   9.018   6.942 -0.2519  1.0518  0.5270
  123MOL0     C16152   9.383   9.186   7.259  1.1015  0.1945 -0.4015
  123MOL0     C16153   9.447   9.191   7.381  0.3777 -0.2906  0.4097
  123MOL0     N16154   9.737   9.118   8.140 -0.0672  0.2412 -0.5402
  123MOL0     N16155   9.706   9.207   8.230  0.7967  0.2489  0.2563
  123MOL0     C16156  10.109  10.337   8.862  0.0415  0.1416  0.7717
  123MOL0     C16157  10.120  10.431   8.973  0.5734  1.1454  0.8710
  123MOL0     C16158  10.075  10.725   9.295 -0.0824  0.4105  0.8163
  123MOL0     C16159   9.978  10.756   9.392  0.3251  0.2593  0.4666
  123MOL0     C16160  10.012  10.838   9.500  0.5247  0.0073 -0.7174
  123MOL0     C16161  10.143  10.887   9.512 -0.9611  0.4418 -0.1844
  123MOL0     O16162  10.194  10.959   9.613  0.0243  0.0799 -0.4507
  123MOL0     C16163  10.124  10.966   9.736 -0.1843 -0.8297  0.1287
  123MOL0     C16164  10.169  10.857   9.828  0.3349  1.0480  0.3777
  123MOL0     C16165  10.082  10.839   9.960 -0.3480 -1.3493 -0.0460
  123MOL0     C16166  10.125  10.720  10.043 -0.5395  0.0439  0.3470
  123MOL0     C16167  10.034  10.674  10.147  0.6541  0.4504  0.5629
  123MOL0     C16168   9.955  10.636  10.232  0.7820 -0.7834 -0.8683
  123MOL0     C16169  10.235  10.858   9.409 -0.2056 -0.4783  0.7680
  123MOL0     C16170  10.202  10.783   9.299 -0.1050  0.4994 -0.4922
  123MOL0     H16171  10.071  10.721   8.807  1.9738  0.0943 -0.8550
  123MOL0     H16172  10.056  10.562   8.609 -1.7983 -0.0410 -0.1850
  123MOL0     H16173  10.018  10.126   8.707 -1.3625 -2.2212 -1.5228
  123MOL0     H16174  10.181  10.131   8.633 -1.3104 -0.1768 -1.1549
  123MOL0     H16175  10.066  10.120   8.417 -2.3871 -0.3090 -1.8661
  123MOL0     H16176   9.913  10.136   8.507  1.2546  1.8300 -1.9250
  123MOL0     H16177   9.994   9.921   8.626  3.5509  1.0669  1.5456
  123MOL0     H16178  10.126   9.917   8.516 -0.0157  2.0143  2.1803
  123MOL0     H16179   9.828   9.911   8.442 -0.2891  0.5569 -0.8646
  123MOL0     H16180   9.951   9.916   8.315  0.9694 -1.5771 -0.9632
  123MOL0     H16181   9.951   9.695   8.520 -1.9115  3.2785  1.2879
  123MOL0     H16182  10.051   9.710   8.371 -0.2538 -0.2669  0.0951
  123MOL0     H16183   9.829   9.704   8.247  0.4159  1.2231 -0.5744
  123MOL0     H16184   9.758   9.681   8.410  2.2105 -2.3492  3.4005
  123MOL0     H16185   9.941   9.485   8.264 -0.9464  0.2319 -2.0472
  123MOL0     H16186   9.844   9.453   8.418 -3.3952 -0.6632 -0.2136
  123MOL0     H16187   9.719   9.550   8.178  0.9206  2.6105  2.5078
  123MOL0     H16188   9.640   9.467   8.310 -0.6119  2.1941 -1.1700
  123MOL0     H16189   9.856   9.387   7.993  1.6753 -2.1399 -1.4156
  123MOL0     H16190   9.837   9.002   7.929  1.1958  0.2066  1.1326
  123MOL0     H16191   9.926   9.143   7.857 -0.6743  0.4020 -3.6435
  123MOL0     H16192   9.625   9.122   7.842 -0.7859  1.3038 -0.5226
  123MOL0     H16193   9.726   9.033   7.730  1.7025  0.9487 -1.6479
  123MOL0     H16194   9.737   9.341   7.761  2.8853 -0.8833 -0.6181
  123MOL0     H16195   9.825   9.221   7.651 -0.2221 -0.6438 -1.1537
  123MOL0     H16196   9.620   9.358   7.568  1.9975  1.4650  2.7606
  123MOL0     H16197   9.513   9.247   7.647 -0.6212 -0.6387 -1.8855
  123MOL0     H16198   9.719   9.003   7.313  0.5119  0.2910 -0.1859
  123MOL0     H16199   9.600   9.013   7.082 -1.4186 -1.4447  0.8328
  123MOL0     H16200   9.364   9.142   6.726  0.3870  1.1470 -2.5832
  123MOL0     H16201   9.229   9.213   6.539 -0.3621  1.6848  0.4342
  123MOL0     H16202   8.870   9.508   6.607  1.2936 -0.5018 -0.3841
  123MOL0     H16203   8.813   9.354   6.629 -1.9049  1.5174 -0.7772
  123MOL0     H16204   8.799   9.310   6.384 -2.8052  0.8134  0.1063
  123MOL0     H16205   8.867   9.466   6.348  5.5023  0.8327  3.1265
  123MOL0     H16206   8.662   9.558   6.483 -1.8642  1.4282  0.0198
  123MOL0     H16207   8.611   9.393   6.494  0.3669  0.2310  0.0110
  123MOL0     H16208   8.644   9.552   6.236  0.5397 -0.2121  0.8366
  123MOL0     H16209   8.598   9.384   6.238 -2.0108  1.7600 -2.5239
  123MOL0     H16210   8.436   9.629   6.309 -1.3852  0.3882 -1.4967
  123MOL0     H16211   8.397   9.487   6.402 -0.5225 -0.5125 -0.2935
  123MOL0     H16212   8.341   9.377   6.163  1.2140 -1.3529  4.1448
  123MOL0     H16213   8.389   9.525   6.091 -2.2285 -1.4637 -1.7995
  123MOL0     H16214   8.157   9.463   6.277  1.3956 -2.6498 -1.7800
  123MOL0     H16215   8.211   9.636   6.256 -1.6696  0.5383 -1.1349
  123MOL0     H16216   8.106   9.442   6.025 -0.1297  1.5026 -0.9884
  123MOL0     H16217   8.157   9.603   6.001 -0.1527 -0.6986 -0.0163
  123MOL0     H16218   8.986   9.472   6.780 -0.6932 -1.4146  0.4816
  123MOL0     H16219   9.157   9.417   6.981 -3.0292 -3.0413  0.3490
  123MOL0     H16220   9.286   9.231   7.243 -0.1663 -2.0382  0.5333
  123MOL0     H16221   9.396   9.241   7.464  0.3215  2.4606 -1.1505
  123MOL0     H16222  10.109  10.229   8.866  1.7953  0.1625  2.2669
  123MOL0     H16223  10.137  10.382   9.068 -1.7947 -0.4773  0.5536
  123MOL0     H16224   9.879  10.711   9.393  0.1311  0.6805  0.0887
  123MOL0     H16225   9.930  10.857   9.568  0.4419  0.6033 -0.9821
  123MOL0     H16226  10.015  10.963   9.730 -0.1159 -2.4564 -1.4058
  123MOL0     H16227  10.155  11.060   9.782  0.0385 -2.0561  2.6631
  123MOL0     H16228  10.156  10.764   9.773 -2.4332  1.0074  0.9822
  123MOL0     H16229  10.275  10.868   9.852  0.1552 -2.2138  3.4198
  123MOL0     H16230   9.977  10.826   9.932  0.2781 -0.4008 -3.2525
  123MOL0     H16231  10.094  10.931  10.018  1.2364 -1.9923  0.7110
  123MOL0     H16232  10.152  10.629   9.989  2.3291  0.3146  1.1663
  123MOL0     H16233  10.218  10.751  10.092 -0.5993 -2.1772  2.0561
  123MOL0     H16234   9.880  10.617  10.306  1.3011 -1.9294 -0.6049
  123MOL0     H16235  10.339  10.888   9.416 -0.3296  1.1384 -2.5841
  123MOL0     H16236  10.288  10.747   9.244  1.2922  3.2151 -0.2281
  124MOL0     O16237   4.662   4.170   1.036 -0.3694 -0.4448  0.3555
  124MOL0     C16238   4.707   4.264   1.103  0.2379  0.7368  0.5274
  124MOL0     O16239   4.834   4.265   1.155 -0.3001 -0.4091 -0.9620
  124MOL0     C16240   4.929   4.188   1.100 -0.5656  0.2358  0.4581
  124MOL0     C16241   4.945   4.170   0.965 -0.0017  0.2607 -0.0033
  124MOL0     C16242   5.065   4.121   0.904 -0.1582  0.1211 -0.4267
  124MOL0     C16243   5.166   4.077   0.992 -0.0086  0.2661  1.7131
  124MOL0     O16244   5.297   4.027   0.952  0.6952 -0.4991  1.1354
  124MOL0     C16245   5.317   4.009   0.813 -0.6354 -0.3309 -0.1751
  124MOL0     C16246   5.446   3.933   0.794 -0.1127 -0.2116 -0.3951
  124MOL0     C16247   5.433   3.879   0.648 -0.3621 -0.4610 -0.2009
  124MOL0     C16248   5.434   3.989   0.544 -0.1394  0.2213 -0.1376
  124MOL0     C16249   5.431   3.938   0.397 -0.5329 -0.4709  0.6606
  124MOL0     C16250   5.328   3.824   0.366  0.8985 -0.5309 -0.3635
  124MOL0     C16251   5.181   3.861   0.382 -0.3822 -0.5564 -0.1732
  124MOL0     C16252   5.135   4.001   0.324  0.3546 -0.1658  1.5073
  124MOL0     N16253   5.189   4.044   0.189  0.2103  0.2727 -0.0711
  124MOL0     C16254   5.148   4.010   0.059  0.6830 -0.3713  0.9623
  124MOL0     C16255   5.208   4.097  -0.029 -0.0691  0.1992  0.0513
  124MOL0     C16256   5.198   4.110  -0.184  0.4994 -0.0927  0.6416
  124MOL0     C16257   5.224   3.985  -0.259 -0.3934  0.5724  0.0310
  124MOL0     C16258   5.218   4.007  -0.415 -0.0797 -0.3479  0.6209
  124MOL0     C16259   5.262   3.894  -0.509 -1.2135 -0.5247 -0.1009
  124MOL0     O16260   5.323   3.780  -0.443  0.3208  0.5392  0.1884
  124MOL0     C16261   5.421   3.717  -0.513 -1.1555 -0.0741 -0.4687
  124MOL0     C16262   5.526   3.655  -0.436 -0.3715 -0.1417  0.6283
  124MOL0     C16263   5.634   3.584  -0.501 -0.6353  0.5301  0.6345
  124MOL0     C16264   5.646   3.585  -0.641  0.1572 -0.4640  0.7430
  124MOL0     C16265   5.764   3.528  -0.709  0.3980  0.2524  0.3556
  124MOL0     O16266   5.871   3.496  -0.633 -0.1303  0.4961 -0.4296
  124MOL0     C16267   5.983   3.445  -0.695 -0.7942  0.2692 -0.5420
  124MOL0     C16268   6.105   3.519  -0.694 -0.3253 -1.5554  0.4453
  124MOL0     C16269   6.213   3.450  -0.751  0.7433  0.0002 -0.0145
  124MOL0     C16270   6.199   3.325  -0.823  0.7435  0.3437 -0.0142
  124MOL0     O16271   6.320   3.273  -0.855  0.5899  0.4699 -0.7013
  124MOL0     C16272   6.329   3.134  -0.912  0.3356  0.7258 -0.4766
  124MOL0     C16273   6.344   3.035  -0.789 -0.1046 -0.9971  0.0425
  124MOL0     C16274   6.476   3.064  -0.718  0.0863  0.6071 -0.8491
  124MOL0     C16275   6.528   2.929  -0.661  0.3668 -0.1176  0.7716
  124MOL0     C16276   6.636   2.960  -0.556 -0.1193 -0.2818  0.1634
  124MOL0     C16277   6.570   3.037  -0.424  0.2683  0.1282 -0.1659
  124MOL0     C16278   6.665   3.029  -0.303 -0.4979  0.2937 -0.2595
  124MOL0     C16279   6.801   3.095  -0.344 -0.0864  0.2189 -0.1551
  124MOL0    Cl16280   6.799   3.282  -0.382 -0.5288 -0.4490  0.2782
  124MOL0     C16281   6.076   3.257  -0.815  0.5951 -0.1742 -0.5138
  124MOL0     C16282   5.963   3.317  -0.754 -0.1174 -0.0588 -0.0384
  124MOL0     O16283   5.765   3.529  -0.838  0.8360  0.2615  0.2964
  124MOL0     C16284   5.551   3.669  -0.714  0.9259 -0.1146 -0.3201
  124MOL0     C16285   5.431   3.720  -0.658  0.3977  0.4443  0.0425
  124MOL0     N16286   5.277   4.180   0.051  0.3439 -0.7717  0.3426
  124MOL0     N16287   5.269   4.150   0.178 -1.0952 -1.0352  0.0012
  124MOL0     C16288   5.141   4.079   1.130 -0.3614 -1.0816 -1.1085
  124MOL0     C16289   5.026   4.136   1.179  0.8900 -0.0026  0.0066
  124MOL0     C16290   4.616   4.368   1.133  1.5449 -0.4800 -0.0187
  124MOL0     C16291   4.516   4.408   1.046  0.0703  0.3286  1.0324
  124MOL0     C16292   4.423   4.514   1.069  0.1060  0.4546  0.0133
  124MOL0     C16293   4.423   4.582   1.191  0.9374  1.0845  0.4806
  124MOL0     O16294   4.337   4.668   1.226 -0.4786  0.2302 -0.0405
  124MOL0     C16295   4.199   4.661   1.180  0.4229 -0.5404 -0.0817
  124MOL0     C16296   4.111   4.744   1.278  1.0111  0.1845 -0.1657
  124MOL0     C16297   4.113   4.701   1.428 -0.6308  0.7354  1.2001
  124MOL0     C16298   4.131   4.801   1.539 -0.8379 -0.2035 -0.1197
  124MOL0     C16299   4.244   4.898   1.518 -0.0224  0.1057  0.3155
  124MOL0     C16300   4.333   4.973   1.503 -0.1784 -0.4635  0.6636
  124MOL0     C16301   4.518   4.531   1.289 -0.5610 -0.2030  0.9591
  124MOL0     C16302   4.615   4.432   1.253 -0.1324 -0.5911 -0.3223
  124MOL0     H16303   4.873   4.214   0.898 -0.5392 -2.3091 -1.2637
  124MOL0     H16304   5.078   4.129   0.797 -1.3637 -0.1400 -0.5994
  124MOL0     H16305   5.336   4.114   0.785  2.9228 -0.6483  0.4924
  124MOL0     H16306   5.230   3.961   0.768 -0.8108 -0.1178 -0.0670
  124MOL0     H16307   5.447   3.858   0.874 -0.0303  0.5248  0.3155
  124MOL0     H16308   5.538   3.991   0.806  0.1188 -0.2946 -1.6409
  124MOL0     H16309   5.341   3.823   0.627 -0.9940  0.2034  0.7485
  124MOL0     H16310   5.521   3.816   0.627  0.6514  1.9768 -4.4429
  124MOL0     H16311   5.362   4.070   0.553  0.5215  0.9289 -0.9803
  124MOL0     H16312   5.528   4.044   0.557 -1.1597  2.1118 -0.4385
  124MOL0     H16313   5.531   3.907   0.365 -0.1374  0.4344  1.0083
  124MOL0     H16314   5.412   4.032   0.344  0.7136  1.1033  2.8505
  124MOL0     H16315   5.336   3.742   0.438 -1.9020 -0.0249  0.6558
  124MOL0     H16316   5.341   3.784   0.266  1.1435 -0.6203 -0.2981
  124MOL0     H16317   5.116   3.785   0.338 -2.9456  1.2377  0.3052
  124MOL0     H16318   5.157   3.867   0.489 -0.1291 -0.4960 -0.1198
  124MOL0     H16319   5.168   4.083   0.389  0.6136  3.3102 -2.5559
  124MOL0     H16320   5.026   4.002   0.334  0.4405 -1.4435  2.9061
  124MOL0     H16321   5.072   3.938   0.029  1.3910  0.0352 -2.1584
  124MOL0     H16322   5.274   4.182  -0.215  1.4530 -1.7478 -1.1232
  124MOL0     H16323   5.100   4.147  -0.214  1.4354  0.7804 -1.5653
  124MOL0     H16324   5.148   3.912  -0.230  1.6431 -1.6729  0.0930
  124MOL0     H16325   5.319   3.938  -0.229 -2.7547 -4.1935  1.0663
  124MOL0     H16326   5.122   4.048  -0.448  0.1851 -0.8135 -0.7961
  124MOL0     H16327   5.282   4.093  -0.438 -0.0581 -0.1983  1.2228
  124MOL0     H16328   5.334   3.929  -0.583 -0.6052 -0.1724  0.6428
  124MOL0     H16329   5.176   3.863  -0.569 -2.1177  2.2987 -0.4301
  124MOL0     H16330   5.516   3.666  -0.329  0.2790  1.9747  0.5264
  124MOL0     H16331   5.712   3.531  -0.447  0.5702  1.8581  0.2435
  124MOL0     H16332   6.106   3.613  -0.639 -2.9885 -1.4823  0.5092
  124MOL0     H16333   6.309   3.502  -0.748  2.0778 -2.3394  0.4148
  124MOL0     H16334   6.424   3.126  -0.967  0.4961  1.7161 -0.3578
  124MOL0     H16335   6.248   3.096  -0.975  0.0519 -1.9285  1.3426
  124MOL0     H16336   6.350   2.947  -0.855 -2.0653  0.6292 -2.5140
  124MOL0     H16337   6.258   3.028  -0.723 -0.6535  1.5196 -0.3063
  124MOL0     H16338   6.455   3.131  -0.634  0.0940 -3.4414  2.7236
  124MOL0     H16339   6.557   3.106  -0.779 -0.5117  1.4359 -1.0751
  124MOL0     H16340   6.455   2.867  -0.610  1.1335 -1.5480  0.1970
  124MOL0     H16341   6.559   2.858  -0.739 -2.9668  0.1097 -0.9246
  124MOL0     H16342   6.711   3.029  -0.596  1.7140 -1.4247  1.4482
  124MOL0     H16343   6.691   2.869  -0.529  1.7024  0.0388 -2.1455
  124MOL0     H16344   6.475   2.987  -0.405  1.8431 -3.0941 -0.1629
  124MOL0     H16345   6.548   3.142  -0.447 -1.4076 -0.5007 -1.6947
  124MOL0     H16346   6.628   3.076  -0.211  0.6966 -0.4056  0.6092
  124MOL0     H16347   6.685   2.924  -0.279  1.9336  1.0854  1.6152
  124MOL0     H16348   6.846   3.031  -0.421  3.4452  3.5418 -1.1365
  124MOL0     H16349   6.874   3.088  -0.263  1.0276  0.0170 -1.1527
  124MOL0     H16350   6.070   3.160  -0.863 -0.2022 -0.1983 -0.3808
  124MOL0     H16351   5.872   3.260  -0.740  0.1948 -1.4715 -2.9770
  124MOL0     H16352   5.561   3.678  -0.822  2.2351  4.0095 -0.0157
  124MOL0     H16353   5.354   3.761  -0.722  1.2643  0.6702 -0.8790
  124MOL0     H16354   5.217   4.049   1.201  1.6111  1.6324 -1.9304
  124MOL0     H16355   5.010   4.141   1.287 -1.8853  1.2306 -0.3775
  124MOL0     H16356   4.503   4.340   0.963  1.2626  1.1371  0.1520
  124MOL0     H16357   4.356   4.545   0.989 -1.3736  2.0080  1.7814
  124MOL0     H16358   4.172   4.555   1.182  0.9301 -0.6660  0.8101
  124MOL0     H16359   4.183   4.706   1.082 -0.1979 -0.4086  0.0746
  124MOL0     H16360   4.134   4.850   1.267  1.3921 -0.0317 -1.5324
  124MOL0     H16361   4.006   4.740   1.245  0.7914  1.2422  0.3673
  124MOL0     H16362   4.191   4.626   1.440 -2.9085 -1.7729  1.2926
  124MOL0     H16363   4.016   4.658   1.455  0.7284 -1.5735  2.6946
  124MOL0     H16364   4.038   4.841   1.580  0.1047 -0.7626  2.8890
  124MOL0     H16365   4.149   4.750   1.635  1.7810  1.6657  0.5196
  124MOL0     H16366   4.419   5.035   1.486  0.7644 -0.9021  3.2563
  124MOL0     H16367   4.524   4.588   1.381  1.1495 -0.4362  1.0182
  124MOL0     H16368   4.688   4.404   1.328 -0.9384 -1.6236  0.1093
  125MOL0     O16369   3.296   1.104   6.295 -0.5245 -0.2121 -0.3695
  125MOL0     C16370   3.365   1.003   6.305  1.2338 -0.5284  0.7958
  125MOL0     O16371   3.410   0.948   6.422  0.3173 -0.4183  0.5696
  125MOL0     C16372   3.368   1.000   6.553 -0.0167  0.0612 -0.8715
  125MOL0     C16373   3.461   1.007   6.651  0.0525 -0.1073  0.1198
  125MOL0     C16374   3.439   1.069   6.773  0.3282 -1.1319  0.3828
  125MOL0     C16375   3.317   1.103   6.819 -0.3648 -0.1297  0.3322
  125MOL0     O16376   3.320   1.153   6.945  0.0599 -0.4569 -0.3195
  125MOL0     C16377   3.204   1.120   7.035 -0.3384 -0.1900 -0.5927
  125MOL0     C16378   3.227   1.187   7.179 -0.0693  0.4325 -0.1576
  125MOL0     C16379   3.272   1.328   7.146 -0.4313  0.3243 -0.3447
  125MOL0     C16380   3.230   1.431   7.257  0.4405  0.7389  0.2772
  125MOL0     C16381   3.306   1.570   7.257  0.0309 -0.1708  0.3497
  125MOL0     C16382   3.233   1.675   7.336 -0.5346  0.4624  1.7023
  125MOL0     C16383   3.129   1.758   7.263  0.2484  0.1535  1.2001
  125MOL0     C16384   2.981   1.707   7.271  0.6567 -0.6365 -0.2909
  125MOL0     N16385   2.923   1.723   7.401 -0.2216  0.6854 -0.6269
  125MOL0     C16386   2.925   1.838   7.484  0.4898 -0.3429  0.8684
  125MOL0     C16387   2.842   1.806   7.581  0.4283  0.0397  0.0916
  125MOL0     C16388   2.785   1.908   7.687 -0.0924  0.7272  0.0433
  125MOL0     C16389   2.750   2.053   7.647 -0.1596  0.1006 -0.7121
  125MOL0     C16390   2.735   2.155   7.770 -0.1553 -0.6626  0.3503
  125MOL0     C16391   2.660   2.099   7.896 -0.1636  0.1070 -0.2798
  125MOL0     O16392   2.665   2.187   8.014 -0.7191 -0.2399  0.5542
  125MOL0     C16393   2.665   2.139   8.146 -0.4535 -0.2061  0.8603
  125MOL0     C16394   2.659   2.001   8.183  0.6011 -0.0078 -0.3926
  125MOL0     C16395   2.676   1.974   8.318  0.2235 -0.5434  0.4252
  125MOL0     C16396   2.672   2.077   8.413 -0.4375 -0.4790  0.5155
  125MOL0     C16397   2.694   2.053   8.559 -0.6493 -0.5073  0.6407
  125MOL0     O16398   2.721   1.928   8.603  0.6737  0.1341  0.3104
  125MOL0     C16399   2.719   1.901   8.742  0.0980 -0.0815  0.6688
  125MOL0     C16400   2.829   1.851   8.811 -0.3686 -0.3058 -1.0344
  125MOL0     C16401   2.819   1.807   8.946 -0.0329  0.0353  0.1426
  125MOL0     C16402   2.695   1.820   9.008  0.6135  0.7414  0.6758
  125MOL0     O16403   2.659   1.789   9.139  0.0907  0.2569  0.0805
  125MOL0     C16404   2.740   1.706   9.217 -0.5592  0.9211 -0.3116
  125MOL0     C16405   2.704   1.562   9.161 -0.8101  0.1155 -0.2417
  125MOL0     C16406   2.715   1.450   9.250  0.2784  0.1306 -0.3140
  125MOL0     C16407   2.851   1.443   9.320 -1.1775  0.1094 -0.2993
  125MOL0     C16408   2.968   1.415   9.218  0.1490 -0.2726  0.6149
  125MOL0     C16409   3.105   1.374   9.277 -0.1823 -0.3184 -0.6734
  125MOL0     C16410   3.155   1.482   9.367  0.5514 -0.5632  0.3826
  125MOL0     C16411   3.296   1.452   9.394  0.1828  1.5487  0.3783
  125MOL0    Cl16412   3.390   1.485   9.241 -0.0926 -0.2976 -0.1668
  125MOL0     C16413   2.592   1.893   8.941 -0.3531  0.0149 -0.2818
  125MOL0     C16414   2.605   1.932   8.813 -0.4781  0.3534 -0.6907
  125MOL0     O16415   2.681   2.149   8.637  0.3601  0.3739  0.7940
  125MOL0     C16416   2.656   2.208   8.370 -0.0460  0.4431 -0.3364
  125MOL0     C16417   2.670   2.247   8.236  0.5951 -0.3281  0.2312
  125MOL0     N16418   2.792   1.681   7.567 -1.0438  0.3156  0.1628
  125MOL0     N16419   2.849   1.632   7.458 -0.2919  0.2055 -0.4540
  125MOL0     C16420   3.215   1.099   6.720 -0.5554  0.6386 -0.3261
  125MOL0     C16421   3.238   1.035   6.596  0.4248  0.1577 -0.7567
  125MOL0     C16422   3.377   0.914   6.186 -0.3670  0.2183  0.0540
  125MOL0     C16423   3.445   0.791   6.200 -0.3328  0.2807 -0.5852
  125MOL0     C16424   3.469   0.702   6.095  0.2658 -0.5220  0.4162
  125MOL0     C16425   3.436   0.741   5.966 -0.5532  0.2184 -0.5651
  125MOL0     O16426   3.499   0.662   5.868  0.0108 -0.3747 -0.6778
  125MOL0     C16427   3.405   0.626   5.773  0.0274  0.2411  0.4563
  125MOL0     C16428   3.428   0.491   5.720 -0.1376  0.6937  0.4215
  125MOL0     C16429   3.362   0.459   5.579  0.1988 -0.9707 -0.2073
  125MOL0     C16430   3.296   0.320   5.591 -0.3377 -0.0201 -0.9166
  125MOL0     C16431   3.398   0.225   5.559 -0.3865 -0.5660  0.7793
  125MOL0     C16432   3.479   0.136   5.534  0.5961  0.1394  0.6365
  125MOL0     C16433   3.369   0.860   5.949 -0.9552 -0.5592  0.4487
  125MOL0     C16434   3.335   0.949   6.058 -0.2390 -0.8022 -0.1194
  125MOL0     H16435   3.563   0.985   6.620 -0.5590  0.3152 -2.4245
  125MOL0     H16436   3.521   1.083   6.843  0.3177 -0.2510  0.2284
  125MOL0     H16437   3.199   1.011   7.042 -0.2594 -0.0771  2.0928
  125MOL0     H16438   3.114   1.152   6.981 -0.2724 -0.1083 -0.6560
  125MOL0     H16439   3.314   1.130   7.213 -1.2844 -2.3311 -1.3552
  125MOL0     H16440   3.134   1.183   7.237 -1.2340  2.2606 -1.7861
  125MOL0     H16441   3.251   1.369   7.047 -0.7739  0.4822 -0.2094
  125MOL0     H16442   3.381   1.320   7.152 -0.5595 -1.4858  0.2509
  125MOL0     H16443   3.121   1.444   7.258  0.2065 -0.7104  3.2030
  125MOL0     H16444   3.253   1.388   7.354 -1.2259  1.2004  0.9186
  125MOL0     H16445   3.318   1.607   7.155  0.0566 -0.9744  0.0532
  125MOL0     H16446   3.409   1.554   7.289  0.4020  1.0566 -0.1796
  125MOL0     H16447   3.314   1.744   7.361  1.1753 -0.6042 -0.5537
  125MOL0     H16448   3.186   1.641   7.429  0.0164  0.0561  1.8375
  125MOL0     H16449   3.140   1.863   7.290  0.2477  0.6715 -0.7074
  125MOL0     H16450   3.159   1.755   7.158 -1.2831  0.4475  0.7252
  125MOL0     H16451   2.986   1.600   7.248  1.9416 -1.3175  2.7799
  125MOL0     H16452   2.908   1.745   7.198 -0.7163  1.5995  2.0669
  125MOL0     H16453   2.972   1.931   7.457  0.2134 -1.2430 -3.2980
  125MOL0     H16454   2.864   1.917   7.763 -1.4288  3.0668  1.2696
  125MOL0     H16455   2.701   1.855   7.733  2.3162 -2.4206  1.2296
  125MOL0     H16456   2.664   2.066   7.580 -0.4954  1.9410  0.0335
  125MOL0     H16457   2.836   2.079   7.586  1.2947  1.1169  1.6538
  125MOL0     H16458   2.838   2.177   7.799 -0.8159  1.8400  1.0145
  125MOL0     H16459   2.683   2.246   7.737  1.2859 -0.4543 -1.5162
  125MOL0     H16460   2.705   2.005   7.927 -2.1275 -0.4132  1.1749
  125MOL0     H16461   2.557   2.074   7.869  0.2437 -3.0756  0.7151
  125MOL0     H16462   2.654   1.910   8.124  1.2174 -0.8840  0.8575
  125MOL0     H16463   2.684   1.870   8.347  0.1149 -0.9513 -0.9264
  125MOL0     H16464   2.918   1.854   8.748 -0.1352 -0.3397 -0.7110
  125MOL0     H16465   2.908   1.763   8.989  0.5895 -0.6913 -1.7854
  125MOL0     H16466   2.712   1.712   9.322  1.4888  1.5432  0.2329
  125MOL0     H16467   2.846   1.732   9.216  0.3787 -2.1484  1.9421
  125MOL0     H16468   2.759   1.531   9.071  1.6608  0.1704  1.1431
  125MOL0     H16469   2.597   1.569   9.142 -1.0049 -0.0510  0.7436
  125MOL0     H16470   2.685   1.353   9.208 -2.5509  0.3073  1.0873
  125MOL0     H16471   2.634   1.460   9.322 -0.3232  1.9913 -1.1737
  125MOL0     H16472   2.873   1.529   9.383  2.0603 -1.5268  1.0484
  125MOL0     H16473   2.856   1.354   9.384  1.2685  1.7970  2.0340
  125MOL0     H16474   2.985   1.500   9.151 -2.7790 -0.5548 -0.6412
  125MOL0     H16475   2.938   1.338   9.147  1.4572  1.1979 -1.6764
  125MOL0     H16476   3.173   1.331   9.203  1.5822 -1.5637  1.5552
  125MOL0     H16477   3.091   1.285   9.339  2.6598 -0.8955 -0.7261
  125MOL0     H16478   3.145   1.577   9.314 -1.7128 -1.9588 -1.9542
  125MOL0     H16479   3.101   1.478   9.462  1.0945 -1.0262  0.6719
  125MOL0     H16480   3.313   1.350   9.431  3.4644  1.8562  0.0099
  125MOL0     H16481   3.343   1.511   9.473  0.7786  1.0715  0.3892
  125MOL0     H16482   2.498   1.896   8.996  0.3806  1.8881  0.9840
  125MOL0     H16483   2.520   1.949   8.749  0.4066 -2.2988 -2.7468
  125MOL0     H16484   2.642   2.287   8.444  0.3845  1.2665 -1.1174
  125MOL0     H16485   2.664   2.353   8.215  0.3113  0.1970  2.6417
  125MOL0     H16486   3.109   1.098   6.744 -0.4715  1.9090  0.1287
  125MOL0     H16487   3.151   1.018   6.533  0.5389  0.3605 -0.9700
  125MOL0     H16488   3.471   0.757   6.299 -2.0309 -0.2801 -0.3031
  125MOL0     H16489   3.509   0.603   6.116 -0.7059 -1.2870 -1.0858
  125MOL0     H16490   3.409   0.694   5.687 -0.4055  2.2411  1.9506
  125MOL0     H16491   3.303   0.623   5.811 -0.7693  0.1392 -1.5821
  125MOL0     H16492   3.532   0.482   5.688 -0.3389  0.0041 -0.0612
  125MOL0     H16493   3.417   0.407   5.789  1.3316 -0.9408 -1.2033
  125MOL0     H16494   3.438   0.452   5.500 -1.1168  2.4850 -1.9632
  125MOL0     H16495   3.284   0.530   5.551 -0.1019 -0.9459  0.6536
  125MOL0     H16496   3.260   0.315   5.695  2.4656  0.8908  0.2046
  125MOL0     H16497   3.209   0.297   5.529  1.2558 -2.4752 -2.4082
  125MOL0     H16498   3.532   0.047   5.509  0.7210  0.2054  0.6667
  125MOL0     H16499   3.345   0.889   5.847 -0.3616  0.6967  0.6465
  125MOL0     H16500   3.299   1.051   6.043  1.2872  0.4593  3.6672
  126MOL0     O16501   3.343   5.276   6.911 -0.3287  0.6934  0.2179
  126MOL0     C16502   3.460   5.304   6.946  0.6209 -0.6355  0.2601
  126MOL0     O16503   3.501   5.422   7.010 -0.0425 -0.2077 -0.1558
  126MOL0     C16504   3.407   5.527   7.027 -0.9728  0.3822 -0.7611
  126MOL0     C16505   3.462   5.635   7.096 -0.0973  1.0333  0.1392
  126MOL0     C16506   3.393   5.756   7.118  1.7107  0.6769 -1.2800
  126MOL0     C16507   3.260   5.761   7.086  0.1122  0.0369  1.4597
  126MOL0     O16508   3.176   5.871   7.102 -0.2443  0.6409  0.4909
  126MOL0     C16509   3.220   6.000   7.122 -0.1684  0.5132 -0.2829
  126MOL0     C16510   3.100   6.102   7.143  0.0619  0.1984 -0.0342
  126MOL0     C16511   3.009   6.102   7.028 -0.0998 -0.6401  0.7289
  126MOL0     C16512   2.893   6.201   7.071 -1.2089 -0.2475 -0.0405
  126MOL0     C16513   2.782   6.199   6.963  0.7390 -0.7332  0.3412
  126MOL0     C16514   2.840   6.213   6.824  0.2529  0.1412  0.4510
  126MOL0     C16515   2.733   6.233   6.719 -0.3655 -0.1519  0.4155
  126MOL0     C16516   2.785   6.274   6.586 -0.8433  0.1804  0.6485
  126MOL0     N16517   2.890   6.191   6.524 -0.9182  0.7334  0.7087
  126MOL0     C16518   3.023   6.189   6.547 -0.0998 -0.5354  0.4235
  126MOL0     C16519   3.081   6.113   6.451  0.8402  0.2916  1.0503
  126MOL0     C16520   3.233   6.092   6.432  0.6788 -0.6132 -0.5311
  126MOL0     C16521   3.269   5.946   6.426 -0.3003  0.4354 -0.0877
  126MOL0     C16522   3.409   5.926   6.371  0.3100 -0.5684 -0.7030
  126MOL0     C16523   3.440   5.779   6.342 -0.0093  1.2201 -1.1651
  126MOL0     O16524   3.383   5.737   6.217  0.2425  1.5051 -0.5862
  126MOL0     C16525   3.403   5.615   6.168  0.4806 -0.5867 -1.0593
  126MOL0     C16526   3.438   5.509   6.257 -0.3520 -0.0729  0.8915
  126MOL0     C16527   3.456   5.383   6.211 -0.3191 -0.1465  0.7960
  126MOL0     C16528   3.453   5.358   6.070  0.0564 -0.1776 -0.0706
  126MOL0     C16529   3.485   5.219   6.016 -0.3645  0.3804  0.5915
  126MOL0     O16530   3.486   5.196   5.884  0.4528 -0.4797  0.0558
  126MOL0     C16531   3.495   5.073   5.829  0.1459 -0.0866  0.7030
  126MOL0     C16532   3.393   5.017   5.740 -0.7986  0.0280 -1.0990
  126MOL0     C16533   3.408   4.897   5.670 -0.3308 -0.0761 -0.2001
  126MOL0     C16534   3.512   4.811   5.699  0.0510  0.2399 -0.4168
  126MOL0     O16535   3.528   4.686   5.647 -0.2556  0.1309 -0.0438
  126MOL0     C16536   3.437   4.648   5.543  0.2320  0.0373  0.9738
  126MOL0     C16537   3.452   4.502   5.495  0.0676  0.3282  0.0044
  126MOL0     C16538   3.428   4.399   5.607  0.4414  0.5053  0.1878
  126MOL0     C16539   3.418   4.256   5.564 -0.5669 -0.0420 -0.0045
  126MOL0     C16540   3.367   4.187   5.689  0.0476 -0.2536 -0.3785
  126MOL0     C16541   3.352   4.035   5.658  0.0053 -0.1663 -1.2968
  126MOL0     C16542   3.320   3.970   5.796 -0.9319  0.0818  0.4431
  126MOL0     C16543   3.440   3.907   5.873 -0.9236 -0.1703 -0.4803
  126MOL0    Cl16544   3.376   3.802   6.007 -0.6390  0.0679  0.4097
  126MOL0     C16545   3.607   4.857   5.802 -0.4026 -0.1071 -0.6284
  126MOL0     C16546   3.596   4.982   5.861 -0.0108  0.3598  0.8600
  126MOL0     O16547   3.514   5.131   6.096  0.0476  0.3560  0.3443
  126MOL0     C16548   3.414   5.458   5.978 -0.0289  0.4778  0.0780
  126MOL0     C16549   3.398   5.594   6.027  0.1209  0.2593 -0.3641
  126MOL0     N16550   2.979   6.067   6.373  1.2297 -0.1775 -0.6787
  126MOL0     N16551   2.865   6.117   6.414 -0.1381  0.2943  0.1854
  126MOL0     C16552   3.195   5.650   7.019  0.0190 -1.0928 -0.5083
  126MOL0     C16553   3.275   5.535   6.989  0.0396 -0.9639 -0.1066
  126MOL0     C16554   3.575   5.225   6.904  0.7002  1.0028 -0.2819
  126MOL0     C16555   3.566   5.111   6.825  0.5997  0.0530  0.8280
  126MOL0     C16556   3.674   5.048   6.773  0.7160  0.2628  0.4721
  126MOL0     C16557   3.796   5.077   6.820 -0.2010  0.4188  0.0888
  126MOL0     O16558   3.908   5.021   6.766 -0.3017  0.3383  1.0620
  126MOL0     C16559   3.899   4.990   6.621  0.1252  0.5346  0.2686
  126MOL0     C16560   4.044   4.993   6.562  0.8451  0.7440 -0.2014
  126MOL0     C16561   4.154   4.929   6.667 -0.7869  0.1655  0.6852
  126MOL0     C16562   4.122   4.788   6.723  0.5418  0.7269  0.1349
  126MOL0     C16563   4.241   4.729   6.785  0.3095  0.4994 -1.1820
  126MOL0     C16564   4.339   4.665   6.830 -0.0002 -1.0565 -0.2760
  126MOL0     C16565   3.804   5.174   6.919  0.5074 -0.2147 -0.5673
  126MOL0     C16566   3.698   5.250   6.963 -0.0291  0.2050  0.5780
  126MOL0     H16567   3.566   5.618   7.123 -1.2412  0.1324  4.8622
  126MOL0     H16568   3.436   5.842   7.167 -2.0613  1.9209  0.2194
  126MOL0     H16569   3.266   6.024   7.026  0.7270 -0.0250 -0.0058
  126MOL0     H16570   3.295   6.011   7.202  0.3522  1.6000 -0.9036
  126MOL0     H16571   3.140   6.202   7.165  1.2862  0.1785 -1.9636
  126MOL0     H16572   3.050   6.065   7.233 -1.4128  0.2292 -0.8043
  126MOL0     H16573   2.977   5.998   7.015  1.4129 -1.0238 -0.1625
  126MOL0     H16574   3.066   6.128   6.938 -1.3599 -3.7874 -1.1397
  126MOL0     H16575   2.854   6.161   7.164 -1.4657  1.0324  0.4187
  126MOL0     H16576   2.942   6.299   7.074  0.4522 -1.0184 -0.4423
  126MOL0     H16577   2.709   6.279   6.983 -0.2392 -1.5198  0.0031
  126MOL0     H16578   2.738   6.101   6.983 -0.3713 -0.2000  0.6175
  126MOL0     H16579   2.891   6.121   6.794 -3.2125 -1.3856 -1.2678
  126MOL0     H16580   2.904   6.302   6.828  0.2566  0.4351 -3.1883
  126MOL0     H16581   2.673   6.144   6.696 -2.2627  1.4428 -1.1413
  126MOL0     H16582   2.661   6.306   6.758  0.8010  1.4315 -0.2994
  126MOL0     H16583   2.813   6.377   6.609  1.8535  0.1897 -2.0816
  126MOL0     H16584   2.714   6.296   6.505  0.5738  0.8290 -0.4614
  126MOL0     H16585   3.078   6.252   6.617 -0.0076 -0.5827  0.3942
  126MOL0     H16586   3.282   6.149   6.512 -3.3452  1.9758  0.3947
  126MOL0     H16587   3.265   6.147   6.343  2.9465  3.6125  2.5330
  126MOL0     H16588   3.196   5.898   6.360 -1.4258 -4.2892  3.9481
  126MOL0     H16589   3.264   5.903   6.526 -1.3246 -1.0455 -0.7427
  126MOL0     H16590   3.424   5.982   6.278 -0.4560  0.0987 -0.4322
  126MOL0     H16591   3.485   5.956   6.443  1.6696 -0.6253 -2.0509
  126MOL0     H16592   3.403   5.710   6.418  2.4694 -1.3201 -2.1080
  126MOL0     H16593   3.548   5.761   6.345 -0.0286  0.4045 -3.6555
  126MOL0     H16594   3.429   5.523   6.364 -0.4226  0.7062  0.7959
  126MOL0     H16595   3.473   5.290   6.265  0.3520 -1.4060 -1.4373
  126MOL0     H16596   3.308   5.078   5.709 -2.6707 -1.7030  0.3715
  126MOL0     H16597   3.324   4.871   5.605  0.7573 -0.3430 -1.5407
  126MOL0     H16598   3.460   4.714   5.459  0.0916  0.3669  1.1948
  126MOL0     H16599   3.333   4.661   5.575  0.4382 -0.0591  1.6905
  126MOL0     H16600   3.545   4.472   5.445 -0.0819 -0.3931  0.1475
  126MOL0     H16601   3.372   4.493   5.421  0.9927 -3.0082 -0.7654
  126MOL0     H16602   3.335   4.435   5.653 -2.4302 -0.9094 -3.9576
  126MOL0     H16603   3.516   4.404   5.672  1.4362  3.5566 -1.1885
  126MOL0     H16604   3.354   4.255   5.475  0.2995 -0.2125 -0.6475
  126MOL0     H16605   3.520   4.223   5.542  0.1170  0.6818  1.8701
  126MOL0     H16606   3.269   4.230   5.713  0.7578  2.3125 -1.6736
  126MOL0     H16607   3.419   4.213   5.782 -5.0383 -1.4673  3.2521
  126MOL0     H16608   3.451   4.003   5.626 -0.9224 -0.9142 -3.6309
  126MOL0     H16609   3.276   4.020   5.580  1.2625 -2.1405 -2.2239
  126MOL0     H16610   3.266   4.039   5.862 -1.3284  0.5670 -0.3733
  126MOL0     H16611   3.249   3.893   5.765 -3.2925  2.7511 -1.2867
  126MOL0     H16612   3.496   3.990   5.916  1.0647 -0.7659 -1.7561
  126MOL0     H16613   3.503   3.841   5.812  0.6091 -0.4821  1.3421
  126MOL0     H16614   3.690   4.802   5.845  1.4044  1.9799 -1.2847
  126MOL0     H16615   3.679   5.020   5.920  1.1097 -1.1135  0.2896
  126MOL0     H16616   3.410   5.438   5.871  4.4320 -1.9091  0.0907
  126MOL0     H16617   3.377   5.673   5.955 -1.2940 -0.9763 -1.3508
  126MOL0     H16618   3.092   5.664   6.988 -0.5008  2.9372  2.2287
  126MOL0     H16619   3.233   5.456   6.927 -0.6979 -2.0908  1.7436
  126MOL0     H16620   3.466   5.081   6.795  0.7964  0.8278 -0.6800
  126MOL0     H16621   3.662   4.970   6.698  0.6961  1.6922 -1.0700
  126MOL0     H16622   3.846   5.063   6.558  3.0870  0.6900 -2.2374
  126MOL0     H16623   3.856   4.890   6.621  2.2696 -0.5392  3.3029
  126MOL0     H16624   4.039   4.942   6.466 -0.2070 -1.4921  0.9439
  126MOL0     H16625   4.074   5.095   6.536  1.4664 -0.1575 -3.4902
  126MOL0     H16626   4.154   4.992   6.756  0.1116 -1.2537  1.7354
  126MOL0     H16627   4.256   4.932   6.625 -0.1806  1.3549  2.1812
  126MOL0     H16628   4.055   4.792   6.809 -1.2661 -1.9650 -1.0267
  126MOL0     H16629   4.076   4.719   6.652  0.7779  1.2201 -0.5145
  126MOL0     H16630   4.431   4.612   6.846 -0.1196 -1.7508 -1.7463
  126MOL0     H16631   3.898   5.190   6.970  0.7089 -0.1563 -0.9499
  126MOL0     H16632   3.720   5.320   7.043  0.5944  1.6508 -0.8009
  127MOL0     O16633  11.213   1.307   1.211  0.1254 -0.3788  0.1207
  127MOL0     C16634  11.290   1.345   1.129 -0.9345 -0.2185  0.5313
  127MOL0     O16635  11.413   1.280   1.103  0.0781 -0.0007 -0.6549
  127MOL0     C16636  11.450   1.173   1.180  0.3164 -0.2551 -0.3457
  127MOL0     C16637  11.364   1.066   1.193 -0.7445 -0.0552  0.3473
  127MOL0     C16638  11.408   0.940   1.247  0.0650  1.1493 -0.2385
  127MOL0     C16639  11.542   0.921   1.265  0.5818  0.3235  0.0791
  127MOL0     O16640  11.605   0.806   1.297 -0.0962  0.4627 -0.3159
  127MOL0     C16641  11.532   0.692   1.338 -0.2098 -0.7894  0.1948
  127MOL0     C16642  11.612   0.567   1.359  0.2314  0.2526 -0.5513
  127MOL0     C16643  11.714   0.532   1.251 -0.1814  1.0618  0.1028
  127MOL0     C16644  11.796   0.405   1.277  0.2275  0.2811  0.1340
  127MOL0     C16645  11.879   0.380   1.154  0.5484  0.2698 -0.1192
  127MOL0     C16646  11.946   0.240   1.166 -0.2619  0.5203  0.1854
  127MOL0     C16647  12.073   0.224   1.266 -0.3941 -0.6406 -0.4206
  127MOL0     C16648  12.163   0.098   1.262  0.0620 -0.5120  0.1773
  127MOL0     N16649  12.232   0.091   1.127  0.0509  0.4256 -0.4503
  127MOL0     C16650  12.300   0.198   1.073 -0.3341 -0.2709  0.6443
  127MOL0     C16651  12.310   0.180   0.939  0.4091  0.1395  0.9059
  127MOL0     C16652  12.371   0.267   0.825  0.2649 -0.0056 -0.3121
  127MOL0     C16653  12.334   0.423   0.856 -0.1205  0.4900  0.5345
  127MOL0     C16654  12.388   0.509   0.739 -0.5101  0.3096  0.0991
  127MOL0     C16655  12.328   0.650   0.765 -0.4756 -0.4214  0.0435
  127MOL0     O16656  12.360   0.734   0.647 -0.4965  0.5305 -0.4207
  127MOL0     C16657  12.338   0.868   0.653 -0.3498 -0.7985  0.7440
  127MOL0     C16658  12.436   0.956   0.616  0.6969  0.3140  0.6531
  127MOL0     C16659  12.415   1.093   0.611  0.7140  1.1993  0.1523
  127MOL0     C16660  12.293   1.145   0.663  0.4505 -0.8132  1.0404
  127MOL0     C16661  12.281   1.292   0.662 -1.0635  0.7070  0.2566
  127MOL0     O16662  12.155   1.341   0.672  0.1667  0.1992 -0.7326
  127MOL0     C16663  12.148   1.472   0.664  0.7223 -0.9570 -0.3177
  127MOL0     C16664  12.181   1.536   0.546 -0.5244 -0.2661  0.3762
  127MOL0     C16665  12.183   1.676   0.533  0.2693  0.1934  0.9841
  127MOL0     C16666  12.155   1.756   0.645  0.0012  0.3558  0.4925
  127MOL0     O16667  12.133   1.889   0.637  0.0724  0.3498 -1.1766
  127MOL0     C16668  12.236   1.970   0.707  0.5364  0.2608  0.2035
  127MOL0     C16669  12.332   2.045   0.610 -0.7470  0.1736 -0.3244
  127MOL0     C16670  12.414   1.947   0.524 -0.2345  0.0529  0.0826
  127MOL0     C16671  12.483   2.024   0.403 -0.1704  1.0645 -0.1805
  127MOL0     C16672  12.576   1.935   0.321 -0.5210  0.9247 -0.1172
  127MOL0     C16673  12.613   1.995   0.185 -0.8301  0.0287 -0.9496
  127MOL0     C16674  12.490   1.990   0.097 -0.3757  0.2498 -0.0985
  127MOL0     C16675  12.500   1.879  -0.016  0.2346  0.4608 -0.2324
  127MOL0    Cl16676  12.479   1.723   0.063  0.8216  0.4838 -0.3877
  127MOL0     C16677  12.124   1.693   0.772  0.2540  0.2451  0.2918
  127MOL0     C16678  12.125   1.558   0.783  0.1014 -0.2692  1.3003
  127MOL0     O16679  12.380   1.349   0.632 -0.1136 -0.6038 -1.0266
  127MOL0     C16680  12.187   1.062   0.699 -0.0972  0.9051 -0.9497
  127MOL0     C16681  12.213   0.919   0.689  0.3554 -0.3264 -0.4915
  127MOL0     N16682  12.248   0.057   0.916  0.2303 -0.8933 -0.3080
  127MOL0     N16683  12.198   0.005   1.032  0.0788  0.4414 -0.3240
  127MOL0     C16684  11.628   1.034   1.262  0.0758  0.4784 -1.1000
  127MOL0     C16685  11.585   1.162   1.225 -1.1767  1.3120 -0.8894
  127MOL0     C16686  11.285   1.472   1.055 -0.0150  0.0492 -0.2139
  127MOL0     C16687  11.181   1.564   1.075 -0.6020  1.2080  0.5603
  127MOL0     C16688  11.159   1.677   0.994 -0.6957  1.0261 -0.7661
  127MOL0     C16689  11.234   1.701   0.881 -0.0456 -0.5402 -0.1455
  127MOL0     O16690  11.196   1.814   0.812 -0.2645 -0.0451  0.0636
  127MOL0     C16691  11.249   1.850   0.686  0.8934  0.3118  0.1293
  127MOL0     C16692  11.363   1.954   0.701 -0.4336 -0.1506  0.7245
  127MOL0     C16693  11.391   2.039   0.577  0.0776  0.4730 -0.3917
  127MOL0     C16694  11.485   2.143   0.599 -1.0413 -0.0176 -0.4174
  127MOL0     C16695  11.492   2.229   0.478 -0.4479  0.4811 -0.3792
  127MOL0     C16696  11.496   2.298   0.381  0.7010  0.4298  0.4776
  127MOL0     C16697  11.327   1.607   0.844  0.2073 -1.0650  0.0558
  127MOL0     C16698  11.360   1.499   0.934  0.4964  0.8895 -0.8552
  127MOL0     H16699  11.267   1.058   1.146 -0.2663 -0.4815 -0.5847
  127MOL0     H16700  11.344   0.853   1.258  1.4371  0.2279  0.8692
  127MOL0     H16701  11.459   0.670   1.260  1.1704  1.8833 -2.0178
  127MOL0     H16702  11.483   0.725   1.431  4.2139 -1.3064  3.0139
  127MOL0     H16703  11.531   0.494   1.367  0.2308  0.1648 -1.2991
  127MOL0     H16704  11.654   0.573   1.460 -0.3021 -1.1642 -0.2220
  127MOL0     H16705  11.789   0.610   1.238  0.1922  0.7951  0.6350
  127MOL0     H16706  11.665   0.519   1.153 -1.7511  1.3290  0.8160
  127MOL0     H16707  11.850   0.421   1.371  0.5271 -0.5496  0.1138
  127MOL0     H16708  11.732   0.317   1.291  0.4287  0.3116  1.3333
  127MOL0     H16709  11.955   0.459   1.154  0.5579  0.2807 -1.2524
  127MOL0     H16710  11.825   0.388   1.059  1.9196 -0.1662 -0.9537
  127MOL0     H16711  11.980   0.200   1.070 -4.1706 -1.7343 -0.4782
  127MOL0     H16712  11.869   0.167   1.191 -0.7455 -0.1747 -2.9288
  127MOL0     H16713  12.134   0.311   1.243  2.7235 -2.9915 -1.7921
  127MOL0     H16714  12.029   0.241   1.365 -3.2162  1.1520 -1.8479
  127MOL0     H16715  12.099   0.013   1.287 -1.1140  0.0170 -0.8989
  127MOL0     H16716  12.245   0.111   1.333  1.4570  0.3427 -1.4870
  127MOL0     H16717  12.321   0.283   1.138 -0.3462 -0.1419  0.4784
  127MOL0     H16718  12.339   0.242   0.723 -1.1519 -2.3085  0.6223
  127MOL0     H16719  12.480   0.258   0.817  0.2140  0.6741 -2.5584
  127MOL0     H16720  12.392   0.453   0.943  2.5040  0.9881 -1.2786
  127MOL0     H16721  12.227   0.434   0.877  0.2360  2.2572  1.6048
  127MOL0     H16722  12.497   0.514   0.747 -0.1748  0.7734 -3.2150
  127MOL0     H16723  12.364   0.476   0.637 -2.2747 -1.0742  0.9070
  127MOL0     H16724  12.368   0.705   0.851  2.6784  0.4151 -1.7938
  127MOL0     H16725  12.219   0.645   0.770 -0.6726 -0.9405 -3.0401
  127MOL0     H16726  12.524   0.916   0.566 -0.5818 -0.9445 -0.6599
  127MOL0     H16727  12.505   1.145   0.580  0.6030  0.3097 -1.8134
  127MOL0     H16728  12.215   1.481   0.459  1.2842 -3.0636  2.6489
  127MOL0     H16729  12.203   1.713   0.433 -0.0436 -0.3042  0.7331
  127MOL0     H16730  12.295   1.916   0.782  0.0614  0.7268  0.9227
  127MOL0     H16731  12.181   2.049   0.758 -0.7045 -2.0687  2.7330
  127MOL0     H16732  12.405   2.113   0.653 -0.6826 -0.1344  0.0583
  127MOL0     H16733  12.264   2.108   0.552 -2.2362  0.6896  1.8664
  127MOL0     H16734  12.353   1.864   0.487  0.3807 -0.1256 -0.5657
  127MOL0     H16735  12.495   1.903   0.583  1.3081  2.0406 -0.4269
  127MOL0     H16736  12.409   2.077   0.342 -2.0930  1.2003  2.1094
  127MOL0     H16737  12.544   2.105   0.444  1.2659  0.9622 -2.0276
  127MOL0     H16738  12.535   1.834   0.312  0.5815  0.4027  0.4614
  127MOL0     H16739  12.666   1.905   0.375 -2.6059 -1.7068  2.2031
  127MOL0     H16740  12.698   1.945   0.139  2.0611  2.5614  1.1845
  127MOL0     H16741  12.652   2.096   0.201 -0.6556  1.0601 -6.2160
  127MOL0     H16742  12.396   1.960   0.145 -1.0505  0.2107 -1.4118
  127MOL0     H16743  12.466   2.085   0.050 -0.9594  0.9306  1.5092
  127MOL0     H16744  12.599   1.874  -0.063  0.9119 -1.5691  1.2950
  127MOL0     H16745  12.411   1.888  -0.080 -2.6974  3.2461  3.6826
  127MOL0     H16746  12.115   1.754   0.861 -0.5701  0.2033  0.2477
  127MOL0     H16747  12.097   1.517   0.879  1.2831 -0.0969  1.7404
  127MOL0     H16748  12.090   1.096   0.733  0.2305  1.6004 -0.6761
  127MOL0     H16749  12.131   0.849   0.703 -1.6195  2.1258  1.1348
  127MOL0     H16750  11.726   1.005   1.298 -0.1676  0.6175 -0.3170
  127MOL0     H16751  11.657   1.244   1.221  0.8470 -0.3056  0.2617
  127MOL0     H16752  11.099   1.550   1.145 -1.1835 -2.4611 -0.6650
  127MOL0     H16753  11.087   1.749   1.031  1.6697  1.2461  4.2206
  127MOL0     H16754  11.173   1.908   0.633 -0.2426  0.2615  1.6408
  127MOL0     H16755  11.266   1.763   0.621  1.5147  0.7386 -0.2960
  127MOL0     H16756  11.341   2.017   0.788  1.8979  0.1586  1.1450
  127MOL0     H16757  11.446   1.891   0.731 -0.8939 -2.0704 -1.6993
  127MOL0     H16758  11.296   2.082   0.543 -0.1205  0.3341 -0.0093
  127MOL0     H16759  11.423   1.970   0.499 -0.3531 -0.4856  0.2586
  127MOL0     H16760  11.456   2.213   0.678 -0.4726  0.0393 -0.2559
  127MOL0     H16761  11.579   2.096   0.631 -2.8222 -0.8570  4.4785
  127MOL0     H16762  11.491   2.348   0.286  1.3696  0.5117  0.4812
  127MOL0     H16763  11.380   1.630   0.753 -2.0708 -1.6630 -1.5183
  127MOL0     H16764  11.446   1.442   0.901  1.0990  2.6982 -2.6003
  128MOL0     O16765  10.215   5.529   8.237  0.0768  1.1532 -0.2737
  128MOL0     C16766  10.336   5.571   8.207  0.7714 -0.1100  0.0127
  128MOL0     O16767  10.436   5.602   8.295  0.6795 -0.7076 -1.0936
  128MOL0     C16768  10.426   5.567   8.426  0.6023 -0.1258 -0.2112
  128MOL0     C16769  10.356   5.460   8.471 -0.4584 -0.8247  0.1874
  128MOL0     C16770  10.341   5.424   8.609 -0.5027  0.7829  0.4684
  128MOL0     C16771  10.393   5.508   8.712  0.4994 -0.1222  0.9316
  128MOL0     O16772  10.382   5.498   8.843  0.0025 -0.2497 -1.0099
  128MOL0     C16773  10.253   5.514   8.891  1.1542  1.1654  0.1761
  128MOL0     C16774  10.250   5.568   9.031 -0.5488 -0.4954  0.6753
  128MOL0     C16775  10.096   5.609   9.059 -0.1929  0.0262 -0.4326
  128MOL0     C16776   9.978   5.511   9.023 -0.1411  1.3125  0.0073
  128MOL0     C16777   9.985   5.379   9.094 -0.4224 -0.3807  0.7779
  128MOL0     C16778   9.846   5.304   9.086  0.5861 -0.4630  0.5537
  128MOL0     C16779   9.851   5.155   9.097  0.3219 -0.7126 -0.0995
  128MOL0     C16780   9.706   5.096   9.070 -0.9456  0.4812 -0.6693
  128MOL0     N16781   9.661   5.102   8.936  0.3120 -0.1493  1.2217
  128MOL0     C16782   9.528   5.114   8.894  0.1963 -1.2774 -0.2147
  128MOL0     C16783   9.527   5.074   8.759 -0.6459 -0.1098 -0.0015
  128MOL0     C16784   9.415   5.026   8.674  0.1911 -0.1764 -0.6639
  128MOL0     C16785   9.397   4.883   8.682  0.6845  0.2173 -0.3975
  128MOL0     C16786   9.325   4.838   8.548  0.1277  0.5406 -0.1957
  128MOL0     C16787   9.417   4.795   8.429 -0.1744  0.9862 -0.6623
  128MOL0     O16788   9.462   4.910   8.360 -0.5807  0.1652 -0.3017
  128MOL0     C16789   9.386   4.966   8.268  0.0308 -0.6824  0.9127
  128MOL0     C16790   9.296   4.895   8.182 -0.1296  0.9237 -0.6412
  128MOL0     C16791   9.233   4.954   8.073 -0.2315  0.1903  0.6024
  128MOL0     C16792   9.240   5.095   8.052  0.0984 -0.0275 -0.5387
  128MOL0     C16793   9.172   5.161   7.936 -0.7324 -0.9535  0.5315
  128MOL0     O16794   9.168   5.293   7.941 -0.9621  0.1201  0.2131
  128MOL0     C16795   9.116   5.352   7.828  0.1812  0.1352 -0.2310
  128MOL0     C16796   9.214   5.388   7.729  0.0955  0.0473  0.6399
  128MOL0     C16797   9.167   5.440   7.611 -1.0530 -0.7740 -0.2483
  128MOL0     C16798   9.031   5.456   7.580  0.1808 -0.2842 -0.6201
  128MOL0     O16799   9.004   5.513   7.461  0.5811  0.0506 -0.2438
  128MOL0     C16800   8.881   5.596   7.458  1.1861  1.8045 -0.2516
  128MOL0     C16801   8.854   5.674   7.329  0.0956 -0.4518  0.2117
  128MOL0     C16802   8.958   5.737   7.248 -0.0753  0.2817 -0.2384
  128MOL0     C16803   8.892   5.789   7.116  0.2196 -0.5945 -0.3439
  128MOL0     C16804   8.989   5.874   7.036  0.1700  0.6754  0.1122
  128MOL0     C16805   9.107   5.785   6.969  0.1838 -0.2912 -0.1084
  128MOL0     C16806   9.186   5.870   6.872 -0.1382 -0.4409 -0.3809
  128MOL0     C16807   9.113   5.941   6.756  0.9791  1.0041 -0.2041
  128MOL0    Cl16808   9.247   6.019   6.650  0.1928 -0.0948 -0.4966
  128MOL0     C16809   8.934   5.405   7.676  0.0993 -0.0913 -0.2214
  128MOL0     C16810   8.975   5.366   7.798  0.2200  0.6511  0.1194
  128MOL0     O16811   9.131   5.087   7.846  0.6383  0.4056  0.6453
  128MOL0     C16812   9.308   5.162   8.152  0.1756  0.6127  0.2693
  128MOL0     C16813   9.392   5.107   8.252 -0.7045  0.1701  0.0138
  128MOL0     N16814   9.668   5.063   8.724 -0.2452 -0.7315 -0.3065
  128MOL0     N16815   9.739   5.066   8.834  0.0113  0.2869  0.0381
  128MOL0     C16816  10.461   5.622   8.662  0.0491 -1.4396 -0.2744
  128MOL0     C16817  10.487   5.648   8.526 -0.3291 -0.5795 -0.8484
  128MOL0     C16818  10.352   5.579   8.057  0.1060 -0.2419  0.6621
  128MOL0     C16819  10.255   5.554   7.961 -0.0905  0.1590  0.2091
  128MOL0     C16820  10.283   5.560   7.827  1.1067 -0.3371  0.4198
  128MOL0     C16821  10.414   5.583   7.786 -0.5585  0.0945  0.9555
  128MOL0     O16822  10.436   5.576   7.654 -0.0111 -0.5668  0.7703
  128MOL0     C16823  10.547   5.648   7.602  0.0955  0.4339  0.3122
  128MOL0     C16824  10.582   5.609   7.455  1.2936  0.6161 -0.4869
  128MOL0     C16825  10.585   5.735   7.367  0.6744  0.4787 -0.5511
  128MOL0     C16826  10.709   5.823   7.401  0.0450  0.4531 -0.6857
  128MOL0     C16827  10.704   5.948   7.316  0.0943 -0.5516  0.3207
  128MOL0     C16828  10.691   6.047   7.246  0.9072  0.5800 -0.2906
  128MOL0     C16829  10.515   5.620   7.877 -0.9221 -0.1986  0.6877
  128MOL0     C16830  10.484   5.622   8.011 -0.4947 -0.3184 -0.9545
  128MOL0     H16831  10.316   5.393   8.396 -1.0932  0.8381 -1.0117
  128MOL0     H16832  10.304   5.325   8.635  1.8274 -0.0303  0.9196
  128MOL0     H16833  10.199   5.419   8.885 -2.0845  2.8400  0.6154
  128MOL0     H16834  10.202   5.590   8.831 -0.9183  1.0710  1.6928
  128MOL0     H16835  10.308   5.660   9.015 -0.6377 -0.5342  0.0807
  128MOL0     H16836  10.304   5.508   9.105 -0.0980  0.8912  1.5048
  128MOL0     H16837  10.072   5.701   9.004  2.3598  0.9027 -0.2259
  128MOL0     H16838  10.105   5.629   9.166  1.4191 -0.9819 -0.3519
  128MOL0     H16839   9.886   5.568   9.038 -1.7549 -1.4560  1.2329
  128MOL0     H16840   9.986   5.492   8.915 -0.0901 -1.0310  0.3721
  128MOL0     H16841  10.013   5.383   9.200 -0.1635 -1.9117  0.7908
  128MOL0     H16842  10.053   5.316   9.037 -0.8772 -1.1542  1.0643
  128MOL0     H16843   9.790   5.331   8.996 -2.9202 -2.9784  1.7365
  128MOL0     H16844   9.778   5.351   9.157 -1.2907  0.8499 -1.9445
  128MOL0     H16845   9.919   5.112   9.023  3.2431  0.5655  1.6552
  128MOL0     H16846   9.883   5.123   9.197 -4.1237 -1.1180  1.3978
  128MOL0     H16847   9.633   5.159   9.122 -0.8304 -0.8851  1.2480
  128MOL0     H16848   9.701   4.995   9.111 -2.5302  0.8584  0.1672
  128MOL0     H16849   9.437   5.128   8.951  0.5129  0.2294 -0.0293
  128MOL0     H16850   9.427   5.040   8.566  2.2980 -1.0667 -0.5936
  128MOL0     H16851   9.326   5.080   8.706  1.4964  1.0963  1.0390
  128MOL0     H16852   9.331   4.867   8.768 -0.4805  0.4621 -1.2290
  128MOL0     H16853   9.492   4.834   8.705  0.1002  0.3406  2.8150
  128MOL0     H16854   9.277   4.746   8.583 -0.9541  0.3331 -2.0562
  128MOL0     H16855   9.244   4.906   8.519  0.0054  0.7426  0.5926
  128MOL0     H16856   9.363   4.718   8.372 -1.2455  0.2984  1.1992
  128MOL0     H16857   9.509   4.744   8.457 -0.9312 -0.4020 -0.6211
  128MOL0     H16858   9.293   4.791   8.211 -4.3158  1.9656  4.0663
  128MOL0     H16859   9.178   4.885   8.009 -1.9605  1.1918  0.9454
  128MOL0     H16860   9.323   5.386   7.731  0.0806 -0.6725  0.9879
  128MOL0     H16861   9.230   5.472   7.528 -0.6719  0.0514  0.3394
  128MOL0     H16862   8.893   5.673   7.535  0.1257 -1.0517  2.9994
  128MOL0     H16863   8.794   5.538   7.488  1.1415  2.2697  0.5630
  128MOL0     H16864   8.796   5.764   7.351  2.1256  0.4036  2.4604
  128MOL0     H16865   8.788   5.603   7.277 -0.2780 -0.4570  0.6808
  128MOL0     H16866   9.036   5.667   7.217 -0.4137 -0.5994  0.8570
  128MOL0     H16867   9.010   5.818   7.300  0.1051 -0.2075  0.3443
  128MOL0     H16868   8.867   5.707   7.047  1.5312  0.0226 -1.6073
  128MOL0     H16869   8.797   5.840   7.131  1.1856  1.1080  0.2079
  128MOL0     H16870   9.039   5.950   7.097  1.1344 -0.5074  0.8289
  128MOL0     H16871   8.922   5.912   6.958 -2.8220 -1.8268  1.2330
  128MOL0     H16872   9.059   5.696   6.927  1.4804 -1.0467 -0.0541
  128MOL0     H16873   9.176   5.754   7.048  2.1121 -0.6263 -1.8462
  128MOL0     H16874   9.239   5.952   6.921  5.4382 -1.0062 -4.4797
  128MOL0     H16875   9.259   5.801   6.829 -2.0637 -1.6073 -1.9445
  128MOL0     H16876   9.040   6.014   6.793  0.9339  1.5988 -1.4092
  128MOL0     H16877   9.052   5.871   6.699 -0.4848  2.8921 -1.0439
  128MOL0     H16878   8.828   5.425   7.666  0.0745 -0.1677 -0.1194
  128MOL0     H16879   8.898   5.341   7.870  0.6520 -0.1027  0.3274
  128MOL0     H16880   9.314   5.270   8.150 -0.3555  0.6934  1.8702
  128MOL0     H16881   9.437   5.174   8.324  0.5456 -2.0555  1.4331
  128MOL0     H16882  10.497   5.687   8.741 -2.7556 -2.9349  2.4808
  128MOL0     H16883  10.537   5.739   8.496 -0.1009 -1.3149 -2.8442
  128MOL0     H16884  10.150   5.541   7.984  0.2346 -2.3888  0.5652
  128MOL0     H16885  10.209   5.554   7.748  0.0885  0.4707  1.2702
  128MOL0     H16886  10.643   5.645   7.654  0.4891  5.1611  0.2834
  128MOL0     H16887  10.504   5.749   7.602  0.8931  0.7851  0.9889
  128MOL0     H16888  10.669   5.546   7.439  1.2373  0.7191 -1.2305
  128MOL0     H16889  10.494   5.553   7.420  1.6807 -1.0184  0.9906
  128MOL0     H16890  10.498   5.797   7.390  2.5007  2.6293  1.0053
  128MOL0     H16891  10.570   5.707   7.262  0.7267  1.4868 -0.8388
  128MOL0     H16892  10.714   5.850   7.507  2.7449 -1.1928 -0.2923
  128MOL0     H16893  10.798   5.776   7.359 -1.4923 -1.8401 -1.6119
  128MOL0     H16894  10.677   6.142   7.198 -0.5468  0.1850 -0.7058
  128MOL0     H16895  10.620   5.639   7.855 -1.1060  0.2623  0.1933
  128MOL0     H16896  10.564   5.652   8.077 -2.3744  1.0391  0.8152
  129MOL0     O16897   0.956   3.829  10.113 -0.1182 -0.6919  0.4504
  129MOL0     C16898   0.991   3.789  10.221 -0.1300  1.0622 -0.4216
  129MOL0     O16899   0.917   3.718  10.312  0.5428  0.1270 -0.2724
  129MOL0     C16900   0.790   3.691  10.274  0.3814 -0.9167 -0.0217
  129MOL0     C16901   0.684   3.749  10.346 -0.7796 -0.5187 -0.6734
  129MOL0     C16902   0.554   3.707  10.324  0.6004  0.4382  0.3888
  129MOL0     C16903   0.527   3.616  10.216 -0.0729 -0.4694  0.0872
  129MOL0     O16904   0.397   3.577  10.187 -0.3544 -1.0246 -0.5989
  129MOL0     C16905   0.291   3.627  10.270  0.3299 -0.2265 -0.2591
  129MOL0     C16906   0.149   3.612  10.207  0.3146 -0.9760 -0.8964
  129MOL0     C16907   0.113   3.482  10.133 -0.6512  0.4731 -0.7156
  129MOL0     C16908   0.116   3.364  10.230  0.7261  0.2846 -0.6061
  129MOL0     C16909  -0.009   3.273  10.242  0.1149 -0.1664  0.5338
  129MOL0     C16910  -0.021   3.218  10.385 -0.3117 -0.1453 -0.2106
  129MOL0     C16911  -0.133   3.116  10.404 -0.1960  0.6215  0.0055
  129MOL0     C16912  -0.162   3.088  10.548  0.5089  0.2472 -0.7671
  129MOL0     N16913  -0.292   3.023  10.560  0.2353  1.0427  0.5454
  129MOL0     C16914  -0.409   3.092  10.543 -0.7183 -0.1691  0.0097
  129MOL0     C16915  -0.504   3.010  10.507 -0.3503  1.3009  0.0127
  129MOL0     C16916  -0.640   3.052  10.455 -0.5013  0.0318 -0.0198
  129MOL0     C16917  -0.715   3.111  10.571 -0.1582 -0.4161 -0.0733
  129MOL0     C16918  -0.823   3.217  10.523  0.7607  0.4690  0.7228
  129MOL0     C16919  -0.949   3.167  10.465  0.8380  0.1310  0.6318
  129MOL0     O16920  -0.930   3.108  10.336 -0.4195 -0.6431  0.3278
  129MOL0     C16921  -0.910   3.190  10.223 -0.9547  0.0645 -0.8999
  129MOL0     C16922  -0.956   3.324  10.221  0.1932 -0.3447  0.3415
  129MOL0     C16923  -0.908   3.413  10.114 -1.1901  0.0277  0.3727
  129MOL0     C16924  -0.830   3.361  10.014 -0.7961  0.3721  0.6242
  129MOL0     C16925  -0.766   3.456   9.914 -0.1752 -0.8374 -0.1786
  129MOL0     O16926  -0.654   3.410   9.855 -0.1237  0.1252  0.1024
  129MOL0     C16927  -0.588   3.482   9.762  0.3719 -0.3448  0.3646
  129MOL0     C16928  -0.643   3.585   9.686 -1.0576  0.4112 -0.2497
  129MOL0     C16929  -0.564   3.642   9.578 -0.5042 -0.0274 -0.1529
  129MOL0     C16930  -0.437   3.591   9.545  0.3541 -0.2481  0.3528
  129MOL0     O16931  -0.378   3.667   9.447 -0.5301  0.5677  0.1180
  129MOL0     C16932  -0.248   3.625   9.394 -0.0558  0.0413 -0.2386
  129MOL0     C16933  -0.176   3.748   9.338  0.7988  0.5365 -0.1240
  129MOL0     C16934  -0.044   3.719   9.261  0.6657  1.2879  0.1500
  129MOL0     C16935   0.066   3.636   9.333  0.2930 -0.1058 -0.9513
  129MOL0     C16936   0.188   3.598   9.240  0.9710  0.4657  0.9411
  129MOL0     C16937   0.314   3.535   9.308  0.5628  0.8070  0.1817
  129MOL0     C16938   0.442   3.543   9.221 -0.3012  0.0276  0.3222
  129MOL0     C16939   0.498   3.681   9.217  0.8699 -0.2481  0.3176
  129MOL0    Cl16940   0.659   3.666   9.124 -0.3432  0.2570 -0.0393
  129MOL0     C16941  -0.382   3.489   9.613  1.1992 -0.2652  0.7375
  129MOL0     C16942  -0.460   3.431   9.719  0.0888 -1.7303  1.0171
  129MOL0     O16943  -0.808   3.572   9.925 -0.3177  0.0410 -0.6352
  129MOL0     C16944  -0.788   3.224  10.008  0.3833 -0.3459  0.1121
  129MOL0     C16945  -0.835   3.144  10.117 -0.4770  0.0156  1.2512
  129MOL0     N16946  -0.447   2.889  10.498  0.0964  1.1793  0.5666
  129MOL0     N16947  -0.319   2.895  10.525  0.1077 -0.4061  0.0363
  129MOL0     C16948   0.629   3.568  10.135  0.1472 -0.1121  0.3683
  129MOL0     C16949   0.760   3.602  10.168  0.6488 -1.6245  0.0910
  129MOL0     C16950   1.131   3.811  10.257  0.3371 -0.7650  0.8816
  129MOL0     C16951   1.235   3.795  10.161 -0.1096  0.6805 -0.2189
  129MOL0     C16952   1.365   3.833  10.182 -0.4716  0.3757  0.1473
  129MOL0     C16953   1.397   3.879  10.308  0.7838 -0.6862 -0.0694
  129MOL0     O16954   1.532   3.906  10.315  0.3122  0.3588 -0.2193
  129MOL0     C16955   1.586   3.929  10.444  1.2193 -0.1937  0.4948
  129MOL0     C16956   1.741   3.895  10.443  0.4289 -0.4332  0.0923
  129MOL0     C16957   1.809   3.934  10.584  0.4634  0.2358  0.2033
  129MOL0     C16958   1.957   3.943  10.589 -0.0979 -0.5084 -0.0921
  129MOL0     C16959   2.021   3.869  10.702  0.1403  0.7440 -0.0268
  129MOL0     C16960   2.049   3.809  10.798 -0.7470  0.5019  1.2240
  129MOL0     C16961   1.296   3.878  10.407 -0.3200 -0.2103  0.5299
  129MOL0     C16962   1.165   3.844  10.393  0.1358  0.1617  1.2928
  129MOL0     H16963   0.713   3.810  10.431  2.3664 -0.9777 -1.2996
  129MOL0     H16964   0.483   3.745  10.397 -2.3515 -0.9464 -1.5316
  129MOL0     H16965   0.297   3.736  10.270 -1.5722 -0.0620 -2.5127
  129MOL0     H16966   0.278   3.576  10.366 -1.5901  0.5001 -0.0873
  129MOL0     H16967   0.133   3.698  10.141  0.5756  1.3199  1.8740
  129MOL0     H16968   0.082   3.630  10.291  2.0652  2.4206 -0.0527
  129MOL0     H16969   0.188   3.455  10.058  0.5805 -2.2599  1.2995
  129MOL0     H16970   0.011   3.491  10.095 -0.7870  3.1238  0.0739
  129MOL0     H16971   0.191   3.289  10.203 -0.2034 -1.4887  1.3711
  129MOL0     H16972   0.159   3.392  10.327 -0.5273  3.0929 -0.7797
  129MOL0     H16973  -0.016   3.190  10.171 -1.8181 -0.6166  1.1951
  129MOL0     H16974  -0.092   3.341  10.223  3.4356  4.5116  1.1303
  129MOL0     H16975  -0.046   3.306  10.444 -0.5961  0.6251 -1.4314
  129MOL0     H16976   0.074   3.180  10.423  1.3806  2.6317 -1.4046
  129MOL0     H16977  -0.228   3.156  10.366 -1.7033  0.1327  2.9811
  129MOL0     H16978  -0.120   3.026  10.344 -0.5028  0.0491  0.7801
  129MOL0     H16979  -0.144   3.176  10.611  1.7930 -1.4916  1.4716
  129MOL0     H16980  -0.089   3.017  10.587 -1.3032 -0.3074  1.8737
  129MOL0     H16981  -0.414   3.200  10.551  2.9560  0.0815  0.8550
  129MOL0     H16982  -0.691   2.966  10.411  0.5746 -0.4842 -0.2938
  129MOL0     H16983  -0.635   3.129  10.377 -3.3988  0.1058 -0.2473
  129MOL0     H16984  -0.640   3.168  10.626  1.3843  1.5298 -3.7878
  129MOL0     H16985  -0.771   3.042  10.634 -0.9810 -1.0199 -1.4089
  129MOL0     H16986  -0.857   3.269  10.614 -1.8555 -0.4383  0.3291
  129MOL0     H16987  -0.778   3.290  10.455  1.4392 -2.5405 -2.2837
  129MOL0     H16988  -1.035   3.235  10.470  0.6889  0.3058 -2.2595
  129MOL0     H16989  -0.984   3.089  10.533 -4.4791  0.6339 -1.0328
  129MOL0     H16990  -1.020   3.358  10.302 -1.6086 -3.5609  0.4238
  129MOL0     H16991  -0.940   3.516  10.118 -2.7131 -0.3798 -0.4295
  129MOL0     H16992  -0.741   3.626   9.707 -0.5651  1.7558 -0.5142
  129MOL0     H16993  -0.597   3.728   9.519 -1.3204 -0.8761 -0.9671
  129MOL0     H16994  -0.264   3.546   9.319  0.9918  0.0775 -0.5255
  129MOL0     H16995  -0.181   3.585   9.471 -0.0342  1.3569  0.4558
  129MOL0     H16996  -0.161   3.834   9.404 -0.7202  0.0273  0.9309
  129MOL0     H16997  -0.249   3.770   9.259 -1.5208 -3.8523  0.5232
  129MOL0     H16998   0.001   3.816   9.237  0.8588  1.1310 -0.1343
  129MOL0     H16999  -0.059   3.652   9.176 -0.2355  0.5552  0.8669
  129MOL0     H17000   0.096   3.700   9.417 -1.5640 -0.9231  0.4278
  129MOL0     H17001   0.030   3.540   9.369  3.4563 -1.0520  0.0462
  129MOL0     H17002   0.220   3.687   9.186 -0.6515 -0.0990 -1.0931
  129MOL0     H17003   0.159   3.525   9.163  0.1790  0.7860  0.9239
  129MOL0     H17004   0.277   3.434   9.330  0.7022  0.6050 -0.4696
  129MOL0     H17005   0.333   3.578   9.406 -0.1576 -0.0457  0.7056
  129MOL0     H17006   0.513   3.469   9.260 -2.3077 -0.4270  3.4775
  129MOL0     H17007   0.413   3.503   9.124  0.5102  1.8071 -0.7135
  129MOL0     H17008   0.528   3.735   9.307  0.9691  2.2390 -1.1335
  129MOL0     H17009   0.425   3.732   9.155 -0.4120 -0.1264  1.8767
  129MOL0     H17010  -0.284   3.445   9.597  2.5038  2.7713 -0.3792
  129MOL0     H17011  -0.436   3.335   9.763 -0.0131 -1.4128  1.7887
  129MOL0     H17012  -0.726   3.185   9.928  0.1934  0.0395 -0.2264
  129MOL0     H17013  -0.790   3.045  10.120 -0.1613  0.0538 -0.8436
  129MOL0     H17014   0.609   3.496  10.056 -2.1583  1.2035 -0.3238
  129MOL0     H17015   0.850   3.578  10.112  2.0427 -0.1161  1.5444
  129MOL0     H17016   1.218   3.756  10.061  2.2993 -2.2263  0.3298
  129MOL0     H17017   1.434   3.839  10.098 -1.9410 -0.4642 -1.1609
  129MOL0     H17018   1.537   3.867  10.519 -3.0290  2.0871 -0.0775
  129MOL0     H17019   1.572   4.036  10.461 -2.3403 -0.6059  0.9419
  129MOL0     H17020   1.753   3.786  10.439 -0.4952 -0.5451  0.3183
  129MOL0     H17021   1.793   3.935  10.355 -0.8025  0.2650 -0.3481
  129MOL0     H17022   1.776   3.864  10.661  3.7361  0.2260  1.7629
  129MOL0     H17023   1.773   4.032  10.618  0.2544  0.1069  0.3601
  129MOL0     H17024   1.983   3.898  10.493 -0.5475 -0.8621 -0.0551
  129MOL0     H17025   1.988   4.047  10.596 -0.3619 -0.3783 -0.7875
  129MOL0     H17026   2.065   3.732  10.871 -0.3039 -1.8576 -1.1837
  129MOL0     H17027   1.328   3.897  10.509 -1.8900  1.7430  0.7291
  129MOL0     H17028   1.098   3.845  10.479 -0.7978  2.6506  0.6200
  130MOL0     O17029   4.067   8.375   8.823  0.4579  0.2139 -0.5219
  130MOL0     C17030   4.137   8.280   8.788  0.7494  0.1291  0.0873
  130MOL0     O17031   4.134   8.157   8.841 -0.0061 -0.0756 -0.8220
  130MOL0     C17032   4.070   8.135   8.963  0.2714 -0.3461  0.6497
  130MOL0     C17033   4.098   8.205   9.087 -0.5333 -0.9300 -0.2839
  130MOL0     C17034   4.053   8.162   9.215  0.0993  0.1622  0.4084
  130MOL0     C17035   3.973   8.050   9.223 -0.2107 -0.2330 -1.2493
  130MOL0     O17036   3.917   8.022   9.350  0.0972  0.3745 -0.0594
  130MOL0     C17037   3.832   7.919   9.376 -0.2295  0.0627  0.0425
  130MOL0     C17038   3.907   7.782   9.364  0.2286  0.1808 -0.0065
  130MOL0     C17039   3.817   7.671   9.383 -1.1821  0.0665  0.3604
  130MOL0     C17040   3.892   7.530   9.354  0.3709 -0.2843 -0.4383
  130MOL0     C17041   3.803   7.432   9.278  0.2450  0.3007  0.4483
  130MOL0     C17042   3.863   7.292   9.215 -0.9032 -0.6343  0.2026
  130MOL0     C17043   3.773   7.240   9.112 -0.0656 -0.6548  0.6700
  130MOL0     C17044   3.831   7.121   9.028  1.0816  0.0079  0.5028
  130MOL0     N17045   3.861   7.008   9.109 -0.2007  0.7844  0.0033
  130MOL0     C17046   3.804   6.974   9.236  0.3730  0.0061  0.3397
  130MOL0     C17047   3.853   6.848   9.257 -0.2124  0.3001  0.0937
  130MOL0     C17048   3.852   6.755   9.372  0.1228  0.6686 -0.8727
  130MOL0     C17049   3.882   6.826   9.506 -0.5945 -0.5136  0.2558
  130MOL0     C17050   3.945   6.722   9.605  0.8296  0.9843  0.5276
  130MOL0     C17051   4.090   6.702   9.573 -0.2131  0.7447  0.2701
  130MOL0     O17052   4.136   6.605   9.672  0.3096  0.1594 -0.1784
  130MOL0     C17053   4.263   6.552   9.680  0.9432 -0.2875  0.1417
  130MOL0     C17054   4.286   6.431   9.747  0.1545 -0.2693 -0.1440
  130MOL0     C17055   4.413   6.376   9.748  0.1467 -0.1805  0.3455
  130MOL0     C17056   4.518   6.433   9.675 -0.1868 -0.3597 -0.5159
  130MOL0     C17057   4.649   6.371   9.675  0.0832 -0.6487 -0.5380
  130MOL0     O17058   4.637   6.236   9.700 -0.5180 -0.0665 -0.0709
  130MOL0     C17059   4.748   6.164   9.695 -0.5125  0.5688  0.1051
  130MOL0     C17060   4.799   6.101   9.808  0.5421  0.4661 -0.3493
  130MOL0     C17061   4.898   6.003   9.786 -0.2554  0.2420  0.3980
  130MOL0     C17062   4.956   5.975   9.653  1.2675  0.4450 -0.1235
  130MOL0     O17063   5.066   5.892   9.633  0.2786  0.2115  0.6796
  130MOL0     C17064   5.104   5.812   9.738  0.7352  0.1859  0.2803
  130MOL0     C17065   5.225   5.738   9.701  0.9887 -0.2146  0.6174
  130MOL0     C17066   5.357   5.818   9.704 -1.2377  0.1665  0.0639
  130MOL0     C17067   5.477   5.739   9.649  0.2463 -0.7973 -1.2700
  130MOL0     C17068   5.555   5.657   9.739  0.4561 -0.1950 -0.9812
  130MOL0     C17069   5.668   5.567   9.670  0.9247 -0.0854 -0.1211
  130MOL0     C17070   5.736   5.481   9.775  0.2019 -0.2980 -0.0416
  130MOL0     C17071   5.831   5.377   9.716 -0.0417 -0.1543  0.5101
  130MOL0    Cl17072   5.843   5.254   9.849 -0.2715  0.3531 -0.3411
  130MOL0     C17073   4.916   6.045   9.547 -0.0541  0.1549 -0.2074
  130MOL0     C17074   4.806   6.140   9.568  0.3271 -0.0477  0.6159
  130MOL0     O17075   4.752   6.433   9.655 -0.8166  0.1869  0.5725
  130MOL0     C17076   4.500   6.565   9.623  0.1209  0.1766 -0.4296
  130MOL0     C17077   4.367   6.621   9.620 -0.5888 -0.3689 -0.9520
  130MOL0     N17078   3.933   6.812   9.150 -1.0414  0.0318  0.9004
  130MOL0     N17079   3.940   6.909   9.068  0.8997  0.3401  0.3142
  130MOL0     C17080   3.932   7.994   9.104  1.2715 -0.2068  0.7391
  130MOL0     C17081   3.983   8.028   8.982 -1.1268 -0.0129  0.4902
  130MOL0     C17082   4.222   8.295   8.670 -0.2891 -0.5069  0.0087
  130MOL0     C17083   4.209   8.404   8.578 -0.9699 -0.2242 -0.0046
  130MOL0     C17084   4.284   8.399   8.458 -0.9260  0.2304 -0.3074
  130MOL0     C17085   4.364   8.291   8.419  0.3405  0.0580  0.1776
  130MOL0     O17086   4.429   8.290   8.303 -0.2471  0.9896 -0.2944
  130MOL0     C17087   4.519   8.187   8.256  0.1753 -0.7656  0.2087
  130MOL0     C17088   4.445   8.076   8.188 -0.4130 -0.1197 -0.0560
  130MOL0     C17089   4.349   8.125   8.070 -0.1457 -0.3071  0.4987
  130MOL0     C17090   4.367   8.054   7.941 -0.6710  0.2053  0.3201
  130MOL0     C17091   4.310   7.915   7.955  0.3356 -0.0487  0.1731
  130MOL0     C17092   4.263   7.801   7.968  0.0997  0.6312 -1.1678
  130MOL0     C17093   4.375   8.194   8.511  0.1892  0.0711  0.1373
  130MOL0     C17094   4.310   8.192   8.640 -0.2204  0.5494  0.2722
  130MOL0     H17095   4.179   8.277   9.095 -2.5143  1.1621  2.8521
  130MOL0     H17096   4.096   8.209   9.303  1.1879 -1.8293  1.0015
  130MOL0     H17097   3.746   7.915   9.309  0.4347 -2.8729 -0.8035
  130MOL0     H17098   3.780   7.935   9.471 -1.2904  1.8548 -0.8064
  130MOL0     H17099   3.995   7.790   9.429  2.9224  1.6824 -3.5470
  130MOL0     H17100   3.945   7.769   9.263  1.4237  0.6724  0.3661
  130MOL0     H17101   3.734   7.695   9.316 -0.6469  1.5141  0.1701
  130MOL0     H17102   3.784   7.662   9.487  2.4036 -0.8680  1.5592
  130MOL0     H17103   3.982   7.545   9.294 -1.3030 -1.7886 -3.5765
  130MOL0     H17104   3.929   7.492   9.450  0.9356  0.0957 -0.4999
  130MOL0     H17105   3.768   7.495   9.196 -1.0021 -3.1763 -1.9047
  130MOL0     H17106   3.719   7.413   9.346 -1.8069  1.5382 -1.5957
  130MOL0     H17107   3.888   7.218   9.291  3.4922 -1.7628 -2.0219
  130MOL0     H17108   3.962   7.319   9.177 -1.4278 -0.7990 -1.3560
  130MOL0     H17109   3.677   7.219   9.160 -1.0852  0.3523 -0.8332
  130MOL0     H17110   3.757   7.320   9.039 -0.5801 -2.1120 -0.8687
  130MOL0     H17111   3.920   7.151   8.973 -1.1025  1.3639 -2.5706
  130MOL0     H17112   3.755   7.083   8.959  1.4587  1.5986 -0.8410
  130MOL0     H17113   3.730   7.028   9.295 -0.4695  0.3610 -0.9987
  130MOL0     H17114   3.924   6.675   9.355 -0.3756  0.4907 -2.2538
  130MOL0     H17115   3.757   6.701   9.375  1.0054 -0.9417 -0.4245
  130MOL0     H17116   3.801   6.881   9.553  1.4360  1.7529  1.3294
  130MOL0     H17117   3.947   6.911   9.479 -3.1579  0.3231 -4.2917
  130MOL0     H17118   3.927   6.759   9.706  1.3518  0.6340  0.7509
  130MOL0     H17119   3.883   6.635   9.583  0.6535  1.0435  0.7813
  130MOL0     H17120   4.138   6.800   9.563  0.2288  1.0312  4.0497
  130MOL0     H17121   4.093   6.654   9.475 -2.5225 -0.6623  0.8184
  130MOL0     H17122   4.203   6.378   9.794 -2.3857  2.5316 -1.1652
  130MOL0     H17123   4.413   6.276   9.791 -2.7923 -1.5239 -2.3866
  130MOL0     H17124   4.766   6.131   9.907  3.5359  2.3819  0.1929
  130MOL0     H17125   4.926   5.963   9.883 -0.4071  0.7391  0.6531
  130MOL0     H17126   5.028   5.738   9.765 -0.2423  1.0801  0.0530
  130MOL0     H17127   5.123   5.884   9.818 -2.2942  2.9858 -1.2481
  130MOL0     H17128   5.202   5.689   9.606 -2.2393 -1.0102  1.6816
  130MOL0     H17129   5.242   5.661   9.777  2.3507  1.3907  2.0420
  130MOL0     H17130   5.390   5.848   9.804  6.4239 -0.9481 -1.4627
  130MOL0     H17131   5.348   5.906   9.641  2.6403  0.1703 -0.7724
  130MOL0     H17132   5.442   5.673   9.569  2.3058 -0.9230 -2.1236
  130MOL0     H17133   5.537   5.822   9.612 -0.3358 -1.7784 -4.7486
  130MOL0     H17134   5.495   5.597   9.807  1.3589 -1.5099 -1.2974
  130MOL0     H17135   5.599   5.719   9.818 -1.0799  3.2878 -2.6381
  130MOL0     H17136   5.746   5.639   9.644 -0.8163  1.6857 -0.6603
  130MOL0     H17137   5.644   5.506   9.583  1.5584 -1.1624  0.4330
  130MOL0     H17138   5.803   5.536   9.842 -1.8011  1.4549  0.6412
  130MOL0     H17139   5.660   5.449   9.847  0.7686  0.6175  0.9962
  130MOL0     H17140   5.925   5.410   9.671  0.4763 -0.0784  1.6187
  130MOL0     H17141   5.792   5.318   9.632  3.3563 -0.3646 -1.0976
  130MOL0     H17142   4.965   6.041   9.450  1.0824  2.5828  0.1902
  130MOL0     H17143   4.786   6.204   9.483 -0.6980  0.4912  1.2370
  130MOL0     H17144   4.582   6.614   9.571 -1.0732 -0.7957 -3.4877
  130MOL0     H17145   4.363   6.722   9.581  3.1156 -1.0930 -3.8209
  130MOL0     H17146   3.846   7.927   9.107 -1.2171  2.7328 -0.0367
  130MOL0     H17147   3.942   7.978   8.895 -1.1467 -0.7965  0.9389
  130MOL0     H17148   4.148   8.493   8.585 -0.3203  0.3659 -1.5191
  130MOL0     H17149   4.277   8.497   8.411  1.8413  2.2503  3.0445
  130MOL0     H17150   4.585   8.156   8.338 -1.4346 -0.0489  1.8671
  130MOL0     H17151   4.571   8.241   8.177 -0.8303 -0.5203 -0.2998
  130MOL0     H17152   4.527   8.019   8.144  1.1495  0.3749  2.0737
  130MOL0     H17153   4.386   8.019   8.261 -0.1941  0.6848  0.7693
  130MOL0     H17154   4.377   8.226   8.038  0.1144 -0.5062  0.0912
  130MOL0     H17155   4.244   8.138   8.098 -0.5142  3.1861 -1.8607
  130MOL0     H17156   4.311   8.096   7.857  3.1275 -0.8346 -3.0266
  130MOL0     H17157   4.471   8.053   7.907 -0.7339  3.9378 -0.5014
  130MOL0     H17158   4.211   7.709   7.986  3.1144 -0.6926  2.1416
  130MOL0     H17159   4.420   8.099   8.482  0.8806  0.5694 -0.4569
  130MOL0     H17160   4.331   8.100   8.694  1.9550 -0.0794 -1.4985
  131MOL0     O17161   1.957   6.280   5.983  0.2126 -0.3873  0.3413
  131MOL0     C17162   1.865   6.245   6.055 -0.1684  0.1251  0.0729
  131MOL0     O17163   1.877   6.166   6.171 -0.3701 -0.4487 -0.5424
  131MOL0     C17164   1.998   6.119   6.202 -0.3420 -1.3303  0.9452
  131MOL0     C17165   2.045   6.011   6.139 -0.1282  0.3751  0.4592
  131MOL0     C17166   2.174   5.969   6.160  0.3426  0.1667 -0.8179
  131MOL0     C17167   2.250   6.028   6.260  0.2875 -0.4072  0.5336
  131MOL0     O17168   2.379   5.987   6.282  0.3942  0.1352  0.2955
  131MOL0     C17169   2.448   5.929   6.165  0.1576 -0.6600 -0.7054
  131MOL0     C17170   2.595   5.954   6.164 -0.2759  0.3284  0.9496
  131MOL0     C17171   2.669   5.853   6.071 -0.3456 -0.2696 -0.8401
  131MOL0     C17172   2.814   5.880   6.066 -0.2702 -0.3982 -1.0527
  131MOL0     C17173   2.892   5.783   5.981 -0.1213 -0.3830  0.2422
  131MOL0     C17174   2.884   5.639   6.036 -0.3618  0.2480  0.0282
  131MOL0     C17175   2.966   5.534   5.953  0.1064 -0.2567  0.1449
  131MOL0     C17176   2.925   5.393   5.990  0.6887 -0.4164  0.1450
  131MOL0     N17177   2.970   5.292   5.896 -0.1010  0.8049  0.1012
  131MOL0     C17178   2.885   5.223   5.812 -0.6271 -1.5415 -0.6743
  131MOL0     C17179   2.961   5.147   5.733  0.4371 -0.3124  0.4239
  131MOL0     C17180   2.897   5.067   5.622  0.5623  0.3269 -0.0571
  131MOL0     C17181   2.916   4.914   5.642 -0.5432 -0.0757 -0.2388
  131MOL0     C17182   2.784   4.859   5.694  1.2772  0.4550 -0.4222
  131MOL0     C17183   2.783   4.715   5.705  0.0225  0.0005  1.1824
  131MOL0     O17184   2.660   4.657   5.761 -0.0954 -0.1346  0.5440
  131MOL0     C17185   2.583   4.591   5.675  0.0442  0.3317  0.8129
  131MOL0     C17186   2.624   4.492   5.591  0.1022 -0.1499  0.2361
  131MOL0     C17187   2.542   4.434   5.501  0.8749  0.2429 -0.1533
  131MOL0     C17188   2.403   4.467   5.503 -0.6456 -0.0779  0.5855
  131MOL0     C17189   2.315   4.403   5.400 -0.1922 -0.1561  0.7677
  131MOL0     O17190   2.187   4.452   5.385  0.5272 -0.2650  0.1770
  131MOL0     C17191   2.101   4.395   5.292 -0.0596  0.0373 -1.0229
  131MOL0     C17192   2.099   4.255   5.271 -0.5183 -0.9860  0.3425
  131MOL0     C17193   2.014   4.207   5.166  0.6660 -0.9502 -0.5016
  131MOL0     C17194   1.923   4.288   5.099 -0.2129 -0.2634 -0.0518
  131MOL0     O17195   1.837   4.231   5.017  0.0707  0.3447 -0.5220
  131MOL0     C17196   1.771   4.121   5.072 -0.4319  0.3718  0.5215
  131MOL0     C17197   1.662   4.077   4.974  0.1553 -1.2420  0.8450
  131MOL0     C17198   1.574   3.961   5.022 -0.4195 -0.2687  0.6126
  131MOL0     C17199   1.500   3.896   4.908  0.3067  0.5397 -0.2881
  131MOL0     C17200   1.392   3.811   4.971  0.4313  0.2513  0.7167
  131MOL0     C17201   1.274   3.799   4.877  0.6320 -0.2574  0.8181
  131MOL0     C17202   1.170   3.697   4.932  0.6172  0.2317 -0.5372
  131MOL0     C17203   1.121   3.724   5.072  0.3023  0.2765 -0.4521
  131MOL0    Cl17204   1.028   3.574   5.102  0.0513 -0.4052  0.1061
  131MOL0     C17205   1.926   4.422   5.124  1.1208 -0.0272  0.8857
  131MOL0     C17206   2.015   4.472   5.222  0.7434 -0.2746 -0.1501
  131MOL0     O17207   2.362   4.313   5.337 -0.6003  0.0558  0.0893
  131MOL0     C17208   2.357   4.554   5.596  0.3038  0.2792  0.2634
  131MOL0     C17209   2.443   4.617   5.679 -0.6409 -0.8714  0.3357
  131MOL0     N17210   3.094   5.190   5.750  0.5700  0.2539 -0.3001
  131MOL0     N17211   3.096   5.265   5.852  0.0333  0.7261  0.1740
  131MOL0     C17212   2.189   6.123   6.335 -0.6691 -1.4088 -0.4733
  131MOL0     C17213   2.067   6.181   6.299 -0.3187 -0.2305 -0.2999
  131MOL0     C17214   1.734   6.288   6.002 -0.4797  0.0746  1.6639
  131MOL0     C17215   1.723   6.394   5.912 -0.4212  0.6932  0.0201
  131MOL0     C17216   1.606   6.448   5.872 -0.9338 -0.3067 -0.5052
  131MOL0     C17217   1.488   6.380   5.902  0.5166  0.3923 -0.0505
  131MOL0     O17218   1.362   6.411   5.851 -0.0634 -0.2318 -0.4089
  131MOL0     C17219   1.362   6.505   5.734  0.1249  0.4639 -0.1329
  131MOL0     C17220   1.244   6.480   5.647  0.1570  0.1950 -0.0687
  131MOL0     C17221   1.222   6.329   5.609  0.4770 -0.5107 -0.7083
  131MOL0     C17222   1.335   6.256   5.533  0.4462  0.1048  0.2652
  131MOL0     C17223   1.290   6.138   5.453 -0.3798  0.4973  0.3986
  131MOL0     C17224   1.245   6.031   5.412  0.3278 -0.1117  0.3104
  131MOL0     C17225   1.493   6.262   5.980  0.0190 -0.2027  0.7857
  131MOL0     C17226   1.606   6.235   6.045 -0.9205  0.1773 -0.5952
  131MOL0     H17227   1.985   5.955   6.068 -1.4902  0.1977  1.6949
  131MOL0     H17228   2.215   5.885   6.104 -2.5292 -2.7077  1.0620
  131MOL0     H17229   2.410   5.965   6.069  1.7655 -0.8843 -1.4623
  131MOL0     H17230   2.432   5.821   6.168  0.1748 -0.7976 -3.1573
  131MOL0     H17231   2.626   5.935   6.267  1.5207 -0.4773  0.3009
  131MOL0     H17232   2.630   6.055   6.143 -1.3082  0.4289 -0.3951
  131MOL0     H17233   2.629   5.867   5.970 -0.0716  1.0706 -0.7838
  131MOL0     H17234   2.642   5.758   6.117 -0.7555  1.4231  2.7319
  131MOL0     H17235   2.837   5.981   6.029  0.6962 -0.9808 -2.1378
  131MOL0     H17236   2.861   5.861   6.163 -0.1034 -0.9335 -1.2361
  131MOL0     H17237   2.999   5.806   5.979  1.2082 -5.0474  2.4102
  131MOL0     H17238   2.854   5.785   5.879 -0.3596  0.0283  0.3385
  131MOL0     H17239   2.781   5.608   6.020 -0.1979 -0.8868  1.0181
  131MOL0     H17240   2.927   5.626   6.136  3.4924  1.2087 -1.3076
  131MOL0     H17241   2.956   5.549   5.845 -0.6877 -1.5658  0.0216
  131MOL0     H17242   3.071   5.535   5.983  0.8956 -2.7738 -2.1505
  131MOL0     H17243   2.816   5.391   5.999  0.7439  0.2720  1.0118
  131MOL0     H17244   2.972   5.384   6.088  0.2089 -3.1460  0.2033
  131MOL0     H17245   2.786   5.257   5.785 -0.1436  0.0049 -0.5669
  131MOL0     H17246   2.929   5.104   5.524  2.3150 -1.4739 -0.2318
  131MOL0     H17247   2.789   5.084   5.622  0.9433  3.1937 -0.1356
  131MOL0     H17248   2.985   4.901   5.726  0.5321  2.2924 -0.6694
  131MOL0     H17249   2.944   4.863   5.549 -0.2971  1.9204 -1.3203
  131MOL0     H17250   2.761   4.906   5.790  1.8030 -2.0593  1.0274
  131MOL0     H17251   2.704   4.868   5.621 -2.5139  2.3742  3.5164
  131MOL0     H17252   2.866   4.664   5.755 -1.5785 -4.8361 -0.4980
  131MOL0     H17253   2.799   4.677   5.603  0.2507 -1.7951  1.8584
  131MOL0     H17254   2.727   4.461   5.576  0.2001  0.3729 -0.2253
  131MOL0     H17255   2.577   4.361   5.429 -1.1349  0.5079 -1.4484
  131MOL0     H17256   2.172   4.190   5.319 -3.0008 -1.4217  3.9559
  131MOL0     H17257   2.026   4.100   5.152  0.6811 -1.1809  1.0756
  131MOL0     H17258   1.724   4.143   5.169 -1.8262  1.8400 -0.4516
  131MOL0     H17259   1.838   4.034   5.075 -1.2931 -0.4161 -1.4113
  131MOL0     H17260   1.712   4.051   4.880 -1.9421 -0.1503 -0.6727
  131MOL0     H17261   1.599   4.166   4.967  2.2017  0.2153 -0.3430
  131MOL0     H17262   1.497   4.004   5.086  0.0756  1.2746  0.2097
  131MOL0     H17263   1.635   3.882   5.066  0.1118  0.7098  1.6764
  131MOL0     H17264   1.452   3.970   4.843  0.4745  0.5501 -0.4018
  131MOL0     H17265   1.571   3.839   4.846  0.9597  1.9960 -0.9340
  131MOL0     H17266   1.366   3.841   5.073  0.1944  0.7082  0.5252
  131MOL0     H17267   1.424   3.707   4.982 -1.8821 -0.6322 -0.1554
  131MOL0     H17268   1.305   3.780   4.774 -0.8481  1.0373  0.0869
  131MOL0     H17269   1.230   3.899   4.872  0.7470 -0.0379  3.0010
  131MOL0     H17270   1.082   3.686   4.868 -1.3301  2.4626  1.5756
  131MOL0     H17271   1.214   3.597   4.930 -0.8303 -0.4824  1.1587
  131MOL0     H17272   1.048   3.805   5.080 -0.7612 -0.5807 -1.2018
  131MOL0     H17273   1.208   3.732   5.138  2.4088  0.3572 -3.0781
  131MOL0     H17274   1.852   4.489   5.080  2.4638  4.0394  4.1418
  131MOL0     H17275   2.026   4.580   5.231  1.1655 -0.3340  0.0614
  131MOL0     H17276   2.254   4.590   5.592  0.1661 -0.1525 -0.1525
  131MOL0     H17277   2.403   4.695   5.743 -0.0658  1.1814 -1.6643
  131MOL0     H17278   2.248   6.145   6.424  2.0144 -0.8934 -2.2518
  131MOL0     H17279   2.015   6.257   6.356  2.6145 -1.1411  4.1481
  131MOL0     H17280   1.814   6.443   5.879  0.0453  0.4742  0.9438
  131MOL0     H17281   1.610   6.536   5.809 -2.2556 -0.1451 -0.4048
  131MOL0     H17282   1.445   6.479   5.667 -2.0138  0.2257 -2.8675
  131MOL0     H17283   1.367   6.611   5.761 -0.8550  0.2929  0.7783
  131MOL0     H17284   1.154   6.514   5.700  0.1363 -1.2653  0.8830
  131MOL0     H17285   1.255   6.543   5.558 -2.2131  2.9541  1.4063
  131MOL0     H17286   1.129   6.322   5.553 -0.5471  0.6225  0.7779
  131MOL0     H17287   1.213   6.265   5.698 -2.8697 -0.0269 -0.5858
  131MOL0     H17288   1.374   6.330   5.463  1.8540 -0.1653  0.7300
  131MOL0     H17289   1.421   6.240   5.599  0.4015 -2.3080 -0.1768
  131MOL0     H17290   1.202   5.941   5.375  0.2875 -0.1349  0.4114
  131MOL0     H17291   1.401   6.206   5.997  0.2546 -0.8969 -0.1337
  131MOL0     H17292   1.599   6.164   6.127 -1.6448  1.2868  0.3261
  132MOL0     O17293   2.246   6.213  10.201 -0.5005  0.0919 -0.4205
  132MOL0     C17294   2.163   6.121  10.201 -0.1461  0.6425  0.0671
  132MOL0     O17295   2.083   6.093  10.304  0.1179  0.6123  0.8209
  132MOL0     C17296   2.125   6.112  10.428 -0.1909 -0.2588 -1.2577
  132MOL0     C17297   2.033   6.180  10.507 -0.1237  0.0015  0.0915
  132MOL0     C17298   2.074   6.211  10.640  0.8838  0.8164  0.1831
  132MOL0     C17299   2.191   6.148  10.694  0.4492  0.2255 -0.9245
  132MOL0     O17300   2.208   6.170  10.834 -0.5947  0.7272  0.2010
  132MOL0     C17301   2.314   6.107  10.906  0.3635  0.4890  0.6064
  132MOL0     C17302   2.353   6.158  11.050 -0.2591  0.0120 -0.1990
  132MOL0     C17303   2.236   6.159  11.150 -0.4330 -0.1322 -0.8616
  132MOL0     C17304   2.283   6.233  11.282 -0.1974 -0.1532 -0.8913
  132MOL0     C17305   2.159   6.257  11.374 -0.6273  0.6062  0.4997
  132MOL0     C17306   2.111   6.397  11.352 -0.2408 -0.4377  0.3571
  132MOL0     C17307   1.974   6.415  11.414 -0.0109 -0.3153  0.0687
  132MOL0     C17308   1.870   6.384  11.301  0.1885  0.4456 -0.1105
  132MOL0     N17309   1.851   6.246  11.261  0.3181 -0.5896  0.6514
  132MOL0     C17310   1.851   6.203  11.130 -0.2677 -0.9133  0.0260
  132MOL0     C17311   1.806   6.072  11.142 -0.8054 -0.3999 -0.1683
  132MOL0     C17312   1.807   5.971  11.026  0.7640 -0.4703  0.2334
  132MOL0     C17313   1.736   6.027  10.912  0.3000 -0.3936  0.5872
  132MOL0     C17314   1.742   5.932  10.789  0.4494 -0.0764  0.4941
  132MOL0     C17315   1.661   5.986  10.671 -0.1589 -0.9075 -0.9294
  132MOL0     O17316   1.743   6.037  10.570  0.3658 -1.3988  0.2575
  132MOL0     C17317   1.679   6.072  10.454 -0.1857 -0.3701  0.5319
  132MOL0     C17318   1.602   6.182  10.440  0.5688 -0.3148  0.8372
  132MOL0     C17319   1.531   6.218  10.325 -0.7537  0.7725 -0.8427
  132MOL0     C17320   1.547   6.143  10.211 -0.0244 -0.4702 -0.1057
  132MOL0     C17321   1.473   6.175  10.084  0.3405  0.8784  0.5185
  132MOL0     O17322   1.406   6.296  10.072  0.0681  0.0169  0.6197
  132MOL0     C17323   1.333   6.335   9.967 -0.1028 -0.4950  1.3142
  132MOL0     C17324   1.361   6.303   9.837 -0.5206 -0.0907  0.3391
  132MOL0     C17325   1.309   6.369   9.725 -0.0735 -0.3744 -0.5279
  132MOL0     C17326   1.215   6.471   9.741  0.3788 -0.1935  0.1771
  132MOL0     O17327   1.188   6.552   9.634  0.3774  0.4580  0.2492
  132MOL0     C17328   1.049   6.597   9.644  0.0624  0.2969 -0.7415
  132MOL0     C17329   1.006   6.653   9.507 -0.3029  0.1299 -0.4123
  132MOL0     C17330   0.858   6.684   9.500 -0.8761  0.6426 -0.0813
  132MOL0     C17331   0.830   6.770   9.381 -0.4775 -0.5036  0.3153
  132MOL0     C17332   0.678   6.791   9.373  0.2936 -1.4066 -0.0224
  132MOL0     C17333   0.632   6.883   9.486  0.2989  0.3287  0.8991
  132MOL0     C17334   0.578   6.811   9.613  0.0172 -0.1703 -0.3140
  132MOL0     C17335   0.427   6.781   9.601  0.9299 -0.0155 -0.1694
  132MOL0    Cl17336   0.330   6.923   9.624  0.4645  0.3603  0.0188
  132MOL0     C17337   1.189   6.508   9.875  0.0862 -0.2303  1.3899
  132MOL0     C17338   1.236   6.434   9.979 -0.0825  0.2115  0.5975
  132MOL0     O17339   1.453   6.076  10.018  0.2615  0.0340 -0.1339
  132MOL0     C17340   1.630   6.029  10.214  0.1351 -0.1937 -0.7186
  132MOL0     C17341   1.697   5.999  10.332 -0.2628  0.1007 -0.3878
  132MOL0     N17342   1.801   6.039  11.278 -0.3173  0.8031 -0.7823
  132MOL0     N17343   1.819   6.145  11.349  0.5034  0.1710 -0.3160
  132MOL0     C17344   2.281   6.085  10.603  1.1534 -0.1197 -0.4499
  132MOL0     C17345   2.246   6.062  10.475  0.2233 -0.2251  0.1490
  132MOL0     C17346   2.149   6.059  10.065 -0.0353  0.2916  0.8154
  132MOL0     C17347   2.052   5.958  10.041  0.2863 -0.2167  0.4065
  132MOL0     C17348   2.031   5.900   9.917  0.5954 -0.0956 -0.0043
  132MOL0     C17349   2.124   5.925   9.819 -0.5747 -0.0569  0.3943
  132MOL0     O17350   2.125   5.867   9.693  0.0011  0.4917 -0.0245
  132MOL0     C17351   2.030   5.760   9.666 -0.4957 -0.1793  0.4141
  132MOL0     C17352   2.087   5.631   9.729 -0.8912  0.5423  0.8034
  132MOL0     C17353   1.996   5.507   9.719  0.0436 -0.6887 -0.2585
  132MOL0     C17354   2.073   5.382   9.757  0.0213  0.4838 -0.4981
  132MOL0     C17355   2.168   5.334   9.661 -0.2492 -0.1466  0.2151
  132MOL0     C17356   2.260   5.319   9.578  0.0616  0.1133 -0.2495
  132MOL0     C17357   2.230   6.027   9.834 -0.8383  0.0312 -0.0103
  132MOL0     C17358   2.241   6.096   9.961  0.4456 -0.4478  0.8258
  132MOL0     H17359   1.945   6.220  10.459  0.2286  1.2842  0.4730
  132MOL0     H17360   2.013   6.272  10.706  0.1424 -0.2508  0.5285
  132MOL0     H17361   2.407   6.091  10.851 -0.6968  1.0370 -1.4622
  132MOL0     H17362   2.275   6.008  10.931  0.6906  0.6396  1.7894
  132MOL0     H17363   2.384   6.263  11.044  0.1615  0.0411  1.8052
  132MOL0     H17364   2.436   6.100  11.089  3.3035  2.0214 -3.9247
  132MOL0     H17365   2.218   6.056  11.183  0.7179  0.4202  1.8107
  132MOL0     H17366   2.155   6.218  11.107  0.1468  1.4404  0.1050
  132MOL0     H17367   2.354   6.169  11.335 -2.1487 -2.2183 -0.6027
  132MOL0     H17368   2.333   6.328  11.266  2.8807 -1.6978 -1.1716
  132MOL0     H17369   2.186   6.250  11.480  5.3049 -0.5901 -0.7084
  132MOL0     H17370   2.091   6.172  11.358  0.9552 -0.6900  0.3970
  132MOL0     H17371   2.100   6.410  11.243  2.0164 -3.5802 -0.3883
  132MOL0     H17372   2.189   6.463  11.392 -0.2645  0.3366 -0.8159
  132MOL0     H17373   1.964   6.356  11.506  1.3228 -0.6845  0.0026
  132MOL0     H17374   1.973   6.524  11.428 -0.0793 -0.2660 -0.3305
  132MOL0     H17375   1.908   6.441  11.216  1.2415  0.4186  0.3283
  132MOL0     H17376   1.772   6.418  11.338  0.6208  0.7911  0.7422
  132MOL0     H17377   1.865   6.258  11.038  2.2619 -2.5968 -0.6901
  132MOL0     H17378   1.762   5.883  11.071  1.9547 -0.9673  0.4954
  132MOL0     H17379   1.909   5.945  10.996  0.6005 -1.1943  0.2945
  132MOL0     H17380   1.775   6.128  10.896  1.0146 -0.4595  1.7989
  132MOL0     H17381   1.632   6.040  10.946  0.1404  2.2093 -0.6534
  132MOL0     H17382   1.842   5.910  10.750 -0.3785 -3.8173  0.0500
  132MOL0     H17383   1.698   5.835  10.816 -0.2088 -1.7800 -5.3431
  132MOL0     H17384   1.587   6.062  10.698  1.5054  0.4748  0.0108
  132MOL0     H17385   1.607   5.901  10.630 -0.8276 -0.3524 -1.2131
  132MOL0     H17386   1.581   6.234  10.533  0.0280 -0.7099  0.9385
  132MOL0     H17387   1.463   6.300  10.307 -1.5783 -0.1749 -2.2496
  132MOL0     H17388   1.445   6.236   9.823 -0.3887  0.4889 -1.9986
  132MOL0     H17389   1.341   6.356   9.622  5.0978 -4.2459  1.1351
  132MOL0     H17390   1.027   6.669   9.724 -0.0895 -1.5159  0.8988
  132MOL0     H17391   0.979   6.514   9.655  0.9284 -0.2038  1.3910
  132MOL0     H17392   1.032   6.585   9.425 -1.5226  0.4404 -1.0939
  132MOL0     H17393   1.060   6.745   9.487  1.1837 -1.1756 -2.9783
  132MOL0     H17394   0.830   6.745   9.586 -1.1633 -1.0727  1.0791
  132MOL0     H17395   0.804   6.589   9.488 -0.5143  0.2643  1.2209
  132MOL0     H17396   0.869   6.871   9.392 -1.1993 -0.3967  2.1097
  132MOL0     H17397   0.862   6.723   9.287  0.6926 -1.9172  1.3869
  132MOL0     H17398   0.626   6.694   9.367  0.0271 -1.2609 -0.1135
  132MOL0     H17399   0.646   6.840   9.280  3.8214  0.7263 -0.2939
  132MOL0     H17400   0.544   6.930   9.441 -0.9080 -2.4556  0.0906
  132MOL0     H17401   0.705   6.953   9.527 -0.3797  0.4994  1.8645
  132MOL0     H17402   0.628   6.716   9.632  0.0209  0.3087  2.3848
  132MOL0     H17403   0.586   6.864   9.708 -2.6459 -3.6822  2.1523
  132MOL0     H17404   0.409   6.707   9.679 -1.8553  0.7801  0.0541
  132MOL0     H17405   0.406   6.750   9.498  2.1863  3.2752 -1.5490
  132MOL0     H17406   1.124   6.592   9.895  0.1730 -0.0808  1.0509
  132MOL0     H17407   1.228   6.482  10.076  3.5832  1.5928  0.3880
  132MOL0     H17408   1.654   5.973  10.124 -0.4645  2.4561 -2.6447
  132MOL0     H17409   1.772   5.920  10.335 -1.5140 -1.1289 -0.5473
  132MOL0     H17410   2.383   6.066  10.633  2.3495  3.9958 -1.2881
  132MOL0     H17411   2.318   6.015  10.409  1.2787 -3.2146  3.0871
  132MOL0     H17412   1.974   5.939  10.115 -0.6729 -0.4352 -0.6365
  132MOL0     H17413   1.941   5.839   9.907  0.7774 -0.5507  1.0128
  132MOL0     H17414   2.007   5.743   9.561  0.8483  2.6174 -0.4172
  132MOL0     H17415   1.934   5.787   9.712 -0.7690 -2.0357  1.0318
  132MOL0     H17416   2.184   5.600   9.688 -1.5117 -2.6981  1.4711
  132MOL0     H17417   2.111   5.649   9.834 -2.7679 -0.0802  1.3910
  132MOL0     H17418   1.941   5.502   9.625 -3.8281 -2.5584  1.8530
  132MOL0     H17419   1.919   5.515   9.797 -2.4531  1.0095 -2.7312
  132MOL0     H17420   2.115   5.387   9.857 -1.4153 -0.7187  0.2174
  132MOL0     H17421   2.001   5.301   9.772 -0.8784  1.2608 -0.5287
  132MOL0     H17422   2.336   5.303   9.505 -3.1156 -0.7129 -3.6970
  132MOL0     H17423   2.301   6.035   9.753 -0.6496  0.9189  0.2300
  132MOL0     H17424   2.309   6.180   9.966  1.4681 -1.1631 -0.4873
  133MOL0     O17425   3.629   6.854   5.208  0.3787 -0.0091  0.0643
  133MOL0     C17426   3.515   6.805   5.198 -0.3834 -0.4607 -0.2316
  133MOL0     O17427   3.395   6.853   5.254 -0.2772  0.3494 -0.0534
  133MOL0     C17428   3.390   6.980   5.306  0.5743 -0.6640  0.2701
  133MOL0     C17429   3.396   7.096   5.225 -0.6082  0.4737  0.3712
  133MOL0     C17430   3.402   7.222   5.290  0.1212 -0.3090  0.4921
  133MOL0     C17431   3.396   7.230   5.423 -0.7031 -0.3585  0.5169
  133MOL0     O17432   3.412   7.356   5.480 -0.1187 -0.0965  0.7424
  133MOL0     C17433   3.330   7.397   5.582  0.4983 -0.2395 -0.7718
  133MOL0     C17434   3.365   7.538   5.617  0.1643 -0.4054 -1.0815
  133MOL0     C17435   3.318   7.586   5.748 -0.1114 -0.2857 -0.7925
  133MOL0     C17436   3.162   7.609   5.756  0.6139  0.1052 -0.9013
  133MOL0     C17437   3.112   7.654   5.900 -0.2884  0.0422  0.5815
  133MOL0     C17438   2.969   7.709   5.923 -0.4823  0.2751  0.2419
  133MOL0     C17439   2.862   7.622   5.866 -0.1958  0.0838 -0.3142
  133MOL0     C17440   2.802   7.661   5.724 -0.3545  0.4647 -1.0753
  133MOL0     N17441   2.749   7.798   5.714  0.0701 -0.5625  0.2620
  133MOL0     C17442   2.647   7.851   5.786  0.1156 -0.0833 -0.7762
  133MOL0     C17443   2.631   7.978   5.748  0.8059 -0.0000  0.1739
  133MOL0     C17444   2.551   8.084   5.806  1.0030 -0.2012  0.8963
  133MOL0     C17445   2.608   8.133   5.947 -0.3071  0.4031  0.2864
  133MOL0     C17446   2.511   8.239   6.003  0.3871 -0.2978  0.0515
  133MOL0     C17447   2.568   8.313   6.122  0.4424 -0.2306 -0.1720
  133MOL0     O17448   2.695   8.376   6.104 -0.7908  0.4735  0.0912
  133MOL0     C17449   2.722   8.494   6.169  0.3063 -0.3849 -0.5457
  133MOL0     C17450   2.706   8.499   6.307 -0.0150  1.3343 -0.0507
  133MOL0     C17451   2.751   8.615   6.367 -0.1615 -0.1972  0.2921
  133MOL0     C17452   2.806   8.723   6.294 -0.5104  0.0112 -0.9485
  133MOL0     C17453   2.850   8.848   6.363 -0.2365  0.7245  0.2061
  133MOL0     O17454   2.836   8.857   6.495  0.7546  0.0839 -0.6041
  133MOL0     C17455   2.873   8.971   6.560 -0.1541 -0.0098  0.2643
  133MOL0     C17456   2.790   9.038   6.659 -0.4993 -0.3469 -0.0234
  133MOL0     C17457   2.846   9.158   6.724 -1.0412 -0.7629  0.1862
  133MOL0     C17458   2.971   9.204   6.692  0.7992 -0.6404 -0.1683
  133MOL0     O17459   3.030   9.321   6.746 -0.0396  0.2177 -0.3577
  133MOL0     C17460   2.965   9.378   6.864 -0.4025  0.3743 -0.5960
  133MOL0     C17461   3.015   9.517   6.879 -0.5412 -0.3726 -0.2670
  133MOL0     C17462   2.982   9.610   6.757 -0.0108 -0.9416  0.5604
  133MOL0     C17463   3.019   9.752   6.788  0.1636  0.6063  1.1273
  133MOL0     C17464   3.137   9.798   6.699  0.8916  0.3838 -0.3412
  133MOL0     C17465   3.230   9.909   6.742  0.3072 -0.3647 -0.7373
  133MOL0     C17466   3.173  10.038   6.795 -0.4763 -0.3659  0.2585
  133MOL0     C17467   3.275  10.146   6.791  0.7912 -0.9415 -1.2102
  133MOL0    Cl17468   3.214  10.289   6.880 -0.6393 -0.4083 -0.0625
  133MOL0     C17469   3.048   9.140   6.596  0.5710 -0.3075 -0.0571
  133MOL0     C17470   3.001   9.021   6.538  0.0065 -0.5275 -0.3072
  133MOL0     O17471   2.879   8.939   6.287  0.5430 -0.3489 -0.6440
  133MOL0     C17472   2.831   8.719   6.153 -0.1314  0.2890  1.1836
  133MOL0     C17473   2.784   8.596   6.096 -0.6074 -0.5463 -0.3668
  133MOL0     N17474   2.726   8.007   5.651 -0.7775 -0.2473 -0.3045
  133MOL0     N17475   2.798   7.905   5.635  0.0595  0.4850  0.8409
  133MOL0     C17476   3.396   7.120   5.503  0.1920  0.6863 -0.6556
  133MOL0     C17477   3.394   6.991   5.447 -0.1319 -0.5014 -0.7564
  133MOL0     C17478   3.506   6.677   5.131 -0.2009  0.3079  0.0760
  133MOL0     C17479   3.391   6.598   5.105 -0.1298  0.4916  0.3564
  133MOL0     C17480   3.406   6.476   5.034  0.6044  0.3161  0.0893
  133MOL0     C17481   3.529   6.423   5.005  1.2711  0.5896 -0.4370
  133MOL0     O17482   3.529   6.301   4.938  0.5904  0.5156 -0.5655
  133MOL0     C17483   3.614   6.204   4.996 -0.1186 -0.0328 -0.8994
  133MOL0     C17484   3.659   6.104   4.883 -0.7160  0.4926 -0.1465
  133MOL0     C17485   3.548   6.016   4.825 -0.2827 -0.0327 -0.0567
  133MOL0     C17486   3.599   5.920   4.725  0.4464  0.0669 -0.0307
  133MOL0     C17487   3.664   5.965   4.605 -0.2191  0.6024 -0.3498
  133MOL0     C17488   3.724   6.007   4.506 -0.1505  0.0173 -0.0296
  133MOL0     C17489   3.639   6.505   5.019 -0.6046 -0.4898 -0.0187
  133MOL0     C17490   3.632   6.630   5.077  0.6879  0.3887 -1.2655
  133MOL0     H17491   3.407   7.089   5.117 -1.0715  1.9913  0.2045
  133MOL0     H17492   3.403   7.313   5.232 -0.4181  2.6595  4.6853
  133MOL0     H17493   3.357   7.325   5.659  0.7666 -1.8747 -2.3193
  133MOL0     H17494   3.224   7.389   5.555  0.6670 -2.4259 -0.9425
  133MOL0     H17495   3.333   7.618   5.549 -1.0407 -0.3404 -0.4751
  133MOL0     H17496   3.474   7.543   5.624  0.2298 -2.4764  0.3601
  133MOL0     H17497   3.353   7.689   5.762 -5.6439  1.6798  2.0320
  133MOL0     H17498   3.339   7.517   5.830 -1.4132  0.4293  0.1875
  133MOL0     H17499   3.123   7.684   5.686  0.5911 -1.3877 -2.5674
  133MOL0     H17500   3.114   7.513   5.734  1.1350 -0.2060 -0.7070
  133MOL0     H17501   3.183   7.731   5.933 -2.5015  3.1361 -1.3568
  133MOL0     H17502   3.127   7.570   5.969  2.5753 -0.8475 -0.9682
  133MOL0     H17503   2.967   7.808   5.877  0.3430  0.9137  1.5237
  133MOL0     H17504   2.964   7.731   6.030  2.7798  0.6271  0.4297
  133MOL0     H17505   2.898   7.519   5.866 -0.2540  0.0586  0.4121
  133MOL0     H17506   2.781   7.608   5.938 -0.9606 -2.7038 -1.5551
  133MOL0     H17507   2.718   7.591   5.716 -2.6505  2.8189  0.6898
  133MOL0     H17508   2.870   7.650   5.639 -1.9840 -2.4688 -2.1508
  133MOL0     H17509   2.599   7.790   5.861  2.7685 -0.5380  0.6990
  133MOL0     H17510   2.449   8.045   5.814  1.3688 -1.5328 -0.4578
  133MOL0     H17511   2.553   8.165   5.733  1.2081  0.7942  1.9717
  133MOL0     H17512   2.715   8.151   5.956 -0.0852 -1.2164  1.1846
  133MOL0     H17513   2.603   8.053   6.021  4.1594  2.2589  2.9583
  133MOL0     H17514   2.495   8.323   5.936  1.5253  1.5246  1.9521
  133MOL0     H17515   2.417   8.186   6.021  1.2843 -2.2015 -0.5416
  133MOL0     H17516   2.572   8.242   6.205 -1.1193 -2.5731 -1.9748
  133MOL0     H17517   2.492   8.389   6.145  0.3460  0.2780 -2.0219
  133MOL0     H17518   2.669   8.412   6.361  3.5494  0.4100  1.1307
  133MOL0     H17519   2.762   8.618   6.475 -2.6588 -1.5812  0.6660
  133MOL0     H17520   2.694   9.010   6.700 -1.8776  1.8937 -1.5341
  133MOL0     H17521   2.791   9.207   6.803 -1.7994 -1.2528 -0.0246
  133MOL0     H17522   2.995   9.322   6.953 -0.6987 -0.9965 -1.3252
  133MOL0     H17523   2.855   9.376   6.861 -0.5262 -2.9741  1.0723
  133MOL0     H17524   3.122   9.528   6.898  0.4527 -1.0061 -4.5346
  133MOL0     H17525   2.964   9.554   6.968 -1.2834 -0.7418 -0.5276
  133MOL0     H17526   2.875   9.598   6.733 -0.4816 -3.7567  3.3680
  133MOL0     H17527   3.036   9.567   6.672 -2.1354 -2.1905 -0.2432
  133MOL0     H17528   2.932   9.814   6.765  0.4777  1.1322  1.3517
  133MOL0     H17529   3.036   9.770   6.894 -0.7305  3.6623  0.8502
  133MOL0     H17530   3.087   9.821   6.605 -1.2199 -0.4594  0.4995
  133MOL0     H17531   3.197   9.709   6.679 -0.3864 -0.2323 -1.6098
  133MOL0     H17532   3.287   9.924   6.651  0.8979 -1.7409 -0.6220
  133MOL0     H17533   3.301   9.869   6.816 -0.8064  0.5326  0.8779
  133MOL0     H17534   3.093  10.076   6.731 -0.2534 -0.3917 -0.0368
  133MOL0     H17535   3.135  10.028   6.897  0.3112  1.5843  0.7988
  133MOL0     H17536   3.306  10.165   6.688 -3.6661  1.1683 -2.4140
  133MOL0     H17537   3.356  10.102   6.849 -1.6822 -2.0185  1.6943
  133MOL0     H17538   3.144   9.189   6.583 -0.7006  2.5362  0.4947
  133MOL0     H17539   3.059   8.965   6.466 -2.4941  0.2153 -3.0868
  133MOL0     H17540   2.866   8.801   6.091  1.0000 -0.5078  0.7288
  133MOL0     H17541   2.798   8.578   5.990 -1.8518  3.3242 -1.3702
  133MOL0     H17542   3.395   7.124   5.612  0.0846 -2.7755 -0.4383
  133MOL0     H17543   3.382   6.908   5.516  3.1045 -2.1112 -1.9564
  133MOL0     H17544   3.289   6.630   5.125 -0.3964 -0.3161  0.3161
  133MOL0     H17545   3.320   6.409   5.028  0.5768  0.2825  0.7251
  133MOL0     H17546   3.560   6.157   5.078 -4.0473  0.4465 -3.0071
  133MOL0     H17547   3.704   6.245   5.044  0.0650 -0.3307 -0.9924
  133MOL0     H17548   3.706   6.173   4.812  0.6310  1.7150  1.8363
  133MOL0     H17549   3.735   6.033   4.916 -1.4868 -0.8280 -1.1089
  133MOL0     H17550   3.465   6.076   4.787 -1.6293 -0.9514  1.3128
  133MOL0     H17551   3.512   5.956   4.909  1.6134 -2.1811 -0.6696
  133MOL0     H17552   3.669   5.855   4.779  2.3643  1.0461 -1.2279
  133MOL0     H17553   3.504   5.870   4.704 -0.3940  0.1032  3.2056
  133MOL0     H17554   3.779   6.037   4.419 -0.2156 -0.2880 -0.1757
  133MOL0     H17555   3.735   6.471   4.981  0.2762  0.6092  1.1692
  133MOL0     H17556   3.713   6.701   5.059 -0.4535  1.8703 -0.7887
  134MOL0     O17557  10.506   1.470  11.264 -0.0914 -0.3934  0.2017
  134MOL0     C17558  10.573   1.418  11.177  0.6860  0.7213 -0.4367
  134MOL0     O17559  10.619   1.477  11.069  0.0500  0.3179 -0.7673
  134MOL0     C17560  10.587   1.605  11.040  0.3592  0.1310 -0.6725
  134MOL0     C17561  10.501   1.627  10.935 -0.2727  0.8375  0.1244
  134MOL0     C17562  10.445   1.750  10.916  0.6636  0.3036  0.1052
  134MOL0     C17563  10.472   1.855  11.001 -1.1927 -0.4637 -1.1302
  134MOL0     O17564  10.410   1.976  10.995 -0.1765 -0.1461 -0.6523
  134MOL0     C17565  10.420   2.047  10.874  0.0576  0.2524 -0.2738
  134MOL0     C17566  10.440   2.193  10.907  0.5769  0.9558  0.1634
  134MOL0     C17567  10.582   2.226  10.952  1.2676  0.0098 -0.3048
  134MOL0     C17568  10.596   2.381  10.971  0.3725  0.8419 -1.2817
  134MOL0     C17569  10.508   2.442  11.077 -0.0975  0.4596  0.6223
  134MOL0     C17570  10.559   2.585  11.126 -0.3862  0.1051  0.1467
  134MOL0     C17571  10.687   2.598  11.217 -0.0298 -0.1039 -0.3057
  134MOL0     C17572  10.729   2.747  11.239 -0.0712  1.2330  0.5090
  134MOL0     N17573  10.827   2.743  11.344  0.0474  0.0318 -0.2961
  134MOL0     C17574  10.960   2.748  11.324 -0.3463 -0.4371  0.4798
  134MOL0     C17575  11.003   2.740  11.454 -0.1141  0.3890  0.6215
  134MOL0     C17576  11.153   2.733  11.508 -0.2877 -0.9131 -0.5455
  134MOL0     C17577  11.238   2.843  11.426  1.1799  0.0985 -0.0909
  134MOL0     C17578  11.194   2.984  11.467 -0.3233  0.2654 -0.0914
  134MOL0     C17579  11.270   3.037  11.599  0.4851 -0.5282  0.1818
  134MOL0     O17580  11.200   3.134  11.676  0.1437 -0.1282 -0.0069
  134MOL0     C17581  11.147   3.236  11.607 -0.2407 -0.3216 -0.1044
  134MOL0     C17582  11.017   3.219  11.565 -0.5969 -0.4752  0.3299
  134MOL0     C17583  10.971   3.301  11.466  0.0236  0.4722 -0.7024
  134MOL0     C17584  11.048   3.409  11.409 -1.2994  0.2999 -0.5640
  134MOL0     C17585  10.988   3.496  11.298 -0.5196 -0.2396 -0.0704
  134MOL0     O17586  10.857   3.485  11.276  0.4564  1.1423 -0.0202
  134MOL0     C17587  10.791   3.560  11.183 -0.1139 -0.3733  0.1408
  134MOL0     C17588  10.758   3.693  11.223  0.5024 -0.3010  0.0148
  134MOL0     C17589  10.665   3.769  11.138  0.5576  0.5434  0.2547
  134MOL0     C17590  10.624   3.705  11.012 -0.1721 -0.4686 -0.5693
  134MOL0     O17591  10.560   3.782  10.918  0.1191  0.1432  0.2433
  134MOL0     C17592  10.433   3.844  10.954  0.0589 -0.4444  0.0106
  134MOL0     C17593  10.312   3.748  10.914 -0.1377 -0.1841 -1.1470
  134MOL0     C17594  10.168   3.770  10.973  0.4377  0.0517 -0.3683
  134MOL0     C17595  10.088   3.867  10.874  0.4305  0.2174 -0.0443
  134MOL0     C17596   9.947   3.906  10.929 -0.0538 -0.2641 -0.3522
  134MOL0     C17597   9.841   3.791  10.912  0.2377 -0.5032 -0.4154
  134MOL0     C17598   9.872   3.664  10.991 -0.6141  0.6986 -0.3075
  134MOL0     C17599   9.744   3.583  11.019  0.4324 -0.1346 -0.2167
  134MOL0    Cl17600   9.639   3.552  10.876 -0.4998 -0.0874 -0.1312
  134MOL0     C17601  10.649   3.569  10.981 -0.8503  0.3038  1.4880
  134MOL0     C17602  10.731   3.496  11.075  0.8823  0.2874 -0.2141
  134MOL0     O17603  11.061   3.577  11.251  0.1057  0.4805 -0.4037
  134MOL0     C17604  11.183   3.427  11.461  0.2063 -0.1657 -0.5316
  134MOL0     C17605  11.233   3.332  11.545  0.1191 -0.6404  0.0403
  134MOL0     N17606  10.899   2.738  11.543  0.4009  0.2097 -0.6143
  134MOL0     N17607  10.791   2.733  11.474 -0.5366 -0.0966  0.0300
  134MOL0     C17608  10.558   1.835  11.111  0.1097  0.3208  0.0582
  134MOL0     C17609  10.619   1.708  11.125 -0.3904 -0.0734 -0.0244
  134MOL0     C17610  10.589   1.277  11.192 -0.2192 -0.2195  0.2597
  134MOL0     C17611  10.597   1.228  11.324 -0.7710 -0.3896 -0.5839
  134MOL0     C17612  10.609   1.090  11.350  0.2873 -0.1372  0.6411
  134MOL0     C17613  10.615   1.001  11.250 -0.4086 -0.4945  1.0545
  134MOL0     O17614  10.619   0.869  11.286  0.4151  0.0849 -0.1253
  134MOL0     C17615  10.617   0.775  11.178 -0.8648 -0.2623  1.0878
  134MOL0     C17616  10.637   0.629  11.219  0.3366 -0.0972 -0.4080
  134MOL0     C17617  10.645   0.544  11.089 -0.7533  0.9858  0.6253
  134MOL0     C17618  10.682   0.397  11.102  1.2681  1.1417 -0.4187
  134MOL0     C17619  10.613   0.325  11.209  0.1160 -0.3854 -0.8822
  134MOL0     C17620  10.560   0.264  11.302  0.0678 -0.5535  0.0879
  134MOL0     C17621  10.606   1.049  11.118 -0.0123 -0.4375  0.5490
  134MOL0     C17622  10.595   1.188  11.087 -0.7534 -0.1231 -0.4122
  134MOL0     H17623  10.476   1.535  10.883 -1.6744  1.0308  0.4295
  134MOL0     H17624  10.366   1.762  10.842  0.1696 -1.2325  0.3512
  134MOL0     H17625  10.333   2.029  10.809 -0.1117 -1.5515  0.4153
  134MOL0     H17626  10.503   2.018  10.809  0.1288  0.5228 -0.3079
  134MOL0     H17627  10.351   2.235  10.957 -1.3526  0.2300 -2.4376
  134MOL0     H17628  10.429   2.239  10.808 -1.0818 -0.0515 -0.1720
  134MOL0     H17629  10.653   2.200  10.873  1.5221 -1.4989  0.3948
  134MOL0     H17630  10.612   2.168  11.039 -1.1729 -0.9243 -0.0118
  134MOL0     H17631  10.699   2.402  11.001  0.6974 -1.9647 -0.1388
  134MOL0     H17632  10.577   2.438  10.879  0.0091  1.1591 -1.0170
  134MOL0     H17633  10.498   2.382  11.168  1.7890 -0.8119  0.0559
  134MOL0     H17634  10.403   2.454  11.050 -0.3151 -1.7413  0.3779
  134MOL0     H17635  10.474   2.633  11.176 -0.3436 -3.2970  3.9574
  134MOL0     H17636  10.580   2.650  11.040 -0.0950 -0.0039  0.1343
  134MOL0     H17637  10.667   2.559  11.318 -1.4778  0.4950 -0.3371
  134MOL0     H17638  10.767   2.542  11.168 -0.2650 -0.2131 -0.5642
  134MOL0     H17639  10.644   2.809  11.271 -0.9461 -0.4373  1.5889
  134MOL0     H17640  10.765   2.792  11.146  3.6701 -1.8061  0.2475
  134MOL0     H17641  11.012   2.750  11.229  0.5039  0.2230  0.9443
  134MOL0     H17642  11.192   2.636  11.474 -0.3043 -1.2833  0.4676
  134MOL0     H17643  11.163   2.760  11.614  1.3882  0.8554 -1.0929
  134MOL0     H17644  11.211   2.838  11.320 -3.6157 -1.4505  0.9597
  134MOL0     H17645  11.346   2.825  11.420  0.5739 -4.9036 -0.0828
  134MOL0     H17646  11.206   3.054  11.384 -1.6174 -2.6152 -2.9569
  134MOL0     H17647  11.085   2.986  11.479 -0.2353  1.7881  0.6917
  134MOL0     H17648  11.369   3.072  11.569  0.9769 -0.3271  1.9322
  134MOL0     H17649  11.280   2.960  11.676 -1.8003 -1.8364 -0.7376
  134MOL0     H17650  10.964   3.135  11.609 -3.0843  0.2440 -1.1464
  134MOL0     H17651  10.868   3.297  11.430  1.2806  0.6202 -4.9246
  134MOL0     H17652  10.796   3.731  11.317  0.5845 -2.2342  0.8154
  134MOL0     H17653  10.622   3.869  11.142 -3.3251 -0.9276 -0.5599
  134MOL0     H17654  10.412   3.940  10.906  1.2220  1.6136  3.3292
  134MOL0     H17655  10.425   3.877  11.058  0.4645 -0.1306 -0.0582
  134MOL0     H17656  10.356   3.657  10.956  2.7361  0.9873 -1.3783
  134MOL0     H17657  10.307   3.731  10.806 -5.0487 -2.1302 -0.8551
  134MOL0     H17658  10.170   3.819  11.071 -0.6415  0.5971 -0.5981
  134MOL0     H17659  10.126   3.669  10.968  2.9658 -1.0190 -1.1532
  134MOL0     H17660  10.141   3.963  10.869 -0.7833  1.2975  4.0480
  134MOL0     H17661  10.084   3.823  10.774  1.3171  0.8841 -0.3826
  134MOL0     H17662   9.919   4.000  10.880 -0.7749 -0.4759 -0.3539
  134MOL0     H17663   9.966   3.938  11.032 -2.6590  2.0010 -0.4590
  134MOL0     H17664   9.840   3.762  10.806  1.5338 -0.1701 -0.5366
  134MOL0     H17665   9.748   3.842  10.940  0.6497  0.1211 -0.1629
  134MOL0     H17666   9.930   3.594  10.931  1.7749  0.6096  1.9220
  134MOL0     H17667   9.927   3.682  11.084 -0.0661 -1.1276 -0.2361
  134MOL0     H17668   9.678   3.639  11.086  0.9470  1.1909 -0.7658
  134MOL0     H17669   9.779   3.489  11.063  1.5725 -0.6308 -2.0841
  134MOL0     H17670  10.598   3.524  10.897 -0.9219  2.9455  0.0056
  134MOL0     H17671  10.743   3.392  11.047 -2.4571  0.3995 -2.8025
  134MOL0     H17672  11.242   3.503  11.410  0.0582 -0.4290 -1.0928
  134MOL0     H17673  11.339   3.317  11.561  0.2340 -0.0546 -0.1489
  134MOL0     H17674  10.595   1.917  11.172  0.1765 -0.5615  1.2417
  134MOL0     H17675  10.679   1.688  11.213 -1.0639 -2.0593  0.0468
  134MOL0     H17676  10.594   1.289  11.414 -1.1965 -1.2441 -0.0010
  134MOL0     H17677  10.603   1.060  11.455  1.8567  3.2904  1.8523
  134MOL0     H17678  10.698   0.814  11.116 -1.5385  1.0348  0.9951
  134MOL0     H17679  10.526   0.786  11.118 -0.3915 -2.1001 -0.0156
  134MOL0     H17680  10.728   0.603  11.272  1.3948  1.7179 -1.2556
  134MOL0     H17681  10.547   0.601  11.274  0.8331  2.0964  1.6599
  134MOL0     H17682  10.717   0.587  11.019 -1.5925 -0.5495 -1.2871
  134MOL0     H17683  10.544   0.534  11.047 -0.6060 -2.1675  0.7728
  134MOL0     H17684  10.648   0.348  11.011 -2.1591  2.0519  0.2484
  134MOL0     H17685  10.791   0.391  11.112  1.1473 -0.2498  0.1696
  134MOL0     H17686  10.504   0.211  11.376  1.4947 -2.2413  0.0201
  134MOL0     H17687  10.585   0.985  11.033 -0.2535  3.2687 -2.4388
  134MOL0     H17688  10.602   1.217  10.983  0.7584  0.8825 -0.0546
  135MOL0     O17689   0.156   8.881   0.975 -0.5992 -0.6338  0.6596
  135MOL0     C17690   0.062   8.956   0.962  0.1297  0.0141 -0.2463
  135MOL0     O17691  -0.074   8.913   0.968 -0.4015  0.3415 -0.7901
  135MOL0     C17692  -0.086   8.783   0.990  0.7461 -0.0573 -0.3961
  135MOL0     C17693  -0.052   8.725   1.113  1.3901  0.1499 -0.8711
  135MOL0     C17694  -0.066   8.584   1.140  0.2405  0.5114 -0.1620
  135MOL0     C17695  -0.122   8.499   1.039 -1.3220 -0.2335 -0.3214
  135MOL0     O17696  -0.139   8.365   1.049  0.3573 -0.2527 -0.6159
  135MOL0     C17697  -0.216   8.321   1.166 -0.1415 -0.3256  0.2236
  135MOL0     C17698  -0.360   8.357   1.148 -0.6316  0.8505  0.5031
  135MOL0     C17699  -0.438   8.287   1.044  0.4657  0.1541  0.6849
  135MOL0     C17700  -0.581   8.272   1.079  0.8422  1.2634  0.7196
  135MOL0     C17701  -0.684   8.236   0.960  0.6690 -0.1990  0.2899
  135MOL0     C17702  -0.829   8.239   1.024  0.2100  0.0405 -0.0896
  135MOL0     C17703  -0.931   8.151   0.932 -0.3461 -0.1629 -0.0447
  135MOL0     C17704  -0.922   8.002   0.969  0.0159 -0.4890 -0.6690
  135MOL0     N17705  -0.945   7.976   1.116  0.0046 -0.3872  0.2032
  135MOL0     C17706  -1.064   7.973   1.173  0.3503 -0.1668 -0.6147
  135MOL0     C17707  -1.041   7.935   1.301  0.0994 -0.4668  0.7500
  135MOL0     C17708  -1.142   7.943   1.409 -0.2180  0.1139  0.1210
  135MOL0     C17709  -1.272   7.863   1.369 -0.3451 -0.3276 -0.7176
  135MOL0     C17710  -1.259   7.718   1.351 -0.5707  0.0000  0.0943
  135MOL0     C17711  -1.400   7.647   1.316 -0.9034  0.4354  0.4987
  135MOL0     O17712  -1.426   7.680   1.184 -0.7829 -0.2368  0.9207
  135MOL0     C17713  -1.531   7.624   1.115 -0.2469 -0.1409 -0.3150
  135MOL0     C17714  -1.564   7.671   0.988 -0.4848  0.0330 -0.0845
  135MOL0     C17715  -1.673   7.612   0.915 -0.7233  0.1433 -0.5442
  135MOL0     C17716  -1.739   7.497   0.960 -0.0200 -1.1320  1.2575
  135MOL0     C17717  -1.841   7.429   0.880  0.2504  0.2417 -0.3393
  135MOL0     O17718  -1.876   7.313   0.926  0.6161 -0.0102  0.4766
  135MOL0     C17719  -1.959   7.239   0.837 -0.0421  0.3444 -0.1656
  135MOL0     C17720  -2.082   7.278   0.774  0.2651  0.7660  0.1631
  135MOL0     C17721  -2.153   7.188   0.690 -0.0876 -0.6198 -0.3086
  135MOL0     C17722  -2.100   7.059   0.665 -0.8914 -0.9339  0.7787
  135MOL0     O17723  -2.155   6.968   0.576 -0.3875 -0.6301 -0.4281
  135MOL0     C17724  -2.250   7.021   0.482 -0.5583  0.0989  0.1536
  135MOL0     C17725  -2.175   7.110   0.378 -0.0733 -0.3476 -1.1481
  135MOL0     C17726  -2.273   7.145   0.259 -0.7885  0.8441 -0.4510
  135MOL0     C17727  -2.391   7.233   0.306  0.4635  0.9664 -0.0546
  135MOL0     C17728  -2.410   7.366   0.224 -0.3811 -0.2964 -0.3832
  135MOL0     C17729  -2.438   7.335   0.072 -0.6197 -0.3790  0.2871
  135MOL0     C17730  -2.465   7.457  -0.012 -0.1352  0.8819 -0.0238
  135MOL0     C17731  -2.455   7.429  -0.165  0.3572  0.2485  0.1541
  135MOL0    Cl17732  -2.598   7.342  -0.219 -0.1895  0.1392  0.4212
  135MOL0     C17733  -1.977   7.028   0.730  0.1264  0.7628  0.4377
  135MOL0     C17734  -1.907   7.113   0.815 -0.4023  0.6801 -0.5667
  135MOL0     O17735  -1.882   7.483   0.773  0.5250  0.6027  0.3709
  135MOL0     C17736  -1.710   7.458   1.092  0.1560 -0.4219 -0.5579
  135MOL0     C17737  -1.605   7.521   1.163  0.2708  0.2727  0.3393
  135MOL0     N17738  -0.911   7.914   1.320 -0.3837  0.3791 -0.4755
  135MOL0     N17739  -0.850   7.935   1.206  0.6872 -0.2941  0.3181
  135MOL0     C17740  -0.169   8.565   0.920 -0.4198 -0.4146 -0.3901
  135MOL0     C17741  -0.142   8.698   0.890  0.6715 -0.4131  0.1188
  135MOL0     C17742   0.097   9.096   0.966 -0.0953  0.5392 -0.7745
  135MOL0     C17743   0.002   9.186   0.960  0.2847 -0.1656 -0.4171
  135MOL0     C17744   0.033   9.323   0.961  0.6332  0.1189 -0.6267
  135MOL0     C17745   0.168   9.365   0.957 -0.5297  0.2331  1.1597
  135MOL0     O17746   0.180   9.498   0.944  0.9977  0.4277 -0.6754
  135MOL0     C17747   0.310   9.558   0.948  0.9040 -0.3951 -0.5844
  135MOL0     C17748   0.281   9.706   0.916 -0.8486  0.2034 -0.1607
  135MOL0     C17749   0.242   9.795   1.030  0.2760  0.2857 -0.5747
  135MOL0     C17750   0.380   9.836   1.104  0.4659 -0.0781  0.7315
  135MOL0     C17751   0.363   9.949   1.200  0.1352  0.3106  0.2433
  135MOL0     C17752   0.370  10.036   1.276  1.2854 -0.3406 -0.3570
  135MOL0     C17753   0.269   9.272   0.955  0.4813 -0.1393  0.4102
  135MOL0     C17754   0.232   9.138   0.956 -0.1073 -0.3426  0.4852
  135MOL0     H17755  -0.015   8.787   1.194  2.2615 -0.1405 -1.0449
  135MOL0     H17756  -0.036   8.551   1.239  2.6490 -0.8789 -1.2766
  135MOL0     H17757  -0.182   8.372   1.257  1.8196 -1.6858  0.3420
  135MOL0     H17758  -0.206   8.215   1.191 -0.2428 -0.1449  1.0666
  135MOL0     H17759  -0.368   8.466   1.138 -1.9906  0.9041  1.7391
  135MOL0     H17760  -0.416   8.340   1.240 -0.4514  1.3623  0.7108
  135MOL0     H17761  -0.397   8.186   1.032  0.8722  0.2287  1.3544
  135MOL0     H17762  -0.418   8.339   0.950 -1.8202  0.1771  0.1522
  135MOL0     H17763  -0.588   8.191   1.151 -1.5839 -0.5717 -1.4248
  135MOL0     H17764  -0.610   8.370   1.119 -0.0197  2.2952 -2.1956
  135MOL0     H17765  -0.676   8.134   0.920 -0.6299  0.4272 -1.6809
  135MOL0     H17766  -0.675   8.297   0.870  2.7064 -0.9139 -0.0493
  135MOL0     H17767  -0.864   8.343   1.020  4.7765  2.1722  3.9137
  135MOL0     H17768  -0.834   8.211   1.130 -0.2028  0.7008  0.0748
  135MOL0     H17769  -1.034   8.184   0.947 -0.0877 -0.7589  4.3055
  135MOL0     H17770  -0.894   8.163   0.830 -1.0593  2.3588 -0.0735
  135MOL0     H17771  -0.819   7.974   0.943  0.4123 -0.4386  0.7955
  135MOL0     H17772  -0.995   7.956   0.902 -1.8619  1.7885 -0.2969
  135MOL0     H17773  -1.159   8.017   1.143  0.7435 -1.0480 -3.3712
  135MOL0     H17774  -1.159   8.050   1.421 -0.8896  0.4038 -2.8024
  135MOL0     H17775  -1.094   7.897   1.496 -2.7094  1.0397  2.1129
  135MOL0     H17776  -1.311   7.909   1.277 -2.9883 -2.0884 -0.5741
  135MOL0     H17777  -1.352   7.886   1.440  1.2295 -1.4336  1.4989
  135MOL0     H17778  -1.184   7.695   1.275 -0.8789 -2.0986  0.3647
  135MOL0     H17779  -1.224   7.673   1.444 -0.8611 -1.6421 -0.5470
  135MOL0     H17780  -1.484   7.684   1.376 -1.9005  1.0764 -1.2308
  135MOL0     H17781  -1.396   7.542   1.345  1.2183  0.2088 -0.4630
  135MOL0     H17782  -1.528   7.761   0.940  2.3149 -1.4737 -1.0362
  135MOL0     H17783  -1.692   7.663   0.821  1.2156 -1.4632 -1.8860
  135MOL0     H17784  -2.135   7.371   0.794 -3.6887 -0.9490 -1.4242
  135MOL0     H17785  -2.247   7.221   0.646 -0.2125  1.2982  1.2736
  135MOL0     H17786  -2.335   7.071   0.529 -0.5199  0.7509 -0.4621
  135MOL0     H17787  -2.281   6.933   0.424  3.9308 -1.6129 -0.1088
  135MOL0     H17788  -2.086   7.055   0.347 -0.4133 -1.1325 -0.7854
  135MOL0     H17789  -2.140   7.202   0.424  1.1122 -0.4656 -1.7988
  135MOL0     H17790  -2.301   7.049   0.215 -1.9083  0.6526  0.6395
  135MOL0     H17791  -2.208   7.186   0.180  3.9482 -3.7968  0.4489
  135MOL0     H17792  -2.477   7.165   0.303  2.1973 -1.3303 -0.7781
  135MOL0     H17793  -2.386   7.263   0.411  2.0180 -0.4309  0.3012
  135MOL0     H17794  -2.321   7.426   0.241 -1.1454  0.0275  3.3964
  135MOL0     H17795  -2.489   7.423   0.274  0.5065 -0.1606  0.9050
  135MOL0     H17796  -2.527   7.273   0.055 -0.6663  0.3652 -2.9172
  135MOL0     H17797  -2.354   7.276   0.034 -0.2603 -0.0124  0.5086
  135MOL0     H17798  -2.565   7.490   0.017 -0.7847 -0.9102 -0.0832
  135MOL0     H17799  -2.390   7.531   0.018 -1.5651  0.8981  4.0884
  135MOL0     H17800  -2.362   7.371  -0.174 -0.5007 -2.3020  4.8233
  135MOL0     H17801  -2.445   7.523  -0.221  0.8649 -0.4328 -0.9462
  135MOL0     H17802  -1.934   6.929   0.718  0.1827  0.9092 -0.7332
  135MOL0     H17803  -1.826   7.080   0.878 -3.9009 -1.7000  3.1952
  135MOL0     H17804  -1.750   7.372   1.145 -0.3312  0.0108 -0.2158
  135MOL0     H17805  -1.590   7.479   1.262 -0.8850 -2.1771 -0.4546
  135MOL0     H17806  -0.228   8.520   0.840  1.3594 -0.4787 -1.7145
  135MOL0     H17807  -0.185   8.743   0.801 -1.0236 -1.7441  0.2119
  135MOL0     H17808  -0.100   9.148   0.954  0.5111 -0.7805 -0.4204
  135MOL0     H17809  -0.049   9.393   0.970  0.7222  0.1320  0.1810
  135MOL0     H17810   0.361   9.518   0.860  0.0354  1.7227 -2.1204
  135MOL0     H17811   0.359   9.540   1.045 -0.0914 -2.5195 -0.4078
  135MOL0     H17812   0.369   9.746   0.865  0.2426 -0.0290  1.4612
  135MOL0     H17813   0.203   9.707   0.839  1.3113 -3.6282 -2.7016
  135MOL0     H17814   0.176   9.751   1.105  0.0672  1.4657 -0.0584
  135MOL0     H17815   0.184   9.883   1.003  2.2182  1.9146  0.3320
  135MOL0     H17816   0.420   9.755   1.166  0.1489 -2.2997 -1.7508
  135MOL0     H17817   0.457   9.866   1.033 -1.6005 -0.3726 -1.7912
  135MOL0     H17818   0.394  10.093   1.364 -2.5105 -1.7376  1.7701
  135MOL0     H17819   0.373   9.304   0.959 -0.1569  2.0289  4.3187
  135MOL0     H17820   0.311   9.064   0.952  1.4914  1.2157  1.7095
  136MOL0     O17821   2.780  11.022   3.204  0.4190 -0.1411  0.0285
  136MOL0     C17822   2.669  10.999   3.146  0.4875  0.5998 -0.4374
  136MOL0     O17823   2.575  10.908   3.191 -0.4391 -0.0462  0.1673
  136MOL0     C17824   2.599  10.825   3.302  1.3332  1.6711  0.6422
  136MOL0     C17825   2.599  10.685   3.293 -0.0895 -0.3405  0.6249
  136MOL0     C17826   2.606  10.612   3.408  0.0348  0.2479 -0.2387
  136MOL0     C17827   2.635  10.670   3.535 -0.0809 -0.4414  0.2929
  136MOL0     O17828   2.659  10.591   3.646 -0.6964 -0.3993 -0.6076
  136MOL0     C17829   2.593  10.466   3.662  0.9296 -0.3404  1.1955
  136MOL0     C17830   2.452  10.485   3.709  0.3932  0.7736  0.8410
  136MOL0     C17831   2.369  10.358   3.724 -0.4260 -0.3874 -0.1228
  136MOL0     C17832   2.424  10.241   3.816  0.0753 -0.8686 -0.7305
  136MOL0     C17833   2.339  10.118   3.794  0.7801  0.6758  0.3915
  136MOL0     C17834   2.197  10.110   3.845 -0.0584  0.1040  0.1274
  136MOL0     C17835   2.118   9.985   3.798  0.1148  0.1841 -0.3049
  136MOL0     C17836   2.180   9.853   3.822  0.7095 -0.2428 -0.2369
  136MOL0     N17837   2.083   9.754   3.787  0.9280  0.3330  0.3848
  136MOL0     C17838   2.103   9.633   3.720  0.2484  0.5217  0.0571
  136MOL0     C17839   1.978   9.564   3.711  0.2171 -0.5384  0.6375
  136MOL0     C17840   1.931   9.431   3.648 -0.2812  0.0894 -0.6161
  136MOL0     C17841   1.976   9.307   3.728 -0.8949  0.7320 -0.3498
  136MOL0     C17842   2.133   9.275   3.739  0.6067 -0.1760 -0.0222
  136MOL0     C17843   2.163   9.162   3.837 -0.4682 -0.4598  0.0558
  136MOL0     O17844   2.051   9.074   3.853 -0.2414  0.1504  0.2610
  136MOL0     C17845   2.060   8.981   3.951 -0.5070  0.6355  0.1317
  136MOL0     C17846   1.949   8.895   3.964  0.6180 -0.3728 -0.6641
  136MOL0     C17847   1.935   8.804   4.061 -0.7314  0.8247 -1.1647
  136MOL0     C17848   2.042   8.779   4.155  0.9745  0.6442  0.0134
  136MOL0     C17849   2.028   8.687   4.274  0.1322  0.4460  0.5448
  136MOL0     O17850   1.904   8.625   4.287 -0.3137  0.0059 -0.2298
  136MOL0     C17851   1.883   8.491   4.318 -0.2281 -0.2797  0.2795
  136MOL0     C17852   1.979   8.388   4.307 -0.9265  0.0953 -1.0537
  136MOL0     C17853   1.954   8.264   4.362  0.1841  0.3100 -0.0176
  136MOL0     C17854   1.824   8.237   4.418  0.1958  0.4760  0.5319
  136MOL0     O17855   1.779   8.116   4.461 -0.0608 -0.0533  0.8000
  136MOL0     C17856   1.879   8.023   4.525  1.3259  0.3619 -0.2821
  136MOL0     C17857   1.949   8.077   4.649 -0.1669  1.1136 -0.3645
  136MOL0     C17858   1.853   8.066   4.782  0.8979 -0.2036  0.2168
  136MOL0     C17859   1.934   8.128   4.904  0.8608 -1.2127  0.2474
  136MOL0     C17860   1.880   8.083   5.038 -0.3243 -0.2908  0.4184
  136MOL0     C17861   1.959   8.095   5.163  0.3787  0.1914  0.7322
  136MOL0     C17862   1.895   8.066   5.299 -0.6791  0.5706 -0.4146
  136MOL0     C17863   1.963   8.153   5.412 -0.0323 -0.7493 -0.1711
  136MOL0    Cl17864   1.875   8.125   5.567  0.4588  0.0339 -0.1274
  136MOL0     C17865   1.720   8.329   4.405 -0.0168  0.1925  0.2799
  136MOL0     C17866   1.756   8.458   4.366  0.8981 -0.3983 -0.5056
  136MOL0     O17867   2.116   8.677   4.358 -0.7838  1.3578  0.4009
  136MOL0     C17868   2.162   8.856   4.138  0.8998  0.9384 -0.4620
  136MOL0     C17869   2.165   8.957   4.043 -0.3640 -0.6199  0.2098
  136MOL0     N17870   1.886   9.650   3.779  0.3068  1.4137  0.4376
  136MOL0     N17871   1.951   9.745   3.834 -0.9014 -0.2513 -0.5439
  136MOL0     C17872   2.639  10.809   3.539  0.0342 -0.3546 -0.8959
  136MOL0     C17873   2.606  10.885   3.429  0.5248 -0.6138  0.9081
  136MOL0     C17874   2.629  11.079   3.031 -0.3083 -1.2820 -0.3848
  136MOL0     C17875   2.513  11.034   2.949 -1.0261 -0.6291  0.2528
  136MOL0     C17876   2.491  11.111   2.833  0.0848 -0.2884  0.7424
  136MOL0     C17877   2.563  11.216   2.788  1.1121  0.6887 -0.0629
  136MOL0     O17878   2.554  11.273   2.664 -0.0678  0.0828  0.0914
  136MOL0     C17879   2.424  11.294   2.597 -0.7270  0.3407  0.0344
  136MOL0     C17880   2.429  11.415   2.517 -0.2369 -0.0432  0.4700
  136MOL0     C17881   2.283  11.433   2.460  0.1840 -0.4858  0.5567
  136MOL0     C17882   2.297  11.518   2.335 -0.7098  0.0181 -0.6642
  136MOL0     C17883   2.167  11.522   2.265 -0.0119 -0.3799 -0.4686
  136MOL0     C17884   2.060  11.526   2.207  0.2788  1.0108 -0.0633
  136MOL0     C17885   2.668  11.256   2.865 -0.1346 -0.0364 -0.1700
  136MOL0     C17886   2.705  11.186   2.980 -0.5676 -0.8272  0.4170
  136MOL0     H17887   2.595  10.627   3.201  0.3202  0.0720  0.3474
  136MOL0     H17888   2.602  10.505   3.395 -2.0554 -0.1185  2.5229
  136MOL0     H17889   2.662  10.410   3.726  0.0883 -4.7933 -1.3481
  136MOL0     H17890   2.586  10.418   3.564 -0.9421 -0.3786  1.3236
  136MOL0     H17891   2.395  10.550   3.642  2.3172  2.6749  0.9347
  136MOL0     H17892   2.460  10.544   3.801 -1.6148  2.1915  0.1707
  136MOL0     H17893   2.364  10.317   3.623 -0.5464  1.6234 -0.9777
  136MOL0     H17894   2.270  10.388   3.758 -0.4612 -1.4353  0.7601
  136MOL0     H17895   2.518  10.215   3.767  2.4284 -0.2907  3.0682
  136MOL0     H17896   2.439  10.280   3.917  1.0726 -1.1787 -0.7500
  136MOL0     H17897   2.395  10.033   3.834 -2.1990 -2.1920 -1.0329
  136MOL0     H17898   2.328  10.111   3.686 -0.4700  1.5716  0.4413
  136MOL0     H17899   2.143  10.198   3.809 -1.2212 -0.8135 -0.4357
  136MOL0     H17900   2.194  10.113   3.955  1.7546 -1.3140  0.2584
  136MOL0     H17901   2.020   9.989   3.846 -1.2921 -1.7298 -2.7615
  136MOL0     H17902   2.109  10.002   3.690  1.6429 -1.9342 -0.8441
  136MOL0     H17903   2.211   9.858   3.926 -2.9870 -1.0559  1.0482
  136MOL0     H17904   2.253   9.843   3.741  0.3572 -1.9492 -0.3705
  136MOL0     H17905   2.189   9.605   3.660 -0.5820 -1.1620 -0.3985
  136MOL0     H17906   1.953   9.418   3.542  1.1834 -1.5343 -0.1528
  136MOL0     H17907   1.822   9.441   3.651 -0.2071  1.9006 -1.9864
  136MOL0     H17908   1.922   9.220   3.688 -0.9561  0.7831 -0.3794
  136MOL0     H17909   1.941   9.316   3.831  2.0868 -1.7582  1.0364
  136MOL0     H17910   2.178   9.240   3.647  2.8672 -0.0930  0.9906
  136MOL0     H17911   2.178   9.371   3.765 -2.3505  1.1372  0.7270
  136MOL0     H17912   2.195   9.209   3.930 -3.7955  0.9651  0.6183
  136MOL0     H17913   2.246   9.109   3.788 -0.9215 -2.9305  1.7756
  136MOL0     H17914   1.869   8.909   3.892  0.4856 -0.4794 -0.5357
  136MOL0     H17915   1.851   8.736   4.058  0.6497 -1.0539  0.1011
  136MOL0     H17916   2.079   8.419   4.279 -1.3024  3.3436  0.7256
  136MOL0     H17917   2.023   8.181   4.361 -2.0672 -1.7168  1.0450
  136MOL0     H17918   1.945   7.985   4.447 -0.5406 -1.7112 -0.9441
  136MOL0     H17919   1.829   7.932   4.557 -1.9691  2.3459  0.7444
  136MOL0     H17920   1.984   8.181   4.648 -0.4338  1.2370 -2.4459
  136MOL0     H17921   2.042   8.019   4.655  0.1598  1.4728 -1.6576
  136MOL0     H17922   1.816   7.965   4.802 -0.3229  0.2589  0.3616
  136MOL0     H17923   1.765   8.125   4.756 -0.0056 -2.5472 -2.4778
  136MOL0     H17924   2.028   8.076   4.883  1.6842  0.8534 -1.6157
  136MOL0     H17925   1.952   8.235   4.893  0.8333 -1.2187  0.1411
  136MOL0     H17926   1.846   7.980   5.031 -0.7064 -0.1350 -0.1335
  136MOL0     H17927   1.793   8.149   5.052  2.0768  2.8627  1.8202
  136MOL0     H17928   1.989   8.200   5.155 -2.0895  1.1576  2.5948
  136MOL0     H17929   2.053   8.042   5.147  2.9361  4.5513 -0.5921
  136MOL0     H17930   1.787   8.076   5.291 -1.1601 -2.5532  0.9524
  136MOL0     H17931   1.912   7.962   5.326  1.6683  1.2396  0.9945
  136MOL0     H17932   1.964   8.262   5.403 -0.8992 -0.7754 -0.6480
  136MOL0     H17933   2.067   8.121   5.417 -0.3559 -1.8874 -0.4728
  136MOL0     H17934   1.622   8.307   4.447 -0.5358 -2.4059 -2.0235
  136MOL0     H17935   1.687   8.541   4.370 -2.7489 -3.0752 -2.3736
  136MOL0     H17936   2.242   8.839   4.209  0.0094  0.4517  0.4459
  136MOL0     H17937   2.258   9.012   4.035 -0.9270  0.4778  1.0246
  136MOL0     H17938   2.668  10.860   3.631  2.2317 -2.4715 -0.3072
  136MOL0     H17939   2.595  10.993   3.438 -0.8136 -0.7662  1.4398
  136MOL0     H17940   2.445  10.959   2.988 -0.5330 -0.5991  1.2011
  136MOL0     H17941   2.404  11.082   2.775  1.7211  0.0851 -2.0616
  136MOL0     H17942   2.357  11.305   2.682  0.5689 -1.3251  1.3275
  136MOL0     H17943   2.383  11.208   2.543  0.2994 -2.5376  3.4663
  136MOL0     H17944   2.456  11.501   2.580 -1.9127  1.2069 -0.4356
  136MOL0     H17945   2.505  11.410   2.438  0.4656  2.6259  0.8626
  136MOL0     H17946   2.211  11.465   2.535 -1.5299 -2.3448 -0.2152
  136MOL0     H17947   2.245  11.334   2.434 -2.6003  0.8048 -0.6677
  136MOL0     H17948   2.320  11.621   2.365  0.7970 -0.7603  1.0807
  136MOL0     H17949   2.371  11.494   2.259 -1.7251 -0.7945 -1.4257
  136MOL0     H17950   1.966  11.521   2.156 -0.0767  2.3110  0.4272
  136MOL0     H17951   2.728  11.342   2.839  0.4936 -0.5178 -0.3169
  136MOL0     H17952   2.789  11.227   3.036 -1.2730  1.0175  0.1710
  137MOL0     O17953   1.719   4.041   5.675 -0.2631  0.5185 -0.1293
  137MOL0     C17954   1.692   4.133   5.593 -0.2929 -0.4136  0.0084
  137MOL0     O17955   1.596   4.125   5.493  0.2606  0.4449  0.6963
  137MOL0     C17956   1.508   4.021   5.500  0.2535  1.4950  0.4986
  137MOL0     C17957   1.496   3.918   5.403  0.1576 -0.5048  0.3320
  137MOL0     C17958   1.413   3.809   5.418  0.0459  1.2660 -0.3218
  137MOL0     C17959   1.324   3.803   5.525 -0.0337 -1.0416  0.3105
  137MOL0     O17960   1.222   3.710   5.533  0.4604  0.2068 -0.6714
  137MOL0     C17961   1.240   3.584   5.468 -0.0275 -0.1377 -0.6460
  137MOL0     C17962   1.176   3.463   5.533  0.6671  0.5058  0.0999
  137MOL0     C17963   1.150   3.359   5.420 -0.6404  0.0041 -0.3432
  137MOL0     C17964   1.280   3.323   5.349 -0.8673 -0.0812 -0.6842
  137MOL0     C17965   1.273   3.199   5.269 -0.5200 -0.5753  0.3522
  137MOL0     C17966   1.196   3.229   5.138 -0.6304  0.8864 -0.3024
  137MOL0     C17967   1.194   3.123   5.025 -0.5787  0.0887  0.5893
  137MOL0     C17968   1.252   2.987   5.061 -1.1914 -0.8222  0.0017
  137MOL0     N17969   1.229   2.883   4.967 -0.5675  1.0592 -0.3117
  137MOL0     C17970   1.114   2.839   4.908 -0.4398  0.3288  0.6420
  137MOL0     C17971   1.146   2.716   4.857 -0.2568 -1.3585  0.2229
  137MOL0     C17972   1.047   2.655   4.768 -0.1596 -0.4529 -0.3276
  137MOL0     C17973   1.101   2.534   4.691  0.0860 -0.4393 -0.7756
  137MOL0     C17974   1.224   2.547   4.608 -1.3915 -0.2519  0.9033
  137MOL0     C17975   1.284   2.413   4.558 -0.6003  1.1937 -0.6505
  137MOL0     O17976   1.418   2.417   4.502 -0.0297 -1.1523 -0.8299
  137MOL0     C17977   1.529   2.388   4.585  0.0487 -0.9989  0.6371
  137MOL0     C17978   1.657   2.376   4.520  1.0124 -0.1161 -0.6524
  137MOL0     C17979   1.778   2.386   4.584  0.5626  1.1720  0.0932
  137MOL0     C17980   1.776   2.412   4.728  0.3592 -1.2624  0.2463
  137MOL0     C17981   1.894   2.462   4.801  0.0089  0.4961  0.3131
  137MOL0     O17982   2.015   2.440   4.747  0.0209  0.7533  0.1293
  137MOL0     C17983   2.127   2.485   4.818 -0.9435 -0.5667 -0.1016
  137MOL0     C17984   2.218   2.568   4.752  0.4770 -0.7142 -0.0050
  137MOL0     C17985   2.347   2.599   4.795  0.0031 -0.3368 -0.4009
  137MOL0     C17986   2.387   2.555   4.920  0.3153  0.8784 -0.0093
  137MOL0     O17987   2.509   2.573   4.982  0.8389  0.2312  0.2758
  137MOL0     C17988   2.595   2.678   4.922 -0.9227  1.2819 -0.2878
  137MOL0     C17989   2.538   2.823   4.952 -1.0703  0.0428  0.4571
  137MOL0     C17990   2.603   2.938   4.873  0.2782 -0.2733 -1.1851
  137MOL0     C17991   2.583   2.909   4.719  0.5696 -0.8695 -0.2582
  137MOL0     C17992   2.660   3.024   4.636  1.1372  0.1861  0.0183
  137MOL0     C17993   2.811   3.025   4.655  0.3967  0.4955  0.2521
  137MOL0     C17994   2.859   2.885   4.622 -0.7995  0.1374 -1.2144
  137MOL0     C17995   2.998   2.886   4.557 -0.1421  0.2188 -0.2901
  137MOL0    Cl17996   2.976   2.936   4.387  0.3538  0.0930 -0.0757
  137MOL0     C17997   2.297   2.467   4.987 -0.4226  0.1599  0.2945
  137MOL0     C17998   2.166   2.438   4.943  0.0779  0.3183  0.4520
  137MOL0     O17999   1.876   2.517   4.912  0.0187  0.6453  0.1604
  137MOL0     C18000   1.653   2.401   4.793  0.8354  0.7640  0.4387
  137MOL0     C18001   1.524   2.390   4.719 -0.6091  0.4886 -0.1415
  137MOL0     N18002   1.271   2.688   4.893 -0.1890  0.3075  0.3093
  137MOL0     N18003   1.319   2.780   4.968  0.2139 -0.1193 -0.6927
  137MOL0     C18004   1.329   3.900   5.622  0.5556 -0.2618 -0.0761
  137MOL0     C18005   1.420   4.003   5.610 -0.2789 -0.8941 -0.8879
  137MOL0     C18006   1.783   4.255   5.598 -0.7653 -0.2151  0.6065
  137MOL0     C18007   1.752   4.368   5.519  0.0115 -1.1165  0.2453
  137MOL0     C18008   1.826   4.485   5.529 -0.3699  0.7610  0.1148
  137MOL0     C18009   1.927   4.487   5.624  0.1856  0.2780  0.3663
  137MOL0     O18010   2.000   4.603   5.644 -0.3911 -0.0959 -0.4423
  137MOL0     C18011   1.999   4.711   5.563 -0.8250  0.4300  0.0804
  137MOL0     C18012   2.097   4.812   5.611 -0.2214 -0.7080 -0.1580
  137MOL0     C18013   2.101   4.833   5.769  0.8121 -0.0434  0.5601
  137MOL0     C18014   2.145   4.975   5.791  0.0606  0.2498 -0.7099
  137MOL0     C18015   2.274   4.999   5.738 -0.9318 -0.4984  0.3072
  137MOL0     C18016   2.388   5.023   5.707  0.5803 -0.7713  0.6377
  137MOL0     C18017   1.963   4.374   5.701 -0.1867 -0.2397 -0.8409
  137MOL0     C18018   1.891   4.255   5.689  0.5047 -0.2975  0.3407
  137MOL0     H18019   1.553   3.934   5.312 -1.1409  0.1393 -0.3912
  137MOL0     H18020   1.417   3.734   5.339 -3.7502 -1.3570  1.6626
  137MOL0     H18021   1.346   3.561   5.450  0.0564 -1.3646  1.1279
  137MOL0     H18022   1.187   3.601   5.374  0.6225  1.4672 -0.7496
  137MOL0     H18023   1.082   3.502   5.573  1.1176  1.5406  0.1868
  137MOL0     H18024   1.242   3.423   5.611  0.4602 -1.0992 -0.5309
  137MOL0     H18025   1.067   3.400   5.361 -1.4725 -0.1798  0.6554
  137MOL0     H18026   1.102   3.268   5.457 -1.6372  0.3212 -0.7996
  137MOL0     H18027   1.314   3.404   5.284 -1.5528 -0.1911 -1.1872
  137MOL0     H18028   1.355   3.315   5.428 -0.6661 -0.1529 -0.8851
  137MOL0     H18029   1.225   3.115   5.320 -2.0982 -0.1561 -0.3695
  137MOL0     H18030   1.375   3.163   5.249 -0.5522 -1.0939  1.0831
  137MOL0     H18031   1.250   3.312   5.089  0.4868 -0.1751 -0.9348
  137MOL0     H18032   1.092   3.248   5.166 -0.8746  1.4542 -1.5024
  137MOL0     H18033   1.092   3.096   4.994 -0.5328 -0.2963  0.7709
  137MOL0     H18034   1.243   3.177   4.943  1.8929  1.0754  2.5986
  137MOL0     H18035   1.220   2.952   5.160 -1.4240 -2.6120 -0.6601
  137MOL0     H18036   1.360   3.004   5.061 -1.0589 -0.1152 -4.9329
  137MOL0     H18037   1.020   2.894   4.906 -0.8063 -0.2730 -1.6311
  137MOL0     H18038   1.026   2.734   4.696 -1.9145 -1.8252 -1.3959
  137MOL0     H18039   0.951   2.635   4.816  0.2117  2.6251  1.9783
  137MOL0     H18040   1.020   2.515   4.619 -1.9751 -0.8757  1.4926
  137MOL0     H18041   1.113   2.451   4.762 -2.3018  0.1204  0.3880
  137MOL0     H18042   1.195   2.608   4.522  0.3516 -0.6930 -0.0625
  137MOL0     H18043   1.307   2.592   4.663 -0.0201 -2.3255  0.6619
  137MOL0     H18044   1.220   2.372   4.479  0.9649  0.5205 -1.6228
  137MOL0     H18045   1.272   2.341   4.639 -1.2481  0.0554 -1.7180
  137MOL0     H18046   1.660   2.365   4.412 -0.5624  4.0532 -1.3135
  137MOL0     H18047   1.872   2.384   4.531 -0.5750  0.3258 -2.0072
  137MOL0     H18048   2.192   2.607   4.655  0.6026 -0.1075  0.2018
  137MOL0     H18049   2.416   2.667   4.747  0.0278  0.8493  1.2380
  137MOL0     H18050   2.602   2.649   4.817 -2.1164 -0.6168  0.0995
  137MOL0     H18051   2.694   2.673   4.968 -0.0786 -1.8902 -2.0987
  137MOL0     H18052   2.545   2.836   5.061  1.5895  0.4729  0.3096
  137MOL0     H18053   2.432   2.842   4.933 -1.4165 -2.3347 -0.2701
  137MOL0     H18054   2.707   2.953   4.900 -0.0618  0.8653 -0.4770
  137MOL0     H18055   2.549   3.030   4.898  1.1121 -0.3737  1.2128
  137MOL0     H18056   2.611   2.807   4.694 -1.1128 -1.8725  1.6375
  137MOL0     H18057   2.475   2.902   4.698  0.0030 -1.6804  2.4475
  137MOL0     H18058   2.613   3.120   4.660 -0.7018 -0.5943 -0.2401
  137MOL0     H18059   2.646   2.992   4.532  0.8860 -1.7611  0.6049
  137MOL0     H18060   2.845   3.043   4.758 -0.2807 -0.3348  0.6272
  137MOL0     H18061   2.864   3.099   4.593  0.7095 -1.4024 -1.8948
  137MOL0     H18062   2.867   2.832   4.718 -1.1965  2.7390  0.3689
  137MOL0     H18063   2.786   2.836   4.558 -0.2768 -2.8630  0.3129
  137MOL0     H18064   3.038   2.784   4.560 -0.3720  0.0480 -2.0845
  137MOL0     H18065   3.063   2.961   4.602 -1.5811  2.0253 -1.1042
  137MOL0     H18066   2.329   2.420   5.079 -1.7218 -1.5392 -0.0852
  137MOL0     H18067   2.106   2.372   5.006 -0.8569  2.5236  2.0206
  137MOL0     H18068   1.649   2.429   4.898  2.8415  0.0965  0.7341
  137MOL0     H18069   1.428   2.419   4.761 -0.0283  0.4721  1.2235
  137MOL0     H18070   1.263   3.894   5.708  0.4208  0.4457 -0.1197
  137MOL0     H18071   1.428   4.073   5.692  1.4194 -0.1796 -1.6041
  137MOL0     H18072   1.659   4.383   5.465  0.7413 -3.5859 -1.9092
  137MOL0     H18073   1.803   4.577   5.476  1.6083  2.0420  1.3276
  137MOL0     H18074   1.901   4.760   5.551 -1.2411 -0.7844 -2.2044
  137MOL0     H18075   2.015   4.687   5.457  3.6805  0.8755  0.5035
  137MOL0     H18076   2.195   4.800   5.563 -2.1438  3.5170 -6.3815
  137MOL0     H18077   2.068   4.907   5.566  3.9855  0.7131 -0.3558
  137MOL0     H18078   2.168   4.762   5.819  2.1292  1.6294  1.2543
  137MOL0     H18079   2.004   4.825   5.818  1.4038  2.6139  2.3769
  137MOL0     H18080   2.076   5.050   5.749  0.8759  0.5270 -1.5780
  137MOL0     H18081   2.141   4.977   5.901  0.8360 -0.1666 -0.6717
  137MOL0     H18082   2.490   5.042   5.681  0.2441  0.6436  0.2795
  137MOL0     H18083   2.046   4.387   5.770  0.3705 -1.6694 -1.2201
  137MOL0     H18084   1.908   4.169   5.753  0.3835  2.0530  3.8403
  138MOL0     O18085   9.454   4.983   5.220  0.1758 -0.6164 -0.3113
  138MOL0     C18086   9.390   5.053   5.140  0.1680 -0.0177 -0.2114
  138MOL0     O18087   9.275   5.012   5.077  0.3383  0.0968  0.2446
  138MOL0     C18088   9.215   4.890   5.096  0.6017 -0.9404 -1.0821
  138MOL0     C18089   9.137   4.843   4.986  0.2148 -0.7879  0.5108
  138MOL0     C18090   9.091   4.713   4.977 -0.6278  0.7170 -0.1180
  138MOL0     C18091   9.099   4.632   5.098  0.1979 -0.1542 -1.4291
  138MOL0     O18092   9.054   4.502   5.108  0.6663 -0.5662  0.1610
  138MOL0     C18093   8.989   4.458   5.235  0.4771  0.1605  0.3405
  138MOL0     C18094   8.861   4.543   5.260 -0.3790 -0.3034  0.1990
  138MOL0     C18095   8.761   4.455   5.327  0.4399 -0.6409 -0.5989
  138MOL0     C18096   8.635   4.538   5.360 -0.6238 -0.4231  0.0232
  138MOL0     C18097   8.506   4.473   5.297  0.2327  0.8450 -0.5757
  138MOL0     C18098   8.384   4.569   5.307 -0.4861  0.6138  0.7955
  138MOL0     C18099   8.380   4.707   5.237  0.1801  0.0804  0.5525
  138MOL0     C18100   8.377   4.832   5.322  0.4274  0.8222 -0.2399
  138MOL0     N18101   8.356   4.961   5.259  1.0160 -0.1421 -0.1971
  138MOL0     C18102   8.235   5.033   5.254  0.5086  0.4994  0.8119
  138MOL0     C18103   8.255   5.130   5.162 -0.2763 -1.1660 -0.2984
  138MOL0     C18104   8.160   5.236   5.135  0.3667  1.0937  0.6227
  138MOL0     C18105   8.113   5.236   4.983 -0.3212 -0.4885 -0.3809
  138MOL0     C18106   8.031   5.366   4.937  0.5256 -1.0750  0.3504
  138MOL0     C18107   7.944   5.337   4.821  0.0492  0.5283  1.1994
  138MOL0     O18108   7.933   5.456   4.740 -0.3467 -1.0822 -0.8344
  138MOL0     C18109   7.826   5.455   4.651 -0.0994 -1.1612  0.9208
  138MOL0     C18110   7.714   5.542   4.663  0.2292  0.3322 -0.1971
  138MOL0     C18111   7.598   5.534   4.584  0.3150 -0.4411  1.0880
  138MOL0     C18112   7.597   5.465   4.463 -0.6909  0.6617  0.1724
  138MOL0     C18113   7.483   5.458   4.370 -1.0842  0.3912 -0.3725
  138MOL0     O18114   7.365   5.501   4.420 -0.6932 -0.0003 -0.2042
  138MOL0     C18115   7.267   5.526   4.327 -0.0721 -0.6086  0.3935
  138MOL0     C18116   7.232   5.654   4.272 -0.5394  0.9815 -0.5627
  138MOL0     C18117   7.115   5.667   4.190 -0.3602  0.0963 -0.3762
  138MOL0     C18118   7.036   5.562   4.157  0.6068 -0.1136 -0.5584
  138MOL0     O18119   6.923   5.560   4.087 -0.6810  0.3418  0.0405
  138MOL0     C18120   6.893   5.675   4.010  0.4062 -0.2725  0.3151
  138MOL0     C18121   6.807   5.772   4.088 -0.0197 -0.7727 -0.1182
  138MOL0     C18122   6.685   5.719   4.156 -0.3303 -0.2033  1.2202
  138MOL0     C18123   6.582   5.684   4.050 -0.1373  0.4312 -0.0063
  138MOL0     C18124   6.448   5.630   4.101  0.0808  0.3752  0.4620
  138MOL0     C18125   6.469   5.485   4.143 -0.1821  0.1306  0.7958
  138MOL0     C18126   6.337   5.427   4.188 -0.9370 -0.7473  0.0944
  138MOL0     C18127   6.255   5.354   4.084 -0.7778 -0.2498 -0.5125
  138MOL0    Cl18128   6.104   5.295   4.139  0.0741  0.1087  0.0882
  138MOL0     C18129   7.067   5.443   4.219 -0.9191  0.3433  0.8290
  138MOL0     C18130   7.184   5.415   4.299 -0.7219  0.3317 -0.2355
  138MOL0     O18131   7.497   5.413   4.252 -0.3370 -0.0562  0.2675
  138MOL0     C18132   7.721   5.391   4.441 -0.1802  1.3273  0.8040
  138MOL0     C18133   7.823   5.374   4.538  0.4531  0.0453 -0.0634
  138MOL0     N18134   8.389   5.123   5.117 -0.0082 -0.0443 -0.4240
  138MOL0     N18135   8.446   5.025   5.181  0.3968  1.5681  0.0723
  138MOL0     C18136   9.170   4.686   5.208 -0.0241  0.1533  0.4400
  138MOL0     C18137   9.221   4.810   5.205 -0.9762  0.4621 -1.0109
  138MOL0     C18138   9.438   5.185   5.108  0.0518 -0.2693  0.3220
  138MOL0     C18139   9.401   5.257   4.989  0.8890  0.4605  0.1645
  138MOL0     C18140   9.453   5.386   4.971 -0.4763 -0.2100 -0.6029
  138MOL0     C18141   9.540   5.449   5.058 -0.1183  0.5519 -0.3309
  138MOL0     O18142   9.629   5.555   5.034  0.1322 -1.0976 -0.2166
  138MOL0     C18143   9.561   5.679   4.987  0.9226  0.0841  0.3949
  138MOL0     C18144   9.675   5.782   4.987 -0.5587 -0.6243  0.3971
  138MOL0     C18145   9.627   5.911   4.941 -0.8444  0.1355 -0.2760
  138MOL0     C18146   9.731   6.029   4.939  0.4226 -0.6831  0.5207
  138MOL0     C18147   9.778   6.080   5.077  0.6912 -0.8617 -0.6518
  138MOL0     C18148   9.810   6.112   5.188 -0.5528 -0.4343  1.0795
  138MOL0     C18149   9.575   5.377   5.182  0.4755  0.0429 -0.8206
  138MOL0     C18150   9.522   5.253   5.197  0.0742 -0.0274  0.0306
  138MOL0     H18151   9.136   4.901   4.894  2.3125 -0.4254  0.6655
  138MOL0     H18152   9.034   4.676   4.893 -0.7484 -2.0802  1.1081
  138MOL0     H18153   9.053   4.480   5.321 -2.4324  2.8177  2.0205
  138MOL0     H18154   8.965   4.352   5.229 -1.8354  0.6218  0.6367
  138MOL0     H18155   8.826   4.573   5.161 -1.3608  2.4028  1.2594
  138MOL0     H18156   8.886   4.632   5.318  0.8080 -2.2584  2.9055
  138MOL0     H18157   8.799   4.406   5.417  2.8582 -2.4532 -2.4576
  138MOL0     H18158   8.723   4.374   5.263 -1.7718 -0.3855  0.3123
  138MOL0     H18159   8.633   4.543   5.469  2.8510 -0.3308  0.2130
  138MOL0     H18160   8.652   4.644   5.338 -1.3944  0.1204  1.8461
  138MOL0     H18161   8.471   4.379   5.341  0.4395  0.7165 -0.6868
  138MOL0     H18162   8.530   4.445   5.194 -1.8557 -1.7460 -0.4627
  138MOL0     H18163   8.347   4.572   5.411 -1.9439 -1.9368  0.4192
  138MOL0     H18164   8.302   4.509   5.267  2.7075 -2.2438 -2.1350
  138MOL0     H18165   8.468   4.709   5.172  1.0801 -0.0483  1.7389
  138MOL0     H18166   8.290   4.705   5.175  1.3314  0.4159 -1.2122
  138MOL0     H18167   8.476   4.832   5.368  0.4356  1.0633 -0.2564
  138MOL0     H18168   8.297   4.822   5.395 -0.2953  0.0902 -1.1125
  138MOL0     H18169   8.141   5.021   5.307 -0.0071 -1.2845 -0.4004
  138MOL0     H18170   8.213   5.327   5.163  2.3261 -0.4936  2.4350
  138MOL0     H18171   8.076   5.239   5.205  0.4968  2.1449  0.7421
  138MOL0     H18172   8.040   5.156   4.963 -0.7060  0.4354 -3.0714
  138MOL0     H18173   8.199   5.220   4.918 -0.1216 -2.7723  0.3584
  138MOL0     H18174   7.956   5.386   5.013  1.2540  4.7892  0.0106
  138MOL0     H18175   8.085   5.458   4.910 -0.2201  0.0228  2.4306
  138MOL0     H18176   7.842   5.304   4.843  0.9516 -3.2424  0.4107
  138MOL0     H18177   7.987   5.258   4.757 -0.1594  1.6789 -0.4279
  138MOL0     H18178   7.729   5.609   4.747  4.0973 -0.9740  0.3272
  138MOL0     H18179   7.508   5.583   4.618 -0.2233 -1.4152  1.0978
  138MOL0     H18180   7.298   5.739   4.289 -0.1937  0.7819 -0.9083
  138MOL0     H18181   7.083   5.769   4.173  0.0731 -0.1983 -3.4170
  138MOL0     H18182   6.839   5.648   3.919  0.2052  2.4060 -0.4469
  138MOL0     H18183   6.991   5.715   3.980 -0.0275  0.9947  0.5343
  138MOL0     H18184   6.777   5.852   4.020 -0.4754 -1.0013 -0.1868
  138MOL0     H18185   6.862   5.819   4.171 -0.6421  2.4954 -1.3845
  138MOL0     H18186   6.646   5.796   4.223 -0.2523  0.3046  0.6928
  138MOL0     H18187   6.708   5.628   4.213 -1.0047 -2.8186 -2.3118
  138MOL0     H18188   6.557   5.775   3.995  0.2985 -1.8727 -4.3914
  138MOL0     H18189   6.615   5.623   3.966  0.8649 -0.4177  0.9668
  138MOL0     H18190   6.374   5.634   4.020 -0.9366  0.4042  1.3822
  138MOL0     H18191   6.399   5.691   4.177  0.6907  1.2418  0.1773
  138MOL0     H18192   6.543   5.469   4.222  1.8113  0.3066 -0.9612
  138MOL0     H18193   6.501   5.429   4.054  0.4721  0.2434  0.9518
  138MOL0     H18194   6.362   5.344   4.255  0.1360 -0.0253  0.6272
  138MOL0     H18195   6.284   5.510   4.234  0.9013  0.6909 -0.2645
  138MOL0     H18196   6.311   5.280   4.026 -1.7128 -1.1952 -0.2418
  138MOL0     H18197   6.213   5.421   4.010 -0.9081  1.7364  1.2677
  138MOL0     H18198   7.005   5.359   4.191  1.8176 -1.5624  0.0427
  138MOL0     H18199   7.218   5.324   4.347  0.7642  0.5078 -0.8922
  138MOL0     H18200   7.734   5.336   4.348  0.3631  3.5271 -0.4982
  138MOL0     H18201   7.905   5.309   4.510 -1.3861 -1.5050 -2.3045
  138MOL0     H18202   9.188   4.631   5.300  2.1996  2.8772  1.8090
  138MOL0     H18203   9.270   4.847   5.295  1.1037 -0.4820 -1.6838
  138MOL0     H18204   9.344   5.210   4.910  0.2902  0.0570  0.8202
  138MOL0     H18205   9.451   5.431   4.872  3.5608 -0.5485 -1.0120
  138MOL0     H18206   9.482   5.717   5.052  2.7372  3.1772  1.0358
  138MOL0     H18207   9.523   5.676   4.884  2.4991  2.3517 -0.3373
  138MOL0     H18208   9.722   5.786   5.086 -2.3992  0.1821  1.2818
  138MOL0     H18209   9.748   5.747   4.913 -1.2114 -0.6785 -0.2310
  138MOL0     H18210   9.541   5.950   4.998 -0.9861  3.0543 -2.2768
  138MOL0     H18211   9.580   5.885   4.846 -2.3421  0.0512  0.4499
  138MOL0     H18212   9.806   5.989   4.870  0.6334 -2.8651  1.9255
  138MOL0     H18213   9.692   6.116   4.885 -0.6452  0.0366  2.3690
  138MOL0     H18214   9.816   6.150   5.288 -0.3567  2.3199  0.1069
  138MOL0     H18215   9.657   5.408   5.245  1.0858  1.5738 -2.2843
  138MOL0     H18216   9.559   5.209   5.288 -0.8782 -1.9586 -0.4541
  139MOL0     O18217   4.167   3.461   3.832 -0.0480  0.2715 -0.1300
  139MOL0     C18218   4.093   3.419   3.746  0.0258 -0.0307 -0.1583
  139MOL0     O18219   4.101   3.294   3.698 -0.3779 -0.0656  0.3077
  139MOL0     C18220   4.220   3.226   3.680 -0.0209 -0.1246 -0.0472
  139MOL0     C18221   4.350   3.276   3.675 -0.1937 -0.3982 -0.0995
  139MOL0     C18222   4.465   3.188   3.677  1.0956 -0.2546 -0.0316
  139MOL0     C18223   4.441   3.052   3.647  0.1763  0.5816 -0.2572
  139MOL0     O18224   4.533   2.953   3.636  0.0607  0.4559  1.0813
  139MOL0     C18225   4.617   2.952   3.522  0.0779  0.4503  0.6948
  139MOL0     C18226   4.722   2.852   3.552 -0.2588  0.5577 -0.6577
  139MOL0     C18227   4.689   2.720   3.491  0.2643 -0.0969 -1.0925
  139MOL0     C18228   4.790   2.621   3.517  0.1613  0.9890 -0.3242
  139MOL0     C18229   4.766   2.489   3.437  0.4852 -0.1632 -1.7363
  139MOL0     C18230   4.666   2.387   3.516 -0.3036 -0.0227 -0.2124
  139MOL0     C18231   4.681   2.379   3.667  1.2289  0.6071  0.5010
  139MOL0     C18232   4.825   2.325   3.683  0.3665 -0.1231 -0.7037
  139MOL0     N18233   4.860   2.313   3.827 -0.1344 -0.0700 -0.3272
  139MOL0     C18234   4.934   2.405   3.889  0.4619  0.2183 -0.2589
  139MOL0     C18235   4.910   2.389   4.018  1.0841  0.9896  0.1096
  139MOL0     C18236   4.966   2.470   4.127  0.4693  0.1903  0.0670
  139MOL0     C18237   5.022   2.363   4.233  0.1668  0.0035 -0.8662
  139MOL0     C18238   5.126   2.266   4.177 -0.0225  0.2557 -0.2830
  139MOL0     C18239   5.179   2.163   4.291  1.7700 -0.1336  1.0599
  139MOL0     O18240   5.236   2.239   4.395  0.0939  0.0988  0.6397
  139MOL0     C18241   5.174   2.279   4.511 -0.0704 -0.1864  1.2044
  139MOL0     C18242   5.056   2.235   4.570  0.0183 -0.7364  0.4072
  139MOL0     C18243   5.025   2.276   4.695 -0.3146  0.2873  0.3366
  139MOL0     C18244   5.109   2.364   4.764 -0.2724 -0.6279 -0.1545
  139MOL0     C18245   5.077   2.417   4.893  0.2200  0.0711  0.7972
  139MOL0     O18246   5.151   2.533   4.924  0.3218 -0.1457 -1.1154
  139MOL0     C18247   5.128   2.602   5.045  0.3581  0.9068  0.4870
  139MOL0     C18248   4.995   2.619   5.096  0.5523 -0.6790 -1.0946
  139MOL0     C18249   4.983   2.692   5.211 -0.9263  0.5662 -0.2066
  139MOL0     C18250   5.097   2.748   5.277 -0.5851 -0.0422  0.3262
  139MOL0     O18251   5.069   2.831   5.382 -0.0205  1.1202 -0.5778
  139MOL0     C18252   5.158   2.946   5.386 -0.8138  0.8816  0.2787
  139MOL0     C18253   5.144   3.042   5.267  0.5778  0.2348  0.9896
  139MOL0     C18254   4.993   3.081   5.257 -0.4893 -0.3740 -0.1065
  139MOL0     C18255   4.972   3.192   5.157  0.4728 -0.8979  0.3204
  139MOL0     C18256   4.828   3.189   5.111  0.4209 -0.0981 -0.1929
  139MOL0     C18257   4.789   3.086   5.000  0.0466  0.3025 -1.1389
  139MOL0     C18258   4.846   3.113   4.862  1.2026  0.0240  0.5821
  139MOL0     C18259   4.777   3.224   4.789  0.1321 -0.2425 -0.9354
  139MOL0    Cl18260   4.838   3.246   4.622 -0.3409  0.1333 -0.1744
  139MOL0     C18261   5.225   2.720   5.235 -0.3167 -0.4901  0.6622
  139MOL0     C18262   5.235   2.649   5.117  0.2269  0.2142  0.1032
  139MOL0     O18263   4.973   2.370   4.944  0.3667 -0.3814 -0.0725
  139MOL0     C18264   5.232   2.400   4.710 -0.0713 -1.2938  1.4336
  139MOL0     C18265   5.259   2.362   4.578 -0.3192  0.2444 -0.0069
  139MOL0     N18266   4.822   2.280   4.034 -0.6506  0.2935  0.4856
  139MOL0     N18267   4.795   2.237   3.920 -0.7300  0.7573 -0.6782
  139MOL0     C18268   4.307   3.004   3.625 -0.4521  0.4789  1.0223
  139MOL0     C18269   4.209   3.091   3.658 -0.4543  0.3178  0.6138
  139MOL0     C18270   3.980   3.497   3.690 -0.0233  0.1329 -0.0605
  139MOL0     C18271   3.935   3.612   3.757 -0.3762 -0.2078  0.1083
  139MOL0     C18272   3.819   3.672   3.721 -0.0331 -0.0756 -0.7483
  139MOL0     C18273   3.753   3.625   3.612 -0.8521 -0.3868 -0.1731
  139MOL0     O18274   3.640   3.678   3.559  0.2371  0.1969  0.0893
  139MOL0     C18275   3.623   3.821   3.524 -0.0743  0.1415 -0.2500
  139MOL0     C18276   3.628   3.836   3.381  0.6432 -0.6790 -0.0279
  139MOL0     C18277   3.761   3.818   3.317  0.6253  0.7690  0.3775
  139MOL0     C18278   3.865   3.931   3.333  0.2517 -1.0303 -0.0786
  139MOL0     C18279   3.940   3.923   3.452 -0.1192  0.8862  0.4220
  139MOL0     C18280   4.003   3.918   3.556 -0.7075  0.6832 -0.1511
  139MOL0     C18281   3.805   3.523   3.538  0.5318  1.1526  0.4693
  139MOL0     C18282   3.912   3.457   3.568 -0.7223  0.9402  0.3068
  139MOL0     H18283   4.381   3.378   3.695  3.7929 -1.7553  1.9195
  139MOL0     H18284   4.562   3.236   3.692  0.7516  0.8887 -1.3004
  139MOL0     H18285   4.659   3.052   3.504 -2.3438  1.5417  0.7876
  139MOL0     H18286   4.581   2.924   3.423  2.2266 -0.0148 -0.0246
  139MOL0     H18287   4.736   2.844   3.660  4.9701  1.0725 -1.0336
  139MOL0     H18288   4.814   2.901   3.520 -0.7134  2.1207  0.3154
  139MOL0     H18289   4.672   2.727   3.383  0.8217  2.7528 -1.0677
  139MOL0     H18290   4.589   2.699   3.529 -1.2759  2.3002 -3.4234
  139MOL0     H18291   4.882   2.668   3.480 -0.3015 -0.0535 -3.0270
  139MOL0     H18292   4.820   2.602   3.621  0.8780 -0.6215 -0.7941
  139MOL0     H18293   4.855   2.427   3.419  0.0179 -1.4250  0.0358
  139MOL0     H18294   4.723   2.525   3.344  0.8114 -0.0245 -1.8367
  139MOL0     H18295   4.670   2.286   3.475  1.3755 -0.3959  0.7889
  139MOL0     H18296   4.564   2.417   3.490 -0.4233  2.2432  2.4584
  139MOL0     H18297   4.672   2.472   3.723  3.1206  1.5630 -0.6669
  139MOL0     H18298   4.615   2.297   3.698  0.5076  0.4464 -1.2914
  139MOL0     H18299   4.901   2.392   3.642 -1.2032  5.1860  3.7289
  139MOL0     H18300   4.836   2.225   3.640  1.0271 -0.1796 -0.4216
  139MOL0     H18301   4.991   2.484   3.841 -1.3560 -0.0148 -3.0728
  139MOL0     H18302   4.883   2.519   4.179  1.0398 -1.0630  2.2910
  139MOL0     H18303   5.038   2.543   4.091 -4.2438  5.1994 -0.4299
  139MOL0     H18304   4.932   2.305   4.257  1.0906 -3.5379 -4.8471
  139MOL0     H18305   5.061   2.413   4.323 -0.7071 -0.0759 -0.4318
  139MOL0     H18306   5.081   2.207   4.097 -1.7468 -0.4174  1.1040
  139MOL0     H18307   5.208   2.321   4.130  1.3572 -0.6426  0.9773
  139MOL0     H18308   5.247   2.089   4.248  0.7532 -1.8709  2.2965
  139MOL0     H18309   5.094   2.102   4.322 -1.1950  1.0468 -3.7733
  139MOL0     H18310   4.992   2.163   4.521  1.4306 -0.5425 -1.8678
  139MOL0     H18311   4.935   2.232   4.737  0.0047 -2.8481 -1.8699
  139MOL0     H18312   4.907   2.579   5.048 -0.9219 -0.6178  1.3693
  139MOL0     H18313   4.884   2.712   5.252 -1.2718 -0.8942 -0.2627
  139MOL0     H18314   5.261   2.913   5.398 -1.2328 -3.4124 -4.4044
  139MOL0     H18315   5.129   2.996   5.479 -2.3837  0.5898 -0.0165
  139MOL0     H18316   5.190   3.007   5.175 -1.7136  0.1986 -0.1925
  139MOL0     H18317   5.197   3.130   5.307 -1.3430  1.9111 -0.0184
  139MOL0     H18318   4.944   3.105   5.352  0.9216 -0.0005  0.5590
  139MOL0     H18319   4.936   2.994   5.224  0.5681 -1.8431  1.7606
  139MOL0     H18320   4.979   3.288   5.208 -2.0675  1.6612 -3.5822
  139MOL0     H18321   5.043   3.196   5.075  0.4396  4.0440  0.2455
  139MOL0     H18322   4.803   3.284   5.062  1.5866 -0.6376 -1.9515
  139MOL0     H18323   4.761   3.166   5.194 -1.7847  0.1942 -1.8089
  139MOL0     H18324   4.683   3.059   4.996  0.4873 -1.6825 -0.7045
  139MOL0     H18325   4.843   3.003   5.047  1.0516  1.5539  0.0273
  139MOL0     H18326   4.949   3.144   4.880 -0.0502  3.4869  2.8184
  139MOL0     H18327   4.845   3.020   4.804 -1.6828  0.4686 -0.2362
  139MOL0     H18328   4.782   3.320   4.841  1.1556 -0.4208 -0.6935
  139MOL0     H18329   4.671   3.195   4.792 -0.4921  1.7457 -1.9701
  139MOL0     H18330   5.315   2.757   5.283 -0.2143 -0.0920  0.1770
  139MOL0     H18331   5.331   2.621   5.076  0.0973 -0.2738  0.1277
  139MOL0     H18332   5.307   2.463   4.756 -0.1587  0.4719 -0.7237
  139MOL0     H18333   5.357   2.390   4.540 -0.4845 -1.0319 -1.4695
  139MOL0     H18334   4.288   2.900   3.603 -1.8883  1.1073 -0.9985
  139MOL0     H18335   4.109   3.048   3.666 -0.6336  1.0668  3.7208
  139MOL0     H18336   3.990   3.646   3.844 -0.3684 -1.0336  0.4351
  139MOL0     H18337   3.784   3.736   3.801  0.4278 -3.2240  2.1769
  139MOL0     H18338   3.704   3.880   3.567  1.5144 -1.1537 -1.3246
  139MOL0     H18339   3.525   3.852   3.562  0.9858  2.4141  0.8211
  139MOL0     H18340   3.558   3.768   3.332 -1.1566  2.3993 -2.1553
  139MOL0     H18341   3.591   3.938   3.361 -0.6175 -1.1252 -0.0846
  139MOL0     H18342   3.751   3.795   3.211  0.8195 -2.1527  0.9196
  139MOL0     H18343   3.805   3.722   3.344 -1.1780 -1.3018 -3.3406
  139MOL0     H18344   3.945   3.916   3.259  0.2500 -0.0200 -0.3041
  139MOL0     H18345   3.809   4.024   3.315 -0.0608 -1.1639  0.1990
  139MOL0     H18346   4.052   3.910   3.651  3.2150  1.2772 -1.9226
  139MOL0     H18347   3.759   3.495   3.444 -0.3643  0.0467  1.2050
  139MOL0     H18348   3.945   3.374   3.507  2.1466  0.9655  1.6976
  140MOL0     O18349   2.882  10.396  10.636 -0.0980  0.1951  0.9995
  140MOL0     C18350   2.821  10.334  10.549  1.0915  0.0828 -0.3298
  140MOL0     O18351   2.871  10.228  10.477  0.3191 -0.9340 -0.0049
  140MOL0     C18352   2.970  10.159  10.543 -0.0636 -0.1183 -0.4122
  140MOL0     C18353   3.093  10.219  10.562  0.8464 -0.6061 -0.8012
  140MOL0     C18354   3.197  10.154  10.638 -0.2570  0.3284 -0.3038
  140MOL0     C18355   3.179  10.028  10.692  0.1251  0.8785 -0.7592
  140MOL0     O18356   3.281   9.967  10.759  0.0543  0.9106  0.4848
  140MOL0     C18357   3.374   9.890  10.681  0.3364  0.7863 -0.1193
  140MOL0     C18358   3.472   9.968  10.597  0.1748 -0.4741  0.0828
  140MOL0     C18359   3.595  10.015  10.680  0.3348 -0.0127  1.1677
  140MOL0     C18360   3.674  10.116  10.587 -0.1570  0.0337 -0.2285
  140MOL0     C18361   3.804  10.175  10.660 -0.8364  0.8377 -0.4562
  140MOL0     C18362   3.879  10.254  10.560  0.0051 -1.1285 -0.5187
  140MOL0     C18363   3.994  10.325  10.626 -0.2136 -0.0365  0.3125
  140MOL0     C18364   4.083  10.406  10.533  0.5433 -0.7584  0.1004
  140MOL0     N18365   4.007  10.504  10.454 -0.1394 -0.4690 -0.2985
  140MOL0     C18366   3.924  10.601  10.514 -0.5306  0.0115  0.5996
  140MOL0     C18367   3.847  10.652  10.407  0.1767  0.8504 -0.8840
  140MOL0     C18368   3.747  10.764  10.396 -0.6263  0.3912 -0.1746
  140MOL0     C18369   3.666  10.802  10.522  0.6931  0.9193  0.2239
  140MOL0     C18370   3.753  10.869  10.630 -0.2116  0.2524 -0.1887
  140MOL0     C18371   3.689  10.873  10.769  0.4637 -0.6898  0.7218
  140MOL0     O18372   3.668  10.738  10.813 -0.3624 -0.2201  0.4739
  140MOL0     C18373   3.775  10.663  10.851 -0.3427 -0.4656 -0.1529
  140MOL0     C18374   3.908  10.696  10.857 -0.6141  0.4605  0.5522
  140MOL0     C18375   4.013  10.606  10.909  0.6760 -0.4043  0.3690
  140MOL0     C18376   3.971  10.485  10.964  0.0329  0.0757  0.5077
  140MOL0     C18377   4.068  10.387  11.014  0.3788 -0.0366 -0.4015
  140MOL0     O18378   4.022  10.265  11.041 -0.5491  0.4391 -0.1168
  140MOL0     C18379   4.091  10.182  11.125 -0.3085  1.2183 -0.0540
  140MOL0     C18380   4.194  10.103  11.066  0.1237 -0.3989  0.0876
  140MOL0     C18381   4.251   9.998  11.139 -0.2814  0.0417 -0.2450
  140MOL0     C18382   4.200   9.964  11.268 -0.3843  0.4503  0.2687
  140MOL0     O18383   4.252   9.870  11.353  0.5498  0.5240 -0.5892
  140MOL0     C18384   4.348   9.772  11.311 -0.1168 -0.0559 -0.8059
  140MOL0     C18385   4.270   9.670  11.238  0.7436 -0.0660  1.2796
  140MOL0     C18386   4.157   9.617  11.327 -1.2692 -0.1281 -0.1693
  140MOL0     C18387   4.088   9.502  11.254 -0.6068  0.0805  0.6408
  140MOL0     C18388   3.946   9.479  11.315  0.8997  0.4218 -0.8565
  140MOL0     C18389   3.870   9.366  11.234 -0.4838 -0.6265 -0.5858
  140MOL0     C18390   3.773   9.306  11.339 -0.2174  0.3862 -0.1479
  140MOL0     C18391   3.712   9.182  11.275 -0.3548 -1.4590 -0.1599
  140MOL0    Cl18392   3.632   9.207  11.109  0.4343  0.3543  0.3570
  140MOL0     C18393   4.099  10.044  11.324  0.1415 -1.1143  0.8882
  140MOL0     C18394   4.037  10.153  11.256 -0.5211  0.3353  0.3534
  140MOL0     O18395   4.170  10.442  11.055 -0.7561  0.7277  0.4417
  140MOL0     C18396   3.840  10.442  10.935 -0.1796  0.0415 -0.1595
  140MOL0     C18397   3.740  10.530  10.884  0.4267  0.3806 -0.4939
  140MOL0     N18398   3.886  10.591  10.288 -0.3534  0.9725 -0.1012
  140MOL0     N18399   3.994  10.509  10.317  0.2664 -0.8474  0.8068
  140MOL0     C18400   3.049   9.974  10.689 -0.4134  0.1494 -0.8427
  140MOL0     C18401   2.953  10.040  10.610  0.0969 -0.2705 -0.2909
  140MOL0     C18402   2.692  10.387  10.509 -0.4617 -0.2284  0.2513
  140MOL0     C18403   2.602  10.291  10.451 -0.1334  0.2489  0.0973
  140MOL0     C18404   2.489  10.329  10.375  0.1576  0.5774  0.5009
  140MOL0     C18405   2.460  10.461  10.364 -0.5937 -0.4063 -0.1144
  140MOL0     O18406   2.358  10.498  10.287 -0.4527 -0.3584  0.1997
  140MOL0     C18407   2.226  10.441  10.288 -0.1752 -0.1598 -0.1548
  140MOL0     C18408   2.206  10.330  10.188 -0.1762 -1.2045  0.1956
  140MOL0     C18409   2.072  10.266  10.175  0.9168 -0.7121  0.4564
  140MOL0     C18410   1.954  10.368  10.127  0.1551 -0.1063 -0.5769
  140MOL0     C18411   2.003  10.419   9.999 -0.0974 -0.4206 -0.4141
  140MOL0     C18412   2.064  10.479   9.909 -1.0569  0.6154 -0.6863
  140MOL0     C18413   2.546  10.559  10.416 -0.4588  0.7009 -0.3946
  140MOL0     C18414   2.660  10.521  10.489  0.6033 -0.6270 -0.3577
  140MOL0     H18415   3.106  10.322  10.528 -0.4650 -0.2133 -0.1868
  140MOL0     H18416   3.291  10.209  10.641 -0.1480  0.1051  0.4167
  140MOL0     H18417   3.309   9.829  10.618  1.3921  0.9608 -1.4264
  140MOL0     H18418   3.439   9.833  10.748 -2.1618  1.1816  2.8259
  140MOL0     H18419   3.420  10.055  10.556 -1.0957  0.1546  2.7895
  140MOL0     H18420   3.509   9.899  10.520  1.5203  0.0459  0.2368
  140MOL0     H18421   3.662   9.932  10.706 -0.2512 -1.1983 -0.8174
  140MOL0     H18422   3.573  10.071  10.770  0.9280 -1.4042  2.2167
  140MOL0     H18423   3.705  10.086  10.486 -1.1286  0.5644 -0.7012
  140MOL0     H18424   3.603  10.196  10.564  0.0252 -0.5198 -3.0820
  140MOL0     H18425   3.878  10.105  10.700  0.2758  1.0647 -2.0156
  140MOL0     H18426   3.769  10.231  10.747 -1.3623  0.8070 -0.6449
  140MOL0     H18427   3.804  10.328  10.528 -2.4962 -3.0664  0.5261
  140MOL0     H18428   3.904  10.202  10.467 -2.0482  1.3691 -2.6519
  140MOL0     H18429   3.968  10.390  10.711  0.7019  1.5099 -0.5495
  140MOL0     H18430   4.067  10.252  10.662  1.1734  0.8500 -0.6501
  140MOL0     H18431   4.146  10.343  10.471  0.2039 -0.5931 -0.4203
  140MOL0     H18432   4.157  10.449  10.601  0.7281 -1.0198  0.0652
  140MOL0     H18433   3.926  10.631  10.618 -0.9859 -2.3220  1.3286
  140MOL0     H18434   3.682  10.735  10.313  1.5535 -4.6711 -0.4847
  140MOL0     H18435   3.793  10.856  10.360  1.0069  0.2486  1.3770
  140MOL0     H18436   3.618  10.713  10.564  0.6554  0.7993 -0.0695
  140MOL0     H18437   3.591  10.876  10.493  0.0283  0.3711  0.5368
  140MOL0     H18438   3.853  10.826  10.617 -1.1015 -1.5380 -1.7209
  140MOL0     H18439   3.765  10.975  10.606  0.1685  0.0424 -0.9520
  140MOL0     H18440   3.594  10.925  10.777 -0.3391 -2.0785  0.5544
  140MOL0     H18441   3.757  10.922  10.840  0.3225  3.7046 -1.8554
  140MOL0     H18442   3.940  10.797  10.834 -0.1086  0.1312 -0.2467
  140MOL0     H18443   4.114  10.643  10.899 -0.0114  1.1215 -1.6869
  140MOL0     H18444   4.215  10.133  10.963 -0.2435 -0.0920  0.1004
  140MOL0     H18445   4.327   9.933  11.096  1.8733  1.2356  1.5635
  140MOL0     H18446   4.396   9.725  11.396 -3.1589 -0.8053  0.6313
  140MOL0     H18447   4.423   9.831  11.258  0.8935 -1.4544 -0.9738
  140MOL0     H18448   4.335   9.585  11.213  1.8502  1.1718 -0.2035
  140MOL0     H18449   4.243   9.713  11.141  1.4873  0.3253  1.2462
  140MOL0     H18450   4.086   9.691  11.364  1.3525  1.0698  2.9673
  140MOL0     H18451   4.206   9.577  11.417 -0.3324  1.9893  0.3191
  140MOL0     H18452   4.084   9.527  11.148  2.6102 -2.8615 -0.3560
  140MOL0     H18453   4.144   9.409  11.262  0.9425  0.9013 -0.1953
  140MOL0     H18454   3.889   9.572  11.308  0.6425  0.4385  0.8859
  140MOL0     H18455   3.951   9.463  11.424  1.9016  3.0867 -0.4389
  140MOL0     H18456   3.934   9.282  11.207  1.4750 -1.4201  5.0885
  140MOL0     H18457   3.813   9.416  11.155 -0.7201 -1.4641 -0.9608
  140MOL0     H18458   3.831   9.265  11.423  0.5710  0.5077 -0.6194
  140MOL0     H18459   3.695   9.376  11.368  0.0671 -0.3186  2.6167
  140MOL0     H18460   3.633   9.154  11.346 -1.5388  2.7565  0.4195
  140MOL0     H18461   3.787   9.103  11.265 -1.1286 -2.2771  0.3107
  140MOL0     H18462   4.060  10.018  11.422  0.9680 -0.0234  1.5323
  140MOL0     H18463   3.962  10.216  11.302 -1.9163 -0.1656 -1.1437
  140MOL0     H18464   3.812  10.337  10.945 -1.3283  0.2130 -1.3400
  140MOL0     H18465   3.642  10.490  10.863  1.0806 -2.0812  0.7758
  140MOL0     H18466   3.026   9.885  10.746 -3.1139  0.7503 -0.8676
  140MOL0     H18467   2.855   9.995  10.597 -0.3486  0.5225  0.2862
  140MOL0     H18468   2.619  10.185  10.465 -1.2973  0.0873  0.4121
  140MOL0     H18469   2.424  10.254  10.332  0.6659  0.4277 -0.0191
  140MOL0     H18470   2.152  10.519  10.272 -0.4510 -0.4624 -0.3631
  140MOL0     H18471   2.209  10.397  10.387 -1.6619 -1.3253 -0.8850
  140MOL0     H18472   2.248  10.367  10.094  1.3012 -1.7242  0.6201
  140MOL0     H18473   2.274  10.247  10.210 -0.3299 -1.0640  1.2854
  140MOL0     H18474   2.035  10.214  10.263  0.3400 -3.0324 -1.0514
  140MOL0     H18475   2.070  10.176  10.113 -1.2317  0.5044 -1.4258
  140MOL0     H18476   1.855  10.322  10.123  0.7911 -1.4834 -1.2558
  140MOL0     H18477   1.935  10.445  10.202 -3.7320 -1.9107  0.5328
  140MOL0     H18478   2.121  10.528   9.832  2.8039  0.6291  1.8863
  140MOL0     H18479   2.517  10.661  10.389  2.2132  0.8594 -3.2354
  140MOL0     H18480   2.713  10.610  10.521 -3.8216  1.7361  1.1622
  141MOL0     O18481   6.243   5.186   5.918  0.6813 -0.2247  0.9925
  141MOL0     C18482   6.256   5.287   5.851  1.5696 -0.3004  0.1665
  141MOL0     O18483   6.364   5.373   5.867  0.5507  0.2447 -0.5099
  141MOL0     C18484   6.429   5.354   5.986  0.1908 -0.7951  0.2626
  141MOL0     C18485   6.397   5.436   6.089 -0.4238 -0.1821 -0.0207
  141MOL0     C18486   6.460   5.422   6.213  0.7808 -0.1275  0.0983
  141MOL0     C18487   6.564   5.338   6.231  0.3002  0.1831  0.8638
  141MOL0     O18488   6.633   5.334   6.353  0.3938  0.7249 -0.3056
  141MOL0     C18489   6.730   5.227   6.380 -0.1808  0.1581  1.1195
  141MOL0     C18490   6.778   5.219   6.525  0.4845  0.2013  0.1003
  141MOL0     C18491   6.901   5.158   6.564 -0.2671  0.5151  0.0369
  141MOL0     C18492   6.899   5.164   6.721  0.3827  1.0193  0.3021
  141MOL0     C18493   7.016   5.098   6.788 -0.3558  0.6312 -0.3130
  141MOL0     C18494   7.006   5.093   6.944 -0.0477 -0.1478  0.3109
  141MOL0     C18495   7.135   5.060   7.011  0.3067  0.1855  0.1002
  141MOL0     C18496   7.141   4.921   7.068  0.0168  0.2132 -0.3452
  141MOL0     N18497   7.151   4.817   6.967 -0.4211 -0.4015 -0.2820
  141MOL0     C18498   7.049   4.754   6.909  0.6508  0.3124  0.3863
  141MOL0     C18499   7.107   4.679   6.812 -0.0790  0.2946 -0.7537
  141MOL0     C18500   7.034   4.592   6.724  1.1300  0.3517  0.7023
  141MOL0     C18501   7.058   4.436   6.747  0.7326 -0.1999  0.9429
  141MOL0     C18502   6.946   4.325   6.721  0.3996 -0.2049  0.6894
  141MOL0     C18503   6.886   4.341   6.574  0.4145 -0.4209 -0.2967
  141MOL0     O18504   6.992   4.320   6.485 -0.2570 -0.7211 -0.0458
  141MOL0     C18505   6.970   4.369   6.359  0.5939 -0.1025  0.0370
  141MOL0     C18506   6.916   4.287   6.260  0.0967 -0.0469  0.1671
  141MOL0     C18507   6.901   4.332   6.126  0.2677 -0.6184  0.1255
  141MOL0     C18508   6.920   4.469   6.095 -0.4413 -0.0756  0.4926
  141MOL0     C18509   6.906   4.526   5.946  0.6945 -0.4855  0.8681
  141MOL0     O18510   6.803   4.483   5.871 -0.2623  0.4362  0.0680
  141MOL0     C18511   6.797   4.523   5.741 -0.6503 -0.5846  0.6015
  141MOL0     C18512   6.870   4.444   5.647  0.8327 -0.0118 -1.6621
  141MOL0     C18513   6.858   4.454   5.514  0.1565 -1.0907 -0.0517
  141MOL0     C18514   6.784   4.563   5.460  0.2661  0.0600 -0.0146
  141MOL0     O18515   6.778   4.587   5.325 -0.5387  0.1450  0.0950
  141MOL0     C18516   6.826   4.475   5.232 -0.3357 -0.8889 -1.0303
  141MOL0     C18517   6.826   4.524   5.088 -0.0413  0.4818  0.4309
  141MOL0     C18518   6.972   4.501   5.025  0.2525 -0.3356  0.5471
  141MOL0     C18519   7.073   4.617   5.042  0.5220 -0.4875 -0.1652
  141MOL0     C18520   7.218   4.571   5.082  1.5958 -0.2763 -0.1624
  141MOL0     C18521   7.313   4.693   5.085 -0.0972 -0.5921  0.1432
  141MOL0     C18522   7.321   4.785   5.208  0.7387  0.5566 -0.3416
  141MOL0     C18523   7.269   4.930   5.193 -0.0324 -0.4990  0.7236
  141MOL0    Cl18524   7.354   5.021   5.064  0.0524  0.2651  0.6285
  141MOL0     C18525   6.718   4.657   5.547 -0.5002 -0.5966 -0.3137
  141MOL0     C18526   6.728   4.635   5.688  0.1052  0.6643  0.1088
  141MOL0     O18527   6.989   4.606   5.907 -1.0077 -0.3234  0.0742
  141MOL0     C18528   6.967   4.547   6.200  0.2140  0.4496  0.0851
  141MOL0     C18529   6.992   4.503   6.330  0.1485 -0.0480  0.3419
  141MOL0     N18530   7.238   4.714   6.807 -0.9454  0.5645 -0.8766
  141MOL0     N18531   7.267   4.792   6.901 -0.2743 -0.4096 -1.0295
  141MOL0     C18532   6.602   5.257   6.120  0.2148  0.5133  0.8439
  141MOL0     C18533   6.541   5.277   5.999  0.2496  0.0087 -0.6493
  141MOL0     C18534   6.173   5.297   5.735 -0.1517  0.1536 -0.4571
  141MOL0     C18535   6.060   5.219   5.721 -0.5256 -0.8378 -0.9776
  141MOL0     C18536   5.970   5.243   5.610 -1.0429  0.0142 -1.1383
  141MOL0     C18537   6.007   5.319   5.498  0.2189 -0.1557  0.0097
  141MOL0     O18538   5.933   5.336   5.388 -0.8971  0.2449  0.0441
  141MOL0     C18539   5.912   5.214   5.321 -0.8707  0.9182 -0.4631
  141MOL0     C18540   5.901   5.243   5.168  0.3854 -0.1255  0.7257
  141MOL0     C18541   6.003   5.347   5.116  0.3221 -1.0039  0.1301
  141MOL0     C18542   6.139   5.277   5.069  0.4657  0.1127 -0.1752
  141MOL0     C18543   6.113   5.216   4.938 -0.2989 -0.8421  1.0673
  141MOL0     C18544   6.116   5.163   4.829  0.6698  0.1636 -0.3744
  141MOL0     C18545   6.126   5.393   5.517  0.0363 -0.7125  0.0961
  141MOL0     C18546   6.204   5.383   5.627  0.4417  0.8397 -1.1142
  141MOL0     H18547   6.311   5.502   6.090 -2.3791 -2.6057  1.7546
  141MOL0     H18548   6.424   5.486   6.293  0.6817 -0.2915  0.1847
  141MOL0     H18549   6.817   5.241   6.316  1.4209 -1.7246  2.7404
  141MOL0     H18550   6.668   5.143   6.347 -0.9343  2.1262 -3.1333
  141MOL0     H18551   6.695   5.168   6.575  0.8096  1.8645  2.5380
  141MOL0     H18552   6.795   5.318   6.569 -0.6117  0.1296  0.7330
  141MOL0     H18553   6.994   5.202   6.528 -0.1782 -0.2056 -0.6245
  141MOL0     H18554   6.896   5.054   6.531  2.4653  0.3100  0.0196
  141MOL0     H18555   6.866   5.261   6.759 -2.1929 -1.4083  5.1969
  141MOL0     H18556   6.814   5.099   6.743 -1.2412  2.2267 -1.9756
  141MOL0     H18557   7.112   5.143   6.759  0.5014 -0.4529  0.7433
  141MOL0     H18558   7.022   4.995   6.754 -0.9390  0.3475  0.4242
  141MOL0     H18559   6.929   5.021   6.975 -1.6747  2.1395  1.9396
  141MOL0     H18560   6.977   5.198   6.956  2.3099  1.1052 -3.1612
  141MOL0     H18561   7.215   5.072   6.938 -0.4090 -0.6775 -0.8604
  141MOL0     H18562   7.134   5.129   7.096  0.9732 -1.6951  1.7031
  141MOL0     H18563   7.049   4.904   7.126 -0.2923  0.2038 -0.8301
  141MOL0     H18564   7.218   4.913   7.145 -1.2429  3.0209  1.3777
  141MOL0     H18565   6.942   4.755   6.929  0.8292  1.2016  1.3780
  141MOL0     H18566   7.060   4.609   6.619  2.2063 -0.5941  0.7941
  141MOL0     H18567   6.927   4.610   6.735  0.6147 -1.8867 -0.2044
  141MOL0     H18568   7.074   4.428   6.855  0.9503  1.8981  1.1058
  141MOL0     H18569   7.148   4.415   6.688  0.4263  0.1904  0.3234
  141MOL0     H18570   7.000   4.231   6.728  1.4168  0.2241 -0.7843
  141MOL0     H18571   6.873   4.330   6.802 -1.2771  4.2018 -0.7562
  141MOL0     H18572   6.849   4.443   6.561 -1.6152 -1.0845 -0.0121
  141MOL0     H18573   6.803   4.278   6.540  0.9535 -0.0145 -2.5210
  141MOL0     H18574   6.900   4.182   6.279 -1.1228  0.2877  1.1142
  141MOL0     H18575   6.868   4.269   6.043  2.7390 -0.6049 -0.9413
  141MOL0     H18576   6.924   4.366   5.701 -0.5104 -0.4090 -0.8661
  141MOL0     H18577   6.928   4.387   5.465  1.7745 -0.4469  1.2750
  141MOL0     H18578   6.762   4.387   5.238 -0.1666 -1.0345 -1.3831
  141MOL0     H18579   6.930   4.456   5.262 -0.6960  1.0360  1.9319
  141MOL0     H18580   6.812   4.633   5.086 -3.5348  0.1710 -3.2441
  141MOL0     H18581   6.744   4.481   5.031  1.5855  0.9379 -2.4394
  141MOL0     H18582   6.951   4.487   4.918  1.9457 -0.7405  0.2285
  141MOL0     H18583   7.018   4.408   5.060 -4.0764 -1.9086  2.8469
  141MOL0     H18584   7.062   4.683   4.956  0.1191  1.7692  1.5479
  141MOL0     H18585   7.033   4.673   5.127  1.0513 -0.1140 -0.1565
  141MOL0     H18586   7.249   4.488   5.018  2.4251  1.6918 -2.4928
  141MOL0     H18587   7.201   4.531   5.182  1.8475 -0.3248 -0.1373
  141MOL0     H18588   7.292   4.753   4.996 -2.5655 -0.6334  0.6367
  141MOL0     H18589   7.411   4.659   5.051 -0.3694  0.6655 -2.0922
  141MOL0     H18590   7.282   4.731   5.295  0.5062  1.0235 -0.1481
  141MOL0     H18591   7.427   4.804   5.230  0.8416 -0.7910  0.4573
  141MOL0     H18592   7.278   4.999   5.277  0.4820  3.6177 -2.3628
  141MOL0     H18593   7.164   4.928   5.161  0.6879  0.3642 -1.9882
  141MOL0     H18594   6.664   4.740   5.502  1.0876 -0.1092 -1.4394
  141MOL0     H18595   6.668   4.689   5.761 -0.3056 -0.2803  0.4903
  141MOL0     H18596   6.967   4.653   6.179  0.2964  0.8439  1.8872
  141MOL0     H18597   7.036   4.573   6.400  2.5304  0.0491 -1.1217
  141MOL0     H18598   6.685   5.188   6.128 -0.1026 -0.5467 -3.0738
  141MOL0     H18599   6.590   5.238   5.910  1.2291 -1.3922  0.4598
  141MOL0     H18600   6.026   5.167   5.810  2.3752  2.2122  2.2197
  141MOL0     H18601   5.869   5.201   5.613 -1.0622 -0.0860  2.7411
  141MOL0     H18602   5.815   5.172   5.350  0.0166 -0.8773  0.0100
  141MOL0     H18603   5.983   5.132   5.337 -1.4207  0.6929  1.0096
  141MOL0     H18604   5.914   5.156   5.103 -0.1053  0.9483 -0.8720
  141MOL0     H18605   5.801   5.276   5.142 -1.2075 -3.0737  2.5370
  141MOL0     H18606   6.028   5.429   5.183 -0.6887  0.5226 -1.2884
  141MOL0     H18607   5.967   5.407   5.032  3.3150  0.2608 -0.3791
  141MOL0     H18608   6.226   5.342   5.076 -1.3599  2.5033  2.2307
  141MOL0     H18609   6.167   5.190   5.130 -0.3526 -1.4305 -1.9204
  141MOL0     H18610   6.122   5.112   4.735  4.5392  2.3568 -1.5050
  141MOL0     H18611   6.167   5.456   5.439  1.4161 -1.1832  0.4228
  141MOL0     H18612   6.300   5.433   5.628  1.1496 -0.4820 -0.8755
  142MOL0     O18613   5.404   6.133   6.961 -0.3340  0.2043  0.2477
  142MOL0     C18614   5.382   6.182   7.071 -0.9637  0.3251 -0.0655
  142MOL0     O18615   5.421   6.305   7.118  0.9562  0.6365 -0.3864
  142MOL0     C18616   5.473   6.403   7.036  0.3196 -1.1143  0.1456
  142MOL0     C18617   5.567   6.389   6.939  0.3257  0.3895 -1.2483
  142MOL0     C18618   5.598   6.490   6.845 -0.4517  0.9108  0.2458
  142MOL0     C18619   5.534   6.614   6.851 -0.9114  0.0416 -0.5024
  142MOL0     O18620   5.573   6.724   6.769  0.3034  0.1207  0.0139
  142MOL0     C18621   5.459   6.799   6.712 -0.1273  0.1591 -0.1928
  142MOL0     C18622   5.498   6.901   6.609 -0.0358 -0.0276  0.1161
  142MOL0     C18623   5.520   6.833   6.468  0.3540  0.7693 -0.1743
  142MOL0     C18624   5.621   6.716   6.472  0.5699  0.1449  1.0053
  142MOL0     C18625   5.629   6.652   6.336  0.4157 -0.3364  0.2449
  142MOL0     C18626   5.713   6.530   6.338 -0.0118  0.1789  0.3708
  142MOL0     C18627   5.870   6.562   6.343  0.7387 -0.0807  0.2577
  142MOL0     C18628   5.938   6.595   6.203  0.0209 -0.7674 -0.0265
  142MOL0     N18629   5.912   6.733   6.148 -0.0859  0.3464  0.4010
  142MOL0     C18630   5.926   6.854   6.207  0.2410 -0.5838  0.4619
  142MOL0     C18631   5.900   6.946   6.108  0.0368 -0.7337 -0.0691
  142MOL0     C18632   5.896   7.099   6.124  0.3985  0.3434  0.5738
  142MOL0     C18633   5.758   7.156   6.072  0.0534  0.0398 -0.4386
  142MOL0     C18634   5.750   7.310   6.078  1.0902  0.1739  0.2158
  142MOL0     C18635   5.600   7.358   6.055 -0.0367 -0.1263  0.2542
  142MOL0     O18636   5.600   7.494   6.086 -0.1301  0.9038 -0.7630
  142MOL0     C18637   5.542   7.585   6.003 -0.1396  0.5752 -0.2159
  142MOL0     C18638   5.495   7.697   6.070 -0.2353 -0.0824 -0.3498
  142MOL0     C18639   5.441   7.798   6.001 -0.3498  0.6775  0.2746
  142MOL0     C18640   5.419   7.786   5.864  0.2553  0.3046 -0.1866
  142MOL0     C18641   5.362   7.913   5.792  0.0698 -0.5186  0.4784
  142MOL0     O18642   5.317   8.019   5.862 -0.0594 -0.3465  0.6208
  142MOL0     C18643   5.297   8.126   5.789  0.3321 -0.3817  0.6749
  142MOL0     C18644   5.400   8.216   5.762  0.2882  0.1941  0.4502
  142MOL0     C18645   5.367   8.324   5.686 -0.0663 -0.2647  0.4904
  142MOL0     C18646   5.233   8.352   5.641  0.2219  0.5087 -0.6492
  142MOL0     O18647   5.213   8.460   5.557 -0.6497  0.5047 -0.8886
  142MOL0     C18648   5.110   8.447   5.458 -0.0504 -0.6430 -0.4724
  142MOL0     C18649   5.142   8.517   5.326  0.0135  0.4731 -0.4677
  142MOL0     C18650   5.204   8.651   5.346  0.3055 -0.6337  0.2878
  142MOL0     C18651   5.113   8.775   5.308 -0.2957  0.2477 -0.1471
  142MOL0     C18652   5.165   8.913   5.348  0.1023 -0.1076  0.5972
  142MOL0     C18653   5.072   9.025   5.295  0.0938  0.7182  0.8465
  142MOL0     C18654   5.073   9.040   5.138 -0.6053 -0.9105  0.0626
  142MOL0     C18655   5.211   9.094   5.089 -0.6464 -1.1175  0.0239
  142MOL0    Cl18656   5.245   9.251   5.167  0.0050  0.4612  0.0447
  142MOL0     C18657   5.133   8.262   5.677  0.2105 -0.3179  0.0138
  142MOL0     C18658   5.166   8.154   5.751 -0.7850 -0.3682  0.0524
  142MOL0     O18659   5.353   7.899   5.668 -0.6700 -0.4225 -0.1999
  142MOL0     C18660   5.447   7.669   5.794 -0.2565  1.0508 -0.7922
  142MOL0     C18661   5.518   7.564   5.859  0.0029 -0.3456 -0.5034
  142MOL0     N18662   5.862   6.876   5.993  0.2607 -0.1304  0.0086
  142MOL0     N18663   5.872   6.745   6.018 -0.0766 -0.3053 -0.4001
  142MOL0     C18664   5.439   6.630   6.949  0.3738 -0.6387 -0.4023
  142MOL0     C18665   5.410   6.530   7.041  0.7490 -0.5562 -0.6057
  142MOL0     C18666   5.334   6.091   7.171  0.4274 -1.3116 -0.1812
  142MOL0     C18667   5.309   6.131   7.306  0.2453 -1.1158  0.6252
  142MOL0     C18668   5.269   6.043   7.405 -0.3617  0.2281 -0.1769
  142MOL0     C18669   5.237   5.915   7.367  0.2501  0.3886 -0.8733
  142MOL0     O18670   5.176   5.826   7.457 -0.2613 -0.7667  0.2444
  142MOL0     C18671   5.227   5.844   7.591  0.4882  0.0135  0.6264
  142MOL0     C18672   5.161   5.732   7.676  0.6611  0.2782  0.1089
  142MOL0     C18673   5.016   5.776   7.726 -0.1054  0.1717 -0.7900
  142MOL0     C18674   4.953   5.661   7.813 -0.6330  0.8938  1.2225
  142MOL0     C18675   5.002   5.630   7.952  0.3048  0.2315 -0.3509
  142MOL0     C18676   5.035   5.609   8.066  0.2288  0.1517  0.1575
  142MOL0     C18677   5.253   5.871   7.233 -0.1560 -0.1538 -0.2822
  142MOL0     C18678   5.312   5.957   7.142 -0.7502  0.6747 -0.3368
  142MOL0     H18679   5.619   6.293   6.934 -1.4466 -0.6776 -0.2705
  142MOL0     H18680   5.672   6.491   6.766 -0.6069 -0.3821  0.0689
  142MOL0     H18681   5.406   6.855   6.789  3.7936 -0.1763  3.1385
  142MOL0     H18682   5.393   6.737   6.651 -1.2119  0.8163  0.2893
  142MOL0     H18683   5.593   6.949   6.633  0.9521 -1.1906 -1.2615
  142MOL0     H18684   5.430   6.985   6.596  0.0834  0.0373 -0.0897
  142MOL0     H18685   5.547   6.911   6.396 -0.1519 -0.2084 -1.4654
  142MOL0     H18686   5.426   6.785   6.439  0.7683 -1.9263  2.5231
  142MOL0     H18687   5.720   6.746   6.505  1.8936 -3.1430  0.4076
  142MOL0     H18688   5.573   6.646   6.541 -0.5215  1.1620  1.3204
  142MOL0     H18689   5.644   6.719   6.251 -2.1997 -0.9493 -0.8131
  142MOL0     H18690   5.533   6.606   6.312  0.1902 -1.1147  2.4024
  142MOL0     H18691   5.697   6.463   6.253 -0.8086  0.0333  0.6229
  142MOL0     H18692   5.692   6.468   6.426 -0.2449  2.0435  1.6886
  142MOL0     H18693   5.890   6.642   6.415  1.6560  1.3372 -1.4709
  142MOL0     H18694   5.925   6.475   6.379 -0.3289 -0.7167  0.3821
  142MOL0     H18695   5.916   6.513   6.134 -2.8971 -1.6668  1.8194
  142MOL0     H18696   6.048   6.598   6.205  0.0568 -0.2179 -1.5662
  142MOL0     H18697   5.956   6.874   6.310 -0.6403  0.0064  0.6228
  142MOL0     H18698   5.982   7.148   6.076  0.1557  1.7545  1.5120
  142MOL0     H18699   5.893   7.118   6.232 -2.1739  0.6877  0.4975
  142MOL0     H18700   5.681   7.110   6.133  1.0949 -0.4560  0.5277
  142MOL0     H18701   5.747   7.129   5.966  0.6345  2.8024 -1.2779
  142MOL0     H18702   5.766   7.336   6.182  1.8961  0.1739  0.0981
  142MOL0     H18703   5.812   7.359   6.002  0.6852  1.7700  0.8747
  142MOL0     H18704   5.529   7.313   6.124  1.5282  1.0998  2.8198
  142MOL0     H18705   5.570   7.341   5.951  2.9554  3.8782 -1.5604
  142MOL0     H18706   5.519   7.718   6.173 -2.5894  1.6476 -0.0674
  142MOL0     H18707   5.416   7.889   6.055  0.3921 -0.0555  1.9265
  142MOL0     H18708   5.502   8.207   5.799 -0.1139 -0.1319  1.5302
  142MOL0     H18709   5.448   8.378   5.639 -2.4907  2.2603 -1.0857
  142MOL0     H18710   5.017   8.491   5.493 -0.7146  0.6485 -3.5718
  142MOL0     H18711   5.088   8.340   5.450 -1.7867 -0.4707  1.2853
  142MOL0     H18712   5.046   8.530   5.274  0.3700  0.5798 -1.1057
  142MOL0     H18713   5.205   8.454   5.263 -0.4491  0.7540 -1.2137
  142MOL0     H18714   5.291   8.661   5.281  1.0476 -1.7634  1.0677
  142MOL0     H18715   5.233   8.670   5.450  0.8696  1.2758 -0.1813
  142MOL0     H18716   5.111   8.770   5.199 -1.3380 -0.3328 -0.1130
  142MOL0     H18717   5.016   8.765   5.358 -1.2377 -3.8448 -2.3864
  142MOL0     H18718   5.260   8.934   5.300 -0.5456  2.6341  0.3721
  142MOL0     H18719   5.175   8.915   5.457  0.9607 -1.2160  0.5492
  142MOL0     H18720   5.094   9.123   5.339  0.4668  1.4236 -0.8460
  142MOL0     H18721   4.966   9.001   5.311 -0.5378  2.0183 -1.1256
  142MOL0     H18722   5.049   8.947   5.086  3.8811 -2.6065  0.5476
  142MOL0     H18723   4.996   9.115   5.118 -0.1840 -0.5165 -0.0974
  142MOL0     H18724   5.203   9.103   4.980  0.6438  0.6078  0.0327
  142MOL0     H18725   5.290   9.021   5.107  1.3039  0.7748 -0.3524
  142MOL0     H18726   5.031   8.286   5.650  0.9994  3.7066  0.0643
  142MOL0     H18727   5.092   8.084   5.789 -1.3320 -0.6548 -1.4713
  142MOL0     H18728   5.420   7.654   5.689  0.9573  2.6478 -1.3777
  142MOL0     H18729   5.538   7.476   5.798 -0.0772  1.1702 -2.8708
  142MOL0     H18730   5.391   6.727   6.958  1.3098 -0.3531  2.9281
  142MOL0     H18731   5.333   6.533   7.117 -0.7094 -3.5851 -1.7733
  142MOL0     H18732   5.326   6.235   7.331  1.1474 -0.2626 -2.9974
  142MOL0     H18733   5.256   6.092   7.501  0.1944  1.5683 -0.7553
  142MOL0     H18734   5.194   5.942   7.628  0.1292  1.8510 -3.8693
  142MOL0     H18735   5.335   5.832   7.602  0.7266  2.9540  2.8745
  142MOL0     H18736   5.153   5.646   7.610  0.2163  0.7071 -0.4038
  142MOL0     H18737   5.220   5.701   7.763 -2.0996  1.8748  2.7233
  142MOL0     H18738   4.950   5.797   7.641 -2.3998 -1.1570  0.5733
  142MOL0     H18739   5.023   5.872   7.779 -0.7727  0.1929 -0.7352
  142MOL0     H18740   4.844   5.669   7.821 -0.7653  1.5142 -0.8222
  142MOL0     H18741   4.966   5.567   7.758  0.6229  0.9142  1.4555
  142MOL0     H18742   5.060   5.602   8.170  1.1645  0.5664 -0.0311
  142MOL0     H18743   5.241   5.769   7.200  1.4441  0.3395 -2.6726
  142MOL0     H18744   5.329   5.930   7.038 -2.4351 -1.9823 -0.0181
  143MOL0     O18745   1.461   4.055   7.067  0.0280  0.0722  0.2266
  143MOL0     C18746   1.358   4.122   7.087  0.9985  0.2597 -0.1693
  143MOL0     O18747   1.260   4.153   7.000  0.6745  0.2786 -0.0431
  143MOL0     C18748   1.288   4.111   6.873  0.3276  0.1491  0.6868
  143MOL0     C18749   1.366   4.198   6.792  0.3042  0.1291 -0.2774
  143MOL0     C18750   1.378   4.180   6.659  0.1246  0.2824 -0.5583
  143MOL0     C18751   1.314   4.061   6.596  0.9025  0.0628  1.0361
  143MOL0     O18752   1.332   4.035   6.457 -0.1192  0.5552 -0.5531
  143MOL0     C18753   1.209   4.041   6.383  0.6255  0.7286  0.1917
  143MOL0     C18754   1.250   4.020   6.230 -0.9846  0.4527  0.2180
  143MOL0     C18755   1.266   3.870   6.193 -0.0993  0.2267 -0.7852
  143MOL0     C18756   1.286   3.869   6.042  0.0993  0.1230 -0.5059
  143MOL0     C18757   1.317   3.737   5.984 -0.3256  1.0954  0.5212
  143MOL0     C18758   1.199   3.644   6.000  0.9525  0.5052  0.5607
  143MOL0     C18759   1.222   3.521   5.909  0.6273  0.1445 -0.5115
  143MOL0     C18760   1.174   3.391   5.975  1.2289 -0.2390 -0.8700
  143MOL0     N18761   1.198   3.269   5.898 -0.7931 -0.5552  0.5048
  143MOL0     C18762   1.328   3.246   5.836 -0.1752  0.5931  0.7873
  143MOL0     C18763   1.296   3.128   5.760  0.1400 -0.6328 -0.1290
  143MOL0     C18764   1.390   3.039   5.697  0.2510  0.2532 -0.0276
  143MOL0     C18765   1.474   2.959   5.789  0.3332  0.3774 -0.2093
  143MOL0     C18766   1.480   2.810   5.753  0.3505 -1.2228 -0.1677
  143MOL0     C18767   1.548   2.722   5.869 -0.3428 -0.6427 -0.6548
  143MOL0     O18768   1.689   2.731   5.847 -0.9331 -0.1213 -0.3555
  143MOL0     C18769   1.759   2.841   5.895  0.2200 -0.3503  0.4217
  143MOL0     C18770   1.725   2.884   6.028  0.8914 -0.3171  0.7856
  143MOL0     C18771   1.791   2.988   6.084 -0.1698  0.4330  0.7491
  143MOL0     C18772   1.888   3.064   6.016  0.0504  0.4272 -0.6019
  143MOL0     C18773   1.947   3.178   6.099 -0.2550  0.0233 -0.5885
  143MOL0     O18774   1.911   3.181   6.227  0.4745  0.4842  0.1137
  143MOL0     C18775   1.940   3.303   6.291  0.0366 -0.1049  0.0947
  143MOL0     C18776   1.852   3.404   6.288 -0.3562 -0.1979  0.2220
  143MOL0     C18777   1.876   3.527   6.345  0.0818 -0.1296  0.6115
  143MOL0     C18778   1.994   3.550   6.424  0.6276  0.4508 -0.3475
  143MOL0     O18779   2.008   3.672   6.484 -0.4447  0.2351  0.0763
  143MOL0     C18780   2.084   3.769   6.406 -0.4259 -0.5852 -0.1061
  143MOL0     C18781   2.104   3.906   6.473  0.8413 -0.7155  0.6412
  143MOL0     C18782   2.184   4.014   6.385 -0.7859 -0.9533 -0.2686
  143MOL0     C18783   2.105   4.069   6.264  0.6678 -0.0200 -0.2397
  143MOL0     C18784   2.182   4.172   6.196 -0.2511 -0.4240  0.1440
  143MOL0     C18785   2.088   4.258   6.110  0.2930 -0.7025 -1.0071
  143MOL0     C18786   2.158   4.395   6.090  0.6925 -0.0809 -0.0729
  143MOL0     C18787   2.064   4.512   6.046  0.2709 -0.3063 -0.5280
  143MOL0    Cl18788   2.155   4.665   6.069  0.5378  0.1255 -0.2596
  143MOL0     C18789   2.085   3.440   6.435  0.2350  0.6830  0.0093
  143MOL0     C18790   2.062   3.319   6.361  0.8286  0.7208 -0.3235
  143MOL0     O18791   2.019   3.257   6.037 -0.3718 -0.1696  0.5479
  143MOL0     C18792   1.928   3.018   5.893 -0.4457 -0.1675  0.1403
  143MOL0     C18793   1.865   2.904   5.830  0.6272 -0.5636  0.9291
  143MOL0     N18794   1.160   3.100   5.775 -0.2204 -0.5443  0.3371
  143MOL0     N18795   1.108   3.196   5.838 -0.0642  0.6350  0.8222
  143MOL0     C18796   1.243   3.973   6.677  0.0535 -0.7599 -0.6405
  143MOL0     C18797   1.218   4.004   6.810  0.0950  0.0959 -0.9245
  143MOL0     C18798   1.334   4.157   7.231  0.4119 -0.3876  0.5361
  143MOL0     C18799   1.409   4.089   7.336 -0.0016 -0.3640  0.7482
  143MOL0     C18800   1.380   4.110   7.470 -0.4778  1.3092  0.0119
  143MOL0     C18801   1.278   4.192   7.507 -0.4504  0.1000 -0.4485
  143MOL0     O18802   1.279   4.210   7.638  0.1525 -0.2505 -0.1078
  143MOL0     C18803   1.154   4.241   7.693  0.4138  0.3069  0.3056
  143MOL0     C18804   1.167   4.209   7.840 -0.0814 -0.4507  0.6470
  143MOL0     C18805   1.025   4.226   7.903 -0.5230  0.1567  0.2911
  143MOL0     C18806   0.993   4.176   8.045  0.2344  0.4825  0.3325
  143MOL0     C18807   1.080   4.232   8.146 -0.7205 -0.3331  0.0757
  143MOL0     C18808   1.155   4.272   8.234  0.7935 -1.2519  0.8502
  143MOL0     C18809   1.202   4.261   7.416 -1.2212  0.1445  0.4152
  143MOL0     C18810   1.226   4.236   7.280  0.1219 -0.1657 -0.4445
  143MOL0     H18811   1.401   4.289   6.837 -4.3918  3.3846 -2.4002
  143MOL0     H18812   1.451   4.238   6.603 -0.0481  0.9748 -0.0668
  143MOL0     H18813   1.153   4.131   6.410  1.0674  0.3357  2.6844
  143MOL0     H18814   1.133   3.967   6.410 -0.3948  1.0880 -1.5570
  143MOL0     H18815   1.348   4.067   6.216  1.5774 -3.0473  3.7311
  143MOL0     H18816   1.178   4.064   6.161  1.1564  0.4897 -2.1504
  143MOL0     H18817   1.174   3.818   6.222  0.0491  0.3893 -0.0016
  143MOL0     H18818   1.356   3.826   6.235  1.5580  0.3493 -3.9431
  143MOL0     H18819   1.199   3.917   5.998  1.0526  0.8355 -1.6913
  143MOL0     H18820   1.369   3.934   6.011  1.7786 -1.3091  0.7621
  143MOL0     H18821   1.411   3.698   6.024 -0.7610  0.1792  0.6780
  143MOL0     H18822   1.326   3.761   5.877  1.1446  0.8787  0.5730
  143MOL0     H18823   1.103   3.689   5.976  1.2174  0.7277 -0.0976
  143MOL0     H18824   1.203   3.610   6.104  2.5155 -2.7489 -0.4146
  143MOL0     H18825   1.159   3.541   5.822  0.0638 -2.5861 -0.8056
  143MOL0     H18826   1.327   3.527   5.878  0.9561  4.9007  0.7193
  143MOL0     H18827   1.072   3.409   6.010  2.0873  0.3480  1.4492
  143MOL0     H18828   1.228   3.374   6.068 -0.2460  1.5266  0.3771
  143MOL0     H18829   1.424   3.293   5.854  0.4077 -0.2271 -0.0447
  143MOL0     H18830   1.453   3.097   5.629 -0.5037  2.1817  0.8221
  143MOL0     H18831   1.330   2.978   5.629 -0.7447 -1.0314  1.8870
  143MOL0     H18832   1.429   2.971   5.888 -0.6371  2.1151 -0.8090
  143MOL0     H18833   1.575   2.999   5.796  0.8934 -0.9369 -0.6711
  143MOL0     H18834   1.379   2.771   5.736 -1.2114 -0.3713  5.1171
  143MOL0     H18835   1.545   2.800   5.666 -1.6892  0.6797 -2.0389
  143MOL0     H18836   1.515   2.618   5.864 -0.3825 -0.6388 -0.4929
  143MOL0     H18837   1.508   2.751   5.967 -2.9576 -3.1829 -0.8346
  143MOL0     H18838   1.658   2.834   6.097 -0.5235 -1.9195 -1.5865
  143MOL0     H18839   1.767   3.011   6.188 -0.0253 -1.9979  1.3949
  143MOL0     H18840   1.755   3.384   6.245  1.0867 -1.5201 -2.7183
  143MOL0     H18841   1.811   3.612   6.324  2.9778  2.1480  0.2936
  143MOL0     H18842   2.023   3.780   6.316 -0.4638  1.1121  0.0892
  143MOL0     H18843   2.171   3.722   6.360  0.2893  1.6814 -1.2140
  143MOL0     H18844   2.117   3.904   6.581 -2.2799 -2.5749  1.1269
  143MOL0     H18845   2.003   3.949   6.470  1.3012  0.4672  1.5169
  143MOL0     H18846   2.281   3.985   6.344 -1.6569 -0.3064 -3.0128
  143MOL0     H18847   2.195   4.098   6.454 -0.0530 -0.2525 -1.2192
  143MOL0     H18848   2.098   3.990   6.189 -0.4606  0.4231 -0.6107
  143MOL0     H18849   1.999   4.088   6.281  0.2853 -1.4532 -0.8145
  143MOL0     H18850   2.264   4.120   6.145 -0.0448  0.7595 -0.7708
  143MOL0     H18851   2.230   4.231   6.275  0.8584  2.3279 -2.3816
  143MOL0     H18852   1.994   4.265   6.166  1.1880 -0.8215  0.5503
  143MOL0     H18853   2.065   4.213   6.013 -1.0179 -0.0603 -1.0128
  143MOL0     H18854   2.225   4.425   6.171  1.9246  4.1600 -2.3333
  143MOL0     H18855   2.223   4.400   6.002 -1.3228  0.2908 -1.5986
  143MOL0     H18856   1.979   4.512   6.116  0.9249  0.3053  0.2917
  143MOL0     H18857   2.030   4.501   5.943  1.6973  2.2725 -1.3440
  143MOL0     H18858   2.165   3.451   6.507 -0.1780  2.6315  0.2345
  143MOL0     H18859   2.131   3.235   6.365 -1.5821 -1.3624  0.2907
  143MOL0     H18860   2.018   3.061   5.851  0.3450 -0.2721  1.6530
  143MOL0     H18861   1.890   2.880   5.727  0.0757  0.0630  0.6430
  143MOL0     H18862   1.189   3.891   6.630 -1.4396 -1.6011  2.3196
  143MOL0     H18863   1.159   3.944   6.878  2.1097 -1.0916 -0.1332
  143MOL0     H18864   1.485   4.020   7.301 -1.1594 -2.1369  1.5817
  143MOL0     H18865   1.438   4.060   7.547  2.1245  3.0519 -0.6584
  143MOL0     H18866   1.081   4.175   7.644  1.7068 -0.2187 -0.9947
  143MOL0     H18867   1.142   4.349   7.688 -2.1448  0.1404  1.2975
  143MOL0     H18868   1.203   4.108   7.858  0.5011  0.0052  2.1966
  143MOL0     H18869   1.242   4.271   7.890 -0.5584  0.1924  0.5754
  143MOL0     H18870   0.960   4.175   7.832  0.2516  1.1507 -1.1809
  143MOL0     H18871   1.007   4.333   7.894  0.4319  0.4053  1.0857
  143MOL0     H18872   0.887   4.189   8.068  0.5568  1.0845  1.5893
  143MOL0     H18873   1.010   4.068   8.037  1.2348  0.3870  2.8409
  143MOL0     H18874   1.216   4.301   8.317 -0.7566  2.4470  0.8735
  143MOL0     H18875   1.127   4.334   7.445 -0.1011  0.7363  1.9805
  143MOL0     H18876   1.159   4.285   7.209 -1.6532 -0.1631  1.1467
  144MOL0     O18877   5.511   8.267   4.793  0.4208  0.1843 -0.3983
  144MOL0     C18878   5.593   8.177   4.795 -0.0622  0.8049 -0.2810
  144MOL0     O18879   5.722   8.180   4.817 -0.7362 -0.3677 -0.2918
  144MOL0     C18880   5.788   8.296   4.814 -0.9360 -0.6083 -0.6169
  144MOL0     C18881   5.753   8.406   4.741  0.0192  0.0318  0.2781
  144MOL0     C18882   5.833   8.524   4.747 -0.1625  0.0283  0.3937
  144MOL0     C18883   5.947   8.526   4.840  1.0061  0.1382 -0.4988
  144MOL0     O18884   6.029   8.642   4.849  0.5155  0.6585  0.3828
  144MOL0     C18885   6.049   8.721   4.730  0.0821 -0.2134  0.0755
  144MOL0     C18886   6.143   8.835   4.745  0.4651  0.3267  0.1230
  144MOL0     C18887   6.105   8.940   4.845  0.2557 -0.3098  0.4886
  144MOL0     C18888   6.212   9.051   4.844 -0.3972 -0.6191  0.4319
  144MOL0     C18889   6.171   9.172   4.930 -0.2005 -0.2382  0.7061
  144MOL0     C18890   6.101   9.139   5.066  1.0563 -1.2610  0.2554
  144MOL0     C18891   6.113   9.272   5.144 -0.5540  0.0221 -0.1828
  144MOL0     C18892   6.236   9.274   5.246 -0.2350  0.0725  1.0769
  144MOL0     N18893   6.214   9.210   5.380 -0.1121 -0.1146  0.9821
  144MOL0     C18894   6.097   9.168   5.430 -0.5815 -0.2826 -0.3607
  144MOL0     C18895   6.138   9.101   5.548  0.4912  0.0553 -1.0957
  144MOL0     C18896   6.029   9.016   5.617  0.0611  0.2070  0.8499
  144MOL0     C18897   5.975   9.088   5.754 -0.7417  0.1854  0.6957
  144MOL0     C18898   6.086   9.117   5.845 -0.1574 -0.2652  0.6665
  144MOL0     C18899   6.144   9.264   5.842  0.6791  0.1205  0.5874
  144MOL0     O18900   6.250   9.286   5.938 -0.3141  0.4125 -0.7408
  144MOL0     C18901   6.277   9.416   5.969  0.4487  0.7457  0.1825
  144MOL0     C18902   6.367   9.445   6.075 -0.3254 -0.0628  0.2642
  144MOL0     C18903   6.413   9.577   6.104  0.1823  0.3060  0.7152
  144MOL0     C18904   6.348   9.688   6.037  0.5805  0.2766  0.5581
  144MOL0     C18905   6.368   9.831   6.081 -0.4224  0.1746  0.6850
  144MOL0     O18906   6.439   9.857   6.195 -0.3073  0.3109 -0.5380
  144MOL0     C18907   6.513   9.966   6.201  0.0331  0.6218  0.5618
  144MOL0     C18908   6.545  10.016   6.333  0.7014 -0.3588  0.3602
  144MOL0     C18909   6.602  10.142   6.347  0.3019 -0.4643 -0.5987
  144MOL0     C18910   6.654  10.209   6.241 -0.2900  0.1427  0.9053
  144MOL0     O18911   6.701  10.330   6.275 -0.1334 -0.1948 -0.1314
  144MOL0     C18912   6.778  10.414   6.187 -0.3910  0.0648  0.0177
  144MOL0     C18913   6.921  10.364   6.162 -0.6113  0.0074 -0.4404
  144MOL0     C18914   7.012  10.401   6.282 -0.0120  0.7747 -0.5850
  144MOL0     C18915   7.144  10.334   6.265 -0.0475  0.0876  0.1184
  144MOL0     C18916   7.247  10.380   6.367 -0.2428  0.4235 -0.1021
  144MOL0     C18917   7.370  10.291   6.378  0.6881  0.0537 -0.1139
  144MOL0     C18918   7.461  10.339   6.490  0.2863  0.6238 -0.0377
  144MOL0     C18919   7.607  10.298   6.477  0.2300  0.5632  0.0281
  144MOL0    Cl18920   7.682  10.382   6.343  0.0139 -0.0776  0.5442
  144MOL0     C18921   6.646  10.157   6.115 -0.5755 -0.1061 -0.4691
  144MOL0     C18922   6.572  10.038   6.092  0.0145  0.2401  0.0410
  144MOL0     O18923   6.324   9.917   6.007  0.1535 -0.8886  0.6967
  144MOL0     C18924   6.267   9.661   5.927 -0.1336  0.2067  0.8885
  144MOL0     C18925   6.223   9.527   5.893  0.3520  0.1083 -0.2222
  144MOL0     N18926   6.265   9.097   5.563 -0.3284 -0.1982 -0.1749
  144MOL0     N18927   6.312   9.160   5.462 -0.3540 -0.2925 -1.0749
  144MOL0     C18928   5.972   8.416   4.913 -0.7524 -0.0838  0.6321
  144MOL0     C18929   5.897   8.303   4.900 -0.7298  0.1781 -0.7285
  144MOL0     C18930   5.524   8.046   4.807 -0.7215  0.7519  0.0605
  144MOL0     C18931   5.382   8.033   4.777  0.0090  0.2193 -0.1560
  144MOL0     C18932   5.325   7.908   4.790 -0.1985 -0.4610  0.4383
  144MOL0     C18933   5.395   7.791   4.808  0.5782 -0.3005  0.0131
  144MOL0     O18934   5.327   7.673   4.836 -0.3021  0.2280 -0.2078
  144MOL0     C18935   5.268   7.666   4.971 -0.2670 -0.1947 -0.5139
  144MOL0     C18936   5.374   7.615   5.066 -0.1643  0.6568  0.6088
  144MOL0     C18937   5.425   7.458   5.043  0.0597  0.2503  0.5161
  144MOL0     C18938   5.573   7.444   5.097  0.2812  0.7794  0.8598
  144MOL0     C18939   5.576   7.507   5.227 -0.3130  0.0242  0.3046
  144MOL0     C18940   5.578   7.558   5.330  0.0942  0.2713  0.4056
  144MOL0     C18941   5.527   7.803   4.823 -0.9571  0.3164  0.3114
  144MOL0     C18942   5.597   7.924   4.813  0.6356  0.4377  0.3193
  144MOL0     H18943   5.666   8.410   4.676  0.4054  0.0279 -0.2385
  144MOL0     H18944   5.805   8.608   4.684 -2.4374 -1.0167 -0.0678
  144MOL0     H18945   5.951   8.765   4.708  0.4323  1.1917  1.1799
  144MOL0     H18946   6.084   8.654   4.651 -0.3697 -0.5342  0.1437
  144MOL0     H18947   6.162   8.880   4.647  2.6857  1.9072  1.1950
  144MOL0     H18948   6.236   8.787   4.778  0.7464 -1.0008 -2.3868
  144MOL0     H18949   6.086   8.895   4.943 -0.9603 -1.5992 -0.2902
  144MOL0     H18950   6.009   8.979   4.809  0.7609  0.4209 -0.0777
  144MOL0     H18951   6.299   9.009   4.895 -0.2169  0.7442  1.2964
  144MOL0     H18952   6.235   9.082   4.742 -0.3588 -3.9946 -0.7303
  144MOL0     H18953   6.109   9.238   4.868  0.2886 -1.4580 -1.1713
  144MOL0     H18954   6.262   9.230   4.948 -1.3622  2.4353 -1.2979
  144MOL0     H18955   6.157   9.057   5.112  0.1368 -1.3462  1.2676
  144MOL0     H18956   5.997   9.112   5.043  1.7945 -5.2232  0.7660
  144MOL0     H18957   6.127   9.355   5.074 -0.9613 -0.9872 -1.5233
  144MOL0     H18958   6.015   9.283   5.191 -1.5783 -0.3659 -2.1026
  144MOL0     H18959   6.256   9.381   5.252  1.7352 -0.0925 -1.2407
  144MOL0     H18960   6.325   9.235   5.196 -0.6674  0.6106 -0.1648
  144MOL0     H18961   6.000   9.166   5.381  0.8704  2.6928 -3.8760
  144MOL0     H18962   6.076   8.923   5.652 -0.6253 -0.0632  1.0729
  144MOL0     H18963   5.942   9.001   5.553 -1.2478 -0.2621  2.6372
  144MOL0     H18964   5.911   9.017   5.806 -1.0427  1.0121  1.4766
  144MOL0     H18965   5.924   9.177   5.716  0.3741  1.1109  1.3200
  144MOL0     H18966   6.044   9.098   5.945 -0.9892 -2.4119 -0.0266
  144MOL0     H18967   6.158   9.035   5.840 -0.4448 -0.4644 -0.3929
  144MOL0     H18968   6.059   9.329   5.863 -2.6682 -2.7888 -2.4108
  144MOL0     H18969   6.170   9.274   5.737 -1.1929  0.2811  0.1052
  144MOL0     H18970   6.419   9.370   6.133  3.6671  3.1603  1.3338
  144MOL0     H18971   6.464   9.583   6.199 -1.8470  2.1449  1.7938
  144MOL0     H18972   6.511   9.969   6.425 -0.9468  1.3760  0.6890
  144MOL0     H18973   6.603  10.189   6.445 -2.3345 -0.2414 -0.6052
  144MOL0     H18974   6.768  10.518   6.220 -1.7593  0.1943 -0.7254
  144MOL0     H18975   6.723  10.407   6.092 -2.3328 -2.7065  1.1989
  144MOL0     H18976   6.962  10.418   6.076 -2.0971 -0.7013 -1.6371
  144MOL0     H18977   6.919  10.260   6.130  3.1228 -1.1377  2.2623
  144MOL0     H18978   6.965  10.364   6.373 -1.0176  1.0169 -0.9972
  144MOL0     H18979   7.032  10.507   6.298  2.0804  0.3434 -0.0341
  144MOL0     H18980   7.121  10.228   6.280 -1.4493 -0.2931 -3.5643
  144MOL0     H18981   7.181  10.345   6.163  0.2360  1.7774  0.3709
  144MOL0     H18982   7.212  10.390   6.470  0.2821  2.7065 -0.0945
  144MOL0     H18983   7.282  10.481   6.341 -0.1277 -0.4097 -3.7749
  144MOL0     H18984   7.421  10.297   6.281  0.0303 -0.9737 -0.5361
  144MOL0     H18985   7.332  10.191   6.398  1.2768 -1.0409 -3.7641
  144MOL0     H18986   7.442  10.447   6.496 -0.9746  0.5105 -1.3597
  144MOL0     H18987   7.414  10.302   6.582 -0.2826  0.5494 -0.3521
  144MOL0     H18988   7.601  10.191   6.457 -0.9317  0.0465  2.6652
  144MOL0     H18989   7.663  10.317   6.569 -1.9664  0.1753  1.5175
  144MOL0     H18990   6.692  10.207   6.030  0.6450  0.8574  0.7270
  144MOL0     H18991   6.563  10.005   5.990 -4.6950  2.9582 -0.7186
  144MOL0     H18992   6.223   9.746   5.875  1.5755  1.4848  1.4210
  144MOL0     H18993   6.158   9.518   5.806  1.2123 -1.4671 -0.7381
  144MOL0     H18994   6.052   8.409   4.987  1.1917 -3.3534 -1.5020
  144MOL0     H18995   5.933   8.217   4.957 -2.0700  0.3361  0.3997
  144MOL0     H18996   5.322   8.117   4.743 -0.9204 -0.2818  0.1932
  144MOL0     H18997   5.218   7.910   4.772 -0.0790  4.5653 -1.0260
  144MOL0     H18998   5.176   7.606   4.973 -0.2790 -0.1608  1.0979
  144MOL0     H18999   5.237   7.768   4.998 -1.7945 -0.1505 -2.2476
  144MOL0     H19000   5.454   7.688   5.049 -0.3281  1.1072  1.6709
  144MOL0     H19001   5.330   7.622   5.165 -1.5760 -0.0522  0.0547
  144MOL0     H19002   5.409   7.417   4.943  0.5420  0.2550  0.4368
  144MOL0     H19003   5.362   7.402   5.112 -2.3579 -0.2328 -1.9075
  144MOL0     H19004   5.570   7.335   5.105 -4.9267  0.6099  0.1854
  144MOL0     H19005   5.642   7.485   5.023  0.1473  0.4256  0.5354
  144MOL0     H19006   5.581   7.601   5.428 -1.9374  1.3466  0.0492
  144MOL0     H19007   5.576   7.707   4.834 -2.7818 -0.5468  1.4338
  144MOL0     H19008   5.706   7.923   4.813  0.6398  0.4421 -0.4209
  145MOL0     O19009  10.351   3.257   1.897 -0.1192  0.0821 -0.0543
  145MOL0     C19010  10.393   3.149   1.937 -0.3599 -0.2030 -0.1541
  145MOL0     O19011  10.517   3.121   1.978 -0.6909  0.3055 -0.5921
  145MOL0     C19012  10.607   3.225   1.986 -0.0572 -0.1586  0.1978
  145MOL0     C19013  10.659   3.297   1.870  0.3006 -0.1361  0.1767
  145MOL0     C19014  10.765   3.382   1.891  0.4497  0.3546 -0.2075
  145MOL0     C19015  10.807   3.410   2.018  0.1568 -0.8615  0.8372
  145MOL0     O19016  10.916   3.488   2.030 -0.2246 -0.3223  0.5305
  145MOL0     C19017  10.901   3.624   2.008  1.0568  0.4665  0.5433
  145MOL0     C19018  11.036   3.700   2.040 -0.0863 -0.1756  0.5404
  145MOL0     C19019  11.148   3.680   1.936  0.0579  0.4561  0.3607
  145MOL0     C19020  11.226   3.555   1.970  0.7258 -0.3766 -1.1653
  145MOL0     C19021  11.282   3.488   1.849  0.1331 -1.0230 -0.4843
  145MOL0     C19022  11.189   3.437   1.735  0.3232 -0.3831  0.0666
  145MOL0     C19023  11.272   3.361   1.624 -0.3356 -0.7341 -0.0492
  145MOL0     C19024  11.200   3.273   1.530  0.3397 -0.4729  0.4541
  145MOL0     N19025  11.082   3.330   1.451  0.6151  0.0202 -0.1932
  145MOL0     C19026  10.958   3.319   1.509  0.3536 -0.4876 -1.0339
  145MOL0     C19027  10.876   3.375   1.406  0.1347 -0.7193 -0.0209
  145MOL0     C19028  10.730   3.423   1.427 -0.2697  1.4935 -0.0890
  145MOL0     C19029  10.642   3.311   1.482 -0.7645  0.0334 -0.3398
  145MOL0     C19030  10.504   3.364   1.517 -0.9891 -0.0918  0.2946
  145MOL0     C19031  10.419   3.397   1.401  0.8138  0.1437  0.1062
  145MOL0     O19032  10.307   3.463   1.455  0.5175  0.5077  0.0685
  145MOL0     C19033  10.182   3.456   1.393 -0.2750 -0.4502 -0.4347
  145MOL0     C19034  10.065   3.479   1.465  0.2722  0.8922 -0.3591
  145MOL0     C19035   9.940   3.450   1.405  0.7390  0.6781 -0.5689
  145MOL0     C19036   9.933   3.411   1.272  0.8225 -0.3216 -0.5478
  145MOL0     C19037   9.801   3.384   1.213  0.6767 -0.4160  0.5268
  145MOL0     O19038   9.778   3.390   1.078 -0.1478 -0.0952  0.0613
  145MOL0     C19039   9.653   3.372   1.012  0.0452  1.1003  0.0459
  145MOL0     C19040   9.677   3.318   0.878 -0.1644  0.3249  0.1922
  145MOL0     C19041   9.566   3.287   0.802  0.0722  0.5836 -0.2207
  145MOL0     C19042   9.433   3.319   0.853 -0.5086 -0.8559  0.4255
  145MOL0     O19043   9.334   3.270   0.775  0.7352 -0.6177 -0.5980
  145MOL0     C19044   9.199   3.307   0.800  0.0686  0.2357 -0.9210
  145MOL0     C19045   9.103   3.229   0.705  0.0755 -0.3959  0.3060
  145MOL0     C19046   8.948   3.260   0.741  0.3494 -0.0366  0.6867
  145MOL0     C19047   8.856   3.162   0.669  0.4992  0.1739 -0.1960
  145MOL0     C19048   8.696   3.181   0.716 -0.2049  0.3765 -0.3660
  145MOL0     C19049   8.640   3.321   0.703 -0.7821 -0.1530  0.3892
  145MOL0     C19050   8.487   3.327   0.732  0.4516 -0.3774  0.1142
  145MOL0     C19051   8.447   3.272   0.873  0.1144  0.2132 -0.1146
  145MOL0    Cl19052   8.339   3.141   0.842  0.3598  0.1894 -0.4872
  145MOL0     C19053   9.419   3.384   0.974  0.0685 -0.0501 -0.8142
  145MOL0     C19054   9.526   3.405   1.056  0.3183  0.2315 -0.7500
  145MOL0     O19055   9.716   3.360   1.295 -0.0758  0.4849  0.6812
  145MOL0     C19056  10.053   3.412   1.193  0.2474  1.0073  0.5188
  145MOL0     C19057  10.173   3.427   1.260 -0.0320 -0.0114 -0.2159
  145MOL0     N19058  10.953   3.407   1.301 -0.5301 -0.2774 -0.0786
  145MOL0     N19059  11.078   3.379   1.327  0.4457 -0.5617  0.1659
  145MOL0     C19060  10.759   3.344   2.129  0.0690  0.5624  0.1721
  145MOL0     C19061  10.650   3.252   2.110 -0.8810 -0.3168 -0.0110
  145MOL0     C19062  10.300   3.039   1.938  0.0479  0.8077 -0.3447
  145MOL0     C19063  10.336   2.925   2.011 -0.0022  0.1869  0.0272
  145MOL0     C19064  10.254   2.805   2.030  0.6199 -0.1099 -0.6581
  145MOL0     C19065  10.134   2.814   1.958  0.0750 -0.4638  0.0070
  145MOL0     O19066  10.061   2.695   1.953 -0.2170 -0.4868 -0.5057
  145MOL0     C19067   9.943   2.694   1.871 -0.7914  0.2736 -1.1634
  145MOL0     C19068   9.868   2.552   1.909 -0.3785 -0.9029 -0.8237
  145MOL0     C19069   9.795   2.542   2.047 -1.2357 -0.4821  0.2047
  145MOL0     C19070   9.647   2.583   2.037  0.4295 -0.5622 -0.7016
  145MOL0     C19071   9.578   2.521   2.153 -0.2597 -0.0220  0.3822
  145MOL0     C19072   9.503   2.456   2.224 -0.3243 -0.0605  0.0289
  145MOL0     C19073  10.088   2.937   1.896  0.2375  0.1772  0.4866
  145MOL0     C19074  10.175   3.051   1.883  0.7148  0.3539 -0.2002
  145MOL0     H19075  10.601   3.295   1.778  2.8752 -1.4537 -1.5447
  145MOL0     H19076  10.808   3.422   1.800 -0.4021  2.8652  0.4119
  145MOL0     H19077  10.819   3.644   2.078  0.2612  0.5865 -0.3867
  145MOL0     H19078  10.861   3.644   1.908 -1.3209 -0.0024  1.3427
  145MOL0     H19079  11.081   3.671   2.135  2.0515  0.7023 -0.1521
  145MOL0     H19080  11.030   3.809   2.050 -1.2648 -0.1550 -0.1710
  145MOL0     H19081  11.207   3.772   1.933 -0.7964  1.0101 -1.7877
  145MOL0     H19082  11.104   3.673   1.836  2.2520 -1.4787 -0.5708
  145MOL0     H19083  11.307   3.601   2.028  0.4071 -0.5004 -0.6165
  145MOL0     H19084  11.165   3.488   2.031  1.2871  0.1506  0.0261
  145MOL0     H19085  11.327   3.400   1.897 -1.2585 -0.7592  1.4079
  145MOL0     H19086  11.366   3.550   1.815 -0.1710 -0.8021 -0.8400
  145MOL0     H19087  11.131   3.520   1.695  0.2291  0.6078  2.1350
  145MOL0     H19088  11.125   3.360   1.779 -0.2401 -1.3560 -2.3329
  145MOL0     H19089  11.322   3.445   1.575 -0.0487 -0.7543  0.2007
  145MOL0     H19090  11.356   3.308   1.670  1.2675  1.3320 -0.4316
  145MOL0     H19091  11.161   3.184   1.580  0.5940 -1.6468 -1.3606
  145MOL0     H19092  11.284   3.239   1.469  0.7237 -0.1445  0.7963
  145MOL0     H19093  10.927   3.307   1.612  2.3362  0.5517 -0.2644
  145MOL0     H19094  10.701   3.443   1.324 -2.7243 -3.0163 -0.5081
  145MOL0     H19095  10.723   3.518   1.481  1.7111  1.9367 -0.5644
  145MOL0     H19096  10.687   3.274   1.575 -1.4881 -2.0916 -0.7814
  145MOL0     H19097  10.635   3.229   1.410  1.7993 -1.4967  1.0144
  145MOL0     H19098  10.452   3.287   1.575 -2.6205  1.3749  0.9100
  145MOL0     H19099  10.517   3.447   1.588 -1.0569  0.5942 -0.4837
  145MOL0     H19100  10.393   3.304   1.350  2.2057  0.2895 -0.9324
  145MOL0     H19101  10.475   3.454   1.326  2.5537 -1.1993  0.3372
  145MOL0     H19102  10.069   3.506   1.570  1.6208 -1.3819  0.2615
  145MOL0     H19103   9.857   3.451   1.474  0.0574 -3.1836 -1.0914
  145MOL0     H19104   9.775   3.301   0.836 -0.1899 -1.2590  0.7409
  145MOL0     H19105   9.559   3.237   0.705 -0.7654 -1.6613  0.9316
  145MOL0     H19106   9.173   3.412   0.786 -4.1501  0.0176  2.8389
  145MOL0     H19107   9.172   3.285   0.904 -0.9827  1.7622 -0.8365
  145MOL0     H19108   9.125   3.122   0.706 -0.7741 -0.5792 -0.1321
  145MOL0     H19109   9.120   3.259   0.601  1.6333  0.5249  0.7823
  145MOL0     H19110   8.922   3.359   0.702 -1.9185 -0.4964  0.9340
  145MOL0     H19111   8.931   3.258   0.849 -0.0190  0.4906  0.6441
  145MOL0     H19112   8.854   3.197   0.565  0.9598  1.0621  0.0840
  145MOL0     H19113   8.897   3.062   0.686  0.6182  0.6079  2.3536
  145MOL0     H19114   8.676   3.137   0.814 -4.6566  2.1367 -0.2722
  145MOL0     H19115   8.632   3.122   0.649 -1.0163  1.2370 -0.3667
  145MOL0     H19116   8.662   3.369   0.607  1.8474 -1.2979  0.3137
  145MOL0     H19117   8.702   3.380   0.772 -0.3492 -2.2417  1.8533
  145MOL0     H19118   8.460   3.433   0.724 -0.7098 -0.7008 -0.3969
  145MOL0     H19119   8.417   3.295   0.655  0.2898  0.1107  0.0532
  145MOL0     H19120   8.392   3.349   0.927 -0.8756 -1.5521  1.5588
  145MOL0     H19121   8.533   3.242   0.934  0.4700  2.4989  0.5753
  145MOL0     H19122   9.318   3.406   1.008 -0.1145 -0.0677 -1.3388
  145MOL0     H19123   9.509   3.470   1.142  0.9707 -1.7181  0.9336
  145MOL0     H19124  10.050   3.388   1.087  1.6642  1.2662  0.3941
  145MOL0     H19125  10.262   3.415   1.200 -1.1283 -0.7730 -1.7423
  145MOL0     H19126  10.794   3.367   2.229  1.2988 -0.8124  0.0735
  145MOL0     H19127  10.590   3.218   2.194 -2.1583  2.2903  0.2571
  145MOL0     H19128  10.431   2.919   2.064 -0.3898 -1.5994  0.5979
  145MOL0     H19129  10.281   2.716   2.085 -4.4931 -2.3818 -1.2677
  145MOL0     H19130   9.958   2.705   1.763 -1.9621  5.4994 -1.0695
  145MOL0     H19131   9.871   2.773   1.892  1.1150  1.3729  2.0108
  145MOL0     H19132   9.800   2.515   1.831  3.0055 -0.7996 -4.0955
  145MOL0     H19133   9.941   2.471   1.917 -2.1402 -2.6166 -1.3427
  145MOL0     H19134   9.858   2.597   2.118  0.0442 -1.7701  0.1073
  145MOL0     H19135   9.802   2.438   2.080 -0.8514  0.3500  3.0252
  145MOL0     H19136   9.650   2.690   2.060  4.8757 -0.4014 -1.0700
  145MOL0     H19137   9.613   2.562   1.936  2.7084 -0.0812 -1.6424
  145MOL0     H19138   9.451   2.399   2.298 -3.5505  0.8109 -1.3717
  145MOL0     H19139   9.994   2.940   1.842 -0.0240  0.8417  0.9692
  145MOL0     H19140  10.145   3.142   1.832 -1.1557  0.5398  1.1297
  146MOL0     O19141   6.969   0.197   2.281  0.5363  0.1526 -0.3089
  146MOL0     C19142   6.912   0.185   2.173  0.9975  0.1044  0.0574
  146MOL0     O19143   6.950   0.228   2.044 -0.2324  0.0182 -0.2345
  146MOL0     C19144   7.058   0.318   2.034  0.0772  0.5597 -0.1652
  146MOL0     C19145   7.136   0.324   1.920  0.1433  0.1627  0.1690
  146MOL0     C19146   7.230   0.420   1.893 -0.8054  0.1004  0.2383
  146MOL0     C19147   7.259   0.511   1.991 -0.1254 -0.7260 -0.4901
  146MOL0     O19148   7.343   0.616   1.961 -0.8585 -0.3724  0.0601
  146MOL0     C19149   7.383   0.720   2.046 -1.0369 -0.3563  0.0282
  146MOL0     C19150   7.499   0.801   1.977  0.9016  0.2187  0.1274
  146MOL0     C19151   7.461   0.947   1.938 -0.1388 -0.2778  0.2597
  146MOL0     C19152   7.567   1.008   1.845  0.8742 -0.2928 -0.4831
  146MOL0     C19153   7.535   1.156   1.843 -0.1780  0.0456 -0.4354
  146MOL0     C19154   7.616   1.230   1.738  0.2761 -0.2938 -0.3079
  146MOL0     C19155   7.613   1.194   1.585 -0.2948  0.1675 -0.5111
  146MOL0     C19156   7.499   1.261   1.506  0.4693  0.0594  0.2341
  146MOL0     N19157   7.363   1.205   1.541  0.4619  0.2400  0.0037
  146MOL0     C19158   7.248   1.281   1.563  0.1532  0.3636  0.0712
  146MOL0     C19159   7.159   1.199   1.620  0.3111 -0.0131 -0.0953
  146MOL0     C19160   7.029   1.246   1.684  0.8059 -0.1721 -0.7619
  146MOL0     C19161   6.953   1.114   1.729  0.1325 -0.9010  0.3974
  146MOL0     C19162   6.804   1.152   1.759 -0.0575  0.2706 -0.5578
  146MOL0     C19163   6.730   1.046   1.836  0.3013  0.3416 -0.7855
  146MOL0     O19164   6.589   1.073   1.834  0.8326  0.4717 -0.1335
  146MOL0     C19165   6.511   1.015   1.929 -1.0102  0.6097  0.4023
  146MOL0     C19166   6.537   0.900   2.000  0.8588 -0.7582  0.1312
  146MOL0     C19167   6.440   0.837   2.082  0.0863  0.7291 -0.1462
  146MOL0     C19168   6.318   0.921   2.118  0.5409  0.6330 -0.2383
  146MOL0     C19169   6.218   0.862   2.208 -0.4258  0.0547  0.8221
  146MOL0     O19170   6.242   0.742   2.261 -0.5037 -0.1366 -0.6466
  146MOL0     C19171   6.178   0.693   2.366 -0.3568  0.3272 -0.3643
  146MOL0     C19172   6.103   0.579   2.334  0.2983  0.3542  1.2501
  146MOL0     C19173   6.049   0.500   2.431  1.3398  0.8135 -0.0519
  146MOL0     C19174   6.055   0.542   2.564 -0.5193  0.2261  1.1639
  146MOL0     O19175   6.002   0.472   2.673 -0.2307  0.2207  0.5390
  146MOL0     C19176   5.928   0.345   2.644 -0.0632  0.6816 -0.4534
  146MOL0     C19177   5.892   0.271   2.771  0.9889 -0.0073  0.5010
  146MOL0     C19178   5.769   0.317   2.844  0.3209  0.1592  0.9928
  146MOL0     C19179   5.746   0.252   2.977 -0.1988 -0.2355  0.4657
  146MOL0     C19180   5.599   0.260   3.004  0.4302 -0.4852  0.0948
  146MOL0     C19181   5.563   0.224   3.152  0.8968 -0.7184  0.2115
  146MOL0     C19182   5.518   0.075   3.165  0.3720  0.1249 -0.3678
  146MOL0     C19183   5.430   0.066   3.283  1.0274  0.0113  0.2208
  146MOL0    Cl19184   5.416  -0.105   3.316 -0.2984  0.2657  0.0032
  146MOL0     C19185   6.101   0.672   2.596  0.4924  0.6062  0.1894
  146MOL0     C19186   6.168   0.749   2.499  0.1067  0.0899 -0.1170
  146MOL0     O19187   6.118   0.927   2.236 -0.3645 -0.1710 -0.0907
  146MOL0     C19188   6.296   1.034   2.040 -0.3154 -0.1394  0.7039
  146MOL0     C19189   6.395   1.073   1.949 -0.4193 -0.0032  0.4603
  146MOL0     N19190   7.214   1.076   1.618  0.0302  0.4717  0.7221
  146MOL0     N19191   7.336   1.078   1.579 -0.2713 -0.3911 -0.1975
  146MOL0     C19192   7.183   0.515   2.103 -0.1033 -0.5886 -0.5518
  146MOL0     C19193   7.074   0.426   2.122 -1.0562 -0.2108  0.8051
  146MOL0     C19194   6.784   0.106   2.177 -0.3567  0.0418  0.1169
  146MOL0     C19195   6.705   0.057   2.066 -0.0050 -0.5945  0.8018
  146MOL0     C19196   6.593  -0.022   2.076 -0.1273  0.3513 -1.0972
  146MOL0     C19197   6.543  -0.059   2.200 -0.6597  0.2163  0.3954
  146MOL0     O19198   6.438  -0.144   2.194 -0.6275  0.4975  0.1607
  146MOL0     C19199   6.376  -0.201   2.308  0.1471 -0.8675  0.0136
  146MOL0     C19200   6.223  -0.198   2.315 -0.8118 -0.0269  0.6088
  146MOL0     C19201   6.168  -0.280   2.438  0.3623 -0.3999 -0.1305
  146MOL0     C19202   6.018  -0.242   2.444 -1.0014 -0.6293 -0.4065
  146MOL0     C19203   5.947  -0.359   2.508 -0.5282  0.0539 -1.0767
  146MOL0     C19204   5.889  -0.450   2.555 -0.3345  0.6311  0.4729
  146MOL0     C19205   6.611  -0.011   2.316 -0.2032 -0.6067 -0.3427
  146MOL0     C19206   6.725   0.067   2.307  0.6942 -0.1560  0.3812
  146MOL0     H19207   7.108   0.240   1.856 -2.2858  0.6501  0.5163
  146MOL0     H19208   7.280   0.411   1.797  0.6473 -3.3128  1.1821
  146MOL0     H19209   7.417   0.681   2.142  1.5354  0.1443 -0.5920
  146MOL0     H19210   7.294   0.781   2.067 -1.4606 -1.1773  0.6543
  146MOL0     H19211   7.517   0.755   1.880 -1.4501  3.0217 -1.7816
  146MOL0     H19212   7.582   0.803   2.048 -1.5727  0.9094  3.2927
  146MOL0     H19213   7.461   1.007   2.029  0.5631 -1.3794  1.0062
  146MOL0     H19214   7.361   0.969   1.898 -0.9666  1.3065  2.9521
  146MOL0     H19215   7.660   0.980   1.895  0.7675  0.4621  0.1579
  146MOL0     H19216   7.566   0.960   1.746 -0.6062  0.4524 -0.8566
  146MOL0     H19217   7.541   1.194   1.946  1.0364 -1.7334  0.2008
  146MOL0     H19218   7.434   1.187   1.814 -0.0660  2.6098  1.5248
  146MOL0     H19219   7.723   1.216   1.756  0.7642 -0.3624 -2.8562
  146MOL0     H19220   7.590   1.335   1.751  1.5115 -0.0170  0.0170
  146MOL0     H19221   7.710   1.221   1.543  0.3686 -0.0886  0.7970
  146MOL0     H19222   7.584   1.089   1.571 -2.0350  0.2447  1.8380
  146MOL0     H19223   7.535   1.251   1.404 -0.9718  1.3252 -0.4299
  146MOL0     H19224   7.493   1.368   1.530  1.4603  0.5466 -1.5525
  146MOL0     H19225   7.239   1.388   1.574  0.9503  0.3942  0.5406
  146MOL0     H19226   6.974   1.302   1.607 -1.0669  0.8405  1.2020
  146MOL0     H19227   7.048   1.305   1.774 -0.4433 -1.9817  0.7802
  146MOL0     H19228   6.998   1.070   1.818 -0.1869 -3.2120 -0.5155
  146MOL0     H19229   6.969   1.035   1.655  2.2622 -1.0912  0.9978
  146MOL0     H19230   6.798   1.239   1.825 -0.5008 -0.2804  0.1423
  146MOL0     H19231   6.749   1.182   1.669 -4.3533 -0.6857  1.5048
  146MOL0     H19232   6.769   1.022   1.935  1.6357 -0.1141 -1.4019
  146MOL0     H19233   6.744   0.954   1.778  0.7612 -1.2014  1.6451
  146MOL0     H19234   6.630   0.847   1.982  0.1939 -1.7657 -0.4618
  146MOL0     H19235   6.458   0.740   2.127  0.8846  1.2901  0.7754
  146MOL0     H19236   6.111   0.529   2.238 -3.2886  1.2047  0.3572
  146MOL0     H19237   5.996   0.408   2.405 -2.6818  1.8908  3.2945
  146MOL0     H19238   5.996   0.278   2.591  1.6091  0.0310  2.3230
  146MOL0     H19239   5.835   0.360   2.587 -1.2971 -3.1065  0.3200
  146MOL0     H19240   5.971   0.282   2.846  0.8295  0.8902  0.5568
  146MOL0     H19241   5.880   0.168   2.739 -0.7668  1.4174 -4.2981
  146MOL0     H19242   5.681   0.296   2.782  0.3118 -1.4298  1.5073
  146MOL0     H19243   5.768   0.425   2.859  0.3160  0.5988 -1.6944
  146MOL0     H19244   5.780   0.148   2.988 -0.6718 -0.4881 -0.3156
  146MOL0     H19245   5.805   0.306   3.052  1.9321 -2.5629  0.6273
  146MOL0     H19246   5.531   0.204   2.939 -0.2397 -1.2041  1.3984
  146MOL0     H19247   5.574   0.365   2.987  1.6981  0.2209  2.2535
  146MOL0     H19248   5.482   0.290   3.183  2.0229  0.4680  0.7410
  146MOL0     H19249   5.652   0.246   3.212  3.4468 -0.3695 -3.3477
  146MOL0     H19250   5.449   0.059   3.082 -0.7573 -0.8615  0.7214
  146MOL0     H19251   5.604   0.007   3.172 -0.3599 -0.7728  0.2268
  146MOL0     H19252   5.328   0.097   3.259  1.0359 -0.6154 -0.6640
  146MOL0     H19253   5.465   0.119   3.372 -1.5513  1.0615  0.6983
  146MOL0     H19254   6.119   0.716   2.693  2.5900  0.0303  0.1036
  146MOL0     H19255   6.209   0.843   2.533  0.8652 -0.2642 -0.0273
  146MOL0     H19256   6.207   1.096   2.043 -0.2485 -0.0204  0.2869
  146MOL0     H19257   6.381   1.169   1.900  2.1166  1.8081  2.9425
  146MOL0     H19258   7.196   0.586   2.184 -1.0365 -0.6866 -0.3047
  146MOL0     H19259   7.002   0.442   2.202 -0.6928  0.0023  1.0889
  146MOL0     H19260   6.742   0.077   1.966 -4.1778 -4.2322 -1.8759
  146MOL0     H19261   6.542  -0.073   1.996 -3.8236  4.1162 -1.4703
  146MOL0     H19262   6.404  -0.137   2.392 -0.3637 -1.4701  0.6534
  146MOL0     H19263   6.427  -0.298   2.314  3.9298  0.9109 -0.5744
  146MOL0     H19264   6.179  -0.098   2.302 -0.4242  0.3846  2.2820
  146MOL0     H19265   6.195  -0.266   2.234 -1.6919  0.5154  0.4372
  146MOL0     H19266   6.212  -0.254   2.535 -0.8808  1.6361 -0.0663
  146MOL0     H19267   6.178  -0.389   2.428 -0.2372 -0.4857  0.1634
  146MOL0     H19268   5.993  -0.143   2.484 -0.9986 -0.2968 -1.2038
  146MOL0     H19269   5.989  -0.248   2.339  3.5433  4.6302 -2.3946
  146MOL0     H19270   5.826  -0.524   2.598 -1.8480  3.6952  4.0878
  146MOL0     H19271   6.589  -0.049   2.416  0.5706  1.3517  0.6127
  146MOL0     H19272   6.773   0.083   2.404 -0.4081  0.9345  0.7760
  147MOL0     O19273   6.242   2.209   1.521 -0.0441  0.9426 -0.1969
  147MOL0     C19274   6.214   2.097   1.482 -0.0368 -0.1946 -0.3800
  147MOL0     O19275   6.134   2.012   1.552 -0.5696 -0.4960  0.3224
  147MOL0     C19276   6.098   2.033   1.684  0.2326 -0.4610 -0.0427
  147MOL0     C19277   6.038   2.147   1.725 -0.1883  0.5587 -0.5860
  147MOL0     C19278   5.982   2.156   1.851  0.2701  0.2735 -0.1039
  147MOL0     C19279   5.989   2.052   1.943 -0.0746  0.3408  0.1446
  147MOL0     O19280   5.928   2.081   2.066  0.4439  0.3244 -0.0084
  147MOL0     C19281   5.926   1.967   2.159  0.2999  0.8748  0.7434
  147MOL0     C19282   6.063   1.951   2.227  1.1244  0.6902  0.1858
  147MOL0     C19283   6.066   1.824   2.326 -0.7220 -0.0101 -0.1706
  147MOL0     C19284   5.954   1.810   2.419 -1.1124  0.7188  0.4001
  147MOL0     C19285   6.013   1.736   2.545  0.1487  0.2190 -0.4656
  147MOL0     C19286   6.047   1.586   2.518 -0.0046 -0.6355  0.0669
  147MOL0     C19287   6.096   1.527   2.653  0.5710 -0.6263  0.8244
  147MOL0     C19288   6.009   1.415   2.702  0.4909 -0.0854 -0.1154
  147MOL0     N19289   5.870   1.443   2.738  0.0533 -0.2383  0.4654
  147MOL0     C19290   5.766   1.438   2.651 -0.3311 -1.0656  0.6935
  147MOL0     C19291   5.657   1.478   2.719  0.2331 -0.0063 -0.1684
  147MOL0     C19292   5.516   1.452   2.666  0.0187  0.2894 -0.1375
  147MOL0     C19293   5.441   1.356   2.755  0.2507 -0.7518 -0.9537
  147MOL0     C19294   5.287   1.372   2.731  0.2449 -0.4308  0.2614
  147MOL0     C19295   5.207   1.261   2.805  0.0402 -0.8600  0.0922
  147MOL0     O19296   5.219   1.275   2.942 -0.1097 -0.3190 -0.9200
  147MOL0     C19297   5.129   1.354   3.010  0.0949 -0.1005  0.2764
  147MOL0     C19298   5.116   1.356   3.145 -0.3754 -0.3750 -0.0207
  147MOL0     C19299   5.033   1.444   3.216  0.6756  0.3354 -0.0029
  147MOL0     C19300   4.953   1.537   3.145  0.2449  0.3184  0.3385
  147MOL0     C19301   4.874   1.644   3.205  0.1189  0.0051  0.5120
  147MOL0     O19302   4.818   1.735   3.115 -0.2910 -0.5140 -0.4894
  147MOL0     C19303   4.740   1.836   3.160  0.6251 -0.1651  0.3679
  147MOL0     C19304   4.626   1.860   3.081  0.1638  0.2284 -1.2616
  147MOL0     C19305   4.526   1.952   3.128  0.5068 -0.3500  0.1559
  147MOL0     C19306   4.544   2.034   3.238  0.1691 -0.2210 -0.0761
  147MOL0     O19307   4.445   2.126   3.277 -0.1710  0.1001  0.1873
  147MOL0     C19308   4.375   2.094   3.405  0.3246 -0.9470 -0.0998
  147MOL0     C19309   4.228   2.142   3.384 -0.8726 -0.5268  0.2679
  147MOL0     C19310   4.199   2.278   3.430  0.6314  0.5402 -0.4264
  147MOL0     C19311   4.278   2.389   3.361 -0.2812 -0.8831 -0.6854
  147MOL0     C19312   4.263   2.396   3.205 -0.1752 -0.8107  0.2140
  147MOL0     C19313   4.321   2.526   3.143 -0.0905 -0.1257  0.2145
  147MOL0     C19314   4.468   2.517   3.125  0.3493 -0.6449 -0.0579
  147MOL0     C19315   4.528   2.406   3.056  0.0824  0.3423  0.3647
  147MOL0    Cl19316   4.514   2.426   2.881 -0.1386 -0.0508 -0.1350
  147MOL0     C19317   4.661   2.014   3.309  0.2699 -0.0345 -0.1803
  147MOL0     C19318   4.756   1.919   3.275  0.0211 -0.5646  0.3216
  147MOL0     O19319   4.841   1.637   3.321  0.0071  0.0192  0.8662
  147MOL0     C19320   4.953   1.529   3.004  0.0090  0.1739  0.2458
  147MOL0     C19321   5.044   1.452   2.941 -1.1115 -0.7493  0.4298
  147MOL0     N19322   5.698   1.510   2.843  0.2506  0.1111  0.3393
  147MOL0     N19323   5.821   1.499   2.854 -0.4571 -0.5533 -1.1423
  147MOL0     C19324   6.053   1.932   1.900  0.3307 -0.0959 -0.7413
  147MOL0     C19325   6.105   1.921   1.770 -0.9570 -0.3564  0.2677
  147MOL0     C19326   6.268   2.059   1.356  0.2682  0.4692  0.3814
  147MOL0     C19327   6.197   1.970   1.266  0.2735 -0.2538 -0.1737
  147MOL0     C19328   6.237   1.932   1.137  1.0305 -0.0423  0.9313
  147MOL0     C19329   6.363   1.962   1.098 -0.7601  0.1076 -0.5201
  147MOL0     O19330   6.421   1.913   0.981  0.1169 -0.5474 -0.2905
  147MOL0     C19331   6.343   1.825   0.897 -0.2541 -0.8648 -0.2461
  147MOL0     C19332   6.401   1.800   0.755 -0.3489 -0.4349  0.0543
  147MOL0     C19333   6.427   1.933   0.684 -0.6004 -0.5058 -0.2863
  147MOL0     C19334   6.565   2.001   0.712 -0.3915 -0.6850  0.3805
  147MOL0     C19335   6.677   1.938   0.644 -0.1433 -0.2933  0.7174
  147MOL0     C19336   6.781   1.912   0.574  0.4619 -0.0080  0.0401
  147MOL0     C19337   6.437   2.053   1.185 -0.8176  0.1290  0.9069
  147MOL0     C19338   6.387   2.103   1.305  0.1179 -1.2430 -0.9255
  147MOL0     H19339   6.028   2.224   1.650  2.1551  1.2541 -0.2697
  147MOL0     H19340   5.931   2.244   1.888  0.8166  1.3229 -1.7489
  147MOL0     H19341   5.885   1.881   2.105 -0.6500  2.4217 -1.1702
  147MOL0     H19342   5.842   1.992   2.225 -1.8520 -1.5437 -0.8766
  147MOL0     H19343   6.077   2.046   2.280  3.0884  0.4430  0.1735
  147MOL0     H19344   6.145   1.940   2.155  0.4330 -1.9296 -0.2946
  147MOL0     H19345   6.162   1.830   2.378  0.0210  1.0310 -1.5996
  147MOL0     H19346   6.069   1.733   2.264  0.8998  1.5619 -2.5655
  147MOL0     H19347   5.922   1.910   2.450 -0.6857 -0.2927  4.6271
  147MOL0     H19348   5.882   1.743   2.371 -0.7358 -0.6395  1.6720
  147MOL0     H19349   5.935   1.737   2.622  0.2955 -0.5130 -0.2903
  147MOL0     H19350   6.095   1.793   2.589  0.7250  2.1540 -3.7587
  147MOL0     H19351   6.127   1.580   2.443  0.5188  0.0484  0.5521
  147MOL0     H19352   5.968   1.524   2.476  1.0376 -1.4905 -0.7108
  147MOL0     H19353   6.194   1.483   2.633  1.5473  0.2791  3.2443
  147MOL0     H19354   6.101   1.606   2.729 -5.6302  1.4064 -0.3275
  147MOL0     H19355   6.062   1.388   2.794  1.3830  2.7997  0.3477
  147MOL0     H19356   6.000   1.332   2.632 -2.3492 -0.9593  1.1360
  147MOL0     H19357   5.759   1.405   2.548  0.2257  0.9333 -0.0370
  147MOL0     H19358   5.511   1.425   2.561 -2.3395 -1.9492  0.4615
  147MOL0     H19359   5.484   1.556   2.682  2.1437  0.9212  0.3470
  147MOL0     H19360   5.452   1.382   2.860 -3.4461  2.6407 -1.1573
  147MOL0     H19361   5.475   1.253   2.738 -1.6981 -1.5640 -0.2488
  147MOL0     H19362   5.259   1.473   2.763 -2.5630 -1.6401  1.9720
  147MOL0     H19363   5.268   1.365   2.624 -2.0094 -1.2200  0.6495
  147MOL0     H19364   5.247   1.163   2.776 -0.6652 -1.1327  0.0254
  147MOL0     H19365   5.100   1.252   2.785 -0.1479  1.2227 -0.0696
  147MOL0     H19366   5.172   1.282   3.202 -0.6753 -1.2021 -0.7822
  147MOL0     H19367   5.047   1.442   3.324  2.2375  3.6030 -0.0281
  147MOL0     H19368   4.598   1.796   2.998 -2.6416  1.4198 -1.3593
  147MOL0     H19369   4.435   1.965   3.071  0.3021 -1.5185  0.2029
  147MOL0     H19370   4.413   2.161   3.484  1.5354  1.8697 -2.8404
  147MOL0     H19371   4.377   1.988   3.432 -2.9780 -1.4107 -1.2961
  147MOL0     H19372   4.150   2.090   3.442 -3.0756  2.0209 -0.1891
  147MOL0     H19373   4.205   2.123   3.279  1.9211 -1.7694 -0.2049
  147MOL0     H19374   4.228   2.281   3.535 -3.8878 -5.3571  1.5390
  147MOL0     H19375   4.091   2.295   3.431 -0.0739 -2.9380  1.9017
  147MOL0     H19376   4.240   2.486   3.393 -0.0755 -0.2004 -2.3936
  147MOL0     H19377   4.381   2.373   3.394 -0.7315 -0.2802  1.1238
  147MOL0     H19378   4.155   2.405   3.189 -0.5839 -1.4796  2.2029
  147MOL0     H19379   4.284   2.304   3.150 -1.3024 -0.9264 -0.0411
  147MOL0     H19380   4.292   2.610   3.207  1.5301  1.0748 -0.5515
  147MOL0     H19381   4.281   2.543   3.043 -3.1924 -1.1847  1.1535
  147MOL0     H19382   4.511   2.608   3.084 -0.4196  0.5542  1.6655
  147MOL0     H19383   4.522   2.519   3.220  0.4024  0.4243 -0.1057
  147MOL0     H19384   4.487   2.309   3.086 -2.7007  1.1428 -0.5381
  147MOL0     H19385   4.635   2.398   3.077 -0.5007 -2.6886  2.9559
  147MOL0     H19386   4.679   2.069   3.401  2.3188 -0.3799 -0.3199
  147MOL0     H19387   4.842   1.901   3.339 -0.5283 -3.1626  0.4660
  147MOL0     H19388   4.887   1.584   2.937  0.5922 -1.0612 -1.4387
  147MOL0     H19389   5.047   1.482   2.837 -0.5681  0.8342  0.8641
  147MOL0     H19390   6.078   1.860   1.977 -1.2630 -0.0583 -0.1552
  147MOL0     H19391   6.153   1.839   1.718 -0.0976  0.8798 -0.9761
  147MOL0     H19392   6.101   1.926   1.290 -0.5719  1.2842 -0.5691
  147MOL0     H19393   6.167   1.880   1.073  1.4365  0.7339 -0.1749
  147MOL0     H19394   6.241   1.862   0.885 -0.8733 -3.1642 -3.1975
  147MOL0     H19395   6.329   1.726   0.943 -1.8657 -0.6624 -0.2539
  147MOL0     H19396   6.485   1.731   0.743 -0.4169 -0.5108  0.0090
  147MOL0     H19397   6.328   1.740   0.699  1.5004  1.1095 -4.5188
  147MOL0     H19398   6.338   1.992   0.707 -1.5513  0.1781 -4.7760
  147MOL0     H19399   6.414   1.907   0.579 -0.3651 -0.2286 -0.3849
  147MOL0     H19400   6.540   2.103   0.679 -1.6067 -0.3550  2.1752
  147MOL0     H19401   6.581   2.020   0.818  1.8441  2.1999 -0.3168
  147MOL0     H19402   6.871   1.902   0.517  0.8328 -2.8368  1.0029
  147MOL0     H19403   6.529   2.092   1.143 -1.1696  0.0077  0.0184
  147MOL0     H19404   6.447   2.177   1.357 -0.1042 -2.1342  0.6732
  148MOL0     O19405   8.884   7.685   3.497  0.0933  0.2344  0.0475
  148MOL0     C19406   8.802   7.709   3.579 -0.1111  0.3141 -0.2290
  148MOL0     O19407   8.706   7.815   3.564  0.2039 -0.5777  0.5654
  148MOL0     C19408   8.686   7.867   3.440  0.2047  0.4896  0.7334
  148MOL0     C19409   8.659   7.999   3.417 -1.0808 -1.1152 -0.4866
  148MOL0     C19410   8.626   8.045   3.289  0.2598 -0.4356  0.5655
  148MOL0     C19411   8.610   7.958   3.179  0.0306  0.6234  0.0975
  148MOL0     O19412   8.575   8.012   3.060  0.5959  0.2443  0.3365
  148MOL0     C19413   8.535   7.914   2.961 -0.2632  0.3988 -0.7720
  148MOL0     C19414   8.477   7.984   2.846 -0.8341 -0.3524  0.6941
  148MOL0     C19415   8.559   8.104   2.803  0.1670 -0.9997  0.2124
  148MOL0     C19416   8.513   8.170   2.664 -0.2032  0.2321 -0.3897
  148MOL0     C19417   8.535   8.321   2.676  0.0038 -0.4141  0.9357
  148MOL0     C19418   8.451   8.400   2.575  0.6825 -0.5800  0.0428
  148MOL0     C19419   8.298   8.404   2.595 -0.3427  0.2271  0.0805
  148MOL0     C19420   8.257   8.459   2.728 -0.7672 -0.0023 -0.6690
  148MOL0     N19421   8.114   8.476   2.740  1.2129  0.2333 -0.1890
  148MOL0     C19422   8.028   8.385   2.793  0.1313  1.0639  0.1654
  148MOL0     C19423   7.908   8.450   2.815 -0.2697  1.2896  0.3455
  148MOL0     C19424   7.795   8.383   2.888  0.4777  0.4463 -0.1377
  148MOL0     C19425   7.737   8.251   2.839 -0.7273  0.0322  1.5618
  148MOL0     C19426   7.623   8.206   2.932  0.4709 -0.1782 -0.0356
  148MOL0     C19427   7.564   8.074   2.885  0.4528 -0.0012 -0.6211
  148MOL0     O19428   7.448   8.045   2.963 -0.5196 -0.4332 -0.4917
  148MOL0     C19429   7.386   7.927   2.954 -0.6255 -0.1274  0.1993
  148MOL0     C19430   7.302   7.895   3.054  0.2961  0.7199 -0.2466
  148MOL0     C19431   7.218   7.780   3.054  0.5235  0.0528  0.2682
  148MOL0     C19432   7.237   7.693   2.948  0.3949  0.9833  0.1031
  148MOL0     C19433   7.151   7.568   2.938 -0.4223  0.6516 -0.2945
  148MOL0     O19434   7.148   7.485   2.832 -0.2823  0.2482  0.3220
  148MOL0     C19435   7.039   7.400   2.797  0.8017  0.9495 -0.0065
  148MOL0     C19436   6.909   7.418   2.844  0.4993  0.2571 -0.7824
  148MOL0     C19437   6.800   7.337   2.814 -0.3979 -0.2009 -0.6091
  148MOL0     C19438   6.818   7.230   2.729 -0.3806  0.5256 -0.2551
  148MOL0     O19439   6.716   7.141   2.692 -0.6231  0.3484 -0.2431
  148MOL0     C19440   6.725   7.008   2.733 -0.0580  0.4885  0.1893
  148MOL0     C19441   6.588   6.949   2.710  0.0067 -0.1205 -0.8752
  148MOL0     C19442   6.566   6.810   2.787 -0.2221 -0.0438  0.1916
  148MOL0     C19443   6.622   6.696   2.691 -0.3648 -0.9112 -0.3731
  148MOL0     C19444   6.668   6.569   2.770  0.1787 -0.0422 -0.0138
  148MOL0     C19445   6.544   6.497   2.829 -0.1461 -0.1093  0.6542
  148MOL0     C19446   6.573   6.375   2.917 -1.2612 -0.9536 -1.0374
  148MOL0     C19447   6.458   6.318   2.998  0.2156 -0.0689 -0.3760
  148MOL0    Cl19448   6.399   6.444   3.114  0.2778  0.4057  0.5925
  148MOL0     C19449   6.959   7.198   2.693  0.6926 -0.8387 -0.2354
  148MOL0     C19450   7.065   7.283   2.727 -0.4125 -0.5635  0.3870
  148MOL0     O19451   7.073   7.552   3.033 -0.2315  0.3594 -0.2125
  148MOL0     C19452   7.324   7.724   2.845  0.4775  0.4475  0.3792
  148MOL0     C19453   7.402   7.838   2.848  0.5911  0.1187  0.0652
  148MOL0     N19454   7.927   8.579   2.763  0.0060  0.5130 -0.2006
  148MOL0     N19455   8.051   8.592   2.723  0.1606  0.4328 -0.3931
  148MOL0     C19456   8.619   7.821   3.208 -0.1191 -0.2480  0.6584
  148MOL0     C19457   8.667   7.785   3.328 -0.2855  0.3994  0.1099
  148MOL0     C19458   8.787   7.618   3.695  0.1547 -0.0741 -0.3666
  148MOL0     C19459   8.673   7.639   3.778  0.4482  0.2024  0.1640
  148MOL0     C19460   8.672   7.581   3.904 -0.3055  0.5233  0.5360
  148MOL0     C19461   8.764   7.494   3.949 -1.6365  0.1592 -0.5768
  148MOL0     O19462   8.750   7.450   4.079  0.2131 -0.4595 -0.5197
  148MOL0     C19463   8.825   7.344   4.128 -0.3793  0.3564 -0.0091
  148MOL0     C19464   8.783   7.301   4.278  0.0237  0.1252 -0.0503
  148MOL0     C19465   8.637   7.346   4.315  1.0301  0.3046 -0.1889
  148MOL0     C19466   8.573   7.226   4.392 -0.2758 -0.2994 -0.8061
  148MOL0     C19467   8.610   7.202   4.541 -0.2274  0.6515 -0.1612
  148MOL0     C19468   8.631   7.192   4.663  0.1167  0.6148  0.3790
  148MOL0     C19469   8.878   7.465   3.868  0.2391 -0.0066 -0.0368
  148MOL0     C19470   8.883   7.525   3.739  0.0770  0.3687  1.1275
  148MOL0     H19471   8.686   8.078   3.487  0.4957  1.5298 -3.8206
  148MOL0     H19472   8.618   8.151   3.271  2.8133 -0.6665 -3.5568
  148MOL0     H19473   8.460   7.841   2.993 -0.9376  0.5585 -1.9150
  148MOL0     H19474   8.627   7.863   2.931 -0.7177  1.2260 -3.9383
  148MOL0     H19475   8.380   8.013   2.889  0.1563 -1.3954  3.9665
  148MOL0     H19476   8.456   7.913   2.766 -0.7402  1.3078 -0.8399
  148MOL0     H19477   8.661   8.072   2.782 -0.3670 -2.0212 -0.9275
  148MOL0     H19478   8.561   8.177   2.885 -0.6372  0.5478 -1.0788
  148MOL0     H19479   8.588   8.132   2.594 -2.0771  1.2011 -3.0527
  148MOL0     H19480   8.406   8.157   2.647 -0.0713  0.0613 -1.1255
  148MOL0     H19481   8.640   8.333   2.648 -0.5450 -2.9521 -3.0475
  148MOL0     H19482   8.529   8.350   2.781  2.6029 -0.2466  1.1080
  148MOL0     H19483   8.457   8.343   2.481  0.3386 -2.3038  1.0123
  148MOL0     H19484   8.492   8.501   2.573  3.1522 -1.4331  2.0485
  148MOL0     H19485   8.250   8.447   2.506 -0.8906 -2.2462 -0.8950
  148MOL0     H19486   8.266   8.300   2.585 -0.3569  0.3424 -1.3058
  148MOL0     H19487   8.308   8.555   2.743  1.4895 -0.7970 -2.5409
  148MOL0     H19488   8.278   8.389   2.809  2.5681  0.8615 -0.6185
  148MOL0     H19489   8.053   8.286   2.829 -0.4165  1.2931  1.2233
  148MOL0     H19490   7.713   8.455   2.890 -0.8302 -0.9296 -1.7917
  148MOL0     H19491   7.840   8.376   2.988  5.1990 -0.4727 -2.0543
  148MOL0     H19492   7.811   8.171   2.848 -3.2299 -2.7944 -0.7897
  148MOL0     H19493   7.706   8.260   2.734  2.5068 -1.0124  0.3939
  148MOL0     H19494   7.660   8.200   3.035  0.1210  1.2855  0.2018
  148MOL0     H19495   7.535   8.271   2.924 -0.0612 -1.1031 -2.9947
  148MOL0     H19496   7.630   7.987   2.885 -1.1414 -1.3559  2.3493
  148MOL0     H19497   7.536   8.078   2.779  1.2147 -0.7000 -0.8556
  148MOL0     H19498   7.295   7.972   3.130  1.0501  1.7001 -1.1470
  148MOL0     H19499   7.136   7.768   3.124  0.7201 -1.9071  0.2178
  148MOL0     H19500   6.875   7.500   2.905 -1.5225 -2.0946  1.4562
  148MOL0     H19501   6.704   7.350   2.861  0.6192 -1.4510  1.9932
  148MOL0     H19502   6.744   7.003   2.841  2.9651 -0.9905 -0.3169
  148MOL0     H19503   6.812   6.953   2.695 -1.2372 -1.6910  0.4787
  148MOL0     H19504   6.579   6.938   2.602 -0.1969 -2.8844 -0.6538
  148MOL0     H19505   6.513   7.019   2.748  0.1639  1.5992 -3.4458
  148MOL0     H19506   6.464   6.781   2.815 -0.9209  2.3234  0.3501
  148MOL0     H19507   6.633   6.810   2.874 -0.7599 -2.1424  0.6418
  148MOL0     H19508   6.559   6.675   2.605  0.2781 -3.6002 -0.2744
  148MOL0     H19509   6.715   6.736   2.648 -0.0633 -0.0397  1.0123
  148MOL0     H19510   6.742   6.597   2.846 -0.8242  3.3258 -0.1010
  148MOL0     H19511   6.734   6.511   2.705  1.7407  0.0398  1.4416
  148MOL0     H19512   6.468   6.462   2.759 -0.9935 -2.0172  2.4398
  148MOL0     H19513   6.496   6.569   2.896 -0.4845  0.1349  0.1503
  148MOL0     H19514   6.615   6.303   2.846 -2.4913 -0.8388 -1.8983
  148MOL0     H19515   6.654   6.402   2.985  0.4580 -0.4943 -3.1561
  148MOL0     H19516   6.486   6.225   3.049  1.3619  0.0789 -0.7173
  148MOL0     H19517   6.376   6.276   2.939 -1.7870  0.9298  1.5316
  148MOL0     H19518   6.978   7.105   2.640 -0.3462 -0.5517 -1.1427
  148MOL0     H19519   7.169   7.255   2.713 -0.6494 -1.3582  0.1499
  148MOL0     H19520   7.353   7.658   2.763 -0.5977  0.0212  0.3321
  148MOL0     H19521   7.468   7.861   2.765 -0.6661  1.5358 -0.5867
  148MOL0     H19522   8.604   7.743   3.133 -1.3883  0.6709 -0.0905
  148MOL0     H19523   8.680   7.678   3.341 -2.2934 -0.9178 -5.6478
  148MOL0     H19524   8.598   7.714   3.755 -0.4424 -0.2423  1.5246
  148MOL0     H19525   8.581   7.591   3.962  0.4795  0.5595  1.7805
  148MOL0     H19526   8.931   7.369   4.130 -0.1286 -0.2464 -2.4328
  148MOL0     H19527   8.819   7.257   4.062 -2.9809  1.5438 -1.5454
  148MOL0     H19528   8.783   7.193   4.296 -2.0191  0.4419  2.4633
  148MOL0     H19529   8.845   7.360   4.346 -1.4658  2.7826 -0.8279
  148MOL0     H19530   8.574   7.357   4.227 -0.5042 -1.9015  0.5298
  148MOL0     H19531   8.632   7.434   4.379 -0.9235 -0.5483  0.9316
  148MOL0     H19532   8.466   7.244   4.393 -0.2104  0.4591 -2.7877
  148MOL0     H19533   8.585   7.131   4.338 -0.6906 -0.3838 -0.7478
  148MOL0     H19534   8.662   7.176   4.764  0.1918  0.7877  0.3835
  148MOL0     H19535   8.958   7.402   3.904  0.6149  0.1888 -0.5111
  148MOL0     H19536   8.975   7.504   3.686  0.4642 -1.1568  2.3443
  149MOL0     O19537  10.956   0.703  10.713  0.3440 -0.7348  0.5565
  149MOL0     C19538  10.947   0.599  10.644  0.8526  0.1864  0.1382
  149MOL0     O19539  10.897   0.600  10.508  0.2855  0.6137 -0.6180
  149MOL0     C19540  10.854   0.723  10.461  0.1884 -0.3908 -0.7181
  149MOL0     C19541  10.714   0.757  10.488  0.2027  0.0202 -0.2100
  149MOL0     C19542  10.659   0.856  10.421  0.7013  0.2710  0.8178
  149MOL0     C19543  10.720   0.938  10.324 -0.1451 -0.5016 -0.2699
  149MOL0     O19544  10.671   1.063  10.279 -0.0114  0.0698  0.0830
  149MOL0     C19545  10.531   1.063  10.249  0.8924  0.2763 -0.0574
  149MOL0     C19546  10.496   1.186  10.170 -0.2424  0.1122 -0.0104
  149MOL0     C19547  10.362   1.170  10.114 -0.4907  0.5489  1.2433
  149MOL0     C19548  10.324   1.270  10.011  0.2003  0.3060  0.1437
  149MOL0     C19549  10.168   1.259   9.994 -0.7459  0.4423  0.4056
  149MOL0     C19550  10.110   1.377   9.914  0.3079 -0.7665  0.3844
  149MOL0     C19551   9.951   1.381   9.902 -0.2476 -0.4521 -0.3193
  149MOL0     C19552   9.899   1.497   9.810  0.0431  0.2226 -0.0722
  149MOL0     N19553   9.754   1.485   9.806  0.3752 -0.0235  0.1564
  149MOL0     C19554   9.672   1.538   9.907  0.2563  0.6056  0.3721
  149MOL0     C19555   9.546   1.522   9.854 -0.4603 -0.1272  0.2677
  149MOL0     C19556   9.421   1.551   9.934 -0.5328 -0.1032  0.9617
  149MOL0     C19557   9.397   1.700   9.929 -1.2530 -0.4172 -0.5350
  149MOL0     C19558   9.454   1.771  10.053  0.4099 -0.2036 -0.3036
  149MOL0     C19559   9.432   1.915  10.030  0.0200  0.1460  0.6268
  149MOL0     O19560   9.518   1.994  10.118  0.7394  0.0987 -0.1093
  149MOL0     C19561   9.474   1.999  10.251 -1.0984 -0.5208 -0.5123
  149MOL0     C19562   9.357   1.942  10.306  0.6469 -0.7508 -0.2677
  149MOL0     C19563   9.338   1.967  10.447 -0.6522  0.8594  0.1942
  149MOL0     C19564   9.437   2.019  10.525  0.0362  1.1505 -0.2866
  149MOL0     C19565   9.430   2.018  10.669 -0.1982  0.1796 -0.2992
  149MOL0     O19566   9.539   2.015  10.741  0.1933  0.7351 -0.1784
  149MOL0     C19567   9.538   2.025  10.880  0.8126 -0.0095 -0.3220
  149MOL0     C19568   9.667   2.055  10.924  0.2523  0.2861 -0.2640
  149MOL0     C19569   9.699   2.081  11.058  0.2277 -0.7289 -0.6194
  149MOL0     C19570   9.595   2.090  11.152 -0.3599  0.2793  0.8101
  149MOL0     O19571   9.629   2.113  11.283  0.7079 -0.1470  0.5617
  149MOL0     C19572   9.529   2.155  11.375 -0.2219 -0.4324  0.0273
  149MOL0     C19573   9.613   2.243  11.468 -0.2637 -0.2639  0.1933
  149MOL0     C19574   9.705   2.155  11.556 -0.8001 -0.0705 -0.2928
  149MOL0     C19575   9.740   2.254  11.671 -0.0955  0.0675 -0.1327
  149MOL0     C19576   9.836   2.201  11.777 -0.4903 -0.0235 -0.8940
  149MOL0     C19577   9.981   2.203  11.731 -0.4468 -0.8846  0.5322
  149MOL0     C19578  10.069   2.129  11.832  0.2516 -0.1797  1.3933
  149MOL0     C19579  10.108   2.227  11.935  0.9560  0.0398  0.8661
  149MOL0    Cl19580  10.266   2.181  11.994 -0.1440  0.4039 -0.4512
  149MOL0     C19581   9.460   2.066  11.106  0.1570 -0.4373  0.8773
  149MOL0     C19582   9.423   2.030  10.976 -0.1627 -0.6111  0.4338
  149MOL0     O19583   9.318   2.028  10.718 -0.3669  0.3944 -0.3171
  149MOL0     C19584   9.554   2.066  10.465 -0.8978  0.6562  1.6123
  149MOL0     C19585   9.568   2.068  10.327 -0.2547 -0.3193 -0.4380
  149MOL0     N19586   9.557   1.463   9.735  0.0218  0.2257 -0.2292
  149MOL0     N19587   9.670   1.436   9.703  0.2421 -0.7004 -1.6308
  149MOL0     C19588  10.861   0.918  10.312  0.7173 -0.0313 -0.5128
  149MOL0     C19589  10.927   0.809  10.374 -0.5780 -0.3641 -0.1743
  149MOL0     C19590  10.987   0.463  10.687  0.3182 -0.3570  0.1914
  149MOL0     C19591  11.046   0.447  10.811  0.4608  0.1973 -0.4223
  149MOL0     C19592  11.084   0.314  10.858  0.5271  0.7230  1.1311
  149MOL0     C19593  11.043   0.199  10.788  0.0357 -0.1300  0.2460
  149MOL0     O19594  11.089   0.069  10.815 -0.6805  0.7216 -0.4663
  149MOL0     C19595  11.020  -0.052  10.766  0.4633  0.9161  0.6319
  149MOL0     C19596  11.038  -0.181  10.843 -1.1432  1.0199  0.2735
  149MOL0     C19597  11.005  -0.185  10.994  0.4977 -0.3024 -0.1504
  149MOL0     C19598  11.049  -0.319  11.063 -0.8013  0.4170  0.0027
  149MOL0     C19599  11.039  -0.315  11.207  0.3998  0.0551 -0.4455
  149MOL0     C19600  11.029  -0.304  11.330  0.3624  0.0792 -0.0394
  149MOL0     C19601  10.977   0.220  10.670 -0.1913 -0.1379  0.2695
  149MOL0     C19602  10.953   0.351  10.617 -0.4222  0.6279 -0.1548
  149MOL0     H19603  10.658   0.680  10.540  1.4648 -1.9569 -1.6280
  149MOL0     H19604  10.552   0.872  10.430  0.0035 -2.4311 -1.1752
  149MOL0     H19605  10.473   1.058  10.342  2.0517  0.3329  0.6815
  149MOL0     H19606  10.500   0.979  10.186 -2.4571  1.9151 -0.8278
  149MOL0     H19607  10.571   1.201  10.092  0.6385  0.0214  0.8014
  149MOL0     H19608  10.497   1.278  10.228 -1.9230  0.6138 -0.7124
  149MOL0     H19609  10.291   1.169  10.197 -0.5430  4.5959  1.4665
  149MOL0     H19610  10.374   1.073  10.064 -1.1911  0.3035  1.5406
  149MOL0     H19611  10.371   1.367  10.031  1.3663 -0.4128  0.9951
  149MOL0     H19612  10.356   1.244   9.910 -2.0889  0.9548 -0.8301
  149MOL0     H19613  10.114   1.263  10.089  0.5448  0.6614  1.1561
  149MOL0     H19614  10.147   1.165   9.943 -0.6936  1.5360 -1.7580
  149MOL0     H19615  10.152   1.403   9.816 -1.7977  2.7078  0.2294
  149MOL0     H19616  10.131   1.461   9.982 -0.8375 -1.3616  1.5142
  149MOL0     H19617   9.915   1.287   9.860  0.5874 -2.0621  2.3214
  149MOL0     H19618   9.905   1.408   9.998 -0.3205  2.1579 -1.0015
  149MOL0     H19619   9.940   1.486   9.710  0.0944  0.2885 -0.0579
  149MOL0     H19620   9.924   1.594   9.854  0.4766 -0.3106  0.9099
  149MOL0     H19621   9.707   1.568  10.005  1.4307  0.4764  0.0020
  149MOL0     H19622   9.432   1.521  10.039  1.4169  5.3560  2.6691
  149MOL0     H19623   9.330   1.505   9.895 -0.5687 -0.6944  1.7251
  149MOL0     H19624   9.292   1.730   9.922 -1.1318  0.1550 -0.0528
  149MOL0     H19625   9.449   1.741   9.842 -2.0725 -0.4278 -1.0405
  149MOL0     H19626   9.402   1.753  10.148 -2.3422  1.6072 -1.3419
  149MOL0     H19627   9.560   1.744  10.054  0.2286 -1.2415 -2.5568
  149MOL0     H19628   9.325   1.937  10.033 -0.1764 -0.7313  3.3919
  149MOL0     H19629   9.480   1.933   9.934 -0.3682 -0.8423  0.2341
  149MOL0     H19630   9.280   1.891  10.249  0.8778 -0.3794 -0.9160
  149MOL0     H19631   9.243   1.931  10.485 -1.5725  2.3032 -0.6229
  149MOL0     H19632   9.744   2.048  10.848  0.1925  0.5079 -0.3464
  149MOL0     H19633   9.804   2.098  11.082  0.5867  1.7978 -3.3695
  149MOL0     H19634   9.487   2.070  11.430 -2.1269  1.2896  1.3934
  149MOL0     H19635   9.445   2.208  11.329  0.5565  1.3987  0.6319
  149MOL0     H19636   9.561   2.310  11.537  2.0255 -0.0852  1.8766
  149MOL0     H19637   9.671   2.304  11.399  0.7781 -2.8298 -1.3379
  149MOL0     H19638   9.799   2.131  11.504 -0.1609 -0.2075  0.8985
  149MOL0     H19639   9.664   2.060  11.593 -1.3928  0.4426  0.3867
  149MOL0     H19640   9.782   2.342  11.621 -2.2106  1.0777 -0.2618
  149MOL0     H19641   9.644   2.275  11.720 -0.0695  1.4882 -0.6274
  149MOL0     H19642   9.807   2.097  11.796  1.3553 -0.5271 -0.6384
  149MOL0     H19643   9.830   2.258  11.870 -3.2797  0.9679 -1.5901
  149MOL0     H19644  10.005   2.309  11.716 -1.0413 -0.7812  0.2991
  149MOL0     H19645  10.000   2.145  11.641  0.3810  0.4755 -0.1929
  149MOL0     H19646  10.012   2.050  11.880  0.2865 -1.9689 -1.3065
  149MOL0     H19647  10.155   2.101  11.771 -1.1259  4.1616 -3.2590
  149MOL0     H19648  10.036   2.238  12.016 -0.4921  2.1661 -0.5778
  149MOL0     H19649  10.115   2.327  11.890 -3.5559  1.0675  1.9578
  149MOL0     H19650   9.380   2.072  11.179 -0.8719  3.1965 -0.3181
  149MOL0     H19651   9.316   2.025  10.960 -0.3133  0.3174  1.0760
  149MOL0     H19652   9.643   2.094  10.522 -0.7742  0.5205  1.4860
  149MOL0     H19653   9.651   2.118  10.277  0.1512  1.7705  2.0861
  149MOL0     H19654  10.908   0.990  10.245  2.1282  1.1671  1.6555
  149MOL0     H19655  11.027   0.776  10.348  0.1806  1.2835  0.4803
  149MOL0     H19656  11.070   0.529  10.878 -0.1915  1.4617 -1.7036
  149MOL0     H19657  11.135   0.302  10.953  0.5465 -0.4783  0.9885
  149MOL0     H19658  11.058  -0.081  10.667  1.4431 -3.5379  2.1007
  149MOL0     H19659  10.913  -0.032  10.757  0.7777  3.0046  0.8629
  149MOL0     H19660  10.996  -0.269  10.792  0.5060  0.3632 -0.0219
  149MOL0     H19661  11.146  -0.195  10.831 -1.2879  0.5718 -0.5682
  149MOL0     H19662  10.897  -0.195  11.012  0.8736  0.6519  3.4333
  149MOL0     H19663  11.049  -0.093  11.034  2.8027 -1.0335 -0.8454
  149MOL0     H19664  10.993  -0.408  11.035  1.0198 -1.3771  1.7312
  149MOL0     H19665  11.149  -0.336  11.021 -1.1676 -1.6482 -0.1335
  149MOL0     H19666  11.042  -0.291  11.435  2.4841 -1.4390 -0.0331
  149MOL0     H19667  10.941   0.144  10.601 -0.6397 -1.4959  1.9112
  149MOL0     H19668  10.912   0.366  10.517  1.5861  0.8282 -1.0034
  150MOL0     O19669   9.206   1.194   3.912 -0.2022 -0.5520 -0.5284
  150MOL0     C19670   9.302   1.126   3.883 -0.5765 -0.0821 -0.1812
  150MOL0     O19671   9.392   1.149   3.787 -0.9746 -0.0511 -0.4011
  150MOL0     C19672   9.392   1.276   3.720 -0.8366 -0.1314  0.0476
  150MOL0     C19673   9.403   1.274   3.584 -0.6836 -0.5496  0.8716
  150MOL0     C19674   9.391   1.387   3.508  0.3503 -1.3065  1.4330
  150MOL0     C19675   9.368   1.511   3.573  0.8690  0.2411 -0.3233
  150MOL0     O19676   9.351   1.617   3.489  0.3280  0.0624  0.4271
  150MOL0     C19677   9.342   1.757   3.522  1.0210 -0.0333 -0.0826
  150MOL0     C19678   9.447   1.823   3.431  0.3764 -0.2400 -0.0435
  150MOL0     C19679   9.466   1.970   3.478 -0.0367 -0.2452 -0.4885
  150MOL0     C19680   9.585   2.041   3.412  0.5349 -0.4027 -0.2139
  150MOL0     C19681   9.600   2.183   3.462  0.5357 -0.5324  0.3003
  150MOL0     C19682   9.639   2.191   3.610  0.3233  0.2901 -0.6112
  150MOL0     C19683   9.688   2.326   3.659 -0.1765 -0.3711 -0.5672
  150MOL0     C19684   9.598   2.432   3.622  0.7612 -0.0881 -0.1914
  150MOL0     N19685   9.621   2.569   3.673 -0.3687 -0.6788  0.0255
  150MOL0     C19686   9.732   2.640   3.709  0.4162 -0.1083 -0.4129
  150MOL0     C19687   9.687   2.763   3.744  0.4740 -0.2316  0.2348
  150MOL0     C19688   9.781   2.860   3.807 -0.0952 -0.6609 -0.3470
  150MOL0     C19689   9.839   2.811   3.941 -0.7582  0.1093  0.3101
  150MOL0     C19690   9.754   2.718   4.027  0.2500  0.3892 -1.1031
  150MOL0     C19691   9.819   2.684   4.161  0.5137  0.3820 -0.5045
  150MOL0     O19692   9.941   2.608   4.156  0.1442  0.0591 -0.2002
  150MOL0     C19693   9.935   2.489   4.084 -0.0012  0.4111  0.0146
  150MOL0     C19694   9.847   2.382   4.106  0.1879 -0.2589  0.6241
  150MOL0     C19695   9.868   2.266   4.036  0.0590 -0.5680 -0.2363
  150MOL0     C19696   9.971   2.246   3.941 -0.1412 -1.1282  0.1699
  150MOL0     C19697   9.996   2.113   3.887  0.3761  0.4595 -0.0424
  150MOL0     O19698   9.878   2.033   3.881  0.1890  0.3784 -0.3068
  150MOL0     C19699   9.884   1.895   3.857  1.0540  0.0087 -0.6823
  150MOL0     C19700   9.994   1.808   3.882  0.8735  0.0007 -0.1272
  150MOL0     C19701   9.980   1.675   3.844 -0.1578 -0.6009 -0.3155
  150MOL0     C19702   9.865   1.622   3.772  0.5096 -0.3574 -0.1884
  150MOL0     O19703   9.868   1.499   3.709  0.4546  0.0396 -0.1133
  150MOL0     C19704   9.735   1.425   3.713  0.0554 -0.0101 -0.2868
  150MOL0     C19705   9.770   1.275   3.719  0.1510 -0.2395 -0.1855
  150MOL0     C19706   9.831   1.241   3.580 -0.5531  0.3256  0.1088
  150MOL0     C19707   9.882   1.105   3.574 -0.6818 -0.5805  1.1283
  150MOL0     C19708   9.995   1.094   3.463  0.3191  0.2178 -0.6790
  150MOL0     C19709  10.024   0.951   3.437  0.0387 -0.2757 -0.2465
  150MOL0     C19710  10.132   0.945   3.327 -0.4088  0.3469  0.2529
  150MOL0     C19711  10.091   1.025   3.204  1.3456 -0.0151 -0.0904
  150MOL0    Cl19712  10.211   0.979   3.077 -0.3093 -0.1508  0.2790
  150MOL0     C19713   9.759   1.719   3.759  0.8753  0.6234  0.4621
  150MOL0     C19714   9.773   1.850   3.793  0.8446  0.0528 -0.5423
  150MOL0     O19715  10.109   2.082   3.855  0.2670 -0.3302 -0.8003
  150MOL0     C19716  10.047   2.362   3.910  0.4172  0.5082  0.6805
  150MOL0     C19717  10.032   2.481   3.983  0.1942 -0.1716 -0.1268
  150MOL0     N19718   9.550   2.759   3.755 -0.2253 -0.2172 -0.1313
  150MOL0     N19719   9.515   2.651   3.695  0.2491 -0.3910 -0.1136
  150MOL0     C19720   9.368   1.511   3.712  1.1634 -0.3212 -0.0446
  150MOL0     C19721   9.376   1.396   3.787 -0.3730  0.2770  0.4943
  150MOL0     C19722   9.318   1.017   3.983 -0.4316  0.1616  0.8626
  150MOL0     C19723   9.210   0.959   4.044 -0.3071 -0.7088  0.1410
  150MOL0     C19724   9.212   0.862   4.139 -0.2147  0.3726  0.9819
  150MOL0     C19725   9.338   0.819   4.191 -0.7427  0.5298  0.0738
  150MOL0     O19726   9.327   0.716   4.275 -0.6373 -0.0876  0.1233
  150MOL0     C19727   9.439   0.654   4.344  0.1913  0.4543  0.0502
  150MOL0     C19728   9.514   0.738   4.452 -0.3670 -0.9975 -0.0222
  150MOL0     C19729   9.613   0.653   4.527 -0.4297 -0.6251 -0.7921
  150MOL0     C19730   9.658   0.712   4.662 -0.2091 -0.2150 -0.7753
  150MOL0     C19731   9.584   0.647   4.774  0.1739 -0.5305  0.2264
  150MOL0     C19732   9.521   0.588   4.861 -1.4472 -0.1345  0.2383
  150MOL0     C19733   9.455   0.870   4.126 -0.1122  1.4719  0.1450
  150MOL0     C19734   9.445   0.963   4.021 -0.2133  0.8339 -0.1241
  150MOL0     H19735   9.389   1.176   3.537 -0.8508  1.0428 -2.7606
  150MOL0     H19736   9.395   1.381   3.400 -2.1949 -1.0925  1.2643
  150MOL0     H19737   9.370   1.770   3.627 -1.9850  1.3063  0.6649
  150MOL0     H19738   9.242   1.802   3.523  1.2759  0.6610  2.4429
  150MOL0     H19739   9.405   1.808   3.331  1.8741 -0.8279 -0.6139
  150MOL0     H19740   9.538   1.764   3.442 -0.0976 -1.0510 -0.4318
  150MOL0     H19741   9.471   1.976   3.587  1.7877 -0.8293 -0.5050
  150MOL0     H19742   9.374   2.026   3.458 -0.9753 -1.1271  1.1891
  150MOL0     H19743   9.671   1.978   3.434  0.2424 -0.8876 -0.4391
  150MOL0     H19744   9.586   2.042   3.302  1.6889  1.1149 -0.2227
  150MOL0     H19745   9.502   2.230   3.449  2.2423  3.2379 -0.0227
  150MOL0     H19746   9.666   2.234   3.391  1.2172 -1.8805 -0.0689
  150MOL0     H19747   9.726   2.127   3.625 -2.2616 -3.1726  1.3265
  150MOL0     H19748   9.561   2.157   3.679  0.9211 -4.4032 -1.9167
  150MOL0     H19749   9.688   2.315   3.768 -5.8782  1.8536  0.0587
  150MOL0     H19750   9.787   2.345   3.618 -0.7431  2.3557 -0.8604
  150MOL0     H19751   9.496   2.401   3.648  0.8158 -1.2387 -1.2735
  150MOL0     H19752   9.600   2.444   3.514  2.4525 -0.9478 -0.2846
  150MOL0     H19753   9.835   2.610   3.698 -0.3385 -2.6610 -1.3348
  150MOL0     H19754   9.727   2.952   3.831  0.0117 -0.2600 -1.6038
  150MOL0     H19755   9.858   2.876   3.731  0.9482  1.4892  1.0869
  150MOL0     H19756   9.877   2.895   4.000 -2.3728  2.5881 -1.9468
  150MOL0     H19757   9.921   2.748   3.906  0.6505  2.5461 -0.9951
  150MOL0     H19758   9.659   2.771   4.034 -0.4395 -0.9013 -0.1670
  150MOL0     H19759   9.729   2.622   3.981  1.6766 -0.2982 -0.4877
  150MOL0     H19760   9.740   2.626   4.209 -3.3329  3.2656 -2.7651
  150MOL0     H19761   9.830   2.778   4.215  1.5391 -0.0660  0.0911
  150MOL0     H19762   9.768   2.387   4.181 -1.7851  0.9352 -1.4219
  150MOL0     H19763   9.815   2.186   4.086  1.9130 -2.0828 -0.5739
  150MOL0     H19764  10.084   1.832   3.936  1.9785 -2.8260 -0.5623
  150MOL0     H19765  10.060   1.606   3.869 -0.9024 -0.6449  2.2130
  150MOL0     H19766   9.671   1.455   3.630 -1.3054  0.4576  0.8805
  150MOL0     H19767   9.679   1.444   3.805  0.7608  3.4897 -0.4521
  150MOL0     H19768   9.680   1.214   3.730  0.0521 -0.4730 -1.9756
  150MOL0     H19769   9.835   1.253   3.804 -0.1433 -0.6890 -0.0763
  150MOL0     H19770   9.922   1.300   3.559  2.3680 -3.8266 -0.0255
  150MOL0     H19771   9.755   1.251   3.503 -0.1108 -2.5283 -0.7899
  150MOL0     H19772   9.927   1.087   3.671  0.2386 -1.4970  0.5557
  150MOL0     H19773   9.800   1.033   3.568 -1.3976  0.2256  1.0313
  150MOL0     H19774  10.086   1.149   3.489  0.8388 -0.0902 -1.7909
  150MOL0     H19775   9.956   1.140   3.372  0.7669  1.1025 -0.4351
  150MOL0     H19776   9.934   0.898   3.404 -1.6447  3.1193 -1.6533
  150MOL0     H19777  10.051   0.913   3.536 -2.3468  1.6986  1.2787
  150MOL0     H19778  10.228   0.979   3.367 -1.5772  3.8050  0.5175
  150MOL0     H19779  10.139   0.841   3.294 -3.2627  0.3537 -0.7137
  150MOL0     H19780  10.094   1.133   3.219  1.9505 -0.0840  0.3366
  150MOL0     H19781   9.991   1.001   3.166  1.4203  0.2729 -0.4771
  150MOL0     H19782   9.671   1.693   3.702  0.9475  1.4838 -0.0584
  150MOL0     H19783   9.697   1.923   3.764  1.0151  0.0943 -0.8891
  150MOL0     H19784  10.122   2.349   3.833  0.7326 -1.3774  1.2553
  150MOL0     H19785  10.103   2.561   3.961 -0.5432  1.2764  2.4365
  150MOL0     H19786   9.351   1.599   3.772  0.5684  0.1214 -0.8447
  150MOL0     H19787   9.359   1.395   3.895  0.0884  1.3939  0.5894
  150MOL0     H19788   9.112   0.994   4.014  1.4906  1.5935 -3.7702
  150MOL0     H19789   9.123   0.823   4.188 -0.2286  0.1300  0.7603
  150MOL0     H19790   9.511   0.619   4.270 -1.8779 -3.5017 -0.3965
  150MOL0     H19791   9.410   0.558   4.389 -0.2090 -1.1892 -3.3502
  150MOL0     H19792   9.562   0.824   4.405  2.6815 -2.0653  0.9020
  150MOL0     H19793   9.437   0.777   4.520 -0.6182  0.3900 -1.0653
  150MOL0     H19794   9.692   0.627   4.456 -1.0931 -2.1150 -1.0451
  150MOL0     H19795   9.568   0.556   4.551 -2.7459  0.0620 -2.0884
  150MOL0     H19796   9.761   0.712   4.699 -0.9418  0.6317  1.4478
  150MOL0     H19797   9.631   0.818   4.666 -1.3776 -0.5147  2.2928
  150MOL0     H19798   9.470   0.538   4.941 -2.1072  0.6024  0.2949
  150MOL0     H19799   9.549   0.838   4.169 -0.2837  0.5929 -0.1322
  150MOL0     H19800   9.540   1.005   3.987 -1.1388  0.2147 -4.0312
  151MOL0     O19801   1.157   1.490   6.387  0.4382 -0.1296 -0.3561
  151MOL0     C19802   1.162   1.429   6.497 -0.5153 -0.2509 -0.3764
  151MOL0     O19803   1.185   1.499   6.617  0.6206  0.1625  0.7696
  151MOL0     C19804   1.213   1.632   6.607  0.4991 -0.3937  0.7944
  151MOL0     C19805   1.143   1.716   6.701  0.3067 -0.1827 -0.3817
  151MOL0     C19806   1.157   1.857   6.686 -0.0989  0.3232 -0.8218
  151MOL0     C19807   1.246   1.910   6.587  0.2622 -0.1570 -0.7837
  151MOL0     O19808   1.243   2.042   6.589 -0.1735  0.0064  0.6136
  151MOL0     C19809   1.351   2.108   6.523  0.5098 -0.8067  0.0080
  151MOL0     C19810   1.323   2.257   6.528  0.6667 -0.1483  1.4855
  151MOL0     C19811   1.350   2.325   6.668  0.9492  0.7809  0.3693
  151MOL0     C19812   1.261   2.285   6.791  0.5195  0.2737  0.4706
  151MOL0     C19813   1.250   2.388   6.905  0.5869  0.5692  0.3855
  151MOL0     C19814   1.382   2.443   6.978  0.5107  0.1097  0.4549
  151MOL0     C19815   1.466   2.346   7.057  0.2485 -0.4931 -0.3265
  151MOL0     C19816   1.412   2.287   7.192 -0.0985 -0.3516  0.2701
  151MOL0     N19817   1.432   2.397   7.290 -0.0519  0.2047  0.0340
  151MOL0     C19818   1.547   2.438   7.360  0.2249 -0.6261 -0.3949
  151MOL0     C19819   1.505   2.544   7.437 -0.3646  0.6401  0.5551
  151MOL0     C19820   1.578   2.596   7.563 -0.1121 -0.5118 -0.1199
  151MOL0     C19821   1.502   2.707   7.623 -0.2868 -1.2356 -0.2591
  151MOL0     C19822   1.569   2.744   7.755  0.0982 -0.2148 -0.6131
  151MOL0     C19823   1.508   2.851   7.848  1.8499  0.0125  0.3119
  151MOL0     O19824   1.392   2.789   7.916  0.9780 -0.6306  0.1895
  151MOL0     C19825   1.348   2.853   8.025  0.1534  0.0953 -1.1408
  151MOL0     C19826   1.291   2.771   8.121 -0.2873  0.1902 -1.3035
  151MOL0     C19827   1.258   2.818   8.251  0.1310 -0.9203  0.4500
  151MOL0     C19828   1.266   2.948   8.289  0.3483 -0.1644 -0.3906
  151MOL0     C19829   1.233   2.998   8.411  0.3746 -0.2375  0.2743
  151MOL0     O19830   1.134   3.090   8.405 -0.0417 -0.5192  0.0701
  151MOL0     C19831   1.060   3.134   8.507 -0.0898 -1.3226  0.6291
  151MOL0     C19832   1.014   3.066   8.620 -0.2908 -0.0319  0.5574
  151MOL0     C19833   0.931   3.135   8.719 -0.7238  0.4807 -0.1899
  151MOL0     C19834   0.904   3.268   8.698  0.6541  0.5657  0.0009
  151MOL0     O19835   0.837   3.343   8.792 -0.2992 -0.2005 -0.3933
  151MOL0     C19836   0.732   3.287   8.871 -0.5950 -0.6726  0.2022
  151MOL0     C19837   0.663   3.411   8.925 -0.3782 -0.6515  0.0472
  151MOL0     C19838   0.603   3.497   8.806  0.0558  0.1577  0.0892
  151MOL0     C19839   0.529   3.425   8.696 -0.4073  0.2421 -0.0856
  151MOL0     C19840   0.448   3.520   8.604 -0.8939  0.1518 -0.4782
  151MOL0     C19841   0.389   3.445   8.491  0.8699  0.5888 -0.3866
  151MOL0     C19842   0.299   3.331   8.518 -0.1935  0.0639  0.2116
  151MOL0     C19843   0.240   3.288   8.381  0.4627  0.3600  0.2127
  151MOL0    Cl19844   0.139   3.147   8.400  0.3379 -0.4247  0.1590
  151MOL0     C19845   0.942   3.333   8.582 -0.5199  0.2479  0.1885
  151MOL0     C19846   1.027   3.269   8.497  0.5603 -0.6926  0.3436
  151MOL0     O19847   1.287   2.966   8.511  0.3037 -0.2050  0.1700
  151MOL0     C19848   1.318   3.034   8.186 -0.6207  1.0741 -0.4686
  151MOL0     C19849   1.372   2.989   8.063  0.8848  0.5833  0.3494
  151MOL0     N19850   1.377   2.584   7.402 -0.0957  0.5301 -0.0335
  151MOL0     N19851   1.338   2.499   7.311 -0.6188 -0.7581 -0.0688
  151MOL0     C19852   1.317   1.822   6.509 -0.6547  0.2031  0.5541
  151MOL0     C19853   1.299   1.687   6.512  0.3487  0.4614  0.5613
  151MOL0     C19854   1.187   1.284   6.508 -0.7348 -0.2452  0.2805
  151MOL0     C19855   1.199   1.218   6.628 -0.8532  0.1193  0.3562
  151MOL0     C19856   1.240   1.082   6.637 -0.5310  0.2439 -0.3820
  151MOL0     C19857   1.250   1.012   6.521 -0.6451  0.1942 -0.1421
  151MOL0     O19858   1.304   0.884   6.510 -0.0069  0.1640 -0.1044
  151MOL0     C19859   1.313   0.806   6.629 -0.2361  0.7291  0.4448
  151MOL0     C19860   1.369   0.666   6.604  0.0235 -0.9912  0.0617
  151MOL0     C19861   1.517   0.676   6.568 -0.6174 -1.4046 -0.1917
  151MOL0     C19862   1.569   0.535   6.544 -0.5245  0.5483  0.2216
  151MOL0     C19863   1.691   0.550   6.462  0.5842  0.2767  0.1228
  151MOL0     C19864   1.802   0.554   6.428  0.8496  0.8048  0.3367
  151MOL0     C19865   1.226   1.079   6.405 -0.4066 -0.6233  0.5362
  151MOL0     C19866   1.190   1.211   6.393  0.1996  0.1137  0.0299
  151MOL0     H19867   1.089   1.664   6.779 -1.5992  0.7127 -1.0477
  151MOL0     H19868   1.122   1.918   6.768  2.5952 -0.7229  1.2518
  151MOL0     H19869   1.349   2.099   6.414 -3.2646  1.7348 -0.3246
  151MOL0     H19870   1.449   2.081   6.563  2.0798  0.9546 -2.4138
  151MOL0     H19871   1.224   2.275   6.486  1.7032 -1.9358 -2.2058
  151MOL0     H19872   1.386   2.297   6.448 -0.6552 -1.5846 -0.3571
  151MOL0     H19873   1.328   2.432   6.657  1.2198  0.8468  0.4501
  151MOL0     H19874   1.458   2.323   6.689  1.0775  1.0248 -0.2425
  151MOL0     H19875   1.156   2.267   6.766  1.1272 -4.1197  0.3783
  151MOL0     H19876   1.280   2.182   6.822  0.7089 -0.5368 -2.1005
  151MOL0     H19877   1.180   2.342   6.975  0.6234 -0.7636 -0.4182
  151MOL0     H19878   1.194   2.479   6.882  1.8484  1.3673  0.3367
  151MOL0     H19879   1.343   2.523   7.041 -2.4796 -1.0711  0.2686
  151MOL0     H19880   1.455   2.488   6.910  1.2104  0.6285  1.5156
  151MOL0     H19881   1.474   2.267   6.982  1.5926  1.2096 -2.0871
  151MOL0     H19882   1.561   2.399   7.073  3.1545 -4.9838 -0.9110
  151MOL0     H19883   1.461   2.197   7.230 -0.6741 -1.4721 -1.5053
  151MOL0     H19884   1.306   2.261   7.179  0.3430 -2.0849 -0.0678
  151MOL0     H19885   1.636   2.380   7.384  1.4619  1.8887  1.6354
  151MOL0     H19886   1.676   2.638   7.537  0.0115 -1.7247 -1.8037
  151MOL0     H19887   1.591   2.512   7.632 -1.5017  2.4201  4.1109
  151MOL0     H19888   1.407   2.660   7.651  1.2187 -1.4952  5.8046
  151MOL0     H19889   1.501   2.797   7.561 -2.6615  0.4241  2.0108
  151MOL0     H19890   1.583   2.659   7.822 -1.1702  1.7470  2.3449
  151MOL0     H19891   1.675   2.765   7.737 -0.2624  1.7125 -0.7485
  151MOL0     H19892   1.471   2.934   7.786  0.1286  1.5257  3.1411
  151MOL0     H19893   1.593   2.884   7.908  2.0540 -1.3190  0.7744
  151MOL0     H19894   1.284   2.664   8.103  2.3887 -0.4526  0.7765
  151MOL0     H19895   1.233   2.739   8.321  0.3756 -1.3480  0.0685
  151MOL0     H19896   1.059   2.967   8.621 -4.5942 -2.3431 -2.8062
  151MOL0     H19897   0.915   3.084   8.813  2.5750 -0.1361  0.1558
  151MOL0     H19898   0.760   3.215   8.949 -3.3487 -1.9918  0.1042
  151MOL0     H19899   0.670   3.234   8.798 -1.7067  1.8749 -0.8095
  151MOL0     H19900   0.741   3.467   8.978 -0.6659 -0.4424  0.2480
  151MOL0     H19901   0.575   3.386   8.984  0.2976 -0.7687  1.0278
  151MOL0     H19902   0.685   3.556   8.764 -0.0510  2.5701  2.9322
  151MOL0     H19903   0.545   3.572   8.859  0.6650 -1.3347  3.0785
  151MOL0     H19904   0.593   3.374   8.623 -1.1285 -3.8538  1.8383
  151MOL0     H19905   0.457   3.350   8.730 -1.0943 -0.7481 -3.3557
  151MOL0     H19906   0.515   3.589   8.552 -0.3532 -0.9495 -1.2571
  151MOL0     H19907   0.382   3.578   8.670  0.3664 -0.2155  1.1837
  151MOL0     H19908   0.473   3.408   8.431  1.0812 -0.6967  0.6722
  151MOL0     H19909   0.336   3.524   8.437  0.5154  0.2528 -0.5241
  151MOL0     H19910   0.345   3.250   8.575 -0.8567  0.0873  0.8016
  151MOL0     H19911   0.220   3.363   8.587 -1.6455  0.3898 -1.5252
  151MOL0     H19912   0.315   3.270   8.304 -1.1153 -2.2239 -0.8307
  151MOL0     H19913   0.173   3.368   8.347  1.0792  1.0656  0.6404
  151MOL0     H19914   0.934   3.442   8.586  2.0330  0.7375 -3.3288
  151MOL0     H19915   1.061   3.316   8.405 -1.8358  2.2682  0.8022
  151MOL0     H19916   1.339   3.140   8.197 -0.4626  1.0386 -0.4226
  151MOL0     H19917   1.418   3.053   7.989  0.6823 -3.1741 -3.3777
  151MOL0     H19918   1.405   1.860   6.459 -0.7667 -0.1172  0.1074
  151MOL0     H19919   1.369   1.633   6.449 -0.6061  1.4212 -1.4192
  151MOL0     H19920   1.183   1.280   6.716 -3.4673  0.6195 -0.3917
  151MOL0     H19921   1.253   1.040   6.736 -2.4430  0.2873 -0.0665
  151MOL0     H19922   1.215   0.791   6.674  0.5777 -2.4557  1.4137
  151MOL0     H19923   1.374   0.849   6.709  1.5670 -0.1187 -0.4201
  151MOL0     H19924   1.349   0.601   6.690 -1.3059 -3.7821 -2.1923
  151MOL0     H19925   1.311   0.621   6.523  0.4220  0.8262 -1.2930
  151MOL0     H19926   1.578   0.713   6.652 -0.4152 -1.8396 -0.1406
  151MOL0     H19927   1.527   0.751   6.489 -1.0255 -2.3281 -1.1379
  151MOL0     H19928   1.587   0.480   6.638  1.6129 -0.8323 -0.9133
  151MOL0     H19929   1.491   0.479   6.492  0.6534 -1.9977  1.0212
  151MOL0     H19930   1.909   0.566   6.430  0.7975  1.2730  0.5430
  151MOL0     H19931   1.237   1.017   6.316 -0.9046 -1.0998  0.8057
  151MOL0     H19932   1.178   1.259   6.296 -0.3733  0.5263  0.2996
  152MOL0     O19933   3.485  11.014   6.371  0.1561  0.4046 -0.9446
  152MOL0     C19934   3.386  11.066   6.418 -0.0601  0.0709  0.1216
  152MOL0     O19935   3.272  11.084   6.339 -0.4006  0.7276 -0.1997
  152MOL0     C19936   3.225  11.011   6.234  0.3244  0.3906 -0.4367
  152MOL0     C19937   3.101  11.046   6.182  0.7724 -0.0798  0.3514
  152MOL0     C19938   3.049  10.970   6.082  0.0739 -1.3894  0.0024
  152MOL0     C19939   3.107  10.856   6.038  0.8065  0.5669 -0.8412
  152MOL0     O19940   3.038  10.794   5.936  0.3939  0.3029  0.5575
  152MOL0     C19941   3.104  10.751   5.819 -0.7294  0.2356 -0.0778
  152MOL0     C19942   3.140  10.597   5.821  0.5001  0.4571 -0.5884
  152MOL0     C19943   3.013  10.523   5.825  0.7724  0.5747  0.2351
  152MOL0     C19944   3.035  10.368   5.852  0.8973 -0.8474 -0.1574
  152MOL0     C19945   2.911  10.303   5.912 -0.4365 -0.1197  0.3783
  152MOL0     C19946   2.935  10.146   5.904 -0.3226 -0.2372  0.0447
  152MOL0     C19947   2.942  10.081   5.765 -0.4738  0.3127  0.9260
  152MOL0     C19948   2.896   9.929   5.770  0.0065 -0.2953  0.3705
  152MOL0     N19949   2.888   9.863   5.639 -0.1585 -0.9398  0.0962
  152MOL0     C19950   3.007   9.814   5.585  0.3316  0.2524  0.0263
  152MOL0     C19951   2.962   9.737   5.486  0.7924 -0.3274  1.1190
  152MOL0     C19952   3.048   9.676   5.389 -1.0528  0.1231 -1.0525
  152MOL0     C19953   2.980   9.610   5.271 -0.5861  0.0844  1.3108
  152MOL0     C19954   3.086   9.587   5.165 -0.0445 -0.5635 -0.3468
  152MOL0     C19955   3.038   9.536   5.033 -0.6452 -0.1618  0.7448
  152MOL0     O19956   3.148   9.517   4.940 -0.1559 -0.5733 -0.0892
  152MOL0     C19957   3.161   9.391   4.895  0.1075  0.5332 -0.4698
  152MOL0     C19958   3.186   9.364   4.756  0.2086  1.0106 -0.1815
  152MOL0     C19959   3.226   9.235   4.721  0.1861 -0.4585 -0.5904
  152MOL0     C19960   3.204   9.125   4.805  0.6741 -0.5273  0.1973
  152MOL0     C19961   3.229   8.992   4.751  0.2789  0.1590 -0.5527
  152MOL0     O19962   3.313   8.982   4.645 -0.3446 -0.6199 -0.0844
  152MOL0     C19963   3.329   8.864   4.590 -0.3712  0.2410 -0.3154
  152MOL0     C19964   3.452   8.806   4.594  0.1626  0.6368 -0.6113
  152MOL0     C19965   3.473   8.679   4.543  0.6951  0.8229  0.0231
  152MOL0     C19966   3.365   8.604   4.487  0.3321 -0.5624  0.5914
  152MOL0     O19967   3.386   8.473   4.451 -1.4529  0.3292 -0.6878
  152MOL0     C19968   3.527   8.424   4.429 -0.1246  0.1430 -0.5113
  152MOL0     C19969   3.532   8.270   4.402  0.0511 -0.2231 -0.2550
  152MOL0     C19970   3.541   8.235   4.256 -0.8823  1.0729  0.0383
  152MOL0     C19971   3.548   8.080   4.250  0.1695  0.1360 -0.2636
  152MOL0     C19972   3.581   8.044   4.108 -0.5731  0.2804 -0.5130
  152MOL0     C19973   3.499   7.921   4.068  0.3986  0.1205 -0.5276
  152MOL0     C19974   3.512   7.874   3.919 -0.3541  0.5952  0.0675
  152MOL0     C19975   3.474   7.726   3.907 -0.0249  0.7956  0.4826
  152MOL0    Cl19976   3.316   7.673   3.954 -0.3106 -0.0668 -0.3419
  152MOL0     C19977   3.240   8.668   4.470 -0.5930  0.7041  0.7561
  152MOL0     C19978   3.226   8.798   4.518  0.1963  0.4320  0.1300
  152MOL0     O19979   3.195   8.894   4.816 -0.0365  0.4281  0.9580
  152MOL0     C19980   3.173   9.144   4.934 -0.5868 -0.5155 -0.2451
  152MOL0     C19981   3.149   9.274   4.983  0.4283 -0.1826 -0.1652
  152MOL0     N19982   2.830   9.733   5.479  0.5767  0.7604 -0.0445
  152MOL0     N19983   2.785   9.815   5.573 -0.0667  0.9573 -0.2331
  152MOL0     C19984   3.229  10.816   6.095  0.7720 -0.1910  0.2175
  152MOL0     C19985   3.295  10.897   6.182 -0.6166 -0.6005 -0.3119
  152MOL0     C19986   3.383  11.098   6.562 -0.1386  0.1875 -0.6019
  152MOL0     C19987   3.479  11.057   6.665 -0.0168 -0.6619  0.5031
  152MOL0     C19988   3.461  11.085   6.801  0.0644  0.6526 -0.0122
  152MOL0     C19989   3.351  11.157   6.846  0.5512  0.8927  0.3131
  152MOL0     O19990   3.315  11.195   6.973 -0.3413 -0.3036  0.4715
  152MOL0     C19991   3.381  11.130   7.078 -0.0140 -0.5590  0.0138
  152MOL0     C19992   3.460  11.226   7.158 -0.2486  0.5619  0.8950
  152MOL0     C19993   3.365  11.314   7.246  0.5472  0.7249  0.8885
  152MOL0     C19994   3.453  11.402   7.333 -0.4628  0.5908 -0.6841
  152MOL0     C19995   3.378  11.508   7.403 -0.3977 -0.3936 -0.3212
  152MOL0     C19996   3.306  11.590   7.459 -0.5184 -0.5783 -0.2475
  152MOL0     C19997   3.266  11.215   6.749 -1.0117 -0.7661  0.4523
  152MOL0     C19998   3.273  11.172   6.614 -0.3873  1.1157 -0.6090
  152MOL0     H19999   3.054  11.138   6.214 -0.5677 -0.1494 -1.2955
  152MOL0     H20000   2.962  10.998   6.023 -0.0036 -3.1265 -0.7688
  152MOL0     H20001   3.195  10.811   5.809 -1.7144  2.1601  1.7321
  152MOL0     H20002   3.027  10.760   5.742  0.7665 -3.3767 -2.2631
  152MOL0     H20003   3.215  10.576   5.899  1.7530  2.6803 -1.1090
  152MOL0     H20004   3.182  10.564   5.726  1.0709 -0.5041 -0.0207
  152MOL0     H20005   2.953  10.546   5.737 -0.6145  0.0215  1.0126
  152MOL0     H20006   2.960  10.556   5.915 -0.0275 -0.6784  0.2462
  152MOL0     H20007   3.062  10.326   5.755  0.1744 -0.6609 -0.4490
  152MOL0     H20008   3.118  10.365   5.922  0.3241  2.9501  0.9061
  152MOL0     H20009   2.821  10.333   5.857  0.7400  0.4788 -1.2694
  152MOL0     H20010   2.907  10.335   6.017 -0.5382  1.1265  0.0158
  152MOL0     H20011   2.850  10.101   5.957 -1.3574 -1.8543 -2.7461
  152MOL0     H20012   3.022  10.111   5.961 -0.4446  0.8330  0.9281
  152MOL0     H20013   2.901  10.134   5.679  5.7806  1.2323 -2.0556
  152MOL0     H20014   3.050  10.076   5.747 -0.3775  0.5657  1.4232
  152MOL0     H20015   2.796   9.918   5.814 -1.0701 -2.3933 -2.2750
  152MOL0     H20016   2.957   9.870   5.838  1.5733 -1.3498 -1.8213
  152MOL0     H20017   3.110   9.825   5.618  0.2009 -1.3180  1.0501
  152MOL0     H20018   3.113   9.599   5.433  0.4072  1.7072 -0.2937
  152MOL0     H20019   3.121   9.750   5.355  0.6928 -2.3374 -3.0603
  152MOL0     H20020   2.895   9.666   5.232 -0.4095  1.7031  3.0777
  152MOL0     H20021   2.950   9.510   5.303 -1.9341 -0.2236 -0.7593
  152MOL0     H20022   3.148   9.677   5.163 -0.4855 -0.2466 -2.5453
  152MOL0     H20023   3.151   9.513   5.213 -0.9260 -0.6469  0.7521
  152MOL0     H20024   2.963   9.600   4.985 -0.7328 -0.5284  0.3837
  152MOL0     H20025   2.991   9.440   5.054  0.1569 -0.6073  0.5379
  152MOL0     H20026   3.177   9.440   4.680 -0.4898  1.9524  0.8137
  152MOL0     H20027   3.262   9.231   4.619  0.3876  0.5109 -0.5642
  152MOL0     H20028   3.529   8.853   4.655 -0.1083 -2.2845  2.2902
  152MOL0     H20029   3.569   8.632   4.561 -0.7857 -1.7013  2.2202
  152MOL0     H20030   3.582   8.437   4.522 -1.2363  1.0502  0.0505
  152MOL0     H20031   3.574   8.483   4.350 -2.3829  0.9596 -1.3225
  152MOL0     H20032   3.447   8.225   4.453 -0.3152 -0.2815 -0.9115
  152MOL0     H20033   3.622   8.233   4.452 -0.1476  1.6194  1.5886
  152MOL0     H20034   3.630   8.285   4.218  0.3209 -0.7665  0.3268
  152MOL0     H20035   3.459   8.270   4.192  0.2454  1.8732 -1.0159
  152MOL0     H20036   3.615   8.032   4.322 -0.5509 -0.5282 -0.0182
  152MOL0     H20037   3.454   8.043   4.290  0.2253  1.7551  1.4932
  152MOL0     H20038   3.688   8.043   4.085 -0.4232  0.2474  0.1760
  152MOL0     H20039   3.543   8.120   4.039  0.1357  0.1362 -1.0826
  152MOL0     H20040   3.392   7.940   4.079  0.5022 -0.4158  2.2651
  152MOL0     H20041   3.505   7.838   4.139 -0.2354  0.2925 -0.2719
  152MOL0     H20042   3.446   7.935   3.857 -1.5579 -0.8096 -0.0858
  152MOL0     H20043   3.615   7.877   3.883 -0.3561 -3.0016 -0.5749
  152MOL0     H20044   3.543   7.682   3.979  1.5464  0.8575 -0.9361
  152MOL0     H20045   3.483   7.686   3.806 -0.6284  0.6116  0.5000
  152MOL0     H20046   3.149   8.631   4.423 -2.8335  3.0856  2.8584
  152MOL0     H20047   3.123   8.834   4.515 -0.2391 -0.6523  1.0451
  152MOL0     H20048   3.167   9.061   5.005 -2.7384  0.6130  1.0128
  152MOL0     H20049   3.140   9.275   5.092 -0.7926 -0.9861 -0.2310
  152MOL0     H20050   3.268  10.718   6.068  3.9958 -1.1990  6.4763
  152MOL0     H20051   3.385  10.852   6.223  0.1911  0.1733 -1.1905
  152MOL0     H20052   3.563  10.997   6.633  0.4373  0.3433 -0.2588
  152MOL0     H20053   3.543  11.052   6.865 -0.2347 -1.8768 -0.7944
  152MOL0     H20054   3.442  11.050   7.034  0.6360 -0.2744  0.3805
  152MOL0     H20055   3.306  11.097   7.150 -1.0660  3.7590  1.1476
  152MOL0     H20056   3.515  11.174   7.237 -1.9728 -2.1948  0.4041
  152MOL0     H20057   3.525  11.284   7.092 -2.1661  2.5817  0.6739
  152MOL0     H20058   3.299  11.260   7.315 -0.4491  1.0830  0.2358
  152MOL0     H20059   3.298  11.379   7.190  1.1597  0.7643  0.1857
  152MOL0     H20060   3.512  11.333   7.394 -0.4971  0.8880 -0.3111
  152MOL0     H20061   3.523  11.462   7.274 -1.5267  0.4072 -2.1776
  152MOL0     H20062   3.240  11.658   7.507 -1.0664 -3.0919  2.8635
  152MOL0     H20063   3.190  11.285   6.782  2.0990  2.2099  1.9048
  152MOL0     H20064   3.207  11.206   6.535  0.8233 -0.0907 -2.2214
  153MOL0     O20065   2.050   2.958   3.510  0.1804  0.4323  0.4409
  153MOL0     C20066   2.043   3.000   3.398  0.5495 -0.1011  0.9316
  153MOL0     O20067   2.096   2.942   3.284  0.1320  0.5190  0.3455
  153MOL0     C20068   2.148   2.815   3.294 -0.2412  0.3731  0.7380
  153MOL0     C20069   2.272   2.801   3.362  0.0790 -0.7712  0.4073
  153MOL0     C20070   2.339   2.683   3.383 -0.0436  0.5336  0.2130
  153MOL0     C20071   2.269   2.565   3.341  0.7718 -0.2553 -0.0756
  153MOL0     O20072   2.324   2.434   3.359 -0.5764 -0.8242  0.4777
  153MOL0     C20073   2.417   2.396   3.459  0.1924 -0.5254  0.4262
  153MOL0     C20074   2.553   2.411   3.391 -0.3187 -0.8231  0.0605
  153MOL0     C20075   2.673   2.350   3.458  0.7905  0.1459  0.6518
  153MOL0     C20076   2.678   2.207   3.417 -0.7758 -0.8207  0.2274
  153MOL0     C20077   2.799   2.150   3.479  0.0066  0.7817  0.1814
  153MOL0     C20078   2.795   1.991   3.454 -0.2784  0.0999  0.5533
  153MOL0     C20079   2.931   1.928   3.493  0.5908  0.5228  0.5090
  153MOL0     C20080   2.944   1.906   3.638  1.7492 -0.2953  0.0418
  153MOL0     N20081   3.065   1.833   3.676 -0.2681  0.0017  0.5017
  153MOL0     C20082   3.187   1.900   3.703  1.0642 -0.7908 -0.3375
  153MOL0     C20083   3.284   1.808   3.705  0.4526 -0.0929  0.1807
  153MOL0     C20084   3.433   1.825   3.715 -0.6147 -0.9025  0.5627
  153MOL0     C20085   3.459   1.860   3.862 -0.2040  0.7854 -0.4564
  153MOL0     C20086   3.609   1.900   3.873  0.1223  0.7265  0.3282
  153MOL0     C20087   3.654   1.952   4.016 -0.2621  0.0176  0.4986
  153MOL0     O20088   3.802   1.978   4.025 -0.0415 -0.6095  0.5994
  153MOL0     C20089   3.849   2.049   4.132 -0.3335 -0.8422 -0.3608
  153MOL0     C20090   3.981   2.030   4.169 -0.6245  0.4653 -0.7554
  153MOL0     C20091   4.037   2.095   4.279  0.0304 -0.5123  0.1501
  153MOL0     C20092   3.967   2.189   4.349  0.1835 -0.3288  0.1639
  153MOL0     C20093   4.038   2.265   4.458 -0.4339 -0.0064 -0.4976
  153MOL0     O20094   3.952   2.343   4.536  0.2600  0.1854  0.1215
  153MOL0     C20095   4.002   2.452   4.590  0.2077 -0.9568 -0.2016
  153MOL0     C20096   3.902   2.553   4.592  0.1534  0.4448 -0.8738
  153MOL0     C20097   3.914   2.668   4.655 -0.1711 -0.1430  0.8110
  153MOL0     C20098   4.032   2.706   4.714 -0.3604  0.2618  0.0821
  153MOL0     O20099   4.034   2.842   4.749 -0.7550  0.2415 -0.0808
  153MOL0     C20100   4.159   2.901   4.781  0.2900  0.8768 -0.7326
  153MOL0     C20101   4.256   2.925   4.665  0.1468 -0.3678  0.2933
  153MOL0     C20102   4.205   3.034   4.572  0.8639  0.1395 -0.3040
  153MOL0     C20103   4.318   3.080   4.467  0.5547  0.2259 -0.2746
  153MOL0     C20104   4.255   3.139   4.341  1.0092 -0.2044  0.9933
  153MOL0     C20105   4.357   3.203   4.240 -0.0469 -0.3697 -0.0374
  153MOL0     C20106   4.291   3.259   4.110  0.4087  1.4209 -0.3985
  153MOL0     C20107   4.402   3.328   4.035 -0.1610 -0.2949 -0.5036
  153MOL0    Cl20108   4.547   3.236   3.990  0.2759  0.0415 -0.0628
  153MOL0     C20109   4.137   2.609   4.715  0.2767  0.2800  0.2428
  153MOL0     C20110   4.116   2.477   4.657 -0.4531 -0.5231 -0.6397
  153MOL0     O20111   4.156   2.259   4.474  0.3288  0.2665 -0.0986
  153MOL0     C20112   3.832   2.204   4.323 -0.7177 -0.6769 -0.0497
  153MOL0     C20113   3.777   2.132   4.219 -0.6162  0.0537  1.0199
  153MOL0     N20114   3.219   1.686   3.698  0.1121  0.5970  0.4603
  153MOL0     N20115   3.094   1.705   3.676  0.0770  0.7016  0.6029
  153MOL0     C20116   2.137   2.572   3.281 -0.3507 -0.0124 -0.5655
  153MOL0     C20117   2.083   2.698   3.251  0.0046  0.1439 -0.5191
  153MOL0     C20118   1.968   3.122   3.394 -0.6935  0.0187 -0.6849
  153MOL0     C20119   1.989   3.210   3.291 -0.3862  0.8198 -0.0304
  153MOL0     C20120   1.939   3.332   3.287 -0.0243 -0.3891 -0.4101
  153MOL0     C20121   1.851   3.371   3.382  0.0291  0.3534  0.1552
  153MOL0     O20122   1.788   3.488   3.381 -0.4017 -0.6979 -0.2147
  153MOL0     C20123   1.645   3.477   3.357  0.0455 -0.3339  0.3174
  153MOL0     C20124   1.586   3.585   3.275 -0.3050  0.1339  0.9271
  153MOL0     C20125   1.573   3.722   3.331  0.2489  0.8015  0.0840
  153MOL0     C20126   1.426   3.761   3.344  0.1060 -0.6880  0.3265
  153MOL0     C20127   1.380   3.686   3.456  0.2914 -0.1284 -0.3283
  153MOL0     C20128   1.334   3.620   3.543  0.4788 -0.4127  0.3138
  153MOL0     C20129   1.815   3.270   3.480  1.0470  0.0520  0.8023
  153MOL0     C20130   1.879   3.149   3.491  0.2379 -0.2086  1.2495
  153MOL0     H20131   2.330   2.887   3.394  0.5644 -0.1578 -1.9493
  153MOL0     H20132   2.436   2.668   3.429  0.5753  1.6570 -0.6910
  153MOL0     H20133   2.397   2.294   3.491 -0.6945 -0.4000  0.2978
  153MOL0     H20134   2.415   2.459   3.549  1.1598  0.8000 -0.4523
  153MOL0     H20135   2.571   2.519   3.384  0.0479 -0.9554 -1.5913
  153MOL0     H20136   2.552   2.375   3.288  4.5954  3.4667 -1.9424
  153MOL0     H20137   2.672   2.372   3.565 -0.4267 -1.2437  0.9459
  153MOL0     H20138   2.761   2.411   3.433  0.0330  1.3990  0.9474
  153MOL0     H20139   2.585   2.155   3.443  0.1848 -3.0480 -0.5769
  153MOL0     H20140   2.690   2.200   3.308 -0.3303  1.0418  0.1265
  153MOL0     H20141   2.819   2.190   3.579 -1.5540 -1.2374  1.3780
  153MOL0     H20142   2.886   2.184   3.422 -0.1691 -0.2576 -0.7347
  153MOL0     H20143   2.770   1.976   3.348 -0.9023 -3.7780  1.1139
  153MOL0     H20144   2.718   1.961   3.525  0.3458 -0.8214  0.8571
  153MOL0     H20145   2.932   1.829   3.446  0.8744  0.4450  0.6801
  153MOL0     H20146   3.019   1.978   3.452  0.2302  0.6577 -0.1189
  153MOL0     H20147   2.860   1.844   3.668  1.7466 -1.0990 -1.5419
  153MOL0     H20148   2.945   2.006   3.683  2.3241 -0.0187 -0.5565
  153MOL0     H20149   3.184   2.008   3.706  3.4211 -0.6559  2.7690
  153MOL0     H20150   3.456   1.910   3.649  2.7875 -1.6476  0.5822
  153MOL0     H20151   3.495   1.744   3.676  2.2186  2.0516 -1.7189
  153MOL0     H20152   3.435   1.779   3.932  1.3550 -0.1603 -0.9788
  153MOL0     H20153   3.398   1.948   3.887  1.2545  0.8889  3.5209
  153MOL0     H20154   3.680   1.826   3.835  0.6183  1.9198 -1.1623
  153MOL0     H20155   3.624   1.985   3.806 -0.4823 -1.4839 -2.8790
  153MOL0     H20156   3.609   1.882   4.087  1.8021 -0.7655  1.1278
  153MOL0     H20157   3.598   2.045   4.025  1.3747  1.1670 -0.6477
  153MOL0     H20158   4.050   1.961   4.122 -1.6295 -0.5292 -0.8009
  153MOL0     H20159   4.138   2.073   4.313 -0.4552 -0.1424  1.9290
  153MOL0     H20160   3.802   2.528   4.560 -1.3670  4.6152  0.1033
  153MOL0     H20161   3.845   2.752   4.662  0.9985  0.9553 -0.3208
  153MOL0     H20162   4.214   2.839   4.854  0.1522  0.4681 -0.9725
  153MOL0     H20163   4.142   2.994   4.835 -0.9359  2.4070 -3.5741
  153MOL0     H20164   4.278   2.831   4.612 -2.2525  0.1187 -1.7975
  153MOL0     H20165   4.354   2.949   4.706  0.2792 -3.0296  1.8056
  153MOL0     H20166   4.159   3.123   4.616  0.0645  0.5248 -1.8257
  153MOL0     H20167   4.130   2.995   4.502 -2.9574  1.2840  2.7643
  153MOL0     H20168   4.368   3.160   4.523 -2.2768 -0.7967  4.3122
  153MOL0     H20169   4.390   2.998   4.456 -1.5027 -1.6097 -0.7823
  153MOL0     H20170   4.178   3.211   4.372 -0.3405 -1.5076  0.7727
  153MOL0     H20171   4.200   3.060   4.288  0.9526  1.4574 -1.6402
  153MOL0     H20172   4.439   3.136   4.214  1.2014  1.3040 -0.5990
  153MOL0     H20173   4.401   3.286   4.296  2.5653  0.2776 -2.7865
  153MOL0     H20174   4.240   3.178   4.056 -0.0395  2.0844 -0.9819
  153MOL0     H20175   4.216   3.332   4.143  0.3341  0.8964  0.6353
  153MOL0     H20176   4.437   3.416   4.091  2.0455 -2.7440  2.2871
  153MOL0     H20177   4.346   3.352   3.944  1.4348 -1.2611 -1.7967
  153MOL0     H20178   4.232   2.631   4.762  1.1624 -1.2919 -0.7171
  153MOL0     H20179   4.187   2.395   4.660  0.2287  0.0630 -0.5706
  153MOL0     H20180   3.779   2.262   4.397  1.0195  2.1197 -0.8519
  153MOL0     H20181   3.669   2.138   4.209 -0.5787  1.1470  1.2018
  153MOL0     H20182   2.098   2.477   3.248  3.5968 -2.0503  0.0540
  153MOL0     H20183   1.999   2.715   3.185 -1.6319 -1.1480  1.1431
  153MOL0     H20184   2.056   3.175   3.213 -0.3736  0.0461  0.3153
  153MOL0     H20185   1.950   3.406   3.209 -1.2014  0.2337 -0.0039
  153MOL0     H20186   1.584   3.446   3.443  0.7249 -0.0763  0.8964
  153MOL0     H20187   1.640   3.389   3.291 -1.8111 -0.4843  0.5956
  153MOL0     H20188   1.629   3.591   3.175 -0.4538  0.6222  0.8874
  153MOL0     H20189   1.490   3.535   3.256 -1.0130  1.3350  1.1962
  153MOL0     H20190   1.634   3.784   3.264 -1.1800 -0.8507 -2.9445
  153MOL0     H20191   1.623   3.726   3.428  1.2642 -4.0724  0.0131
  153MOL0     H20192   1.405   3.865   3.369  0.3187 -1.1717  2.7297
  153MOL0     H20193   1.356   3.730   3.266 -1.0423 -0.4550  1.2422
  153MOL0     H20194   1.307   3.549   3.618  0.2364 -0.5377  0.1119
  153MOL0     H20195   1.743   3.295   3.559  1.7649  1.8657  0.9398
  153MOL0     H20196   1.862   3.075   3.568  1.2337 -2.9164 -0.9673
  154MOL0     O20197   8.552   4.980   0.402  0.8345 -0.5008  1.4094
  154MOL0     C20198   8.470   5.026   0.482  0.1051  0.2669  0.4997
  154MOL0     O20199   8.489   5.043   0.611 -0.9212 -0.1666  0.7397
  154MOL0     C20200   8.613   5.019   0.666  0.3019 -0.7123 -0.7679
  154MOL0     C20201   8.735   5.040   0.606 -0.0788 -0.2680 -0.0893
  154MOL0     C20202   8.862   5.016   0.672 -0.1672 -0.8291  0.0870
  154MOL0     C20203   8.867   4.956   0.800  0.6706  0.4640 -0.2790
  154MOL0     O20204   8.973   4.914   0.866 -0.5275  0.5631 -0.1419
  154MOL0     C20205   9.104   4.921   0.809 -1.0492 -0.8236  0.7433
  154MOL0     C20206   9.204   4.847   0.895 -0.2085  0.8154  0.0468
  154MOL0     C20207   9.352   4.885   0.876 -0.4055  0.4521  0.2104
  154MOL0     C20208   9.377   4.878   0.717 -0.5770 -0.5109  0.0200
  154MOL0     C20209   9.529   4.917   0.690 -0.3608  0.7599  0.6300
  154MOL0     C20210   9.631   4.822   0.762  1.1596 -0.1480  0.3113
  154MOL0     C20211   9.778   4.868   0.742 -0.0879 -1.7591 -0.2953
  154MOL0     C20212   9.878   4.762   0.779 -0.0766  0.7436 -0.5711
  154MOL0     N20213  10.002   4.812   0.832  0.4302  0.2376 -0.9662
  154MOL0     C20214  10.039   4.816   0.969 -0.0087  0.4945 -0.5497
  154MOL0     C20215  10.167   4.873   0.963  0.3796  0.3755 -0.3634
  154MOL0     C20216  10.271   4.875   1.074  0.5582 -0.2878  0.1933
  154MOL0     C20217  10.334   4.736   1.094 -0.0828  0.3939 -0.6803
  154MOL0     C20218  10.392   4.713   1.234 -0.5259 -0.6964  0.5629
  154MOL0     C20219  10.470   4.583   1.252  0.7339  0.7893 -0.4566
  154MOL0     O20220  10.560   4.544   1.144  0.0568 -0.3613  0.7510
  154MOL0     C20221  10.690   4.551   1.173 -0.8341 -0.5004  0.1786
  154MOL0     C20222  10.768   4.665   1.145 -0.1044  0.7008 -0.1817
  154MOL0     C20223  10.904   4.659   1.167  0.3758 -0.3416  0.3823
  154MOL0     C20224  10.973   4.548   1.209 -0.7778  0.4567 -1.0315
  154MOL0     C20225  11.121   4.549   1.239  0.9310 -0.9829 -0.0669
  154MOL0     O20226  11.183   4.661   1.204  0.0428  1.1594  0.4783
  154MOL0     C20227  11.323   4.642   1.198  0.7466  0.0058  0.5050
  154MOL0     C20228  11.385   4.617   1.079 -0.0103 -0.5314  0.2071
  154MOL0     C20229  11.523   4.605   1.076 -0.1213  0.3616  0.5843
  154MOL0     C20230  11.605   4.626   1.186  0.5117 -0.3688 -0.5009
  154MOL0     O20231  11.740   4.614   1.189 -0.4622 -0.0135 -0.6903
  154MOL0     C20232  11.805   4.552   1.076 -0.8198  0.1308  0.2202
  154MOL0     C20233  11.808   4.402   1.068  0.5029  0.2564 -0.5518
  154MOL0     C20234  11.899   4.338   1.168  0.6196  0.5875 -0.3905
  154MOL0     C20235  11.901   4.185   1.155 -0.1353  0.2710  0.8944
  154MOL0     C20236  11.765   4.114   1.164 -0.5548  0.0725  0.7667
  154MOL0     C20237  11.782   3.963   1.145  0.2865  0.8048 -0.2706
  154MOL0     C20238  11.649   3.872   1.143 -1.1833 -0.0827 -0.1815
  154MOL0     C20239  11.580   3.891   1.283  0.1501 -0.0628 -0.2084
  154MOL0    Cl20240  11.467   4.034   1.291 -0.1818  0.1475 -0.1857
  154MOL0     C20241  11.533   4.666   1.302  1.1523 -0.4346 -0.5829
  154MOL0     C20242  11.391   4.680   1.307 -0.6223 -0.3619 -0.1768
  154MOL0     O20243  11.167   4.445   1.287 -0.9700 -0.3505 -0.4949
  154MOL0     C20244  10.890   4.431   1.231 -0.3886 -0.6290 -0.6071
  154MOL0     C20245  10.754   4.436   1.215  0.9319 -0.2989  0.1690
  154MOL0     N20246  10.215   4.875   0.835 -0.5574  1.0052 -0.2692
  154MOL0     N20247  10.111   4.846   0.769 -0.8823  0.6928  0.3954
  154MOL0     C20248   8.745   4.950   0.860  0.0201 -0.7924  0.5829
  154MOL0     C20249   8.619   4.975   0.796 -0.5694  0.8182  0.0077
  154MOL0     C20250   8.344   5.075   0.427  1.3705 -0.3683  0.6002
  154MOL0     C20251   8.329   5.084   0.282 -0.1153  0.8288  0.4663
  154MOL0     C20252   8.205   5.126   0.227  0.7781 -0.3137  0.3176
  154MOL0     C20253   8.107   5.177   0.322 -0.2272  0.2502  0.3234
  154MOL0     O20254   7.992   5.233   0.287 -0.7025  0.6803 -0.1680
  154MOL0     C20255   7.983   5.252   0.143 -0.6559  0.5560  0.2256
  154MOL0     C20256   7.857   5.331   0.121  0.3749 -0.8013 -0.6135
  154MOL0     C20257   7.845   5.389  -0.019 -0.9221 -0.1579  0.1481
  154MOL0     C20258   7.834   5.285  -0.133  0.2486  0.3850 -0.2090
  154MOL0     C20259   7.792   5.335  -0.267 -0.2052  0.4426 -0.2185
  154MOL0     C20260   7.763   5.377  -0.380 -0.5350  0.7682  0.8685
  154MOL0     C20261   8.127   5.170   0.460 -0.5926  0.9592 -0.4084
  154MOL0     C20262   8.249   5.127   0.516  0.0914  0.5148 -0.4411
  154MOL0     H20263   8.743   5.075   0.504  0.3900  0.1453  0.0833
  154MOL0     H20264   8.955   5.047   0.625  1.8096  0.5214  4.4048
  154MOL0     H20265   9.125   5.028   0.802  0.0336 -1.1106 -0.7323
  154MOL0     H20266   9.095   4.868   0.714 -2.3998  0.2294  0.2501
  154MOL0     H20267   9.196   4.739   0.879  1.5890  0.8976 -1.7081
  154MOL0     H20268   9.174   4.865   0.999  1.3153  0.4394  0.5695
  154MOL0     H20269   9.419   4.813   0.925 -0.2076  0.1453 -0.4948
  154MOL0     H20270   9.384   4.984   0.913  0.9304  0.3950 -0.6950
  154MOL0     H20271   9.371   4.775   0.679  1.9343  0.1624 -2.5634
  154MOL0     H20272   9.315   4.944   0.655  0.3486  3.0248  2.5568
  154MOL0     H20273   9.557   5.021   0.702  1.4027  0.3785  0.1123
  154MOL0     H20274   9.546   4.894   0.584 -0.5966  5.3686 -0.5906
  154MOL0     H20275   9.626   4.715   0.742 -0.8917 -0.4867  2.2099
  154MOL0     H20276   9.616   4.840   0.869  1.7160 -1.3253  0.6039
  154MOL0     H20277   9.799   4.911   0.644  3.7018 -0.5937  0.8596
  154MOL0     H20278   9.797   4.946   0.816 -0.8927 -2.4663  0.6917
  154MOL0     H20279   9.902   4.698   0.694  2.0166  1.2772 -0.4303
  154MOL0     H20280   9.826   4.698   0.850  3.8708 -1.2192  0.8597
  154MOL0     H20281   9.992   4.783   1.061  1.8215  0.1778  0.3097
  154MOL0     H20282  10.221   4.902   1.168  1.4941  2.9330 -0.0957
  154MOL0     H20283  10.349   4.951   1.059 -1.0726  1.4555  0.1572
  154MOL0     H20284  10.404   4.719   1.011 -1.7194  0.6221 -2.1833
  154MOL0     H20285  10.257   4.658   1.094  1.3320 -1.1453  2.1222
  154MOL0     H20286  10.469   4.784   1.264  0.2483 -0.4188 -1.9003
  154MOL0     H20287  10.305   4.704   1.300 -1.0900  0.4821 -0.0044
  154MOL0     H20288  10.392   4.508   1.268  2.2926 -0.6592  0.8142
  154MOL0     H20289  10.532   4.584   1.343 -2.2912 -3.3947  2.0386
  154MOL0     H20290  10.722   4.753   1.102  1.7344  1.7084 -0.2025
  154MOL0     H20291  10.969   4.743   1.145  2.1040 -2.1650 -2.0733
  154MOL0     H20292  11.322   4.603   0.993  0.6863  1.4925 -0.6918
  154MOL0     H20293  11.564   4.567   0.983 -0.7259  0.8144  0.1260
  154MOL0     H20294  11.908   4.587   1.075 -2.1161  4.5857  1.3545
  154MOL0     H20295  11.772   4.604   0.985  4.2387  1.4570 -1.1469
  154MOL0     H20296  11.845   4.388   0.966 -0.1539 -0.0252 -0.7593
  154MOL0     H20297  11.708   4.362   1.087  0.3864  2.1023  3.7551
  154MOL0     H20298  11.883   4.374   1.270 -1.4702 -1.7352  0.2039
  154MOL0     H20299  12.005   4.361   1.151  1.8373 -3.3345  0.7356
  154MOL0     H20300  11.943   4.164   1.056 -2.6144  1.2108 -0.4588
  154MOL0     H20301  11.970   4.150   1.232  0.6731  0.9419  0.4807
  154MOL0     H20302  11.698   4.138   1.081 -0.0047  0.3680  0.4009
  154MOL0     H20303  11.732   4.140   1.265 -0.4030 -0.3504  0.9238
  154MOL0     H20304  11.846   3.921   1.223 -1.9945 -2.2463  0.1674
  154MOL0     H20305  11.834   3.927   1.056 -1.0693 -1.9137 -0.0776
  154MOL0     H20306  11.591   3.920   1.064 -1.9073  0.2337  0.5266
  154MOL0     H20307  11.670   3.766   1.127 -4.4610 -0.7139 -0.8502
  154MOL0     H20308  11.651   3.890   1.367 -0.5474 -2.4515  0.4174
  154MOL0     H20309  11.527   3.797   1.300  0.7183 -0.1626  1.1796
  154MOL0     H20310  11.581   4.693   1.395 -3.4289 -1.8538  2.5638
  154MOL0     H20311  11.341   4.699   1.402 -1.0153 -0.8687 -0.2754
  154MOL0     H20312  10.949   4.345   1.262 -0.0498 -0.4100 -0.6382
  154MOL0     H20313  10.699   4.351   1.256 -1.6707  0.4933 -1.4075
  154MOL0     H20314   8.723   4.907   0.957 -1.1849  1.8826  1.5850
  154MOL0     H20315   8.529   4.965   0.857 -0.9943 -1.3432 -0.8660
  154MOL0     H20316   8.403   5.049   0.210 -0.8429  2.0058 -0.9218
  154MOL0     H20317   8.192   5.135   0.120 -0.7236  1.1666  0.5740
  154MOL0     H20318   7.975   5.152   0.100  3.9607 -0.2182  0.6794
  154MOL0     H20319   8.068   5.306   0.100 -0.4559  0.5476  0.6050
  154MOL0     H20320   7.773   5.262   0.136 -0.0791 -0.0043  0.7653
  154MOL0     H20321   7.853   5.411   0.196  1.3391 -0.5161 -0.8552
  154MOL0     H20322   7.940   5.438  -0.043 -0.2891 -0.8892  1.1045
  154MOL0     H20323   7.763   5.460  -0.003 -1.2770 -0.5624  0.1355
  154MOL0     H20324   7.935   5.248  -0.153 -0.1502 -0.9009  0.0733
  154MOL0     H20325   7.775   5.199  -0.100  1.5588 -0.3027  0.4508
  154MOL0     H20326   7.724   5.403  -0.476 -0.1003 -0.4314  0.3492
  154MOL0     H20327   8.039   5.205   0.514 -0.5623  0.9491 -0.3515
  154MOL0     H20328   8.259   5.138   0.623 -2.2154 -0.5564 -0.0565
  155MOL0     O20329   6.664   7.205   5.927 -0.1571 -0.0154  0.0713
  155MOL0     C20330   6.634   7.307   5.869  1.5804 -0.3166 -0.8223
  155MOL0     O20331   6.719   7.372   5.783  1.2647 -0.2619  0.3117
  155MOL0     C20332   6.849   7.324   5.770  0.9615  0.2756 -0.0001
  155MOL0     C20333   6.894   7.272   5.639  0.6897  0.1754 -0.4403
  155MOL0     C20334   7.021   7.212   5.629 -0.3763  0.3293 -0.4069
  155MOL0     C20335   7.099   7.193   5.745  0.2512 -0.2156 -0.0290
  155MOL0     O20336   7.218   7.122   5.755 -0.3980  0.2587  0.1478
  155MOL0     C20337   7.259   7.021   5.650  0.0201  0.8360  0.2401
  155MOL0     C20338   7.402   6.969   5.657  0.3016 -1.5328 -0.7361
  155MOL0     C20339   7.405   6.834   5.729  0.2500  1.0645 -0.5675
  155MOL0     C20340   7.391   6.854   5.871  1.4884 -0.2045 -0.2091
  155MOL0     C20341   7.391   6.725   5.960 -0.3849 -1.3295 -0.0759
  155MOL0     C20342   7.535   6.679   5.982  0.3018  0.2283  0.6129
  155MOL0     C20343   7.552   6.532   6.029  0.5463 -0.3663 -0.2151
  155MOL0     C20344   7.473   6.436   5.940 -0.2758  0.5975  0.4342
  155MOL0     N20345   7.494   6.306   5.995  0.2831  0.7703 -0.7989
  155MOL0     C20346   7.425   6.245   6.097 -0.1287  0.0415 -0.9041
  155MOL0     C20347   7.495   6.136   6.142  0.7835 -0.0323 -0.3600
  155MOL0     C20348   7.448   6.061   6.265  0.2341  0.8816  0.9388
  155MOL0     C20349   7.484   6.110   6.404  0.0642 -0.1285  0.2322
  155MOL0     C20350   7.397   6.042   6.516 -0.1717 -0.6387 -0.7462
  155MOL0     C20351   7.457   6.043   6.657 -0.0667 -0.0704 -0.0583
  155MOL0     O20352   7.427   6.164   6.724 -0.7608 -0.1783 -0.1385
  155MOL0     C20353   7.480   6.205   6.839 -1.0890  0.7196  0.6176
  155MOL0     C20354   7.615   6.183   6.870 -0.9833 -0.0942 -0.5221
  155MOL0     C20355   7.662   6.194   7.006 -0.3489  0.7387  0.3241
  155MOL0     C20356   7.577   6.251   7.098 -0.3606  0.1347 -0.3024
  155MOL0     C20357   7.621   6.263   7.246 -0.5097 -0.5339  0.3406
  155MOL0     O20358   7.757   6.239   7.271 -0.2500 -0.4196 -0.3987
  155MOL0     C20359   7.814   6.273   7.382  0.6414  0.2230  1.1080
  155MOL0     C20360   7.841   6.176   7.472  0.7547  0.3481  0.2617
  155MOL0     C20361   7.895   6.210   7.597  0.0650  0.2428 -0.4501
  155MOL0     C20362   7.929   6.343   7.631 -0.2079 -0.4184 -0.7991
  155MOL0     O20363   7.973   6.368   7.755 -0.5332  0.6926  0.3323
  155MOL0     C20364   8.089   6.459   7.757 -0.4153  0.5619  0.2879
  155MOL0     C20365   8.160   6.451   7.894  0.5808  0.0750 -0.6824
  155MOL0     C20366   8.211   6.311   7.922 -0.2369  0.6652 -0.3470
  155MOL0     C20367   8.303   6.304   8.051 -0.0105  0.8086 -0.3580
  155MOL0     C20368   8.375   6.170   8.083 -0.0649  0.0407 -0.6301
  155MOL0     C20369   8.409   6.148   8.235  0.2251 -1.2567  0.5609
  155MOL0     C20370   8.283   6.107   8.306 -0.0725 -0.3626 -1.1430
  155MOL0     C20371   8.313   6.069   8.450  0.4435 -0.2858 -0.7509
  155MOL0    Cl20372   8.422   5.921   8.455 -0.0045  0.0045 -0.1114
  155MOL0     C20373   7.904   6.441   7.538 -0.7066 -0.0765  0.4740
  155MOL0     C20374   7.839   6.407   7.417  0.4600 -0.4198  0.0436
  155MOL0     O20375   7.538   6.313   7.333 -0.8101 -0.4438  0.3736
  155MOL0     C20376   7.442   6.280   7.065  0.4492  0.1131 -0.2790
  155MOL0     C20377   7.387   6.253   6.936 -0.4200  0.4803  0.4428
  155MOL0     N20378   7.607   6.132   6.063  0.8279  0.0156 -0.1567
  155MOL0     N20379   7.607   6.229   5.983  0.0944 -0.5721  0.0846
  155MOL0     C20380   7.067   7.254   5.865 -0.2949  0.0880  1.0431
  155MOL0     C20381   6.944   7.329   5.873 -0.2807  0.6438 -0.1202
  155MOL0     C20382   6.496   7.364   5.896  0.2653 -0.5610  0.1082
  155MOL0     C20383   6.406   7.289   5.972  0.7509  0.1818  0.3088
  155MOL0     C20384   6.279   7.330   6.008  0.3718 -0.1312  0.4092
  155MOL0     C20385   6.238   7.468   5.985 -2.0834 -0.3331 -0.9656
  155MOL0     O20386   6.128   7.514   6.042  0.0745 -0.5461 -0.1287
  155MOL0     C20387   6.089   7.653   6.032  0.8435 -0.8830  0.6289
  155MOL0     C20388   5.957   7.661   6.104 -0.5087 -0.1407 -0.7679
  155MOL0     C20389   5.914   7.804   6.124  1.1293 -0.1096 -0.9039
  155MOL0     C20390   5.840   7.857   5.997 -0.2960 -0.2359 -0.5496
  155MOL0     C20391   5.769   7.980   6.028 -0.1231 -0.7062 -0.0213
  155MOL0     C20392   5.702   8.077   6.067 -1.0202 -0.2535 -0.2637
  155MOL0     C20393   6.341   7.544   5.915 -0.8037 -0.1504  0.6548
  155MOL0     C20394   6.460   7.492   5.866 -0.5978  0.2143  0.0939
  155MOL0     H20395   6.824   7.280   5.556 -2.7117  3.1425  2.3812
  155MOL0     H20396   7.048   7.174   5.532  4.6534  3.1602 -0.4426
  155MOL0     H20397   7.252   7.069   5.551 -0.5464 -1.4062 -0.8908
  155MOL0     H20398   7.180   6.945   5.656 -0.8435  1.6536 -0.3884
  155MOL0     H20399   7.455   7.051   5.707 -2.5349  0.9043 -1.4536
  155MOL0     H20400   7.443   6.961   5.556  1.8275  0.7828 -0.3844
  155MOL0     H20401   7.493   6.777   5.698 -0.9190  0.0983 -2.2704
  155MOL0     H20402   7.321   6.770   5.700 -0.0643  0.5422  1.3423
  155MOL0     H20403   7.470   6.922   5.905  2.2110 -1.8073  1.5407
  155MOL0     H20404   7.289   6.889   5.886  0.0579 -3.5006 -1.1852
  155MOL0     H20405   7.330   6.646   5.915  0.3790 -1.6194 -0.6319
  155MOL0     H20406   7.363   6.754   6.061  1.3249  0.7402 -0.1174
  155MOL0     H20407   7.591   6.737   6.056  0.4951  0.7289  0.0842
  155MOL0     H20408   7.577   6.676   5.881 -1.0265  0.3950  0.0384
  155MOL0     H20409   7.655   6.501   6.049  0.8142 -0.0391 -1.0523
  155MOL0     H20410   7.498   6.529   6.124  0.3986 -0.6074 -0.3066
  155MOL0     H20411   7.511   6.442   5.838  1.4609 -4.1180  0.5631
  155MOL0     H20412   7.365   6.452   5.936 -0.0228  2.6139  0.3306
  155MOL0     H20413   7.338   6.278   6.153 -1.3071  1.0656 -3.2034
  155MOL0     H20414   7.511   5.973   6.255  1.6435  1.9434  0.1241
  155MOL0     H20415   7.342   6.037   6.256  0.5865 -0.9546  1.3363
  155MOL0     H20416   7.471   6.218   6.396  0.8625 -0.1400 -1.9613
  155MOL0     H20417   7.592   6.098   6.417  0.3518 -0.0831 -1.8169
  155MOL0     H20418   7.302   6.095   6.521  0.5348  0.6806 -0.9197
  155MOL0     H20419   7.388   5.937   6.483 -0.9579 -0.7428 -0.2180
  155MOL0     H20420   7.563   6.016   6.657 -0.6143 -2.6203  2.2286
  155MOL0     H20421   7.399   5.965   6.707 -0.9090  1.2933  1.1676
  155MOL0     H20422   7.689   6.145   6.801  1.0763  0.3619  1.2847
  155MOL0     H20423   7.763   6.169   7.037  0.0138  1.2594 -0.4121
  155MOL0     H20424   7.814   6.072   7.459  2.7879 -0.2027  0.0029
  155MOL0     H20425   7.916   6.137   7.674  2.7937  2.1842  0.8286
  155MOL0     H20426   8.056   6.563   7.760  0.4514  0.8158  2.0387
  155MOL0     H20427   8.155   6.457   7.669 -0.6884  3.2228 -0.0450
  155MOL0     H20428   8.082   6.452   7.971  0.1722 -0.2114 -1.0918
  155MOL0     H20429   8.235   6.531   7.902  0.0866  0.5136 -0.3414
  155MOL0     H20430   8.279   6.280   7.841  0.5145 -0.9232  0.8263
  155MOL0     H20431   8.125   6.245   7.937  0.2852 -0.3838 -1.7209
  155MOL0     H20432   8.366   6.394   8.054 -3.0151  3.0595  0.6304
  155MOL0     H20433   8.226   6.312   8.129 -1.5063 -2.1183 -1.3898
  155MOL0     H20434   8.475   6.183   8.040 -0.1284 -1.2207 -1.1870
  155MOL0     H20435   8.318   6.087   8.043 -0.8272  0.0584  0.3773
  155MOL0     H20436   8.443   6.243   8.279  1.2770 -0.7189 -1.2964
  155MOL0     H20437   8.476   6.063   8.244  0.7651 -0.7925  1.0631
  155MOL0     H20438   8.207   6.185   8.304  0.9783  0.7097 -0.6510
  155MOL0     H20439   8.245   6.021   8.250  1.7566 -1.7315 -0.4025
  155MOL0     H20440   8.220   6.048   8.502  0.1554  0.1337 -1.0879
  155MOL0     H20441   8.360   6.154   8.500 -2.6031  0.6564  0.7333
  155MOL0     H20442   7.934   6.542   7.563  2.4014 -1.4644  3.2093
  155MOL0     H20443   7.818   6.491   7.352 -0.1932 -0.2834  0.4236
  155MOL0     H20444   7.384   6.305   7.153  0.8864  0.5373 -0.1087
  155MOL0     H20445   7.280   6.267   6.921 -0.6298 -0.1039  1.3073
  155MOL0     H20446   7.133   7.244   5.950  0.8704 -1.7295  0.0034
  155MOL0     H20447   6.900   7.353   5.969  0.6733 -3.1639  1.4813
  155MOL0     H20448   6.430   7.185   5.993 -1.1191 -0.1618  0.8957
  155MOL0     H20449   6.210   7.268   6.066 -0.0333  1.1734  1.3782
  155MOL0     H20450   6.069   7.671   5.927  0.3031 -0.0354  0.8678
  155MOL0     H20451   6.166   7.718   6.075 -1.0808  0.2829  2.5273
  155MOL0     H20452   5.882   7.599   6.054 -0.9314 -0.4306  0.2181
  155MOL0     H20453   5.968   7.626   6.207 -0.6682  1.1000 -0.3033
  155MOL0     H20454   5.980   7.881   6.165  0.6844 -2.6895  5.9105
  155MOL0     H20455   5.841   7.798   6.205  1.5092 -0.8993 -0.6090
  155MOL0     H20456   5.909   7.868   5.914  0.5221  2.2241  0.3511
  155MOL0     H20457   5.764   7.783   5.970 -1.4140  0.1227  1.3892
  155MOL0     H20458   5.633   8.156   6.089 -1.3213 -0.3458 -0.8366
  155MOL0     H20459   6.304   7.640   5.880 -0.8215 -1.1812 -2.5450
  155MOL0     H20460   6.534   7.544   5.805 -0.9320  0.3799 -0.1742
  156MOL0     O20461   5.857   0.053   0.394  0.0696  0.5083 -0.3463
  156MOL0     C20462   5.861   0.148   0.466  0.0081  0.4606 -0.1447
  156MOL0     O20463   5.933   0.265   0.451 -0.2030  0.0351 -1.3029
  156MOL0     C20464   5.994   0.292   0.332 -0.7905  0.1984  0.1189
  156MOL0     C20465   6.124   0.243   0.320 -0.7119  0.2728 -0.5563
  156MOL0     C20466   6.199   0.272   0.200 -0.0692  0.2853 -0.9570
  156MOL0     C20467   6.133   0.342   0.103 -0.1289 -0.0493 -0.4578
  156MOL0     O20468   6.200   0.369  -0.013  0.4760  0.2015  0.8709
  156MOL0     C20469   6.176   0.503  -0.074 -0.3808 -0.0664 -0.0764
  156MOL0     C20470   6.310   0.546  -0.136 -0.0912 -0.4144  0.4250
  156MOL0     C20471   6.327   0.478  -0.270  0.2672 -0.3018  0.1617
  156MOL0     C20472   6.447   0.535  -0.345  0.1509 -0.3327  0.2538
  156MOL0     C20473   6.461   0.493  -0.496  0.2555 -0.3004 -1.1067
  156MOL0     C20474   6.581   0.572  -0.554 -0.1951  0.3586  0.8171
  156MOL0     C20475   6.589   0.715  -0.530 -0.4367  1.1487  0.2934
  156MOL0     C20476   6.690   0.789  -0.608  0.5891  0.5293  0.0377
  156MOL0     N20477   6.634   0.884  -0.705  0.4400 -0.9391  0.5243
  156MOL0     C20478   6.563   1.002  -0.682  0.4062  0.3219  0.4160
  156MOL0     C20479   6.514   1.039  -0.805  0.9075 -0.4440 -0.7796
  156MOL0     C20480   6.425   1.160  -0.841  0.6504  0.5122  0.0450
  156MOL0     C20481   6.383   1.251  -0.726  0.6374  0.1326  0.3087
  156MOL0     C20482   6.250   1.208  -0.669  0.1326 -0.3692  0.7693
  156MOL0     C20483   6.254   1.264  -0.522  0.0849  1.1482  1.0768
  156MOL0     O20484   6.253   1.401  -0.524 -0.4982 -0.4833  0.4683
  156MOL0     C20485   6.214   1.488  -0.424 -0.1458 -0.0096 -0.4890
  156MOL0     C20486   6.266   1.490  -0.298 -0.8390  0.4808 -1.2372
  156MOL0     C20487   6.241   1.597  -0.210  0.5361 -0.1173 -0.3024
  156MOL0     C20488   6.138   1.689  -0.245 -0.1108  0.3362  0.3611
  156MOL0     C20489   6.092   1.774  -0.139 -0.1889 -0.5229  1.2861
  156MOL0     O20490   6.024   1.881  -0.177  0.4563  0.0085 -1.1458
  156MOL0     C20491   5.938   1.956  -0.090  1.0313 -0.9216  0.0589
  156MOL0     C20492   5.987   1.990   0.030 -1.2227  0.0053 -1.4209
  156MOL0     C20493   5.912   2.070   0.121  0.2756 -0.2689  0.5264
  156MOL0     C20494   5.789   2.127   0.073 -0.1314  0.5321 -0.0863
  156MOL0     O20495   5.712   2.208   0.148  0.1471 -0.6147  1.1644
  156MOL0     C20496   5.724   2.217   0.288  0.2980  0.2749 -1.1597
  156MOL0     C20497   5.662   2.105   0.378 -0.8733 -1.2185  0.4982
  156MOL0     C20498   5.646   2.144   0.525  0.0164 -0.4413  0.7822
  156MOL0     C20499   5.528   2.243   0.540  0.7350  0.0163  0.4188
  156MOL0     C20500   5.513   2.294   0.685 -0.2485  0.9558  0.0148
  156MOL0     C20501   5.427   2.188   0.765 -0.1516  0.4311  0.0479
  156MOL0     C20502   5.378   2.262   0.889  1.0637  0.0362 -0.2837
  156MOL0     C20503   5.282   2.160   0.958 -0.9184  0.1205  0.5807
  156MOL0    Cl20504   5.126   2.155   0.892 -0.1995 -0.4226 -0.4833
  156MOL0     C20505   5.740   2.082  -0.044  0.2307  1.4903 -0.6878
  156MOL0     C20506   5.804   1.989  -0.120  0.7514 -0.3938  0.6738
  156MOL0     O20507   6.123   1.740  -0.025  0.4640  1.1445 -0.3255
  156MOL0     C20508   6.079   1.685  -0.367 -0.1347 -0.2994 -1.2094
  156MOL0     C20509   6.122   1.587  -0.455 -0.5839  0.2689 -0.5387
  156MOL0     N20510   6.568   0.958  -0.899 -0.4281 -0.3235  0.5263
  156MOL0     N20511   6.638   0.864  -0.840  0.1598 -0.3861 -0.6235
  156MOL0     C20512   5.995   0.372   0.110 -1.0336  0.1810  0.3083
  156MOL0     C20513   5.928   0.360   0.236 -1.1414 -0.3792 -0.0496
  156MOL0     C20514   5.768   0.138   0.587 -0.2106  0.1558  0.5506
  156MOL0     C20515   5.684   0.027   0.608  0.6005  0.0508 -0.7065
  156MOL0     C20516   5.593   0.035   0.719  0.0300  0.2490  0.6259
  156MOL0     C20517   5.594   0.135   0.816  0.9537 -0.8517  0.3416
  156MOL0     O20518   5.532   0.124   0.933 -0.2437  1.0546 -0.1262
  156MOL0     C20519   5.451   0.007   0.977  0.4139 -0.3675 -0.7316
  156MOL0     C20520   5.378   0.035   1.100  0.7364 -0.4546 -0.2659
  156MOL0     C20521   5.312  -0.085   1.150  0.3145 -0.0121 -0.2666
  156MOL0     C20522   5.206  -0.054   1.258 -0.1563 -0.0144 -0.3029
  156MOL0     C20523   5.238   0.046   1.360 -0.1645 -0.1826 -0.6935
  156MOL0     C20524   5.288   0.116   1.452 -0.0399 -0.5711  0.2292
  156MOL0     C20525   5.677   0.241   0.789 -1.5264  0.7212 -0.3175
  156MOL0     C20526   5.764   0.241   0.682 -0.0032  0.7670 -0.0589
  156MOL0     H20527   6.151   0.172   0.398 -2.6328 -0.3731 -0.4260
  156MOL0     H20528   6.300   0.243   0.172  0.4930 -2.0340  2.7356
  156MOL0     H20529   6.158   0.576   0.006 -1.0793 -0.1437 -0.1647
  156MOL0     H20530   6.095   0.516  -0.146 -0.5918  1.4570  0.4054
  156MOL0     H20531   6.386   0.519  -0.062 -0.5398  0.1036  1.0876
  156MOL0     H20532   6.312   0.655  -0.147  0.3560  0.0092  3.5937
  156MOL0     H20533   6.239   0.489  -0.334  0.3121  2.7327  0.4974
  156MOL0     H20534   6.343   0.370  -0.263  1.7385 -0.8846 -5.9497
  156MOL0     H20535   6.424   0.642  -0.352  0.8414 -0.1477  0.7574
  156MOL0     H20536   6.540   0.526  -0.289 -0.2216 -0.2633  0.8852
  156MOL0     H20537   6.367   0.520  -0.544 -1.0429  1.9025  2.2973
  156MOL0     H20538   6.476   0.386  -0.509  0.8643 -0.8017  2.7156
  156MOL0     H20539   6.581   0.557  -0.662 -1.8388  1.5049  0.6066
  156MOL0     H20540   6.673   0.534  -0.509  0.2027 -1.0680 -1.0667
  156MOL0     H20541   6.493   0.757  -0.564 -1.8186 -3.3186 -2.1462
  156MOL0     H20542   6.599   0.732  -0.423 -3.2941  0.7354  0.7225
  156MOL0     H20543   6.756   0.717  -0.658 -3.0878 -2.5300 -0.8846
  156MOL0     H20544   6.761   0.840  -0.542 -1.1058  2.3654  0.5256
  156MOL0     H20545   6.545   1.045  -0.584 -3.0969  2.4637 -0.9702
  156MOL0     H20546   6.340   1.130  -0.902  1.8748 -2.7584 -0.2927
  156MOL0     H20547   6.483   1.211  -0.919 -1.7182 -1.2140 -3.0934
  156MOL0     H20548   6.353   1.341  -0.780 -2.2705 -1.7358 -1.4940
  156MOL0     H20549   6.465   1.254  -0.654  0.4011  0.0799  0.5779
  156MOL0     H20550   6.168   1.250  -0.728  1.5102 -1.8626 -2.3808
  156MOL0     H20551   6.244   1.099  -0.678 -1.4920 -0.2257 -0.1832
  156MOL0     H20552   6.342   1.239  -0.462 -0.8239 -0.0234  1.9731
  156MOL0     H20553   6.164   1.214  -0.483 -0.4762  0.2480 -1.2200
  156MOL0     H20554   6.337   1.410  -0.278  0.1706  1.5959 -0.2286
  156MOL0     H20555   6.295   1.597  -0.116 -2.2313 -1.8592  1.4374
  156MOL0     H20556   6.084   1.960   0.069 -2.8028 -1.3047  1.9462
  156MOL0     H20557   5.960   2.111   0.210  1.3379  0.0112 -0.1579
  156MOL0     H20558   5.677   2.313   0.314 -1.0094 -0.6690  0.0880
  156MOL0     H20559   5.828   2.234   0.316  0.9471 -3.8532 -0.5562
  156MOL0     H20560   5.729   2.021   0.361 -2.9554 -3.3264  2.0884
  156MOL0     H20561   5.561   2.081   0.343 -1.2410 -2.5505  2.3462
  156MOL0     H20562   5.745   2.182   0.552 -0.4377  0.1502  1.6582
  156MOL0     H20563   5.626   2.054   0.583  0.9445 -0.6639  0.7630
  156MOL0     H20564   5.545   2.334   0.480  0.2346 -1.2435 -1.7159
  156MOL0     H20565   5.437   2.196   0.504 -1.7731  2.2239  3.3075
  156MOL0     H20566   5.458   2.389   0.682 -2.4061 -0.1792  0.9972
  156MOL0     H20567   5.606   2.321   0.736 -1.0914  1.0175  1.6057
  156MOL0     H20568   5.497   2.108   0.791 -0.2033  0.5032  0.4167
  156MOL0     H20569   5.341   2.149   0.709 -0.2217  0.1662  0.3353
  156MOL0     H20570   5.468   2.291   0.944 -0.4318 -1.2253  3.1068
  156MOL0     H20571   5.319   2.349   0.857 -2.3601 -1.7504  0.7119
  156MOL0     H20572   5.270   2.180   1.065 -1.6479 -0.1793  0.5618
  156MOL0     H20573   5.312   2.055   0.952 -1.1958  0.0718 -0.0221
  156MOL0     H20574   5.645   2.120  -0.081 -0.4851 -0.8317 -1.4314
  156MOL0     H20575   5.764   1.942  -0.208  0.4888 -1.8961  1.5561
  156MOL0     H20576   6.001   1.758  -0.384 -0.1308  0.4627  1.5370
  156MOL0     H20577   6.081   1.591  -0.556 -1.3809  0.6392 -0.2160
  156MOL0     H20578   5.942   0.422   0.031  0.2435 -0.1840 -0.8182
  156MOL0     H20579   5.826   0.393   0.253 -1.4182 -1.0409 -0.3882
  156MOL0     H20580   5.674  -0.058   0.540 -0.8750 -0.1512 -0.2635
  156MOL0     H20581   5.528  -0.051   0.733 -1.1736  0.6274 -1.9905
  156MOL0     H20582   5.528  -0.069   0.998  2.7107  0.5159 -4.7335
  156MOL0     H20583   5.375  -0.020   0.903 -0.4900  1.9786 -0.7504
  156MOL0     H20584   5.427   0.084   1.184 -0.9544 -0.4505  0.7689
  156MOL0     H20585   5.301   0.109   1.075  1.5837  0.7452  0.5423
  156MOL0     H20586   5.391  -0.147   1.194  1.5253  0.9352 -1.0255
  156MOL0     H20587   5.261  -0.147   1.077  0.7672 -4.7252  3.0043
  156MOL0     H20588   5.117  -0.017   1.207  0.9547  0.0659 -2.2860
  156MOL0     H20589   5.172  -0.143   1.310 -0.0313 -0.4542 -0.9651
  156MOL0     H20590   5.325   0.184   1.525  0.1883 -1.2753  0.7856
  156MOL0     H20591   5.686   0.325   0.857  0.5309  0.3961 -0.1295
  156MOL0     H20592   5.829   0.327   0.680  3.2391 -1.4667  0.9917
  157MOL0     O20593   2.116   6.216   1.821  0.0754  0.1350  0.2410
  157MOL0     C20594   2.094   6.335   1.823  0.0872 -0.6767 -0.5854
  157MOL0     O20595   1.999   6.398   1.899 -0.5835  0.7550 -0.1533
  157MOL0     C20596   1.959   6.324   2.010  0.8381  0.4734 -0.9986
  157MOL0     C20597   1.857   6.214   2.002 -0.0802 -0.2539 -0.4055
  157MOL0     C20598   1.809   6.159   2.125 -0.2485 -0.7110 -0.7186
  157MOL0     C20599   1.863   6.198   2.254  0.6781 -0.3067  0.2805
  157MOL0     O20600   1.817   6.170   2.376  0.8104  0.0515 -0.2211
  157MOL0     C20601   1.699   6.092   2.384 -0.1180 -0.7158 -0.8469
  157MOL0     C20602   1.679   6.058   2.527  0.4233 -0.2510  0.0553
  157MOL0     C20603   1.741   5.921   2.558 -0.9219  0.4540 -0.1046
  157MOL0     C20604   1.882   5.901   2.503 -0.3831 -0.0759  0.5846
  157MOL0     C20605   1.945   5.781   2.562  0.4929 -0.3877 -0.6453
  157MOL0     C20606   1.962   5.799   2.720  0.1257  1.1296 -0.0681
  157MOL0     C20607   2.079   5.723   2.784 -0.7745 -0.1729 -0.7598
  157MOL0     C20608   2.052   5.577   2.774 -0.1242 -0.0745 -0.4978
  157MOL0     N20609   1.949   5.531   2.872  0.1688 -0.1930  0.3616
  157MOL0     C20610   1.833   5.463   2.851  0.4277  0.3076  0.1145
  157MOL0     C20611   1.789   5.424   2.971  0.4241  0.0443  0.2105
  157MOL0     C20612   1.685   5.324   3.013 -0.4017  0.3912 -0.0085
  157MOL0     C20613   1.735   5.185   3.052  0.3107 -0.0930 -0.2480
  157MOL0     C20614   1.623   5.078   3.040  0.0868 -0.3086  0.0866
  157MOL0     C20615   1.511   5.107   3.145 -0.5265  0.2027 -0.7964
  157MOL0     O20616   1.571   5.118   3.274  0.2261  0.5783  0.1234
  157MOL0     C20617   1.491   5.154   3.382  0.3971 -0.2200  0.4787
  157MOL0     C20618   1.488   5.073   3.492 -0.1004 -0.3302 -0.4966
  157MOL0     C20619   1.408   5.098   3.601 -0.6889 -0.4911 -0.2038
  157MOL0     C20620   1.323   5.208   3.600  0.7938 -0.1544 -0.5271
  157MOL0     C20621   1.239   5.249   3.725 -0.0176 -0.1093 -0.0981
  157MOL0     O20622   1.144   5.334   3.693 -0.8618 -0.3267  0.4647
  157MOL0     C20623   1.054   5.389   3.777 -1.8139 -0.4341  0.9735
  157MOL0     C20624   0.958   5.472   3.724  0.1147 -0.2672  0.3279
  157MOL0     C20625   0.859   5.547   3.800 -0.2763 -0.9652 -0.0656
  157MOL0     C20626   0.859   5.536   3.937  0.1224 -0.3266 -0.7831
  157MOL0     O20627   0.764   5.607   4.001  0.2268  1.0556  0.0303
  157MOL0     C20628   0.782   5.618   4.144 -0.5697 -0.6921  0.1013
  157MOL0     C20629   0.668   5.707   4.204  0.3638  0.0836  0.1014
  157MOL0     C20630   0.729   5.816   4.300  0.2957 -0.2963 -0.3357
  157MOL0     C20631   0.619   5.904   4.360  0.0691 -0.7723  0.4788
  157MOL0     C20632   0.657   5.966   4.493 -0.3569 -1.4074  0.0586
  157MOL0     C20633   0.546   6.060   4.533  0.5905  0.2505 -0.1846
  157MOL0     C20634   0.566   6.119   4.671 -0.0340  0.1119  0.5961
  157MOL0     C20635   0.590   6.014   4.779 -0.7504 -0.3009  1.1940
  157MOL0    Cl20636   0.645   6.077   4.941 -0.3821  0.4491 -0.0957
  157MOL0     C20637   0.948   5.447   3.991 -0.4001 -0.2286 -0.8288
  157MOL0     C20638   1.046   5.383   3.915  0.5582 -0.3439  0.5507
  157MOL0     O20639   1.266   5.215   3.837 -0.3440  0.2685 -0.8691
  157MOL0     C20640   1.329   5.293   3.485  1.1589  0.2252  1.2436
  157MOL0     C20641   1.411   5.261   3.375  0.5620  0.3832 -1.5050
  157MOL0     N20642   1.864   5.476   3.065 -1.1451 -0.2629  0.0273
  157MOL0     N20643   1.962   5.539   3.009  0.2090  0.6395 -0.3521
  157MOL0     C20644   1.943   6.300   2.254 -0.2903 -0.9421 -0.6944
  157MOL0     C20645   1.999   6.360   2.142 -0.4444 -0.2783 -0.4146
  157MOL0     C20646   2.187   6.418   1.736 -0.0718  0.3090 -0.8286
  157MOL0     C20647   2.181   6.559   1.738  0.6759  0.5383 -0.6590
  157MOL0     C20648   2.278   6.639   1.678 -0.0170 -0.3415 -0.2725
  157MOL0     C20649   2.383   6.578   1.607  1.0215 -0.0843 -1.0136
  157MOL0     O20650   2.488   6.642   1.550 -0.2008 -0.4366  1.3632
  157MOL0     C20651   2.485   6.780   1.518  0.0237  0.4717 -0.9060
  157MOL0     C20652   2.609   6.827   1.444 -0.1540 -0.1061 -0.1955
  157MOL0     C20653   2.737   6.783   1.518 -0.4411  0.5474 -0.1567
  157MOL0     C20654   2.775   6.853   1.650 -0.4457 -0.3089 -0.5169
  157MOL0     C20655   2.877   6.759   1.718  0.6580  0.7501 -1.4028
  157MOL0     C20656   2.957   6.684   1.774 -0.1788  0.1171 -0.7625
  157MOL0     C20657   2.390   6.434   1.600 -0.2071 -0.0986 -0.1993
  157MOL0     C20658   2.292   6.354   1.661 -0.5316  0.5592  0.5472
  157MOL0     H20659   1.810   6.178   1.911 -1.0588  0.1577 -0.0777
  157MOL0     H20660   1.717   6.101   2.130 -0.3201 -0.5259  0.6496
  157MOL0     H20661   1.713   6.002   2.325 -0.5861 -1.7099  0.5007
  157MOL0     H20662   1.617   6.147   2.336  2.0734  3.2125 -0.5238
  157MOL0     H20663   1.570   6.050   2.534  0.2611  0.9992 -0.6993
  157MOL0     H20664   1.712   6.133   2.599 -3.0554  0.8000  0.7641
  157MOL0     H20665   1.675   5.853   2.503  0.0214 -1.2711  0.8004
  157MOL0     H20666   1.732   5.896   2.664  0.8219  1.1483  0.2404
  157MOL0     H20667   1.895   5.891   2.395 -0.3991 -1.7390  0.7119
  157MOL0     H20668   1.936   5.991   2.535 -4.7999  1.8943  3.4935
  157MOL0     H20669   2.045   5.768   2.518  0.2377 -1.4162 -0.9541
  157MOL0     H20670   1.885   5.690   2.548  2.3851 -1.6443 -0.9015
  157MOL0     H20671   1.870   5.777   2.775  0.0371  1.0130 -0.2598
  157MOL0     H20672   1.985   5.904   2.742 -1.2384  1.0257  2.2080
  157MOL0     H20673   2.174   5.749   2.737 -0.5554  2.1281  0.7797
  157MOL0     H20674   2.086   5.758   2.887 -0.7080  0.6371 -1.0311
  157MOL0     H20675   2.145   5.520   2.785 -0.4380 -1.2647 -3.3234
  157MOL0     H20676   2.024   5.544   2.674 -0.5601 -1.9090  0.1789
  157MOL0     H20677   1.798   5.434   2.752 -2.2076  0.5570  0.9081
  157MOL0     H20678   1.625   5.292   2.927 -2.7775 -1.1633  2.0723
  157MOL0     H20679   1.615   5.367   3.086  3.4031  1.3455  3.4103
  157MOL0     H20680   1.780   5.191   3.151 -2.4710  1.4942  1.0413
  157MOL0     H20681   1.806   5.149   2.977 -0.0910  1.8774 -1.6476
  157MOL0     H20682   1.593   5.080   2.935 -1.6830 -2.1580  0.5037
  157MOL0     H20683   1.673   4.983   3.061  2.2892  1.3041  3.0233
  157MOL0     H20684   1.449   5.017   3.148  0.6822 -0.6398  1.3887
  157MOL0     H20685   1.459   5.202   3.126  1.2641  0.8247 -3.0132
  157MOL0     H20686   1.552   4.986   3.482 -2.9839 -2.6377 -0.2007
  157MOL0     H20687   1.398   5.035   3.688 -2.2817  1.5297  1.1645
  157MOL0     H20688   0.959   5.471   3.615 -1.4286 -1.4488  0.2878
  157MOL0     H20689   0.778   5.591   3.743  0.2676  0.5450  0.2952
  157MOL0     H20690   0.881   5.656   4.171  0.2857 -0.0090 -3.4760
  157MOL0     H20691   0.792   5.515   4.179  4.4296 -0.9988 -1.3389
  157MOL0     H20692   0.596   5.645   4.257 -0.3563  0.3536 -0.5483
  157MOL0     H20693   0.615   5.757   4.122 -2.2728 -1.1181  0.9927
  157MOL0     H20694   0.804   5.878   4.250  1.1901 -0.1717  1.1002
  157MOL0     H20695   0.782   5.762   4.380  0.0517  1.5079  1.1166
  157MOL0     H20696   0.603   5.990   4.294  3.5335 -0.7546 -0.5685
  157MOL0     H20697   0.526   5.849   4.377 -1.3043  1.7077  1.4524
  157MOL0     H20698   0.744   6.029   4.470 -2.7384  2.4236  0.5801
  157MOL0     H20699   0.678   5.887   4.565 -0.0426 -3.3320 -2.0104
  157MOL0     H20700   0.442   6.026   4.529  0.1533  1.6095 -1.0374
  157MOL0     H20701   0.543   6.144   4.464 -3.9164  2.9225  2.7106
  157MOL0     H20702   0.656   6.181   4.663  1.5117 -1.7386  2.3043
  157MOL0     H20703   0.496   6.197   4.700 -1.7249 -1.2702  0.4110
  157MOL0     H20704   0.666   5.943   4.745 -0.8163  0.6674 -1.2335
  157MOL0     H20705   0.506   5.947   4.798  0.1249 -4.2252 -5.5709
  157MOL0     H20706   0.954   5.435   4.099 -2.9654  0.1436 -0.5828
  157MOL0     H20707   1.118   5.320   3.966  2.0989 -0.1188 -1.2424
  157MOL0     H20708   1.264   5.380   3.482 -0.1364 -0.6535 -3.1831
  157MOL0     H20709   1.429   5.331   3.293 -0.0851  0.2635 -1.7594
  157MOL0     H20710   1.983   6.331   2.350  1.6287 -2.0386 -1.0898
  157MOL0     H20711   2.085   6.425   2.153 -1.4284  1.0025  0.0150
  157MOL0     H20712   2.111   6.609   1.803 -1.3556  0.2692 -2.5261
  157MOL0     H20713   2.267   6.745   1.694  1.6248 -0.4041  1.6829
  157MOL0     H20714   2.460   6.846   1.602  0.5818  0.2014 -0.5238
  157MOL0     H20715   2.405   6.791   1.444 -1.1394  1.2894  0.4265
  157MOL0     H20716   2.603   6.775   1.348 -1.3853 -1.9218  0.8054
  157MOL0     H20717   2.598   6.934   1.422  2.2621 -0.1971 -2.3329
  157MOL0     H20718   2.819   6.803   1.448 -0.6166  1.3912 -0.1331
  157MOL0     H20719   2.732   6.674   1.528 -2.1237  0.1181 -3.7978
  157MOL0     H20720   2.809   6.955   1.632 -1.5661  0.7669  2.6911
  157MOL0     H20721   2.682   6.857   1.707 -0.0985 -0.3829  0.0613
  157MOL0     H20722   3.017   6.613   1.826  2.3904  0.2163 -3.3102
  157MOL0     H20723   2.464   6.378   1.543  0.7301  0.7011  0.2180
  157MOL0     H20724   2.309   6.246   1.655  0.0165  0.6606  0.1294
  158MOL0     O20725   1.994   1.657   8.605 -1.0454  0.3268 -0.5021
  158MOL0     C20726   1.898   1.659   8.525 -0.0877 -1.0641 -0.2175
  158MOL0     O20727   1.807   1.556   8.516  1.0460 -0.7876 -0.0682
  158MOL0     C20728   1.817   1.460   8.611 -0.3801  1.1067  0.3139
  158MOL0     C20729   1.900   1.348   8.584  0.4873 -0.3423  0.5548
  158MOL0     C20730   1.938   1.250   8.681 -0.2936 -0.9227  1.2938
  158MOL0     C20731   1.882   1.272   8.804 -0.1478 -0.4132  0.9185
  158MOL0     O20732   1.929   1.189   8.903  0.4420  0.1189  0.5564
  158MOL0     C20733   1.891   1.203   9.041  0.3411 -0.4743 -0.0799
  158MOL0     C20734   1.763   1.133   9.082 -0.1329  0.2210  0.2391
  158MOL0     C20735   1.792   0.982   9.090 -0.5402  0.5720 -0.0826
  158MOL0     C20736   1.697   0.914   9.192 -0.1056  0.2947 -0.2500
  158MOL0     C20737   1.705   0.773   9.189 -0.7256  0.4177  0.4371
  158MOL0     C20738   1.849   0.705   9.202  0.0464 -0.1734 -0.0832
  158MOL0     C20739   1.912   0.713   9.344 -0.3387  0.7715 -0.6561
  158MOL0     C20740   1.845   0.607   9.434  0.0128 -0.3979  1.3373
  158MOL0     N20741   1.890   0.601   9.570 -1.0904  0.1157 -0.3488
  158MOL0     C20742   2.000   0.528   9.598  0.1228  0.6291 -0.2676
  158MOL0     C20743   2.009   0.528   9.738  0.7415 -0.0524  0.4231
  158MOL0     C20744   2.114   0.442   9.811 -0.0504  0.3813 -0.4927
  158MOL0     C20745   2.209   0.519   9.897  0.5100 -0.8842 -0.6244
  158MOL0     C20746   2.303   0.613   9.805 -1.1420  0.1438 -0.2927
  158MOL0     C20747   2.428   0.665   9.880 -0.4617  0.2933 -0.4038
  158MOL0     O20748   2.498   0.549   9.929 -0.1287 -0.6396  0.5428
  158MOL0     C20749   2.634   0.552   9.914  0.4458 -0.4350  0.0718
  158MOL0     C20750   2.712   0.663   9.954  0.1852  0.9009 -0.3538
  158MOL0     C20751   2.848   0.674   9.912  0.4202 -0.0334  0.8049
  158MOL0     C20752   2.917   0.575   9.838 -0.1570 -0.8674  0.0946
  158MOL0     C20753   3.053   0.588   9.786 -0.1797  0.5750 -0.7809
  158MOL0     O20754   3.092   0.523   9.674 -0.1128 -0.1795 -0.2565
  158MOL0     C20755   3.226   0.499   9.658 -0.2675  0.2265  0.0324
  158MOL0     C20756   3.280   0.495   9.529 -0.4563  0.2032 -0.0778
  158MOL0     C20757   3.403   0.447   9.495  0.0222 -0.6111  0.7745
  158MOL0     C20758   3.480   0.404   9.602 -0.2688  0.0593 -0.5791
  158MOL0     O20759   3.607   0.356   9.606  0.3624 -1.0070  0.2416
  158MOL0     C20760   3.667   0.309   9.486  1.0425  0.0892  0.6050
  158MOL0     C20761   3.794   0.230   9.519 -0.1441 -0.0812  0.1736
  158MOL0     C20762   3.873   0.191   9.390 -0.4286  0.0636  0.4044
  158MOL0     C20763   3.973   0.074   9.417  0.1823 -0.3796  0.5755
  158MOL0     C20764   4.037   0.043   9.272 -0.1438 -0.2644 -0.1156
  158MOL0     C20765   4.168  -0.019   9.295 -0.4540  0.7905 -0.7255
  158MOL0     C20766   4.247  -0.043   9.171  0.5309  0.5551 -0.4406
  158MOL0     C20767   4.166  -0.153   9.087  0.5009 -0.5655 -0.4410
  158MOL0    Cl20768   4.274  -0.226   8.972 -0.3105  0.0876 -0.1995
  158MOL0     C20769   3.434   0.404   9.733  1.3015  0.6374 -0.1591
  158MOL0     C20770   3.298   0.448   9.757 -0.5842 -0.5276 -0.0064
  158MOL0     O20771   3.125   0.659   9.855 -0.7959  0.2250 -0.5786
  158MOL0     C20772   2.836   0.460   9.808 -0.0094 -0.1630 -1.1324
  158MOL0     C20773   2.697   0.450   9.856  0.2176  0.3397  0.8397
  158MOL0     N20774   1.900   0.609   9.786  0.2571  0.0277 -0.7026
  158MOL0     N20775   1.835   0.654   9.683 -0.3059  0.5473 -0.0332
  158MOL0     C20776   1.786   1.375   8.831  0.0059 -0.6174 -0.4300
  158MOL0     C20777   1.753   1.475   8.737 -0.1797  0.0800  0.8341
  158MOL0     C20778   1.894   1.773   8.435 -0.3548 -0.0078 -0.4421
  158MOL0     C20779   1.831   1.752   8.310 -0.0081 -0.1385  0.0038
  158MOL0     C20780   1.822   1.860   8.216 -0.0596 -0.3358  0.3467
  158MOL0     C20781   1.871   1.990   8.254  0.3597  0.1415  0.8002
  158MOL0     O20782   1.849   2.107   8.182  0.1246  0.5861  0.1433
  158MOL0     C20783   1.938   2.118   8.071 -0.5262  1.0160  0.0505
  158MOL0     C20784   2.071   2.186   8.135  0.1040  0.4578 -1.3052
  158MOL0     C20785   2.060   2.334   8.199  0.5937  0.5297 -0.8388
  158MOL0     C20786   2.196   2.375   8.246  0.4209 -0.2349  0.4104
  158MOL0     C20787   2.302   2.373   8.148  1.1708 -0.2979 -0.4298
  158MOL0     C20788   2.384   2.379   8.063  1.0534  0.5392  0.2611
  158MOL0     C20789   1.931   1.999   8.380 -1.3372  1.4944  0.1559
  158MOL0     C20790   1.951   1.892   8.469  0.4104  0.5464  0.0376
  158MOL0     H20791   1.935   1.340   8.481 -1.9169 -1.6939 -0.2452
  158MOL0     H20792   1.996   1.164   8.650 -1.9407 -1.5244 -0.3293
  158MOL0     H20793   1.879   1.308   9.070  3.4078  0.7645 -2.7037
  158MOL0     H20794   1.980   1.169   9.096  0.2430  2.6041  2.2753
  158MOL0     H20795   1.685   1.153   9.008  0.2521 -2.0031 -0.8602
  158MOL0     H20796   1.732   1.173   9.179  2.7752  3.4503 -0.0146
  158MOL0     H20797   1.893   0.966   9.129 -0.8190  1.5557  1.1374
  158MOL0     H20798   1.783   0.939   8.990  0.2822 -1.9149  0.8345
  158MOL0     H20799   1.715   0.943   9.296 -2.1644 -1.2611  0.6137
  158MOL0     H20800   1.596   0.943   9.164 -0.6899 -1.9733 -0.6416
  158MOL0     H20801   1.676   0.745   9.087 -2.6512  3.7236 -0.0946
  158MOL0     H20802   1.642   0.731   9.267 -0.0281 -1.9274 -0.1886
  158MOL0     H20803   1.919   0.736   9.124  2.4879 -2.6081  0.9773
  158MOL0     H20804   1.834   0.599   9.178  3.8698 -0.7279 -0.6418
  158MOL0     H20805   2.019   0.690   9.341 -0.4372 -0.7101  2.9112
  158MOL0     H20806   1.899   0.815   9.380 -1.6905  0.2104  0.5317
  158MOL0     H20807   1.873   0.509   9.397 -0.8807 -0.0983 -0.2229
  158MOL0     H20808   1.736   0.616   9.439 -0.0267 -1.3847  2.8597
  158MOL0     H20809   2.068   0.494   9.520  3.0718  3.4784  0.8404
  158MOL0     H20810   2.166   0.376   9.741  2.5038  1.6387  0.0831
  158MOL0     H20811   2.061   0.376   9.880  1.7273 -1.2137 -0.5673
  158MOL0     H20812   2.280   0.453   9.947  2.1616  2.8095  2.4561
  158MOL0     H20813   2.161   0.579   9.975 -0.3132 -3.1874  0.7179
  158MOL0     H20814   2.339   0.565   9.713  1.5413  2.1045 -0.3677
  158MOL0     H20815   2.260   0.703   9.761  0.9158 -0.1652 -3.2280
  158MOL0     H20816   2.396   0.721   9.968  2.6217 -2.3682  2.6788
  158MOL0     H20817   2.494   0.730   9.823  0.7355  0.8619  1.5516
  158MOL0     H20818   2.671   0.738  10.021 -0.2678 -0.9607  1.5586
  158MOL0     H20819   2.903   0.760   9.949 -1.3265 -0.2157  4.1777
  158MOL0     H20820   3.217   0.535   9.450 -1.0803 -0.9859 -0.2177
  158MOL0     H20821   3.451   0.456   9.398 -2.1579  0.5137 -0.2716
  158MOL0     H20822   3.700   0.387   9.417 -0.3108  4.8024  4.6616
  158MOL0     H20823   3.592   0.246   9.437  2.8469 -1.0745 -0.7798
  158MOL0     H20824   3.767   0.141   9.575  2.3207 -0.3594  1.0220
  158MOL0     H20825   3.855   0.291   9.587  0.7977 -1.6461  0.7734
  158MOL0     H20826   3.939   0.274   9.365  2.5358 -2.5931 -1.4113
  158MOL0     H20827   3.815   0.162   9.302  0.7999 -3.7647  0.6766
  158MOL0     H20828   4.048   0.117   9.484 -1.1578  0.7462  1.4105
  158MOL0     H20829   3.922  -0.015   9.457 -0.3256  0.0066  0.7953
  158MOL0     H20830   4.045   0.133   9.210 -1.3007  0.7628  1.1643
  158MOL0     H20831   3.971  -0.024   9.217  1.9719 -0.9876 -1.9280
  158MOL0     H20832   4.154  -0.112   9.352 -0.8228  1.5690  0.4853
  158MOL0     H20833   4.235   0.048   9.350 -1.7536  1.3122  0.2693
  158MOL0     H20834   4.262   0.047   9.112  0.6902  0.2927 -0.8042
  158MOL0     H20835   4.345  -0.071   9.211  0.8371  1.0922 -0.8070
  158MOL0     H20836   4.083  -0.103   9.036  1.8016  2.6932  0.4112
  158MOL0     H20837   4.135  -0.238   9.148  2.6764  0.9256  3.0475
  158MOL0     H20838   3.494   0.351   9.806  2.4672  1.1353 -0.7407
  158MOL0     H20839   3.258   0.418   9.853  0.9413 -1.4169  0.3875
  158MOL0     H20840   2.884   0.384   9.746  0.7082  1.3607 -2.5198
  158MOL0     H20841   2.634   0.368   9.822 -0.5039 -0.6661  4.2493
  158MOL0     H20842   1.740   1.393   8.927  2.1555 -0.4445  0.6139
  158MOL0     H20843   1.692   1.560   8.766 -2.5797 -1.9989  2.2924
  158MOL0     H20844   1.810   1.651   8.278  1.9356 -0.5844 -0.0129
  158MOL0     H20845   1.774   1.844   8.120  0.2193  0.2452  0.1139
  158MOL0     H20846   1.890   2.182   7.996 -3.4913  0.3652  1.2616
  158MOL0     H20847   1.957   2.018   8.031 -0.2771 -0.2122  2.9656
  158MOL0     H20848   2.107   2.125   8.218  1.6256  3.1625  0.1523
  158MOL0     H20849   2.143   2.187   8.053  3.5417  1.1669  1.5036
  158MOL0     H20850   1.991   2.327   8.283  0.2638  1.8927 -0.9759
  158MOL0     H20851   2.010   2.410   8.138 -3.6122  0.2699  1.9170
  158MOL0     H20852   2.184   2.473   8.293 -0.4567 -0.0336 -0.2052
  158MOL0     H20853   2.237   2.302   8.316  1.5436 -2.4878 -2.4114
  158MOL0     H20854   2.442   2.389   7.973 -0.2746 -1.4317 -0.9032
  158MOL0     H20855   1.981   2.091   8.408 -0.6320  1.4839 -0.9997
  158MOL0     H20856   2.003   1.900   8.564  0.5962 -0.3503  0.0188
  159MOL0     O20857   6.322   4.148   5.677 -0.3896  0.0795 -0.6595
  159MOL0     C20858   6.413   4.220   5.628  0.1218 -0.0874  1.4330
  159MOL0     O20859   6.420   4.354   5.647 -0.0758 -0.1593  0.5861
  159MOL0     C20860   6.311   4.412   5.712 -0.7838  0.1812  0.0538
  159MOL0     C20861   6.183   4.399   5.652  0.3212  0.6228  0.0970
  159MOL0     C20862   6.071   4.445   5.724  0.4872 -0.7896  0.2913
  159MOL0     C20863   6.093   4.519   5.843  0.2471 -0.0598 -0.2150
  159MOL0     O20864   5.997   4.555   5.939  0.4628 -0.4178  0.0725
  159MOL0     C20865   5.857   4.543   5.933 -0.0005  0.3487  0.9773
  159MOL0     C20866   5.781   4.628   6.040 -0.3042  0.4426  1.1316
  159MOL0     C20867   5.784   4.770   5.988 -0.4193  0.9934  0.1798
  159MOL0     C20868   5.712   4.870   6.073  0.2920 -0.0037 -0.8214
  159MOL0     C20869   5.723   5.009   6.020 -0.3862 -0.1338 -0.3046
  159MOL0     C20870   5.660   5.027   5.877  0.6612 -0.2442  0.0651
  159MOL0     C20871   5.514   4.990   5.859  0.0518  0.2324 -0.3843
  159MOL0     C20872   5.415   5.097   5.919 -0.6385  0.5028 -0.1612
  159MOL0     N20873   5.357   5.182   5.819 -0.8402 -0.0579 -0.9141
  159MOL0     C20874   5.412   5.297   5.754 -1.5129  0.8049  0.4837
  159MOL0     C20875   5.327   5.321   5.641 -0.4593  0.3176 -0.3209
  159MOL0     C20876   5.341   5.430   5.540 -0.7968  0.4675  0.1392
  159MOL0     C20877   5.449   5.532   5.574  0.1231  0.3631  0.3376
  159MOL0     C20878   5.437   5.653   5.474 -0.4797  0.8132 -0.3589
  159MOL0     C20879   5.522   5.628   5.351 -0.3920  0.2129  0.5223
  159MOL0     O20880   5.476   5.710   5.246 -0.2352  0.3373 -0.0439
  159MOL0     C20881   5.563   5.742   5.143  0.0679  0.1269 -0.7794
  159MOL0     C20882   5.513   5.835   5.054 -1.0139  0.1541  0.0572
  159MOL0     C20883   5.599   5.868   4.952  0.1541  0.8952  0.2713
  159MOL0     C20884   5.739   5.832   4.940  1.0524  0.1352  0.2556
  159MOL0     C20885   5.806   5.859   4.807 -0.5933 -0.2497 -0.1726
  159MOL0     O20886   5.746   5.942   4.710 -1.0536  0.6558  0.0870
  159MOL0     C20887   5.821   5.949   4.594  0.4476  0.0305  1.0322
  159MOL0     C20888   5.792   5.871   4.480 -0.0133 -0.3117  1.3714
  159MOL0     C20889   5.858   5.881   4.358 -0.3040  0.8530  0.1556
  159MOL0     C20890   5.958   5.973   4.350 -1.2808 -0.2315  0.6078
  159MOL0     O20891   6.036   6.014   4.243  0.0629  0.1069  0.5159
  159MOL0     C20892   6.022   5.932   4.121  0.3185 -0.5523  0.3245
  159MOL0     C20893   6.092   5.791   4.130 -0.5678  0.2784 -0.7979
  159MOL0     C20894   6.006   5.670   4.081 -0.1654  0.1864  0.2369
  159MOL0     C20895   6.017   5.647   3.938 -0.2615 -0.4196 -0.0005
  159MOL0     C20896   5.898   5.564   3.885  0.3663 -0.3917  1.1451
  159MOL0     C20897   5.940   5.477   3.762 -0.4004  0.5391  0.1649
  159MOL0     C20898   5.833   5.462   3.657 -0.2513  0.5081  0.0335
  159MOL0     C20899   5.864   5.353   3.557 -1.0645  0.2933 -0.3986
  159MOL0    Cl20900   5.755   5.360   3.415  0.1633 -0.4537  0.2491
  159MOL0     C20901   5.981   6.062   4.456 -0.3188 -0.0320 -0.1310
  159MOL0     C20902   5.920   6.054   4.578  0.8830 -0.9780  0.0201
  159MOL0     O20903   5.903   5.797   4.787 -0.0817 -0.0411  0.2500
  159MOL0     C20904   5.788   5.739   5.035 -0.3734 -0.3496  0.2550
  159MOL0     C20905   5.694   5.682   5.128 -1.4069  0.2587 -0.0450
  159MOL0     N20906   5.224   5.227   5.651 -0.0829  0.4350 -0.4672
  159MOL0     N20907   5.236   5.152   5.762 -0.3684 -0.2590 -0.2516
  159MOL0     C20908   6.224   4.531   5.901  0.5010 -0.2734  0.2274
  159MOL0     C20909   6.333   4.479   5.837  0.3054  0.8843  0.6459
  159MOL0     C20910   6.513   4.138   5.571 -0.5998 -0.1781 -0.0369
  159MOL0     C20911   6.521   4.000   5.590  0.4325  0.6287 -0.2244
  159MOL0     C20912   6.627   3.923   5.555 -0.2383 -0.1768 -1.2126
  159MOL0     C20913   6.746   3.983   5.508  0.2512  0.4339  0.0136
  159MOL0     O20914   6.874   3.920   5.479  0.3368 -0.8011  0.5369
  159MOL0     C20915   6.885   3.774   5.498  0.3753 -0.6553  0.0940
  159MOL0     C20916   7.009   3.716   5.439  1.0452 -0.3597  0.0093
  159MOL0     C20917   7.003   3.571   5.442  0.8768 -0.3722 -0.5707
  159MOL0     C20918   7.143   3.522   5.380 -0.9231  0.6680  0.1431
  159MOL0     C20919   7.261   3.560   5.456  0.4670 -1.1004  0.8760
  159MOL0     C20920   7.362   3.575   5.523  0.2095 -0.3252 -0.3337
  159MOL0     C20921   6.740   4.123   5.488  0.6698 -0.4150 -0.6856
  159MOL0     C20922   6.626   4.196   5.503  1.2524  0.5474  0.1181
  159MOL0     H20923   6.174   4.354   5.554 -2.8076 -1.0323  1.0052
  159MOL0     H20924   5.972   4.441   5.681  0.7135 -0.1539 -0.3077
  159MOL0     H20925   5.834   4.438   5.956 -0.5421  1.3254  6.0685
  159MOL0     H20926   5.817   4.575   5.836  0.6684 -1.5628  0.0045
  159MOL0     H20927   5.827   4.623   6.139 -3.5278 -1.0037  2.6881
  159MOL0     H20928   5.677   4.599   6.057 -1.5859  3.4934 -0.5683
  159MOL0     H20929   5.744   4.771   5.886 -1.8958  1.3594  0.7372
  159MOL0     H20930   5.885   4.812   5.993 -0.2148  0.7810 -1.5819
  159MOL0     H20931   5.611   4.834   6.090  0.4612  0.2628  1.0077
  159MOL0     H20932   5.770   4.877   6.166  4.0267  4.3158 -3.0870
  159MOL0     H20933   5.828   5.041   6.012  0.4767 -2.7107 -0.4138
  159MOL0     H20934   5.688   5.090   6.084  0.2372  2.3547 -2.9157
  159MOL0     H20935   5.729   4.974   5.810  3.1149  1.8375  0.7657
  159MOL0     H20936   5.669   5.130   5.842 -0.0072  0.0184  0.6544
  159MOL0     H20937   5.487   4.970   5.755 -1.9289  0.8780 -0.0416
  159MOL0     H20938   5.497   4.898   5.916 -1.0984  1.2432  1.0084
  159MOL0     H20939   5.461   5.167   5.990  1.2791  1.5517 -2.2984
  159MOL0     H20940   5.331   5.040   5.960 -0.4545  1.5417  1.7767
  159MOL0     H20941   5.507   5.345   5.777 -0.0135 -1.9398  0.4712
  159MOL0     H20942   5.246   5.484   5.546 -0.6183  0.7896  0.1208
  159MOL0     H20943   5.359   5.390   5.440 -0.9339  2.1061 -0.5816
  159MOL0     H20944   5.548   5.486   5.570 -0.5860 -1.1112 -1.5469
  159MOL0     H20945   5.429   5.562   5.678  0.5474  1.4029  0.1282
  159MOL0     H20946   5.333   5.682   5.461 -1.5881 -2.5388  0.0273
  159MOL0     H20947   5.490   5.732   5.528  3.1125 -2.7088  1.8318
  159MOL0     H20948   5.508   5.524   5.321  1.2322 -0.2930  1.4109
  159MOL0     H20949   5.628   5.640   5.375 -0.2486 -0.4050  0.2084
  159MOL0     H20950   5.415   5.881   5.057 -0.5086  1.2179  0.7862
  159MOL0     H20951   5.554   5.913   4.864  0.3683 -1.0123 -0.8729
  159MOL0     H20952   5.716   5.794   4.480 -1.2148  0.7910  3.0890
  159MOL0     H20953   5.816   5.825   4.276  1.1508  2.7282 -2.0186
  159MOL0     H20954   6.057   5.993   4.038 -2.1310  0.8146  0.1897
  159MOL0     H20955   5.915   5.910   4.108  0.6597 -0.5659 -3.5387
  159MOL0     H20956   6.116   5.770   4.235 -1.7902 -1.1124 -0.7567
  159MOL0     H20957   6.186   5.812   4.078 -0.7034  2.7732 -0.1567
  159MOL0     H20958   5.900   5.666   4.107 -1.7052  2.0463 -4.6316
  159MOL0     H20959   6.057   5.579   4.112  1.4784  1.1462  0.5168
  159MOL0     H20960   6.012   5.743   3.886 -1.7783  0.7909  2.2195
  159MOL0     H20961   6.110   5.590   3.926 -0.4899 -1.0850  1.2826
  159MOL0     H20962   5.822   5.638   3.856  0.6399  0.3691  2.3114
  159MOL0     H20963   5.853   5.504   3.964 -0.3157  2.4980  3.1096
  159MOL0     H20964   5.967   5.380   3.805 -1.7114  1.1546  2.5485
  159MOL0     H20965   6.022   5.507   3.697 -2.0347 -0.1057 -2.3247
  159MOL0     H20966   5.732   5.444   3.696 -0.4907 -0.4558 -0.9391
  159MOL0     H20967   5.833   5.549   3.590  3.9113  1.5469  1.1054
  159MOL0     H20968   5.840   5.257   3.605  0.4142 -1.0835 -2.2272
  159MOL0     H20969   5.970   5.364   3.531 -1.2288  4.6747  0.1416
  159MOL0     H20970   6.054   6.142   4.452 -2.1729  2.0831  3.3370
  159MOL0     H20971   5.947   6.119   4.661  1.1151 -1.5218  0.3764
  159MOL0     H20972   5.890   5.708   5.020 -0.4600 -1.2880  1.3881
  159MOL0     H20973   5.726   5.605   5.197  0.4215  2.7596  2.1238
  159MOL0     H20974   6.234   4.582   5.996 -0.4398  0.9896 -0.3312
  159MOL0     H20975   6.438   4.471   5.864  1.0353 -3.7971 -2.3486
  159MOL0     H20976   6.440   3.957   5.649 -0.7201  2.4413 -0.4194
  159MOL0     H20977   6.618   3.818   5.581 -0.1455  0.4023  1.4699
  159MOL0     H20978   6.798   3.728   5.450 -1.7805  0.7147  2.3865
  159MOL0     H20979   6.885   3.756   5.606 -0.4218  1.7406  0.5672
  159MOL0     H20980   7.022   3.752   5.337  0.0818  1.7649  0.5644
  159MOL0     H20981   7.094   3.752   5.498  1.0390 -1.0207  0.4392
  159MOL0     H20982   6.923   3.530   5.380 -0.3622  2.1639 -0.7568
  159MOL0     H20983   6.989   3.537   5.545 -0.1958 -2.2184 -1.2812
  159MOL0     H20984   7.144   3.413   5.380  1.6868  0.6117  2.0049
  159MOL0     H20985   7.150   3.556   5.276 -2.1549  0.6280  0.0337
  159MOL0     H20986   7.437   3.562   5.599  0.9014 -1.4670 -1.1794
  159MOL0     H20987   6.812   4.191   5.444  0.8855  0.2332  0.6066
  159MOL0     H20988   6.623   4.302   5.477 -0.3803 -0.0596 -2.6465
  160MOL0     O20989   8.594   7.645   5.040 -0.1139 -0.5089 -0.5665
  160MOL0     C20990   8.621   7.583   4.939  0.3166  0.7605  0.1220
  160MOL0     O20991   8.698   7.474   4.933  0.7870  0.6971 -0.9947
  160MOL0     C20992   8.689   7.360   5.015 -0.5005 -0.3457 -0.1667
  160MOL0     C20993   8.764   7.242   4.982 -1.1693 -0.1681  0.5519
  160MOL0     C20994   8.754   7.113   5.035  0.0749  0.1426 -0.4814
  160MOL0     C20995   8.668   7.094   5.144 -0.6564 -0.0661  0.8729
  160MOL0     O20996   8.671   6.975   5.210  0.2049  0.1658  0.2086
  160MOL0     C20997   8.675   6.994   5.350  0.0383  1.1512 -0.5604
  160MOL0     C20998   8.725   6.870   5.411 -0.6700 -0.5740 -0.1327
  160MOL0     C20999   8.741   6.892   5.565  1.2696  0.7713  0.6105
  160MOL0     C21000   8.834   6.785   5.630 -0.5020  0.0818 -0.9576
  160MOL0     C21001   8.872   6.821   5.770 -0.9927  0.8531 -0.2049
  160MOL0     C21002   8.934   6.695   5.835  0.4752 -0.8592  0.4016
  160MOL0     C21003   9.004   6.725   5.977 -0.0927 -0.1497  0.0111
  160MOL0     C21004   9.075   6.600   6.038  0.0976  0.3213 -0.2811
  160MOL0     N21005   9.108   6.610   6.178  0.1432 -0.9779 -1.2578
  160MOL0     C21006   9.233   6.590   6.239 -0.3154 -0.6361  0.5640
  160MOL0     C21007   9.216   6.553   6.365  0.6001  0.1628  0.1857
  160MOL0     C21008   9.317   6.522   6.476 -0.5914  0.8691  1.0967
  160MOL0     C21009   9.263   6.517   6.618 -0.7670  0.7885 -0.8851
  160MOL0     C21010   9.373   6.549   6.723 -0.5493  0.1812 -0.0292
  160MOL0     C21011   9.313   6.531   6.866  0.2374  1.0139  0.2906
  160MOL0     O21012   9.300   6.386   6.880 -0.1887 -0.3582 -0.2145
  160MOL0     C21013   9.253   6.336   6.997 -1.3000 -0.2203 -1.0537
  160MOL0     C21014   9.173   6.406   7.093 -1.1594 -0.6406  0.1209
  160MOL0     C21015   9.133   6.339   7.203 -0.1017  0.4750  0.1665
  160MOL0     C21016   9.187   6.221   7.241  0.1687  0.1778  0.3564
  160MOL0     C21017   9.168   6.161   7.375 -0.3824 -1.0239 -0.0155
  160MOL0     O21018   9.199   6.027   7.384  0.7716 -0.3072 -0.3565
  160MOL0     C21019   9.209   5.973   7.513  0.7247 -0.5361  0.5627
  160MOL0     C21020   9.100   5.897   7.571  0.1651 -0.5872 -0.6278
  160MOL0     C21021   9.109   5.818   7.684  0.6070 -1.4142 -0.2344
  160MOL0     C21022   9.224   5.851   7.763  0.7675  0.2290 -0.4870
  160MOL0     O21023   9.245   5.818   7.891  1.1521 -0.1923  0.2756
  160MOL0     C21024   9.162   5.722   7.946 -0.6312  0.7779  0.4350
  160MOL0     C21025   9.176   5.715   8.093  0.8057  0.4001 -0.4454
  160MOL0     C21026   9.114   5.586   8.157 -0.7408 -0.1076 -0.0279
  160MOL0     C21027   9.120   5.584   8.310  0.4331  0.1579  0.3641
  160MOL0     C21028   9.096   5.431   8.357  0.3735 -1.1073  0.0417
  160MOL0     C21029   9.101   5.430   8.514 -0.0097 -0.1084  0.1386
  160MOL0     C21030   9.104   5.293   8.563 -0.9850  0.1743 -0.0212
  160MOL0     C21031   9.114   5.291   8.716 -0.3189  0.5877 -0.0352
  160MOL0    Cl21032   8.961   5.338   8.799  0.0772 -0.2243 -0.3001
  160MOL0     C21033   9.327   5.936   7.716 -0.1909  0.4251  0.2011
  160MOL0     C21034   9.325   5.988   7.585 -0.2634 -0.7668  0.2821
  160MOL0     O21035   9.115   6.239   7.459 -0.4812  0.3381  0.7417
  160MOL0     C21036   9.270   6.154   7.148 -0.5939  0.2220  0.3934
  160MOL0     C21037   9.306   6.212   7.030  0.4465 -0.3440  0.3631
  160MOL0     N21038   9.085   6.599   6.387 -0.3269 -0.2846 -0.1270
  160MOL0     N21039   9.021   6.612   6.275 -0.2115 -0.2948  0.6634
  160MOL0     C21040   8.596   7.211   5.198  0.6910  1.0304 -0.1267
  160MOL0     C21041   8.596   7.334   5.127 -0.0113  0.8846  0.5620
  160MOL0     C21042   8.606   7.655   4.810  1.0900  0.4921 -0.1082
  160MOL0     C21043   8.593   7.798   4.812  1.2557 -0.7067  0.3592
  160MOL0     C21044   8.586   7.871   4.690  0.3119  0.2894 -0.4937
  160MOL0     C21045   8.564   7.802   4.570  0.7604 -0.4556 -0.0367
  160MOL0     O21046   8.543   7.885   4.460 -0.3409 -0.5170  0.3537
  160MOL0     C21047   8.526   7.832   4.325  0.1104  0.4655  0.3090
  160MOL0     C21048   8.521   7.949   4.232 -0.8463 -0.3464 -0.7739
  160MOL0     C21049   8.499   7.906   4.098  0.4035  0.1180  0.0606
  160MOL0     C21050   8.522   8.033   4.010 -0.5171  0.3836 -0.8781
  160MOL0     C21051   8.488   8.006   3.874 -1.1528  0.5964  0.5248
  160MOL0     C21052   8.447   7.983   3.762  0.8158  0.5752  0.4812
  160MOL0     C21053   8.563   7.661   4.568 -0.2731  0.1921  0.2440
  160MOL0     C21054   8.593   7.590   4.683  0.4270 -0.2065 -0.5962
  160MOL0     H21055   8.829   7.253   4.896 -3.6588  2.3711 -1.1930
  160MOL0     H21056   8.810   7.033   4.989  1.9884  1.6633 -0.9277
  160MOL0     H21057   8.579   7.002   5.402 -1.3090 -2.1373 -2.1928
  160MOL0     H21058   8.744   7.076   5.371  3.4481 -1.9210  1.2689
  160MOL0     H21059   8.814   6.832   5.360 -2.1182 -1.0940 -2.3897
  160MOL0     H21060   8.648   6.794   5.398 -0.0285 -1.7484  2.2872
  160MOL0     H21061   8.649   6.870   5.618  1.0116 -1.2922 -0.5914
  160MOL0     H21062   8.764   6.998   5.579  0.0708  1.5831 -2.5378
  160MOL0     H21063   8.784   6.688   5.621 -1.1749  0.3712 -0.4011
  160MOL0     H21064   8.927   6.777   5.571 -1.6013 -1.5522 -2.5797
  160MOL0     H21065   8.787   6.858   5.828  0.1420  0.9706  1.4568
  160MOL0     H21066   8.958   6.889   5.763  1.3008 -1.8990 -0.8426
  160MOL0     H21067   9.007   6.656   5.764 -0.1249  0.4941 -1.0262
  160MOL0     H21068   8.862   6.613   5.832  3.9231 -4.1672  0.7238
  160MOL0     H21069   9.083   6.800   5.976 -0.1348  0.0075 -3.6111
  160MOL0     H21070   8.922   6.755   6.044 -2.5605 -0.5988 -2.6275
  160MOL0     H21071   9.156   6.572   5.970 -1.3928  0.1613 -2.0659
  160MOL0     H21072   8.999   6.524   6.019 -1.3442  1.4797  0.6305
  160MOL0     H21073   9.327   6.572   6.188  0.5104  0.2548  1.7309
  160MOL0     H21074   9.391   6.600   6.458 -1.4012  1.4835  0.3805
  160MOL0     H21075   9.373   6.430   6.456  1.1835  2.6098 -3.2455
  160MOL0     H21076   9.213   6.421   6.630  0.2103 -0.2986 -4.2935
  160MOL0     H21077   9.188   6.595   6.628 -0.7863  0.5772  0.9306
  160MOL0     H21078   9.465   6.491   6.708 -1.0813 -0.7928  0.3863
  160MOL0     H21079   9.410   6.650   6.705 -1.3621  0.8068  1.6363
  160MOL0     H21080   9.212   6.571   6.865 -0.8877 -1.6250  1.0115
  160MOL0     H21081   9.378   6.582   6.938  0.1424  0.5334  0.7155
  160MOL0     H21082   9.131   6.503   7.068  1.0112  0.2857 -0.1156
  160MOL0     H21083   9.073   6.411   7.258  1.4868  1.9715  0.0366
  160MOL0     H21084   9.003   5.889   7.523  0.0529 -5.9814 -0.1563
  160MOL0     H21085   9.032   5.745   7.706  0.0628 -0.6767  0.3621
  160MOL0     H21086   9.183   5.624   7.904 -1.0306  1.1322 -0.6351
  160MOL0     H21087   9.054   5.736   7.936 -1.4015 -1.3180  3.9199
  160MOL0     H21088   9.123   5.798   8.140  0.7905  0.1686 -0.0473
  160MOL0     H21089   9.282   5.711   8.116  1.3700  1.8069 -2.5202
  160MOL0     H21090   9.159   5.493   8.120 -0.3163 -0.5500  1.5134
  160MOL0     H21091   9.007   5.592   8.140 -0.4766  2.0004 -1.2528
  160MOL0     H21092   9.213   5.627   8.349  0.2053  2.2879 -1.2349
  160MOL0     H21093   9.035   5.641   8.349 -0.7684 -2.3145  1.5697
  160MOL0     H21094   9.181   5.378   8.313  0.8796  0.0508 -0.3926
  160MOL0     H21095   8.998   5.403   8.315 -0.5970  1.5864  0.3337
  160MOL0     H21096   9.013   5.471   8.564 -0.4450 -3.7241  2.8193
  160MOL0     H21097   9.185   5.495   8.541 -1.4053  1.2119  1.4727
  160MOL0     H21098   9.009   5.247   8.535 -0.1326  0.3467 -3.5518
  160MOL0     H21099   9.184   5.230   8.525  1.7479  3.2304  0.2345
  160MOL0     H21100   9.178   5.372   8.751 -0.1108  1.1988 -1.7271
  160MOL0     H21101   9.144   5.189   8.742 -0.4364  0.3946 -0.6392
  160MOL0     H21102   9.405   5.971   7.784 -1.0963  0.7939  1.0713
  160MOL0     H21103   9.418   6.028   7.544 -1.4184  0.7046 -1.0072
  160MOL0     H21104   9.324   6.064   7.175 -2.4333 -1.9977 -2.8017
  160MOL0     H21105   9.366   6.153   6.961  0.6129  0.4626 -0.1967
  160MOL0     H21106   8.533   7.189   5.283  1.4127 -1.1398 -0.0982
  160MOL0     H21107   8.550   7.421   5.173  1.9845  1.3705  1.7496
  160MOL0     H21108   8.611   7.848   4.906 -0.2598  0.8568 -0.1276
  160MOL0     H21109   8.587   7.979   4.684  2.0645  0.2380 -1.9466
  160MOL0     H21110   8.425   7.793   4.309  1.0087 -2.6586  1.3228
  160MOL0     H21111   8.600   7.754   4.304 -0.0434  1.0557 -2.9519
  160MOL0     H21112   8.448   8.025   4.262  2.9827  3.1824  0.5946
  160MOL0     H21113   8.621   7.994   4.227 -0.6337 -0.8413 -0.9726
  160MOL0     H21114   8.394   7.880   4.084  0.7259 -0.4141 -1.7831
  160MOL0     H21115   8.552   7.814   4.072  0.8456  0.2134  0.6026
  160MOL0     H21116   8.464   8.117   4.051  2.3474  1.2537  1.7470
  160MOL0     H21117   8.625   8.068   4.020 -0.1657 -1.0496  1.1969
  160MOL0     H21118   8.407   7.978   3.663  1.7673 -0.0754  0.1125
  160MOL0     H21119   8.551   7.595   4.482  2.0923  0.5202 -0.3907
  160MOL0     H21120   8.605   7.483   4.673 -1.9410 -0.4194 -1.7470
  161MOL0     O21121  11.410   0.288   9.710  0.1954  0.6120 -0.5072
  161MOL0     C21122  11.442   0.339   9.815 -0.6837 -0.2766  0.9417
  161MOL0     O21123  11.449   0.472   9.841 -0.4946  0.5893  0.4053
  161MOL0     C21124  11.407   0.571   9.750  0.9095 -0.1332  0.0951
  161MOL0     C21125  11.283   0.564   9.675  0.2683 -0.4896 -0.1237
  161MOL0     C21126  11.247   0.675   9.605 -0.1784 -0.5496  0.0992
  161MOL0     C21127  11.332   0.788   9.593 -0.6481  0.5782 -0.3629
  161MOL0     O21128  11.323   0.899   9.500  0.8582 -0.1360 -0.4476
  161MOL0     C21129  11.232   0.888   9.394  0.4570  0.6639 -0.3836
  161MOL0     C21130  11.267   1.011   9.312 -0.0667  0.0971  0.0825
  161MOL0     C21131  11.420   1.014   9.273 -0.8771 -0.4869  0.5474
  161MOL0     C21132  11.445   0.883   9.191  1.2160 -1.2702  0.1731
  161MOL0     C21133  11.551   0.779   9.261 -0.7730  0.4910 -0.0214
  161MOL0     C21134  11.521   0.634   9.228 -0.2360 -0.5485 -0.5894
  161MOL0     C21135  11.577   0.520   9.310 -0.0508 -0.4362 -0.4323
  161MOL0     C21136  11.705   0.547   9.361 -0.4997 -0.6210 -0.0117
  161MOL0     N21137  11.777   0.429   9.408  0.1387 -0.7112  0.5088
  161MOL0     C21138  11.739   0.352   9.515 -0.3485 -0.4923  0.8510
  161MOL0     C21139  11.835   0.256   9.529  1.1110 -0.4860  0.7326
  161MOL0     C21140  11.834   0.149   9.639 -0.5223  0.3302 -0.3959
  161MOL0     C21141  11.960   0.147   9.737  0.8884 -1.3461  0.5251
  161MOL0     C21142  12.093   0.197   9.676  0.5778  0.2800  0.3541
  161MOL0     C21143  12.148   0.089   9.580  0.2910 -0.4836  0.6617
  161MOL0     O21144  12.170  -0.043   9.644 -0.1923 -0.4693  0.4456
  161MOL0     C21145  12.251  -0.130   9.575  0.1827  0.0365 -0.5070
  161MOL0     C21146  12.348  -0.102   9.484 -0.4871  0.1154  0.1608
  161MOL0     C21147  12.442  -0.197   9.440  0.4580  0.3729  1.3488
  161MOL0     C21148  12.428  -0.333   9.477  0.2987 -0.5995 -1.0819
  161MOL0     C21149  12.534  -0.432   9.441 -0.2450  0.2073  0.0559
  161MOL0     O21150  12.644  -0.369   9.382  0.2581  0.1478  0.4061
  161MOL0     C21151  12.754  -0.443   9.351 -0.1671 -0.4320 -0.1280
  161MOL0     C21152  12.879  -0.419   9.408  0.4350 -0.9421 -0.2414
  161MOL0     C21153  12.991  -0.491   9.355 -0.7416  0.0561  1.0063
  161MOL0     C21154  12.987  -0.578   9.242  0.6999 -0.2698  0.0197
  161MOL0     O21155  13.083  -0.654   9.194 -0.1050  1.2541  0.0636
  161MOL0     C21156  13.216  -0.666   9.262 -0.5344  0.1143  0.6062
  161MOL0     C21157  13.313  -0.557   9.219  0.0776  0.1988  0.4736
  161MOL0     C21158  13.449  -0.572   9.283 -0.1561 -0.2660 -0.4157
  161MOL0     C21159  13.535  -0.455   9.246 -0.5134  0.1238 -0.2972
  161MOL0     C21160  13.668  -0.450   9.320 -1.0396  0.5717 -0.2582
  161MOL0     C21161  13.754  -0.342   9.268 -0.0513 -0.0704 -0.5053
  161MOL0     C21162  13.880  -0.365   9.336  0.0699 -0.1022  0.5058
  161MOL0     C21163  13.952  -0.230   9.370 -0.1443  0.1837 -0.8143
  161MOL0    Cl21164  14.109  -0.257   9.454  0.0052  0.1108  0.1404
  161MOL0     C21165  12.856  -0.606   9.194 -0.3412  0.0101  0.0422
  161MOL0     C21166  12.743  -0.542   9.246  0.6629 -0.8061  0.0738
  161MOL0     O21167  12.537  -0.544   9.478 -0.0225 -0.4458  0.0383
  161MOL0     C21168  12.335  -0.363   9.578  0.2631 -0.7379  0.6527
  161MOL0     C21169  12.237  -0.264   9.621 -0.0978 -0.1585 -0.1892
  161MOL0     N21170  11.926   0.270   9.424 -0.8024 -1.3237  0.1579
  161MOL0     N21171  11.897   0.384   9.366 -1.5596 -0.6549 -0.5912
  161MOL0     C21172  11.454   0.796   9.670  1.0520 -0.2485  0.1261
  161MOL0     C21173  11.484   0.690   9.755  0.2285  1.2269 -0.7878
  161MOL0     C21174  11.516   0.260   9.921 -0.0532  1.0958 -0.3707
  161MOL0     C21175  11.510   0.126   9.910 -0.8532  0.2899  0.3269
  161MOL0     C21176  11.587   0.041   9.987 -1.0602 -0.2782 -0.2565
  161MOL0     C21177  11.658   0.085  10.095 -0.3803  0.0113 -0.4957
  161MOL0     O21178  11.732   0.001  10.174  0.3320  0.6915  1.1967
  161MOL0     C21179  11.678  -0.138  10.179 -0.2604  0.2124  0.2056
  161MOL0     C21180  11.688  -0.196  10.318  0.9032 -0.0394 -0.6166
  161MOL0     C21181  11.631  -0.101  10.423  0.5902  0.1013 -0.2928
  161MOL0     C21182  11.745  -0.026  10.502  0.4535  0.3777 -0.6444
  161MOL0     C21183  11.686   0.101  10.551 -0.2445  0.4143  0.5232
  161MOL0     C21184  11.641   0.198  10.603  0.1163  0.6851 -0.5471
  161MOL0     C21185  11.670   0.223  10.115  0.1559 -0.5617  0.0493
  161MOL0     C21186  11.600   0.311  10.023  0.2383  0.3675 -0.1676
  161MOL0     H21187  11.226   0.472   9.664 -1.1258  0.3945 -0.6372
  161MOL0     H21188  11.156   0.682   9.547 -0.3544  0.7219  0.4882
  161MOL0     H21189  11.131   0.881   9.436  1.7214 -1.1075  2.7514
  161MOL0     H21190  11.242   0.789   9.348  1.1393  1.3967 -1.8973
  161MOL0     H21191  11.228   1.097   9.366  1.2292  0.1747  0.9639
  161MOL0     H21192  11.203   1.009   9.224 -2.3432  0.3953  1.6521
  161MOL0     H21193  11.493   1.005   9.354  0.5928  0.0937 -0.6729
  161MOL0     H21194  11.434   1.106   9.215 -1.1419 -1.8728 -1.8299
  161MOL0     H21195  11.351   0.831   9.168  0.8396  0.0881 -1.5372
  161MOL0     H21196  11.474   0.908   9.089  1.8390 -0.4016  0.5503
  161MOL0     H21197  11.541   0.784   9.370  1.3890 -0.8696  0.2922
  161MOL0     H21198  11.653   0.806   9.234 -0.9783  0.0566 -1.3110
  161MOL0     H21199  11.572   0.618   9.133 -2.9294 -0.5246 -2.1347
  161MOL0     H21200  11.412   0.624   9.227 -0.3307  0.3606 -1.0030
  161MOL0     H21201  11.511   0.510   9.396 -1.1041  0.1966 -1.1478
  161MOL0     H21202  11.584   0.424   9.257  1.8444 -0.3527 -0.3927
  161MOL0     H21203  11.695   0.622   9.440  0.2912  1.9557 -2.2099
  161MOL0     H21204  11.767   0.592   9.284 -1.7936 -1.9449 -1.9328
  161MOL0     H21205  11.648   0.370   9.571 -1.8098 -0.9156 -1.2728
  161MOL0     H21206  11.827   0.047   9.600  0.1779 -1.4228  3.5589
  161MOL0     H21207  11.741   0.149   9.698  0.9192  0.0919  2.0149
  161MOL0     H21208  11.984   0.049   9.779  2.4033 -1.1950  0.0858
  161MOL0     H21209  11.931   0.210   9.822 -1.7727  0.1113 -1.3509
  161MOL0     H21210  12.078   0.299   9.638  1.0935  0.8528  1.6024
  161MOL0     H21211  12.173   0.207   9.750  0.4454 -0.0105  0.5375
  161MOL0     H21212  12.244   0.127   9.542 -0.6078 -0.2922 -1.5329
  161MOL0     H21213  12.082   0.094   9.493  0.1798  2.1662  0.8151
  161MOL0     H21214  12.353  -0.001   9.445 -1.0437 -0.5861 -1.8343
  161MOL0     H21215  12.524  -0.155   9.382  0.6120  1.1178  2.0864
  161MOL0     H21216  12.874  -0.343   9.485 -1.9150 -0.5658 -0.6847
  161MOL0     H21217  13.090  -0.483   9.399  0.1375 -0.1921 -0.8312
  161MOL0     H21218  13.256  -0.762   9.228 -1.4553  0.3504 -1.2670
  161MOL0     H21219  13.212  -0.689   9.369  1.2573 -0.6997  0.5414
  161MOL0     H21220  13.262  -0.463   9.243 -0.4301  0.1893 -0.5123
  161MOL0     H21221  13.319  -0.567   9.110 -2.3359 -1.2682  0.4088
  161MOL0     H21222  13.498  -0.658   9.237  1.8288  1.0525 -0.8938
  161MOL0     H21223  13.436  -0.601   9.388 -1.9602  0.2721 -0.4502
  161MOL0     H21224  13.545  -0.456   9.137 -2.2433 -1.0789 -0.4908
  161MOL0     H21225  13.488  -0.364   9.284  2.2497  0.0902  3.7982
  161MOL0     H21226  13.717  -0.548   9.318 -1.4017  0.3931 -2.5659
  161MOL0     H21227  13.652  -0.436   9.427  1.8556 -0.8590  0.4492
  161MOL0     H21228  13.717  -0.242   9.291  0.7093  0.6270 -2.1061
  161MOL0     H21229  13.770  -0.366   9.162  0.5841  1.3543 -0.7513
  161MOL0     H21230  13.869  -0.411   9.434  1.2655  0.2793  0.8423
  161MOL0     H21231  13.944  -0.431   9.277  1.5582  0.9175  0.9063
  161MOL0     H21232  13.894  -0.164   9.434  3.3078  2.9280 -0.2024
  161MOL0     H21233  13.972  -0.176   9.277 -0.6777  1.3957 -0.2431
  161MOL0     H21234  12.846  -0.679   9.115 -0.8504 -0.8173  0.8575
  161MOL0     H21235  12.645  -0.563   9.205 -1.1518  1.1065  3.0482
  161MOL0     H21236  12.326  -0.457   9.633 -0.1030 -0.7914  0.4993
  161MOL0     H21237  12.166  -0.278   9.702  0.9053 -1.4342  0.5207
  161MOL0     H21238  11.520   0.881   9.657 -2.0372  2.3711  0.0047
  161MOL0     H21239  11.580   0.687   9.807 -0.9365 -0.6153  1.4782
  161MOL0     H21240  11.456   0.069   9.835  0.0954 -0.8537  0.4798
  161MOL0     H21241  11.588  -0.063   9.957  1.0449  0.4012 -2.9204
  161MOL0     H21242  11.719  -0.197  10.096  2.0622  2.2978 -0.2647
  161MOL0     H21243  11.570  -0.139  10.160 -0.1994 -6.7847 -2.5182
  161MOL0     H21244  11.625  -0.285  10.322 -2.9311  2.4612  0.2741
  161MOL0     H21245  11.791  -0.227  10.338  1.5170  0.7760 -2.2821
  161MOL0     H21246  11.575  -0.151  10.502  3.4524  0.1183  1.9106
  161MOL0     H21247  11.555  -0.039  10.375 -0.3298 -0.9534 -0.2400
  161MOL0     H21248  11.774  -0.092  10.584  1.3804  0.8857 -0.5576
  161MOL0     H21249  11.843  -0.017  10.454 -0.1685  2.8720 -1.5779
  161MOL0     H21250  11.605   0.281  10.660  3.1782  0.5876  1.7469
  161MOL0     H21251  11.719   0.262  10.204 -1.0438 -0.8354  0.8435
  161MOL0     H21252  11.616   0.416  10.046  0.4970 -0.3604  3.6674
  162MOL0     O21253   6.123   3.884   0.955  0.3590  0.5479 -0.3712
  162MOL0     C21254   6.189   3.792   1.002 -0.4033 -0.4777 -0.2238
  162MOL0     O21255   6.208   3.762   1.134  0.9293 -0.4015 -0.3095
  162MOL0     C21256   6.178   3.863   1.217  1.0567 -0.0031 -0.0464
  162MOL0     C21257   6.064   3.853   1.301 -0.3565 -0.2907  0.5120
  162MOL0     C21258   6.051   3.945   1.405 -0.1633 -0.1024 -0.4625
  162MOL0     C21259   6.142   4.050   1.427  0.7747  0.0121  0.1224
  162MOL0     O21260   6.113   4.144   1.524  0.1892  0.2241 -0.2890
  162MOL0     C21261   6.211   4.233   1.580 -0.4885  0.0222  0.3262
  162MOL0     C21262   6.129   4.340   1.651  0.4108 -0.2771 -0.7125
  162MOL0     C21263   6.218   4.427   1.742 -0.9474 -0.1422 -0.2671
  162MOL0     C21264   6.151   4.558   1.786  0.0633  0.1906 -1.3898
  162MOL0     C21265   6.021   4.541   1.877 -0.3298  0.0892 -0.1180
  162MOL0     C21266   6.042   4.460   2.009 -0.7314 -0.1984  0.9580
  162MOL0     C21267   6.130   4.539   2.107  0.5316 -0.2597  0.5898
  162MOL0     C21268   6.107   4.472   2.243 -0.3864 -0.3503 -1.5947
  162MOL0     N21269   6.137   4.328   2.253  0.6404 -0.3136 -0.0952
  162MOL0     C21270   6.229   4.259   2.178  0.4092 -0.7847 -0.2183
  162MOL0     C21271   6.198   4.134   2.176 -0.5529 -0.6976 -0.7601
  162MOL0     C21272   6.263   4.028   2.103  0.8026 -0.4627 -0.2211
  162MOL0     C21273   6.228   4.048   1.946 -0.4727  0.7669  0.3987
  162MOL0     C21274   6.094   3.989   1.896  0.0403 -1.0091 -0.1564
  162MOL0     C21275   6.089   3.842   1.915  0.3612  0.0463 -0.7819
  162MOL0     O21276   5.957   3.803   1.856 -0.3661  0.2449  0.7082
  162MOL0     C21277   5.965   3.724   1.744 -1.4819  0.2962  0.9778
  162MOL0     C21278   6.075   3.711   1.661 -0.5927  0.8281 -0.4640
  162MOL0     C21279   6.083   3.622   1.557 -0.3461  0.3221 -0.7143
  162MOL0     C21280   5.973   3.544   1.516  0.4464  0.3359 -0.0039
  162MOL0     C21281   5.988   3.447   1.411  1.2117  0.1098  0.0270
  162MOL0     O21282   6.091   3.460   1.327  0.1621  0.2930 -0.0291
  162MOL0     C21283   6.098   3.371   1.228  0.6212 -0.4819  0.6541
  162MOL0     C21284   6.152   3.246   1.242  0.1300  0.1018  0.0811
  162MOL0     C21285   6.136   3.147   1.149  0.0619 -0.4416  0.0618
  162MOL0     C21286   6.089   3.183   1.021  0.1902 -0.5787 -0.0917
  162MOL0     O21287   6.073   3.073   0.942  0.9863  0.0157  0.4524
  162MOL0     C21288   6.067   3.082   0.802 -0.2835  0.4515  0.4646
  162MOL0     C21289   6.083   2.942   0.749  0.6592  0.0262 -0.0046
  162MOL0     C21290   6.025   2.914   0.615 -0.8551 -0.4622 -0.3213
  162MOL0     C21291   6.101   2.980   0.500  0.0588 -0.2428 -0.0262
  162MOL0     C21292   6.001   3.007   0.384 -1.1899 -0.1197 -0.0246
  162MOL0     C21293   6.073   3.045   0.250  0.2937 -0.0806 -0.7211
  162MOL0     C21294   5.974   3.080   0.144  0.6414  0.4780  1.0084
  162MOL0     C21295   5.933   3.224   0.149  0.2617  0.5887  1.0814
  162MOL0    Cl21296   6.083   3.307   0.090 -0.3872 -0.1579  0.0466
  162MOL0     C21297   6.028   3.307   1.005  0.2611  0.8581  0.1509
  162MOL0     C21298   6.027   3.402   1.105  0.1095 -0.9911 -0.2523
  162MOL0     O21299   5.895   3.362   1.396  0.3261  0.3747 -0.3700
  162MOL0     C21300   5.856   3.560   1.595  0.0475  0.4852  1.1191
  162MOL0     C21301   5.858   3.642   1.709 -0.2651 -0.9207 -0.2346
  162MOL0     N21302   6.087   4.119   2.255  0.2974 -0.7905 -0.6658
  162MOL0     N21303   6.049   4.234   2.302 -1.4308 -0.2836  0.3678
  162MOL0     C21304   6.255   4.055   1.344  0.6600  0.5863  0.3795
  162MOL0     C21305   6.267   3.960   1.246 -0.6062 -0.3309  0.8982
  162MOL0     C21306   6.237   3.689   0.909  0.1195  0.1940 -0.3213
  162MOL0     C21307   6.314   3.582   0.961 -0.1549  0.7563 -0.7711
  162MOL0     C21308   6.352   3.474   0.880  0.0593 -0.0515  0.8401
  162MOL0     C21309   6.350   3.478   0.747  0.4680 -1.2202 -0.7331
  162MOL0     O21310   6.422   3.380   0.675  0.4308 -0.0106 -0.8593
  162MOL0     C21311   6.375   3.349   0.539  0.0565 -0.0063  0.0356
  162MOL0     C21312   6.487   3.383   0.438 -0.6163  0.1257 -0.3549
  162MOL0     C21313   6.444   3.331   0.295  0.7470 -0.4890  0.1008
  162MOL0     C21314   6.554   3.289   0.202  0.6152 -0.1997 -0.6329
  162MOL0     C21315   6.624   3.169   0.252 -0.8429  0.5647 -0.0290
  162MOL0     C21316   6.694   3.080   0.298  0.2043 -0.0491  0.3606
  162MOL0     C21317   6.274   3.584   0.694 -0.7082 -0.7760  0.2370
  162MOL0     C21318   6.208   3.681   0.777 -1.0302 -0.3104  0.3223
  162MOL0     H21319   5.986   3.781   1.277 -2.8310  2.8605 -1.8765
  162MOL0     H21320   5.967   3.924   1.470  0.7080  2.9289  1.8607
  162MOL0     H21321   6.278   4.272   1.502 -0.9587  1.7476  0.7399
  162MOL0     H21322   6.272   4.180   1.653 -1.6557 -0.9830  0.6011
  162MOL0     H21323   6.056   4.290   1.715 -0.2110  1.0466 -0.3605
  162MOL0     H21324   6.082   4.409   1.580 -0.1294  2.1644  1.8706
  162MOL0     H21325   6.307   4.462   1.690 -1.3823 -0.6851 -1.4073
  162MOL0     H21326   6.258   4.366   1.824  1.5900  2.4416  0.5680
  162MOL0     H21327   6.217   4.620   1.848 -1.3784 -0.1647  0.5727
  162MOL0     H21328   6.132   4.621   1.698  1.3777  1.3391 -0.8805
  162MOL0     H21329   5.942   4.489   1.823  0.6608 -0.2630 -1.2839
  162MOL0     H21330   5.984   4.639   1.909 -0.7135 -0.0183 -0.2347
  162MOL0     H21331   6.086   4.362   1.986  0.0119 -0.6554  3.9100
  162MOL0     H21332   5.940   4.439   2.042 -1.4566  1.5663 -0.0840
  162MOL0     H21333   6.234   4.537   2.073  0.0856 -0.0606 -0.8341
  162MOL0     H21334   6.093   4.642   2.101 -0.9978 -0.8696 -3.4979
  162MOL0     H21335   6.003   4.489   2.273  0.4636 -1.6404  2.8515
  162MOL0     H21336   6.166   4.532   2.313 -1.5453  1.4844 -2.1033
  162MOL0     H21337   6.309   4.311   2.127 -0.8281 -2.0813 -3.7789
  162MOL0     H21338   6.212   3.937   2.135  1.1614 -1.4921 -2.3511
  162MOL0     H21339   6.368   4.002   2.119  1.2530  1.5101  0.2959
  162MOL0     H21340   6.310   4.002   1.889  2.5053  1.6608  3.5900
  162MOL0     H21341   6.219   4.152   1.913 -0.4315  0.4793 -0.5624
  162MOL0     H21342   6.014   4.031   1.958  0.4614 -0.4794  0.0438
  162MOL0     H21343   6.068   4.021   1.795 -0.5499 -0.6569  0.0983
  162MOL0     H21344   6.079   3.816   2.021 -0.2089  0.6554 -0.6799
  162MOL0     H21345   6.184   3.796   1.889  0.5327  0.6892 -1.3055
  162MOL0     H21346   6.170   3.749   1.698 -0.4788 -1.5118  1.9415
  162MOL0     H21347   6.180   3.598   1.514 -0.1048  0.4500 -0.2470
  162MOL0     H21348   6.202   3.225   1.337 -1.5545 -1.0141  0.7692
  162MOL0     H21349   6.151   3.043   1.177  2.4677  0.4196  2.4442
  162MOL0     H21350   6.149   3.142   0.762 -0.1914 -0.2844 -0.4654
  162MOL0     H21351   5.975   3.130   0.768 -1.1944 -2.8212 -2.2002
  162MOL0     H21352   6.020   2.880   0.814 -0.6875  1.1142 -0.2379
  162MOL0     H21353   6.187   2.907   0.753  0.6500  0.1226  2.0738
  162MOL0     H21354   5.918   2.936   0.614 -1.3769 -2.8030 -0.5440
  162MOL0     H21355   6.021   2.806   0.599 -0.1278 -0.7783  1.3845
  162MOL0     H21356   6.148   3.072   0.538  2.2384 -2.3597  2.8516
  162MOL0     H21357   6.186   2.922   0.464  2.9442  1.9612  2.6571
  162MOL0     H21358   5.939   3.090   0.420  1.0155  0.9285  1.5601
  162MOL0     H21359   5.944   2.918   0.357 -2.5853  1.0170 -1.0434
  162MOL0     H21360   6.131   2.957   0.223  4.8378  0.8594  4.1703
  162MOL0     H21361   6.143   3.129   0.259 -0.0687  0.2043 -0.5332
  162MOL0     H21362   6.032   3.080   0.051 -1.1037 -0.5076 -0.1431
  162MOL0     H21363   5.886   3.015   0.134  1.5305 -0.4696 -2.0019
  162MOL0     H21364   5.892   3.258   0.245 -1.3247  0.4640  0.4699
  162MOL0     H21365   5.844   3.235   0.087  0.1795 -0.3746  1.0082
  162MOL0     H21366   5.969   3.306   0.914  0.1057 -1.0049  0.2250
  162MOL0     H21367   5.988   3.503   1.105 -0.1250 -1.0034 -2.9886
  162MOL0     H21368   5.773   3.493   1.579 -0.6805  0.7217  3.4709
  162MOL0     H21369   5.764   3.659   1.760  0.4419  1.5168  0.4192
  162MOL0     H21370   6.338   4.124   1.353  2.1069 -1.2960  4.1554
  162MOL0     H21371   6.371   3.952   1.214 -0.5143 -2.8572  1.5421
  162MOL0     H21372   6.334   3.566   1.066  0.0666 -2.1712 -1.1678
  162MOL0     H21373   6.414   3.399   0.929  2.3029  1.5599  0.6408
  162MOL0     H21374   6.275   3.388   0.518  0.0917  1.5753  2.3861
  162MOL0     H21375   6.359   3.241   0.542  0.0099 -0.0082 -0.2207
  162MOL0     H21376   6.498   3.492   0.437  1.2208 -0.0363 -0.7301
  162MOL0     H21377   6.587   3.356   0.473  0.9613  4.2421 -1.1147
  162MOL0     H21378   6.381   3.415   0.264 -0.5068 -1.9776 -1.5452
  162MOL0     H21379   6.377   3.245   0.300  1.2769 -0.8822  0.6037
  162MOL0     H21380   6.510   3.275   0.103 -1.2552  1.2769 -0.0881
  162MOL0     H21381   6.627   3.370   0.187  0.3777  0.0817 -0.3014
  162MOL0     H21382   6.761   3.013   0.347 -0.1733 -0.8336 -0.1857
  162MOL0     H21383   6.256   3.588   0.587 -0.1271 -2.9932  0.0063
  162MOL0     H21384   6.155   3.766   0.736 -2.9399 -0.2065  2.8039
  163MOL0     O21385  11.334  10.240  11.046  0.3751  0.1883 -0.1382
  163MOL0     C21386  11.357  10.347  10.990  0.6976  0.1585  0.2066
  163MOL0     O21387  11.353  10.358  10.855 -0.0073 -0.8629  0.5075
  163MOL0     C21388  11.318  10.241  10.778  0.3622 -0.4055  0.0366
  163MOL0     C21389  11.388  10.124  10.781  0.6996 -0.0284 -0.0907
  163MOL0     C21390  11.348  10.015  10.709  0.4829  0.7910 -0.3564
  163MOL0     C21391  11.238  10.025  10.618 -0.4413 -0.5648 -0.2522
  163MOL0     O21392  11.217   9.914  10.534 -0.5331 -0.1220  0.8692
  163MOL0     C21393  11.137   9.917  10.410  0.2722  0.3671  0.1275
  163MOL0     C21394  11.214   9.893  10.274  0.9145  0.4881 -0.7828
  163MOL0     C21395  11.286   9.758  10.292  0.4778  0.5318  0.6758
  163MOL0     C21396  11.336   9.710  10.149 -0.6535  0.3489  0.1389
  163MOL0     C21397  11.345   9.550  10.153 -1.1315 -0.1718 -0.1261
  163MOL0     C21398  11.424   9.495  10.263  0.0438  0.6490 -0.1065
  163MOL0     C21399  11.478   9.348  10.231 -0.2611  0.6928 -0.4425
  163MOL0     C21400  11.363   9.245  10.249  0.4187  0.2003  0.2852
  163MOL0     N21401  11.372   9.110  10.189  0.4459 -0.7946 -0.0335
  163MOL0     C21402  11.486   9.050  10.148  0.1021 -0.8045  0.0358
  163MOL0     C21403  11.447   8.947  10.067  0.2707  0.4596 -0.0816
  163MOL0     C21404  11.524   8.836  10.018  0.8155  0.3576  0.3301
  163MOL0     C21405  11.479   8.705  10.090 -0.0476  0.5592  0.0274
  163MOL0     C21406  11.575   8.682  10.208 -0.1435 -0.6354 -0.1597
  163MOL0     C21407  11.661   8.556  10.182 -0.4114  0.4267 -1.4923
  163MOL0     O21408  11.587   8.432  10.211 -0.1870  0.2895 -0.2762
  163MOL0     C21409  11.647   8.361  10.311  0.4710 -0.9738 -0.6981
  163MOL0     C21410  11.696   8.237  10.277  0.0185 -0.2212  0.2468
  163MOL0     C21411  11.783   8.158  10.351  0.1823  0.8531 -0.5234
  163MOL0     C21412  11.822   8.214  10.474 -0.7667  0.4157 -0.4139
  163MOL0     C21413  11.945   8.144  10.540  0.7737 -0.6894  1.2201
  163MOL0     O21414  12.007   8.044  10.474 -0.0724 -0.6803  0.5511
  163MOL0     C21415  12.121   7.996  10.524  1.4205  1.1472  0.1217
  163MOL0     C21416  12.236   8.040  10.463 -0.7221 -0.6803 -0.4090
  163MOL0     C21417  12.365   8.000  10.503 -0.6505  0.9095  0.1557
  163MOL0     C21418  12.375   7.903  10.608 -0.7305 -0.5700 -0.2432
  163MOL0     O21419  12.512   7.891  10.643 -1.2759  0.1460  0.0772
  163MOL0     C21420  12.560   7.811  10.753  0.4561 -0.2199 -0.2256
  163MOL0     C21421  12.609   7.687  10.694 -0.4472 -0.6440  0.0934
  163MOL0     C21422  12.694   7.609  10.796 -0.3308  0.7238 -0.3553
  163MOL0     C21423  12.605   7.569  10.913  0.1255 -0.4086 -0.2625
  163MOL0     C21424  12.690   7.496  11.024 -0.1794 -0.1922 -0.5172
  163MOL0     C21425  12.597   7.407  11.110 -0.1877  0.2075 -0.8010
  163MOL0     C21426  12.675   7.327  11.208 -0.7879  0.0318  0.2694
  163MOL0     C21427  12.580   7.241  11.288 -0.8799  0.3013  0.2778
  163MOL0    Cl21428  12.694   7.176  11.422  0.1736 -0.3763  0.1272
  163MOL0     C21429  12.262   7.855  10.673  1.1174 -0.2868 -0.1974
  163MOL0     C21430  12.130   7.894  10.623 -0.4819 -0.1135 -0.1083
  163MOL0     O21431  11.980   8.192  10.643 -0.9806 -0.5408  0.5306
  163MOL0     C21432  11.765   8.327  10.519 -0.4937  0.4220  0.0799
  163MOL0     C21433  11.672   8.400  10.439 -0.9789  0.2209 -0.4813
  163MOL0     N21434  11.313   8.953  10.057  0.4654 -0.6238  0.2599
  163MOL0     N21435  11.267   9.053  10.117  0.7435 -0.4398  0.0008
  163MOL0     C21436  11.167  10.147  10.614 -0.6030  0.0214  0.4217
  163MOL0     C21437  11.208  10.253  10.691 -1.0103 -0.0030 -0.2473
  163MOL0     C21438  11.410  10.476  11.061 -0.3527  0.8017 -0.1689
  163MOL0     C21439  11.430  10.484  11.204 -0.0631  0.6813  0.3428
  163MOL0     C21440  11.479  10.602  11.270 -0.7685  0.0987  0.7910
  163MOL0     C21441  11.520  10.709  11.191 -0.1289 -0.3607 -0.3328
  163MOL0     O21442  11.571  10.821  11.239  0.5652  0.3820 -0.2596
  163MOL0     C21443  11.619  10.813  11.371 -1.2497  0.1670 -0.0325
  163MOL0     C21444  11.714  10.934  11.400  0.9745 -0.1900  0.3775
  163MOL0     C21445  11.640  11.065  11.393  0.0314 -0.5108 -0.2092
  163MOL0     C21446  11.687  11.149  11.265 -0.0464  0.6974 -0.3411
  163MOL0     C21447  11.836  11.175  11.255 -0.1871  0.0809  0.2627
  163MOL0     C21448  11.956  11.197  11.266 -0.3138  0.4495  0.8419
  163MOL0     C21449  11.514  10.697  11.049  0.1187 -0.5963 -0.7192
  163MOL0     C21450  11.460  10.586  10.991  0.0703 -0.2320 -0.4095
  163MOL0     H21451  11.478  10.117  10.841  1.6824 -1.5198 -1.6461
  163MOL0     H21452  11.413   9.929  10.702 -1.7670 -1.1727  1.5301
  163MOL0     H21453  11.084  10.011  10.388 -1.4570 -0.2030  1.6578
  163MOL0     H21454  11.055   9.849  10.431  0.8366 -0.4721 -0.3528
  163MOL0     H21455  11.286   9.973  10.259  0.6366  0.6402 -1.3486
  163MOL0     H21456  11.136   9.889  10.197 -1.5313  1.9795  1.4285
  163MOL0     H21457  11.219   9.693  10.350 -3.7640  1.7341 -2.4133
  163MOL0     H21458  11.369   9.787  10.356 -0.2718  2.7781  0.7141
  163MOL0     H21459  11.269   9.741  10.068 -2.5976 -0.9536  1.1719
  163MOL0     H21460  11.431   9.751  10.112 -0.6137 -0.7061 -0.9900
  163MOL0     H21461  11.398   9.521  10.062  0.4477  1.9668  0.0345
  163MOL0     H21462  11.249   9.497  10.149  0.4373 -3.1828 -1.1546
  163MOL0     H21463  11.373   9.498  10.359  0.4147 -1.8453  0.2168
  163MOL0     H21464  11.503   9.569  10.280  0.2708  0.2253  0.7206
  163MOL0     H21465  11.517   9.355  10.129 -0.9031  2.1194 -0.6224
  163MOL0     H21466  11.546   9.327  10.314 -5.1384  2.5808  4.6963
  163MOL0     H21467  11.270   9.286  10.210 -0.6082  0.6834  3.0015
  163MOL0     H21468  11.349   9.249  10.358  0.8986 -1.4017  0.4379
  163MOL0     H21469  11.583   9.084  10.184  0.3914 -1.3999 -0.1644
  163MOL0     H21470  11.632   8.851  10.029  0.9272  2.1140 -2.0663
  163MOL0     H21471  11.503   8.833   9.910  0.7597  0.7949  0.3264
  163MOL0     H21472  11.476   8.623  10.018  3.8454  0.1758  0.0724
  163MOL0     H21473  11.380   8.706  10.137  0.8147  0.5111  1.9317
  163MOL0     H21474  11.637   8.772  10.220 -1.6747  0.1514  3.0110
  163MOL0     H21475  11.527   8.675  10.305  2.5219  0.0411  1.3201
  163MOL0     H21476  11.747   8.581  10.245 -2.2627  2.1435  0.5583
  163MOL0     H21477  11.703   8.556  10.081  2.2896 -0.0246 -0.4386
  163MOL0     H21478  11.666   8.179  10.191  1.0901 -1.5304  0.7377
  163MOL0     H21479  11.826   8.067  10.310  1.5244  1.6780 -0.9842
  163MOL0     H21480  12.232   8.108  10.378  2.3416  1.0494  0.6629
  163MOL0     H21481  12.460   8.030  10.460  0.2146  0.1725  1.4641
  163MOL0     H21482  12.473   7.794  10.816  0.8586 -2.7024 -0.2295
  163MOL0     H21483  12.648   7.838  10.812 -0.1285 -2.2557  1.7306
  163MOL0     H21484  12.678   7.714  10.614  0.4745 -2.3325  0.2814
  163MOL0     H21485  12.533   7.621  10.651  1.2191 -1.8577 -1.1487
  163MOL0     H21486  12.773   7.678  10.825  0.4172 -0.9780  1.9286
  163MOL0     H21487  12.742   7.524  10.746  1.4543  1.7359 -0.4536
  163MOL0     H21488  12.559   7.655  10.962  0.8009 -0.9318  1.3597
  163MOL0     H21489  12.534   7.492  10.882  0.7970 -1.2127  0.1385
  163MOL0     H21490  12.745   7.570  11.083  0.1234 -0.5810 -0.3078
  163MOL0     H21491  12.757   7.424  10.976  1.9849 -0.6407  2.8817
  163MOL0     H21492  12.535   7.345  11.045  1.6530 -1.6107 -0.9466
  163MOL0     H21493  12.518   7.470  11.151  0.0581 -1.0519  1.8434
  163MOL0     H21494  12.744   7.264  11.152  1.0626  2.2332 -0.0635
  163MOL0     H21495  12.728   7.394  11.276 -1.1806  1.9162 -1.1850
  163MOL0     H21496  12.533   7.160  11.233 -3.6791  1.6391  0.5596
  163MOL0     H21497  12.503   7.309  11.327  0.1663  2.4877 -1.2388
  163MOL0     H21498  12.278   7.779  10.748  1.1060  1.3885  1.5897
  163MOL0     H21499  12.037   7.873  10.674 -0.9106  1.3521 -0.2468
  163MOL0     H21500  11.793   8.369  10.615 -1.2391  2.3373 -0.4823
  163MOL0     H21501  11.618   8.488  10.472 -2.8402 -0.3057 -1.9207
  163MOL0     H21502  11.081  10.159  10.548  1.5927 -0.9567 -2.8858
  163MOL0     H21503  11.159  10.349  10.685  0.2335  0.6014 -1.2727
  163MOL0     H21504  11.371  10.403  11.245  1.0386 -0.8056 -0.9123
  163MOL0     H21505  11.487  10.601  11.379  4.4886  1.1798  0.6917
  163MOL0     H21506  11.681  10.723  11.380 -0.1370  1.0229  1.2658
  163MOL0     H21507  11.536  10.815  11.443 -0.0772  1.0708  1.3438
  163MOL0     H21508  11.765  10.927  11.496  0.1701  1.8387  1.0090
  163MOL0     H21509  11.793  10.933  11.325  1.7139 -1.2339  1.1524
  163MOL0     H21510  11.667  11.124  11.481 -1.7460 -0.3614  0.2856
  163MOL0     H21511  11.531  11.059  11.399 -0.0279 -0.1020 -0.8174
  163MOL0     H21512  11.646  11.092  11.181 -2.5016 -1.4265  2.0919
  163MOL0     H21513  11.646  11.250  11.268 -0.3931  0.5540 -0.2523
  163MOL0     H21514  12.060  11.212  11.285 -0.2150 -0.3667  0.9860
  163MOL0     H21515  11.570  10.774  10.996  4.3195 -2.5719  0.4349
  163MOL0     H21516  11.473  10.598  10.884 -0.4773  1.2733 -0.3266
  164MOL0     O21517   1.692   7.330   7.080 -0.3144  0.3127  0.2315
  164MOL0     C21518   1.812   7.327   7.061 -0.1027  0.1263 -0.0952
  164MOL0     O21519   1.907   7.275   7.147  0.2991  0.7854 -0.7196
  164MOL0     C21520   1.880   7.272   7.287  0.0645 -0.6213 -0.5361
  164MOL0     C21521   1.941   7.177   7.376 -0.4437  0.0538 -0.5254
  164MOL0     C21522   1.922   7.186   7.512  0.4099  0.1339 -0.0791
  164MOL0     C21523   1.846   7.287   7.572  0.4596  0.7978 -0.0053
  164MOL0     O21524   1.818   7.291   7.708  0.0754  0.9058 -0.1101
  164MOL0     C21525   1.774   7.164   7.761 -1.2533 -0.5187  0.0940
  164MOL0     C21526   1.878   7.095   7.840 -0.1665  0.2292 -0.0420
  164MOL0     C21527   1.809   7.044   7.967 -0.4461  0.0838  1.3875
  164MOL0     C21528   1.773   7.143   8.084  0.0739  0.1694  0.4733
  164MOL0     C21529   1.881   7.235   8.113 -0.5635 -0.1871  0.4488
  164MOL0     C21530   1.852   7.322   8.231 -0.0195 -0.4162  0.9674
  164MOL0     C21531   1.729   7.417   8.220  0.5078 -0.2521  0.0989
  164MOL0     C21532   1.756   7.553   8.289  0.4142 -0.0484 -0.3631
  164MOL0     N21533   1.881   7.609   8.241  0.1935 -0.0494  0.0826
  164MOL0     C21534   1.888   7.656   8.113 -0.4857  0.0439  0.0012
  164MOL0     C21535   2.027   7.665   8.088  0.1863  0.3202  0.1898
  164MOL0     C21536   2.086   7.724   7.964 -0.3266 -0.7208  0.2689
  164MOL0     C21537   2.071   7.658   7.828 -0.3199  0.2747  0.7991
  164MOL0     C21538   2.117   7.510   7.825 -0.4991  0.7087  1.0439
  164MOL0     C21539   2.160   7.446   7.692  0.2450 -0.5530  0.4195
  164MOL0     O21540   2.178   7.543   7.595 -0.3771  0.5895  0.1322
  164MOL0     C21541   2.229   7.512   7.470  0.0426  0.8998 -0.0415
  164MOL0     C21542   2.216   7.385   7.415 -0.4916 -0.5594  0.1822
  164MOL0     C21543   2.273   7.344   7.290 -0.3141  0.0895 -1.2961
  164MOL0     C21544   2.343   7.435   7.212  1.1039  0.1555  0.5473
  164MOL0     C21545   2.382   7.396   7.078  0.0896  0.1718 -0.2321
  164MOL0     O21546   2.376   7.267   7.040  0.0464 -0.3683  0.9745
  164MOL0     C21547   2.421   7.239   6.909  0.3796 -0.1356 -0.0608
  164MOL0     C21548   2.335   7.186   6.814  0.3062 -0.2146  1.2761
  164MOL0     C21549   2.379   7.155   6.682 -0.0645  0.7478  0.3925
  164MOL0     C21550   2.518   7.193   6.650  0.1619  0.6968 -0.4667
  164MOL0     O21551   2.579   7.174   6.532 -0.8324  0.1866  0.2080
  164MOL0     C21552   2.528   7.073   6.442  0.4873 -0.1505  0.5310
  164MOL0     C21553   2.634   7.023   6.346 -0.2268 -1.2420 -0.1370
  164MOL0     C21554   2.577   6.976   6.215  0.3737  0.3316  0.5440
  164MOL0     C21555   2.647   7.040   6.094 -0.1455 -1.2094  0.4859
  164MOL0     C21556   2.578   7.167   6.047 -0.8189  0.1972  0.1020
  164MOL0     C21557   2.651   7.228   5.937 -0.2232  0.6899  0.9490
  164MOL0     C21558   2.595   7.359   5.878  0.3237  0.4468 -0.1695
  164MOL0     C21559   2.458   7.346   5.826 -0.1577 -0.3617  0.5336
  164MOL0    Cl21560   2.439   7.488   5.721 -0.0209 -0.2640  0.4196
  164MOL0     C21561   2.594   7.248   6.749 -0.0805 -0.2519 -0.2184
  164MOL0     C21562   2.548   7.268   6.876  0.6795  0.1781  0.5142
  164MOL0     O21563   2.413   7.492   6.998  0.0579  0.9092 -0.3161
  164MOL0     C21564   2.353   7.565   7.267 -0.4560  0.4216  0.7700
  164MOL0     C21565   2.299   7.605   7.392  0.3132  0.7043  0.1684
  164MOL0     N21566   2.093   7.623   8.197 -0.5314  0.4019  0.5051
  164MOL0     N21567   2.008   7.582   8.290  0.0076 -0.4348 -0.2520
  164MOL0     C21568   1.794   7.385   7.488 -0.5013 -0.1308  0.3137
  164MOL0     C21569   1.808   7.377   7.350 -0.9332 -0.3530 -0.8297
  164MOL0     C21570   1.872   7.386   6.943 -0.3757  0.1719  1.1604
  164MOL0     C21571   2.011   7.412   6.929 -0.7514 -0.4765  0.2212
  164MOL0     C21572   2.074   7.457   6.811  0.7275  0.4343  0.3069
  164MOL0     C21573   1.985   7.491   6.705  0.0915  1.0001 -1.3690
  164MOL0     O21574   2.048   7.550   6.602 -0.4856  0.2405 -0.1355
  164MOL0     C21575   1.978   7.648   6.519 -1.2262 -1.0192  0.0537
  164MOL0     C21576   2.072   7.736   6.438  0.3917 -0.0478 -0.0812
  164MOL0     C21577   2.162   7.824   6.514  0.6180 -0.5664  0.3199
  164MOL0     C21578   2.097   7.939   6.598  0.2437  0.6203  0.4297
  164MOL0     C21579   2.053   8.043   6.517  0.1938  0.0135  0.9213
  164MOL0     C21580   1.991   8.112   6.440 -0.8241  0.8117 -0.3059
  164MOL0     C21581   1.851   7.479   6.715  0.5796 -0.5276  0.0084
  164MOL0     C21582   1.789   7.424   6.831 -0.4379 -0.0578  1.0921
  164MOL0     H21583   2.001   7.095   7.338 -1.8632 -2.1520  1.7431
  164MOL0     H21584   1.981   7.126   7.579  3.9737  2.3926 -0.8947
  164MOL0     H21585   1.745   7.091   7.686  0.9084 -1.0618 -0.3021
  164MOL0     H21586   1.685   7.180   7.822 -4.4709  0.6568 -4.4093
  164MOL0     H21587   1.966   7.155   7.862  1.4225 -1.6583 -0.9480
  164MOL0     H21588   1.912   7.014   7.775 -1.5141 -2.9560  2.9138
  164MOL0     H21589   1.883   6.975   8.010 -0.4949  1.2792  3.5139
  164MOL0     H21590   1.715   6.991   7.944 -1.6195  3.2655 -2.0820
  164MOL0     H21591   1.681   7.198   8.061 -0.4279 -1.5364 -1.9564
  164MOL0     H21592   1.747   7.084   8.173  2.4286 -0.4467  0.8113
  164MOL0     H21593   1.910   7.298   8.029 -0.6246  0.4028  0.8606
  164MOL0     H21594   1.971   7.180   8.141 -0.3828  0.5619  1.4057
  164MOL0     H21595   1.949   7.356   8.269  1.8151 -3.1026 -0.9593
  164MOL0     H21596   1.818   7.257   8.313  0.3390  1.9512  3.1132
  164MOL0     H21597   1.705   7.433   8.115 -1.9976 -2.5303  0.2262
  164MOL0     H21598   1.643   7.371   8.269  0.2598  1.6750  1.6051
  164MOL0     H21599   1.757   7.540   8.398  2.8431 -0.5572 -0.3951
  164MOL0     H21600   1.672   7.622   8.272 -2.4654 -1.9241  4.2877
  164MOL0     H21601   1.806   7.708   8.065  1.0878  1.7744 -0.9990
  164MOL0     H21602   2.193   7.737   7.979  0.2176  1.9573 -4.1106
  164MOL0     H21603   2.036   7.819   7.942 -0.1777 -0.7772 -0.3403
  164MOL0     H21604   2.134   7.720   7.763  0.7952 -1.0457  0.5634
  164MOL0     H21605   1.968   7.663   7.793  0.2417 -0.7363 -1.1564
  164MOL0     H21606   2.200   7.499   7.895  1.1528  0.9474 -0.7986
  164MOL0     H21607   2.023   7.467   7.860 -2.1293  2.3562 -1.0602
  164MOL0     H21608   2.094   7.363   7.666 -1.9880  1.2253  0.0444
  164MOL0     H21609   2.252   7.399   7.729 -1.3507 -1.7859  3.1327
  164MOL0     H21610   2.158   7.317   7.476 -2.7136 -0.9723 -2.2296
  164MOL0     H21611   2.258   7.245   7.247  1.1348 -1.3161  1.1949
  164MOL0     H21612   2.229   7.164   6.812  0.1182  0.6520 -0.5627
  164MOL0     H21613   2.323   7.100   6.606  1.4975 -0.9640  0.3997
  164MOL0     H21614   2.439   7.109   6.390  2.1920 -1.7497 -4.0776
  164MOL0     H21615   2.497   6.988   6.504  3.4671  1.9693  5.5486
  164MOL0     H21616   2.691   6.946   6.399 -2.7495 -1.7569  2.0486
  164MOL0     H21617   2.698   7.111   6.336 -0.5410 -0.4988  3.1838
  164MOL0     H21618   2.470   6.976   6.193  0.8024 -0.5836 -1.8588
  164MOL0     H21619   2.612   6.872   6.217  0.0826  0.2532  1.9871
  164MOL0     H21620   2.755   7.038   6.110  0.0259 -3.4580 -0.4575
  164MOL0     H21621   2.618   6.978   6.008  1.3669 -1.9824  0.5004
  164MOL0     H21622   2.576   7.242   6.127  2.2778  1.4331 -0.8238
  164MOL0     H21623   2.480   7.130   6.017 -0.6785 -0.0510 -0.0470
  164MOL0     H21624   2.657   7.147   5.863  0.0583 -0.1456  1.8667
  164MOL0     H21625   2.758   7.248   5.952 -0.2146  0.4738  1.1851
  164MOL0     H21626   2.593   7.438   5.955  1.1636 -0.2883  0.6322
  164MOL0     H21627   2.658   7.388   5.793 -2.6505 -0.1196 -2.7386
  164MOL0     H21628   2.383   7.351   5.905 -0.4190 -2.4201  0.4727
  164MOL0     H21629   2.440   7.253   5.770 -2.1038 -0.6824  1.5886
  164MOL0     H21630   2.680   7.298   6.705 -1.2586  2.2151  0.0964
  164MOL0     H21631   2.609   7.328   6.942  0.7163  0.6687  0.0493
  164MOL0     H21632   2.397   7.646   7.209 -1.8817  3.0092  3.1066
  164MOL0     H21633   2.311   7.701   7.441 -0.9142  0.2348  1.4795
  164MOL0     H21634   1.734   7.468   7.523 -1.7184 -1.3735  1.2747
  164MOL0     H21635   1.763   7.451   7.284  2.0473  2.7392  0.3050
  164MOL0     H21636   2.078   7.378   7.007  2.7163 -0.2530 -2.4130
  164MOL0     H21637   2.181   7.467   6.803  0.9314 -1.8709 -0.5293
  164MOL0     H21638   1.908   7.711   6.575 -0.1552  1.9829 -1.7470
  164MOL0     H21639   1.914   7.600   6.444  1.6002 -3.0678 -1.2189
  164MOL0     H21640   2.123   7.674   6.364 -2.2290 -0.3933 -1.7345
  164MOL0     H21641   2.024   7.800   6.363  1.7985 -2.0998 -2.9191
  164MOL0     H21642   2.233   7.871   6.445 -0.1425  2.5402  1.4813
  164MOL0     H21643   2.218   7.769   6.590 -0.3354 -0.4956  1.1050
  164MOL0     H21644   2.024   7.906   6.673 -0.0508  0.1814 -0.0390
  164MOL0     H21645   2.169   7.965   6.676 -2.7819 -0.1774  3.7769
  164MOL0     H21646   1.927   8.172   6.378 -0.0053  0.0072 -2.0173
  164MOL0     H21647   1.790   7.503   6.629 -0.2939 -3.2391 -0.2117
  164MOL0     H21648   1.685   7.392   6.830 -0.9426  1.5024  0.8146
  165MOL0     O21649  10.176   5.686   1.160  0.9011  0.2820  0.0947
  165MOL0     C21650  10.172   5.664   1.282 -1.0047  0.0263  0.2839
  165MOL0     O21651  10.274   5.688   1.370 -0.3192  0.4063 -0.0720
  165MOL0     C21652  10.407   5.714   1.351  0.5350 -0.4184 -0.4456
  165MOL0     C21653  10.477   5.709   1.233  0.9352  0.0599  0.1860
  165MOL0     C21654  10.603   5.752   1.214 -0.1831 -0.4404 -1.0146
  165MOL0     C21655  10.677   5.797   1.318  0.0656 -0.1514  0.4357
  165MOL0     O21656  10.809   5.839   1.299  0.4278  0.3433  0.3072
  165MOL0     C21657  10.896   5.839   1.421  1.0900 -0.3444  0.8108
  165MOL0     C21658  11.039   5.861   1.391  0.6681  0.1424  0.7311
  165MOL0     C21659  11.120   5.838   1.522  0.4310 -0.4126  0.6968
  165MOL0     C21660  11.268   5.881   1.494 -0.2156  0.0809 -0.4147
  165MOL0     C21661  11.361   5.892   1.616  0.6517 -0.5877 -0.4322
  165MOL0     C21662  11.401   5.752   1.660 -1.0377  0.2895 -0.4228
  165MOL0     C21663  11.486   5.763   1.798  0.5906  0.0227 -0.0620
  165MOL0     C21664  11.626   5.826   1.774  0.6230  0.3037 -0.6688
  165MOL0     N21665  11.700   5.864   1.899  0.8751  0.4266  0.2193
  165MOL0     C21666  11.636   5.926   2.006 -1.0308 -0.0639  0.0976
  165MOL0     C21667  11.741   5.962   2.087  0.5074  0.3269 -0.3355
  165MOL0     C21668  11.720   6.032   2.227 -0.2883  0.0663  1.5335
  165MOL0     C21669  11.699   5.926   2.347 -0.2257 -0.3839 -0.2363
  165MOL0     C21670  11.705   6.004   2.482  0.0506  0.8894  0.0453
  165MOL0     C21671  11.658   5.911   2.586  2.1460 -0.3498 -0.5243
  165MOL0     O21672  11.517   5.874   2.585  0.4778 -0.4932  0.9337
  165MOL0     C21673  11.462   5.850   2.705  0.3861 -0.0780 -0.4581
  165MOL0     C21674  11.502   5.730   2.767  0.2397  0.1019  1.2729
  165MOL0     C21675  11.438   5.678   2.873  0.0609 -0.6376 -0.7538
  165MOL0     C21676  11.333   5.740   2.939  0.3782 -0.2212 -0.5428
  165MOL0     C21677  11.253   5.694   3.053 -0.8696  0.1911 -0.3363
  165MOL0     O21678  11.135   5.758   3.069  0.1824  0.5997 -0.2759
  165MOL0     C21679  11.036   5.699   3.145 -0.8543  0.1758  1.5645
  165MOL0     C21680  11.030   5.716   3.282 -0.2635 -0.0304  0.4697
  165MOL0     C21681  10.930   5.640   3.348 -0.3240 -0.8276  0.4136
  165MOL0     C21682  10.843   5.558   3.275  0.0232  0.5855 -0.9433
  165MOL0     O21683  10.757   5.484   3.350 -1.3853  0.8787  0.2856
  165MOL0     C21684  10.707   5.353   3.312  0.4214  0.1970 -0.4695
  165MOL0     C21685  10.561   5.368   3.288 -0.3240 -1.1818 -0.2155
  165MOL0     C21686  10.488   5.459   3.392 -0.3626  0.7852  0.2424
  165MOL0     C21687  10.338   5.476   3.369  0.2840  0.0428 -0.0987
  165MOL0     C21688  10.285   5.589   3.464  0.7396  0.2065  0.1606
  165MOL0     C21689  10.142   5.627   3.427 -0.2678 -0.1439  0.8098
  165MOL0     C21690  10.027   5.538   3.465  0.1857  0.8501 -0.5517
  165MOL0     C21691  10.043   5.480   3.601  1.0223  0.4039 -0.4867
  165MOL0    Cl21692   9.918   5.362   3.640  1.0701  0.1875 -0.1351
  165MOL0     C21693  10.842   5.568   3.135  0.6037  0.0179 -0.2550
  165MOL0     C21694  10.940   5.636   3.079  0.3144 -0.2022  0.5483
  165MOL0     O21695  11.294   5.589   3.112 -0.5123 -0.2767 -0.9546
  165MOL0     C21696  11.299   5.871   2.888 -0.9334 -0.8597  0.0451
  165MOL0     C21697  11.359   5.918   2.767 -0.3424  0.1855 -0.3037
  165MOL0     N21698  11.862   5.915   2.032  0.4030  0.1755  0.4080
  165MOL0     N21699  11.838   5.847   1.923  0.8402  0.8531  0.3172
  165MOL0     C21700  10.614   5.801   1.444  0.1132  0.3564 -1.3936
  165MOL0     C21701  10.476   5.765   1.461 -1.3604  0.7928  0.0858
  165MOL0     C21702  10.050   5.606   1.346  0.0422  0.7011  0.3069
  165MOL0     C21703  10.048   5.552   1.477  0.3282  1.3527 -0.1781
  165MOL0     C21704   9.931   5.490   1.524 -0.3585 -0.1058 -0.3747
  165MOL0     C21705   9.818   5.486   1.450 -0.3427  0.2857 -0.1726
  165MOL0     O21706   9.703   5.416   1.488  0.0100  0.0692 -0.0520
  165MOL0     C21707   9.570   5.461   1.466 -0.6731 -0.1605  0.1861
  165MOL0     C21708   9.471   5.349   1.505  0.9314 -0.5949 -0.4052
  165MOL0     C21709   9.337   5.400   1.561  0.0763  0.0942  0.1938
  165MOL0     C21710   9.268   5.469   1.439 -0.6925 -0.2716  0.2015
  165MOL0     C21711   9.123   5.498   1.464  0.1399 -0.2735  0.1592
  165MOL0     C21712   9.012   5.534   1.501  0.4270  0.3260  0.8117
  165MOL0     C21713   9.808   5.551   1.324  0.4562  0.5585 -1.1214
  165MOL0     C21714   9.924   5.619   1.277  0.1027  0.4696  0.8863
  165MOL0     H21715  10.419   5.688   1.143 -0.3695  0.0558  0.9939
  165MOL0     H21716  10.636   5.759   1.111  4.3363  1.8968  0.3161
  165MOL0     H21717  10.873   5.748   1.476 -1.0613 -1.6770 -2.0142
  165MOL0     H21718  10.864   5.924   1.482  0.4767  0.8007 -1.0063
  165MOL0     H21719  11.044   5.967   1.362 -1.7665  0.1003 -0.0959
  165MOL0     H21720  11.073   5.797   1.310  2.7965  1.2172  0.6970
  165MOL0     H21721  11.110   5.734   1.555 -2.5992  0.6299  3.5384
  165MOL0     H21722  11.084   5.903   1.602  2.6196  3.1475 -0.9806
  165MOL0     H21723  11.316   5.826   1.413  0.7406 -2.4400  1.7181
  165MOL0     H21724  11.262   5.981   1.451  1.4547  1.4577  2.3721
  165MOL0     H21725  11.304   5.943   1.695  1.6171 -0.6887  0.3458
  165MOL0     H21726  11.446   5.951   1.581 -1.2852  1.8403 -1.3322
  165MOL0     H21727  11.455   5.695   1.582  0.7097  1.8218 -0.3946
  165MOL0     H21728  11.306   5.698   1.660  0.2115 -2.0678 -0.6738
  165MOL0     H21729  11.430   5.816   1.875 -1.2084 -2.5310  0.5256
  165MOL0     H21730  11.497   5.662   1.837 -1.7770 -1.5675 -3.0183
  165MOL0     H21731  11.621   5.922   1.722 -0.7733  0.3828 -0.4343
  165MOL0     H21732  11.681   5.757   1.709  0.4193  0.9730 -1.5648
  165MOL0     H21733  11.530   5.944   2.026 -0.7331  1.3959  0.4700
  165MOL0     H21734  11.630   6.092   2.216 -1.2376 -1.1215  2.5233
  165MOL0     H21735  11.806   6.096   2.248 -0.2121  1.1536 -1.6600
  165MOL0     H21736  11.785   5.858   2.344  0.1180 -0.0166 -4.1161
  165MOL0     H21737  11.603   5.882   2.321  0.0886  0.3601 -2.9973
  165MOL0     H21738  11.808   6.029   2.512  1.7206 -2.4841 -2.2248
  165MOL0     H21739  11.648   6.096   2.466 -3.3037 -1.0565 -0.1760
  165MOL0     H21740  11.679   5.949   2.687 -1.2795 -0.7027  0.4461
  165MOL0     H21741  11.715   5.818   2.583 -1.9964 -3.1336 -1.6401
  165MOL0     H21742  11.576   5.661   2.727 -1.2648 -1.4889  1.1068
  165MOL0     H21743  11.480   5.586   2.911 -0.2271 -1.0462 -1.4199
  165MOL0     H21744  11.111   5.770   3.329 -0.1112  1.0241 -0.9458
  165MOL0     H21745  10.934   5.631   3.456 -2.6740 -2.2602  0.4402
  165MOL0     H21746  10.721   5.269   3.382 -1.5606 -1.0000 -1.4269
  165MOL0     H21747  10.752   5.300   3.227  0.7166 -0.1692 -0.0919
  165MOL0     H21748  10.518   5.268   3.292  0.1996 -1.3636  1.9649
  165MOL0     H21749  10.568   5.404   3.185  3.0861  1.2705  0.6736
  165MOL0     H21750  10.537   5.556   3.386  0.3932  0.3526 -1.1279
  165MOL0     H21751  10.509   5.402   3.483  2.1937 -0.4630 -1.0398
  165MOL0     H21752  10.314   5.493   3.264 -4.0183 -1.4021  0.4538
  165MOL0     H21753  10.288   5.380   3.383 -1.2222  0.4409 -2.1552
  165MOL0     H21754  10.352   5.671   3.439 -0.3338  0.4666 -2.1304
  165MOL0     H21755  10.299   5.586   3.572 -4.5282  1.8166  1.1826
  165MOL0     H21756  10.141   5.632   3.318 -0.5340 -1.5967  0.7261
  165MOL0     H21757  10.122   5.727   3.467 -1.7369  1.0916 -2.6975
  165MOL0     H21758   9.938   5.599   3.449 -0.0032  1.2180  1.6342
  165MOL0     H21759  10.023   5.454   3.394 -1.8552  0.1709  0.2853
  165MOL0     H21760  10.041   5.559   3.678  0.2043 -2.1574  2.3244
  165MOL0     H21761  10.143   5.437   3.615  0.2911 -0.8819  0.9580
  165MOL0     H21762  10.771   5.506   3.080  2.5642  0.2693 -3.3227
  165MOL0     H21763  10.959   5.628   2.973 -0.9733  1.2381  0.1809
  165MOL0     H21764  11.223   5.936   2.929  0.9435  2.0663 -0.7595
  165MOL0     H21765  11.325   6.009   2.719  1.0191  1.1000  0.3786
  165MOL0     H21766  10.659   5.841   1.534 -1.0899 -0.3572 -0.4415
  165MOL0     H21767  10.427   5.783   1.556 -3.8465  1.7577 -1.3125
  165MOL0     H21768  10.128   5.565   1.549  1.3564  0.8872 -1.2028
  165MOL0     H21769   9.938   5.447   1.623  3.6110  0.2582 -0.3255
  165MOL0     H21770   9.558   5.495   1.363  0.6348 -0.1335  0.0328
  165MOL0     H21771   9.553   5.544   1.535  3.1364 -0.8599  2.2191
  165MOL0     H21772   9.456   5.285   1.418  1.6687  2.1772 -2.6869
  165MOL0     H21773   9.517   5.292   1.587 -0.4546 -1.3277 -0.1043
  165MOL0     H21774   9.353   5.479   1.636  1.9638 -0.5778  0.5552
  165MOL0     H21775   9.266   5.326   1.599 -2.2657  0.8855 -2.3581
  165MOL0     H21776   9.303   5.570   1.413 -0.7245 -0.8706 -2.3945
  165MOL0     H21777   9.289   5.402   1.355  0.6552  0.4002 -0.0283
  165MOL0     H21778   8.917   5.559   1.544 -1.1668 -1.0588 -1.6663
  165MOL0     H21779   9.721   5.542   1.259 -0.2462 -0.8903 -0.0290
  165MOL0     H21780   9.915   5.658   1.177  0.1821 -0.9719  0.2969
  166MOL0     O21781  10.419   8.339   1.607  0.3257  0.6920 -0.5848
  166MOL0     C21782  10.426   8.372   1.726  0.3489 -0.6940  0.4307
  166MOL0     O21783  10.472   8.296   1.823  0.3878 -0.4490  0.0995
  166MOL0     C21784  10.520   8.172   1.805 -0.2762 -0.7168 -0.4331
  166MOL0     C21785  10.433   8.084   1.866 -0.2661  0.7089  0.3221
  166MOL0     C21786  10.458   7.951   1.852  1.0600  0.1627 -0.4352
  166MOL0     C21787  10.570   7.904   1.786 -0.1897  0.6664 -0.1680
  166MOL0     O21788  10.606   7.773   1.774 -0.2575 -0.3781  0.2617
  166MOL0     C21789  10.516   7.672   1.731  0.3256 -0.7287  0.1713
  166MOL0     C21790  10.580   7.613   1.609 -0.7006  0.3784  1.0371
  166MOL0     C21791  10.666   7.489   1.651  1.0102 -0.6224  0.6911
  166MOL0     C21792  10.739   7.440   1.526  0.7862 -0.5983 -0.5802
  166MOL0     C21793  10.868   7.352   1.549  1.1360  0.3977 -0.7296
  166MOL0     C21794  10.921   7.276   1.423 -0.0876 -0.3752  0.0448
  166MOL0     C21795  11.039   7.204   1.475 -0.1509 -0.5615  0.1349
  166MOL0     C21796  11.127   7.144   1.358  0.3557 -0.1872 -0.0440
  166MOL0     N21797  11.237   7.072   1.413  0.1145 -0.4182 -0.3689
  166MOL0     C21798  11.228   6.945   1.464 -1.2853  0.2813 -0.7499
  166MOL0     C21799  11.355   6.916   1.513  0.4850  0.1528 -1.2478
  166MOL0     C21800  11.401   6.785   1.572  0.3902  0.9659 -0.5070
  166MOL0     C21801  11.427   6.675   1.463 -0.0505 -0.0921  0.6408
  166MOL0     C21802  11.551   6.586   1.512  1.1440 -0.1172 -0.2641
  166MOL0     C21803  11.513   6.487   1.614 -0.5310  1.2556  0.4158
  166MOL0     O21804  11.437   6.388   1.541 -0.1900 -0.5732 -0.2819
  166MOL0     C21805  11.340   6.319   1.611 -0.6282 -0.4416 -0.5582
  166MOL0     C21806  11.364   6.267   1.738  0.7556 -0.7016 -1.7992
  166MOL0     C21807  11.260   6.192   1.796 -0.7495 -0.2110 -0.5189
  166MOL0     C21808  11.130   6.187   1.742 -0.3554  0.8516 -1.1191
  166MOL0     C21809  11.020   6.101   1.813 -0.1699 -0.0151  0.0652
  166MOL0     O21810  10.893   6.088   1.752  0.2506  0.2380  0.4051
  166MOL0     C21811  10.786   6.035   1.820  0.4033 -0.2759  0.0479
  166MOL0     C21812  10.683   6.117   1.877 -1.3528 -0.3066 -0.2136
  166MOL0     C21813  10.562   6.064   1.931  0.4469  0.7899 -1.0547
  166MOL0     C21814  10.565   5.923   1.958 -0.8283 -0.3360 -0.0961
  166MOL0     O21815  10.479   5.863   2.044 -0.6825 -0.4257  0.0549
  166MOL0     C21816  10.362   5.937   2.094 -0.6711 -0.0732 -0.9146
  166MOL0     C21817  10.279   5.847   2.192 -0.6381 -0.0815 -0.7431
  166MOL0     C21818  10.146   5.820   2.123  0.5306 -0.5614 -0.3028
  166MOL0     C21819  10.055   5.728   2.206  0.3380  0.9331  0.2006
  166MOL0     C21820   9.974   5.802   2.318  0.4133  0.3815  0.1932
  166MOL0     C21821   9.903   5.702   2.415 -0.6595 -0.6875 -0.5568
  166MOL0     C21822   9.814   5.775   2.516 -0.1292  0.4692 -0.5162
  166MOL0     C21823   9.740   5.670   2.601  0.3978 -0.0909 -0.1485
  166MOL0    Cl21824   9.585   5.743   2.664 -0.0098 -0.2154  0.2224
  166MOL0     C21825  10.662   5.844   1.910 -1.1552  0.1841  0.3304
  166MOL0     C21826  10.778   5.895   1.838 -0.6712  0.7598  0.1139
  166MOL0     O21827  11.047   6.056   1.920 -0.4286 -0.5570 -0.0495
  166MOL0     C21828  11.107   6.255   1.627  0.6855 -0.5109  0.4870
  166MOL0     C21829  11.205   6.324   1.558 -0.9937 -0.5182  0.7946
  166MOL0     N21830  11.431   7.025   1.501  0.2152 -0.3601  0.4099
  166MOL0     N21831  11.362   7.117   1.441 -0.0245 -1.0550  0.0728
  166MOL0     C21832  10.654   7.991   1.722 -0.2995 -0.2490 -0.4317
  166MOL0     C21833  10.631   8.133   1.734  0.2448 -0.4762  0.8260
  166MOL0     C21834  10.380   8.506   1.772  1.3786  0.4063  0.3976
  166MOL0     C21835  10.380   8.551   1.904 -1.2278  0.3452  0.0821
  166MOL0     C21836  10.348   8.675   1.948 -0.1494  0.1849  0.2369
  166MOL0     C21837  10.299   8.771   1.853  0.9248  0.5350  0.4393
  166MOL0     O21838  10.252   8.897   1.877  0.2180  0.0873 -0.6143
  166MOL0     C21839  10.246   8.933   2.016  0.6527  0.7641  0.6775
  166MOL0     C21840  10.205   9.078   2.026  0.5134  0.2924  0.0777
  166MOL0     C21841  10.203   9.126   2.171  0.7771 -0.3895 -0.2235
  166MOL0     C21842  10.146   9.269   2.172 -0.1232  0.4854 -0.4902
  166MOL0     C21843   9.999   9.268   2.169  0.1664  0.6068 -0.9868
  166MOL0     C21844   9.878   9.279   2.179 -0.3544  0.8066 -0.0393
  166MOL0     C21845  10.307   8.734   1.713  0.2694  0.0538 -0.4318
  166MOL0     C21846  10.355   8.605   1.675  1.3427  0.4513 -0.6537
  166MOL0     H21847  10.354   8.110   1.936  0.4668  4.5366 -0.0588
  166MOL0     H21848  10.391   7.883   1.903 -0.8562  3.7330  2.2697
  166MOL0     H21849  10.421   7.712   1.693  1.9149  0.5170 -2.7470
  166MOL0     H21850  10.480   7.598   1.803 -1.5662  1.2187  1.3827
  166MOL0     H21851  10.646   7.678   1.552 -2.2604 -1.3107 -3.0626
  166MOL0     H21852  10.504   7.588   1.534  2.4587  0.1011 -2.3474
  166MOL0     H21853  10.608   7.406   1.693  0.8929 -0.4585  0.8577
  166MOL0     H21854  10.744   7.517   1.721  0.8442  1.3199  0.1670
  166MOL0     H21855  10.666   7.386   1.465  1.2252 -1.3884 -0.4103
  166MOL0     H21856  10.773   7.527   1.470 -0.8225  0.9828  0.7807
  166MOL0     H21857  10.847   7.281   1.630 -0.2574  0.5511 -0.9269
  166MOL0     H21858  10.924   7.434   1.594 -0.9347  1.5964 -0.2282
  166MOL0     H21859  10.955   7.340   1.341  1.0928 -2.0621 -0.8299
  166MOL0     H21860  10.841   7.210   1.390  0.4602  0.4131 -3.1779
  166MOL0     H21861  11.101   7.281   1.522  0.8778 -2.6883  2.4286
  166MOL0     H21862  11.006   7.125   1.542 -0.7997  0.8797  1.5891
  166MOL0     H21863  11.170   7.226   1.300  0.7520 -1.0323 -0.9666
  166MOL0     H21864  11.062   7.080   1.297 -0.0472 -2.4787  2.6128
  166MOL0     H21865  11.138   6.884   1.460 -3.5139  3.3701 -1.6991
  166MOL0     H21866  11.322   6.765   1.645 -2.1512  4.4569 -2.0110
  166MOL0     H21867  11.491   6.795   1.633  0.3864  1.4574 -0.5780
  166MOL0     H21868  11.470   6.732   1.379  2.0306  0.2790  1.8849
  166MOL0     H21869  11.339   6.618   1.433  0.6570 -0.9230  0.1007
  166MOL0     H21870  11.599   6.539   1.425  2.1310 -1.6373  1.0504
  166MOL0     H21871  11.624   6.659   1.548  0.2131  0.1935  1.0472
  166MOL0     H21872  11.471   6.537   1.702  2.1666  1.8088  1.4850
  166MOL0     H21873  11.609   6.441   1.638  0.1488  2.4754  0.1247
  166MOL0     H21874  11.463   6.273   1.781 -0.5525  0.6889  1.3046
  166MOL0     H21875  11.284   6.135   1.886 -1.1664 -1.6543 -1.2835
  166MOL0     H21876  10.681   6.225   1.884  0.6231 -0.3272  2.4708
  166MOL0     H21877  10.477   6.122   1.967 -1.9769 -1.5413 -2.5984
  166MOL0     H21878  10.302   5.991   2.020  0.0921  1.0210 -0.7574
  166MOL0     H21879  10.408   6.012   2.160 -1.5355  0.5784 -1.0326
  166MOL0     H21880  10.257   5.898   2.286  2.1091 -0.5666  0.2473
  166MOL0     H21881  10.334   5.756   2.216 -1.0951 -0.0669  0.4512
  166MOL0     H21882  10.173   5.777   2.026  1.2500 -1.6072  0.3286
  166MOL0     H21883  10.093   5.914   2.108 -1.4646 -1.6800 -0.6495
  166MOL0     H21884   9.983   5.681   2.138 -0.7461  2.0650  0.5414
  166MOL0     H21885  10.122   5.645   2.234  1.0999  0.3974 -2.8101
  166MOL0     H21886   9.901   5.861   2.262 -0.1099  1.8168  2.2664
  166MOL0     H21887  10.037   5.866   2.382 -0.2184 -0.0028  1.2178
  166MOL0     H21888   9.984   5.655   2.471 -3.1552 -1.5303  2.6622
  166MOL0     H21889   9.849   5.624   2.360  1.9117 -1.7560 -1.7147
  166MOL0     H21890   9.878   5.846   2.570  0.6289  0.6297 -1.5948
  166MOL0     H21891   9.748   5.835   2.452 -0.9370 -0.5654 -0.6829
  166MOL0     H21892   9.805   5.638   2.684 -1.3299 -0.8778  0.9621
  166MOL0     H21893   9.722   5.579   2.544  0.4824 -0.4861  0.4393
  166MOL0     H21894  10.653   5.739   1.935  1.3765  0.0123  0.7250
  166MOL0     H21895  10.861   5.833   1.806 -1.1304  0.9071 -1.4365
  166MOL0     H21896  11.004   6.253   1.593  1.3946  0.1035 -1.8645
  166MOL0     H21897  11.185   6.374   1.464  2.3933 -3.6497 -1.8764
  166MOL0     H21898  10.737   7.949   1.667 -1.0466 -1.7146 -0.4783
  166MOL0     H21899  10.694   8.211   1.692  0.7431 -1.6442 -0.6864
  166MOL0     H21900  10.415   8.476   1.974 -1.5715  1.9422  2.0352
  166MOL0     H21901  10.359   8.677   2.056  1.8257 -2.7222  0.2044
  166MOL0     H21902  10.344   8.919   2.062  0.8911 -2.1951 -0.5130
  166MOL0     H21903  10.171   8.872   2.068  2.3269 -2.1390 -0.1185
  166MOL0     H21904  10.279   9.140   1.975 -1.2692  2.0095 -0.5494
  166MOL0     H21905  10.110   9.087   1.973  0.7020 -2.8064 -0.9873
  166MOL0     H21906  10.305   9.131   2.210  0.9037 -0.4472 -0.5417
  166MOL0     H21907  10.145   9.061   2.236  0.7309  0.5753  0.7310
  166MOL0     H21908  10.183   9.318   2.263  0.9425 -0.5672 -0.3348
  166MOL0     H21909  10.196   9.336   2.101  2.5775  2.4188  2.9316
  166MOL0     H21910   9.773   9.299   2.194 -0.4820 -0.1910  0.4842
  166MOL0     H21911  10.296   8.802   1.630  2.4646 -0.0054 -0.8484
  166MOL0     H21912  10.372   8.581   1.570  1.4600 -2.4304 -0.0612
  167MOL0     O21913   6.103  10.469   7.141 -0.8839  0.1448 -0.7676
  167MOL0     C21914   6.093  10.585   7.163 -0.4046 -0.7051 -0.9829
  167MOL0     O21915   6.100  10.688   7.077  0.1260 -0.5857  1.1912
  167MOL0     C21916   6.069  10.660   6.947 -0.1609  1.1130 -1.0757
  167MOL0     C21917   6.125  10.740   6.845 -0.8028  0.6747 -0.5300
  167MOL0     C21918   6.077  10.725   6.713  0.5284  0.3447  0.4808
  167MOL0     C21919   5.993  10.620   6.678  0.7095 -0.6000  0.9459
  167MOL0     O21920   5.959  10.586   6.552 -0.1276  0.3868  0.5324
  167MOL0     C21921   6.053  10.591   6.444  0.3749 -0.2881 -0.1245
  167MOL0     C21922   6.049  10.715   6.358  0.2298 -0.1758  0.1771
  167MOL0     C21923   5.917  10.722   6.280  0.1016 -0.7638 -0.6577
  167MOL0     C21924   5.922  10.850   6.196  0.4601  0.4170  0.1467
  167MOL0     C21925   5.812  10.868   6.100  1.1810  0.6912 -0.2762
  167MOL0     C21926   5.811  11.014   6.050  0.0566  0.5776 -0.7772
  167MOL0     C21927   5.673  11.065   6.000  0.3021  0.2190 -0.3310
  167MOL0     C21928   5.566  11.103   6.110 -0.3619  0.0963  0.9190
  167MOL0     N21929   5.631  11.201   6.201 -0.0328 -0.2913  0.2639
  167MOL0     C21930   5.663  11.330   6.159 -0.7067 -0.1400 -0.2916
  167MOL0     C21931   5.756  11.375   6.245 -0.5332 -0.2227  0.5773
  167MOL0     C21932   5.837  11.497   6.215 -0.3109  0.4999  0.3008
  167MOL0     C21933   5.879  11.569   6.348  0.2727  0.5252  0.0976
  167MOL0     C21934   6.018  11.530   6.405  0.3934 -0.0760 -0.6453
  167MOL0     C21935   6.018  11.568   6.559 -0.0285 -0.2999 -0.1266
  167MOL0     O21936   5.966  11.699   6.599  0.0429 -0.2563  0.0865
  167MOL0     C21937   6.049  11.808   6.613  0.2075  1.1274  1.3709
  167MOL0     C21938   6.016  11.902   6.714 -0.3405  0.6173  0.2859
  167MOL0     C21939   6.099  12.019   6.730  0.4050 -0.0210  0.2867
  167MOL0     C21940   6.215  12.048   6.650 -0.5971  0.2053  0.1256
  167MOL0     C21941   6.281  12.179   6.663  0.2854 -0.5530 -0.4354
  167MOL0     O21942   6.210  12.286   6.708 -0.0014 -0.1173 -0.1301
  167MOL0     C21943   6.275  12.412   6.724  0.5782  0.1164  0.0564
  167MOL0     C21944   6.231  12.493   6.827 -0.6378  0.3816 -0.9398
  167MOL0     C21945   6.278  12.629   6.842  0.8726 -0.0029  0.4004
  167MOL0     C21946   6.387  12.668   6.766  0.4305 -0.0196  0.0689
  167MOL0     O21947   6.440  12.797   6.794 -0.2851  0.3292  1.1651
  167MOL0     C21948   6.541  12.855   6.703 -0.3731  1.0306  0.2050
  167MOL0     C21949   6.561  13.005   6.731  0.2021  0.8131  0.0337
  167MOL0     C21950   6.613  13.064   6.607  0.6663 -0.8582 -0.0030
  167MOL0     C21951   6.653  13.219   6.635  1.0057  0.2779  0.2051
  167MOL0     C21952   6.671  13.299   6.507 -0.4217 -0.1557  0.3032
  167MOL0     C21953   6.680  13.457   6.522  0.6101 -0.3124 -1.1201
  167MOL0     C21954   6.562  13.534   6.570  0.3464 -0.2566  0.6284
  167MOL0     C21955   6.566  13.680   6.532 -0.5601  1.0323  0.0512
  167MOL0    Cl21956   6.495  13.702   6.369 -0.2889  0.0271  0.0618
  167MOL0     C21957   6.421  12.589   6.660  0.4950  0.1323 -0.1721
  167MOL0     C21958   6.358  12.465   6.636  0.8598  0.1716 -0.4963
  167MOL0     O21959   6.386  12.188   6.613  1.0024 -0.7072  0.1073
  167MOL0     C21960   6.255  11.937   6.569 -0.1648  0.6130  0.2652
  167MOL0     C21961   6.178  11.822   6.552  0.7463  0.2672 -0.4543
  167MOL0     N21962   5.780  11.270   6.333  1.5573 -0.7064 -0.4384
  167MOL0     N21963   5.700  11.176   6.314  0.4348  0.1864 -0.0442
  167MOL0     C21964   5.939  10.537   6.781  0.3339 -0.5122 -0.7703
  167MOL0     C21965   5.964  10.568   6.913  0.1131  0.5535 -0.2613
  167MOL0     C21966   6.092  10.619   7.310 -0.0261 -0.4993 -0.2325
  167MOL0     C21967   6.045  10.531   7.408  0.0175  0.3639 -1.5101
  167MOL0     C21968   6.049  10.577   7.542  0.8707  0.3574  0.1169
  167MOL0     C21969   6.095  10.703   7.572 -0.0811 -0.1984 -0.9438
  167MOL0     O21970   6.108  10.747   7.706  0.0265  0.2416  0.2543
  167MOL0     C21971   6.073  10.658   7.812 -0.8617 -0.3554 -0.6573
  167MOL0     C21972   6.089  10.729   7.938  0.3128 -0.1051 -0.4312
  167MOL0     C21973   6.030  10.649   8.057  0.7359 -0.3533  0.0495
  167MOL0     C21974   6.069  10.712   8.185 -0.2636 -0.3226  0.4173
  167MOL0     C21975   6.032  10.635   8.303  0.1579  0.2217 -0.1293
  167MOL0     C21976   6.019  10.566   8.404 -0.5678 -0.1794 -0.5614
  167MOL0     C21977   6.131  10.789   7.475 -0.6345  0.2848  0.2520
  167MOL0     C21978   6.133  10.750   7.342  0.1011  0.8931 -0.5323
  167MOL0     H21979   6.197  10.816   6.872 -0.4021 -0.1427  0.8152
  167MOL0     H21980   6.130  10.789   6.643  2.5183 -1.1661  0.5087
  167MOL0     H21981   6.042  10.507   6.376 -0.3015 -1.3374  1.2223
  167MOL0     H21982   6.151  10.581   6.493  0.7185  1.1658 -0.4658
  167MOL0     H21983   6.135  10.713   6.291 -0.3701  0.7817 -0.6434
  167MOL0     H21984   6.044  10.807   6.417 -2.1807  0.3522 -0.7299
  167MOL0     H21985   5.835  10.727   6.352  0.6379  0.2174 -0.1020
  167MOL0     H21986   5.902  10.627   6.226  1.9226  0.0236 -2.6902
  167MOL0     H21987   5.915  10.936   6.263 -4.1826  2.1733 -2.1133
  167MOL0     H21988   6.016  10.856   6.140 -0.2517 -0.0496 -1.1600
  167MOL0     H21989   5.726  10.831   6.157  1.3080 -0.3720 -0.7474
  167MOL0     H21990   5.814  10.791   6.023 -1.4789  1.7184 -1.4999
  167MOL0     H21991   5.887  11.027   5.972  1.6323 -1.1460  0.3966
  167MOL0     H21992   5.838  11.077   6.135  1.8222 -2.8617  1.4276
  167MOL0     H21993   5.690  11.156   5.941 -1.3040  0.2442 -0.7928
  167MOL0     H21994   5.626  10.992   5.934 -1.7907  2.9840 -2.1318
  167MOL0     H21995   5.540  11.008   6.159  3.0188 -0.6237  1.6149
  167MOL0     H21996   5.479  11.152   6.067  1.2281  0.0079 -2.7640
  167MOL0     H21997   5.630  11.379   6.068  1.0648 -0.5203 -1.1747
  167MOL0     H21998   5.783  11.568   6.152  2.1005  2.7357  0.5726
  167MOL0     H21999   5.931  11.486   6.159  0.3643  1.6417  1.1706
  167MOL0     H22000   5.803  11.543   6.421 -1.8906 -0.1436 -2.2515
  167MOL0     H22001   5.871  11.677   6.336  1.7928  1.2793  4.2203
  167MOL0     H22002   6.020  11.421   6.401  2.3509 -0.0356 -1.9641
  167MOL0     H22003   6.090  11.587   6.346 -0.5757  2.5023  0.4857
  167MOL0     H22004   6.123  11.562   6.587 -0.6974 -2.5449  2.2684
  167MOL0     H22005   5.972  11.486   6.615 -2.4842  0.8097 -0.3645
  167MOL0     H22006   5.934  11.884   6.783 -2.0106 -1.7532 -2.0778
  167MOL0     H22007   6.060  12.083   6.808  0.1886 -2.8097  2.6186
  167MOL0     H22008   6.159  12.444   6.891 -0.2479  1.2389  0.1683
  167MOL0     H22009   6.247  12.690   6.926 -0.1353  1.1310 -0.7523
  167MOL0     H22010   6.497  12.847   6.603  2.9967 -2.1024 -1.2626
  167MOL0     H22011   6.634  12.799   6.690  0.6625  2.8262 -0.5418
  167MOL0     H22012   6.627  13.020   6.816 -0.3470  0.8476  0.4628
  167MOL0     H22013   6.469  13.045   6.775 -0.0749 -0.3201  0.5297
  167MOL0     H22014   6.543  13.064   6.523 -0.2658 -0.1129  0.7598
  167MOL0     H22015   6.702  13.004   6.584  0.5581 -0.3978 -1.7834
  167MOL0     H22016   6.565  13.264   6.682  0.3160  1.4754 -2.0796
  167MOL0     H22017   6.740  13.219   6.702  2.0546 -0.2430 -1.0960
  167MOL0     H22018   6.597  13.284   6.427 -2.0301  1.2818  1.4289
  167MOL0     H22019   6.770  13.263   6.478 -0.4017 -0.4239  0.6941
  167MOL0     H22020   6.707  13.493   6.423 -0.1098  1.9887 -0.5494
  167MOL0     H22021   6.766  13.481   6.586  2.0501  1.6419 -3.6365
  167MOL0     H22022   6.470  13.495   6.524 -0.4715  2.2596 -0.0293
  167MOL0     H22023   6.554  13.522   6.678  0.2976 -1.8164  0.4846
  167MOL0     H22024   6.671  13.711   6.526 -0.8138  1.7629 -0.9554
  167MOL0     H22025   6.515  13.733   6.613 -1.3794  2.6672 -1.4601
  167MOL0     H22026   6.494  12.610   6.583 -0.9129 -4.3811 -3.1034
  167MOL0     H22027   6.382  12.409   6.547 -1.2181 -0.4394 -0.7296
  167MOL0     H22028   6.355  11.946   6.528  0.5645 -3.0059  0.9035
  167MOL0     H22029   6.215  11.745   6.485 -2.0558 -1.6274 -0.0159
  167MOL0     H22030   5.871  10.458   6.752 -1.8250 -0.1279  2.7013
  167MOL0     H22031   5.918  10.489   6.972  0.2998 -1.1252 -2.2512
  167MOL0     H22032   6.013  10.431   7.381  1.3244 -0.6368  0.4066
  167MOL0     H22033   5.998  10.509   7.609  3.0957 -2.8436 -1.1518
  167MOL0     H22034   6.141  10.574   7.799  1.1928  1.2610 -0.9367
  167MOL0     H22035   5.970  10.623   7.798 -0.7391 -0.1334 -2.2605
  167MOL0     H22036   6.195  10.750   7.952  0.4012 -0.6795 -0.2010
  167MOL0     H22037   6.040  10.827   7.938  0.2608 -0.1231  0.8446
  167MOL0     H22038   6.060  10.544   8.056  2.4776  0.1273 -0.4596
  167MOL0     H22039   5.921  10.645   8.057  0.6726  0.7477  1.0806
  167MOL0     H22040   6.178  10.709   8.187 -0.2873 -3.1544  2.1435
  167MOL0     H22041   6.026  10.812   8.198 -0.6255 -0.3181 -0.6483
  167MOL0     H22042   6.005  10.500   8.487 -1.5673 -0.3873 -0.8830
  167MOL0     H22043   6.169  10.883   7.515 -0.3504 -0.2803  1.3460
  167MOL0     H22044   6.169  10.817   7.264  0.6139  1.9924  0.6258
  168MOL0     O22045  11.270  10.300   0.077  0.4993  0.5978  0.5075
  168MOL0     C22046  11.228  10.228   0.166  0.0754  0.2836  0.2730
  168MOL0     O22047  11.309  10.184   0.275 -0.2806  0.1730 -1.0449
  168MOL0     C22048  11.442  10.210   0.263 -0.7101 -0.1406 -0.3642
  168MOL0     C22049  11.532  10.112   0.221  0.3978 -0.8300  0.1472
  168MOL0     C22050  11.667  10.126   0.214 -0.9089 -0.0992 -0.2576
  168MOL0     C22051  11.718  10.252   0.250 -0.0364  0.2525  0.8385
  168MOL0     O22052  11.852  10.274   0.270  0.0962  0.0008  0.5779
  168MOL0     C22053  11.933  10.207   0.166  0.1507 -0.1524 -0.6812
  168MOL0     C22054  12.063  10.295   0.143 -0.5842  0.1185 -0.6174
  168MOL0     C22055  12.040  10.399   0.037  0.6749  0.4219  0.1999
  168MOL0     C22056  12.136  10.520   0.052  0.0720  0.0399 -0.8810
  168MOL0     C22057  12.082  10.650  -0.016  0.9185  0.3219 -0.3189
  168MOL0     C22058  12.046  10.618  -0.164 -0.8423  0.4941  0.8034
  168MOL0     C22059  12.003  10.741  -0.255  0.1821  0.8246 -0.1971
  168MOL0     C22060  11.937  10.694  -0.385 -0.6015  0.0764  0.7207
  168MOL0     N22061  11.940  10.799  -0.491 -0.2066  0.4717  0.2067
  168MOL0     C22062  11.869  10.914  -0.502  0.0943  0.5253  0.2146
  168MOL0     C22063  11.931  10.995  -0.592  0.7039  0.4110  0.3898
  168MOL0     C22064  11.899  11.141  -0.627 -0.3183  0.9804 -0.6105
  168MOL0     C22065  11.987  11.234  -0.542 -0.6957 -0.4189  0.3937
  168MOL0     C22066  11.955  11.381  -0.570  0.3113  0.2349  0.4792
  168MOL0     C22067  12.065  11.477  -0.545 -0.2511 -1.0509  0.4531
  168MOL0     O22068  12.156  11.498  -0.656  0.5819  0.0062  0.0399
  168MOL0     C22069  12.118  11.558  -0.779 -0.1002 -0.0928  0.5719
  168MOL0     C22070  11.993  11.615  -0.802 -0.3649  0.0571  0.0433
  168MOL0     C22071  11.963  11.675  -0.928 -0.8265  0.2408  0.9066
  168MOL0     C22072  12.067  11.680  -1.033 -0.3053 -0.2799 -0.4373
  168MOL0     C22073  12.037  11.756  -1.156  0.4684  0.2377  0.2579
  168MOL0     O22074  11.930  11.840  -1.162 -1.0654 -0.4838 -0.4167
  168MOL0     C22075  11.906  11.910  -1.275  0.0593 -0.0473  1.1155
  168MOL0     C22076  11.885  12.048  -1.263  0.0960  0.2908 -0.9606
  168MOL0     C22077  11.877  12.118  -1.381 -0.3257  1.0001  0.3512
  168MOL0     C22078  11.880  12.055  -1.506  1.0196  0.5879  1.0689
  168MOL0     O22079  11.883  12.140  -1.611 -0.4432 -0.0649 -0.4269
  168MOL0     C22080  11.866  12.081  -1.739 -0.1063 -0.0410  0.3456
  168MOL0     C22081  11.876  12.203  -1.833  0.6204  0.1728 -0.0510
  168MOL0     C22082  12.017  12.263  -1.856  0.7582  1.4150  0.1918
  168MOL0     C22083  12.001  12.391  -1.936 -0.0218  0.8157 -1.4584
  168MOL0     C22084  12.128  12.474  -1.905 -0.5298 -0.1319 -0.0090
  168MOL0     C22085  12.263  12.424  -1.936  0.7421  0.5050 -0.4557
  168MOL0     C22086  12.356  12.541  -1.934  0.9953 -0.6227  0.3173
  168MOL0     C22087  12.507  12.491  -1.920 -1.1086  0.4667 -0.1295
  168MOL0    Cl22088  12.524  12.422  -1.755 -0.0449  0.5598  0.0994
  168MOL0     C22089  11.888  11.920  -1.512  0.2641  0.3474 -0.4126
  168MOL0     C22090  11.893  11.847  -1.391  0.1569  0.6098  1.4590
  168MOL0     O22091  12.110  11.733  -1.246 -0.2704 -0.4942  0.2193
  168MOL0     C22092  12.190  11.625  -1.010  0.6302  0.5049 -0.3469
  168MOL0     C22093  12.217  11.566  -0.884 -0.1106  0.4179 -0.3137
  168MOL0     N22094  12.045  10.929  -0.627 -0.4591 -0.0780 -0.8872
  168MOL0     N22095  12.045  10.810  -0.566  0.3944 -0.0578 -0.0917
  168MOL0     C22096  11.632  10.355   0.280 -0.6178  0.0474  0.5638
  168MOL0     C22097  11.497  10.338   0.295  0.5783  0.2298 -0.1336
  168MOL0     C22098  11.094  10.179   0.162 -0.0605  0.2139  0.0588
  168MOL0     C22099  11.027  10.119   0.279 -0.3961 -0.4126 -0.1548
  168MOL0     C22100  10.897  10.078   0.273  0.1751  0.3548 -1.2393
  168MOL0     C22101  10.817  10.107   0.167  0.3395  0.1504  0.2034
  168MOL0     O22102  10.683  10.056   0.174 -0.4512  0.1799  0.1871
  168MOL0     C22103  10.616  10.024   0.056  0.6423  0.1878  0.9486
  168MOL0     C22104  10.488   9.943   0.083  0.0356 -0.2923 -0.2771
  168MOL0     C22105  10.358  10.028   0.064 -0.4266  0.2864 -0.0886
  168MOL0     C22106  10.353  10.144   0.163  0.0771 -0.4384 -0.2792
  168MOL0     C22107  10.285  10.251   0.095 -0.1190 -0.3234  0.7969
  168MOL0     C22108  10.217  10.329   0.036  0.2516 -0.6546  0.9408
  168MOL0     C22109  10.871  10.168   0.051 -0.3259  0.3592  0.4150
  168MOL0     C22110  11.006  10.202   0.056 -0.1685  1.0961  0.0651
  168MOL0     H22111  11.506  10.016   0.178  1.0842  0.8724 -4.6391
  168MOL0     H22112  11.727  10.045   0.175  2.6333  1.7881  0.8495
  168MOL0     H22113  11.876  10.196   0.074  0.2202  4.1541 -1.4547
  168MOL0     H22114  11.964  10.113   0.212  1.4736  1.1172  1.1850
  168MOL0     H22115  12.146  10.230   0.113 -1.0185 -0.6526 -0.1805
  168MOL0     H22116  12.096  10.347   0.234  0.9360  0.4994 -1.3559
  168MOL0     H22117  11.939  10.436   0.052  0.1711 -0.3116 -1.1510
  168MOL0     H22118  12.039  10.359  -0.065 -2.9554 -0.8597  0.6018
  168MOL0     H22119  12.158  10.542   0.157  0.4094  3.2286 -1.5421
  168MOL0     H22120  12.224  10.483  -0.001  1.2498 -0.1908  1.1328
  168MOL0     H22121  12.163  10.723  -0.008 -0.1870  1.5069  0.6011
  168MOL0     H22122  11.993  10.682   0.039  0.8172 -1.4633  0.6006
  168MOL0     H22123  11.957  10.554  -0.155 -2.0804  1.6870 -1.7680
  168MOL0     H22124  12.136  10.575  -0.208 -1.5549  0.5500 -0.7781
  168MOL0     H22125  11.931  10.804  -0.203 -1.5709 -0.5951 -0.8015
  168MOL0     H22126  12.096  10.796  -0.278  0.2766 -0.2978 -2.8555
  168MOL0     H22127  11.833  10.663  -0.374 -0.3055 -2.6784 -2.4597
  168MOL0     H22128  11.991  10.614  -0.436 -1.0963 -1.1891  2.1293
  168MOL0     H22129  11.782  10.937  -0.441 -0.4065  1.5481 -0.8438
  168MOL0     H22130  11.791  11.152  -0.626 -0.7288 -2.1865  1.0758
  168MOL0     H22131  11.941  11.158  -0.727 -3.9986  1.6319 -2.2107
  168MOL0     H22132  12.090  11.206  -0.564 -0.7499 -0.7375  0.5306
  168MOL0     H22133  11.970  11.225  -0.434  0.3499 -1.3038  0.5011
  168MOL0     H22134  11.926  11.389  -0.675  0.4347 -0.1717  0.4142
  168MOL0     H22135  11.881  11.416  -0.498 -2.1323 -0.2840 -1.6351
  168MOL0     H22136  12.129  11.439  -0.465  2.6447 -1.7657 -1.9960
  168MOL0     H22137  12.011  11.569  -0.525  0.0729 -0.3030 -1.8668
  168MOL0     H22138  11.919  11.615  -0.723  1.3394 -1.6577  1.7586
  168MOL0     H22139  11.873  11.736  -0.938 -1.3832 -0.5039  1.2998
  168MOL0     H22140  11.892  12.101  -1.169 -2.5032 -0.5991 -0.1864
  168MOL0     H22141  11.873  12.226  -1.379 -2.0785  0.9850 -0.3164
  168MOL0     H22142  11.771  12.027  -1.746 -0.1326 -0.0047  0.4237
  168MOL0     H22143  11.954  12.027  -1.776  0.6538  2.6722 -2.2266
  168MOL0     H22144  11.800  12.278  -1.811 -1.6227 -1.3750 -1.9596
  168MOL0     H22145  11.862  12.150  -1.928  0.8943 -3.1623  1.6304
  168MOL0     H22146  12.069  12.189  -1.918 -3.3830 -2.1985  0.6127
  168MOL0     H22147  12.074  12.267  -1.762  2.0577 -1.1835 -0.4081
  168MOL0     H22148  11.983  12.383  -2.043  1.2326 -0.5699 -1.5943
  168MOL0     H22149  11.913  12.444  -1.899  1.9834  2.3431  1.5313
  168MOL0     H22150  12.133  12.486  -1.797 -2.7506 -1.9208  0.3848
  168MOL0     H22151  12.116  12.570  -1.955 -1.8288 -0.3821 -0.2057
  168MOL0     H22152  12.270  12.379  -2.035 -0.6778 -1.9556  0.4685
  168MOL0     H22153  12.286  12.343  -1.866 -1.3986  1.3626  1.3685
  168MOL0     H22154  12.343  12.595  -2.029 -2.7578  0.7805  1.4403
  168MOL0     H22155  12.325  12.619  -1.864  1.9725  0.7005 -0.6606
  168MOL0     H22156  12.556  12.588  -1.932  2.7622 -1.2159  0.2871
  168MOL0     H22157  12.539  12.422  -1.999  2.6048  0.1387  1.4389
  168MOL0     H22158  11.893  11.870  -1.608  0.5749  2.6046 -1.6503
  168MOL0     H22159  11.915  11.741  -1.398  0.7914  0.7771 -3.9943
  168MOL0     H22160  12.278  11.621  -1.073  2.0533  1.3245  1.4823
  168MOL0     H22161  12.322  11.543  -0.866 -0.3579  0.0889  0.7358
  168MOL0     H22162  11.673  10.452   0.305 -0.7720 -0.1625  1.6844
  168MOL0     H22163  11.435  10.420   0.330  3.9931  2.7559  0.4053
  168MOL0     H22164  11.072  10.122   0.378 -2.3066  1.0881  0.7298
  168MOL0     H22165  10.857  10.039   0.366  2.1461 -0.5894 -0.7383
  168MOL0     H22166  10.680   9.970  -0.014 -1.3072  0.1828 -0.9142
  168MOL0     H22167  10.587  10.112  -0.002 -1.9085 -0.6749  0.8135
  168MOL0     H22168  10.490   9.864   0.007 -2.7412 -0.5839 -0.1364
  168MOL0     H22169  10.481   9.908   0.186  1.5714  1.4491  0.4904
  168MOL0     H22170  10.262   9.979   0.085 -2.3570  4.3071  1.5848
  168MOL0     H22171  10.336  10.058  -0.038 -0.5652  0.5628  0.0209
  168MOL0     H22172  10.298  10.127   0.256 -1.5115  1.9495 -0.6830
  168MOL0     H22173  10.455  10.172   0.190  0.6351 -2.4153 -0.2054
  168MOL0     H22174  10.155  10.409   0.001  1.2881 -0.8746 -1.6284
  168MOL0     H22175  10.809  10.180  -0.037 -0.6231 -1.6051  0.3205
  168MOL0     H22176  11.056  10.241  -0.031 -0.7168  1.6497 -0.0115
  169MOL0     O22177   7.204   4.833   9.167 -0.3214 -0.2957 -0.0309
  169MOL0     C22178   7.278   4.807   9.070  0.0372  0.1743  0.4213
  169MOL0     O22179   7.402   4.856   9.050  0.3495  0.6361 -0.7274
  169MOL0     C22180   7.465   4.913   9.158  0.3336  0.5017 -0.8249
  169MOL0     C22181   7.473   5.049   9.175 -0.4538  0.1819 -0.0019
  169MOL0     C22182   7.557   5.112   9.273 -0.1884  0.7586 -0.4968
  169MOL0     C22183   7.618   5.023   9.358  0.6221  1.0107 -1.4117
  169MOL0     O22184   7.705   5.078   9.448 -0.4010  0.2047  0.5518
  169MOL0     C22185   7.801   5.002   9.522  0.5569 -0.2973 -0.6184
  169MOL0     C22186   7.903   5.093   9.595  0.7124  0.6299 -0.3200
  169MOL0     C22187   7.969   5.016   9.699 -0.7766  1.0037 -0.5465
  169MOL0     C22188   8.074   5.106   9.772 -0.1316  0.6621  0.2515
  169MOL0     C22189   8.060   5.119   9.918  0.3001  0.1531  0.5344
  169MOL0     C22190   8.194   5.087   9.990 -0.5200 -0.6131 -0.5220
  169MOL0     C22191   8.165   5.033  10.127 -0.4195  0.8983  0.5020
  169MOL0     C22192   8.299   4.980  10.201  0.0431  0.9036  0.3921
  169MOL0     N22193   8.348   4.847  10.140 -0.6711  0.0888 -0.3996
  169MOL0     C22194   8.476   4.785  10.154  0.1542  0.2931  0.6801
  169MOL0     C22195   8.450   4.649  10.150 -1.4269 -0.3845 -1.2488
  169MOL0     C22196   8.552   4.538  10.172  0.4006 -0.8378  0.3554
  169MOL0     C22197   8.541   4.429  10.061 -0.1163  1.1517 -0.1589
  169MOL0     C22198   8.524   4.286  10.111 -0.1496 -0.0652  0.1457
  169MOL0     C22199   8.433   4.266  10.234  0.2292 -0.8410  0.8590
  169MOL0     O22200   8.341   4.156  10.223  0.0454  0.1740  0.1573
  169MOL0     C22201   8.307   4.085  10.334 -0.6891  0.3446 -0.1305
  169MOL0     C22202   8.242   3.962  10.322 -0.8698  0.6604 -0.2383
  169MOL0     C22203   8.193   3.901  10.442 -0.5686 -1.0878  0.5863
  169MOL0     C22204   8.215   3.966  10.567 -0.1763  0.2469 -0.4837
  169MOL0     C22205   8.158   3.921  10.695  0.4949  0.4537  0.1928
  169MOL0     O22206   8.169   4.007  10.804  0.5524 -0.0265 -0.4113
  169MOL0     C22207   8.118   3.979  10.931  0.7696 -0.3490  0.1323
  169MOL0     C22208   8.185   4.025  11.040  0.2151  0.0588 -0.0685
  169MOL0     C22209   8.140   4.012  11.167 -0.4369 -1.0279  0.2800
  169MOL0     C22210   8.015   3.952  11.189  0.1948 -0.5314  0.5724
  169MOL0     O22211   7.968   3.965  11.313 -0.3360  0.2885  0.2416
  169MOL0     C22212   7.831   3.985  11.331  0.2111  1.0482 -0.8766
  169MOL0     C22213   7.817   4.056  11.463 -0.2492 -0.8353 -0.4510
  169MOL0     C22214   7.839   3.983  11.595  0.1717 -0.7613 -0.1606
  169MOL0     C22215   7.793   3.841  11.603  0.3339  0.1944  0.0309
  169MOL0     C22216   7.726   3.801  11.730  0.2846  0.9572 -0.0259
  169MOL0     C22217   7.591   3.872  11.758 -0.6727 -0.5175  0.4866
  169MOL0     C22218   7.529   3.815  11.883 -0.3459  0.4392  0.4560
  169MOL0     C22219   7.459   3.685  11.852  1.3639  0.2460  0.0944
  169MOL0    Cl22220   7.315   3.697  11.745  0.1040 -0.3173 -0.1328
  169MOL0     C22221   7.957   3.885  11.080 -0.4724 -0.4872  0.7580
  169MOL0     C22222   7.997   3.907  10.947 -1.0564 -0.1241 -0.3200
  169MOL0     O22223   8.134   3.799  10.710  0.8157  0.1009  0.1187
  169MOL0     C22224   8.301   4.077  10.575  0.1755 -0.2472 -0.0268
  169MOL0     C22225   8.339   4.134  10.456  0.8053  0.6521  0.6292
  169MOL0     N22226   8.315   4.627  10.124  1.1073 -0.7234 -0.5469
  169MOL0     N22227   8.256   4.751  10.110  0.7968 -0.2055  0.0031
  169MOL0     C22228   7.599   4.886   9.357 -0.1318  0.6363 -0.4003
  169MOL0     C22229   7.529   4.835   9.255 -0.5202  0.8483 -0.2862
  169MOL0     C22230   7.225   4.740   8.949  0.1640 -0.0836 -0.7442
  169MOL0     C22231   7.288   4.758   8.824 -0.0892 -0.5396 -0.4677
  169MOL0     C22232   7.233   4.691   8.707  0.6543 -0.4096 -0.1375
  169MOL0     C22233   7.118   4.609   8.714  0.3241 -0.2286  0.0858
  169MOL0     O22234   7.067   4.537   8.613  0.0551  0.6171  1.0909
  169MOL0     C22235   7.072   4.610   8.486 -1.3247  0.4887  1.0639
  169MOL0     C22236   7.028   4.533   8.375  1.0064 -0.7093  0.8074
  169MOL0     C22237   6.881   4.502   8.406  0.3144 -0.0268  0.2191
  169MOL0     C22238   6.784   4.484   8.292  0.7011  0.3325  0.0691
  169MOL0     C22239   6.841   4.392   8.182 -0.8283 -0.4674  0.2147
  169MOL0     C22240   6.889   4.337   8.089  0.4623  0.7617 -0.5437
  169MOL0     C22241   7.056   4.601   8.840 -0.6716 -0.3812 -0.5789
  169MOL0     C22242   7.112   4.665   8.955  1.0524 -0.0442  0.0982
  169MOL0     H22243   7.423   5.106   9.098  1.8733  1.3014 -0.7580
  169MOL0     H22244   7.567   5.220   9.281  0.0928  0.6064  2.1918
  169MOL0     H22245   7.858   4.930   9.463  0.5183 -2.3665  1.7162
  169MOL0     H22246   7.741   4.939   9.588 -0.1084 -3.1029 -3.6681
  169MOL0     H22247   7.848   5.171   9.649  1.6102  1.4494 -0.5569
  169MOL0     H22248   7.970   5.141   9.523  2.5844  0.0963  0.9798
  169MOL0     H22249   8.018   4.924   9.666  1.3340  0.5569  3.2383
  169MOL0     H22250   7.900   4.968   9.769  0.8253 -6.3182 -3.0744
  169MOL0     H22251   8.170   5.061   9.745  0.1731 -0.1878  2.5916
  169MOL0     H22252   8.070   5.203   9.721  0.9723 -0.6404 -2.5343
  169MOL0     H22253   7.981   5.053   9.955  0.3060 -0.2249 -0.1199
  169MOL0     H22254   8.031   5.223   9.937  2.8791  0.4659  3.4777
  169MOL0     H22255   8.262   5.173   9.991  0.2447 -1.2055  0.3682
  169MOL0     H22256   8.254   5.017   9.932  2.1393 -0.1630  1.4618
  169MOL0     H22257   8.121   5.106  10.196 -2.8088 -1.2328  1.4148
  169MOL0     H22258   8.095   4.949  10.129 -0.1680  0.6398  3.7096
  169MOL0     H22259   8.270   4.943  10.299 -1.6336 -1.3528 -0.8471
  169MOL0     H22260   8.374   5.058  10.216  0.6012  0.6011 -0.7441
  169MOL0     H22261   8.568   4.835  10.185  0.2237  0.3509  0.3800
  169MOL0     H22262   8.546   4.509  10.277 -1.4314  1.1969  0.8887
  169MOL0     H22263   8.651   4.581  10.158 -0.1946  0.4189 -0.1558
  169MOL0     H22264   8.624   4.435   9.990  1.0273 -1.4404  0.8434
  169MOL0     H22265   8.453   4.455  10.001  1.1157 -0.4423 -2.8678
  169MOL0     H22266   8.488   4.223  10.030 -2.7728  0.9569  0.4108
  169MOL0     H22267   8.629   4.264  10.132 -0.6419 -2.2161  0.6088
  169MOL0     H22268   8.378   4.351  10.275 -2.5642 -0.9393 -2.2893
  169MOL0     H22269   8.503   4.240  10.314  1.4487 -1.3376 -0.3425
  169MOL0     H22270   8.220   3.928  10.221 -0.6504  0.9502 -0.3867
  169MOL0     H22271   8.144   3.804  10.429  4.4102 -3.5374 -3.2850
  169MOL0     H22272   8.281   4.074  11.022  1.1028 -0.4112  2.8238
  169MOL0     H22273   8.187   4.068  11.246  0.0722  0.2156 -0.8672
  169MOL0     H22274   7.775   3.891  11.337 -0.4369  1.5144  1.0131
  169MOL0     H22275   7.791   4.047  11.251  5.2348 -0.8652 -5.4983
  169MOL0     H22276   7.712   4.087  11.461 -0.3743 -1.2541 -0.6052
  169MOL0     H22277   7.880   4.145  11.470 -0.0756 -1.0505  1.4217
  169MOL0     H22278   7.788   4.045  11.670  0.1618 -1.0823  0.1009
  169MOL0     H22279   7.945   3.978  11.624  0.5487  0.9016 -1.1106
  169MOL0     H22280   7.722   3.811  11.526  0.7777 -2.0371  0.4215
  169MOL0     H22281   7.882   3.778  11.599  2.7200  3.2220  1.0022
  169MOL0     H22282   7.780   3.823  11.823 -2.4815 -0.1981  2.0222
  169MOL0     H22283   7.706   3.694  11.722 -1.5712  1.1861  0.7833
  169MOL0     H22284   7.529   3.866  11.668  1.6049 -0.6515 -1.1810
  169MOL0     H22285   7.613   3.977  11.779 -0.8963 -0.1710 -0.9179
  169MOL0     H22286   7.602   3.801  11.964 -0.2764  0.3814  0.3841
  169MOL0     H22287   7.456   3.892  11.910 -1.9252 -0.0948 -2.0011
  169MOL0     H22288   7.431   3.641  11.948  2.2556 -1.6545 -0.4643
  169MOL0     H22289   7.527   3.614  11.804 -0.4894  0.1838 -2.7138
  169MOL0     H22290   7.861   3.839  11.099 -0.7353  0.4225  1.7214
  169MOL0     H22291   7.932   3.866  10.870 -0.6997  2.2040 -1.9426
  169MOL0     H22292   8.327   4.130  10.665  1.7872 -1.4986  0.2762
  169MOL0     H22293   8.393   4.228  10.462  0.0770  1.6166 -4.0338
  169MOL0     H22294   7.651   4.808   9.410 -0.6316  0.1879 -0.5630
  169MOL0     H22295   7.523   4.726   9.256 -2.6730  0.9011  1.7659
  169MOL0     H22296   7.369   4.823   8.795  0.4089 -0.2725  1.3755
  169MOL0     H22297   7.284   4.710   8.613  2.3837  0.1339  0.8580
  169MOL0     H22298   7.180   4.622   8.469 -1.3709  2.0323  1.7499
  169MOL0     H22299   7.039   4.714   8.494  2.2688  1.6421  3.5124
  169MOL0     H22300   7.027   4.596   8.286 -0.8740  1.8373  2.4978
  169MOL0     H22301   7.082   4.439   8.360  1.0537 -0.5030 -0.4047
  169MOL0     H22302   6.838   4.576   8.474  3.6414  2.0604  0.2833
  169MOL0     H22303   6.882   4.410   8.465  2.7447  0.4372  1.0183
  169MOL0     H22304   6.683   4.455   8.322 -0.3848  2.1745 -1.5839
  169MOL0     H22305   6.762   4.582   8.249 -1.8561 -0.8185 -1.4748
  169MOL0     H22306   6.944   4.276   8.019  1.0419 -0.5555  1.0035
  169MOL0     H22307   6.971   4.537   8.860 -1.4360  0.2181 -1.8092
  169MOL0     H22308   7.073   4.635   9.052  0.9519 -3.2763 -0.8007
  170MOL0     O22309   0.889   2.033   1.109 -0.5208  0.4932  0.1430
  170MOL0     C22310   0.945   2.087   1.205  1.0107  0.2320  0.2560
  170MOL0     O22311   1.072   2.062   1.248  0.6119  0.0707 -0.5638
  170MOL0     C22312   1.165   1.991   1.182 -0.4187  0.1106  0.3212
  170MOL0     C22313   1.181   1.991   1.042  0.2590 -0.5320 -0.6778
  170MOL0     C22314   1.282   1.913   0.987  0.3428 -0.8101  0.6238
  170MOL0     C22315   1.375   1.832   1.061  0.0886 -0.4401  0.1353
  170MOL0     O22316   1.458   1.761   0.990  0.5653 -0.1770 -0.3477
  170MOL0     C22317   1.503   1.633   1.047 -0.3509 -0.1887 -0.1946
  170MOL0     C22318   1.569   1.570   0.925 -0.0015 -0.5747 -0.0415
  170MOL0     C22319   1.669   1.460   0.955  0.5528  1.8849 -0.0933
  170MOL0     C22320   1.808   1.498   0.993 -0.7395 -0.1301  0.4753
  170MOL0     C22321   1.891   1.381   1.049 -0.3340  0.4606 -0.6998
  170MOL0     C22322   2.033   1.415   1.100  0.1871 -1.0871  0.7693
  170MOL0     C22323   2.130   1.422   0.975 -0.4474  0.2622  0.2539
  170MOL0     C22324   2.270   1.421   1.021  0.6137  0.0008 -0.3780
  170MOL0     N22325   2.292   1.532   1.109  0.1343 -0.4237 -0.1338
  170MOL0     C22326   2.319   1.526   1.252  1.0018  0.1533  0.5982
  170MOL0     C22327   2.331   1.648   1.293 -0.2423 -0.6629  0.4337
  170MOL0     C22328   2.374   1.692   1.431 -1.1099  0.6013  0.4580
  170MOL0     C22329   2.518   1.650   1.450  0.0359 -0.0789 -0.2634
  170MOL0     C22330   2.578   1.711   1.573 -0.1166  1.0325 -0.7054
  170MOL0     C22331   2.739   1.696   1.569 -0.9892 -0.4072 -0.4068
  170MOL0     O22332   2.798   1.743   1.693  0.3503 -0.8903  0.1436
  170MOL0     C22333   2.792   1.879   1.731 -1.0356 -0.4050 -1.2103
  170MOL0     C22334   2.806   1.906   1.868 -0.2119  0.0691  0.2473
  170MOL0     C22335   2.816   2.037   1.917  0.1744  0.4591  0.1685
  170MOL0     C22336   2.790   2.144   1.828 -0.2958  0.6937 -0.4601
  170MOL0     C22337   2.757   2.287   1.879  0.0091 -0.3494 -0.1983
  170MOL0     O22338   2.769   2.317   2.013  0.1167 -0.5410  0.1728
  170MOL0     C22339   2.751   2.439   2.071 -1.3161  0.4261 -1.0358
  170MOL0     C22340   2.767   2.567   2.019 -1.1879  0.3647  0.0399
  170MOL0     C22341   2.735   2.686   2.097 -0.1104 -0.0350  0.0369
  170MOL0     C22342   2.677   2.674   2.222 -0.3696  0.9441 -0.2697
  170MOL0     O22343   2.639   2.787   2.291 -0.0344  0.2647 -0.3192
  170MOL0     C22344   2.740   2.891   2.301  0.1413 -0.5708 -0.3771
  170MOL0     C22345   2.707   2.953   2.439 -0.0183 -0.4721  0.5569
  170MOL0     C22346   2.829   3.018   2.492 -0.6785 -0.2010 -0.6739
  170MOL0     C22347   2.864   3.002   2.638  0.1477 -0.6073  0.2088
  170MOL0     C22348   2.953   2.884   2.675 -0.3358  0.7644 -0.0041
  170MOL0     C22349   2.985   2.879   2.825  0.1993 -0.4479 -0.5780
  170MOL0     C22350   3.091   2.762   2.841  0.1240 -0.9727 -0.1680
  170MOL0     C22351   3.082   2.698   2.977 -0.6844 -0.1081  0.9444
  170MOL0    Cl22352   3.141   2.521   2.976 -0.2044  0.2237  0.5001
  170MOL0     C22353   2.663   2.548   2.273 -0.6594 -0.0266 -1.4190
  170MOL0     C22354   2.697   2.436   2.196  0.3529  0.9331 -0.0502
  170MOL0     O22355   2.728   2.369   1.792 -0.6245  0.4299 -0.1820
  170MOL0     C22356   2.776   2.120   1.693  0.2351 -0.3686  0.1920
  170MOL0     C22357   2.774   1.986   1.645 -0.0057 -0.7567  0.3957
  170MOL0     N22358   2.306   1.734   1.181 -1.0224  0.7156  0.2437
  170MOL0     N22359   2.295   1.660   1.079 -0.6141  0.2617  0.9912
  170MOL0     C22360   1.349   1.819   1.199  0.0860  0.0969  0.1056
  170MOL0     C22361   1.243   1.893   1.260  0.8713 -0.8613  0.6611
  170MOL0     C22362   0.859   2.151   1.307 -0.0645 -0.1854 -0.7906
  170MOL0     C22363   0.730   2.118   1.333  0.0851  0.6573  0.1390
  170MOL0     C22364   0.653   2.167   1.440  0.2148  0.1987 -0.1803
  170MOL0     C22365   0.716   2.258   1.529  0.4567  0.1351  0.3735
  170MOL0     O22366   0.660   2.313   1.645  0.1922  1.1416  0.4136
  170MOL0     C22367   0.538   2.241   1.699  0.9979 -0.2427  1.1708
  170MOL0     C22368   0.571   2.108   1.762 -0.1441 -0.5839 -0.2488
  170MOL0     C22369   0.455   2.050   1.846 -0.4340 -0.3296 -0.3098
  170MOL0     C22370   0.491   2.039   1.992 -0.5358  0.7023 -0.3444
  170MOL0     C22371   0.544   2.152   2.070 -0.2330  0.0258  0.2214
  170MOL0     C22372   0.577   2.259   2.126 -0.6669 -0.7519 -0.0980
  170MOL0     C22373   0.847   2.294   1.500 -1.2349  0.3579 -0.5741
  170MOL0     C22374   0.911   2.250   1.391 -0.7320  0.4080  0.3886
  170MOL0     H22375   1.108   2.045   0.982  0.4212  0.1712 -0.2483
  170MOL0     H22376   1.272   1.897   0.880 -1.5419 -0.9696  0.7897
  170MOL0     H22377   1.416   1.573   1.075 -0.0403 -1.0308 -0.9657
  170MOL0     H22378   1.570   1.636   1.133  0.4344  2.1226 -0.8163
  170MOL0     H22379   1.629   1.644   0.870  0.5983 -0.5559  0.6287
  170MOL0     H22380   1.493   1.532   0.856  1.0989 -0.8145 -1.1619
  170MOL0     H22381   1.670   1.387   0.874  3.0721 -0.9416  2.2434
  170MOL0     H22382   1.629   1.394   1.032  0.1270  2.0753 -0.1469
  170MOL0     H22383   1.853   1.535   0.900 -0.6583 -2.5374 -0.5157
  170MOL0     H22384   1.800   1.573   1.072 -1.4949 -0.7394  0.9916
  170MOL0     H22385   1.905   1.304   0.972 -0.2740 -1.8102  1.4748
  170MOL0     H22386   1.837   1.337   1.133 -0.3782 -0.2286 -1.0857
  170MOL0     H22387   2.069   1.326   1.151  0.6328 -0.4808  1.5328
  170MOL0     H22388   2.039   1.481   1.187  3.8626 -2.8042  2.0280
  170MOL0     H22389   2.115   1.330   0.917  0.0868 -0.1452  0.7485
  170MOL0     H22390   2.114   1.494   0.894  0.5317 -1.3551 -1.4485
  170MOL0     H22391   2.336   1.424   0.934 -1.0959 -2.4244 -1.8763
  170MOL0     H22392   2.287   1.334   1.085  2.1038 -0.0749 -0.8425
  170MOL0     H22393   2.314   1.433   1.306 -3.8340  0.4007  1.0324
  170MOL0     H22394   2.306   1.642   1.500  0.7440  0.9248  2.5986
  170MOL0     H22395   2.364   1.800   1.445  0.7839  1.5870 -4.0430
  170MOL0     H22396   2.574   1.677   1.361  1.3103 -0.1199  0.5040
  170MOL0     H22397   2.518   1.541   1.456  0.5804 -0.0655 -0.0382
  170MOL0     H22398   2.550   1.817   1.574 -0.6050  1.0266 -3.6227
  170MOL0     H22399   2.528   1.672   1.661  0.2967  0.6418 -0.6418
  170MOL0     H22400   2.774   1.753   1.482  0.5181 -1.2400 -0.3760
  170MOL0     H22401   2.771   1.592   1.576 -0.4615 -0.1469  1.6919
  170MOL0     H22402   2.832   1.830   1.942 -0.5029  0.4550  0.7467
  170MOL0     H22403   2.833   2.046   2.023 -0.6165 -2.4538  0.6420
  170MOL0     H22404   2.814   2.570   1.921 -2.0595 -2.5565 -0.5853
  170MOL0     H22405   2.744   2.783   2.048 -2.7899 -0.1602 -0.8363
  170MOL0     H22406   2.733   2.970   2.226 -0.4045  1.7641  1.9736
  170MOL0     H22407   2.844   2.860   2.305  0.5430  0.6732 -0.8196
  170MOL0     H22408   2.676   2.866   2.497  0.4105  0.7414  2.7086
  170MOL0     H22409   2.636   3.033   2.414 -0.1339  0.2862  3.0248
  170MOL0     H22410   2.814   3.124   2.469 -1.9831 -0.5037 -1.2779
  170MOL0     H22411   2.923   2.983   2.448 -1.0866 -1.7075 -0.4051
  170MOL0     H22412   2.931   3.085   2.661 -0.2281 -0.7455  1.9408
  170MOL0     H22413   2.772   3.016   2.694 -0.8499  0.0769 -1.5182
  170MOL0     H22414   3.045   2.872   2.616 -0.6947 -1.3866 -0.2137
  170MOL0     H22415   2.906   2.792   2.638 -1.3716  1.6959 -1.0949
  170MOL0     H22416   2.885   2.863   2.867 -1.0212  1.3114 -2.6307
  170MOL0     H22417   3.035   2.970   2.857  2.9261 -1.4911 -1.6237
  170MOL0     H22418   3.056   2.678   2.780 -2.4885 -0.0500 -0.0777
  170MOL0     H22419   3.190   2.777   2.799  0.3070 -1.5815  0.0323
  170MOL0     H22420   2.980   2.711   3.014 -1.1496  0.6428 -0.5108
  170MOL0     H22421   3.151   2.753   3.042 -1.1057  1.3740  0.1858
  170MOL0     H22422   2.620   2.518   2.368  2.6267 -0.6194 -0.0044
  170MOL0     H22423   2.667   2.335   2.221 -0.7640  1.1412 -0.4966
  170MOL0     H22424   2.754   2.201   1.624 -0.0154  0.0377  0.7448
  170MOL0     H22425   2.754   1.981   1.539 -5.0178 -1.1723  1.0955
  170MOL0     H22426   1.401   1.740   1.253 -2.8043 -1.5433  0.6861
  170MOL0     H22427   1.211   1.890   1.364 -1.5418  0.2112  0.0064
  170MOL0     H22428   0.701   2.035   1.270  2.5543  1.3897 -2.1594
  170MOL0     H22429   0.549   2.136   1.447  1.2832 -3.3933  3.0553
  170MOL0     H22430   0.473   2.225   1.613  1.8868  2.2417 -0.0636
  170MOL0     H22431   0.490   2.302   1.776 -1.7061  0.6662 -1.0535
  170MOL0     H22432   0.596   2.034   1.685  3.7837 -0.7062  0.9488
  170MOL0     H22433   0.655   2.114   1.831  1.6562  0.3751 -2.3985
  170MOL0     H22434   0.424   1.949   1.814 -3.7476 -1.0738  4.2068
  170MOL0     H22435   0.369   2.117   1.844 -0.4066 -0.2334  0.8346
  170MOL0     H22436   0.399   2.006   2.043  0.9410 -1.1993  1.2414
  170MOL0     H22437   0.553   1.950   2.007 -0.0171  1.1464  0.1669
  170MOL0     H22438   0.608   2.351   2.173  2.1731 -2.1007  0.9089
  170MOL0     H22439   0.888   2.373   1.563  1.6226 -0.3099 -1.4562
  170MOL0     H22440   1.015   2.279   1.379  0.8289 -4.3481  0.3273
  171MOL0     O22441  10.945   2.841   6.813 -0.0802 -0.8366  0.2356
  171MOL0     C22442  10.890   2.740   6.839  0.4060  0.0736  1.3448
  171MOL0     O22443  10.764   2.735   6.903  0.4417 -0.4943  0.7681
  171MOL0     C22444  10.712   2.834   6.977 -0.1085  0.4734  1.2966
  171MOL0     C22445  10.589   2.800   7.033  0.5775 -0.4637 -0.2771
  171MOL0     C22446  10.523   2.880   7.129  0.9528  0.7890 -0.9107
  171MOL0     C22447  10.572   3.013   7.152 -0.1983  0.6892 -0.7419
  171MOL0     O22448  10.501   3.092   7.241  0.0861 -0.3133  1.0731
  171MOL0     C22449  10.370   3.150   7.211  0.3489 -0.4054  0.1555
  171MOL0     C22450  10.369   3.261   7.111 -0.5742 -0.1160  0.2509
  171MOL0     C22451  10.487   3.365   7.130  0.9286  0.7792 -0.1731
  171MOL0     C22452  10.480   3.435   7.264  0.1766 -0.2168  0.3706
  171MOL0     C22453  10.570   3.554   7.279  0.1644 -0.7923 -1.0989
  171MOL0     C22454  10.580   3.611   7.422  0.2044  0.6450 -0.0499
  171MOL0     C22455  10.594   3.763   7.423  0.2842 -0.5288  0.5794
  171MOL0     C22456  10.580   3.817   7.564  0.5553  0.0176  0.1402
  171MOL0     N22457  10.552   3.958   7.570 -0.3882  0.1567  0.1053
  171MOL0     C22458  10.487   4.009   7.676  0.2787  0.0459  0.2318
  171MOL0     C22459  10.448   4.131   7.644  0.3537 -0.1901 -0.6369
  171MOL0     C22460  10.356   4.216   7.714  0.4790  0.5883 -0.0865
  171MOL0     C22461  10.397   4.236   7.861  0.2608  0.1161  1.2454
  171MOL0     C22462  10.318   4.355   7.914  0.8184 -0.1823 -1.0094
  171MOL0     C22463  10.313   4.342   8.071 -0.1627  0.6146 -0.0362
  171MOL0     O22464  10.265   4.223   8.136  0.3550  0.1949 -0.4963
  171MOL0     C22465  10.135   4.197   8.116  0.2125  0.1043  0.8469
  171MOL0     C22466  10.116   4.061   8.091  0.1592  0.0492  0.3419
  171MOL0     C22467   9.976   4.029   8.067  0.1534 -0.2958 -0.2485
  171MOL0     C22468   9.867   4.114   8.082 -0.1042  0.5752  0.3148
  171MOL0     C22469   9.723   4.071   8.073  0.0689 -0.4202 -0.2507
  171MOL0     O22470   9.626   4.161   8.038 -0.9731  0.0024 -0.1354
  171MOL0     C22471   9.513   4.120   7.979 -0.1056 -0.2628 -0.3726
  171MOL0     C22472   9.405   4.074   8.059 -0.0398  0.3151 -0.1573
  171MOL0     C22473   9.302   4.001   8.000  0.3495 -0.3883  0.7250
  171MOL0     C22474   9.286   3.994   7.858 -0.0023 -0.8395  0.0961
  171MOL0     O22475   9.188   3.938   7.782 -0.4032 -0.0686  0.2366
  171MOL0     C22476   9.067   3.877   7.832 -0.9863 -0.0279 -0.5091
  171MOL0     C22477   8.952   3.984   7.851 -0.4511 -0.7218 -0.2081
  171MOL0     C22478   8.947   4.047   7.995  0.1939 -0.3758  1.4033
  171MOL0     C22479   8.937   3.940   8.113 -0.4244  0.6203 -0.3892
  171MOL0     C22480   8.914   4.011   8.255  0.3602  0.3338  0.4711
  171MOL0     C22481   8.894   3.901   8.370  0.6473 -0.1599 -0.6936
  171MOL0     C22482   8.855   3.955   8.516 -0.8681 -0.0137  1.3561
  171MOL0     C22483   8.778   3.859   8.600 -0.1140 -0.1897 -0.4498
  171MOL0    Cl22484   8.730   3.960   8.737  0.1289 -0.0712 -0.1273
  171MOL0     C22485   9.387   4.044   7.787 -0.2141 -0.3660  0.1101
  171MOL0     C22486   9.495   4.112   7.842 -1.1083  0.0266  0.3592
  171MOL0     O22487   9.704   3.956   8.114 -0.1874  0.0419 -0.0330
  171MOL0     C22488   9.897   4.242   8.117  0.9826  0.0742  0.6082
  171MOL0     C22489  10.028   4.284   8.131 -0.0533 -0.0363 -0.2382
  171MOL0     N22490  10.500   4.157   7.520  0.4456 -0.1246 -0.3142
  171MOL0     N22491  10.557   4.050   7.471  0.0373 -0.1510 -0.1803
  171MOL0     C22492  10.703   3.043   7.097  0.3904  0.4585 -0.8206
  171MOL0     C22493  10.776   2.954   7.014  0.3217  0.2696 -0.3888
  171MOL0     C22494  10.941   2.611   6.776 -0.3259  0.8058  0.7083
  171MOL0     C22495  10.881   2.486   6.809  0.2838  0.4103 -0.0866
  171MOL0     C22496  10.944   2.377   6.768 -0.1142  0.9656  0.0381
  171MOL0     C22497  11.064   2.375   6.694  0.6375  0.5185 -0.4915
  171MOL0     O22498  11.110   2.248   6.666  0.3045 -0.1911 -0.3782
  171MOL0     C22499  11.138   2.219   6.531 -0.0340  0.3973 -0.3625
  171MOL0     C22500  11.204   2.082   6.526 -0.4320  1.2830 -0.1286
  171MOL0     C22501  11.113   1.961   6.556 -0.6775 -0.8304 -0.1361
  171MOL0     C22502  11.187   1.817   6.536  0.0307  0.1051 -0.3496
  171MOL0     C22503  11.248   1.804   6.404 -0.0537 -0.1378  0.7139
  171MOL0     C22504  11.314   1.786   6.297 -0.2208 -0.5384  0.5579
  171MOL0     C22505  11.125   2.496   6.645  0.1922  1.7140 -0.1076
  171MOL0     C22506  11.069   2.612   6.706 -0.3351  0.4554 -0.4031
  171MOL0     H22507  10.544   2.702   7.016 -1.3212  0.4169 -0.5728
  171MOL0     H22508  10.439   2.859   7.194  1.7976  1.4960  0.4498
  171MOL0     H22509  10.327   3.197   7.300  0.7362  0.8035 -0.2883
  171MOL0     H22510  10.302   3.068   7.183 -5.1363  3.6783 -0.1404
  171MOL0     H22511  10.272   3.311   7.103  1.4813  4.0344 -2.4089
  171MOL0     H22512  10.389   3.224   7.010  1.0450  2.5317 -0.4878
  171MOL0     H22513  10.471   3.433   7.046 -2.2931 -0.8192 -1.0150
  171MOL0     H22514  10.577   3.304   7.127  1.0004  0.3837  4.1618
  171MOL0     H22515  10.377   3.451   7.296  0.6874 -1.1201  2.7229
  171MOL0     H22516  10.527   3.362   7.330  0.1647 -0.7246 -0.1807
  171MOL0     H22517  10.530   3.623   7.204 -0.0823 -0.6655 -0.8552
  171MOL0     H22518  10.674   3.527   7.261  0.9407  0.9506  0.3950
  171MOL0     H22519  10.672   3.574   7.468 -0.0012  0.3823  0.1499
  171MOL0     H22520  10.490   3.581   7.477  0.4349 -2.6571 -1.2545
  171MOL0     H22521  10.693   3.805   7.401 -0.0515 -0.2512 -0.4294
  171MOL0     H22522  10.531   3.808   7.346  1.3324 -1.8506 -1.1325
  171MOL0     H22523  10.683   3.802   7.598  1.8370  0.2329 -3.2904
  171MOL0     H22524  10.500   3.769   7.621  1.1408  1.0846  1.9435
  171MOL0     H22525  10.454   3.955   7.763  0.6735 -1.5302 -0.5704
  171MOL0     H22526  10.259   4.166   7.712  0.7409  0.0182  0.7046
  171MOL0     H22527  10.349   4.312   7.664  0.3093  0.0070 -1.2140
  171MOL0     H22528  10.505   4.253   7.864  0.0438  2.8668 -1.8363
  171MOL0     H22529  10.360   4.143   7.906 -1.8307 -0.3175 -1.1538
  171MOL0     H22530  10.354   4.457   7.896 -0.2436  1.0169  2.6619
  171MOL0     H22531  10.212   4.359   7.887 -0.1926  1.6821  2.6046
  171MOL0     H22532  10.254   4.432   8.090 -0.4431  1.1936 -3.1255
  171MOL0     H22533  10.418   4.355   8.098 -0.4674 -1.0326  2.2285
  171MOL0     H22534  10.198   3.995   8.063 -0.2309 -0.4607  0.4029
  171MOL0     H22535   9.957   3.929   8.029  1.1977 -1.2897  1.6874
  171MOL0     H22536   9.403   4.093   8.165  0.1563 -0.0415 -0.0909
  171MOL0     H22537   9.226   3.961   8.067  0.4092  1.8669  2.2391
  171MOL0     H22538   9.083   3.815   7.921 -0.8275  1.0404  0.2190
  171MOL0     H22539   9.030   3.812   7.752  0.6552 -0.0734 -1.2875
  171MOL0     H22540   8.856   3.938   7.827 -1.0369  1.2510 -2.0312
  171MOL0     H22541   8.972   4.057   7.772  1.9958  2.0040  2.6177
  171MOL0     H22542   8.855   4.104   7.990  0.7451  0.4347 -0.2694
  171MOL0     H22543   9.025   4.124   8.007 -1.7865  2.1567 -0.7915
  171MOL0     H22544   8.861   3.867   8.084 -1.8194  2.4449 -1.5639
  171MOL0     H22545   9.028   3.881   8.124 -2.5141 -3.0564 -1.1681
  171MOL0     H22546   8.822   4.070   8.249 -0.3276 -0.6678  0.7694
  171MOL0     H22547   9.003   4.070   8.275  1.4458 -0.8309 -0.7452
  171MOL0     H22548   8.983   3.839   8.380  0.1757 -0.5082  2.3306
  171MOL0     H22549   8.820   3.835   8.323  4.7342 -4.3089 -1.9742
  171MOL0     H22550   8.939   3.991   8.576  0.9997  4.0683 -3.0310
  171MOL0     H22551   8.800   4.044   8.485 -0.7172 -0.4587 -0.2832
  171MOL0     H22552   8.838   3.776   8.639 -1.2123  1.1408  4.7339
  171MOL0     H22553   8.683   3.826   8.556 -2.1687  0.9007  2.8098
  171MOL0     H22554   9.372   4.051   7.680  1.2428  1.4450 -0.0384
  171MOL0     H22555   9.570   4.147   7.773 -0.1235 -0.7407  1.0038
  171MOL0     H22556   9.816   4.307   8.148 -1.2841 -2.2717 -0.0609
  171MOL0     H22557  10.034   4.389   8.155 -1.9744  0.1821 -0.5508
  171MOL0     H22558  10.754   3.136   7.123  3.4920 -1.2661 -0.3229
  171MOL0     H22559  10.869   2.987   6.969 -0.9434 -2.5114 -5.8430
  171MOL0     H22560  10.788   2.484   6.864 -0.4624  0.3783 -1.3094
  171MOL0     H22561  10.894   2.283   6.791  1.3109 -0.3687 -1.9764
  171MOL0     H22562  11.213   2.285   6.486 -0.6694 -0.1173 -2.2619
  171MOL0     H22563  11.055   2.208   6.462 -0.7685  3.2214 -0.0282
  171MOL0     H22564  11.249   2.056   6.430 -1.6689 -0.0023 -0.3940
  171MOL0     H22565  11.291   2.085   6.592 -2.1728  0.7898  2.3523
  171MOL0     H22566  11.016   1.965   6.504 -1.8582 -3.0200  1.7518
  171MOL0     H22567  11.078   1.964   6.659 -3.5589 -0.9013 -1.0047
  171MOL0     H22568  11.263   1.796   6.611 -2.0473  0.5687  2.0367
  171MOL0     H22569  11.113   1.742   6.565  1.4202 -0.4955  1.8281
  171MOL0     H22570  11.366   1.766   6.205 -2.8737 -2.1152 -0.7342
  171MOL0     H22571  11.224   2.505   6.600  1.2521 -0.1251  1.7302
  171MOL0     H22572  11.122   2.706   6.697  0.3331  0.7441  4.1781
  172MOL0     O22573   2.975   1.311   4.468 -0.6484  0.0616 -0.3613
  172MOL0     C22574   2.915   1.281   4.571 -0.1265 -0.5455  0.8552
  172MOL0     O22575   2.837   1.359   4.652  0.6315  0.5029  0.7028
  172MOL0     C22576   2.829   1.496   4.624  1.2891  0.5069  0.4604
  172MOL0     C22577   2.716   1.547   4.561  0.2129  0.0753  0.6045
  172MOL0     C22578   2.728   1.681   4.514  0.0479  0.0727 -0.5051
  172MOL0     C22579   2.831   1.766   4.549  0.3795  0.3236  1.0225
  172MOL0     O22580   2.810   1.897   4.516 -0.7355 -0.6443 -0.1750
  172MOL0     C22581   2.889   1.993   4.576 -0.5815  1.0176  0.6486
  172MOL0     C22582   2.826   2.129   4.572 -0.4980  0.0084  0.3304
  172MOL0     C22583   2.734   2.157   4.679 -0.6615 -1.2637 -0.1373
  172MOL0     C22584   2.621   2.056   4.685 -0.1648  0.1018 -0.4022
  172MOL0     C22585   2.531   2.034   4.562 -0.7780 -0.0318  0.1815
  172MOL0     C22586   2.479   2.167   4.503 -0.3982 -0.3743 -0.2424
  172MOL0     C22587   2.379   2.242   4.586  0.4319 -0.2217  0.4601
  172MOL0     C22588   2.251   2.167   4.592  1.4084  1.1520  0.2757
  172MOL0     N22589   2.188   2.164   4.453  0.3291 -0.1652 -0.2616
  172MOL0     C22590   2.185   2.060   4.366 -1.2445 -0.2470  0.4361
  172MOL0     C22591   2.077   2.078   4.289 -0.5183 -0.5089 -0.6396
  172MOL0     C22592   2.032   1.991   4.176 -1.5189 -0.0959  0.1419
  172MOL0     C22593   2.030   2.091   4.045 -0.2573  1.7245 -0.6591
  172MOL0     C22594   1.932   2.046   3.940  1.3272  0.0069  0.1561
  172MOL0     C22595   1.791   2.040   3.994 -0.5206 -0.4270  0.0410
  172MOL0     O22596   1.718   1.949   3.914 -0.1372 -0.1464  0.1812
  172MOL0     C22597   1.644   1.991   3.806  0.5055  0.2381 -0.4264
  172MOL0     C22598   1.605   2.120   3.785  0.6272 -1.8914  0.6599
  172MOL0     C22599   1.563   2.165   3.658  0.8478  0.1905 -0.3513
  172MOL0     C22600   1.535   2.072   3.558  0.6809  0.5107 -0.9867
  172MOL0     C22601   1.462   2.119   3.431  0.5227 -0.8864 -0.5361
  172MOL0     O22602   1.397   2.238   3.439  0.1988 -0.6101  0.0976
  172MOL0     C22603   1.355   2.293   3.317  0.0990 -0.3960 -0.2604
  172MOL0     C22604   1.287   2.231   3.206 -0.3260  1.1198  0.0457
  172MOL0     C22605   1.266   2.299   3.085  0.4452 -0.2996 -0.4723
  172MOL0     C22606   1.298   2.433   3.076 -0.0828  0.6913 -0.1319
  172MOL0     O22607   1.278   2.487   2.958  0.1909  0.4490  0.9767
  172MOL0     C22608   1.332   2.616   2.933  0.6641 -0.7915  0.5874
  172MOL0     C22609   1.270   2.648   2.794  0.2643 -1.2541 -0.2596
  172MOL0     C22610   1.340   2.765   2.721  0.0937  0.0402  0.3033
  172MOL0     C22611   1.356   2.888   2.804  0.0222  0.7112  0.2853
  172MOL0     C22612   1.399   3.003   2.718 -0.5897 -0.6399 -0.5525
  172MOL0     C22613   1.338   3.122   2.788  1.1891 -0.3421  1.0469
  172MOL0     C22614   1.397   3.154   2.927 -0.1181  0.2319  0.1391
  172MOL0     C22615   1.339   3.278   2.977 -0.0462 -0.6109 -0.3746
  172MOL0    Cl22616   1.179   3.270   3.045  0.6667  0.3260 -0.0770
  172MOL0     C22617   1.353   2.498   3.188  0.2428  0.5169 -0.5767
  172MOL0     C22618   1.376   2.433   3.313  0.0227 -0.1599 -0.5336
  172MOL0     O22619   1.453   2.043   3.339 -0.0214  0.2159  1.7531
  172MOL0     C22620   1.557   1.934   3.591 -0.7198  0.0068  0.6396
  172MOL0     C22621   1.616   1.897   3.708  0.1773  0.3807  0.2439
  172MOL0     N22622   2.007   2.181   4.338 -0.3920 -0.0087  0.1727
  172MOL0     N22623   2.070   2.227   4.442  0.0042 -0.2583  0.2915
  172MOL0     C22624   2.933   1.724   4.632 -0.8624  0.2697  0.4084
  172MOL0     C22625   2.934   1.587   4.663  0.4514  0.0181  0.5843
  172MOL0     C22626   2.933   1.149   4.619 -0.6356 -0.1645  0.9309
  172MOL0     C22627   3.060   1.087   4.629 -0.0106  0.0131 -0.0004
  172MOL0     C22628   3.076   0.955   4.683 -0.3346  0.1530  0.6642
  172MOL0     C22629   2.971   0.886   4.738 -0.5136 -0.1350 -0.4810
  172MOL0     O22630   2.992   0.762   4.787  0.1322  0.0398  0.0538
  172MOL0     C22631   2.937   0.732   4.916 -0.1728  0.1614 -0.8822
  172MOL0     C22632   2.989   0.825   5.029  0.0493 -0.1350  0.0383
  172MOL0     C22633   3.144   0.832   5.037  0.6652 -0.2286  0.5834
  172MOL0     C22634   3.212   0.714   5.093 -0.5780  0.6731 -0.8289
  172MOL0     C22635   3.179   0.685   5.228 -0.6750 -0.6103  0.6372
  172MOL0     C22636   3.137   0.668   5.337  0.2660 -0.0810  0.1794
  172MOL0     C22637   2.843   0.945   4.725  0.3210 -0.1263  0.4092
  172MOL0     C22638   2.823   1.073   4.660 -0.3623 -0.5342 -0.0060
  172MOL0     H22639   2.626   1.489   4.542 -0.0020 -0.1853  2.2978
  172MOL0     H22640   2.644   1.721   4.458  0.1155  0.9892  0.0307
  172MOL0     H22641   2.987   2.001   4.527 -1.2341  0.1091 -0.8640
  172MOL0     H22642   2.911   1.970   4.680 -0.1658 -2.8860 -0.1483
  172MOL0     H22643   2.771   2.139   4.478  1.0363  0.9364 -0.5148
  172MOL0     H22644   2.907   2.202   4.563  1.7479 -2.5479 -2.2754
  172MOL0     H22645   2.692   2.258   4.672 -1.3180 -1.4817  0.4715
  172MOL0     H22646   2.788   2.144   4.774  0.2415 -0.4088 -0.5269
  172MOL0     H22647   2.649   1.955   4.716 -1.3533 -0.4896 -1.2422
  172MOL0     H22648   2.566   2.095   4.771  1.3789  2.1699 -0.2492
  172MOL0     H22649   2.444   1.969   4.576 -0.0412 -1.5328 -1.8503
  172MOL0     H22650   2.595   1.983   4.490  3.9785  1.3287  3.0402
  172MOL0     H22651   2.445   2.156   4.400  1.1719 -2.2187 -0.6079
  172MOL0     H22652   2.558   2.242   4.490 -0.7370 -0.4330 -3.0620
  172MOL0     H22653   2.415   2.276   4.684 -1.4770 -1.9914  1.8652
  172MOL0     H22654   2.366   2.327   4.519  1.4094 -0.0304  0.5113
  172MOL0     H22655   2.183   2.222   4.658  1.0782 -1.2374  2.0615
  172MOL0     H22656   2.255   2.065   4.631 -2.2180  1.2615  1.3570
  172MOL0     H22657   2.249   1.973   4.364 -1.3942 -0.3431 -1.7153
  172MOL0     H22658   1.940   1.935   4.193 -0.4786 -1.4386  1.5502
  172MOL0     H22659   2.115   1.921   4.169 -1.0274  0.5373 -0.5142
  172MOL0     H22660   2.127   2.090   3.996 -1.2935 -1.1180 -2.9738
  172MOL0     H22661   1.995   2.186   4.086 -1.9179  1.3732 -1.1825
  172MOL0     H22662   1.934   2.116   3.856  0.7458 -0.7775 -0.5315
  172MOL0     H22663   1.953   1.945   3.902  1.7893  0.1927 -0.0989
  172MOL0     H22664   1.759   2.145   3.995 -0.2417 -0.3249 -0.7130
  172MOL0     H22665   1.797   2.001   4.096  0.3114 -2.2385 -0.6730
  172MOL0     H22666   1.604   2.197   3.862 -0.3274 -1.4094  0.1850
  172MOL0     H22667   1.545   2.272   3.646 -0.5851 -0.2420 -2.5558
  172MOL0     H22668   1.252   2.129   3.221  4.5523 -0.4831  3.0454
  172MOL0     H22669   1.223   2.239   3.005 -0.4425  1.7619 -1.6103
  172MOL0     H22670   1.442   2.622   2.934  0.6000  4.2348 -0.1608
  172MOL0     H22671   1.282   2.688   2.998 -1.2489 -1.5834  0.0472
  172MOL0     H22672   1.164   2.673   2.806  0.7831  0.7823  0.3886
  172MOL0     H22673   1.269   2.552   2.741 -2.8496 -3.0289  2.5695
  172MOL0     H22674   1.273   2.794   2.639  2.0832 -1.2248 -1.8711
  172MOL0     H22675   1.437   2.726   2.688 -0.4741 -0.3133 -1.0304
  172MOL0     H22676   1.255   2.899   2.846 -2.1979 -1.2616 -3.8596
  172MOL0     H22677   1.429   2.864   2.882  2.8832 -0.9487 -2.6650
  172MOL0     H22678   1.382   3.003   2.610  0.4132  1.7959 -0.7812
  172MOL0     H22679   1.508   3.008   2.723 -0.6501 -0.1983  1.3051
  172MOL0     H22680   1.230   3.105   2.784  1.2856 -0.7658 -0.6989
  172MOL0     H22681   1.345   3.206   2.718  0.0921 -2.6830 -2.1403
  172MOL0     H22682   1.371   3.075   2.997  0.7584 -0.2597 -0.0754
  172MOL0     H22683   1.506   3.168   2.924 -0.1051 -0.0005 -0.4015
  172MOL0     H22684   1.338   3.355   2.899 -2.1217  2.7666  2.6565
  172MOL0     H22685   1.402   3.318   3.056 -0.2113 -0.2459 -0.4276
  172MOL0     H22686   1.379   2.601   3.166  1.6286  0.6076  1.2764
  172MOL0     H22687   1.408   2.480   3.406 -1.9075 -0.3720  0.2845
  172MOL0     H22688   1.543   1.849   3.525  1.5583  0.1607 -0.1716
  172MOL0     H22689   1.635   1.791   3.720 -0.2249  0.3292  0.4380
  172MOL0     H22690   2.992   1.786   4.699  0.3365 -0.1213 -0.2518
  172MOL0     H22691   3.012   1.553   4.729 -0.9322 -1.1444  1.7018
  172MOL0     H22692   3.141   1.149   4.592 -0.3978  0.2843 -0.3977
  172MOL0     H22693   3.175   0.911   4.684 -0.2085  0.3023 -1.6155
  172MOL0     H22694   2.964   0.626   4.922 -1.0954 -0.2216 -2.9307
  172MOL0     H22695   2.829   0.727   4.903 -0.7563 -2.0262  3.0335
  172MOL0     H22696   2.936   0.918   5.008  0.3957 -0.0546 -0.4985
  172MOL0     H22697   2.950   0.781   5.121  2.2671 -0.1415  1.0478
  172MOL0     H22698   3.164   0.920   5.099  0.7702 -0.2724  0.6104
  172MOL0     H22699   3.183   0.847   4.936 -1.4312  0.1965 -0.2314
  172MOL0     H22700   3.179   0.626   5.037  0.9829  0.5619 -1.6318
  172MOL0     H22701   3.320   0.731   5.091 -0.2794 -0.9066  0.2019
  172MOL0     H22702   3.112   0.636   5.437  2.2330 -0.8979  0.4616
  172MOL0     H22703   2.753   0.893   4.756 -0.5299  0.9560 -0.1695
  172MOL0     H22704   2.725   1.118   4.648 -0.1794  0.2074  1.1466
  173MOL0     O22705  10.941   8.161   4.109  0.3929  0.4482 -0.8933
  173MOL0     C22706  10.834   8.205   4.151  0.8135 -0.0709  0.3824
  173MOL0     O22707  10.718   8.134   4.194 -0.3848  0.7723 -0.2478
  173MOL0     C22708  10.729   7.993   4.189 -0.4564 -0.8861  0.2371
  173MOL0     C22709  10.687   7.928   4.070  0.1093 -0.4911 -0.0605
  173MOL0     C22710  10.681   7.790   4.056  0.5608  1.4606 -0.3025
  173MOL0     C22711  10.699   7.709   4.173  0.5178  0.7239  0.9434
  173MOL0     O22712  10.684   7.571   4.153  0.6537 -0.2757 -0.3136
  173MOL0     C22713  10.662   7.474   4.261  0.1252 -0.1015 -1.1386
  173MOL0     C22714  10.627   7.331   4.209  0.0861 -0.1931 -1.0905
  173MOL0     C22715  10.751   7.256   4.153 -1.2775 -0.3769  0.5734
  173MOL0     C22716  10.842   7.199   4.271  0.7973 -0.3236 -0.4462
  173MOL0     C22717  10.958   7.116   4.208 -0.0736 -0.0170  0.4658
  173MOL0     C22718  10.923   6.985   4.144  0.7242 -0.8451  0.2320
  173MOL0     C22719  10.876   6.877   4.239 -0.5285  0.1651  0.4604
  173MOL0     C22720  10.849   6.737   4.174  0.2184  0.2897 -0.0129
  173MOL0     N22721  10.799   6.636   4.268 -0.7739  0.0947 -0.3171
  173MOL0     C22722  10.879   6.574   4.359 -0.7275 -1.4807  0.4351
  173MOL0     C22723  10.807   6.467   4.404  0.4398 -0.0531  0.0268
  173MOL0     C22724  10.832   6.368   4.505  0.0464  0.2766 -0.0458
  173MOL0     C22725  10.935   6.265   4.457  0.9973 -0.2813  0.4542
  173MOL0     C22726  10.960   6.151   4.563 -0.1549 -0.4586 -1.1595
  173MOL0     C22727  11.008   6.036   4.493  0.0459  0.9060 -1.0355
  173MOL0     O22728  11.049   5.929   4.577  0.0172 -0.5266  0.0127
  173MOL0     C22729  11.109   5.823   4.505  0.0207 -0.4846  0.3326
  173MOL0     C22730  11.201   5.749   4.574 -1.0015 -0.5308  0.7510
  173MOL0     C22731  11.271   5.655   4.506  0.1916  0.5077  0.3679
  173MOL0     C22732  11.250   5.626   4.372 -0.7903  0.0939  0.5398
  173MOL0     C22733  11.349   5.536   4.294 -0.3303  0.8037  0.2163
  173MOL0     O22734  11.433   5.454   4.359 -0.1733 -0.0310  0.1616
  173MOL0     C22735  11.503   5.355   4.289 -0.4449  0.4551  0.7232
  173MOL0     C22736  11.443   5.256   4.207 -0.3037 -0.7707  0.0403
  173MOL0     C22737  11.514   5.162   4.135 -0.1889  0.7352  0.2974
  173MOL0     C22738  11.655   5.157   4.140 -0.1935 -0.2770 -0.5136
  173MOL0     O22739  11.719   5.066   4.057 -0.0830 -0.2244 -0.0509
  173MOL0     C22740  11.853   5.014   4.091 -0.2173  0.6817  0.9555
  173MOL0     C22741  11.890   4.878   4.029  0.3985 -0.2347  0.7761
  173MOL0     C22742  11.896   4.864   3.872 -1.0067 -0.4533 -1.4806
  173MOL0     C22743  11.975   4.731   3.835 -0.6717 -0.0621  0.0849
  173MOL0     C22744  11.988   4.722   3.682 -0.4644  0.0398  0.9780
  173MOL0     C22745  12.053   4.595   3.637  0.4670  0.3421 -0.8964
  173MOL0     C22746  12.203   4.608   3.641  0.4592  0.1940  0.5310
  173MOL0     C22747  12.278   4.471   3.635 -0.1269 -0.4308  0.4939
  173MOL0    Cl22748  12.245   4.381   3.784 -0.1552  0.1529 -0.3653
  173MOL0     C22749  11.719   5.253   4.222 -0.0619 -0.2846  0.1716
  173MOL0     C22750  11.647   5.360   4.289 -0.0983 -0.5485  0.0041
  173MOL0     O22751  11.345   5.546   4.170  0.8364  0.2500  0.4195
  173MOL0     C22752  11.141   5.682   4.316  0.3955  0.2658  0.5843
  173MOL0     C22753  11.079   5.789   4.371 -0.4167  0.4036  0.9491
  173MOL0     N22754  10.681   6.465   4.346  0.2828 -0.4320  0.4511
  173MOL0     N22755  10.682   6.562   4.257  0.1466  0.4615  0.0189
  173MOL0     C22756  10.743   7.772   4.300  0.2941  0.7234  0.0196
  173MOL0     C22757  10.750   7.912   4.299  0.1372  0.6701  0.2860
  173MOL0     C22758  10.838   8.343   4.197 -0.0096  0.5401  0.9238
  173MOL0     C22759  10.956   8.427   4.183  0.6772  0.2592 -0.0261
  173MOL0     C22760  10.964   8.555   4.244 -0.1705  0.5647 -1.2174
  173MOL0     C22761  10.844   8.609   4.288 -0.0360 -1.2411  0.6169
  173MOL0     O22762  10.853   8.734   4.343  0.5842 -0.0914  0.4285
  173MOL0     C22763  10.864   8.722   4.484 -0.2894 -0.8776 -1.1273
  173MOL0     C22764  10.865   8.862   4.560  0.5877 -0.0031 -0.3257
  173MOL0     C22765  10.926   8.861   4.701  0.5335 -0.5856  0.5779
  173MOL0     C22766  10.924   9.007   4.774  0.4498 -0.1341  0.5678
  173MOL0     C22767  10.965   8.997   4.920  0.5276  0.4335 -1.0145
  173MOL0     C22768  11.003   9.002   5.036 -0.3017  0.0356  0.6102
  173MOL0     C22769  10.725   8.529   4.295 -0.4910  0.3072 -0.3754
  173MOL0     C22770  10.723   8.400   4.254  0.2393  0.5555 -0.5366
  173MOL0     H22771  10.648   7.989   3.989 -1.5608 -1.6350 -0.1654
  173MOL0     H22772  10.645   7.738   3.968 -0.1734 -1.3023  1.5049
  173MOL0     H22773  10.581   7.519   4.319 -1.4228 -0.3629 -2.9803
  173MOL0     H22774  10.756   7.473   4.317 -1.0360  0.8826  0.9360
  173MOL0     H22775  10.557   7.331   4.125  2.3760 -1.7128 -3.1175
  173MOL0     H22776  10.584   7.270   4.290 -0.2770 -0.9850 -1.8632
  173MOL0     H22777  10.806   7.331   4.096  0.1967  0.1440  2.6076
  173MOL0     H22778  10.727   7.171   4.087  2.2386  1.5341 -3.6660
  173MOL0     H22779  10.884   7.288   4.319  2.9034  1.3192 -4.8061
  173MOL0     H22780  10.772   7.141   4.332 -0.2094  1.0378 -0.2679
  173MOL0     H22781  11.029   7.097   4.289  0.4303  0.2155  0.0861
  173MOL0     H22782  11.005   7.176   4.129 -0.4081 -2.9216 -2.1424
  173MOL0     H22783  11.020   6.951   4.104  0.3899 -1.4776 -0.0506
  173MOL0     H22784  10.851   6.989   4.062  2.7594 -1.4251 -1.7041
  173MOL0     H22785  10.955   6.862   4.313  0.1938 -1.1464 -0.5466
  173MOL0     H22786  10.780   6.914   4.278 -0.7091 -0.4427  0.6178
  173MOL0     H22787  10.942   6.691   4.140 -0.1269 -1.4792  1.2929
  173MOL0     H22788  10.783   6.736   4.087  0.6624  1.8864 -0.4011
  173MOL0     H22789  10.980   6.603   4.389 -1.0337  1.0732 -0.7282
  173MOL0     H22790  10.738   6.314   4.521  0.2125  0.6089  2.2609
  173MOL0     H22791  10.881   6.424   4.585  2.5705 -1.2563 -0.4061
  173MOL0     H22792  11.021   6.329   4.432  0.8402  0.4689  1.7302
  173MOL0     H22793  10.902   6.218   4.364 -1.9209 -2.0699  2.2493
  173MOL0     H22794  11.042   6.176   4.631 -0.9593  1.6677 -0.8740
  173MOL0     H22795  10.869   6.133   4.621 -0.3359  1.2959 -0.8228
  173MOL0     H22796  11.099   6.063   4.438  0.1453  3.7721  0.3154
  173MOL0     H22797  10.932   6.008   4.420 -0.3504  0.6252 -0.5113
  173MOL0     H22798  11.225   5.764   4.679 -3.0977  1.4839  1.0496
  173MOL0     H22799  11.350   5.622   4.573 -3.1538 -0.3859  4.2896
  173MOL0     H22800  11.336   5.259   4.190 -0.2839 -0.7070 -0.0727
  173MOL0     H22801  11.453   5.086   4.087 -1.0690  0.8240  1.2251
  173MOL0     H22802  11.855   4.990   4.197 -2.5534 -0.2755  0.8471
  173MOL0     H22803  11.920   5.094   4.057  0.7684 -0.0048  1.2553
  173MOL0     H22804  11.809   4.813   4.064  1.6480 -1.2145  1.9464
  173MOL0     H22805  11.986   4.853   4.075  1.4123  1.5492 -0.2468
  173MOL0     H22806  11.941   4.954   3.830  2.0194 -0.2134  1.7947
  173MOL0     H22807  11.794   4.855   3.833 -1.9200 -1.2265  0.8459
  173MOL0     H22808  12.074   4.725   3.880 -1.0902 -1.2857  0.8948
  173MOL0     H22809  11.924   4.647   3.883  3.6728 -2.1719  1.4406
  173MOL0     H22810  12.036   4.809   3.638  1.6408 -2.3858 -2.0154
  173MOL0     H22811  11.887   4.732   3.639  0.2513  1.5959 -0.4165
  173MOL0     H22812  12.018   4.582   3.534  0.0284  1.2591 -0.8720
  173MOL0     H22813  12.023   4.517   3.708  2.3920 -0.3226 -0.7520
  173MOL0     H22814  12.236   4.656   3.548  0.9641 -2.9028 -1.0172
  173MOL0     H22815  12.233   4.659   3.734  2.8861 -0.7218  0.3354
  173MOL0     H22816  12.386   4.483   3.624 -0.3034  0.5573 -0.2612
  173MOL0     H22817  12.244   4.415   3.547  1.2772 -0.0260 -0.3288
  173MOL0     H22818  11.826   5.241   4.236 -0.1809 -0.3858  1.0566
  173MOL0     H22819  11.705   5.434   4.343 -2.1967  0.4375  1.0069
  173MOL0     H22820  11.130   5.671   4.209  0.8555 -3.9695  0.7737
  173MOL0     H22821  10.998   5.836   4.316 -0.4050 -0.3757  0.2399
  173MOL0     H22822  10.758   7.702   4.382 -1.5959 -3.7826 -3.0404
  173MOL0     H22823  10.776   7.966   4.390  1.4588  1.9525 -0.8037
  173MOL0     H22824  11.041   8.399   4.123  1.2665  0.0237  0.9075
  173MOL0     H22825  11.061   8.603   4.256 -0.4642  0.8272  0.2893
  173MOL0     H22826  10.957   8.670   4.508  1.6616  2.0366 -1.8033
  173MOL0     H22827  10.782   8.664   4.526  0.2581 -0.0436  1.2594
  173MOL0     H22828  10.910   8.940   4.499  2.8538  2.0140  3.5444
  173MOL0     H22829  10.757   8.879   4.573  0.1491 -3.5812  2.2644
  173MOL0     H22830  11.027   8.823   4.685  0.1658 -0.7939 -1.6586
  173MOL0     H22831  10.875   8.786   4.762 -3.6079  1.2172 -0.3175
  173MOL0     H22832  10.987   9.076   4.717  1.4335 -0.2593  1.4709
  173MOL0     H22833  10.823   9.049   4.779  0.7944  0.7010  0.6247
  173MOL0     H22834  11.046   9.010   5.133 -0.9906 -3.6485  1.3698
  173MOL0     H22835  10.635   8.564   4.345 -0.5307  0.8460 -0.8176
  173MOL0     H22836  10.632   8.342   4.264  0.8313 -0.4136 -0.5960
  174MOL0     O22837   8.256   3.302   3.311 -0.1054 -0.4883  0.4606
  174MOL0     C22838   8.175   3.275   3.400  0.7745 -0.0273 -0.0089
  174MOL0     O22839   8.105   3.155   3.410  0.2386 -0.3985  0.3624
  174MOL0     C22840   8.113   3.051   3.321 -0.7436 -0.6875  0.3934
  174MOL0     C22841   8.063   2.922   3.360  0.4957  0.4543  0.3272
  174MOL0     C22842   8.073   2.804   3.288  0.0016 -0.1638  0.7758
  174MOL0     C22843   8.133   2.806   3.163 -0.3051  0.2561  1.1634
  174MOL0     O22844   8.161   2.696   3.084  1.2214  0.1283 -0.4847
  174MOL0     C22845   8.280   2.687   3.011  0.4530  0.1639  0.2567
  174MOL0     C22846   8.329   2.546   3.008  0.0691 -0.6212  0.1862
  174MOL0     C22847   8.243   2.450   2.913  0.7597  0.2877  0.0534
  174MOL0     C22848   8.300   2.311   2.889  0.0128  0.4446 -0.9901
  174MOL0     C22849   8.240   2.238   2.764 -0.2323  0.3424  0.0628
  174MOL0     C22850   8.343   2.135   2.717  0.0380 -0.2369  0.2049
  174MOL0     C22851   8.282   2.051   2.603 -0.0359  0.4736 -0.3101
  174MOL0     C22852   8.377   2.023   2.482  0.5245 -0.2174 -0.1681
  174MOL0     N22853   8.503   1.963   2.529  1.3239 -0.6131  0.0818
  174MOL0     C22854   8.509   1.830   2.555  0.6656 -0.0954  0.4330
  174MOL0     C22855   8.635   1.816   2.596 -0.2768 -0.1312 -0.0195
  174MOL0     C22856   8.689   1.679   2.630 -0.0890  0.4378 -0.2186
  174MOL0     C22857   8.685   1.679   2.782 -0.1060  0.7152  0.5582
  174MOL0     C22858   8.745   1.547   2.824  0.3632  0.3376 -0.0117
  174MOL0     C22859   8.720   1.529   2.977  0.5936 -0.7229  0.4852
  174MOL0     O22860   8.813   1.613   3.032  0.0818 -0.0512 -0.7885
  174MOL0     C22861   8.820   1.638   3.173  0.5573  0.7814 -0.9346
  174MOL0     C22862   8.721   1.631   3.267  1.1273  0.0505  0.2810
  174MOL0     C22863   8.724   1.685   3.397 -0.7664 -0.1010 -0.6758
  174MOL0     C22864   8.834   1.748   3.433  0.1341 -0.7920 -0.5609
  174MOL0     C22865   8.841   1.810   3.570  0.3738  0.5081 -0.8534
  174MOL0     O22866   8.766   1.750   3.670 -0.3684 -0.1393  0.2320
  174MOL0     C22867   8.818   1.750   3.802  0.0838 -0.4246 -1.1344
  174MOL0     C22868   8.942   1.803   3.842  0.2508 -1.5474  0.3086
  174MOL0     C22869   8.983   1.784   3.972 -0.4596  0.5817  0.5652
  174MOL0     C22870   8.910   1.718   4.067  1.0811  0.1938 -0.2793
  174MOL0     O22871   8.954   1.714   4.202 -0.5964  0.5706 -0.0631
  174MOL0     C22872   8.896   1.619   4.290 -0.3879 -0.2659  0.4436
  174MOL0     C22873   8.931   1.475   4.244 -0.2213 -0.9125 -0.0363
  174MOL0     C22874   9.083   1.456   4.214  0.2243 -0.7466 -0.2680
  174MOL0     C22875   9.177   1.406   4.330  0.3195 -0.4201  0.6270
  174MOL0     C22876   9.187   1.256   4.352  0.0870  0.4689 -0.2498
  174MOL0     C22877   9.292   1.212   4.464  0.2694  0.4673  0.0222
  174MOL0     C22878   9.291   1.063   4.480  0.3353  1.1004 -0.0581
  174MOL0     C22879   9.157   0.988   4.504 -0.8363 -0.1406 -0.1863
  174MOL0    Cl22880   9.175   0.821   4.576 -0.3045  0.1370 -0.0257
  174MOL0     C22881   8.786   1.669   4.029  0.1791  0.4618  0.5806
  174MOL0     C22882   8.744   1.678   3.893  0.3830  0.1994 -0.1156
  174MOL0     O22883   8.922   1.900   3.582  1.0358 -0.2171 -0.3194
  174MOL0     C22884   8.937   1.772   3.340 -0.0568 -0.8920 -0.2772
  174MOL0     C22885   8.933   1.700   3.216  0.6471 -0.4378 -0.0157
  174MOL0     N22886   8.712   1.939   2.596  0.6997  0.0268 -0.4237
  174MOL0     N22887   8.623   2.023   2.548  0.8830 -0.4795 -0.0097
  174MOL0     C22888   8.190   2.934   3.119 -0.5471  0.6901 -0.4620
  174MOL0     C22889   8.183   3.050   3.191  0.0325  0.1305 -0.5581
  174MOL0     C22890   8.148   3.383   3.501 -0.1028 -0.3856 -0.0380
  174MOL0     C22891   8.086   3.351   3.623  0.2147 -0.2747 -0.3022
  174MOL0     C22892   8.060   3.451   3.719 -0.4901 -0.2976  0.2210
  174MOL0     C22893   8.094   3.588   3.695  0.7673 -0.2748 -0.4294
  174MOL0     O22894   8.067   3.685   3.790  0.2005 -0.4416 -0.0919
  174MOL0     C22895   8.120   3.815   3.796 -0.7441 -0.2381 -1.2963
  174MOL0     C22896   8.151   3.856   3.946  1.3186  1.0757 -0.0173
  174MOL0     C22897   8.188   3.731   4.028 -0.0261 -0.5956 -0.0008
  174MOL0     C22898   8.256   3.755   4.164 -0.4197  0.3358  0.0048
  174MOL0     C22899   8.188   3.868   4.229 -0.8222  0.0061  0.1065
  174MOL0     C22900   8.133   3.963   4.285 -1.2185  0.9675 -0.7235
  174MOL0     C22901   8.160   3.615   3.574 -0.3801 -0.5232 -0.3419
  174MOL0     C22902   8.190   3.513   3.485 -0.4243 -0.5013 -0.2134
  174MOL0     H22903   8.023   2.913   3.460 -2.6951  0.7626 -0.7964
  174MOL0     H22904   8.029   2.706   3.302 -0.6564 -0.6025 -3.1387
  174MOL0     H22905   8.364   2.747   3.045  2.0101 -2.0013  0.4487
  174MOL0     H22906   8.249   2.711   2.909  0.8280 -0.7211 -0.0782
  174MOL0     H22907   8.316   2.497   3.104 -0.8816 -0.1881  0.2862
  174MOL0     H22908   8.435   2.535   2.982 -0.1123 -3.0405  0.2595
  174MOL0     H22909   8.235   2.490   2.812 -0.0847 -1.1107 -0.4701
  174MOL0     H22910   8.141   2.439   2.951  0.6944 -2.6378 -0.7019
  174MOL0     H22911   8.407   2.314   2.869  1.0567 -2.7809  2.8086
  174MOL0     H22912   8.284   2.250   2.978  1.1169 -1.8841 -2.2887
  174MOL0     H22913   8.216   2.306   2.682  1.6118  2.7645  1.4145
  174MOL0     H22914   8.143   2.191   2.784 -0.6461 -0.0150 -2.4688
  174MOL0     H22915   8.374   2.078   2.805 -1.8366  0.1014  1.1346
  174MOL0     H22916   8.433   2.179   2.674 -0.8585  1.3420 -0.1167
  174MOL0     H22917   8.249   1.957   2.647 -2.2693  1.4913  0.3276
  174MOL0     H22918   8.197   2.099   2.552 -1.6310  0.6822  2.3866
  174MOL0     H22919   8.395   2.121   2.437 -0.3833 -0.6332 -1.4784
  174MOL0     H22920   8.337   1.963   2.400 -4.7923  1.8886  0.4976
  174MOL0     H22921   8.432   1.760   2.527  0.4051  0.1626  0.4978
  174MOL0     H22922   8.793   1.670   2.597 -0.4694  3.4082 -2.6783
  174MOL0     H22923   8.626   1.609   2.575  0.9252 -0.6723 -0.0124
  174MOL0     H22924   8.583   1.684   2.821 -0.8144 -0.4948 -1.0294
  174MOL0     H22925   8.744   1.762   2.822  2.7657 -0.2808 -1.2930
  174MOL0     H22926   8.705   1.460   2.771 -0.5063  1.2023 -0.8287
  174MOL0     H22927   8.852   1.555   2.805  0.3655  1.0848  0.2777
  174MOL0     H22928   8.750   1.429   3.009  3.6563  0.3322  1.2265
  174MOL0     H22929   8.614   1.548   2.998 -0.3347 -0.3265 -3.7368
  174MOL0     H22930   8.625   1.589   3.239  1.0566 -2.1779  3.2415
  174MOL0     H22931   8.636   1.663   3.457  0.1131  0.5487  0.9023
  174MOL0     H22932   9.021   1.835   3.773 -0.8200 -0.7479 -0.5788
  174MOL0     H22933   9.076   1.834   3.996  0.5187 -2.1118  3.0517
  174MOL0     H22934   8.789   1.639   4.305 -0.7567 -0.1378 -1.9997
  174MOL0     H22935   8.938   1.649   4.386 -0.2999  0.7595  0.1064
  174MOL0     H22936   8.873   1.457   4.153  0.6926 -1.1154 -0.5893
  174MOL0     H22937   8.899   1.407   4.323 -1.2672  0.9244  1.1941
  174MOL0     H22938   9.128   1.542   4.163 -2.8674 -0.5853 -3.0711
  174MOL0     H22939   9.086   1.395   4.123  1.5848 -0.0352 -0.7344
  174MOL0     H22940   9.275   1.454   4.324 -0.4227  1.2827  1.5418
  174MOL0     H22941   9.143   1.458   4.420  0.2434  1.5043 -0.4507
  174MOL0     H22942   9.212   1.190   4.269  0.2566 -1.0555  0.9655
  174MOL0     H22943   9.082   1.235   4.373 -0.9577  3.3541 -1.9915
  174MOL0     H22944   9.258   1.266   4.553  0.8114 -0.9985  1.1694
  174MOL0     H22945   9.391   1.247   4.434  0.2672 -0.3889 -1.0503
  174MOL0     H22946   9.342   1.033   4.387  2.8525  0.1928  1.5189
  174MOL0     H22947   9.361   1.041   4.561  1.5393 -0.0454 -1.3622
  174MOL0     H22948   9.097   0.983   4.413 -1.2321 -2.4278  0.1362
  174MOL0     H22949   9.086   1.040   4.568 -1.9859 -3.3858  1.3912
  174MOL0     H22950   8.726   1.631   4.111  0.4306  3.1044  2.0959
  174MOL0     H22951   8.654   1.628   3.859 -2.1136  3.9008  0.4319
  174MOL0     H22952   9.030   1.821   3.370  0.1723 -2.6978  2.3296
  174MOL0     H22953   9.022   1.698   3.154  0.0737 -2.2929 -0.8451
  174MOL0     H22954   8.245   2.930   3.025 -1.8169 -1.1032 -1.2008
  174MOL0     H22955   8.228   3.139   3.148 -2.9061  1.6635 -0.7208
  174MOL0     H22956   8.073   3.244   3.641 -1.9513  0.0883  0.5568
  174MOL0     H22957   8.005   3.422   3.809 -1.6017 -0.2671 -0.4297
  174MOL0     H22958   8.046   3.884   3.754 -0.7406  0.9881  0.6174
  174MOL0     H22959   8.220   3.818   3.752  1.0902 -3.9625  1.9637
  174MOL0     H22960   8.238   3.922   3.943  2.9503 -1.0144 -2.4355
  174MOL0     H22961   8.072   3.920   3.985 -1.5140 -2.4826  0.5895
  174MOL0     H22962   8.262   3.681   3.965  0.8074  1.0045 -0.3279
  174MOL0     H22963   8.091   3.680   4.038  0.2346 -0.7469  2.1060
  174MOL0     H22964   8.246   3.659   4.215 -1.3367 -0.7869 -2.1499
  174MOL0     H22965   8.359   3.782   4.138  0.5360 -2.4115  0.5855
  174MOL0     H22966   8.080   4.041   4.335  2.0940  1.4552  2.4625
  174MOL0     H22967   8.186   3.717   3.547  2.4707 -1.0756  0.1120
  174MOL0     H22968   8.241   3.533   3.392 -0.6870  3.8162  0.3366
  175MOL0     O22969   5.024  10.207   2.923 -0.2588  0.5791  0.5149
  175MOL0     C22970   5.136  10.151   2.944  0.8590 -0.0664  0.5544
  175MOL0     O22971   5.257  10.211   2.958  0.1882 -0.0351 -0.4195
  175MOL0     C22972   5.244  10.346   2.983  0.7175  0.0822  0.3777
  175MOL0     C22973   5.159  10.389   3.088 -0.6916  0.0599 -0.0889
  175MOL0     C22974   5.180  10.519   3.145 -0.9761 -0.1717 -0.1627
  175MOL0     C22975   5.265  10.613   3.071 -0.4957 -0.8195 -0.5358
  175MOL0     O22976   5.276  10.750   3.102  0.7518  0.1389 -0.3222
  175MOL0     C22977   5.157  10.835   3.104 -0.5548 -0.4165  1.0646
  175MOL0     C22978   5.201  10.971   3.159 -0.2684  0.4286  0.0337
  175MOL0     C22979   5.144  10.984   3.305  0.3722 -0.8729 -0.2149
  175MOL0     C22980   5.205  10.881   3.408 -0.0485 -0.5932  0.1959
  175MOL0     C22981   5.137  10.887   3.551 -1.0261 -0.2261  1.1657
  175MOL0     C22982   5.225  10.815   3.657  0.3557 -1.0351 -0.2376
  175MOL0     C22983   5.210  10.659   3.657  0.7897 -0.8416  0.4411
  175MOL0     C22984   5.325  10.603   3.748 -0.2764 -0.5055  1.0298
  175MOL0     N22985   5.319  10.456   3.748 -0.6534  0.4050 -0.9174
  175MOL0     C22986   5.209  10.380   3.731 -0.5002  0.7315  0.4243
  175MOL0     C22987   5.255  10.254   3.740 -1.3935 -0.9551 -0.5553
  175MOL0     C22988   5.161  10.137   3.750 -0.7173  0.3793  0.2508
  175MOL0     C22989   5.206  10.026   3.659 -0.2924 -0.6900 -0.0641
  175MOL0     C22990   5.081   9.944   3.637  0.5073 -0.5197 -0.9805
  175MOL0     C22991   5.004   9.967   3.506  0.9578  0.4912 -0.4035
  175MOL0     O22992   5.078   9.935   3.386 -0.1389  1.0182 -0.1783
  175MOL0     C22993   4.993   9.940   3.281 -1.0276 -0.0912  0.4976
  175MOL0     C22994   4.966   9.819   3.225 -0.1812 -0.1352 -0.1473
  175MOL0     C22995   4.893   9.814   3.105 -0.4781 -0.2375  0.0970
  175MOL0     C22996   4.819   9.926   3.059  0.5485  0.1747 -0.4167
  175MOL0     C22997   4.730   9.920   2.940 -1.0141  0.3524 -0.0699
  175MOL0     O22998   4.748   9.820   2.856 -0.6047 -0.2418 -0.1352
  175MOL0     C22999   4.660   9.775   2.758 -0.2842 -0.2070 -0.8272
  175MOL0     C23000   4.707   9.678   2.674  0.3675 -1.0301 -0.3542
  175MOL0     C23001   4.626   9.604   2.589  0.6415 -0.1241  0.2101
  175MOL0     C23002   4.492   9.652   2.566  0.1285  0.5915 -1.1136
  175MOL0     O23003   4.426   9.595   2.466  0.2191  0.3482 -0.0406
  175MOL0     C23004   4.390   9.696   2.368  0.0384 -0.0346  0.3933
  175MOL0     C23005   4.397   9.634   2.234 -0.3905 -0.7516  0.2406
  175MOL0     C23006   4.540   9.618   2.177  0.2800  0.3729  0.1558
  175MOL0     C23007   4.531   9.560   2.039 -0.1683 -0.0638 -0.4954
  175MOL0     C23008   4.494   9.407   2.049 -0.6581  0.3551  1.3262
  175MOL0     C23009   4.500   9.357   1.898 -0.1550 -0.5459 -0.8134
  175MOL0     C23010   4.476   9.204   1.891  0.2415 -0.4468 -0.2333
  175MOL0     C23011   4.430   9.154   1.752  0.5618  0.8692 -0.1277
  175MOL0    Cl23012   4.257   9.215   1.707 -0.0884  0.3156  0.1344
  175MOL0     C23013   4.446   9.750   2.647  0.2856  0.0346  0.7405
  175MOL0     C23014   4.518   9.804   2.753 -0.2907  1.1746  0.4221
  175MOL0     O23015   4.645  10.000   2.936  0.9195 -0.7969 -0.2947
  175MOL0     C23016   4.828  10.044   3.138 -0.0869 -0.3766  1.0152
  175MOL0     C23017   4.932  10.055   3.237  0.5192 -0.1473  0.0498
  175MOL0     N23018   5.392  10.263   3.729  0.3356  0.8232  1.0263
  175MOL0     N23019   5.427  10.386   3.728 -0.3635  0.7035  0.2686
  175MOL0     C23020   5.348  10.569   2.963  0.1002  0.5569 -0.1879
  175MOL0     C23021   5.323  10.439   2.912 -0.3461  0.4561  1.1931
  175MOL0     C23022   5.139  10.002   2.937  1.4257  0.8300  0.0247
  175MOL0     C23023   5.056   9.938   2.836 -0.3346 -0.3447  0.4781
  175MOL0     C23024   5.050   9.800   2.826 -0.3946  0.3798 -0.3326
  175MOL0     C23025   5.130   9.719   2.896 -0.6231 -0.9637  0.0702
  175MOL0     O23026   5.107   9.583   2.885  0.1269  0.2456 -0.0172
  175MOL0     C23027   5.211   9.498   2.939 -0.5113 -0.6475 -0.4402
  175MOL0     C23028   5.206   9.365   2.858 -0.1340 -0.0890  0.1651
  175MOL0     C23029   5.187   9.379   2.698  0.4394 -0.1075  0.1464
  175MOL0     C23030   5.135   9.267   2.599  0.1668  0.1311  0.0804
  175MOL0     C23031   5.247   9.183   2.571 -0.3042  0.6624  0.4761
  175MOL0     C23032   5.343   9.115   2.533  0.0011  0.3166  0.1319
  175MOL0     C23033   5.233   9.775   2.978  0.3034  1.0888 -0.1118
  175MOL0     C23034   5.230   9.919   3.006 -0.0879  0.1916  0.3303
  175MOL0     H23035   5.104  10.321   3.151 -4.2849  0.0964 -2.8485
  175MOL0     H23036   5.130  10.544   3.238 -0.0226 -1.4591  0.7330
  175MOL0     H23037   5.075  10.792   3.161  1.8404 -2.6889  3.0986
  175MOL0     H23038   5.118  10.846   3.003 -2.1211 -0.7409  1.6153
  175MOL0     H23039   5.163  11.048   3.092  0.4395  1.1343  0.4279
  175MOL0     H23040   5.309  10.987   3.146 -0.5382  2.1373 -0.3122
  175MOL0     H23041   5.038  10.963   3.290  0.3009 -2.6364  2.1931
  175MOL0     H23042   5.161  11.087   3.336 -2.2914  0.3280 -2.3120
  175MOL0     H23043   5.213  10.778   3.371  2.8357 -1.0076  1.6639
  175MOL0     H23044   5.311  10.901   3.424 -0.5695  1.1399  1.8161
  175MOL0     H23045   5.038  10.841   3.556 -0.0760 -2.3299  1.9244
  175MOL0     H23046   5.132  10.990   3.585 -4.2128 -0.6087  2.1435
  175MOL0     H23047   5.204  10.854   3.757  1.1530  0.8044 -0.7526
  175MOL0     H23048   5.331  10.837   3.639  0.8062 -2.6410  0.2821
  175MOL0     H23049   5.107  10.645   3.692  0.3482 -0.3553 -0.6057
  175MOL0     H23050   5.231  10.619   3.557 -2.1109  0.3371 -0.7744
  175MOL0     H23051   5.308  10.642   3.849 -1.7177 -1.2515  1.1113
  175MOL0     H23052   5.423  10.646   3.728 -1.3524  3.1830  2.7936
  175MOL0     H23053   5.105  10.407   3.716 -0.5329 -0.3928 -1.8839
  175MOL0     H23054   5.068  10.177   3.708  0.5368  2.7728 -0.4913
  175MOL0     H23055   5.150  10.107   3.854 -3.4143  1.2721  0.2937
  175MOL0     H23056   5.290   9.970   3.701  0.2669 -1.2375 -1.8175
  175MOL0     H23057   5.245  10.067   3.565  0.7907 -1.4533  0.0310
  175MOL0     H23058   5.113   9.840   3.640  3.1600  0.2534  1.2731
  175MOL0     H23059   5.025   9.962   3.730  1.8454  0.7334 -0.3824
  175MOL0     H23060   4.969  10.069   3.488 -0.9189  0.0861  0.8030
  175MOL0     H23061   4.915   9.905   3.505 -1.9975  4.3303 -2.5425
  175MOL0     H23062   5.007   9.733   3.277 -0.5684  0.5449  1.3455
  175MOL0     H23063   4.881   9.727   3.041  0.0024 -0.5251  0.3978
  175MOL0     H23064   4.811   9.644   2.675 -0.0496 -2.4108 -1.2304
  175MOL0     H23065   4.681   9.533   2.528  4.8142  1.7562  1.4646
  175MOL0     H23066   4.452   9.785   2.369 -0.8252  0.5820  1.4613
  175MOL0     H23067   4.290   9.735   2.387 -0.6856 -1.2314 -0.7683
  175MOL0     H23068   4.339   9.691   2.160 -2.5084  0.8642  2.9494
  175MOL0     H23069   4.348   9.537   2.243 -1.4156 -0.2464  0.2044
  175MOL0     H23070   4.591   9.552   2.248 -0.5582  0.9451  1.3245
  175MOL0     H23071   4.594   9.713   2.180 -0.4780  0.8074  0.1715
  175MOL0     H23072   4.451   9.615   1.989 -1.8973 -1.0230  1.0799
  175MOL0     H23073   4.623   9.586   1.987  0.1555 -0.7136 -0.2707
  175MOL0     H23074   4.394   9.396   2.092 -1.3342 -2.1320 -0.6447
  175MOL0     H23075   4.568   9.349   2.103  0.0692  0.2156  0.2129
  175MOL0     H23076   4.601   9.367   1.857  0.0244 -3.8303 -1.4300
  175MOL0     H23077   4.421   9.413   1.849 -1.3007 -2.7807 -1.6395
  175MOL0     H23078   4.565   9.147   1.918 -0.6537 -1.3564  0.9060
  175MOL0     H23079   4.392   9.183   1.958 -1.0341  0.7349 -1.3955
  175MOL0     H23080   4.435   9.044   1.755 -2.7958  0.5298 -1.3379
  175MOL0     H23081   4.507   9.185   1.680  1.3046 -0.1603  0.2014
  175MOL0     H23082   4.347   9.789   2.622  0.5639  0.2628 -0.0447
  175MOL0     H23083   4.473   9.876   2.821  0.0714  3.8965 -2.0027
  175MOL0     H23084   4.767  10.127   3.105  1.5495  0.0374 -1.2546
  175MOL0     H23085   4.933  10.140   3.304 -6.1556  0.5188 -0.0165
  175MOL0     H23086   5.418  10.640   2.920 -1.1492  0.9167 -1.7073
  175MOL0     H23087   5.372  10.385   2.832 -1.7025 -2.9102  2.4874
  175MOL0     H23088   5.011   9.994   2.755  0.4148 -0.8671 -0.3126
  175MOL0     H23089   4.985   9.746   2.758  0.1211  0.6251 -1.0256
  175MOL0     H23090   5.196   9.473   3.045  0.5929 -0.0555 -0.1228
  175MOL0     H23091   5.311   9.542   2.929 -0.1748 -1.3906 -0.4220
  175MOL0     H23092   5.292   9.301   2.883 -0.0209 -0.0319 -0.0840
  175MOL0     H23093   5.116   9.311   2.888 -1.0698  0.4991 -1.4744
  175MOL0     H23094   5.282   9.412   2.655  0.3918  0.0242  0.1406
  175MOL0     H23095   5.119   9.462   2.673  1.8452  1.1192  0.2699
  175MOL0     H23096   5.058   9.211   2.653  1.6744 -1.2541  0.8664
  175MOL0     H23097   5.095   9.323   2.514 -2.6708 -0.1041  1.1319
  175MOL0     H23098   5.426   9.070   2.481 -1.3207 -2.8612  0.5177
  175MOL0     H23099   5.292   9.710   3.041 -0.4121 -1.6531 -2.0630
  175MOL0     H23100   5.303   9.975   3.065  2.4899 -0.7460 -1.7755
  176MOL0     O23101   2.126   1.449   4.100 -0.3300 -0.1400  0.2961
  176MOL0     C23102   2.065   1.555   4.093 -0.5001 -0.3837  0.2826
  176MOL0     O23103   2.118   1.677   4.084  0.3256 -0.6409  0.8207
  176MOL0     C23104   2.250   1.686   4.074 -0.4957  0.8973  0.7396
  176MOL0     C23105   2.312   1.718   4.195 -0.0452 -0.8660 -0.3104
  176MOL0     C23106   2.456   1.710   4.209 -0.0092  0.7739  0.2743
  176MOL0     C23107   2.529   1.683   4.097 -0.3462 -0.6543 -0.5991
  176MOL0     O23108   2.660   1.669   4.123 -0.4942  0.7887 -0.3705
  176MOL0     C23109   2.732   1.545   4.115  0.0667  0.5902  0.5639
  176MOL0     C23110   2.890   1.572   4.129  0.3954  0.3306 -0.5574
  176MOL0     C23111   2.983   1.454   4.095 -0.0761  0.3385 -0.5266
  176MOL0     C23112   3.130   1.498   4.102  0.1041 -0.1488 -0.0225
  176MOL0     C23113   3.246   1.390   4.097 -0.7078  0.6504 -0.0469
  176MOL0     C23114   3.243   1.293   4.219  0.6676  0.0750  1.0884
  176MOL0     C23115   3.380   1.241   4.239  0.0503  0.7874 -0.1421
  176MOL0     C23116   3.393   1.125   4.339 -0.3518  0.9757  0.1741
  176MOL0     N23117   3.537   1.104   4.355 -0.1185  0.2741  1.3136
  176MOL0     C23118   3.633   1.085   4.256 -0.1936  0.9977 -0.4188
  176MOL0     C23119   3.738   1.034   4.325  0.3843  0.6408  0.4694
  176MOL0     C23120   3.872   1.007   4.263 -0.4501  0.3919 -0.1604
  176MOL0     C23121   3.865   0.884   4.176 -0.5785 -0.3029  1.1445
  176MOL0     C23122   3.780   0.774   4.231  0.2015 -0.2676 -0.2738
  176MOL0     C23123   3.733   0.677   4.119  0.0407  0.3740  0.4783
  176MOL0     O23124   3.842   0.639   4.040 -0.0266  0.4530 -0.0056
  176MOL0     C23125   3.823   0.609   3.914  0.3484  0.6289  0.1590
  176MOL0     C23126   3.725   0.520   3.872 -0.1346 -0.1232 -0.5055
  176MOL0     C23127   3.706   0.483   3.743  0.2829 -0.4373  0.1620
  176MOL0     C23128   3.800   0.530   3.642 -0.3187 -0.3348 -1.1790
  176MOL0     C23129   3.800   0.467   3.510 -0.2990 -0.5659 -1.2007
  176MOL0     O23130   3.746   0.337   3.508 -0.3709  0.3033 -0.3751
  176MOL0     C23131   3.757   0.270   3.389  0.6169  0.6549  0.6160
  176MOL0     C23132   3.747   0.335   3.266 -0.1947  0.7885  0.2326
  176MOL0     C23133   3.740   0.253   3.152 -0.4688 -0.0125  0.9053
  176MOL0     C23134   3.725   0.117   3.149 -0.2170 -0.5793  0.8806
  176MOL0     O23135   3.730   0.043   3.025 -0.4905 -0.4603 -0.0565
  176MOL0     C23136   3.747  -0.104   3.040  0.0821 -0.0999  1.5573
  176MOL0     C23137   3.729  -0.159   2.894 -0.0774 -0.1816 -0.0471
  176MOL0     C23138   3.863  -0.122   2.813 -0.3413  0.1249  0.3348
  176MOL0     C23139   3.864  -0.177   2.661 -0.2840  0.6144 -0.2885
  176MOL0     C23140   3.801  -0.323   2.649 -0.4106 -1.1235  0.3930
  176MOL0     C23141   3.865  -0.433   2.735  0.9332  0.0902  0.4438
  176MOL0     C23142   3.761  -0.546   2.731  0.9523  0.0429 -0.3370
  176MOL0     C23143   3.795  -0.658   2.819  0.0252 -0.3181  0.8457
  176MOL0    Cl23144   3.918  -0.772   2.753  0.2054 -0.2368  0.3824
  176MOL0     C23145   3.722   0.058   3.270 -0.3380  0.5255 -1.4637
  176MOL0     C23146   3.727   0.131   3.396 -0.1160 -0.4203  0.6281
  176MOL0     O23147   3.877   0.514   3.428 -0.2317  0.0388  1.1029
  176MOL0     C23148   3.902   0.622   3.675 -0.7689 -0.6559  0.0822
  176MOL0     C23149   3.912   0.664   3.812  0.0423 -0.0331  0.6255
  176MOL0     N23150   3.711   1.038   4.455  0.2195 -0.7219  0.3580
  176MOL0     N23151   3.590   1.076   4.476 -0.5795 -0.0453 -0.1750
  176MOL0     C23152   2.477   1.653   3.973 -0.4324 -0.5210 -0.2132
  176MOL0     C23153   2.335   1.653   3.965  0.3695 -0.9581  0.2134
  176MOL0     C23154   1.916   1.533   4.068  0.0164 -0.1559 -0.3225
  176MOL0     C23155   1.853   1.414   4.108 -1.5383  0.4235  0.0339
  176MOL0     C23156   1.717   1.387   4.090  0.5403  0.1267 -0.3375
  176MOL0     C23157   1.639   1.488   4.041  0.4016  0.3480 -1.3871
  176MOL0     O23158   1.509   1.451   4.037  0.9703 -0.1350  0.2818
  176MOL0     C23159   1.396   1.536   4.003  0.2908 -0.2302 -0.2204
  176MOL0     C23160   1.373   1.557   3.855 -0.1577 -0.2216 -0.1117
  176MOL0     C23161   1.334   1.427   3.770  0.3599  0.6330  0.1248
  176MOL0     C23162   1.204   1.358   3.817  0.3331 -0.2420  0.6446
  176MOL0     C23163   1.231   1.244   3.908  0.4010  1.0806  0.1949
  176MOL0     C23164   1.261   1.166   4.001  1.1687  0.4063  0.2969
  176MOL0     C23165   1.696   1.615   4.014  0.8866  0.7829 -0.0117
  176MOL0     C23166   1.830   1.639   4.027 -1.0447  0.7211 -0.1351
  176MOL0     H23167   2.248   1.747   4.279  0.4837 -1.9495  0.4851
  176MOL0     H23168   2.496   1.719   4.310 -1.6198  1.4553  0.8798
  176MOL0     H23169   2.718   1.508   4.013  0.4737  2.2802 -0.1402
  176MOL0     H23170   2.699   1.485   4.201 -1.7993  0.8859  0.1137
  176MOL0     H23171   2.890   1.598   4.235  0.0217  1.8885 -0.9198
  176MOL0     H23172   2.920   1.664   4.077 -3.0125  0.7517 -2.0511
  176MOL0     H23173   2.958   1.422   3.993 -1.2632  0.2028 -0.2097
  176MOL0     H23174   2.970   1.366   4.158  3.3232 -0.5181 -0.8351
  176MOL0     H23175   3.163   1.580   4.038  3.2602 -1.3621 -0.1318
  176MOL0     H23176   3.146   1.548   4.198  2.1257 -5.6232  2.9023
  176MOL0     H23177   3.337   1.451   4.107 -1.3974  1.3000  4.9354
  176MOL0     H23178   3.238   1.336   4.003  1.2806  0.1033  0.0518
  176MOL0     H23179   3.184   1.205   4.192  0.0644  0.9448 -0.6026
  176MOL0     H23180   3.193   1.333   4.308 -1.8334 -0.1512 -0.1456
  176MOL0     H23181   3.427   1.211   4.145 -0.1622 -0.7612  0.2272
  176MOL0     H23182   3.447   1.316   4.283 -0.1653  0.1443  1.3516
  176MOL0     H23183   3.342   1.038   4.296 -0.1641  1.4256 -0.9912
  176MOL0     H23184   3.336   1.144   4.430  2.0227  1.9565  1.5509
  176MOL0     H23185   3.627   1.108   4.150  0.0482 -2.0780 -1.1997
  176MOL0     H23186   3.933   0.975   4.348  1.4668 -1.8665 -2.2517
  176MOL0     H23187   3.916   1.097   4.220  1.1550 -1.1413 -1.8768
  176MOL0     H23188   3.965   0.842   4.161 -0.6259 -2.0788  4.8235
  176MOL0     H23189   3.838   0.914   4.074  4.1012  1.3032  0.1558
  176MOL0     H23190   3.841   0.714   4.299  0.9937  0.5735 -0.2327
  176MOL0     H23191   3.692   0.810   4.286  2.9685  3.5940  2.0933
  176MOL0     H23192   3.660   0.732   4.060 -2.5020 -0.3459  2.7631
  176MOL0     H23193   3.686   0.583   4.147  0.4082 -0.8686 -2.6558
  176MOL0     H23194   3.669   0.464   3.945 -1.4743  1.1072 -0.5389
  176MOL0     H23195   3.627   0.410   3.727 -2.0492  1.5102  1.9712
  176MOL0     H23196   3.733   0.443   3.263  4.3979  1.6306  0.8228
  176MOL0     H23197   3.729   0.301   3.055 -2.1911 -0.6976  0.7249
  176MOL0     H23198   3.671  -0.147   3.105 -1.3613  1.5482  1.0142
  176MOL0     H23199   3.841  -0.134   3.088  1.4826  1.1922 -0.2028
  176MOL0     H23200   3.648  -0.101   2.848 -1.1126 -0.3971  1.3984
  176MOL0     H23201   3.720  -0.268   2.902 -1.6564 -0.1430 -0.9271
  176MOL0     H23202   3.948  -0.173   2.860 -0.4080 -0.6147 -0.3104
  176MOL0     H23203   3.894  -0.018   2.826  1.4527 -0.5797  2.1679
  176MOL0     H23204   3.809  -0.111   2.594 -0.2867  0.5192 -0.3807
  176MOL0     H23205   3.967  -0.194   2.627 -0.9079 -0.8831 -1.5524
  176MOL0     H23206   3.813  -0.353   2.545  1.7038  2.9098 -0.7505
  176MOL0     H23207   3.695  -0.302   2.663  0.1501  1.2798  1.6984
  176MOL0     H23208   3.877  -0.407   2.840  0.2240  1.9057  0.1114
  176MOL0     H23209   3.962  -0.468   2.699  0.5385  1.1357 -1.8707
  176MOL0     H23210   3.658  -0.514   2.744  0.0381 -1.0274 -3.8760
  176MOL0     H23211   3.766  -0.580   2.627  2.3290 -1.2750  0.1067
  176MOL0     H23212   3.701  -0.714   2.826  0.7840 -1.7728 -0.1563
  176MOL0     H23213   3.825  -0.617   2.916  2.0294 -0.4341  0.3219
  176MOL0     H23214   3.733  -0.048   3.294 -0.0440  1.2645  2.2961
  176MOL0     H23215   3.707   0.079   3.489 -3.5646 -1.8990 -0.7461
  176MOL0     H23216   3.963   0.661   3.594  1.8207 -0.7717  1.8528
  176MOL0     H23217   3.988   0.739   3.831 -1.3453  1.4042  0.7746
  176MOL0     H23218   2.538   1.611   3.893 -1.7745 -0.2238 -1.4328
  176MOL0     H23219   2.275   1.629   3.877 -1.4126  3.7513 -0.1226
  176MOL0     H23220   1.916   1.332   4.140 -1.4038  1.0541  1.4472
  176MOL0     H23221   1.671   1.292   4.115 -0.2196  0.5167 -0.2255
  176MOL0     H23222   1.407   1.633   4.052  2.2469  0.5288 -1.9983
  176MOL0     H23223   1.312   1.489   4.055  1.2103 -1.3538  0.3039
  176MOL0     H23224   1.308   1.642   3.834  0.4901 -0.0942 -1.7422
  176MOL0     H23225   1.466   1.596   3.814  0.2545  0.5969  1.5175
  176MOL0     H23226   1.415   1.353   3.766 -0.5413 -0.4569  1.1957
  176MOL0     H23227   1.316   1.462   3.668 -2.2373 -1.8149 -0.3813
  176MOL0     H23228   1.146   1.433   3.871  1.4739  2.6485 -1.8143
  176MOL0     H23229   1.134   1.324   3.739  2.9893  0.2951 -2.1462
  176MOL0     H23230   1.295   1.099   4.077  3.5438  0.2443 -0.8267
  176MOL0     H23231   1.635   1.699   3.984  1.3884  0.0760 -3.4322
  176MOL0     H23232   1.875   1.737   4.016  2.2010 -0.6249 -0.0104
  177MOL0     O23233   7.165   1.033   5.623  0.0989 -0.4928  0.7112
  177MOL0     C23234   7.074   1.077   5.556  0.6390  0.6016  0.8225
  177MOL0     O23235   7.037   1.195   5.547 -0.4284 -0.3430  0.0479
  177MOL0     C23236   7.065   1.299   5.637 -0.3096  1.1739  0.0288
  177MOL0     C23237   7.133   1.291   5.760 -0.1833 -0.0657  0.7117
  177MOL0     C23238   7.143   1.401   5.850 -0.4282  0.4146 -0.6536
  177MOL0     C23239   7.075   1.525   5.816  0.4488 -0.1371 -0.1869
  177MOL0     O23240   7.081   1.614   5.922  0.5316 -0.3418  0.0776
  177MOL0     C23241   7.035   1.742   5.887 -0.2699  0.1675  0.0617
  177MOL0     C23242   7.058   1.832   6.013  0.6861 -0.0308 -0.3138
  177MOL0     C23243   6.989   1.972   6.002 -0.2299 -0.0224  0.1167
  177MOL0     C23244   6.973   2.024   6.147  0.4487  0.0388  0.2338
  177MOL0     C23245   6.952   2.178   6.161 -0.3981 -0.3984  0.1553
  177MOL0     C23246   6.807   2.234   6.168  0.2383 -0.7211  0.1644
  177MOL0     C23247   6.723   2.211   6.050  0.6862  0.8794  0.3399
  177MOL0     C23248   6.779   2.269   5.920  0.0658 -0.3910  0.8639
  177MOL0     N23249   6.785   2.417   5.933  0.9468 -0.0758  0.6162
  177MOL0     C23250   6.674   2.498   5.935  0.5142  0.6305 -0.3088
  177MOL0     C23251   6.714   2.628   5.944 -0.3836 -0.3906 -0.1045
  177MOL0     C23252   6.634   2.747   5.909  0.4063 -0.2912 -0.1592
  177MOL0     C23253   6.592   2.758   5.760 -0.8701  0.7201  0.2983
  177MOL0     C23254   6.701   2.814   5.681 -0.1721  0.3623 -0.3143
  177MOL0     C23255   6.651   2.863   5.549  0.2776 -0.0422  0.2564
  177MOL0     O23256   6.573   2.975   5.584  0.3537  0.7835  0.6666
  177MOL0     C23257   6.482   3.007   5.490 -0.4346  0.6429  0.5553
  177MOL0     C23258   6.369   3.070   5.543 -1.0921  0.7839 -0.5187
  177MOL0     C23259   6.269   3.114   5.449 -0.6324 -0.7338  0.2718
  177MOL0     C23260   6.280   3.091   5.308 -1.1956 -0.5000  0.3669
  177MOL0     C23261   6.186   3.126   5.209 -0.2130 -0.2746 -0.1223
  177MOL0     O23262   6.078   3.186   5.260 -0.0779  0.3259 -0.3557
  177MOL0     C23263   6.009   3.274   5.179  0.9303  0.4270  0.5271
  177MOL0     C23264   5.924   3.357   5.249  0.4313 -0.1431  0.3645
  177MOL0     C23265   5.850   3.454   5.188  0.4044  0.3685 -0.2646
  177MOL0     C23266   5.843   3.459   5.050 -0.0536 -0.4569 -0.7825
  177MOL0     O23267   5.761   3.549   4.997  0.2811 -0.5888 -0.4006
  177MOL0     C23268   5.761   3.587   4.860  0.2675 -0.4772  0.2494
  177MOL0     C23269   5.672   3.718   4.844  0.5900  0.5472 -0.5558
  177MOL0     C23270   5.717   3.830   4.944 -0.7809  0.0232  0.1476
  177MOL0     C23271   5.869   3.879   4.919  0.3970 -0.3115 -0.8355
  177MOL0     C23272   5.910   4.004   4.992  0.5318 -0.5857 -0.4224
  177MOL0     C23273   6.018   3.987   5.102 -0.2508  0.8160  0.6585
  177MOL0     C23274   6.034   4.126   5.157  0.0300  0.6279  0.8819
  177MOL0     C23275   5.933   4.166   5.263 -0.4803  0.7955 -0.2083
  177MOL0    Cl23276   6.007   4.329   5.316  0.4678 -0.2050 -0.5790
  177MOL0     C23277   5.912   3.360   4.972 -1.0386 -0.4686  0.4202
  177MOL0     C23278   5.995   3.273   5.035  0.4821 -0.8242 -0.7312
  177MOL0     O23279   6.209   3.095   5.091  0.4018  0.0319 -0.1473
  177MOL0     C23280   6.395   3.020   5.264 -0.2769 -0.4704 -0.9492
  177MOL0     C23281   6.497   2.979   5.356  0.7687  0.6248  0.0654
  177MOL0     N23282   6.851   2.627   5.940  0.3357 -0.3254  0.4234
  177MOL0     N23283   6.892   2.503   5.934 -0.2597 -0.0154 -0.5637
  177MOL0     C23284   7.003   1.541   5.692  0.4174 -0.1440 -0.2201
  177MOL0     C23285   7.007   1.419   5.604  0.0709  0.1769 -0.7918
  177MOL0     C23286   7.007   0.974   5.475 -0.6028  0.6631 -0.8460
  177MOL0     C23287   6.871   0.981   5.473  0.5875  0.3723  0.5290
  177MOL0     C23288   6.789   0.876   5.414 -0.0203 -0.9083  0.5557
  177MOL0     C23289   6.851   0.760   5.358 -0.5895 -0.1724  0.5669
  177MOL0     O23290   6.764   0.677   5.287 -0.6275 -0.7782  0.4906
  177MOL0     C23291   6.810   0.559   5.219  0.4049 -0.7093 -0.0375
  177MOL0     C23292   6.855   0.595   5.079  0.7186  0.3608  0.5408
  177MOL0     C23293   6.734   0.640   4.993  0.7387 -0.1332 -0.0355
  177MOL0     C23294   6.765   0.661   4.847  0.2197  0.2756  0.1849
  177MOL0     C23295   6.888   0.726   4.796 -0.8424  0.2699  0.0309
  177MOL0     C23296   6.991   0.763   4.748  0.1416  0.0481 -0.8375
  177MOL0     C23297   6.991   0.752   5.365  0.6183  0.3770 -0.2520
  177MOL0     C23298   7.069   0.843   5.436  0.8176  0.2795 -0.0134
  177MOL0     H23299   7.190   1.199   5.770  2.5435  1.2518 -1.2356
  177MOL0     H23300   7.218   1.391   5.927  1.2216 -0.8218 -2.3338
  177MOL0     H23301   6.927   1.732   5.874 -0.3410  0.8925  0.0557
  177MOL0     H23302   7.084   1.793   5.803  1.8266  1.0378  1.7343
  177MOL0     H23303   7.167   1.834   6.022  0.7183  0.0168 -0.7160
  177MOL0     H23304   7.022   1.788   6.106  3.2498  1.1959  1.3769
  177MOL0     H23305   6.892   1.966   5.952 -1.0661  0.5802  1.6027
  177MOL0     H23306   7.045   2.047   5.946 -0.6418  0.2388  0.0501
  177MOL0     H23307   6.883   1.978   6.188  1.0154  0.8653  2.5511
  177MOL0     H23308   7.054   1.986   6.210  0.0814  1.5890  1.6906
  177MOL0     H23309   7.008   2.224   6.079  1.5942  2.0207  2.6634
  177MOL0     H23310   7.014   2.194   6.250  0.1235 -1.3046 -0.0248
  177MOL0     H23311   6.798   2.342   6.182  0.8964 -0.4364 -1.4267
  177MOL0     H23312   6.756   2.197   6.257  1.7074 -1.5668  0.7028
  177MOL0     H23313   6.723   2.103   6.032  2.7472  1.0920 -1.3191
  177MOL0     H23314   6.624   2.255   6.067  0.4317 -0.7123  3.7422
  177MOL0     H23315   6.706   2.244   5.843 -0.3623 -0.5555  1.3211
  177MOL0     H23316   6.878   2.231   5.892  0.5648  2.9325 -2.8178
  177MOL0     H23317   6.573   2.475   5.903  0.1265  1.8331  0.0179
  177MOL0     H23318   6.675   2.840   5.950 -1.8250  1.0548 -0.7738
  177MOL0     H23319   6.541   2.736   5.965  0.9479 -0.4141  0.7237
  177MOL0     H23320   6.510   2.830   5.761 -0.1128  1.8593 -3.3802
  177MOL0     H23321   6.563   2.664   5.713  1.6802  0.4434 -0.8973
  177MOL0     H23322   6.762   2.893   5.726  0.3495 -0.0813 -0.2284
  177MOL0     H23323   6.759   2.726   5.651 -0.5591  0.1644 -0.4866
  177MOL0     H23324   6.593   2.787   5.495 -0.3335  0.7059 -0.1693
  177MOL0     H23325   6.735   2.891   5.485 -0.8637 -2.9806 -2.8473
  177MOL0     H23326   6.352   3.082   5.649 -0.6189  0.3235 -0.3838
  177MOL0     H23327   6.179   3.167   5.479 -0.6873  1.0552 -2.6869
  177MOL0     H23328   5.921   3.349   5.357  0.0538  2.6154  0.6235
  177MOL0     H23329   5.791   3.529   5.242  2.1060 -0.1013  2.4681
  177MOL0     H23330   5.723   3.508   4.795  3.5840 -0.7265 -1.6426
  177MOL0     H23331   5.861   3.610   4.820 -1.2897  3.4271 -2.0092
  177MOL0     H23332   5.567   3.697   4.868  0.4996 -1.3064 -2.3050
  177MOL0     H23333   5.675   3.752   4.740  0.1910  0.2956 -0.6543
  177MOL0     H23334   5.703   3.799   5.048 -1.9118 -1.3733 -0.3805
  177MOL0     H23335   5.650   3.917   4.937  2.9920  3.5882  3.0865
  177MOL0     H23336   5.933   3.793   4.941 -2.3336 -2.5329 -1.1258
  177MOL0     H23337   5.884   3.899   4.812  1.4303 -1.3077 -0.8997
  177MOL0     H23338   5.818   4.044   5.035  0.0336 -0.2449 -1.7426
  177MOL0     H23339   5.939   4.078   4.916 -2.8822  2.2172  0.7431
  177MOL0     H23340   6.113   3.947   5.066  0.6098  2.6884  0.7120
  177MOL0     H23341   5.991   3.912   5.177  2.4110  0.2864  1.1952
  177MOL0     H23342   6.130   4.110   5.207  1.3343 -0.9075 -1.9265
  177MOL0     H23343   6.053   4.193   5.073  0.1831 -2.2100 -1.5215
  177MOL0     H23344   5.934   4.094   5.345  0.1992 -0.7987 -1.5596
  177MOL0     H23345   5.842   4.196   5.210  1.1200  1.9441 -2.4674
  177MOL0     H23346   5.904   3.358   4.864 -1.4057 -2.1010  0.4588
  177MOL0     H23347   6.041   3.199   4.969  0.9289  0.6250 -2.1223
  177MOL0     H23348   6.407   2.995   5.159 -0.7058  1.4328 -1.5002
  177MOL0     H23349   6.587   2.933   5.315  1.4470  1.0225  1.0647
  177MOL0     H23350   6.966   1.641   5.672 -1.1786 -0.2526  1.8884
  177MOL0     H23351   6.955   1.418   5.509  3.2582 -1.2612 -2.6927
  177MOL0     H23352   6.827   1.073   5.511 -1.8936 -0.2519 -0.6264
  177MOL0     H23353   6.686   0.897   5.441  0.5079  1.7238  0.8538
  177MOL0     H23354   6.737   0.477   5.218 -0.5560  0.1322 -0.8558
  177MOL0     H23355   6.903   0.525   5.266  1.1845  1.1038 -0.2219
  177MOL0     H23356   6.918   0.684   5.085  0.0788  0.7497  2.1133
  177MOL0     H23357   6.905   0.512   5.028 -2.6699 -0.0430 -2.5953
  177MOL0     H23358   6.694   0.736   5.026 -1.1173 -0.2647 -1.7183
  177MOL0     H23359   6.651   0.570   5.003  1.7484 -1.6788 -1.8485
  177MOL0     H23360   6.756   0.563   4.798 -1.6033  0.7165 -0.4360
  177MOL0     H23361   6.683   0.727   4.817  0.6275  1.9470  2.4515
  177MOL0     H23362   7.083   0.796   4.704  0.4708  0.3018  0.0249
  177MOL0     H23363   7.048   0.671   5.319 -1.0350  0.3591 -2.4573
  177MOL0     H23364   7.175   0.823   5.447  1.3952  2.0967 -1.7057
  178MOL0     O23365   0.137   8.237   9.118 -0.1128  0.7983 -0.2865
  178MOL0     C23366   0.209   8.141   9.136 -0.8139 -0.0667  0.7603
  178MOL0     O23367   0.232   8.071   9.253  0.6133  0.2298  0.9826
  178MOL0     C23368   0.144   8.098   9.351 -0.7956 -1.0859  0.7498
  178MOL0     C23369   0.040   8.013   9.374  0.4396 -0.5427 -0.3356
  178MOL0     C23370  -0.049   8.045   9.480 -0.2127  0.2444  0.5854
  178MOL0     C23371  -0.043   8.162   9.563 -0.0761  0.9945  0.3014
  178MOL0     O23372  -0.144   8.195   9.657  0.9305 -0.2949 -0.0761
  178MOL0     C23373  -0.144   8.319   9.720 -0.1026  0.1516 -0.4778
  178MOL0     C23374  -0.249   8.322   9.832 -0.6438 -0.1062  0.1314
  178MOL0     C23375  -0.389   8.290   9.780 -0.7880  0.2414 -0.0512
  178MOL0     C23376  -0.472   8.286   9.906  0.2495 -0.6305 -0.4835
  178MOL0     C23377  -0.625   8.269   9.866  0.1383 -0.0524  0.0185
  178MOL0     C23378  -0.682   8.393   9.817  0.4799  0.2553  1.2240
  178MOL0     C23379  -0.840   8.392   9.819 -0.2716  1.0984 -0.1850
  178MOL0     C23380  -0.911   8.339   9.696  0.4460  0.0774 -0.3481
  178MOL0     N23381  -0.900   8.434   9.582 -0.2055 -0.3951 -0.3019
  178MOL0     C23382  -0.982   8.541   9.563  1.2271 -1.0518  0.8875
  178MOL0     C23383  -0.953   8.590   9.441  0.3185 -0.3954  0.0595
  178MOL0     C23384  -1.030   8.706   9.379  0.1761  0.5487  0.0211
  178MOL0     C23385  -0.994   8.852   9.429  0.0368 -0.4702  0.9193
  178MOL0     C23386  -1.099   8.948   9.385 -0.1371  0.0964 -0.1734
  178MOL0     C23387  -1.102   9.076   9.458 -0.0246  0.0428  0.2486
  178MOL0     O23388  -1.150   9.041   9.591 -0.0008 -0.2747  0.8788
  178MOL0     C23389  -1.228   9.122   9.668 -0.7547 -1.1207  0.6356
  178MOL0     C23390  -1.218   9.261   9.663  0.6251 -0.8656 -0.4754
  178MOL0     C23391  -1.309   9.339   9.745 -0.5796  0.8842  0.3327
  178MOL0     C23392  -1.406   9.279   9.824  1.0631 -0.5840  0.6941
  178MOL0     C23393  -1.498   9.367   9.905  0.6183 -0.3300  0.4422
  178MOL0     O23394  -1.494   9.509   9.887 -0.0779  0.2590  0.3843
  178MOL0     C23395  -1.535   9.580   9.997  0.3124  0.3277 -0.9334
  178MOL0     C23396  -1.441   9.613  10.092 -0.1844  0.1436 -0.0289
  178MOL0     C23397  -1.473   9.686  10.210  0.8393  1.2028 -0.0970
  178MOL0     C23398  -1.604   9.724  10.235  0.9696 -0.2833  0.2602
  178MOL0     O23399  -1.639   9.772  10.358  0.6473  0.3560  0.9516
  178MOL0     C23400  -1.774   9.770  10.414  0.1983 -0.0637 -0.2383
  178MOL0     C23401  -1.773   9.841  10.550 -0.1967 -0.9697 -0.5533
  178MOL0     C23402  -1.688   9.753  10.640 -0.6390  0.5902 -0.0153
  178MOL0     C23403  -1.677   9.811  10.781  0.7358 -0.2096  0.1573
  178MOL0     C23404  -1.583   9.728  10.873  1.2139  0.3048 -0.6278
  178MOL0     C23405  -1.643   9.588  10.913 -0.5013  0.2758  0.0486
  178MOL0     C23406  -1.623   9.550  11.066  0.8015  1.1377  0.2110
  178MOL0     C23407  -1.641   9.404  11.105 -0.6351 -0.2710 -0.7414
  178MOL0    Cl23408  -1.783   9.325  11.023  0.5664 -0.2100  0.3283
  178MOL0     C23409  -1.703   9.700  10.137 -0.0252 -0.9716 -0.1973
  178MOL0     C23410  -1.667   9.635  10.016 -0.2601  1.4974 -0.1002
  178MOL0     O23411  -1.577   9.318   9.971 -0.8454 -0.2669 -0.2161
  178MOL0     C23412  -1.422   9.132   9.822  0.7396  0.8473 -0.5927
  178MOL0     C23413  -1.334   9.061   9.737 -0.2527 -0.2393  0.5160
  178MOL0     N23414  -0.845   8.510   9.393  0.7130  0.3578 -0.4173
  178MOL0     N23415  -0.821   8.421   9.479 -0.1802 -0.2501  0.5189
  178MOL0     C23416   0.063   8.248   9.537 -0.4760  0.6171 -0.1605
  178MOL0     C23417   0.153   8.215   9.432  0.2902  0.2012 -0.7127
  178MOL0     C23418   0.272   8.100   9.011 -0.4327  1.1217 -0.5818
  178MOL0     C23419   0.393   8.028   9.013  0.7801 -0.4312  0.4802
  178MOL0     C23420   0.449   7.979   8.895 -0.6409 -0.3610 -0.0134
  178MOL0     C23421   0.383   7.988   8.773  0.2520 -0.4671  0.4657
  178MOL0     O23422   0.421   7.938   8.653  0.0032 -0.4132 -0.0339
  178MOL0     C23423   0.537   7.854   8.644  0.4649  0.3109  0.0584
  178MOL0     C23424   0.563   7.819   8.498 -0.2411 -0.4585  0.3732
  178MOL0     C23425   0.685   7.897   8.443  0.6659  0.3141  0.4233
  178MOL0     C23426   0.821   7.829   8.458 -0.4360  0.1444  0.0142
  178MOL0     C23427   0.853   7.769   8.587  1.1223 -0.5737 -0.3853
  178MOL0     C23428   0.883   7.737   8.698  0.1579  0.2517 -0.5354
  178MOL0     C23429   0.260   8.052   8.770 -0.1977  1.3087  0.8070
  178MOL0     C23430   0.209   8.106   8.888  0.6588 -0.4745 -0.1290
  178MOL0     H23431   0.028   7.929   9.307  0.0977 -1.6215  1.0213
  178MOL0     H23432  -0.126   7.972   9.507 -0.9200  0.8097  0.1413
  178MOL0     H23433  -0.171   8.405   9.657  0.3612 -0.8789 -2.1474
  178MOL0     H23434  -0.046   8.344   9.761 -0.7911  4.0542 -0.7355
  178MOL0     H23435  -0.242   8.418   9.884 -0.1319 -1.7481  3.3901
  178MOL0     H23436  -0.234   8.247   9.910 -1.1636  2.0538  2.4562
  178MOL0     H23437  -0.390   8.193   9.730 -1.0090 -1.3783  2.8419
  178MOL0     H23438  -0.427   8.373   9.720 -1.3274  1.1193  1.4270
  178MOL0     H23439  -0.442   8.194   9.957  0.7906  0.9198  2.1845
  178MOL0     H23440  -0.459   8.376   9.966 -1.5235 -0.5414 -0.1918
  178MOL0     H23441  -0.681   8.231   9.952 -1.3851 -0.7436 -1.2351
  178MOL0     H23442  -0.642   8.194   9.789 -0.0213 -1.5347  1.4440
  178MOL0     H23443  -0.660   8.408   9.711 -1.7920  1.7157  0.8890
  178MOL0     H23444  -0.662   8.481   9.879  0.7713 -0.5280  2.2414
  178MOL0     H23445  -0.869   8.320   9.895 -0.2409  0.7680 -0.4823
  178MOL0     H23446  -0.873   8.492   9.849  1.4295  1.5811  0.2245
  178MOL0     H23447  -1.016   8.319   9.723  0.3424  0.9351 -0.0885
  178MOL0     H23448  -0.859   8.247   9.670  3.1983  1.5687 -0.4309
  178MOL0     H23449  -1.076   8.568   9.610  0.6940  0.6807 -1.0343
  178MOL0     H23450  -1.137   8.687   9.382 -0.0368  1.5597 -0.6100
  178MOL0     H23451  -1.013   8.711   9.271  0.3440  0.3108  0.0358
  178MOL0     H23452  -0.893   8.879   9.396  0.2027 -2.5721 -0.4710
  178MOL0     H23453  -0.998   8.845   9.538 -0.4207 -0.7676  0.8831
  178MOL0     H23454  -1.084   8.974   9.280  0.3053  0.1619 -0.0982
  178MOL0     H23455  -1.195   8.897   9.398  0.5000 -0.7106  1.7157
  178MOL0     H23456  -1.168   9.150   9.412 -3.6044 -0.2308  4.3259
  178MOL0     H23457  -1.000   9.114   9.462  0.4496 -0.8130 -2.1644
  178MOL0     H23458  -1.154   9.311   9.592  0.1121 -3.6765 -3.1371
  178MOL0     H23459  -1.283   9.444   9.741  0.0063  0.7008 -1.2295
  178MOL0     H23460  -1.341   9.584  10.062  0.3988  1.4654  0.6235
  178MOL0     H23461  -1.390   9.682  10.280  3.6567  1.5592 -3.1518
  178MOL0     H23462  -1.824   9.675  10.435  0.3594 -0.0154  0.3839
  178MOL0     H23463  -1.835   9.825  10.341 -1.2640 -1.6296 -0.2724
  178MOL0     H23464  -1.870   9.867  10.594  0.9988  2.1943  0.5017
  178MOL0     H23465  -1.725   9.935  10.520  0.3498 -1.1787 -0.3426
  178MOL0     H23466  -1.586   9.746  10.602  0.9890 -1.4059  4.0389
  178MOL0     H23467  -1.738   9.656  10.648 -2.5941  1.3886 -1.5689
  178MOL0     H23468  -1.640   9.913  10.767  0.5936 -0.4737 -2.7952
  178MOL0     H23469  -1.774   9.815  10.833  1.9231 -0.3416  2.5440
  178MOL0     H23470  -1.573   9.785  10.966 -1.1125 -1.5845  0.8930
  178MOL0     H23471  -1.482   9.717  10.832  1.3366 -1.2927  0.0293
  178MOL0     H23472  -1.583   9.517  10.855 -1.9588 -1.1949  0.2718
  178MOL0     H23473  -1.745   9.565  10.881 -1.1928 -0.4627  2.5695
  178MOL0     H23474  -1.530   9.586  11.110  0.9290 -0.5912  1.4350
  178MOL0     H23475  -1.696   9.611  11.119  0.4723  1.0283 -0.1121
  178MOL0     H23476  -1.655   9.404  11.214 -1.9053  0.1154 -0.8926
  178MOL0     H23477  -1.552   9.351  11.071  0.0577  0.5817 -0.3217
  178MOL0     H23478  -1.809   9.723  10.149 -0.0298 -0.3161 -1.3118
  178MOL0     H23479  -1.736   9.624   9.933  0.3619  1.3114 -0.5997
  178MOL0     H23480  -1.504   9.084   9.873  1.4268 -0.4622 -0.6810
  178MOL0     H23481  -1.333   8.955   9.710  0.3605 -0.1727  0.2681
  178MOL0     H23482   0.080   8.341   9.590 -0.4630  2.0435 -2.5347
  178MOL0     H23483   0.235   8.284   9.418 -0.8127  0.8245 -5.8394
  178MOL0     H23484   0.428   8.011   9.114  0.7200 -2.7961  0.1464
  178MOL0     H23485   0.544   7.931   8.915  0.2091  1.5310  0.6630
  178MOL0     H23486   0.529   7.763   8.704  1.9601 -1.6019 -2.4123
  178MOL0     H23487   0.625   7.898   8.693 -1.5227  1.2541  3.0685
  178MOL0     H23488   0.586   7.713   8.480  2.2263  0.0211  0.3763
  178MOL0     H23489   0.472   7.843   8.442 -1.8963 -1.8100  2.3280
  178MOL0     H23490   0.683   7.993   8.494 -0.5207 -0.5151  2.0292
  178MOL0     H23491   0.674   7.916   8.336  2.5628 -0.4304  0.0585
  178MOL0     H23492   0.845   7.754   8.381  1.4379  0.8225 -0.1068
  178MOL0     H23493   0.900   7.900   8.435 -2.4258  1.5511 -3.2638
  178MOL0     H23494   0.899   7.707   8.800  0.4326 -1.4000 -1.0247
  178MOL0     H23495   0.209   8.045   8.675 -0.2543  0.2932  0.8971
  178MOL0     H23496   0.105   8.132   8.873  0.4532 -1.3029 -0.2185
  179MOL0     O23497   5.330   8.187   3.030  0.1240  1.1520  0.6056
  179MOL0     C23498   5.326   8.177   2.903  0.3287 -0.1003 -0.0158
  179MOL0     O23499   5.414   8.237   2.815  0.0519  0.0177 -0.1395
  179MOL0     C23500   5.502   8.336   2.861  0.6822  0.7073 -0.0093
  179MOL0     C23501   5.507   8.398   2.989 -1.3555 -0.3718 -0.5811
  179MOL0     C23502   5.596   8.494   3.020 -1.6358 -0.0690 -0.2932
  179MOL0     C23503   5.689   8.543   2.926  0.5132 -0.3372 -0.2287
  179MOL0     O23504   5.770   8.651   2.970 -0.5872 -0.5572 -0.5002
  179MOL0     C23505   5.803   8.754   2.873 -0.1102 -0.2316  0.3704
  179MOL0     C23506   5.885   8.860   2.937 -0.6998 -0.2732 -0.0217
  179MOL0     C23507   5.810   8.946   3.046 -0.6548  0.1758  0.6159
  179MOL0     C23508   5.904   9.053   3.110 -0.3081  1.1115 -0.4234
  179MOL0     C23509   5.995   9.139   3.023 -0.6063 -0.0234 -0.0697
  179MOL0     C23510   6.110   9.202   3.110  0.2519  0.7603  0.2473
  179MOL0     C23511   6.213   9.273   3.015  1.0297  0.4146  0.3494
  179MOL0     C23512   6.296   9.374   3.095 -0.8132 -0.9097  0.3754
  179MOL0     N23513   6.292   9.517   3.061  0.2814  0.4558  0.1799
  179MOL0     C23514   6.402   9.589   3.016  0.4790 -0.1562 -0.2417
  179MOL0     C23515   6.368   9.713   3.002 -0.8331 -0.3725  0.6082
  179MOL0     C23516   6.443   9.834   2.972 -0.5115  0.2325 -0.5184
  179MOL0     C23517   6.487   9.819   2.825  0.3143  0.6338 -0.0367
  179MOL0     C23518   6.535   9.957   2.775 -0.4998  0.5938  0.3221
  179MOL0     C23519   6.616   9.939   2.643  0.1263 -0.6498  0.4163
  179MOL0     O23520   6.636  10.072   2.585 -0.7301 -0.1411 -0.0738
  179MOL0     C23521   6.700  10.173   2.657  0.4552 -0.0591 -0.3524
  179MOL0     C23522   6.671  10.300   2.618  0.4785  0.9149 -0.3962
  179MOL0     C23523   6.727  10.407   2.670 -0.6404 -0.6093 -0.0606
  179MOL0     C23524   6.840  10.402   2.759  0.6559 -0.2991  1.2610
  179MOL0     C23525   6.903  10.528   2.820  0.5408  0.8023 -0.2421
  179MOL0     O23526   6.863  10.649   2.774  0.2368 -0.8899 -0.1359
  179MOL0     C23527   6.853  10.773   2.852  0.0742  0.5102  0.7075
  179MOL0     C23528   6.760  10.870   2.805 -0.3590  0.3979  0.9725
  179MOL0     C23529   6.742  10.993   2.858  0.8507  0.2692  0.4663
  179MOL0     C23530   6.831  11.025   2.968  0.2441  0.3843  0.1457
  179MOL0     O23531   6.814  11.149   3.024  0.0790 -0.3056  0.7419
  179MOL0     C23532   6.926  11.206   3.093 -1.0632 -0.1732 -0.3266
  179MOL0     C23533   6.896  11.360   3.126  0.0784 -0.6791  0.4993
  179MOL0     C23534   6.896  11.444   2.998 -0.4398  0.1524 -0.0803
  179MOL0     C23535   6.856  11.596   3.027 -0.4449  0.1719  0.5759
  179MOL0     C23536   6.962  11.667   3.101  0.3372  0.0624  0.0967
  179MOL0     C23537   6.946  11.814   3.084  0.3404 -0.0916 -0.5495
  179MOL0     C23538   7.048  11.894   3.164 -0.1722  0.6355 -0.0084
  179MOL0     C23539   7.037  12.046   3.169  0.2187 -1.0017 -0.0823
  179MOL0    Cl23540   7.190  12.123   3.207  0.2699 -0.5047  0.2216
  179MOL0     C23541   6.933  10.932   3.006 -0.4677  0.6890  0.2147
  179MOL0     C23542   6.941  10.801   2.954  0.3791 -0.4412  0.1342
  179MOL0     O23543   6.984  10.514   2.916  0.0536  0.0719  0.2856
  179MOL0     C23544   6.877  10.267   2.792 -0.0084  0.0771 -0.6241
  179MOL0     C23545   6.808  10.156   2.743  0.5231 -0.5201 -0.2823
  179MOL0     N23546   6.233   9.711   3.029  0.4214 -0.3366  0.0458
  179MOL0     N23547   6.188   9.600   3.078 -0.2361  0.5890  0.2248
  179MOL0     C23548   5.692   8.483   2.802 -0.1734  0.2458  0.5525
  179MOL0     C23549   5.598   8.384   2.774 -0.0533  0.2509  0.4160
  179MOL0     C23550   5.227   8.076   2.853  0.0317 -0.0261 -1.0639
  179MOL0     C23551   5.187   8.061   2.718  0.1725  0.0093 -0.0158
  179MOL0     C23552   5.084   7.970   2.671 -0.7098  0.0505  0.0422
  179MOL0     C23553   5.050   7.874   2.757  1.5248 -0.1394 -0.4949
  179MOL0     O23554   4.977   7.766   2.702 -0.5170  0.5153 -0.0142
  179MOL0     C23555   4.966   7.635   2.769  0.2403 -0.4777 -0.3752
  179MOL0     C23556   4.980   7.526   2.659  0.1634 -0.5788  1.0642
  179MOL0     C23557   5.122   7.516   2.581 -0.4371  0.2769 -0.0368
  179MOL0     C23558   5.130   7.407   2.483  0.1271 -0.2071  0.1464
  179MOL0     C23559   5.121   7.272   2.540  0.2920  0.0588 -0.5363
  179MOL0     C23560   5.121   7.152   2.569 -0.3149 -0.5007 -0.5341
  179MOL0     C23561   5.099   7.870   2.884 -0.1201 -0.0558 -0.2884
  179MOL0     C23562   5.187   7.965   2.931  0.3665  0.3263  0.0872
  179MOL0     H23563   5.454   8.374   3.081  1.9651  2.2102  2.2875
  179MOL0     H23564   5.601   8.545   3.116  2.6347 -1.7398  0.5993
  179MOL0     H23565   5.727   8.783   2.800  3.0429  0.1225 -3.0856
  179MOL0     H23566   5.874   8.704   2.807 -0.9471 -2.1131  0.8420
  179MOL0     H23567   5.922   8.923   2.857  2.7920 -2.2830 -0.2132
  179MOL0     H23568   5.975   8.811   2.976  0.8695  0.6938 -2.2527
  179MOL0     H23569   5.773   8.883   3.127  0.0945 -0.3225  0.5862
  179MOL0     H23570   5.729   8.997   2.995 -0.0767  1.4438  0.9294
  179MOL0     H23571   5.834   9.113   3.168 -2.1142 -3.8060  3.2287
  179MOL0     H23572   5.970   9.000   3.179 -2.7408  0.5990  1.6719
  179MOL0     H23573   5.935   9.215   2.973 -2.7480  0.3863  2.8228
  179MOL0     H23574   6.042   9.076   2.947  0.0160  2.3028 -1.7050
  179MOL0     H23575   6.158   9.134   3.181  0.9240  0.8145 -0.1511
  179MOL0     H23576   6.065   9.286   3.164  3.5698  3.9460 -1.5298
  179MOL0     H23577   6.277   9.194   2.976  1.5943  0.7614  0.5619
  179MOL0     H23578   6.158   9.322   2.934 -1.8783  0.7931  2.3957
  179MOL0     H23579   6.394   9.332   3.072  0.3914  2.2227 -0.6553
  179MOL0     H23580   6.284   9.361   3.203  0.7382  3.0784  1.1966
  179MOL0     H23581   6.505   9.556   3.012  0.9913  1.3768 -0.7082
  179MOL0     H23582   6.535   9.839   3.032 -0.3806  2.9767 -0.7981
  179MOL0     H23583   6.387   9.928   2.980 -2.2791 -0.8021 -0.3896
  179MOL0     H23584   6.395   9.793   2.772  0.9345 -0.4578 -0.6129
  179MOL0     H23585   6.567   9.745   2.811 -0.0685  0.2737 -0.3405
  179MOL0     H23586   6.449  10.023   2.777 -0.0247  1.1893  1.7741
  179MOL0     H23587   6.604  10.004   2.845 -1.1482 -0.0902  1.4525
  179MOL0     H23588   6.557   9.886   2.567 -1.0199  3.1074 -1.5809
  179MOL0     H23589   6.711   9.894   2.672  0.8980  0.0340 -0.9134
  179MOL0     H23590   6.586  10.310   2.552  1.7758  1.4963 -2.0315
  179MOL0     H23591   6.679  10.499   2.639 -0.7140 -0.9037 -0.8464
  179MOL0     H23592   6.705  10.835   2.718  0.7711 -0.5736  0.6100
  179MOL0     H23593   6.663  11.056   2.821  1.1241  0.2795 -0.1086
  179MOL0     H23594   7.019  11.196   3.038 -0.2958  4.0040 -0.1214
  179MOL0     H23595   6.946  11.168   3.193  0.4386 -0.8316 -0.8542
  179MOL0     H23596   6.973  11.402   3.192  0.7133 -0.6661 -0.2301
  179MOL0     H23597   6.793  11.360   3.160  0.0440 -2.6339  0.4968
  179MOL0     H23598   6.820  11.414   2.926 -1.5070  3.0176 -0.2705
  179MOL0     H23599   6.993  11.446   2.947 -0.5434 -0.3806 -0.3015
  179MOL0     H23600   6.835  11.648   2.933  2.1158 -2.0258 -1.3933
  179MOL0     H23601   6.767  11.602   3.090 -0.1733  1.2250  0.8726
  179MOL0     H23602   7.062  11.630   3.076  0.9331  0.4941  1.7425
  179MOL0     H23603   6.947  11.648   3.207 -2.0291 -1.7520 -0.4764
  179MOL0     H23604   6.855  11.850   3.133  0.5901 -1.3142  0.8753
  179MOL0     H23605   6.936  11.842   2.978 -1.5026  1.4069 -0.0313
  179MOL0     H23606   7.056  11.863   3.269 -1.0388 -1.7980 -0.5963
  179MOL0     H23607   7.141  11.870   3.111 -0.6550  0.3403 -0.7418
  179MOL0     H23608   6.962  12.077   3.243 -0.1891 -0.0079 -0.8807
  179MOL0     H23609   6.996  12.073   3.071 -3.0291 -4.1546  0.1834
  179MOL0     H23610   7.003  10.943   3.088 -3.0890  3.4573  2.3324
  179MOL0     H23611   7.022  10.735   2.982  0.4092 -2.1439 -3.4237
  179MOL0     H23612   6.967  10.253   2.852 -0.4374  0.7294  0.1955
  179MOL0     H23613   6.843  10.056   2.764  0.4991 -0.7117 -1.1222
  179MOL0     H23614   5.760   8.526   2.729  2.7896  0.8818  3.4468
  179MOL0     H23615   5.592   8.342   2.674 -4.4169  0.2751  0.4575
  179MOL0     H23616   5.224   8.138   2.651  0.5966 -0.0657  0.1318
  179MOL0     H23617   5.060   7.973   2.565  1.2120  0.7365 -0.4288
  179MOL0     H23618   4.869   7.621   2.817 -0.0730  0.7377 -0.6312
  179MOL0     H23619   5.045   7.619   2.843  0.5435 -5.4493 -1.4160
  179MOL0     H23620   4.951   7.431   2.703 -0.4743 -2.1354 -2.3705
  179MOL0     H23621   4.897   7.544   2.590  2.0057  1.5209 -0.8055
  179MOL0     H23622   5.204   7.497   2.651 -0.3769 -2.3973 -0.7050
  179MOL0     H23623   5.135   7.609   2.527 -4.0897 -0.4048 -2.3793
  179MOL0     H23624   5.048   7.413   2.410 -0.6173  0.9082  1.0478
  179MOL0     H23625   5.219   7.424   2.423 -2.0951  1.8255 -2.8921
  179MOL0     H23626   5.122   7.045   2.578  0.5525 -0.7957 -3.1268
  179MOL0     H23627   5.049   7.798   2.948 -0.3239 -0.5479 -0.9992
  179MOL0     H23628   5.213   7.962   3.037  0.0506  1.5281  0.2101
  180MOL0     O23629  11.038   8.593  11.281 -0.4388  1.0116  0.0184
  180MOL0     C23630  11.066   8.551  11.393  0.3406  0.0305  0.4188
  180MOL0     O23631  10.985   8.481  11.473 -0.3547 -0.5993 -1.2015
  180MOL0     C23632  10.890   8.401  11.425  0.9701  0.3022  0.0908
  180MOL0     C23633  10.777   8.398  11.500  0.2825 -0.2778 -0.1898
  180MOL0     C23634  10.660   8.325  11.469 -0.1947  0.2684 -0.7336
  180MOL0     C23635  10.661   8.253  11.349 -0.1566 -0.4784 -0.3548
  180MOL0     O23636  10.550   8.179  11.311  0.2411  0.5130 -0.1060
  180MOL0     C23637  10.426   8.192  11.383 -0.0780 -0.1490  0.6743
  180MOL0     C23638  10.341   8.070  11.332  0.3269  0.7548  0.1486
  180MOL0     C23639  10.408   7.934  11.364 -0.3264  0.2590 -0.4751
  180MOL0     C23640  10.445   7.934  11.516 -0.2009  0.5053 -1.1428
  180MOL0     C23641  10.495   7.786  11.549  0.6278 -0.1026 -0.0304
  180MOL0     C23642  10.505   7.772  11.699 -0.5674  0.1460 -1.0365
  180MOL0     C23643  10.586   7.652  11.721  0.0044 -1.0283  0.6671
  180MOL0     C23644  10.600   7.639  11.875 -0.0384 -0.4129  0.2009
  180MOL0     N23645  10.664   7.748  11.939 -0.6844  0.5962  0.4173
  180MOL0     C23646  10.796   7.756  11.949  0.9598 -0.0827 -0.6027
  180MOL0     C23647  10.817   7.856  12.035  0.3042 -0.1988  0.1092
  180MOL0     C23648  10.946   7.914  12.085  0.6906 -0.0871  0.1669
  180MOL0     C23649  11.016   7.825  12.188  0.0901 -0.8370  0.4322
  180MOL0     C23650  11.109   7.728  12.121  0.4569 -0.0129 -0.1552
  180MOL0     C23651  11.141   7.615  12.222  0.0533 -0.4413 -0.9918
  180MOL0     O23652  11.219   7.515  12.162  0.5514  0.0418 -0.5886
  180MOL0     C23653  11.153   7.419  12.089  0.1677 -0.0647  0.1478
  180MOL0     C23654  11.013   7.420  12.064  0.3670  0.4699  0.4383
  180MOL0     C23655  10.955   7.308  11.997  0.6837  0.3001 -0.3647
  180MOL0     C23656  11.036   7.206  11.946  0.2580 -0.4208  0.3879
  180MOL0     C23657  10.974   7.083  11.899 -0.0140  0.1741 -0.4374
  180MOL0     O23658  10.913   7.078  11.777 -0.2636  0.3400  0.2608
  180MOL0     C23659  10.857   6.962  11.747  0.8809  0.9007 -0.3040
  180MOL0     C23660  10.726   6.934  11.768 -0.7991  0.1227  0.2287
  180MOL0     C23661  10.668   6.807  11.740 -0.0574 -0.3234 -0.1904
  180MOL0     C23662  10.752   6.701  11.681 -0.3086 -0.2458 -0.1837
  180MOL0     O23663  10.716   6.576  11.651  0.1233  0.4153  0.0115
  180MOL0     C23664  10.608   6.525  11.729  0.0465  0.5446 -0.0016
  180MOL0     C23665  10.604   6.369  11.726  0.7271  0.2351 -0.4599
  180MOL0     C23666  10.716   6.309  11.807  0.5238  0.4765  0.6013
  180MOL0     C23667  10.859   6.349  11.770  0.5898  1.0891  0.2592
  180MOL0     C23668  10.897   6.287  11.627  0.7330  0.1381 -1.1616
  180MOL0     C23669  11.051   6.272  11.628  0.3736 -0.2815  0.1510
  180MOL0     C23670  11.132   6.408  11.619  0.0927 -0.1098  0.7648
  180MOL0     C23671  11.284   6.369  11.587  0.2045  0.8325 -0.2934
  180MOL0    Cl23672  11.401   6.496  11.635  0.3529 -0.2639 -0.2497
  180MOL0     C23673  10.890   6.733  11.656  0.7376  0.0594  0.9777
  180MOL0     C23674  10.941   6.865  11.686 -0.2757  0.7290  1.1349
  180MOL0     O23675  11.004   6.983  11.968 -0.4769  0.7911 -0.2037
  180MOL0     C23676  11.169   7.207  11.975  0.6975 -0.0026  0.5009
  180MOL0     C23677  11.222   7.307  12.047 -0.0880  0.1104 -0.5539
  180MOL0     N23678  10.688   7.897  12.079  0.1091  0.4194 -0.6870
  180MOL0     N23679  10.599   7.837  12.013 -0.6310 -0.4051  0.2026
  180MOL0     C23680  10.783   8.243  11.279  0.6505 -1.1839 -0.1833
  180MOL0     C23681  10.893   8.328  11.311  0.2210  0.9091  0.9705
  180MOL0     C23682  11.195   8.598  11.446  0.1646 -0.2454 -0.6884
  180MOL0     C23683  11.273   8.539  11.550  0.9042  1.3839  0.5424
  180MOL0     C23684  11.382   8.600  11.599 -0.9843  0.0301 -0.5464
  180MOL0     C23685  11.437   8.713  11.539  0.6292 -0.2782 -0.8313
  180MOL0     O23686  11.557   8.761  11.585  0.6623 -0.7511  0.0345
  180MOL0     C23687  11.674   8.692  11.534 -0.1133  0.1278 -0.6514
  180MOL0     C23688  11.699   8.712  11.384 -0.8260  1.0379  0.6430
  180MOL0     C23689  11.707   8.856  11.356  0.2713  0.7635  0.6442
  180MOL0     C23690  11.747   8.897  11.210 -0.2351  0.0967  0.3914
  180MOL0     C23691  11.740   9.046  11.185 -1.0695  0.1886  0.7507
  180MOL0     C23692  11.739   9.166  11.163 -0.3499  0.1071  0.0032
  180MOL0     C23693  11.361   8.765  11.438  0.2099 -0.0634 -0.1762
  180MOL0     C23694  11.245   8.712  11.397 -0.3826  0.9416  0.1131
  180MOL0     H23695  10.771   8.468  11.583  2.1225 -0.8140  0.4418
  180MOL0     H23696  10.579   8.346  11.538 -1.0293 -0.1866 -1.5565
  180MOL0     H23697  10.369   8.281  11.356  0.8296  0.4154  0.5987
  180MOL0     H23698  10.440   8.190  11.491 -1.1170 -2.1958  0.8270
  180MOL0     H23699  10.321   8.064  11.225 -0.8889  3.3540  0.1459
  180MOL0     H23700  10.247   8.071  11.389 -0.1909 -0.2922 -0.6612
  180MOL0     H23701  10.495   7.930  11.298 -1.3579  3.8113 -2.3205
  180MOL0     H23702  10.340   7.853  11.338 -2.1287  0.7913  2.1785
  180MOL0     H23703  10.515   8.014  11.539  0.3136 -0.6853  1.9320
  180MOL0     H23704  10.358   7.959  11.577  0.5581 -0.5380  0.4348
  180MOL0     H23705  10.588   7.751  11.502 -1.6129 -2.6502 -2.9596
  180MOL0     H23706  10.423   7.714  11.510 -0.5541  1.3001 -0.5517
  180MOL0     H23707  10.406   7.762  11.743  0.3642 -3.3109  0.6474
  180MOL0     H23708  10.555   7.862  11.736  2.9378 -1.9278 -0.2932
  180MOL0     H23709  10.525   7.567  11.690  0.0467 -0.7511 -0.1822
  180MOL0     H23710  10.681   7.645  11.669 -0.4827  0.4479 -0.4631
  180MOL0     H23711  10.662   7.551  11.895  0.9475  0.0555 -0.7042
  180MOL0     H23712  10.508   7.622  11.931  1.1347 -2.2224  1.7012
  180MOL0     H23713  10.876   7.697  11.908 -0.0511 -1.6197 -0.4366
  180MOL0     H23714  10.920   8.000  12.147  0.0467  0.8330 -1.3123
  180MOL0     H23715  11.001   7.955  11.999  0.8014  1.8661  1.1084
  180MOL0     H23716  10.946   7.774  12.256 -1.6201  2.0766  1.0536
  180MOL0     H23717  11.079   7.886  12.254  0.4045 -1.7909  1.0391
  180MOL0     H23718  11.060   7.679  12.036 -1.3047 -2.6834  2.2285
  180MOL0     H23719  11.199   7.782  12.087  0.1615  0.5067 -0.1274
  180MOL0     H23720  11.045   7.575  12.257 -0.6205  2.2960  0.5758
  180MOL0     H23721  11.189   7.655  12.312  1.0444  0.9176 -2.0853
  180MOL0     H23722  10.957   7.506  12.100 -0.1676  0.6889 -0.8384
  180MOL0     H23723  10.848   7.290  11.993 -0.0249  3.1256  2.4067
  180MOL0     H23724  10.666   7.012  11.813 -2.8221 -2.5426  2.5363
  180MOL0     H23725  10.565   6.800  11.772  0.1349  2.2780  1.3014
  180MOL0     H23726  10.511   6.559  11.694  0.0000 -0.5205 -0.9459
  180MOL0     H23727  10.613   6.543  11.837  1.6283  4.0846 -0.5421
  180MOL0     H23728  10.610   6.331  11.624  0.1562 -2.2417  0.3732
  180MOL0     H23729  10.509   6.335  11.768  0.6385  0.4825 -0.4534
  180MOL0     H23730  10.714   6.200  11.796  0.2828  0.4254  1.0990
  180MOL0     H23731  10.703   6.333  11.913  0.9089 -1.2647  1.0837
  180MOL0     H23732  10.870   6.458  11.763 -2.3047  1.3565 -2.3393
  180MOL0     H23733  10.933   6.308  11.839  0.7141  1.8522  0.5954
  180MOL0     H23734  10.858   6.369  11.566 -1.7152  1.4624  1.8798
  180MOL0     H23735  10.850   6.193  11.596  3.4843 -1.6533 -0.2743
  180MOL0     H23736  11.084   6.214  11.541  1.1892  1.0189 -0.4243
  180MOL0     H23737  11.079   6.213  11.715  3.3779  0.8050  0.0234
  180MOL0     H23738  11.097   6.487  11.552  4.5419  0.1892 -1.6373
  180MOL0     H23739  11.137   6.451  11.719  1.5368  0.6376  0.4078
  180MOL0     H23740  11.288   6.354  11.479 -0.9674  1.1622 -0.4064
  180MOL0     H23741  11.309   6.280  11.644 -4.0355  0.4724  1.3542
  180MOL0     H23742  10.944   6.652  11.609 -0.0164 -0.8650  1.6631
  180MOL0     H23743  11.044   6.895  11.668 -0.4048 -0.6809 -3.1390
  180MOL0     H23744  11.237   7.128  11.943 -0.1985 -1.2394  1.5229
  180MOL0     H23745  11.331   7.307  12.051 -0.0494 -1.3960 -0.9857
  180MOL0     H23746  10.794   8.174  11.195  3.0001 -0.4155 -0.5858
  180MOL0     H23747  10.975   8.319  11.240 -1.2272 -0.7043 -0.6110
  180MOL0     H23748  11.238   8.446  11.595 -2.1599  2.6217  0.9379
  180MOL0     H23749  11.433   8.552  11.683 -1.2204  0.6690 -0.0263
  180MOL0     H23750  11.669   8.586  11.561  0.7961 -0.0763 -1.2036
  180MOL0     H23751  11.763   8.735  11.581 -1.0359  0.7438  0.5687
  180MOL0     H23752  11.789   8.659  11.353 -0.7767  1.5919 -0.2175
  180MOL0     H23753  11.608   8.673  11.336 -1.0646 -1.7910  3.1236
  180MOL0     H23754  11.774   8.907  11.426 -0.4233  0.1020  1.8243
  180MOL0     H23755  11.607   8.895  11.374 -0.5663  0.0763 -2.1351
  180MOL0     H23756  11.843   8.850  11.192 -0.8446  0.4111 -5.8306
  180MOL0     H23757  11.671   8.856  11.143  0.5848  1.2725 -1.3181
  180MOL0     H23758  11.721   9.272  11.160 -0.1442  0.2650  2.4535
  180MOL0     H23759  11.410   8.850  11.390  1.3780 -0.5165  0.2054
  180MOL0     H23760  11.185   8.754  11.317  0.5985 -1.7187 -2.1729
  181MOL0     O23761  10.162   2.434  10.444 -0.4111 -0.3239 -0.4093
  181MOL0     C23762  10.047   2.394  10.433  0.0063 -0.2497 -0.7743
  181MOL0     O23763   9.970   2.342  10.536 -0.1051 -0.3843 -0.3073
  181MOL0     C23764  10.024   2.337  10.665 -0.7994 -1.1349 -0.3444
  181MOL0     C23765  10.102   2.440  10.733 -0.2295  0.1380 -1.1715
  181MOL0     C23766  10.148   2.428  10.870  0.6093  0.1205  0.3695
  181MOL0     C23767  10.089   2.326  10.945 -0.8473  0.0377 -0.0666
  181MOL0     O23768  10.113   2.323  11.079 -0.5496  0.0116 -0.2978
  181MOL0     C23769  10.118   2.194  11.141 -0.1524 -0.7222  0.4760
  181MOL0     C23770  10.200   2.225  11.267  0.6693  0.5026  0.5790
  181MOL0     C23771  10.161   2.148  11.382  0.4549 -0.0285 -0.6571
  181MOL0     C23772  10.180   1.994  11.359 -0.4024 -0.1451 -0.6639
  181MOL0     C23773  10.332   1.953  11.364  0.6875  0.0022 -0.4577
  181MOL0     C23774  10.339   1.799  11.392  1.0217  0.4543 -0.9196
  181MOL0     C23775  10.254   1.700  11.312  0.6957  0.2486 -0.0027
  181MOL0     C23776  10.213   1.584  11.411  0.3630  0.8916 -0.0624
  181MOL0     N23777  10.155   1.467  11.343 -0.1847 -0.4680  0.0690
  181MOL0     C23778  10.025   1.465  11.313  0.6358  0.1116  0.0020
  181MOL0     C23779   9.987   1.339  11.296 -0.2008  0.2993 -1.0775
  181MOL0     C23780   9.857   1.281  11.263  0.1238  0.4245  0.2784
  181MOL0     C23781   9.743   1.301  11.365 -0.8921  0.3759 -0.2725
  181MOL0     C23782   9.802   1.271  11.506  0.5823  0.3397 -0.2986
  181MOL0     C23783   9.823   1.121  11.536 -0.8412  0.0897  0.1470
  181MOL0     O23784   9.707   1.040  11.511 -0.2375  0.0817 -0.4477
  181MOL0     C23785   9.620   1.013  11.613  0.2663  0.7214  0.3818
  181MOL0     C23786   9.616   1.074  11.747 -0.3282 -0.3608  1.3382
  181MOL0     C23787   9.536   1.028  11.847 -0.5633  0.8246  0.4881
  181MOL0     C23788   9.454   0.912  11.814  0.6232 -0.8618 -0.8804
  181MOL0     C23789   9.365   0.860  11.928 -0.1602  0.3590  1.0063
  181MOL0     O23790   9.359   0.933  12.042  0.9044 -0.3000 -0.8974
  181MOL0     C23791   9.260   0.914  12.141 -1.7735  0.5703  0.3201
  181MOL0     C23792   9.287   0.982  12.263  1.3369  0.6402  0.1934
  181MOL0     C23793   9.190   0.980  12.362  0.1053  0.7349  0.1031
  181MOL0     C23794   9.071   0.897  12.354 -0.5571 -0.2959  0.4145
  181MOL0     O23795   8.965   0.886  12.443 -0.0660  0.4366 -0.1800
  181MOL0     C23796   8.960   0.934  12.577  0.8633 -0.6910  0.1156
  181MOL0     C23797   8.834   1.037  12.596 -1.1485 -0.1515  0.7431
  181MOL0     C23798   8.834   1.141  12.479  0.3838  0.7059 -0.1188
  181MOL0     C23799   8.734   1.256  12.504 -0.6650  0.4035 -0.3661
  181MOL0     C23800   8.670   1.334  12.392 -0.2216 -0.1818 -0.5481
  181MOL0     C23801   8.570   1.250  12.313  0.1476 -0.8745  1.1313
  181MOL0     C23802   8.454   1.328  12.237 -0.5070 -0.6339  0.1527
  181MOL0     C23803   8.391   1.252  12.119  0.4314 -0.2364 -1.1649
  181MOL0    Cl23804   8.234   1.335  12.068 -0.3993 -0.1499  0.1105
  181MOL0     C23805   9.058   0.825  12.232  0.5325 -1.2835 -0.1174
  181MOL0     C23806   9.147   0.833  12.123 -0.2474 -0.1855 -0.2123
  181MOL0     O23807   9.312   0.751  11.898  0.3115  0.1909  0.0892
  181MOL0     C23808   9.445   0.864  11.682 -0.4317  0.9968 -0.6282
  181MOL0     C23809   9.533   0.907  11.580 -0.1239  0.8049  0.3279
  181MOL0     N23810  10.100   1.265  11.326 -0.2542  0.3957  0.2870
  181MOL0     N23811  10.201   1.340  11.348  0.1134  0.1716 -0.8957
  181MOL0     C23812  10.018   2.217  10.878  1.0695 -0.3584 -0.6798
  181MOL0     C23813   9.980   2.228  10.741 -0.4852 -1.1832  0.3900
  181MOL0     C23814   9.999   2.396  10.295  0.7660  0.0495  0.8985
  181MOL0     C23815   9.864   2.374  10.266 -0.2889 -0.5014  0.5285
  181MOL0     C23816   9.825   2.350  10.130  0.3883  0.3302 -0.4896
  181MOL0     C23817   9.916   2.366  10.023  0.1765 -0.1020 -0.3018
  181MOL0     O23818   9.873   2.356   9.896 -0.9316 -0.0207 -0.2747
  181MOL0     C23819   9.844   2.224   9.867  0.6812 -0.2441 -0.7522
  181MOL0     C23820   9.932   2.111   9.908  0.6280 -0.5170 -0.2844
  181MOL0     C23821   9.880   1.971   9.865  0.1804  0.4803 -0.4439
  181MOL0     C23822   9.824   1.889   9.979  0.7220 -0.0906  0.4955
  181MOL0     C23823   9.921   1.843  10.077  0.8111  1.1211  0.0356
  181MOL0     C23824  10.007   1.801  10.147 -0.2344  0.8525 -0.0807
  181MOL0     C23825  10.045   2.402  10.049  0.2867  0.1738 -0.6272
  181MOL0     C23826  10.084   2.414  10.180 -0.3105  0.8598 -0.1663
  181MOL0     H23827  10.122   2.530  10.677 -3.0669  1.6307  0.0311
  181MOL0     H23828  10.199   2.514  10.913 -1.7120  1.8415 -0.1690
  181MOL0     H23829  10.172   2.127  11.073  0.7444 -0.1298  0.5928
  181MOL0     H23830  10.011   2.174  11.153 -0.9712  3.2646  0.9849
  181MOL0     H23831  10.180   2.329  11.295 -1.8707  0.3233 -0.3077
  181MOL0     H23832  10.307   2.230  11.245  0.8357  0.6191  1.3811
  181MOL0     H23833  10.056   2.172  11.398  0.5395 -1.1163  1.9407
  181MOL0     H23834  10.214   2.177  11.473 -0.7608  1.9429 -0.5399
  181MOL0     H23835  10.131   1.943  11.443  0.6121 -1.1848 -0.6791
  181MOL0     H23836  10.109   1.960  11.283  0.4081  1.7626 -2.3710
  181MOL0     H23837  10.391   1.999  11.444  1.3903 -0.9168 -0.4312
  181MOL0     H23838  10.378   1.969  11.267 -0.5402  2.5074 -0.6970
  181MOL0     H23839  10.325   1.787  11.500  2.0571 -0.2939 -0.8536
  181MOL0     H23840  10.442   1.764  11.387  1.7953  1.9750  2.2866
  181MOL0     H23841  10.168   1.749  11.266  0.2482  0.1806  0.7429
  181MOL0     H23842  10.327   1.664  11.238  3.2635  1.5576  1.7157
  181MOL0     H23843  10.145   1.608  11.493  1.5623 -0.3534  1.3554
  181MOL0     H23844  10.308   1.554  11.456  0.0505  0.0942  0.0705
  181MOL0     H23845   9.965   1.553  11.291  1.8584  1.2751  1.0929
  181MOL0     H23846   9.869   1.179  11.227 -2.3177 -0.3622  1.4470
  181MOL0     H23847   9.829   1.338  11.174 -2.4413  1.3635  1.5780
  181MOL0     H23848   9.664   1.232  11.335 -1.2859  0.3036  0.8643
  181MOL0     H23849   9.704   1.404  11.363  0.4362  0.8921 -1.9387
  181MOL0     H23850   9.891   1.333  11.519 -1.1877  3.2176 -1.0895
  181MOL0     H23851   9.736   1.309  11.585 -0.7566 -2.5356  0.1111
  181MOL0     H23852   9.873   1.108  11.633  0.7315 -2.3299 -0.9036
  181MOL0     H23853   9.899   1.078  11.471 -1.7681 -3.1933  1.0699
  181MOL0     H23854   9.685   1.155  11.772  0.9221 -0.1922 -2.0733
  181MOL0     H23855   9.543   1.079  11.943 -0.5574 -0.2650  1.0838
  181MOL0     H23856   9.377   1.042  12.275  2.5764 -1.1039  0.0384
  181MOL0     H23857   9.216   1.052  12.439  0.4460  1.4737 -0.6824
  181MOL0     H23858   9.050   0.986  12.611 -0.4624  2.2307 -0.4592
  181MOL0     H23859   8.951   0.848  12.643  1.1511 -0.8401 -0.0390
  181MOL0     H23860   8.845   1.093  12.689  2.3252 -1.8799  1.5191
  181MOL0     H23861   8.735   0.990  12.592 -1.3200  0.2460  0.1896
  181MOL0     H23862   8.805   1.091  12.386  1.5986  1.6636 -1.0519
  181MOL0     H23863   8.931   1.186  12.458  0.2673  0.1924 -1.9028
  181MOL0     H23864   8.662   1.208  12.571 -1.0946 -0.5787 -1.4955
  181MOL0     H23865   8.793   1.326  12.563  2.7964 -0.8723 -2.0061
  181MOL0     H23866   8.736   1.392  12.326 -2.1420  0.4247 -2.0144
  181MOL0     H23867   8.609   1.404  12.449  0.9002  0.5807 -0.2452
  181MOL0     H23868   8.518   1.192  12.389 -2.1449  1.8985  1.8630
  181MOL0     H23869   8.615   1.191  12.233  0.0781  0.4024  0.1037
  181MOL0     H23870   8.387   1.351  12.320  1.5603  0.9609  1.4542
  181MOL0     H23871   8.495   1.422  12.199  0.5561  0.3869  3.4880
  181MOL0     H23872   8.367   1.150  12.149  0.4145 -0.2208 -1.1252
  181MOL0     H23873   8.460   1.250  12.034 -0.9739 -0.5626 -2.3515
  181MOL0     H23874   8.967   0.771  12.206  0.7646 -0.2447 -3.6590
  181MOL0     H23875   9.121   0.781  12.031  0.8779 -1.5896  0.2211
  181MOL0     H23876   9.371   0.791  11.650  1.0513  0.5563 -3.3001
  181MOL0     H23877   9.505   0.874  11.480 -2.0649  0.0536  1.0654
  181MOL0     H23878   9.970   2.144  10.942 -0.8752 -0.0708 -1.7612
  181MOL0     H23879   9.909   2.159  10.698 -3.0317  1.4678 -0.0101
  181MOL0     H23880   9.788   2.349  10.339 -1.9092  4.0591  0.7060
  181MOL0     H23881   9.727   2.311  10.107 -0.0987  1.2258  0.0579
  181MOL0     H23882   9.822   2.206   9.761  2.2354  1.2482 -1.3731
  181MOL0     H23883   9.753   2.207   9.925  0.2465  2.0877 -0.6488
  181MOL0     H23884  10.026   2.116   9.852 -0.1153  0.8150 -1.4695
  181MOL0     H23885   9.951   2.110  10.016  0.1710 -2.2460 -0.1952
  181MOL0     H23886   9.972   1.927   9.826  0.4323 -0.0413  0.7096
  181MOL0     H23887   9.808   1.975   9.783 -0.3131 -2.1143 -0.2169
  181MOL0     H23888   9.754   1.958  10.027 -0.3449 -0.3133 -0.6969
  181MOL0     H23889   9.764   1.806   9.943  0.7928 -2.0653  4.4640
  181MOL0     H23890  10.078   1.756  10.214 -0.7048  0.3867  0.1071
  181MOL0     H23891  10.116   2.425   9.970  1.4226 -0.6839  0.0982
  181MOL0     H23892  10.192   2.420  10.179 -0.0421  0.3694 -5.7284
  182MOL0     O23893   0.065   1.093   1.632  1.2670  0.2043  0.2600
  182MOL0     C23894  -0.027   1.164   1.650 -0.0189 -0.6386  0.0183
  182MOL0     O23895  -0.141   1.133   1.719 -0.1091  0.0230 -0.1775
  182MOL0     C23896  -0.172   1.010   1.778 -0.2199 -0.9361  0.4738
  182MOL0     C23897  -0.098   0.890   1.774  0.9929 -0.3724 -0.2913
  182MOL0     C23898  -0.142   0.773   1.836 -0.0573 -0.3918  0.1680
  182MOL0     C23899  -0.257   0.782   1.912 -0.0283 -1.0976 -0.5910
  182MOL0     O23900  -0.305   0.689   1.993 -0.2410  0.4771 -1.0675
  182MOL0     C23901  -0.219   0.574   2.016 -0.5875  0.8410  0.1318
  182MOL0     C23902  -0.233   0.469   1.901 -0.7378 -0.7594 -1.5017
  182MOL0     C23903  -0.140   0.362   1.906 -0.0101 -0.2797  0.7502
  182MOL0     C23904  -0.144   0.271   2.024 -0.5312  0.0500 -0.2229
  182MOL0     C23905  -0.041   0.162   2.025 -0.1810  0.7075 -0.9047
  182MOL0     C23906  -0.031   0.092   2.163  0.2821 -0.6351  0.3562
  182MOL0     C23907   0.056  -0.032   2.148 -0.6265  0.4856 -1.1006
  182MOL0     C23908   0.208  -0.015   2.106 -0.3243  0.1481  0.3679
  182MOL0     N23909   0.287  -0.132   2.128 -0.5636 -0.5680  0.0147
  182MOL0     C23910   0.253  -0.261   2.092  0.2819 -0.1807  0.3738
  182MOL0     C23911   0.357  -0.332   2.153  0.2278  0.6049  0.0661
  182MOL0     C23912   0.390  -0.476   2.115 -0.5802  0.2863  0.3449
  182MOL0     C23913   0.324  -0.557   2.216  0.5419  2.2893  0.0743
  182MOL0     C23914   0.326  -0.709   2.181 -0.0558  0.3138  0.7232
  182MOL0     C23915   0.191  -0.739   2.109 -0.2391  0.9965  0.0587
  182MOL0     O23916   0.203  -0.835   1.999 -0.2900 -0.0902  0.1654
  182MOL0     C23917   0.198  -0.969   2.011  0.3110 -0.4851  0.6655
  182MOL0     C23918   0.252  -1.044   1.898  0.6886  0.0635 -0.4876
  182MOL0     C23919   0.253  -1.183   1.908 -1.1305  0.1151 -0.3279
  182MOL0     C23920   0.192  -1.248   2.018  1.0777  0.2141 -0.0355
  182MOL0     C23921   0.172  -1.393   2.043 -0.3894 -0.9252 -0.6610
  182MOL0     O23922   0.151  -1.429   2.169 -0.0857  0.1285 -0.2003
  182MOL0     C23923   0.120  -1.561   2.197  1.0375 -1.1400 -0.5182
  182MOL0     C23924   0.204  -1.617   2.288  0.0740 -0.0698 -0.5611
  182MOL0     C23925   0.184  -1.751   2.322 -0.5299 -0.8550  0.8430
  182MOL0     C23926   0.080  -1.827   2.265  0.1681  0.3968  0.7399
  182MOL0     O23927   0.048  -1.954   2.311  0.1922  0.0657 -0.1629
  182MOL0     C23928   0.147  -2.054   2.312  0.3402 -0.4027 -0.4896
  182MOL0     C23929   0.104  -2.171   2.402  0.3050  0.4639  0.9633
  182MOL0     C23930   0.180  -2.295   2.375  0.7138  0.6342  0.0131
  182MOL0     C23931   0.109  -2.419   2.423  0.1165 -0.1781  0.0242
  182MOL0     C23932   0.193  -2.546   2.407  0.3616  0.5870  0.8228
  182MOL0     C23933   0.192  -2.593   2.264 -1.1796  0.0289 -1.3056
  182MOL0     C23934   0.235  -2.746   2.242  0.0647 -0.1392  0.7695
  182MOL0     C23935   0.214  -2.801   2.104 -0.3428  0.7106 -0.3956
  182MOL0    Cl23936   0.246  -2.977   2.100  0.1563 -0.1113  0.3265
  182MOL0     C23937  -0.000  -1.760   2.176 -0.2095 -0.7790  0.4160
  182MOL0     C23938   0.017  -1.630   2.133 -0.4771 -0.0087 -1.0410
  182MOL0     O23939   0.163  -1.465   1.945 -0.2712 -0.8578 -0.0626
  182MOL0     C23940   0.137  -1.169   2.125 -1.6434 -0.0007 -0.5199
  182MOL0     C23941   0.138  -1.034   2.116 -0.9010 -0.8829  0.2868
  182MOL0     N23942   0.440  -0.250   2.220  0.8820  0.6280 -0.0523
  182MOL0     N23943   0.397  -0.135   2.207 -0.3739 -0.1415 -0.1598
  182MOL0     C23944  -0.331   0.906   1.917  0.7414 -0.1229  0.1496
  182MOL0     C23945  -0.291   1.018   1.849  0.0764 -0.6448 -0.3589
  182MOL0     C23946  -0.020   1.293   1.579  0.6649 -0.7825  0.1790
  182MOL0     C23947  -0.127   1.380   1.577 -0.1239 -1.7054 -0.5430
  182MOL0     C23948  -0.109   1.508   1.522  0.1212  0.2084  0.2736
  182MOL0     C23949   0.007   1.543   1.444 -0.2498 -0.0221 -0.1440
  182MOL0     O23950   0.013   1.675   1.394 -0.5437  0.2548  0.2273
  182MOL0     C23951   0.131   1.707   1.320  0.4092  0.5504  0.9963
  182MOL0     C23952   0.112   1.666   1.173 -0.2012  0.4779 -0.0836
  182MOL0     C23953   0.232   1.708   1.093 -0.3964 -0.4132  0.4044
  182MOL0     C23954   0.269   1.858   1.085 -0.0305  0.1773  0.9103
  182MOL0     C23955   0.373   1.868   0.983 -0.0277 -0.2042 -0.0685
  182MOL0     C23956   0.462   1.894   0.906  0.0707  1.4715 -0.7595
  182MOL0     C23957   0.105   1.444   1.429  0.6486 -0.6191  0.4935
  182MOL0     C23958   0.092   1.318   1.497  0.9541  0.3995  0.3902
  182MOL0     H23959  -0.012   0.880   1.709  0.8350  1.7405 -0.8802
  182MOL0     H23960  -0.085   0.685   1.806  1.5219  0.4640  0.5287
  182MOL0     H23961  -0.242   0.523   2.110 -0.3173 -3.2931 -1.8331
  182MOL0     H23962  -0.115   0.605   2.027 -0.7007  1.4752 -0.5420
  182MOL0     H23963  -0.229   0.524   1.807 -1.7641  3.0364  0.4714
  182MOL0     H23964  -0.328   0.417   1.922  1.2259 -3.9344  0.3964
  182MOL0     H23965  -0.043   0.411   1.903  0.4595 -1.2378 -0.7227
  182MOL0     H23966  -0.161   0.313   1.811  0.5937  0.2905  0.3191
  182MOL0     H23967  -0.143   0.334   2.114 -2.6775  3.0034 -2.0479
  182MOL0     H23968  -0.246   0.231   2.023  0.3925 -2.5193  1.3317
  182MOL0     H23969   0.057   0.203   2.000  1.6328 -1.8825  1.4036
  182MOL0     H23970  -0.069   0.091   1.947  0.2906 -2.6868  1.7910
  182MOL0     H23971  -0.126   0.070   2.213  1.3169  0.0956  2.7773
  182MOL0     H23972   0.009   0.168   2.231  0.9322  0.3603 -1.0847
  182MOL0     H23973   0.062  -0.083   2.244 -0.8186  0.2873 -1.1914
  182MOL0     H23974  -0.003  -0.100   2.086 -3.1001 -0.3044  1.8651
  182MOL0     H23975   0.245   0.071   2.163  2.5016 -1.9448  1.9641
  182MOL0     H23976   0.219   0.009   2.000 -1.3682  2.2977  0.6770
  182MOL0     H23977   0.193  -0.283   2.004  1.7456  0.0311 -0.7189
  182MOL0     H23978   0.499  -0.484   2.117 -0.4118  1.5320 -1.4932
  182MOL0     H23979   0.358  -0.507   2.015 -1.1276  2.6256 -0.2589
  182MOL0     H23980   0.218  -0.528   2.223 -1.1438 -3.0176  2.6034
  182MOL0     H23981   0.368  -0.549   2.316 -0.2317 -1.1198  0.8332
  182MOL0     H23982   0.407  -0.741   2.115  0.3606  3.3138 -0.3795
  182MOL0     H23983   0.339  -0.764   2.274 -0.4272 -1.4115 -0.2056
  182MOL0     H23984   0.163  -0.649   2.054  1.9222  1.8413  0.2594
  182MOL0     H23985   0.107  -0.769   2.173 -1.0944 -0.1734 -1.5081
  182MOL0     H23986   0.286  -0.989   1.811 -0.1244  0.3529 -0.6235
  182MOL0     H23987   0.291  -1.246   1.829  0.0396  3.4948 -2.7228
  182MOL0     H23988   0.288  -1.561   2.328 -1.1221  0.6860  1.0380
  182MOL0     H23989   0.251  -1.809   2.384 -1.7345 -3.5775 -0.2334
  182MOL0     H23990   0.242  -2.016   2.352 -0.4453  2.2228 -0.9066
  182MOL0     H23991   0.152  -2.095   2.211 -2.0895 -1.9940 -0.0358
  182MOL0     H23992   0.004  -2.204   2.374  0.6659 -1.0743  1.4207
  182MOL0     H23993   0.110  -2.143   2.508  1.7807 -1.4724  1.4391
  182MOL0     H23994   0.283  -2.277   2.407  1.4702  4.0298 -3.6189
  182MOL0     H23995   0.191  -2.316   2.268 -1.4503 -2.2763  0.2286
  182MOL0     H23996   0.067  -2.417   2.524 -4.4851 -0.2253 -1.6706
  182MOL0     H23997   0.015  -2.434   2.370 -0.3945  0.4537  0.7245
  182MOL0     H23998   0.138  -2.625   2.459  0.1168 -1.9181 -2.8082
  182MOL0     H23999   0.294  -2.540   2.448  0.7041  1.2761 -0.0821
  182MOL0     H24000   0.264  -2.527   2.214 -0.0658  0.7318  1.0882
  182MOL0     H24001   0.101  -2.573   2.205 -0.2403  2.6178 -2.0388
  182MOL0     H24002   0.342  -2.746   2.265  0.1558  2.5473  0.6666
  182MOL0     H24003   0.188  -2.815   2.312  3.5499 -1.8297  1.6881
  182MOL0     H24004   0.285  -2.748   2.039  1.9512  0.9345  2.1132
  182MOL0     H24005   0.110  -2.776   2.078 -0.1585 -0.3267 -2.3268
  182MOL0     H24006  -0.085  -1.822   2.147 -0.6053 -0.3005  0.5340
  182MOL0     H24007  -0.059  -1.589   2.067  1.1184 -0.1662 -3.0594
  182MOL0     H24008   0.081  -1.216   2.205 -0.7824  1.0532  0.7568
  182MOL0     H24009   0.096  -0.974   2.196 -0.8863 -0.1103 -0.2711
  182MOL0     H24010  -0.417   0.912   1.983  1.3177 -4.5530  1.6166
  182MOL0     H24011  -0.340   1.115   1.854  0.0772 -0.5562 -1.8708
  182MOL0     H24012  -0.214   1.353   1.636  1.6004 -1.3581  2.3477
  182MOL0     H24013  -0.189   1.582   1.524  1.5615  1.8705 -0.8751
  182MOL0     H24014   0.226   1.674   1.365  1.6586  0.3057 -1.6290
  182MOL0     H24015   0.122   1.815   1.306 -1.1819  0.4241  0.9370
  182MOL0     H24016   0.119   1.557   1.163  2.8195  0.2265  2.9568
  182MOL0     H24017   0.017   1.702   1.131  0.2029  0.3999 -1.0947
  182MOL0     H24018   0.221   1.679   0.988 -1.5159 -3.0963  1.1785
  182MOL0     H24019   0.315   1.649   1.133 -2.2735 -2.3207  1.7121
  182MOL0     H24020   0.176   1.906   1.052  1.2685  0.8977 -2.0019
  182MOL0     H24021   0.307   1.896   1.180  1.4579  3.5136 -0.8608
  182MOL0     H24022   0.538   1.921   0.835  1.0584  1.8191  0.3877
  182MOL0     H24023   0.197   1.473   1.380  0.5623 -3.9165 -1.9171
  182MOL0     H24024   0.179   1.255   1.507 -0.5473 -1.6072  1.7450
  183MOL0     O24025   1.744   3.602   6.102  0.8006  0.2050 -0.4890
  183MOL0     C24026   1.763   3.706   6.038  0.6179  0.1261  0.7699
  183MOL0     O24027   1.765   3.710   5.897 -0.0410  0.2105  0.8412
  183MOL0     C24028   1.733   3.599   5.822  0.3609  0.7718  0.2790
  183MOL0     C24029   1.623   3.593   5.737  0.0454 -0.1080  0.1417
  183MOL0     C24030   1.603   3.484   5.656  0.1302 -0.4562 -0.0837
  183MOL0     C24031   1.682   3.369   5.668 -0.1403 -0.1543  0.0385
  183MOL0     O24032   1.627   3.281   5.575 -0.3675  0.0939  0.7190
  183MOL0     C24033   1.696   3.162   5.530 -0.3398 -0.5441 -0.5098
  183MOL0     C24034   1.636   3.132   5.405 -0.0104  0.3905 -0.1632
  183MOL0     C24035   1.697   3.011   5.333  0.5225  0.0585 -0.0708
  183MOL0     C24036   1.618   2.977   5.214 -0.5736  0.3818 -0.7215
  183MOL0     C24037   1.663   2.857   5.113  0.9491 -0.8148 -0.2482
  183MOL0     C24038   1.781   2.899   5.036 -0.6370 -0.0552 -0.2442
  183MOL0     C24039   1.790   2.839   4.888 -0.0386 -0.2135  0.8974
  183MOL0     C24040   1.689   2.868   4.784 -0.1534  1.1327 -0.7001
  183MOL0     N24041   1.637   3.004   4.802 -0.1350 -0.0120  0.9448
  183MOL0     C24042   1.714   3.120   4.789  0.3451  0.3502 -0.1209
  183MOL0     C24043   1.649   3.219   4.862  0.8371  1.2781 -0.0565
  183MOL0     C24044   1.695   3.361   4.874  0.0155  0.6979 -0.0596
  183MOL0     C24045   1.801   3.374   4.987 -0.2261 -0.4466 -0.3057
  183MOL0     C24046   1.737   3.419   5.110  0.6445 -0.2883 -0.3705
  183MOL0     C24047   1.653   3.550   5.106  0.4926 -0.4311  1.0074
  183MOL0     O24048   1.640   3.621   5.230 -0.1142  0.7478 -0.1300
  183MOL0     C24049   1.757   3.678   5.276 -1.6007  0.9060  0.2334
  183MOL0     C24050   1.769   3.692   5.417 -0.1537  0.1864  0.4860
  183MOL0     C24051   1.866   3.769   5.476 -0.3788  0.7826  0.9489
  183MOL0     C24052   1.973   3.810   5.397 -0.0824 -0.8183  0.0337
  183MOL0     C24053   2.074   3.893   5.470  0.2450  0.0918  1.1252
  183MOL0     O24054   2.068   3.899   5.606 -1.2801 -0.0910 -0.2843
  183MOL0     C24055   2.150   3.977   5.687  0.3273  0.1661  0.2910
  183MOL0     C24056   2.212   4.096   5.641 -0.1693  0.2094 -0.7845
  183MOL0     C24057   2.309   4.165   5.722  0.3406  0.2838  0.6474
  183MOL0     C24058   2.330   4.128   5.850 -0.5526  0.3132  0.2797
  183MOL0     O24059   2.415   4.192   5.940 -0.0322 -0.8134  0.1283
  183MOL0     C24060   2.499   4.299   5.896  0.0416  0.1680 -0.5199
  183MOL0     C24061   2.604   4.335   5.997 -0.1551  0.3593  0.3330
  183MOL0     C24062   2.545   4.348   6.137  0.4499 -0.3336 -0.6438
  183MOL0     C24063   2.642   4.426   6.241 -0.0677 -0.3973  0.3992
  183MOL0     C24064   2.672   4.576   6.192 -0.0241 -0.1290 -0.1237
  183MOL0     C24065   2.549   4.670   6.211 -0.8308  1.0039 -1.1378
  183MOL0     C24066   2.563   4.819   6.177  0.5760  1.1843  0.5686
  183MOL0     C24067   2.526   4.840   6.028 -0.2740  0.4711  0.7125
  183MOL0    Cl24068   2.562   5.008   5.975 -0.3736 -0.3294  0.1200
  183MOL0     C24069   2.270   4.005   5.890  0.4318  0.3088  0.2111
  183MOL0     C24070   2.186   3.923   5.813 -0.8531  1.2327  0.1140
  183MOL0     O24071   2.152   3.955   5.396  0.3423  0.4763  0.3555
  183MOL0     C24072   1.974   3.785   5.262 -0.4144 -0.1398 -0.2215
  183MOL0     C24073   1.870   3.717   5.202 -0.4190  0.6844 -0.1719
  183MOL0     N24074   1.540   3.164   4.910  1.5717  0.1357  1.0745
  183MOL0     N24075   1.526   3.036   4.879 -0.7912 -0.1994 -0.6205
  183MOL0     C24076   1.787   3.372   5.751 -1.0908 -0.7283 -0.5485
  183MOL0     C24077   1.818   3.487   5.829 -0.1508 -0.4318  0.4578
  183MOL0     C24078   1.781   3.836   6.094  0.5259 -0.7951  1.0922
  183MOL0     C24079   1.812   3.947   6.012 -0.1979 -0.3476  0.4435
  183MOL0     C24080   1.790   4.074   6.053  0.5955  0.1975  0.1091
  183MOL0     C24081   1.756   4.096   6.191  0.3691 -0.0740 -1.2609
  183MOL0     O24082   1.741   4.220   6.249 -0.2768 -0.4894 -0.2019
  183MOL0     C24083   1.612   4.269   6.276 -0.4508 -0.9868 -1.0488
  183MOL0     C24084   1.589   4.401   6.196 -0.1468  0.5126  1.0409
  183MOL0     C24085   1.631   4.389   6.051 -0.0981 -0.9787 -1.2774
  183MOL0     C24086   1.545   4.292   5.970 -0.2892 -0.1461  0.3639
  183MOL0     C24087   1.428   4.351   5.906 -0.1256  0.5569  0.1222
  183MOL0     C24088   1.337   4.411   5.846 -0.1225  0.1985 -0.1394
  183MOL0     C24089   1.740   3.997   6.282 -0.4886  0.4348  0.2671
  183MOL0     C24090   1.743   3.866   6.231  0.0474  0.2006 -0.4679
  183MOL0     H24091   1.557   3.678   5.725  1.5332  0.9375 -1.0255
  183MOL0     H24092   1.527   3.509   5.582 -1.2904  1.0108  1.7642
  183MOL0     H24093   1.694   3.070   5.589  0.7712 -1.5455 -1.9577
  183MOL0     H24094   1.804   3.181   5.526  0.0579 -2.3645  0.3922
  183MOL0     H24095   1.646   3.226   5.350 -0.6453  2.0219  2.3542
  183MOL0     H24096   1.530   3.103   5.412  0.3973 -2.2125 -2.6690
  183MOL0     H24097   1.726   2.938   5.409 -2.6713 -1.4968 -0.1430
  183MOL0     H24098   1.797   3.035   5.297 -0.6537  4.9313 -0.7735
  183MOL0     H24099   1.521   2.954   5.259 -0.3064 -0.6107 -0.6403
  183MOL0     H24100   1.606   3.069   5.156 -1.8043  2.0832  2.0228
  183MOL0     H24101   1.580   2.843   5.043  2.5568 -0.5430 -2.2982
  183MOL0     H24102   1.670   2.773   5.183 -2.7635 -0.4880  0.6993
  183MOL0     H24103   1.863   2.850   5.090 -0.3489  0.1110 -0.5268
  183MOL0     H24104   1.797   3.007   5.044 -1.2612  0.0859 -0.8276
  183MOL0     H24105   1.881   2.880   4.841  0.5506 -2.0305  0.3754
  183MOL0     H24106   1.807   2.731   4.890  2.4870  0.1166  2.2430
  183MOL0     H24107   1.603   2.804   4.805  1.2463 -1.1610 -1.4938
  183MOL0     H24108   1.731   2.846   4.685  4.3169  0.0100  1.1694
  183MOL0     H24109   1.819   3.111   4.766  0.5435  2.5439 -0.2135
  183MOL0     H24110   1.613   3.434   4.883  0.5926  1.3753 -0.2042
  183MOL0     H24111   1.750   3.379   4.781  0.3048 -1.0833 -0.2576
  183MOL0     H24112   1.868   3.454   4.954 -0.4096  1.2168  2.8672
  183MOL0     H24113   1.875   3.301   5.022  1.2486  2.4269  3.2997
  183MOL0     H24114   1.681   3.330   5.142  0.1167  0.2122  0.1359
  183MOL0     H24115   1.814   3.430   5.186 -0.5829 -3.1159  1.4706
  183MOL0     H24116   1.552   3.518   5.077  1.2828 -1.3799 -0.8949
  183MOL0     H24117   1.686   3.617   5.025 -2.3768  0.2551  0.2600
  183MOL0     H24118   1.683   3.666   5.478 -0.9976  0.2888 -0.6308
  183MOL0     H24119   1.856   3.783   5.583  0.3702 -0.5917  1.2275
  183MOL0     H24120   2.206   4.145   5.545  3.7003 -2.3079 -2.5753
  183MOL0     H24121   2.358   4.259   5.698  2.0615 -0.1995  2.0686
  183MOL0     H24122   2.433   4.385   5.882  1.1061  0.9679 -0.7123
  183MOL0     H24123   2.551   4.285   5.801  0.2483  0.4461 -0.4474
  183MOL0     H24124   2.635   4.438   5.978  1.2325 -0.0836  0.0550
  183MOL0     H24125   2.685   4.261   5.994  0.5878  1.1736 -1.1152
  183MOL0     H24126   2.522   4.254   6.186 -0.1642  1.0033  1.7639
  183MOL0     H24127   2.453   4.404   6.117 -0.3248 -1.8638 -1.5604
  183MOL0     H24128   2.600   4.433   6.341 -0.1819  2.1614  0.2349
  183MOL0     H24129   2.737   4.371   6.246  0.1729 -0.8896 -4.4012
  183MOL0     H24130   2.712   4.585   6.091 -0.2572  5.7763 -0.0057
  183MOL0     H24131   2.758   4.595   6.257 -0.4253 -0.0258  0.3893
  183MOL0     H24132   2.531   4.669   6.319  3.2956  2.4066 -0.2705
  183MOL0     H24133   2.461   4.632   6.158 -0.6568 -1.1426  0.0308
  183MOL0     H24134   2.509   4.883   6.247 -1.9795  1.0420 -1.1268
  183MOL0     H24135   2.667   4.851   6.183 -0.0618  4.4037 -2.5030
  183MOL0     H24136   2.417   4.828   6.020 -0.2278 -0.4356  1.2781
  183MOL0     H24137   2.578   4.765   5.967  1.0119  2.1263 -0.3053
  183MOL0     H24138   2.298   3.956   5.982 -4.4578 -4.2260 -0.2340
  183MOL0     H24139   2.153   3.824   5.842 -0.1439 -0.2999 -3.6838
  183MOL0     H24140   2.054   3.815   5.195  0.6665  3.4761  2.4068
  183MOL0     H24141   1.877   3.698   5.095  0.1990  2.2464 -0.4364
  183MOL0     H24142   1.863   3.295   5.761 -0.4912 -0.3686 -2.1089
  183MOL0     H24143   1.901   3.470   5.896 -2.3412 -1.5627  3.0968
  183MOL0     H24144   1.843   3.931   5.909 -0.1642 -0.0663  0.4103
  183MOL0     H24145   1.803   4.154   5.980  2.5015 -2.2456 -2.4437
  183MOL0     H24146   1.606   4.291   6.383 -0.7867 -0.8609 -1.0915
  183MOL0     H24147   1.540   4.186   6.268 -1.1950 -0.5259  0.4484
  183MOL0     H24148   1.485   4.431   6.208 -0.0867  0.4046  1.8610
  183MOL0     H24149   1.648   4.482   6.239  1.8494  0.5111 -1.3887
  183MOL0     H24150   1.735   4.359   6.033 -0.0570 -0.4343 -1.9980
  183MOL0     H24151   1.631   4.488   6.004  0.8928 -1.3792 -2.1613
  183MOL0     H24152   1.597   4.266   5.877  1.0695 -1.6356  1.4940
  183MOL0     H24153   1.520   4.197   6.017 -0.0188  0.8941  2.7749
  183MOL0     H24154   1.269   4.474   5.792 -0.3654 -0.4173 -0.5530
  183MOL0     H24155   1.712   4.020   6.384 -1.8380 -0.4354  0.1301
  183MOL0     H24156   1.713   3.783   6.295  0.4811  0.2093 -0.2512
  184MOL0     O24157   4.880   9.861  11.377  0.1708  0.0377 -0.1219
  184MOL0     C24158   4.782   9.792  11.362 -0.4535 -0.0874 -0.2756
  184MOL0     O24159   4.653   9.820  11.397  0.3671 -0.1422  0.1882
  184MOL0     C24160   4.632   9.939  11.477  0.0766  0.1637  0.6860
  184MOL0     C24161   4.668  10.069  11.439  0.0786  0.2898  0.4187
  184MOL0     C24162   4.628  10.175  11.521  0.7850 -0.2755 -0.1334
  184MOL0     C24163   4.559  10.152  11.642 -0.6175 -0.3467 -0.3493
  184MOL0     O24164   4.524  10.262  11.722  0.5132  1.0763  0.2987
  184MOL0     C24165   4.625  10.293  11.824  0.0427  0.7173  0.0393
  184MOL0     C24166   4.606  10.435  11.880 -0.4397 -0.4094  0.1304
  184MOL0     C24167   4.466  10.467  11.932 -0.4886 -0.2406 -0.8437
  184MOL0     C24168   4.442  10.395  12.072  0.3323 -0.1729  0.1621
  184MOL0     C24169   4.320  10.452  12.133 -0.4433 -0.6172  0.8185
  184MOL0     C24170   4.293  10.377  12.259 -0.3248 -0.2498  0.9160
  184MOL0     C24171   4.167  10.427  12.322  0.2964  0.1643  0.4517
  184MOL0     C24172   4.119  10.367  12.447 -1.6512 -0.6447 -0.1697
  184MOL0     N24173   4.211  10.378  12.556 -0.0589  0.6759  0.1706
  184MOL0     C24174   4.195  10.444  12.673 -0.1989 -0.6782  0.0581
  184MOL0     C24175   4.283  10.386  12.763  0.0357 -0.1759 -0.0826
  184MOL0     C24176   4.300  10.422  12.912 -0.4071  0.7659 -1.4020
  184MOL0     C24177   4.394  10.542  12.933 -0.1542  0.7378 -0.3071
  184MOL0     C24178   4.360  10.663  12.852 -0.6059 -0.1841  0.4994
  184MOL0     C24179   4.454  10.776  12.872 -0.5480  0.3981 -0.1452
  184MOL0     O24180   4.396  10.903  12.918 -0.7825 -0.2901 -0.1454
  184MOL0     C24181   4.321  10.970  12.827  0.5857 -0.6343 -0.8647
  184MOL0     C24182   4.325  10.968  12.696 -0.4894 -0.5975 -0.2177
  184MOL0     C24183   4.247  11.055  12.615 -0.1303  0.3917  1.1087
  184MOL0     C24184   4.161  11.156  12.675  0.3806  0.3971 -0.1085
  184MOL0     C24185   4.076  11.241  12.590 -0.9101  0.9564 -0.8780
  184MOL0     O24186   4.031  11.347  12.662  0.1533  0.2755 -0.0477
  184MOL0     C24187   3.933  11.433  12.603 -0.0854  0.1459 -0.8470
  184MOL0     C24188   3.911  11.451  12.465  0.3515 -0.4480  0.2463
  184MOL0     C24189   3.810  11.532  12.412 -0.2407  0.9214  0.4966
  184MOL0     C24190   3.722  11.589  12.503  0.5439 -0.7146 -0.0532
  184MOL0     O24191   3.614  11.670  12.445 -0.8498  0.3845 -0.2019
  184MOL0     C24192   3.533  11.739  12.544 -0.9047 -0.4585  0.2311
  184MOL0     C24193   3.450  11.827  12.452  1.1235 -0.4955 -0.3869
  184MOL0     C24194   3.513  11.964  12.418 -1.1465  0.1327 -0.0198
  184MOL0     C24195   3.488  12.025  12.279  0.1946  1.0442 -0.2405
  184MOL0     C24196   3.559  11.949  12.172 -0.5080 -0.2133 -0.6864
  184MOL0     C24197   3.537  12.021  12.042  0.6189  0.7813 -0.4541
  184MOL0     C24198   3.604  11.961  11.917  0.2345  0.3741 -0.7783
  184MOL0     C24199   3.558  12.024  11.788  0.6341 -0.1866 -0.3376
  184MOL0    Cl24200   3.651  11.965  11.649  0.0061 -0.0343  0.1728
  184MOL0     C24201   3.748  11.579  12.641 -0.4112  0.2856 -0.4205
  184MOL0     C24202   3.851  11.497  12.687 -0.5689 -0.9129 -0.1596
  184MOL0     O24203   4.087  11.233  12.473 -0.1288 -0.0797 -0.4493
  184MOL0     C24204   4.171  11.162  12.815  0.0801  0.1659  0.7166
  184MOL0     C24205   4.249  11.077  12.886 -0.2431 -0.7093  0.0824
  184MOL0     N24206   4.352  10.291  12.695  0.2816  0.1467 -0.7292
  184MOL0     N24207   4.319  10.298  12.571 -0.1855 -0.5488 -0.4331
  184MOL0     C24208   4.518  10.022  11.672 -0.1995 -0.3512 -0.5181
  184MOL0     C24209   4.553   9.919  11.586 -0.0363 -1.5053 -0.3184
  184MOL0     C24210   4.796   9.670  11.282  0.9482  0.4106  0.6679
  184MOL0     C24211   4.932   9.626  11.237 -0.6427  0.4795 -0.7588
  184MOL0     C24212   4.941   9.534  11.134 -0.6632 -0.3221 -0.0919
  184MOL0     C24213   4.825   9.468  11.081 -0.4800 -0.7667  0.8808
  184MOL0     O24214   4.839   9.377  10.981 -0.1683  0.7539  0.5210
  184MOL0     C24215   4.938   9.276  11.002 -1.0911 -0.2071  0.6523
  184MOL0     C24216   4.870   9.138  10.972  0.3195  0.6867  0.5294
  184MOL0     C24217   4.954   9.018  10.978  0.1572  0.7723 -0.2674
  184MOL0     C24218   5.076   9.031  10.882  1.1858 -1.1940  1.3853
  184MOL0     C24219   5.176   8.924  10.881  0.3224  0.1364  0.0297
  184MOL0     C24220   5.257   8.837  10.882 -0.0335 -0.5836 -1.0107
  184MOL0     C24221   4.702   9.509  11.120  0.7286 -1.0936  0.1186
  184MOL0     C24222   4.684   9.607  11.219  0.5347  0.2090  0.1788
  184MOL0     H24223   4.709  10.105  11.345 -1.3614  0.6554 -0.0916
  184MOL0     H24224   4.636  10.279  11.491 -3.0564  0.4989  0.9521
  184MOL0     H24225   4.724  10.268  11.784  1.1561  3.1448  1.0041
  184MOL0     H24226   4.614  10.223  11.907 -1.4454 -0.0355 -0.7484
  184MOL0     H24227   4.628  10.506  11.799  0.5857 -0.8939 -0.0374
  184MOL0     H24228   4.687  10.460  11.949 -1.3705 -0.2487  1.1782
  184MOL0     H24229   4.397  10.433  11.855  0.2358 -4.6828  0.2040
  184MOL0     H24230   4.460  10.576  11.945  2.0301  0.0669 -1.7192
  184MOL0     H24231   4.442  10.287  12.061 -0.1344 -0.4322  2.2522
  184MOL0     H24232   4.528  10.429  12.131  0.2736 -0.2466  0.2903
  184MOL0     H24233   4.234  10.434  12.068 -1.8885  3.0555  1.4809
  184MOL0     H24234   4.334  10.560  12.138 -0.9257 -0.3391 -2.2503
  184MOL0     H24235   4.372  10.389  12.334 -0.8794  0.7842  1.3460
  184MOL0     H24236   4.278  10.271  12.236 -0.5359  0.1124 -0.7096
  184MOL0     H24237   4.187  10.530  12.353 -3.1432  0.6673  1.2998
  184MOL0     H24238   4.091  10.425  12.244  2.2447 -1.5088 -1.5585
  184MOL0     H24239   4.104  10.260  12.430  2.4700 -1.1518 -1.5532
  184MOL0     H24240   4.024  10.417  12.468 -1.9690 -0.7869 -1.2166
  184MOL0     H24241   4.117  10.515  12.697  0.9588  1.3596 -1.7733
  184MOL0     H24242   4.327  10.330  12.965 -2.4804  1.0246  0.2320
  184MOL0     H24243   4.201  10.448  12.949 -0.0357  1.4289 -0.8584
  184MOL0     H24244   4.493  10.502  12.909  0.0264  0.9266  0.1156
  184MOL0     H24245   4.394  10.577  13.036 -1.9134  0.4589 -0.1870
  184MOL0     H24246   4.361  10.642  12.745 -1.3009 -0.1820  0.4890
  184MOL0     H24247   4.262  10.687  12.894 -0.2332  1.0443  0.6991
  184MOL0     H24248   4.518  10.779  12.783  0.0459 -3.5875 -0.0607
  184MOL0     H24249   4.530  10.738  12.941 -0.1635  0.8007 -0.3408
  184MOL0     H24250   4.397  10.899  12.654  0.7380 -0.4548  1.5517
  184MOL0     H24251   4.243  11.042  12.508  0.2369 -0.2884  1.1731
  184MOL0     H24252   3.967  11.394  12.391  2.0652 -0.2586  1.3332
  184MOL0     H24253   3.787  11.529  12.306  1.4736  2.6819  0.0121
  184MOL0     H24254   3.590  11.801  12.614 -0.1272  0.3359 -1.0697
  184MOL0     H24255   3.467  11.675  12.604  0.3397  0.1942  2.4423
  184MOL0     H24256   3.357  11.856  12.503  1.5397 -1.4586  0.9749
  184MOL0     H24257   3.426  11.764  12.366  2.3661 -1.5855  0.0422
  184MOL0     H24258   3.622  11.963  12.432 -1.3603  0.4242  2.0203
  184MOL0     H24259   3.469  12.036  12.487 -0.2818  0.1019  0.5851
  184MOL0     H24260   3.379  12.017  12.277  0.1548  0.4091  2.1349
  184MOL0     H24261   3.506  12.131  12.299 -1.1403  0.9294  1.8828
  184MOL0     H24262   3.536  11.843  12.161 -0.6882 -0.8112  3.5627
  184MOL0     H24263   3.665  11.966  12.197 -0.2961 -2.2978  0.0155
  184MOL0     H24264   3.581  12.121  12.054  3.5591 -0.4718  0.2386
  184MOL0     H24265   3.431  12.037  12.022 -0.1078  0.8430  2.8525
  184MOL0     H24266   3.713  11.953  11.929  0.1590  1.9974  1.4573
  184MOL0     H24267   3.567  11.858  11.911  2.5094 -0.5324 -0.1581
  184MOL0     H24268   3.569  12.133  11.795  1.0174 -0.2276 -0.2873
  184MOL0     H24269   3.451  12.001  11.779  0.8234 -1.4473  0.3759
  184MOL0     H24270   3.688  11.641  12.708 -1.3434 -1.0444  0.0255
  184MOL0     H24271   3.849  11.477  12.793 -1.4960 -0.9189 -0.1732
  184MOL0     H24272   4.110  11.237  12.865  1.0988  2.1906 -0.9381
  184MOL0     H24273   4.260  11.086  12.993  1.8507 -1.4193 -0.0035
  184MOL0     H24274   4.467  10.002  11.766  1.2058  2.7806  1.0768
  184MOL0     H24275   4.497   9.826  11.585 -1.1024 -0.8798 -0.5199
  184MOL0     H24276   5.026   9.663  11.277 -0.4485 -2.8427  2.4609
  184MOL0     H24277   5.043   9.516  11.100 -0.8798 -0.1901 -0.8175
  184MOL0     H24278   4.980   9.274  11.103  2.9290  0.6523 -0.8214
  184MOL0     H24279   5.019   9.313  10.938 -2.6450  0.9588 -0.7162
  184MOL0     H24280   4.788   9.119  11.041  1.5487  5.3114  3.7626
  184MOL0     H24281   4.810   9.144  10.881 -2.7373 -1.9590  2.2041
  184MOL0     H24282   4.879   8.943  10.950 -3.0926  1.8111  4.5178
  184MOL0     H24283   4.986   8.999  11.080 -0.1138 -0.1114 -0.3338
  184MOL0     H24284   5.042   9.028  10.779 -0.1187  1.4146  1.6574
  184MOL0     H24285   5.126   9.127  10.898  1.7459 -1.7501  3.3364
  184MOL0     H24286   5.335   8.765  10.866  1.7824  0.7707  1.1752
  184MOL0     H24287   4.610   9.469  11.078 -1.4382 -0.6348  3.9374
  184MOL0     H24288   4.580   9.626  11.243  0.3832  0.5646 -0.7086
  185MOL0     O24289   0.594   2.950   0.772  0.0242  0.3391  1.2233
  185MOL0     C24290   0.605   3.033   0.683  0.3833  0.5282  0.1526
  185MOL0     O24291   0.573   3.169   0.697 -0.0754  0.4350  0.4944
  185MOL0     C24292   0.501   3.212   0.808  0.5547  0.1303  0.6966
  185MOL0     C24293   0.398   3.302   0.787 -0.2001  0.8010  0.8642
  185MOL0     C24294   0.331   3.354   0.901  0.0844  0.1077  0.5359
  185MOL0     C24295   0.373   3.336   1.030  0.5703  0.0860 -1.1973
  185MOL0     O24296   0.311   3.412   1.131  0.0326  0.1968  0.5352
  185MOL0     C24297   0.352   3.396   1.264  0.0385 -0.8081 -0.2165
  185MOL0     C24298   0.244   3.460   1.347  0.1897 -0.4335  0.5688
  185MOL0     C24299   0.270   3.471   1.499 -0.0043 -0.3970 -0.0266
  185MOL0     C24300   0.248   3.344   1.585 -0.0441  0.1002 -0.0549
  185MOL0     C24301   0.293   3.373   1.727  0.0439 -0.1697  0.7743
  185MOL0     C24302   0.437   3.367   1.748  0.1300 -0.3659 -1.4820
  185MOL0     C24303   0.472   3.372   1.896  0.7768  0.3316 -0.3008
  185MOL0     C24304   0.610   3.408   1.923  0.4918  0.2983  0.3942
  185MOL0     N24305   0.640   3.430   2.061 -0.5571  0.7129  0.5360
  185MOL0     C24306   0.679   3.335   2.145  0.4423  0.7944 -0.9796
  185MOL0     C24307   0.734   3.390   2.251  0.2463  0.0417 -0.5701
  185MOL0     C24308   0.808   3.333   2.378  0.3968  0.2069  0.5892
  185MOL0     C24309   0.836   3.184   2.372  0.1086 -1.3463  0.3834
  185MOL0     C24310   0.725   3.095   2.400  0.0495 -0.4910  1.1004
  185MOL0     C24311   0.629   3.126   2.509 -0.3719  0.4746 -0.4124
  185MOL0     O24312   0.516   3.047   2.508  0.0856  0.0009  0.5303
  185MOL0     C24313   0.477   2.973   2.616 -0.3388 -0.9048  0.2260
  185MOL0     C24314   0.342   2.965   2.652 -0.3690 -0.1624 -0.1046
  185MOL0     C24315   0.322   2.890   2.771 -0.1275  0.5515  0.5728
  185MOL0     C24316   0.419   2.814   2.843  0.3419  0.2341  0.4243
  185MOL0     C24317   0.377   2.735   2.956  0.0435  1.5310 -0.3180
  185MOL0     O24318   0.472   2.655   2.993 -0.4968  0.4876 -1.4324
  185MOL0     C24319   0.476   2.619   3.124 -0.3534 -0.9771  0.3901
  185MOL0     C24320   0.471   2.486   3.161  0.5610  0.7452  0.0632
  185MOL0     C24321   0.484   2.442   3.289 -0.6811 -0.6483 -0.1685
  185MOL0     C24322   0.519   2.533   3.379  0.2343 -1.3858 -0.7635
  185MOL0     O24323   0.543   2.484   3.505 -0.0063  0.1966  0.6114
  185MOL0     C24324   0.618   2.567   3.593 -0.4108 -0.2569 -0.3267
  185MOL0     C24325   0.624   2.489   3.721 -1.0244  0.3720  0.3641
  185MOL0     C24326   0.742   2.558   3.805 -0.0815 -0.1860  0.2084
  185MOL0     C24327   0.759   2.499   3.945  0.1975 -0.5609 -0.7242
  185MOL0     C24328   0.898   2.514   4.012  0.3577 -0.1041  0.4692
  185MOL0     C24329   0.992   2.401   3.969  0.2687  1.1132  0.3679
  185MOL0     C24330   1.128   2.399   4.017 -1.3315  0.4562 -0.2298
  185MOL0     C24331   1.147   2.371   4.166 -0.2442  0.6728  0.1499
  185MOL0    Cl24332   1.100   2.196   4.221  0.1480 -0.3248  0.6575
  185MOL0     C24333   0.538   2.675   3.350  0.2236  0.6036 -0.3978
  185MOL0     C24334   0.514   2.714   3.219  0.0205 -0.4010 -0.9038
  185MOL0     O24335   0.269   2.747   3.006  0.7990 -0.5285  0.2561
  185MOL0     C24336   0.553   2.835   2.802  0.0176 -1.1453 -0.2177
  185MOL0     C24337   0.577   2.904   2.676  0.2601  0.3501 -0.9889
  185MOL0     N24338   0.731   3.524   2.220  0.3747 -1.0036  0.2050
  185MOL0     N24339   0.669   3.549   2.113 -0.3583  0.6930 -0.4036
  185MOL0     C24340   0.480   3.245   1.055  0.6667  0.1183  0.8605
  185MOL0     C24341   0.539   3.186   0.941 -0.3087 -0.2309  0.0719
  185MOL0     C24342   0.666   2.985   0.558 -0.1192 -0.4100  0.0437
  185MOL0     C24343   0.679   3.066   0.448 -0.3972 -0.8733 -1.0580
  185MOL0     C24344   0.719   3.016   0.326  0.0318  0.1689  1.0213
  185MOL0     C24345   0.760   2.883   0.310 -0.1885  0.1618  0.2737
  185MOL0     O24346   0.816   2.849   0.189  0.2050  0.1904 -0.5609
  185MOL0     C24347   0.867   2.718   0.166 -0.1038 -0.1460  0.2039
  185MOL0     C24348   0.978   2.733   0.059  0.8106 -0.0293  0.5381
  185MOL0     C24349   1.112   2.744   0.141  0.6650  0.7330  0.2284
  185MOL0     C24350   1.228   2.718   0.042  0.0350  0.8435 -0.3360
  185MOL0     C24351   1.227   2.780  -0.097 -0.5739  0.4348 -1.0470
  185MOL0     C24352   1.227   2.829  -0.212 -0.1380  0.3032 -0.2435
  185MOL0     C24353   0.753   2.803   0.430  0.4001 -0.2645 -0.1610
  185MOL0     C24354   0.700   2.849   0.546  0.1308 -0.6316  0.9480
  185MOL0     H24355   0.370   3.349   0.693 -1.3530 -1.1258  0.1921
  185MOL0     H24356   0.254   3.429   0.889  1.0156  0.7729 -2.1557
  185MOL0     H24357   0.446   3.446   1.289 -1.8720  3.6274 -1.0423
  185MOL0     H24358   0.374   3.292   1.291 -0.6115 -0.6502  0.9823
  185MOL0     H24359   0.147   3.412   1.331  1.0885 -1.6113 -1.9702
  185MOL0     H24360   0.227   3.563   1.315  0.5887  0.3471  2.7010
  185MOL0     H24361   0.204   3.547   1.542 -2.0629 -2.0385 -0.1051
  185MOL0     H24362   0.376   3.498   1.500  0.3793 -1.7807  1.3365
  185MOL0     H24363   0.142   3.315   1.593  0.2943 -1.2396 -0.1527
  185MOL0     H24364   0.309   3.263   1.545 -2.1930 -1.6965  0.0616
  185MOL0     H24365   0.238   3.307   1.794 -0.3318  0.2877  0.9245
  185MOL0     H24366   0.267   3.478   1.749 -0.6481 -0.5542  1.8850
  185MOL0     H24367   0.486   3.450   1.696  1.7575 -1.0480 -1.0791
  185MOL0     H24368   0.461   3.267   1.710  0.9888 -0.5055 -0.5982
  185MOL0     H24369   0.409   3.445   1.948  0.3382 -0.8795  0.9381
  185MOL0     H24370   0.459   3.272   1.939 -3.4450  0.6706 -0.3759
  185MOL0     H24371   0.635   3.503   1.874 -1.8105  0.0052 -1.5581
  185MOL0     H24372   0.679   3.332   1.884 -2.0661 -1.4879 -0.9711
  185MOL0     H24373   0.669   3.229   2.124 -2.8629  0.1456  2.6839
  185MOL0     H24374   0.758   3.357   2.472 -0.0237 -0.8344  0.6477
  185MOL0     H24375   0.904   3.385   2.381  1.6241 -1.9166  0.0963
  185MOL0     H24376   0.918   3.156   2.439  0.7908  1.3711  0.8006
  185MOL0     H24377   0.864   3.157   2.269 -3.1510  2.8562 -1.9486
  185MOL0     H24378   0.671   3.080   2.306  0.6454 -0.5125  0.7559
  185MOL0     H24379   0.775   2.997   2.407 -2.2222 -1.7014  1.3688
  185MOL0     H24380   0.602   3.230   2.489 -1.6055  0.2064 -0.2259
  185MOL0     H24381   0.677   3.130   2.607 -1.3085  0.5320  0.0565
  185MOL0     H24382   0.268   3.018   2.594 -0.4204  0.5387  0.5861
  185MOL0     H24383   0.216   2.889   2.794 -0.6093 -0.3905 -1.4395
  185MOL0     H24384   0.440   2.411   3.089  3.7528 -1.2072  0.5375
  185MOL0     H24385   0.497   2.334   3.296  3.6990 -0.2356  0.4934
  185MOL0     H24386   0.567   2.660   3.617 -1.3965 -0.8012 -0.2681
  185MOL0     H24387   0.721   2.584   3.561  0.3830  1.3793  2.6557
  185MOL0     H24388   0.632   2.381   3.702 -0.0716  0.0255  2.4034
  185MOL0     H24389   0.529   2.490   3.775 -0.9513 -1.8863  0.6387
  185MOL0     H24390   0.731   2.667   3.800  2.9914  0.2003 -0.2936
  185MOL0     H24391   0.840   2.531   3.765  1.5598  1.2855  2.9537
  185MOL0     H24392   0.691   2.545   4.017  1.8460 -0.6903  0.9608
  185MOL0     H24393   0.745   2.390   3.942 -1.4738 -0.3771 -3.5295
  185MOL0     H24394   0.876   2.501   4.119 -2.5458  1.4134  0.1390
  185MOL0     H24395   0.939   2.613   3.994 -1.0726  0.3124 -0.6110
  185MOL0     H24396   0.994   2.410   3.860 -0.5858 -0.2119  0.2078
  185MOL0     H24397   0.947   2.302   3.986 -0.4514  1.8348  3.0951
  185MOL0     H24398   1.192   2.330   3.960  1.4378  2.5784  0.0888
  185MOL0     H24399   1.177   2.492   3.988  1.5402  0.4206  3.6382
  185MOL0     H24400   1.090   2.436   4.232 -1.9030  0.2172 -0.7823
  185MOL0     H24401   1.252   2.392   4.192  0.3991 -1.4343 -0.4965
  185MOL0     H24402   0.557   2.757   3.418  0.0669 -0.9904  1.6627
  185MOL0     H24403   0.536   2.811   3.174 -0.6898 -0.0679 -0.5506
  185MOL0     H24404   0.642   2.793   2.848  0.8647 -0.9579 -1.6496
  185MOL0     H24405   0.664   2.881   2.615  1.9940 -1.8551  2.0252
  185MOL0     H24406   0.524   3.228   1.153  0.3837  1.8617  1.3149
  185MOL0     H24407   0.632   3.133   0.960 -0.8529 -0.4577  2.4971
  185MOL0     H24408   0.652   3.170   0.462  1.1059 -0.8037  2.8336
  185MOL0     H24409   0.731   3.081   0.240 -3.9231 -2.5608 -2.0146
  185MOL0     H24410   0.781   2.660   0.130 -1.5972  0.4705  2.5452
  185MOL0     H24411   0.910   2.669   0.254 -1.8415 -0.9633  0.6531
  185MOL0     H24412   0.979   2.638   0.004  0.8698 -0.1398  0.7273
  185MOL0     H24413   0.957   2.820  -0.003 -0.0258 -0.4193  0.2578
  185MOL0     H24414   1.115   2.664   0.216  0.1931 -0.0830 -0.6048
  185MOL0     H24415   1.120   2.843   0.188  2.8014 -0.1484  1.8984
  185MOL0     H24416   1.322   2.752   0.087  1.6606 -1.1409 -1.9654
  185MOL0     H24417   1.234   2.610   0.024  0.8729  1.1247 -1.9656
  185MOL0     H24418   1.228   2.854  -0.316 -2.3111 -1.9969 -0.9270
  185MOL0     H24419   0.810   2.711   0.429  1.6828  0.3775  3.1515
  185MOL0     H24420   0.680   2.771   0.619  1.0478 -1.2204  0.5958
  186MOL0     O24421  11.266   5.066   8.734  0.3853 -0.1105  0.3830
  186MOL0     C24422  11.224   5.092   8.623 -0.4911 -0.0227  0.9908
  186MOL0     O24423  11.213   5.222   8.575 -0.2422  0.8163  0.2867
  186MOL0     C24424  11.248   5.332   8.652 -0.0726  1.5801 -0.0225
  186MOL0     C24425  11.140   5.409   8.696  1.0411 -0.1466 -0.8551
  186MOL0     C24426  11.170   5.523   8.764  0.0846  0.7544 -0.7193
  186MOL0     C24427  11.302   5.567   8.794  0.2339  0.6249 -0.4159
  186MOL0     O24428  11.333   5.677   8.878 -0.0199  0.4077  0.8206
  186MOL0     C24429  11.234   5.780   8.895  0.2910  0.4359  0.3023
  186MOL0     C24430  11.277   5.880   8.990  1.0230  0.6063 -0.3117
  186MOL0     C24431  11.309   5.824   9.123  0.4138 -0.0024 -0.2097
  186MOL0     C24432  11.364   5.930   9.213 -0.7163 -0.4451 -0.3691
  186MOL0     C24433  11.255   6.023   9.277 -0.1918  0.7317  1.2859
  186MOL0     C24434  11.217   5.990   9.421  0.2434 -0.1312 -0.3425
  186MOL0     C24435  11.093   6.065   9.464  0.3024  0.4990 -0.2259
  186MOL0     C24436  11.138   6.183   9.542 -0.6110 -0.0938 -0.3702
  186MOL0     N24437  11.028   6.250   9.605 -0.1658 -0.1567  0.8111
  186MOL0     C24438  11.043   6.370   9.665 -0.2179  0.7274 -0.7554
  186MOL0     C24439  10.919   6.398   9.723 -0.5175 -0.6049 -0.9363
  186MOL0     C24440  10.884   6.527   9.788 -0.1664 -0.0665  0.2786
  186MOL0     C24441  10.869   6.632   9.675  1.1354 -0.0774  0.4611
  186MOL0     C24442  10.840   6.771   9.735  0.2180  0.5801  0.8561
  186MOL0     C24443  10.823   6.882   9.625 -0.2275  0.9633 -0.3810
  186MOL0     O24444  10.754   6.993   9.678 -0.0987 -0.0462  0.5506
  186MOL0     C24445  10.741   7.105   9.605  0.2418  0.4674 -0.2551
  186MOL0     C24446  10.629   7.180   9.628 -0.3393  0.1634  0.3083
  186MOL0     C24447  10.610   7.296   9.542  0.7819  0.0526 -0.1564
  186MOL0     C24448  10.697   7.329   9.434  0.3961 -0.2080  0.1709
  186MOL0     C24449  10.691   7.453   9.363 -0.4509 -0.8006  0.4025
  186MOL0     O24450  10.593   7.540   9.422  0.7305  0.2356 -0.0363
  186MOL0     C24451  10.562   7.660   9.363  0.5389 -0.4055  0.3481
  186MOL0     C24452  10.598   7.786   9.414 -0.5081 -0.3938  0.4106
  186MOL0     C24453  10.595   7.911   9.352 -0.6395 -0.3030 -0.5825
  186MOL0     C24454  10.541   7.910   9.221 -0.0820  0.0993  0.1500
  186MOL0     O24455  10.526   8.025   9.153  0.3568 -0.9170  0.6276
  186MOL0     C24456  10.569   8.147   9.218 -0.1886 -0.9444  0.6011
  186MOL0     C24457  10.563   8.270   9.123  0.9065 -0.3893 -0.3175
  186MOL0     C24458  10.418   8.300   9.080 -0.2070  0.2331  0.5359
  186MOL0     C24459  10.423   8.427   9.001  0.3484 -0.1655 -0.0786
  186MOL0     C24460  10.279   8.473   8.988 -0.0596 -0.6071 -1.2767
  186MOL0     C24461  10.299   8.605   8.903  0.6129 -0.2980  0.7557
  186MOL0     C24462  10.173   8.691   8.898 -0.6466  0.0111 -0.6048
  186MOL0     C24463  10.188   8.831   8.860 -0.4513 -0.3887  0.6541
  186MOL0    Cl24464  10.297   8.911   8.977  0.0467 -0.4287 -0.2933
  186MOL0     C24465  10.503   7.783   9.164  0.5562 -0.8845  0.2044
  186MOL0     C24466  10.507   7.662   9.236 -0.0888 -0.1077 -1.2161
  186MOL0     O24467  10.773   7.488   9.277  0.7692 -0.6947 -0.3354
  186MOL0     C24468  10.809   7.242   9.420  0.1623 -0.5466  0.2583
  186MOL0     C24469  10.824   7.137   9.502  0.9205 -1.5301  0.1289
  186MOL0     N24470  10.837   6.292   9.702  0.7914 -0.4067  0.4046
  186MOL0     N24471  10.899   6.212   9.630  0.4666 -1.0295  0.1746
  186MOL0     C24472  11.400   5.487   8.745 -0.1736 -0.5237  0.6467
  186MOL0     C24473  11.382   5.368   8.676 -0.3507 -0.2907  0.1589
  186MOL0     C24474  11.163   4.984   8.537 -1.0460 -0.1953  0.2530
  186MOL0     C24475  11.155   4.851   8.585  0.0750 -0.8573 -0.0542
  186MOL0     C24476  11.108   4.750   8.512 -0.0769 -1.2381  0.1978
  186MOL0     C24477  11.066   4.770   8.378 -0.2415 -0.6001  0.7340
  186MOL0     O24478  11.014   4.662   8.312 -0.3771 -0.0435  0.0844
  186MOL0     C24479  11.064   4.651   8.176  0.2625  0.8598 -0.0341
  186MOL0     C24480  11.182   4.555   8.160  0.1482  1.2400 -0.2981
  186MOL0     C24481  11.306   4.593   8.235  0.1675  0.2234  0.0974
  186MOL0     C24482  11.427   4.511   8.190  0.9466  0.4517  0.0728
  186MOL0     C24483  11.399   4.369   8.208 -0.2849 -0.4996 -0.1779
  186MOL0     C24484  11.389   4.259   8.249 -1.7955 -0.0538  0.3112
  186MOL0     C24485  11.072   4.902   8.335 -0.5315 -0.1970  0.1102
  186MOL0     C24486  11.117   5.006   8.408 -0.3724  0.6351 -0.3062
  186MOL0     H24487  11.039   5.381   8.671  0.4035  0.1566  1.2006
  186MOL0     H24488  11.079   5.566   8.805  1.3959  0.4561  2.8809
  186MOL0     H24489  11.140   5.736   8.930 -0.1531  1.0310 -0.1371
  186MOL0     H24490  11.209   5.826   8.799  1.9935 -0.1556 -0.4575
  186MOL0     H24491  11.196   5.953   8.999 -0.1090 -0.6888  0.3332
  186MOL0     H24492  11.371   5.912   8.945  0.9893 -1.6101 -2.1028
  186MOL0     H24493  11.382   5.742   9.113 -0.3976 -0.4895 -3.5530
  186MOL0     H24494  11.223   5.779   9.174  1.8779  0.2111  2.6314
  186MOL0     H24495  11.408   5.877   9.298 -0.0299 -1.1184 -1.1182
  186MOL0     H24496  11.436   5.997   9.165 -1.4090 -0.6091 -1.6716
  186MOL0     H24497  11.170   6.030   9.208  0.8907  1.0780 -0.0471
  186MOL0     H24498  11.306   6.120   9.287 -0.1934  0.8245  0.4037
  186MOL0     H24499  11.303   6.004   9.487  0.8334 -4.1679  0.0201
  186MOL0     H24500  11.198   5.882   9.425  3.3401 -0.8315 -1.3559
  186MOL0     H24501  11.028   6.092   9.380  0.9396 -1.5356 -1.4400
  186MOL0     H24502  11.031   5.992   9.516 -0.9463 -0.3048 -2.6642
  186MOL0     H24503  11.199   6.253   9.486 -1.6118 -0.6538 -2.2352
  186MOL0     H24504  11.202   6.160   9.628  0.6621  1.4183 -0.8585
  186MOL0     H24505  11.133   6.430   9.655  2.4892 -2.9548 -0.6415
  186MOL0     H24506  10.975   6.560   9.839  1.4002  2.4400 -3.6587
  186MOL0     H24507  10.792   6.522   9.847  0.1403  0.9867  0.8610
  186MOL0     H24508  10.790   6.595   9.610  2.1053 -2.1146  0.3935
  186MOL0     H24509  10.959   6.637   9.614  0.0832  0.1655 -1.1112
  186MOL0     H24510  10.741   6.767   9.781 -0.6271 -1.9270 -0.9108
  186MOL0     H24511  10.912   6.792   9.815 -1.4252  2.3019  1.9718
  186MOL0     H24512  10.794   6.836   9.530  1.9135 -2.5441  0.4948
  186MOL0     H24513  10.924   6.923   9.611  1.5621 -1.6231  3.2740
  186MOL0     H24514  10.567   7.159   9.715 -1.4090  2.6331  0.2323
  186MOL0     H24515  10.535   7.360   9.586  2.1884  0.4742  1.7518
  186MOL0     H24516  10.627   7.788   9.518  3.5103 -1.9054 -0.5131
  186MOL0     H24517  10.612   8.004   9.405 -1.5174 -1.2182  1.3919
  186MOL0     H24518  10.672   8.143   9.255 -0.0720  0.0640  0.4392
  186MOL0     H24519  10.497   8.176   9.295 -1.8469  1.1362 -1.5398
  186MOL0     H24520  10.632   8.257   9.039 -0.5258  0.6406 -1.7202
  186MOL0     H24521  10.595   8.358   9.179  0.5228 -1.0330  0.9487
  186MOL0     H24522  10.354   8.310   9.168 -3.5262 -1.7346 -1.4123
  186MOL0     H24523  10.375   8.219   9.020  0.8104  0.5827 -0.6952
  186MOL0     H24524  10.483   8.497   9.061  2.1769  0.4707 -2.4970
  186MOL0     H24525  10.471   8.410   8.904 -0.7037 -1.1642 -0.4501
  186MOL0     H24526  10.239   8.504   9.085 -3.9895 -1.7671 -2.3389
  186MOL0     H24527  10.208   8.402   8.944 -1.9846 -1.5617  2.8351
  186MOL0     H24528  10.323   8.585   8.798 -2.7117 -0.5844 -0.0679
  186MOL0     H24529  10.380   8.664   8.946 -0.2475 -1.1062  3.6779
  186MOL0     H24530  10.100   8.644   8.831 -2.0657  3.9047 -2.0609
  186MOL0     H24531  10.148   8.695   9.004  0.3188  1.5783 -0.3979
  186MOL0     H24532  10.088   8.876   8.861 -0.2412  0.1037  2.7537
  186MOL0     H24533  10.226   8.834   8.757 -2.9841 -0.4106 -0.3511
  186MOL0     H24534  10.478   7.801   9.060 -0.1552 -0.1042  0.4968
  186MOL0     H24535  10.475   7.567   9.194  0.2158 -0.9258  0.3392
  186MOL0     H24536  10.895   7.260   9.356  1.7426  0.6778  2.5808
  186MOL0     H24537  10.919   7.087   9.483 -0.1285 -3.6318  0.0974
  186MOL0     H24538  11.502   5.515   8.769  0.5646 -2.3330 -0.2141
  186MOL0     H24539  11.464   5.308   8.636 -1.8847  0.1062 -4.0940
  186MOL0     H24540  11.163   4.837   8.692 -3.1359 -0.5709  0.3495
  186MOL0     H24541  11.080   4.656   8.558 -0.6275  0.4235  3.5681
  186MOL0     H24542  11.094   4.747   8.133  2.0271  1.0912  1.5793
  186MOL0     H24543  10.986   4.616   8.109 -0.1012  1.9546 -0.1942
  186MOL0     H24544  11.143   4.456   8.183 -0.0294  0.8838 -1.9936
  186MOL0     H24545  11.221   4.552   8.057 -0.0496  0.1445 -0.3546
  186MOL0     H24546  11.284   4.588   8.342 -3.6438 -0.2374 -0.5606
  186MOL0     H24547  11.329   4.698   8.217  0.3154  0.3256  0.8345
  186MOL0     H24548  11.449   4.521   8.083  1.1734 -0.9124 -0.0244
  186MOL0     H24549  11.520   4.531   8.244  2.4616 -1.8474 -1.4681
  186MOL0     H24550  11.381   4.156   8.278  0.8302  0.2635  2.5184
  186MOL0     H24551  11.062   4.925   8.229 -0.8965  0.2203  0.2280
  186MOL0     H24552  11.140   5.103   8.364 -0.0519  0.3812 -0.6955
  187MOL0     O24553   2.822   0.981   9.746  0.5324 -0.6449  0.5453
  187MOL0     C24554   2.819   1.097   9.704 -0.7404 -0.3468  0.1698
  187MOL0     O24555   2.934   1.170   9.683  0.1122  0.0834 -0.1604
  187MOL0     C24556   3.058   1.120   9.653 -0.5446  0.1321  0.7467
  187MOL0     C24557   3.071   0.987   9.614 -0.2916  0.2444  1.1312
  187MOL0     C24558   3.193   0.929   9.611 -1.2908  0.9897  1.3993
  187MOL0     C24559   3.308   1.000   9.620 -0.4061  0.1882 -0.2881
  187MOL0     O24560   3.434   0.952   9.600 -0.6064 -0.1640 -0.2266
  187MOL0     C24561   3.454   0.808   9.587 -0.8874 -0.3337 -0.2196
  187MOL0     C24562   3.603   0.778   9.549  0.3430  0.0369 -0.9856
  187MOL0     C24563   3.624   0.817   9.402  0.0730 -0.1259  1.2909
  187MOL0     C24564   3.764   0.790   9.353  0.2358 -0.1429 -0.9542
  187MOL0     C24565   3.813   0.637   9.343  0.5179  0.4382 -0.9177
  187MOL0     C24566   3.953   0.638   9.277 -0.2712  0.1728  0.2345
  187MOL0     C24567   3.941   0.651   9.127  0.8748 -0.6570  0.0852
  187MOL0     C24568   4.073   0.632   9.053 -1.2382 -0.3868 -0.1080
  187MOL0     N24569   4.067   0.690   8.914 -0.0589 -0.0827  0.2565
  187MOL0     C24570   3.999   0.633   8.806  0.1779 -1.0888  0.6705
  187MOL0     C24571   4.008   0.717   8.702 -0.8247 -0.8478  0.3183
  187MOL0     C24572   3.941   0.705   8.568  0.0941 -0.3775  0.6335
  187MOL0     C24573   4.005   0.582   8.498 -0.1868 -0.2098 -0.1437
  187MOL0     C24574   3.950   0.559   8.354 -0.6467  0.1453 -0.2305
  187MOL0     C24575   4.016   0.433   8.288 -0.2465  0.2959 -0.3385
  187MOL0     O24576   4.007   0.312   8.365  0.0189 -0.2833 -0.6508
  187MOL0     C24577   4.072   0.210   8.301  1.2410  0.7305 -0.0932
  187MOL0     C24578   4.080   0.095   8.375  0.2109  0.3162 -0.1549
  187MOL0     C24579   4.149  -0.018   8.324  0.8624 -0.8509 -1.4777
  187MOL0     C24580   4.200  -0.016   8.193  0.7426 -0.5704 -0.4201
  187MOL0     C24581   4.269  -0.134   8.141  0.0265 -0.7648  0.2056
  187MOL0     O24582   4.336  -0.120   8.020  0.7587  0.4802  0.6322
  187MOL0     C24583   4.397  -0.230   7.963 -0.2211 -0.7133  0.5365
  187MOL0     C24584   4.499  -0.206   7.888 -0.3988  0.5320  0.1263
  187MOL0     C24585   4.556  -0.312   7.812  0.1853  0.3221  0.4331
  187MOL0     C24586   4.505  -0.446   7.819  0.1685  0.3903 -0.1234
  187MOL0     O24587   4.546  -0.555   7.753  0.0564 -0.6635 -0.9126
  187MOL0     C24588   4.646  -0.542   7.654 -0.0790  0.6233  0.1332
  187MOL0     C24589   4.660  -0.662   7.553 -0.4837 -0.0395  0.6959
  187MOL0     C24590   4.771  -0.644   7.455  0.8537 -1.3866  0.4923
  187MOL0     C24591   4.786  -0.759   7.367  0.1981  0.4389  0.7512
  187MOL0     C24592   4.914  -0.781   7.282  0.1067 -0.0691  0.0082
  187MOL0     C24593   4.939  -0.669   7.181 -0.0374  0.5772  0.7905
  187MOL0     C24594   5.028  -0.733   7.071 -0.0276 -0.7830  0.2866
  187MOL0     C24595   5.075  -0.627   6.966 -0.5098 -0.6047 -0.4338
  187MOL0    Cl24596   5.128  -0.467   7.026  0.6184 -0.2913 -0.3544
  187MOL0     C24597   4.392  -0.470   7.900 -0.9340 -0.0469  0.2104
  187MOL0     C24598   4.347  -0.363   7.984 -0.2302 -0.1403  0.8777
  187MOL0     O24599   4.284  -0.226   8.220 -0.0889 -1.0524  0.6577
  187MOL0     C24600   4.178   0.100   8.110 -0.1089  0.0795  0.3968
  187MOL0     C24601   4.107   0.207   8.170 -0.4508 -0.2672  0.4933
  187MOL0     N24602   4.107   0.801   8.742  0.1369  0.1336  0.5896
  187MOL0     N24603   4.142   0.786   8.856  0.3206 -0.7946  0.3330
  187MOL0     C24604   3.305   1.136   9.653  0.1976 -0.4257  1.0891
  187MOL0     C24605   3.178   1.196   9.678  0.3991  0.7907  1.1754
  187MOL0     C24606   2.684   1.158   9.682 -0.6775  0.0830 -0.2591
  187MOL0     C24607   2.566   1.085   9.725 -0.5557 -0.1585  0.4445
  187MOL0     C24608   2.435   1.134   9.722 -0.2479 -0.4359 -0.1162
  187MOL0     C24609   2.423   1.262   9.673  0.1217 -0.4510 -1.1552
  187MOL0     O24610   2.291   1.312   9.666 -0.2799  0.4975  0.2547
  187MOL0     C24611   2.219   1.324   9.793 -0.3835  0.0801  0.3963
  187MOL0     C24612   2.290   1.434   9.889 -0.6365  0.0776  0.0154
  187MOL0     C24613   2.283   1.570   9.831 -0.3266  1.0096 -1.0686
  187MOL0     C24614   2.298   1.676   9.939 -0.0973  0.2341  0.1078
  187MOL0     C24615   2.278   1.803   9.873 -0.4257 -0.0964 -0.2766
  187MOL0     C24616   2.258   1.907   9.823 -1.1699  0.4199 -0.5098
  187MOL0     C24617   2.534   1.331   9.623 -0.8374  0.2581  0.4628
  187MOL0     C24618   2.666   1.285   9.639 -0.1496 -0.0023  1.3158
  187MOL0     H24619   2.986   0.927   9.585 -3.4967  3.8655  2.1665
  187MOL0     H24620   3.198   0.823   9.588 -1.5746  1.1915  0.3819
  187MOL0     H24621   3.382   0.757   9.522  2.0392 -1.6334 -2.7504
  187MOL0     H24622   3.440   0.770   9.689  2.0067 -0.1776  0.3321
  187MOL0     H24623   3.624   0.674   9.571 -1.1524 -0.8111 -3.1337
  187MOL0     H24624   3.657   0.840   9.620 -1.9574  1.9448 -0.7572
  187MOL0     H24625   3.600   0.922   9.382  0.8638 -0.2913 -0.8103
  187MOL0     H24626   3.559   0.758   9.335 -1.7102 -0.0362  2.8600
  187MOL0     H24627   3.773   0.843   9.258  1.3632 -0.2536 -0.9165
  187MOL0     H24628   3.828   0.842   9.424 -0.0451  1.2685 -1.6985
  187MOL0     H24629   3.743   0.573   9.289  0.5314  0.7813 -1.3444
  187MOL0     H24630   3.825   0.595   9.444  1.1888  0.5880 -0.9248
  187MOL0     H24631   4.008   0.544   9.293  1.1594  1.3923  3.3077
  187MOL0     H24632   4.020   0.712   9.322  1.7905 -2.1277  1.1841
  187MOL0     H24633   3.870   0.574   9.093  0.0355 -0.0331  0.3860
  187MOL0     H24634   3.902   0.752   9.111  0.1676 -0.7112  1.3542
  187MOL0     H24635   4.093   0.525   9.059  1.0404  0.0243  0.8588
  187MOL0     H24636   4.157   0.678   9.107  0.0154 -1.9582 -0.6346
  187MOL0     H24637   3.934   0.546   8.807 -0.9810 -0.2278  1.4368
  187MOL0     H24638   3.956   0.789   8.500 -0.1216  0.7504  1.9416
  187MOL0     H24639   3.836   0.681   8.587  0.4421 -1.9078  0.8114
  187MOL0     H24640   3.993   0.498   8.567  0.6744 -1.6751 -1.7391
  187MOL0     H24641   4.113   0.589   8.486 -0.2424  0.1275 -0.4680
  187MOL0     H24642   3.845   0.530   8.370  0.1304 -2.1773  1.1283
  187MOL0     H24643   3.968   0.645   8.289 -1.4098 -0.0430 -0.7011
  187MOL0     H24644   4.120   0.455   8.263  0.4637 -1.9753  0.4109
  187MOL0     H24645   3.962   0.426   8.193 -1.9566 -0.8039  0.6587
  187MOL0     H24646   4.036   0.090   8.474 -0.0306 -3.7403 -0.3178
  187MOL0     H24647   4.156  -0.108   8.384  1.9783 -1.8304 -3.0021
  187MOL0     H24648   4.540  -0.107   7.875  0.5054  0.1140 -0.3430
  187MOL0     H24649   4.646  -0.291   7.755  0.9869 -0.5343  1.3510
  187MOL0     H24650   4.744  -0.539   7.702  0.3351 -4.2677  0.0795
  187MOL0     H24651   4.635  -0.451   7.594 -0.7597 -0.3038 -1.1949
  187MOL0     H24652   4.566  -0.672   7.497  0.9288  1.0888 -2.0566
  187MOL0     H24653   4.670  -0.751   7.616 -0.1434  1.8301  3.4302
  187MOL0     H24654   4.867  -0.631   7.506 -0.9830 -2.3733  4.6048
  187MOL0     H24655   4.753  -0.558   7.391 -3.5742 -1.3384  1.4719
  187MOL0     H24656   4.775  -0.853   7.422  1.4500  1.9501  3.8530
  187MOL0     H24657   4.707  -0.757   7.291  1.0078  1.1565 -0.0915
  187MOL0     H24658   4.900  -0.874   7.226 -3.6680  1.3470 -1.7448
  187MOL0     H24659   4.996  -0.800   7.352 -1.5191 -1.6356  1.6055
  187MOL0     H24660   4.984  -0.582   7.230  1.5599  0.2891 -0.1135
  187MOL0     H24661   4.856  -0.638   7.117 -0.5983 -1.2991  0.5527
  187MOL0     H24662   5.113  -0.777   7.123  0.3016 -2.0888 -1.2648
  187MOL0     H24663   4.976  -0.813   7.017  0.1651  0.7560 -2.3538
  187MOL0     H24664   5.007  -0.617   6.880 -1.7286  2.6565  0.7174
  187MOL0     H24665   5.168  -0.672   6.930 -0.7592 -0.6451 -1.0455
  187MOL0     H24666   4.357  -0.570   7.922  1.8983 -0.9512  1.0660
  187MOL0     H24667   4.251  -0.378   8.032 -0.0484  0.4959  1.4460
  187MOL0     H24668   4.208   0.087   8.007  3.6359  0.8752  1.2434
  187MOL0     H24669   4.078   0.290   8.106 -1.0148  0.4038  1.5938
  187MOL0     H24670   3.397   1.194   9.662  1.9032 -2.7951 -0.0573
  187MOL0     H24671   3.165   1.300   9.703 -0.2795  0.3038  3.0113
  187MOL0     H24672   2.584   0.985   9.763  0.3030  0.2123  1.0404
  187MOL0     H24673   2.348   1.081   9.759 -1.4439  1.2363 -0.4467
  187MOL0     H24674   2.212   1.223   9.834 -0.9220 -0.8047 -1.7073
  187MOL0     H24675   2.114   1.344   9.768 -0.6659  0.6720  1.9806
  187MOL0     H24676   2.234   1.436   9.982  0.1684  1.4043  0.4971
  187MOL0     H24677   2.389   1.397   9.917 -0.9919  0.7981  2.3676
  187MOL0     H24678   2.190   1.586   9.776 -3.3584 -0.0089  3.2189
  187MOL0     H24679   2.367   1.578   9.761 -0.5244  1.0614 -1.2998
  187MOL0     H24680   2.216   1.653  10.007  1.7105 -0.2112  2.2430
  187MOL0     H24681   2.397   1.672   9.984 -0.3722  0.4374  0.7375
  187MOL0     H24682   2.247   2.006   9.785  2.3962  0.4225 -1.9280
  187MOL0     H24683   2.532   1.411   9.550  1.0523 -0.6009 -0.6373
  187MOL0     H24684   2.745   1.349   9.600 -1.9948  2.5996  1.5914
  188MOL0     O24685   1.811   0.068   4.640 -0.5210  0.4232  0.7814
  188MOL0     C24686   1.709   0.118   4.670  0.5041  0.4244 -0.1508
  188MOL0     O24687   1.674   0.246   4.636 -0.4775  0.4485  0.3362
  188MOL0     C24688   1.766   0.322   4.574  0.5368 -0.0901 -0.1825
  188MOL0     C24689   1.757   0.360   4.440  0.2347  0.1364 -0.2535
  188MOL0     C24690   1.851   0.446   4.386 -1.1930 -0.7252  0.3873
  188MOL0     C24691   1.962   0.490   4.462  0.0999 -0.8624  0.2864
  188MOL0     O24692   2.045   0.582   4.395  0.8053  0.2428  0.1344
  188MOL0     C24693   2.081   0.699   4.467  0.7900 -1.2736 -0.6030
  188MOL0     C24694   2.152   0.802   4.383 -0.9108 -0.1438  0.0923
  188MOL0     C24695   2.069   0.848   4.267 -0.0221 -0.5024  1.0955
  188MOL0     C24696   2.140   0.959   4.194  0.6781  0.8682  0.2811
  188MOL0     C24697   2.062   0.990   4.058 -0.0221 -0.2038 -0.4412
  188MOL0     C24698   2.118   1.113   4.002  0.4014 -0.2714  0.5104
  188MOL0     C24699   2.059   1.166   3.864 -0.6672  0.5675 -0.0497
  188MOL0     C24700   2.149   1.266   3.792  0.6260  0.0141  0.3906
  188MOL0     N24701   2.084   1.329   3.681  0.4938 -0.3159  0.3662
  188MOL0     C24702   2.088   1.272   3.558  0.2990 -0.4768  0.6551
  188MOL0     C24703   2.034   1.354   3.474  0.7494 -0.6594  0.5690
  188MOL0     C24704   1.999   1.330   3.328 -0.0180 -0.1139 -0.3600
  188MOL0     C24705   2.037   1.458   3.243  0.3352 -0.5210  0.4115
  188MOL0     C24706   2.016   1.433   3.091 -0.7136  0.3753 -0.2732
  188MOL0     C24707   2.070   1.543   3.000 -0.8481 -0.5382 -0.1906
  188MOL0     O24708   1.997   1.669   3.010  0.1772  0.0979 -0.4728
  188MOL0     C24709   2.012   1.748   2.904 -0.5821  0.0126 -0.1831
  188MOL0     C24710   1.901   1.779   2.840 -0.6912 -0.1817  0.2169
  188MOL0     C24711   1.904   1.834   2.708 -0.3567 -0.2893  0.1794
  188MOL0     C24712   2.026   1.872   2.656 -0.1214 -0.5978 -0.4597
  188MOL0     C24713   2.027   1.923   2.517  0.3736  0.5035 -0.4881
  188MOL0     O24714   1.906   1.925   2.447  0.2678 -0.5280  0.0014
  188MOL0     C24715   1.908   1.983   2.319  0.0540 -0.5762 -0.9081
  188MOL0     C24716   1.822   1.931   2.225  0.8149 -0.2824  0.6372
  188MOL0     C24717   1.790   1.999   2.108 -0.4029  0.5406 -0.3132
  188MOL0     C24718   1.845   2.124   2.076  0.0738 -0.2984  0.5662
  188MOL0     O24719   1.806   2.189   1.960  0.1341  0.4042 -0.0507
  188MOL0     C24720   1.855   2.311   1.913 -0.3763  0.2313 -0.8356
  188MOL0     C24721   1.792   2.364   1.791  0.4089 -0.6355  0.6712
  188MOL0     C24722   1.797   2.281   1.663 -0.8958  0.1393 -0.3244
  188MOL0     C24723   1.932   2.214   1.630 -0.6656  0.2063 -0.3368
  188MOL0     C24724   1.948   2.140   1.493 -0.3559  0.2997  0.2464
  188MOL0     C24725   1.967   1.981   1.516  0.1619 -0.7189  0.4398
  188MOL0     C24726   2.105   1.939   1.569 -0.1422  0.0294  0.2411
  188MOL0     C24727   2.137   1.980   1.713 -1.4584 -0.1358  0.0133
  188MOL0    Cl24728   2.285   1.890   1.745  0.3161 -0.1400 -0.1315
  188MOL0     C24729   1.941   2.174   2.168  0.4903 -0.4061  0.0532
  188MOL0     C24730   1.969   2.104   2.292  0.2904 -0.2743  1.0736
  188MOL0     O24731   2.139   1.941   2.471  0.0432 -0.0477 -0.2241
  188MOL0     C24732   2.145   1.862   2.732  0.0239  0.9395  0.5769
  188MOL0     C24733   2.139   1.794   2.853 -0.3100 -0.4383 -0.2682
  188MOL0     N24734   1.998   1.466   3.547  0.9119 -0.7665  0.9460
  188MOL0     N24735   2.012   1.446   3.672  0.1563 -0.3837  0.5150
  188MOL0     C24736   1.972   0.444   4.590  0.4014  0.5173  0.0451
  188MOL0     C24737   1.875   0.369   4.647  0.1043  0.2896 -0.4915
  188MOL0     C24738   1.610   0.035   4.738  0.3028 -0.7599 -0.0045
  188MOL0     C24739   1.635  -0.101   4.785  0.5753 -0.1614  0.0091
  188MOL0     C24740   1.535  -0.168   4.860  1.0980 -0.1210  0.3844
  188MOL0     C24741   1.399  -0.117   4.877 -0.5653 -0.7947 -0.5385
  188MOL0     O24742   1.302  -0.189   4.946  0.7367 -0.3884  0.7219
  188MOL0     C24743   1.325  -0.310   5.013 -0.8401 -0.2945  0.6846
  188MOL0     C24744   1.338  -0.432   4.930  0.1849 -1.0694 -0.2794
  188MOL0     C24745   1.217  -0.486   4.862 -0.1536 -0.1621  0.1467
  188MOL0     C24746   1.254  -0.609   4.785  0.4857 -0.3788 -0.3676
  188MOL0     C24747   1.125  -0.655   4.759 -0.1347  0.3428  1.2129
  188MOL0     C24748   1.009  -0.711   4.755 -0.3892 -0.4801 -0.4765
  188MOL0     C24749   1.369   0.004   4.805 -0.2985 -0.0882  0.3806
  188MOL0     C24750   1.474   0.075   4.741 -0.4631  0.6511  0.2926
  188MOL0     H24751   1.668   0.330   4.385 -0.7694 -1.8521  2.2318
  188MOL0     H24752   1.847   0.481   4.283  1.1842  1.0657  0.8233
  188MOL0     H24753   2.156   0.676   4.544 -0.1120  1.2412  1.1484
  188MOL0     H24754   1.990   0.737   4.513  0.0137 -1.5280 -1.8910
  188MOL0     H24755   2.243   0.753   4.347  0.3629  1.4678  0.9555
  188MOL0     H24756   2.169   0.890   4.445 -1.8148  0.9632 -1.1830
  188MOL0     H24757   1.977   0.889   4.309 -0.4655 -0.6369  0.2917
  188MOL0     H24758   2.052   0.768   4.193 -1.2823  0.9608 -0.2839
  188MOL0     H24759   2.151   1.049   4.255  3.5674  0.7781  0.0309
  188MOL0     H24760   2.244   0.930   4.174  1.1287  1.0738  2.1693
  188MOL0     H24761   1.955   0.998   4.079  0.4773  2.4402  1.6196
  188MOL0     H24762   2.074   0.900   3.997  0.4029  0.7220 -1.7702
  188MOL0     H24763   2.223   1.088   3.985  0.9549  2.2990 -0.3113
  188MOL0     H24764   2.103   1.196   4.072  0.4156  1.2904 -1.2724
  188MOL0     H24765   2.036   1.086   3.793 -0.0599 -1.8575  2.3493
  188MOL0     H24766   1.964   1.217   3.883 -2.4258 -2.6124  0.2879
  188MOL0     H24767   2.243   1.222   3.757 -0.6073 -3.2840  0.8846
  188MOL0     H24768   2.160   1.345   3.867  0.6571 -0.4865  0.9274
  188MOL0     H24769   2.143   1.180   3.538  1.1103 -0.3462  2.1338
  188MOL0     H24770   1.891   1.327   3.312 -0.1852 -1.2706  0.8081
  188MOL0     H24771   2.064   1.250   3.292  0.7858  1.6390 -3.1112
  188MOL0     H24772   2.143   1.486   3.251  0.4354 -1.2977  2.2073
  188MOL0     H24773   1.980   1.544   3.279 -1.2419 -0.5237 -1.8845
  188MOL0     H24774   2.062   1.341   3.053  0.7076  0.7950  0.3623
  188MOL0     H24775   1.908   1.419   3.080 -1.7765  3.7280  3.4470
  188MOL0     H24776   2.073   1.503   2.898 -1.8615  0.9211 -0.8196
  188MOL0     H24777   2.177   1.545   3.022 -1.1585 -0.3620  1.3882
  188MOL0     H24778   1.803   1.745   2.871 -0.8695  0.1029 -0.0310
  188MOL0     H24779   1.805   1.841   2.665  1.1153 -1.7125 -3.9441
  188MOL0     H24780   1.785   1.831   2.246  1.8859 -0.5887  1.1077
  188MOL0     H24781   1.724   1.946   2.040 -0.8843 -1.9233  1.9354
  188MOL0     H24782   1.961   2.291   1.896  0.1474  1.7218  0.3610
  188MOL0     H24783   1.842   2.382   1.995 -0.2027  3.1180 -3.1394
  188MOL0     H24784   1.827   2.466   1.772 -2.5368  1.1665  3.7803
  188MOL0     H24785   1.690   2.380   1.825  1.7984  2.9604  4.0077
  188MOL0     H24786   1.767   2.337   1.575  1.0909  2.6694  0.4857
  188MOL0     H24787   1.723   2.201   1.677  0.4290 -1.7578 -3.1150
  188MOL0     H24788   2.016   2.284   1.635 -1.2974  0.9099  2.0272
  188MOL0     H24789   1.929   2.140   1.710  0.3845 -0.5878 -1.0100
  188MOL0     H24790   2.025   2.190   1.433 -2.4524  1.7908 -1.3209
  188MOL0     H24791   1.861   2.143   1.428  1.1730  1.9614 -1.8754
  188MOL0     H24792   1.961   1.942   1.414  0.6788  0.1163  0.0780
  188MOL0     H24793   1.881   1.958   1.579 -0.6138  2.1056  0.5551
  188MOL0     H24794   2.103   1.830   1.560 -0.7042  0.0274  0.3714
  188MOL0     H24795   2.180   1.978   1.499 -1.6406  1.8900 -0.4325
  188MOL0     H24796   2.061   1.960   1.790 -0.6517  0.5512  1.0254
  188MOL0     H24797   2.152   2.088   1.722  1.4923 -0.6165  2.2168
  188MOL0     H24798   1.970   2.275   2.142 -0.1562 -0.5180 -1.1745
  188MOL0     H24799   2.027   2.151   2.372  1.6986  1.9814 -1.1385
  188MOL0     H24800   2.239   1.896   2.690 -1.4054  2.3808 -1.7166
  188MOL0     H24801   2.231   1.785   2.910 -1.2167 -1.6572  1.0700
  188MOL0     H24802   2.058   0.468   4.652 -1.0294  1.7843  1.6040
  188MOL0     H24803   1.877   0.343   4.753 -0.7327 -0.0612 -0.5459
  188MOL0     H24804   1.736  -0.138   4.769  0.6404 -0.2183  0.5509
  188MOL0     H24805   1.560  -0.272   4.879 -2.5910 -1.7066 -2.1124
  188MOL0     H24806   1.235  -0.336   5.069 -1.5901 -1.1708 -0.8652
  188MOL0     H24807   1.400  -0.297   5.092 -0.5059  0.6378  0.2268
  188MOL0     H24808   1.403  -0.408   4.846  3.1510 -2.8974  1.3445
  188MOL0     H24809   1.390  -0.504   4.993  1.6482 -0.7827 -1.1216
  188MOL0     H24810   1.187  -0.408   4.791 -0.4864  0.6069  1.0989
  188MOL0     H24811   1.135  -0.508   4.931 -1.4183 -0.4049 -1.3632
  188MOL0     H24812   1.317  -0.586   4.698 -0.6464 -3.5055 -2.1931
  188MOL0     H24813   1.301  -0.685   4.849 -0.1595 -1.5034 -1.1809
  188MOL0     H24814   0.921  -0.771   4.758 -0.7403  0.0571  0.0887
  188MOL0     H24815   1.274   0.053   4.822  0.1878 -0.0531  3.4841
  188MOL0     H24816   1.449   0.163   4.683  3.0250  0.7088 -1.3843
  189MOL0     O24817   6.276   8.829   9.217  0.2552 -0.1936  1.0765
  189MOL0     C24818   6.258   8.705   9.190 -0.5325 -0.6651  0.8743
  189MOL0     O24819   6.155   8.644   9.122  0.3126 -0.6307 -0.1123
  189MOL0     C24820   6.052   8.716   9.073  0.2113  0.3063 -1.1216
  189MOL0     C24821   6.037   8.736   8.936  1.2158  0.4949  0.1411
  189MOL0     C24822   5.926   8.794   8.880  0.3620  0.7182 -0.0213
  189MOL0     C24823   5.822   8.846   8.970 -0.9107  0.3137  0.9235
  189MOL0     O24824   5.696   8.880   8.940  0.5134 -0.8013  0.8177
  189MOL0     C24825   5.624   8.794   8.850  0.0518  0.2363  0.2713
  189MOL0     C24826   5.533   8.878   8.766  0.2716  0.4257 -0.7207
  189MOL0     C24827   5.437   8.971   8.836 -0.2493  0.4732 -0.7448
  189MOL0     C24828   5.353   9.051   8.726 -0.2634 -0.9088  0.3394
  189MOL0     C24829   5.259   8.972   8.650  0.0205 -0.0064  0.0662
  189MOL0     C24830   5.141   8.913   8.730  0.3234 -0.4015  0.0477
  189MOL0     C24831   5.046   9.020   8.769 -0.7493  0.0268 -0.6513
  189MOL0     C24832   4.904   8.968   8.801 -0.9656  0.4043 -0.1281
  189MOL0     N24833   4.833   9.062   8.893  0.0003  0.7670  0.1098
  189MOL0     C24834   4.770   9.181   8.847  0.1036  0.0310  0.1597
  189MOL0     C24835   4.690   9.215   8.951  0.1902 -0.0980 -0.0945
  189MOL0     C24836   4.583   9.335   8.959  0.3934  0.0570  0.6576
  189MOL0     C24837   4.456   9.317   8.887 -0.0893  0.2286  0.7548
  189MOL0     C24838   4.369   9.196   8.936 -0.1251 -0.7766 -1.0754
  189MOL0     C24839   4.232   9.185   8.870  0.2101  0.4890  0.4440
  189MOL0     O24840   4.234   9.226   8.730 -0.0012 -0.4662 -0.7312
  189MOL0     C24841   4.188   9.138   8.645 -0.0889 -0.1786  0.8443
  189MOL0     C24842   4.253   9.014   8.623  0.4550 -0.4727  0.1007
  189MOL0     C24843   4.202   8.931   8.524 -0.0699  0.2689 -0.4561
  189MOL0     C24844   4.096   8.970   8.440 -0.2833 -0.8399  0.4571
  189MOL0     C24845   4.039   8.882   8.330  0.4245  0.2075  0.6644
  189MOL0     O24846   4.121   8.780   8.294 -0.9344 -0.2559  0.5320
  189MOL0     C24847   4.070   8.660   8.252 -0.4225 -0.1196 -0.0918
  189MOL0     C24848   4.151   8.583   8.171 -0.1602  0.6296  0.2976
  189MOL0     C24849   4.110   8.453   8.126  0.1875  0.0028 -0.3678
  189MOL0     C24850   3.986   8.395   8.171  0.5320  0.3637  0.2576
  189MOL0     O24851   3.938   8.275   8.129  0.1257 -0.7745  0.0310
  189MOL0     C24852   3.892   8.259   7.999  0.0732 -1.0625  0.5964
  189MOL0     C24853   3.829   8.117   7.963 -0.0347 -0.2564 -0.4656
  189MOL0     C24854   3.931   8.011   7.962 -0.1646  0.3804  0.7670
  189MOL0     C24855   3.890   7.880   7.884  0.6479  0.0133 -1.1150
  189MOL0     C24856   3.763   7.808   7.937 -0.1238 -0.3235  0.1164
  189MOL0     C24857   3.770   7.796   8.090 -0.3702  0.0043  0.5299
  189MOL0     C24858   3.655   7.715   8.143 -0.4931  0.0377  0.2377
  189MOL0     C24859   3.673   7.701   8.295  0.3582  0.0527  0.0582
  189MOL0    Cl24860   3.532   7.612   8.362  0.2022  0.0196  0.0030
  189MOL0     C24861   3.913   8.467   8.264  0.1259 -0.2294  1.5256
  189MOL0     C24862   3.947   8.599   8.301  0.5755 -0.3497  0.6597
  189MOL0     O24863   3.921   8.895   8.286  0.4160 -0.9338 -0.4300
  189MOL0     C24864   4.036   9.092   8.462  0.2490 -0.7043  0.9170
  189MOL0     C24865   4.085   9.176   8.566  0.4604 -0.1360  0.5782
  189MOL0     N24866   4.708   9.128   9.056 -0.0444 -0.1102  0.1107
  189MOL0     N24867   4.781   9.030   9.019 -0.1625 -0.1895  0.3828
  189MOL0     C24868   5.852   8.852   9.105  0.1542 -0.4359 -0.1673
  189MOL0     C24869   5.963   8.780   9.154 -0.0757  0.5805  0.3762
  189MOL0     C24870   6.349   8.606   9.251 -0.0573 -0.0281 -0.7097
  189MOL0     C24871   6.360   8.475   9.202  1.0907  0.2805 -0.4303
  189MOL0     C24872   6.450   8.389   9.257  0.6941  0.1727 -0.0657
  189MOL0     C24873   6.529   8.435   9.365  0.1780  0.1419 -0.3121
  189MOL0     O24874   6.617   8.345   9.417 -0.1391  0.7581  0.1493
  189MOL0     C24875   6.738   8.400   9.476  0.4561 -0.5130 -0.2600
  189MOL0     C24876   6.844   8.291   9.492  0.2763  0.2845 -0.1269
  189MOL0     C24877   6.965   8.349   9.569 -0.3288  0.6082 -0.4472
  189MOL0     C24878   7.068   8.249   9.615  0.1733 -0.1285  0.5203
  189MOL0     C24879   7.016   8.120   9.663  0.0787 -0.5777 -0.2649
  189MOL0     C24880   6.973   8.026   9.726  0.1911  0.7172 -0.4077
  189MOL0     C24881   6.519   8.571   9.406  0.4422 -0.1408 -0.1412
  189MOL0     C24882   6.430   8.656   9.353 -0.9094 -0.1613  0.5367
  189MOL0     H24883   6.112   8.691   8.871 -1.0426 -1.2073 -1.4121
  189MOL0     H24884   5.923   8.804   8.772  2.1197 -0.2949 -0.2006
  189MOL0     H24885   5.567   8.718   8.905 -2.3313  1.4143 -0.4269
  189MOL0     H24886   5.687   8.733   8.784 -1.3393 -0.4287 -0.5087
  189MOL0     H24887   5.474   8.810   8.705  2.6301  0.2952 -3.0276
  189MOL0     H24888   5.584   8.953   8.705 -1.1674  0.1764 -2.2970
  189MOL0     H24889   5.501   9.042   8.888 -0.5404  1.3254 -1.5201
  189MOL0     H24890   5.378   8.912   8.907 -0.9962 -0.7759 -2.3461
  189MOL0     H24891   5.288   9.119   8.781  0.0981  1.4753 -1.9575
  189MOL0     H24892   5.417   9.110   8.660 -1.1359 -1.5987 -1.1868
  189MOL0     H24893   5.320   8.901   8.592  1.5489  0.5053  0.9809
  189MOL0     H24894   5.223   9.040   8.573  0.7074  0.3132  0.0206
  189MOL0     H24895   5.167   8.855   8.819  0.0998 -0.7568 -0.1154
  189MOL0     H24896   5.082   8.840   8.673  0.7727 -1.1995  0.5847
  189MOL0     H24897   5.084   9.067   8.859 -0.5795  3.7190 -2.4473
  189MOL0     H24898   5.038   9.086   8.682 -0.2768 -2.8265 -3.0217
  189MOL0     H24899   4.916   8.867   8.842  3.9004  1.1569  1.0492
  189MOL0     H24900   4.856   8.966   8.703 -0.0227  2.3083 -0.6692
  189MOL0     H24901   4.777   9.224   8.748  1.5236  1.5034  0.8633
  189MOL0     H24902   4.627   9.431   8.928  0.6239 -0.1936  0.1976
  189MOL0     H24903   4.565   9.331   9.067 -1.2611  0.2554  0.4107
  189MOL0     H24904   4.474   9.305   8.780 -0.9606  0.2515  0.5977
  189MOL0     H24905   4.395   9.408   8.897 -1.8889 -0.7907 -0.3397
  189MOL0     H24906   4.421   9.102   8.913 -1.1584 -1.4907 -0.5802
  189MOL0     H24907   4.362   9.199   9.045  1.3835  1.9829 -0.9681
  189MOL0     H24908   4.168   9.250   8.929 -1.4374 -2.5188  2.2201
  189MOL0     H24909   4.175   9.092   8.878  0.4511 -0.0834 -2.8870
  189MOL0     H24910   4.346   8.983   8.669  0.2682 -1.4808 -0.1739
  189MOL0     H24911   4.255   8.841   8.494  1.0347  0.8574 -0.3513
  189MOL0     H24912   4.250   8.620   8.146  0.4410 -0.9688  0.1410
  189MOL0     H24913   4.182   8.402   8.064  1.1380 -0.3021  0.9467
  189MOL0     H24914   3.977   8.268   7.930 -1.0424 -1.9923 -0.9444
  189MOL0     H24915   3.820   8.335   7.967  0.3365 -1.0149  0.1047
  189MOL0     H24916   3.779   8.123   7.866  2.0751 -0.5978 -1.6472
  189MOL0     H24917   3.763   8.088   8.045  2.3385 -1.2433  1.2316
  189MOL0     H24918   3.965   7.990   8.063  1.1077 -0.4605  0.1882
  189MOL0     H24919   4.019   8.043   7.907 -1.1764 -0.6778 -1.6338
  189MOL0     H24920   3.868   7.918   7.784  1.0677  1.3855 -0.6993
  189MOL0     H24921   3.971   7.808   7.904  1.2169  1.3148  1.7465
  189MOL0     H24922   3.742   7.719   7.876  0.5138  0.4722 -1.3038
  189MOL0     H24923   3.680   7.875   7.914  1.5678  1.4633 -1.0730
  189MOL0     H24924   3.779   7.897   8.131 -0.5311 -0.1294  0.9039
  189MOL0     H24925   3.861   7.743   8.119 -1.4500 -1.2606  1.7257
  189MOL0     H24926   3.560   7.764   8.119 -1.4434 -1.4716  0.8016
  189MOL0     H24927   3.657   7.611   8.109  1.1878 -0.9328  3.0084
  189MOL0     H24928   3.675   7.801   8.340  0.4490 -0.0263  0.2321
  189MOL0     H24929   3.764   7.650   8.326 -0.1811  0.3658  2.3100
  189MOL0     H24930   3.816   8.433   8.299 -0.6076 -0.8201 -0.9266
  189MOL0     H24931   3.878   8.649   8.368  0.1518 -0.9691  0.6821
  189MOL0     H24932   3.946   9.119   8.407 -0.5944 -2.5536  1.3081
  189MOL0     H24933   4.052   9.276   8.593  2.3790  0.2648  1.6593
  189MOL0     H24934   5.790   8.903   9.178  0.1219 -2.8933  1.6463
  189MOL0     H24935   5.974   8.762   9.260 -4.0756  0.0089  0.8589
  189MOL0     H24936   6.305   8.450   9.112  1.8123  1.7022 -1.2904
  189MOL0     H24937   6.450   8.284   9.228  2.7576 -0.8608  3.1445
  189MOL0     H24938   6.701   8.434   9.573  1.3904 -5.0423  1.9552
  189MOL0     H24939   6.777   8.484   9.417 -2.0880  0.4074 -0.7698
  189MOL0     H24940   6.792   8.215   9.551  1.1515  1.6315  2.4986
  189MOL0     H24941   6.896   8.266   9.399  0.7512 -0.3406  0.2966
  189MOL0     H24942   6.921   8.391   9.660 -1.8372  3.7666 -2.4664
  189MOL0     H24943   7.014   8.430   9.515 -1.1703  2.6570  1.6972
  189MOL0     H24944   7.128   8.219   9.529 -1.9546 -1.6132 -0.5477
  189MOL0     H24945   7.137   8.288   9.690  0.5826 -0.8393  0.5187
  189MOL0     H24946   6.934   7.936   9.769 -1.0525 -2.0926 -6.3253
  189MOL0     H24947   6.577   8.611   9.489  1.1488  1.1670 -1.2366
  189MOL0     H24948   6.422   8.762   9.378 -0.5594  0.2058 -0.8439
  190MOL0     O24949   8.835   0.135  10.946  0.0563  1.0902  0.4067
  190MOL0     C24950   8.829   0.029  11.013  0.7782 -0.3691  0.2702
  190MOL0     O24951   8.830  -0.109  10.972  0.3630  0.9397 -0.6256
  190MOL0     C24952   8.841  -0.152  10.842 -0.2607 -0.2309 -0.1113
  190MOL0     C24953   8.917  -0.078  10.749  0.4412  0.7850  0.3715
  190MOL0     C24954   8.941  -0.140  10.623 -0.1665 -0.1318 -0.2108
  190MOL0     C24955   8.891  -0.268  10.596  0.3400  0.4949 -0.7281
  190MOL0     O24956   8.911  -0.312  10.472 -0.0111 -0.2423  0.3669
  190MOL0     C24957   8.927  -0.452  10.453  0.3817  0.3312 -0.1451
  190MOL0     C24958   8.963  -0.475  10.310  0.6018  0.7409  0.2934
  190MOL0     C24959   9.100  -0.432  10.270 -0.3895 -0.4070  0.1058
  190MOL0     C24960   9.130  -0.448  10.121 -0.3910 -0.3773 -0.2066
  190MOL0     C24961   9.245  -0.368  10.077 -0.1638  0.2561 -0.6837
  190MOL0     C24962   9.296  -0.408   9.939  1.1186 -0.1545  0.6431
  190MOL0     C24963   9.446  -0.392   9.921  0.8049 -0.4916 -0.0545
  190MOL0     C24964   9.497  -0.441   9.778 -0.4175  0.6651  0.3977
  190MOL0     N24965   9.556  -0.573   9.773  0.5922 -0.7376  0.1255
  190MOL0     C24966   9.689  -0.604   9.785  1.2540  1.1214  0.2650
  190MOL0     C24967   9.694  -0.736   9.799 -0.0059 -0.9533 -0.9948
  190MOL0     C24968   9.803  -0.824   9.839 -0.4310 -0.0039 -0.2003
  190MOL0     C24969   9.832  -0.937   9.735 -0.2034  0.5686  0.2131
  190MOL0     C24970   9.971  -0.980   9.734 -0.5803  0.2467  0.3926
  190MOL0     C24971  10.001  -1.102   9.638 -0.5791  0.6941 -1.0207
  190MOL0     O24972   9.939  -1.079   9.515 -0.3470  0.0490 -0.3536
  190MOL0     C24973   9.948  -1.178   9.414 -0.1509  0.0950  0.2988
  190MOL0     C24974   9.900  -1.146   9.292 -0.1894 -0.2896  0.3428
  190MOL0     C24975   9.912  -1.233   9.184  0.4886 -0.6670  0.3928
  190MOL0     C24976   9.962  -1.361   9.201  0.0029  0.7374 -0.7626
  190MOL0     C24977   9.956  -1.446   9.078  0.1572  0.4297 -0.2656
  190MOL0     O24978   9.994  -1.569   9.100  0.3031 -0.4504 -0.7010
  190MOL0     C24979  10.035  -1.642   8.993 -0.1954  0.0318  0.6410
  190MOL0     C24980   9.949  -1.703   8.902  0.1142 -0.4329  0.1041
  190MOL0     C24981   9.998  -1.777   8.798  0.7888  0.3478  0.6628
  190MOL0     C24982  10.135  -1.779   8.773  0.0301 -0.9898 -0.1049
  190MOL0     O24983  10.178  -1.853   8.667  0.7953  0.9179  0.8232
  190MOL0     C24984  10.303  -1.928   8.684  1.0087  0.2513 -0.1780
  190MOL0     C24985  10.295  -2.071   8.623 -0.5701  0.6678  0.3165
  190MOL0     C24986  10.314  -2.065   8.468 -0.0968  1.4206 -0.1576
  190MOL0     C24987  10.201  -2.009   8.381 -0.5301 -0.1065  0.4100
  190MOL0     C24988  10.202  -2.032   8.231 -1.3949 -0.1855 -0.5688
  190MOL0     C24989  10.357  -2.031   8.187 -0.4275  0.4150 -0.3648
  190MOL0     C24990  10.361  -2.067   8.034  0.4773 -0.3455 -1.5301
  190MOL0     C24991  10.488  -2.026   7.953 -0.3475  0.3544 -0.0113
  190MOL0    Cl24992  10.484  -1.852   7.957  0.2400  0.0928 -0.1185
  190MOL0     C24993  10.220  -1.700   8.847 -0.1550 -0.7049  0.7543
  190MOL0     C24994  10.171  -1.636   8.965 -0.0734  0.6191 -0.1261
  190MOL0     O24995   9.928  -1.403   8.970 -0.1695  0.5625  0.3205
  190MOL0     C24996  10.007  -1.399   9.329 -0.1257  0.0490 -0.5366
  190MOL0     C24997   9.998  -1.308   9.430 -0.1972  0.0765 -0.1692
  190MOL0     N24998   9.559  -0.778   9.814 -0.4808 -0.2546  0.7013
  190MOL0     N24999   9.483  -0.679   9.789  1.0062  0.0445 -0.3732
  190MOL0     C25000   8.822  -0.339  10.699 -0.3829  0.4412  0.3050
  190MOL0     C25001   8.799  -0.283  10.819 -0.3305 -0.2265 -0.7498
  190MOL0     C25002   8.841   0.054  11.162  0.7077 -0.0789  0.6839
  190MOL0     C25003   8.880  -0.043  11.254  0.0621  0.2461 -1.0246
  190MOL0     C25004   8.901  -0.010  11.385  0.4183  0.1842  0.7780
  190MOL0     C25005   8.900   0.125  11.427  0.5532  0.2197  0.7378
  190MOL0     O25006   8.925   0.172  11.554  0.2216 -0.2003  0.1890
  190MOL0     C25007   8.866   0.105  11.663 -0.6425 -0.0186 -0.6634
  190MOL0     C25008   8.877   0.192  11.786  0.9925  0.4887 -1.0009
  190MOL0     C25009   8.799   0.109  11.902 -0.3461 -0.4697  0.6725
  190MOL0     C25010   8.801   0.193  12.035 -0.2315 -0.4993  0.4082
  190MOL0     C25011   8.735   0.124  12.149 -0.0371 -0.3311 -0.1600
  190MOL0     C25012   8.692   0.066  12.241 -0.7319 -0.2227 -0.5845
  190MOL0     C25013   8.860   0.224  11.333  0.3523  0.7163  0.3266
  190MOL0     C25014   8.819   0.186  11.200  0.3412 -0.6690  0.0018
  190MOL0     H25015   8.973   0.012  10.770  3.0138 -0.2360 -1.6452
  190MOL0     H25016   8.993  -0.094  10.540  0.7755  0.4811  0.6929
  190MOL0     H25017   8.834  -0.505  10.475  0.7918  0.7390  2.9982
  190MOL0     H25018   8.993  -0.501  10.525 -3.5407 -2.0025  2.2094
  190MOL0     H25019   8.886  -0.444  10.240 -0.1228 -2.1166 -0.3013
  190MOL0     H25020   8.976  -0.581  10.286  0.8140  0.1791  2.6346
  190MOL0     H25021   9.171  -0.491  10.328 -3.8945 -4.2705  0.8869
  190MOL0     H25022   9.120  -0.327  10.295  1.0475 -0.6890  0.2441
  190MOL0     H25023   9.146  -0.555  10.104  2.8958 -0.1134  0.5833
  190MOL0     H25024   9.044  -0.417  10.062  0.5603 -0.2757 -1.5908
  190MOL0     H25025   9.330  -0.393  10.141  1.0563  1.4516 -1.7475
  190MOL0     H25026   9.253  -0.260  10.091  0.2533  0.3676 -1.6732
  190MOL0     H25027   9.249  -0.344   9.864  0.1733 -1.7085 -0.1219
  190MOL0     H25028   9.273  -0.513   9.921 -1.3811  0.1782  1.5242
  190MOL0     H25029   9.489  -0.294   9.942  0.7182 -0.7044  1.1794
  190MOL0     H25030   9.488  -0.455   9.999 -0.6354  0.1696  1.3047
  190MOL0     H25031   9.574  -0.374   9.738 -1.9854  3.6322  1.9591
  190MOL0     H25032   9.413  -0.436   9.708 -1.2310 -0.8735  1.2205
  190MOL0     H25033   9.764  -0.529   9.759  0.4018  2.1871  0.8063
  190MOL0     H25034   9.773  -0.870   9.933  1.7110  1.7360  1.4300
  190MOL0     H25035   9.886  -0.754   9.852 -0.2504 -0.2262 -0.1292
  190MOL0     H25036   9.815  -0.896   9.635 -3.4757  0.7166  0.7447
  190MOL0     H25037   9.767  -1.024   9.747  0.4938 -0.1364 -0.9237
  190MOL0     H25038  10.038  -0.904   9.695  0.1290  0.5575  2.1102
  190MOL0     H25039  10.003  -0.998   9.838  3.3681 -0.2444 -0.7346
  190MOL0     H25040   9.961  -1.195   9.678 -0.7401  1.2317  0.1175
  190MOL0     H25041  10.110  -1.104   9.633 -0.2437  0.8021  2.9916
  190MOL0     H25042   9.856  -1.047   9.280 -0.3722 -0.6219 -2.4169
  190MOL0     H25043   9.871  -1.200   9.089  1.6185 -2.3254 -0.7056
  190MOL0     H25044   9.842  -1.692   8.916  0.1430  0.7170 -0.4516
  190MOL0     H25045   9.927  -1.818   8.726  0.7051  0.4020  0.7132
  190MOL0     H25046  10.315  -1.953   8.790  3.1850  1.3171 -0.1087
  190MOL0     H25047  10.389  -1.867   8.654  2.0474 -0.8479  0.4863
  190MOL0     H25048  10.207  -2.128   8.653  0.8743 -2.2382 -0.5393
  190MOL0     H25049  10.383  -2.126   8.660  0.5097  0.6818 -2.0627
  190MOL0     H25050  10.322  -2.172   8.447  0.7929  1.2129  1.1343
  190MOL0     H25051  10.412  -2.021   8.450  0.8371  0.0242  1.2680
  190MOL0     H25052  10.099  -2.034   8.413 -0.5395  1.3143  1.6312
  190MOL0     H25053  10.203  -1.901   8.399 -1.2487  0.6915 -3.4472
  190MOL0     H25054  10.152  -1.947   8.183  0.9485  1.9654  0.5777
  190MOL0     H25055  10.148  -2.126   8.214  1.3160 -1.9561  0.0672
  190MOL0     H25056  10.423  -2.094   8.247  0.5953  1.8540  0.0710
  190MOL0     H25057  10.395  -1.929   8.200  2.1809 -0.3725 -1.2797
  190MOL0     H25058  10.351  -2.176   8.031 -1.5427 -0.1575 -2.8385
  190MOL0     H25059  10.267  -2.028   7.995  0.0397  3.5165  2.5734
  190MOL0     H25060  10.478  -2.065   7.852  1.0458 -1.1256  0.3713
  190MOL0     H25061  10.584  -2.059   7.995 -0.4628  0.9017  0.7098
  190MOL0     H25062  10.326  -1.692   8.826 -0.1248 -1.3020  0.6537
  190MOL0     H25063  10.233  -1.581   9.035  0.8556 -1.8383  1.1239
  190MOL0     H25064  10.043  -1.499   9.349 -1.7408 -1.4180 -4.1403
  190MOL0     H25065  10.025  -1.346   9.528  1.2945 -1.2735 -1.0502
  190MOL0     H25066   8.789  -0.442  10.694 -1.2368  0.6521  1.3023
  190MOL0     H25067   8.740  -0.324  10.900  0.0927  1.6060  0.5698
  190MOL0     H25068   8.904  -0.143  11.219 -3.4350 -1.6186  1.2866
  190MOL0     H25069   8.928  -0.085  11.459  1.6502  2.7335  3.0952
  190MOL0     H25070   8.909   0.008  11.690 -0.7009  0.2417  0.3934
  190MOL0     H25071   8.757   0.095  11.653 -0.6561  0.6583 -1.2580
  190MOL0     H25072   8.981   0.214  11.813  0.7284 -1.0099  1.6029
  190MOL0     H25073   8.814   0.280  11.772 -2.5256 -1.5748  0.6839
  190MOL0     H25074   8.851   0.016  11.927 -1.9547 -0.8091  3.1390
  190MOL0     H25075   8.695   0.095  11.871 -0.8403  1.9932  1.0615
  190MOL0     H25076   8.903   0.212  12.069  1.5535 -2.5866 -3.1408
  190MOL0     H25077   8.766   0.297  12.030  0.9222 -0.0153  1.6581
  190MOL0     H25078   8.635   0.014  12.315  2.1343 -1.4084  0.9444
  190MOL0     H25079   8.846   0.329  11.356  3.8548  1.4312 -0.2087
  190MOL0     H25080   8.773   0.263  11.138 -0.0233 -0.3069  0.7124
  191MOL0     O25081   3.306   4.990   2.224 -0.2141  0.3549  0.5379
  191MOL0     C25082   3.292   4.869   2.227 -0.2071  0.2396  0.4923
  191MOL0     O25083   3.176   4.803   2.253 -1.4270  0.6078  0.0673
  191MOL0     C25084   3.049   4.851   2.263  0.4601  0.0713 -0.0606
  191MOL0     C25085   3.023   4.997   2.275  0.6988  0.0640  0.2495
  191MOL0     C25086   2.890   5.038   2.296 -0.4986  0.0152 -1.0498
  191MOL0     C25087   2.779   4.956   2.285  0.2351 -0.2798 -0.0468
  191MOL0     O25088   2.661   5.022   2.305 -0.2653 -0.6905  0.0730
  191MOL0     C25089   2.543   4.971   2.232  0.3362  0.3186 -0.4905
  191MOL0     C25090   2.422   5.062   2.230 -0.0189  0.1151  0.7836
  191MOL0     C25091   2.453   5.201   2.158  0.3213  0.2405  0.1447
  191MOL0     C25092   2.318   5.284   2.150 -0.6410 -0.0967  1.0888
  191MOL0     C25093   2.349   5.415   2.105  0.0105 -0.4624  0.1796
  191MOL0     C25094   2.230   5.509   2.124 -0.1988 -0.5160 -1.1677
  191MOL0     C25095   2.277   5.651   2.093 -0.4114  0.6610 -0.9206
  191MOL0     C25096   2.184   5.770   2.125  0.5549 -0.1994 -0.9306
  191MOL0     N25097   2.083   5.789   2.019  0.6557 -0.0336 -0.5086
  191MOL0     C25098   2.078   5.881   1.916 -0.0368  0.2825  0.3273
  191MOL0     C25099   1.957   5.868   1.857 -0.2603  0.5782  0.0165
  191MOL0     C25100   1.903   5.955   1.758  0.2775 -0.0009  0.1785
  191MOL0     C25101   1.937   5.918   1.619  0.4347 -0.8402  0.1404
  191MOL0     C25102   1.844   6.015   1.532 -0.4950 -0.1517  1.9049
  191MOL0     C25103   1.816   5.947   1.398 -0.5401  0.6405 -0.5510
  191MOL0     O25104   1.945   5.926   1.332 -0.7861 -0.0920  0.0359
  191MOL0     C25105   1.949   5.884   1.199 -0.4492  0.5155  0.8886
  191MOL0     C25106   1.839   5.827   1.132 -0.1752 -0.1634  0.1936
  191MOL0     C25107   1.855   5.772   1.004 -0.0997 -0.2638  0.1060
  191MOL0     C25108   1.978   5.776   0.942  0.6791  0.5121  0.0711
  191MOL0     C25109   1.983   5.723   0.800 -0.2269 -0.8278  0.2590
  191MOL0     O25110   1.884   5.639   0.757  0.0568 -0.0339 -0.2111
  191MOL0     C25111   1.911   5.572   0.641 -0.7658 -0.4547 -0.9345
  191MOL0     C25112   1.797   5.556   0.550  0.7398  0.3599 -0.1498
  191MOL0     C25113   1.819   5.481   0.436  0.4049  0.4521 -0.2456
  191MOL0     C25114   1.946   5.413   0.409  0.6593 -0.7901  0.6763
  191MOL0     O25115   1.970   5.332   0.305 -0.6413  0.2270  0.1403
  191MOL0     C25116   1.861   5.303   0.212 -1.3702 -0.4163 -0.3435
  191MOL0     C25117   1.910   5.261   0.072  0.1040  0.0845 -0.1989
  191MOL0     C25118   1.803   5.213  -0.024  0.0355  0.0151  0.7015
  191MOL0     C25119   1.893   5.130  -0.130 -0.6919 -0.5938 -0.9038
  191MOL0     C25120   1.819   5.076  -0.254 -0.2277  0.2806 -0.3475
  191MOL0     C25121   1.895   5.093  -0.380  0.1913  0.0964 -0.0621
  191MOL0     C25122   1.839   5.006  -0.489 -0.3239  0.3497 -0.3838
  191MOL0     C25123   1.847   5.064  -0.627  1.2969  0.1745  1.2790
  191MOL0    Cl25124   2.011   5.066  -0.693  0.2126  0.0352  0.7436
  191MOL0     C25125   2.045   5.431   0.513 -0.1926  0.1721 -0.4853
  191MOL0     C25126   2.030   5.500   0.626  0.0164 -1.0848 -0.3050
  191MOL0     O25127   2.073   5.764   0.729  0.5811 -0.2393  0.8107
  191MOL0     C25128   2.086   5.835   0.999 -0.2570 -0.4499  0.0978
  191MOL0     C25129   2.077   5.883   1.125  0.8647  0.0800 -1.1066
  191MOL0     N25130   1.887   5.769   1.941 -0.0437  0.3064  0.0293
  191MOL0     N25131   1.963   5.735   2.034 -1.2257 -0.0259  0.8192
  191MOL0     C25132   2.803   4.821   2.272 -0.1573 -0.6476 -1.8917
  191MOL0     C25133   2.937   4.767   2.271  0.1659  0.1192  0.6018
  191MOL0     C25134   3.412   4.791   2.165  0.3341  0.3644 -0.4506
  191MOL0     C25135   3.545   4.825   2.183  1.7879 -0.5251  1.3671
  191MOL0     C25136   3.652   4.756   2.114  0.1705  0.0003 -0.5747
  191MOL0     C25137   3.626   4.648   2.037  0.9522  0.4317 -0.6763
  191MOL0     O25138   3.733   4.582   1.978  0.2982 -0.0695  0.3079
  191MOL0     C25139   3.699   4.481   1.882 -0.1643  0.2524 -0.4102
  191MOL0     C25140   3.827   4.420   1.835 -1.0759  0.5648 -0.7533
  191MOL0     C25141   3.825   4.371   1.691 -0.4654 -0.5115 -0.5324
  191MOL0     C25142   3.975   4.371   1.629  0.5322  0.2763 -0.5002
  191MOL0     C25143   3.982   4.353   1.482  0.3374 -0.2741 -0.4052
  191MOL0     C25144   3.996   4.340   1.365 -0.2569 -0.8758 -0.0740
  191MOL0     C25145   3.490   4.612   2.024  0.8300 -0.0207 -0.0082
  191MOL0     C25146   3.389   4.689   2.078  0.7405 -0.6125  0.2709
  191MOL0     H25147   3.097   5.076   2.276 -0.5639  1.2953  1.9498
  191MOL0     H25148   2.879   5.143   2.322  2.6603  0.4149 -0.8899
  191MOL0     H25149   2.510   4.879   2.282 -1.5601  0.5356 -1.2433
  191MOL0     H25150   2.565   4.945   2.128 -1.5018 -1.5735 -0.4770
  191MOL0     H25151   2.374   5.064   2.328 -1.4217 -2.8787  0.2667
  191MOL0     H25152   2.350   5.023   2.158  0.7751  0.5122 -0.2510
  191MOL0     H25153   2.490   5.180   2.057 -2.8577 -1.4071 -0.8388
  191MOL0     H25154   2.535   5.251   2.210 -0.1455  2.7287 -1.3443
  191MOL0     H25155   2.247   5.237   2.081  0.5977 -0.5749  0.1025
  191MOL0     H25156   2.283   5.278   2.254 -0.4616  0.8214  1.2117
  191MOL0     H25157   2.381   5.419   2.000 -0.9490  2.1953 -0.0721
  191MOL0     H25158   2.434   5.454   2.162  1.4182 -2.0946 -0.7010
  191MOL0     H25159   2.209   5.506   2.231  2.7087 -0.1630 -0.5158
  191MOL0     H25160   2.142   5.478   2.067 -0.1098 -0.6879 -1.2129
  191MOL0     H25161   2.369   5.671   2.147  0.6141 -0.9440 -1.9646
  191MOL0     H25162   2.302   5.659   1.986  1.4717 -0.0486 -0.5705
  191MOL0     H25163   2.248   5.859   2.118  0.7707 -0.2593  0.1575
  191MOL0     H25164   2.127   5.752   2.217 -0.7575 -0.0835 -1.6952
  191MOL0     H25165   2.155   5.954   1.894 -0.6233  1.0167  0.6636
  191MOL0     H25166   1.919   6.061   1.780 -1.2530 -0.2618  3.0035
  191MOL0     H25167   1.794   5.953   1.769  0.3464 -1.0712  0.8385
  191MOL0     H25168   1.915   5.812   1.604 -3.5352  0.1525 -2.3802
  191MOL0     H25169   2.044   5.939   1.607  0.0349  1.8901  0.6798
  191MOL0     H25170   1.753   6.049   1.581 -0.7286  0.6070  0.9852
  191MOL0     H25171   1.895   6.112   1.524 -0.6854 -0.1941 -0.6524
  191MOL0     H25172   1.752   6.011   1.337  0.2064 -1.0252 -3.2361
  191MOL0     H25173   1.779   5.846   1.416 -1.6900  1.3274  1.1570
  191MOL0     H25174   1.742   5.816   1.179 -1.7232 -0.4251 -2.8129
  191MOL0     H25175   1.771   5.727   0.954  1.8838 -4.4349  0.1355
  191MOL0     H25176   1.701   5.605   0.562  1.2401  0.7012  4.3120
  191MOL0     H25177   1.739   5.477   0.362  1.3001  2.3358 -1.3999
  191MOL0     H25178   1.812   5.400   0.208  0.7159  0.8436  1.9201
  191MOL0     H25179   1.788   5.227   0.245 -0.5167 -0.6174  1.2099
  191MOL0     H25180   1.980   5.179   0.088 -0.7815 -0.4309  1.2156
  191MOL0     H25181   1.950   5.351   0.025 -1.2040  1.5731  1.3764
  191MOL0     H25182   1.762   5.303  -0.072 -0.8280 -0.5712  0.3059
  191MOL0     H25183   1.722   5.154   0.021 -3.8199  2.6577 -2.1387
  191MOL0     H25184   1.957   5.206  -0.175 -0.3325  0.8184  1.7412
  191MOL0     H25185   1.954   5.049  -0.088  0.2839  1.1474  1.2015
  191MOL0     H25186   1.722   5.124  -0.266 -0.0632  1.0106  1.0687
  191MOL0     H25187   1.804   4.968  -0.245  1.0914  0.2140  1.6533
  191MOL0     H25188   2.000   5.069  -0.361  0.4655  0.1877 -1.3693
  191MOL0     H25189   1.881   5.197  -0.410 -2.6856  0.4608  2.1452
  191MOL0     H25190   1.903   4.918  -0.504  0.3968  1.1541 -2.5329
  191MOL0     H25191   1.737   4.967  -0.480  0.0750 -0.1908  2.6866
  191MOL0     H25192   1.797   5.161  -0.629  0.0186 -0.4574 -0.1699
  191MOL0     H25193   1.784   5.002  -0.692 -0.8164  1.3454  2.1156
  191MOL0     H25194   2.142   5.384   0.501 -0.2971  0.3665 -2.4510
  191MOL0     H25195   2.105   5.512   0.703 -0.2073 -2.6594  0.1998
  191MOL0     H25196   2.183   5.854   0.954  1.4736 -1.9681  2.9005
  191MOL0     H25197   2.170   5.909   1.175  1.9099 -3.6441 -0.7691
  191MOL0     H25198   2.721   4.751   2.285 -0.6264  0.2069  0.1392
  191MOL0     H25199   2.948   4.660   2.253  0.4136  0.5339 -2.0683
  191MOL0     H25200   3.580   4.915   2.234  0.6291 -0.0192  1.2816
  191MOL0     H25201   3.751   4.800   2.113 -0.1242  0.8091  1.4538
  191MOL0     H25202   3.637   4.522   1.802 -0.2622 -1.0007 -1.0153
  191MOL0     H25203   3.644   4.397   1.925  2.7586 -2.2059 -1.0855
  191MOL0     H25204   3.905   4.496   1.841  1.1066 -1.4895 -1.6659
  191MOL0     H25205   3.870   4.346   1.903 -2.4874 -2.1469 -2.6153
  191MOL0     H25206   3.780   4.449   1.629 -2.7579  1.0342  2.7557
  191MOL0     H25207   3.762   4.283   1.682  0.0853 -0.8659 -0.9857
  191MOL0     H25208   4.032   4.462   1.649  2.8187 -0.7479 -1.9164
  191MOL0     H25209   4.028   4.289   1.678  1.6242  1.3293  0.1297
  191MOL0     H25210   4.022   4.327   1.262  1.1272  1.2347 -0.0393
  191MOL0     H25211   3.453   4.525   1.971 -3.5748  1.6450 -0.0826
  191MOL0     H25212   3.286   4.654   2.074  1.3239 -2.5014  0.8893
  192MOL0     O25213   3.614   8.650   0.741  0.1574 -0.4544 -0.0407
  192MOL0     C25214   3.562   8.766   0.724  0.1884 -0.0532  0.1573
  192MOL0     O25215   3.512   8.805   0.603 -0.3729 -0.3062  0.5255
  192MOL0     C25216   3.541   8.710   0.510 -0.2981 -0.3436  0.1262
  192MOL0     C25217   3.442   8.624   0.462  0.0253 -1.0339  0.1772
  192MOL0     C25218   3.475   8.530   0.364 -0.4959 -0.3277 -0.0435
  192MOL0     C25219   3.612   8.520   0.321  0.8898  0.4025  0.2843
  192MOL0     O25220   3.634   8.420   0.226  1.0515 -0.0370 -0.0852
  192MOL0     C25221   3.754   8.332   0.239  0.3553 -0.2454 -0.1142
  192MOL0     C25222   3.708   8.209   0.320  0.1061  0.8890  0.3247
  192MOL0     C25223   3.644   8.232   0.463 -0.6065 -0.1821  0.3860
  192MOL0     C25224   3.739   8.283   0.575  0.0868 -0.5879  0.3114
  192MOL0     C25225   3.889   8.240   0.572 -0.3272 -0.8747 -0.0014
  192MOL0     C25226   3.913   8.095   0.612  0.0823  0.3947  0.0736
  192MOL0     C25227   4.061   8.061   0.646 -0.1038  0.5901 -0.2045
  192MOL0     C25228   4.100   8.112   0.781 -0.0860  0.3830  0.0518
  192MOL0     N25229   4.246   8.109   0.812  0.6257 -0.8861 -0.4854
  192MOL0     C25230   4.305   8.040   0.916 -0.2975  0.2723  0.5257
  192MOL0     C25231   4.430   8.076   0.921 -0.0307  1.0923 -0.0323
  192MOL0     C25232   4.528   8.027   1.031  0.1809  0.0309  0.8678
  192MOL0     C25233   4.636   7.927   0.987 -0.3259  1.0653  0.2581
  192MOL0     C25234   4.758   7.997   0.921 -0.1603 -0.5124  0.1910
  192MOL0     C25235   4.760   8.006   0.766 -0.3282  0.4815 -0.4703
  192MOL0     O25236   4.882   8.072   0.715 -0.3397  1.3864  0.0251
  192MOL0     C25237   4.903   8.201   0.753  0.3685 -0.1991 -0.0984
  192MOL0     C25238   5.036   8.227   0.743  0.5121  0.4672  0.3659
  192MOL0     C25239   5.084   8.344   0.800 -0.5993 -0.2063 -0.2645
  192MOL0     C25240   4.997   8.449   0.846 -0.6595 -1.3766 -0.9501
  192MOL0     C25241   5.043   8.584   0.892  0.6867  0.5005 -0.2144
  192MOL0     O25242   4.954   8.688   0.912  0.4882 -0.5764 -0.1850
  192MOL0     C25243   4.987   8.788   0.998  0.2788  0.2258  0.1859
  192MOL0     C25244   5.103   8.867   0.989 -0.4567 -0.9055 -0.6784
  192MOL0     C25245   5.133   8.974   1.075  1.0862  0.2527  0.6985
  192MOL0     C25246   5.035   9.005   1.175  0.2237 -0.4676  0.8027
  192MOL0     O25247   5.069   9.116   1.255  0.3385 -0.2580 -0.5325
  192MOL0     C25248   5.050   9.246   1.201  0.3384 -1.1224  0.8646
  192MOL0     C25249   5.099   9.359   1.288  0.1509  0.5695  1.1703
  192MOL0     C25250   5.042   9.502   1.256  0.1974  0.4693  0.9934
  192MOL0     C25251   5.077   9.536   1.114 -0.7944  0.1604  1.0971
  192MOL0     C25252   5.095   9.685   1.081 -0.5862  0.7797 -0.3920
  192MOL0     C25253   5.014   9.745   0.967  1.0423 -0.0383  0.2377
  192MOL0     C25254   5.062   9.887   0.955 -0.9753 -0.5448 -0.5230
  192MOL0     C25255   5.205   9.941   0.891 -0.9574  0.0522  0.0969
  192MOL0    Cl25256   5.144   9.985   0.724 -0.3119  0.0466  0.4284
  192MOL0     C25257   4.928   8.918   1.201  0.4443 -0.6966 -0.0296
  192MOL0     C25258   4.903   8.817   1.113  0.2720  0.9056 -0.2519
  192MOL0     O25259   5.163   8.585   0.928 -0.3765  0.5082 -0.1878
  192MOL0     C25260   4.858   8.429   0.840 -0.8139  0.5460 -0.3448
  192MOL0     C25261   4.810   8.303   0.795 -0.4815 -0.1399 -0.0809
  192MOL0     N25262   4.457   8.166   0.814  0.5115  0.3079 -0.4306
  192MOL0     N25263   4.351   8.181   0.754  1.0649  0.4879 -0.0688
  192MOL0     C25264   3.714   8.610   0.362  0.1189  0.4058 -0.0250
  192MOL0     C25265   3.673   8.703   0.456  0.5546 -0.3101 -0.2990
  192MOL0     C25266   3.555   8.858   0.842  0.1929 -0.1582  0.4916
  192MOL0     C25267   3.596   8.817   0.978 -1.0021  0.0468  0.8939
  192MOL0     C25268   3.580   8.900   1.088  0.4792  0.2752 -0.7832
  192MOL0     C25269   3.524   9.027   1.074 -0.6030  0.2148 -1.3880
  192MOL0     O25270   3.504   9.124   1.169  0.3400 -0.2306  0.2646
  192MOL0     C25271   3.523   9.091   1.309  0.1230 -0.5765 -0.0730
  192MOL0     C25272   3.384   9.067   1.372 -0.6176 -0.2603 -0.2493
  192MOL0     C25273   3.304   9.195   1.390  0.0390 -0.6016  0.3215
  192MOL0     C25274   3.369   9.295   1.470 -0.7926 -0.1782  0.8377
  192MOL0     C25275   3.264   9.389   1.510 -0.0194  0.7011 -0.6767
  192MOL0     C25276   3.173   9.461   1.542 -0.2244  0.9960  0.9969
  192MOL0     C25277   3.500   9.069   0.950 -0.2592  0.7812  0.2626
  192MOL0     C25278   3.505   8.987   0.832  0.0426  0.1728 -0.1020
  192MOL0     H25279   3.345   8.640   0.507  0.8874  2.9382  1.0556
  192MOL0     H25280   3.391   8.478   0.320 -1.6977  3.7627 -3.1817
  192MOL0     H25281   3.839   8.383   0.285 -1.9428  4.9712 -0.9106
  192MOL0     H25282   3.782   8.305   0.137 -0.4840 -0.9260 -0.1788
  192MOL0     H25283   3.789   8.135   0.326 -0.3618  0.3586  0.1491
  192MOL0     H25284   3.628   8.155   0.269  0.3305 -0.2512  1.1165
  192MOL0     H25285   3.612   8.132   0.493  0.3266 -0.6391 -0.1039
  192MOL0     H25286   3.546   8.282   0.459 -1.4168 -1.6817  0.8589
  192MOL0     H25287   3.727   8.391   0.584 -1.1601 -0.6691 -0.1612
  192MOL0     H25288   3.706   8.257   0.676 -0.0362 -3.1606 -0.3223
  192MOL0     H25289   3.935   8.299   0.651  0.2707  1.3649 -1.9117
  192MOL0     H25290   3.935   8.267   0.477  0.6436 -1.2766  0.3426
  192MOL0     H25291   3.899   8.024   0.531 -0.9889 -0.9625  1.3812
  192MOL0     H25292   3.838   8.061   0.685 -2.2977  0.4893 -2.1856
  192MOL0     H25293   4.084   7.954   0.637 -4.0154 -0.3350 -0.9247
  192MOL0     H25294   4.123   8.109   0.569  0.1654 -4.0783 -3.3224
  192MOL0     H25295   4.042   8.057   0.855 -6.0187  2.7519 -2.1977
  192MOL0     H25296   4.073   8.218   0.771  0.2587  0.4955  0.3054
  192MOL0     H25297   4.260   7.962   0.977 -1.9152  0.0983 -0.8230
  192MOL0     H25298   4.473   7.990   1.118  0.8185 -1.5086  0.6519
  192MOL0     H25299   4.573   8.115   1.076 -0.7622  1.5777 -1.0685
  192MOL0     H25300   4.591   7.848   0.926 -0.9918  1.8545 -0.3038
  192MOL0     H25301   4.664   7.880   1.082  1.5781  0.7385 -0.4288
  192MOL0     H25302   4.773   8.098   0.962 -0.8088 -1.0033  1.7349
  192MOL0     H25303   4.846   7.945   0.961 -0.3068 -1.9227 -1.2328
  192MOL0     H25304   4.677   8.074   0.742  0.5799  1.7633 -0.0683
  192MOL0     H25305   4.765   7.904   0.726  2.3468 -0.2001  1.3022
  192MOL0     H25306   5.115   8.164   0.704  1.8869  1.8694  0.7899
  192MOL0     H25307   5.192   8.355   0.808 -0.6229 -0.5453  0.6583
  192MOL0     H25308   5.169   8.855   0.904 -1.9477  1.6093 -2.3306
  192MOL0     H25309   5.224   9.033   1.067  0.6402  0.9347  0.5564
  192MOL0     H25310   4.943   9.260   1.181  0.1001 -3.1058  0.5625
  192MOL0     H25311   5.108   9.244   1.108 -0.4016 -1.4534  0.4003
  192MOL0     H25312   5.208   9.368   1.288  0.1570  0.5523  0.3237
  192MOL0     H25313   5.077   9.328   1.391 -0.7450  0.2475  0.8932
  192MOL0     H25314   5.102   9.568   1.320  1.1361  0.0777  0.5215
  192MOL0     H25315   4.937   9.523   1.280  0.7073  1.4177  2.5617
  192MOL0     H25316   5.174   9.487   1.104 -1.3418 -0.5084 -4.0169
  192MOL0     H25317   5.009   9.488   1.043  1.4420 -1.5592  0.0164
  192MOL0     H25318   5.197   9.694   1.044 -0.5827  0.0299 -0.5821
  192MOL0     H25319   5.088   9.744   1.173 -0.4302  0.9241 -0.4722
  192MOL0     H25320   4.906   9.740   0.987  1.3531  2.7743  3.7768
  192MOL0     H25321   5.031   9.691   0.874 -1.3812  1.0251 -0.9083
  192MOL0     H25322   4.991   9.953   0.903 -0.4998  0.8568  0.5246
  192MOL0     H25323   5.036   9.937   1.049 -2.5137 -0.5863 -0.9042
  192MOL0     H25324   5.291   9.874   0.878 -0.2968  1.0703 -1.0170
  192MOL0     H25325   5.252  10.022   0.946  0.0020  0.0568 -0.6959
  192MOL0     H25326   4.858   8.957   1.274 -1.0018 -2.1267 -0.5811
  192MOL0     H25327   4.828   8.744   1.142 -0.1551  1.1725 -0.6818
  192MOL0     H25328   4.783   8.498   0.878 -1.0819  0.1160 -0.0910
  192MOL0     H25329   4.707   8.273   0.783  0.4969 -3.8091 -0.6228
  192MOL0     H25330   3.813   8.586   0.325 -1.7713 -4.6525 -2.7168
  192MOL0     H25331   3.751   8.767   0.495  1.2040 -2.5151  2.3532
  192MOL0     H25332   3.635   8.718   0.998 -2.2156 -0.6316  0.0591
  192MOL0     H25333   3.597   8.870   1.191 -1.6962 -1.4656 -0.8503
  192MOL0     H25334   3.575   9.174   1.358 -2.6104  1.4498 -0.3085
  192MOL0     H25335   3.592   9.009   1.332  1.0854  0.5391  1.1674
  192MOL0     H25336   3.324   8.990   1.324 -0.2043 -0.7670  0.0377
  192MOL0     H25337   3.405   9.039   1.476  2.5161  1.2435 -0.3550
  192MOL0     H25338   3.212   9.171   1.444 -0.7874 -1.8749 -1.5379
  192MOL0     H25339   3.277   9.230   1.290 -1.3080  0.7102  1.1178
  192MOL0     H25340   3.415   9.243   1.554  1.3033 -0.3185 -0.3145
  192MOL0     H25341   3.442   9.356   1.415  1.1734 -1.9224  1.3565
  192MOL0     H25342   3.077   9.497   1.573  0.5379  1.2424  3.3312
  192MOL0     H25343   3.462   9.171   0.940  0.5462  0.8539 -3.1049
  192MOL0     H25344   3.479   9.034   0.738 -0.9032  2.6000  1.2631
  193MOL0     O25345   8.618   3.995   7.869 -0.2125 -0.0066 -0.2170
  193MOL0     C25346   8.581   3.898   7.945  0.2550  0.0376  0.1350
  193MOL0     O25347   8.598   3.760   7.923  0.0829 -0.0946 -0.3169
  193MOL0     C25348   8.654   3.715   7.801 -1.0221 -1.4279 -0.8256
  193MOL0     C25349   8.601   3.771   7.682 -0.5659  0.1368 -0.7345
  193MOL0     C25350   8.660   3.757   7.559  0.1092 -0.0600 -1.1133
  193MOL0     C25351   8.762   3.665   7.559 -0.2388 -0.1630  0.4263
  193MOL0     O25352   8.837   3.647   7.447  0.2583 -0.3433 -0.2159
  193MOL0     C25353   8.807   3.537   7.363  0.0280  0.7261  0.2358
  193MOL0     C25354   8.875   3.566   7.224 -0.9841  0.2575 -0.3149
  193MOL0     C25355   8.772   3.642   7.127 -0.0724  0.3182  0.4725
  193MOL0     C25356   8.834   3.646   6.981  0.6892 -1.0890 -0.8062
  193MOL0     C25357   8.738   3.716   6.890  0.1223 -0.8234  0.2915
  193MOL0     C25358   8.738   3.869   6.888  0.8281 -1.0682  0.2524
  193MOL0     C25359   8.863   3.938   6.831 -0.1690 -0.8481 -0.3128
  193MOL0     C25360   8.841   4.092   6.816 -0.0205 -0.2386 -0.7582
  193MOL0     N25361   8.823   4.146   6.956  0.1216 -0.2411  0.4797
  193MOL0     C25362   8.920   4.128   7.053  0.4059 -1.0264  0.8210
  193MOL0     C25363   8.852   4.147   7.169 -0.1054 -0.3966 -0.3488
  193MOL0     C25364   8.914   4.120   7.299  0.0895 -0.5372  0.2750
  193MOL0     C25365   8.919   3.974   7.323 -0.4750 -0.7863 -1.1655
  193MOL0     C25366   9.013   3.951   7.445  0.8501 -0.2837  1.2280
  193MOL0     C25367   9.167   3.921   7.401  0.2303  0.0179  0.3263
  193MOL0     O25368   9.157   3.814   7.311 -0.0571 -0.3982 -0.6995
  193MOL0     C25369   9.279   3.776   7.244  0.1753 -0.4074  0.0648
  193MOL0     C25370   9.391   3.740   7.319 -0.8373 -0.5663  0.2044
  193MOL0     C25371   9.502   3.682   7.256  0.0340 -0.7196  0.2245
  193MOL0     C25372   9.512   3.673   7.123 -0.0050 -0.6894  0.3445
  193MOL0     C25373   9.632   3.604   7.062 -0.7440  0.6030  0.3516
  193MOL0     O25374   9.719   3.520   7.141 -0.0832  0.1445  0.1698
  193MOL0     C25375   9.804   3.427   7.073  0.7010 -0.6249 -0.5975
  193MOL0     C25376   9.904   3.474   6.983  0.1616  0.2354 -0.1526
  193MOL0     C25377  10.005   3.385   6.932 -0.3696 -0.1986  0.3587
  193MOL0     C25378  10.007   3.254   6.976 -0.1921 -0.7061  0.0174
  193MOL0     O25379  10.119   3.179   6.949  0.7230 -0.1030  1.1663
  193MOL0     C25380  10.115   3.037   6.924  0.6158 -0.1922  0.1381
  193MOL0     C25381  10.233   2.978   6.840  0.0385 -0.4091  0.3066
  193MOL0     C25382  10.227   2.829   6.829  0.3113  0.7578 -0.6816
  193MOL0     C25383  10.104   2.774   6.744  0.2886 -0.1764 -0.1706
  193MOL0     C25384  10.013   2.683   6.829  0.8982  1.4206  0.6288
  193MOL0     C25385   9.868   2.649   6.766  1.2872 -0.4946  0.0061
  193MOL0     C25386   9.889   2.577   6.635  0.5537  0.0448  0.5404
  193MOL0     C25387   9.757   2.523   6.569 -0.3497  0.3600  0.6450
  193MOL0    Cl25388   9.634   2.648   6.530  0.3195 -0.0045  0.0071
  193MOL0     C25389   9.894   3.209   7.048  0.5798  0.7508  0.4542
  193MOL0     C25390   9.793   3.293   7.094  0.5316  0.7498 -0.1019
  193MOL0     O25391   9.645   3.621   6.945 -0.1862 -0.3215  0.0187
  193MOL0     C25392   9.404   3.705   7.043 -0.2896  0.4356 -0.4040
  193MOL0     C25393   9.282   3.756   7.101 -0.8919  1.0539  0.5070
  193MOL0     N25394   8.724   4.187   7.137  0.6419 -0.5270  0.1976
  193MOL0     N25395   8.711   4.200   7.007 -0.5369  0.4981  0.4679
  193MOL0     C25396   8.813   3.595   7.666  0.6154  0.5203 -0.4483
  193MOL0     C25397   8.758   3.630   7.793  0.4142  0.0898 -0.0100
  193MOL0     C25398   8.537   3.928   8.081 -0.3382  0.6011 -0.3696
  193MOL0     C25399   8.511   4.065   8.131  0.3889  0.5480  0.3500
  193MOL0     C25400   8.451   4.091   8.256 -0.0083  0.3274 -1.3348
  193MOL0     C25401   8.419   3.987   8.338 -0.7239 -0.5730  0.9317
  193MOL0     O25402   8.362   4.023   8.451  0.2164  0.3898  0.1059
  193MOL0     C25403   8.429   3.968   8.563  0.1361 -0.0161  0.0322
  193MOL0     C25404   8.338   3.901   8.657 -0.7857  0.5306 -0.0911
  193MOL0     C25405   8.221   3.988   8.704  0.7122 -0.3740 -0.0285
  193MOL0     C25406   8.139   3.903   8.797 -0.5863  0.1914 -0.2420
  193MOL0     C25407   8.045   3.817   8.727  0.8120  0.3550  0.5450
  193MOL0     C25408   7.980   3.728   8.664  0.1524  0.0562 -0.8933
  193MOL0     C25409   8.445   3.859   8.296 -0.0802  0.3617 -0.2163
  193MOL0     C25410   8.514   3.825   8.180  0.0360  0.1899 -0.1853
  193MOL0     H25411   8.520   3.844   7.681 -2.2124 -1.5183  1.5025
  193MOL0     H25412   8.638   3.795   7.460 -1.1730  1.9323 -0.1271
  193MOL0     H25413   8.701   3.514   7.348  0.7382 -1.0364 -2.8754
  193MOL0     H25414   8.860   3.447   7.395  0.6041  1.3096  0.9856
  193MOL0     H25415   8.908   3.467   7.192 -1.3139 -0.3060  1.0115
  193MOL0     H25416   8.961   3.632   7.239 -0.7320  0.5711 -2.8354
  193MOL0     H25417   8.763   3.747   7.154  1.9044  1.6055 -3.1588
  193MOL0     H25418   8.676   3.590   7.122  0.0348  0.2122 -0.5525
  193MOL0     H25419   8.934   3.691   6.981 -0.2685  1.3673  2.1557
  193MOL0     H25420   8.849   3.542   6.950  0.7162 -2.5746  3.5853
  193MOL0     H25421   8.638   3.683   6.919 -1.2798  1.6256 -1.3709
  193MOL0     H25422   8.760   3.688   6.787 -1.8343  0.9703 -0.6765
  193MOL0     H25423   8.709   3.899   6.990 -3.8396 -0.2797 -1.0553
  193MOL0     H25424   8.647   3.896   6.833 -1.0478 -4.7483  1.2106
  193MOL0     H25425   8.951   3.915   6.891 -1.0596  1.0692  1.9005
  193MOL0     H25426   8.893   3.899   6.733  3.4644 -0.1246  0.3548
  193MOL0     H25427   8.763   4.099   6.739  2.7775 -3.6864 -4.3299
  193MOL0     H25428   8.929   4.145   6.778  0.9672 -0.1743  1.4621
  193MOL0     H25429   9.014   4.082   7.025  0.8860  0.8711 -0.9468
  193MOL0     H25430   8.857   4.171   7.378 -2.2886  0.8047 -2.1685
  193MOL0     H25431   9.019   4.150   7.296 -0.6422  2.3193 -0.0502
  193MOL0     H25432   8.957   3.928   7.231 -0.3613 -1.2005 -0.9067
  193MOL0     H25433   8.821   3.931   7.344 -2.2429  1.9599 -3.0314
  193MOL0     H25434   9.016   4.039   7.511 -0.9213  3.7198 -3.3803
  193MOL0     H25435   8.974   3.857   7.485 -0.0920 -1.3276 -1.8762
  193MOL0     H25436   9.218   3.887   7.491  1.7627  2.4021  0.4576
  193MOL0     H25437   9.227   3.993   7.344  0.5004  1.0352  1.8352
  193MOL0     H25438   9.399   3.748   7.427  0.1433  2.6081  0.0060
  193MOL0     H25439   9.582   3.639   7.316  0.1200 -0.8961 -0.0170
  193MOL0     H25440   9.916   3.571   6.937 -1.0357  0.8059  0.7035
  193MOL0     H25441  10.080   3.415   6.859 -1.5950 -1.8296 -1.7010
  193MOL0     H25442  10.017   3.015   6.880  0.1089  3.0864 -0.6601
  193MOL0     H25443  10.117   2.993   7.024  1.5970 -0.7581 -0.1147
  193MOL0     H25444  10.331   3.003   6.884 -0.3476 -0.4381  1.2004
  193MOL0     H25445  10.248   3.026   6.742  0.4335 -0.3460  0.3931
  193MOL0     H25446  10.207   2.800   6.933  1.9207  0.6892 -0.3654
  193MOL0     H25447  10.322   2.782   6.802  2.0199  2.1342  2.3587
  193MOL0     H25448  10.048   2.851   6.691 -0.4376 -1.0752 -0.7496
  193MOL0     H25449  10.138   2.699   6.672 -0.8654  0.9963 -2.0106
  193MOL0     H25450   9.987   2.737   6.920  0.9971  3.2790 -0.4123
  193MOL0     H25451  10.060   2.588   6.857  2.2477  2.6079  2.5780
  193MOL0     H25452   9.803   2.736   6.755  3.5008  0.9316 -3.3187
  193MOL0     H25453   9.823   2.577   6.835 -0.6990  0.3692 -0.3079
  193MOL0     H25454   9.946   2.636   6.563 -1.3152  2.2987  0.7881
  193MOL0     H25455   9.950   2.488   6.655  1.4425  0.1741 -1.4002
  193MOL0     H25456   9.706   2.454   6.637  0.6788  0.6550  1.7714
  193MOL0     H25457   9.795   2.472   6.480  1.4698  0.6294  1.2185
  193MOL0     H25458   9.883   3.108   7.086  0.3501  0.3150 -0.7281
  193MOL0     H25459   9.709   3.262   7.154 -0.5402  2.0562 -0.8620
  193MOL0     H25460   9.410   3.685   6.936 -0.2639 -2.2540  0.0290
  193MOL0     H25461   9.191   3.785   7.049 -2.3613 -0.0451  2.3444
  193MOL0     H25462   8.894   3.525   7.653 -0.0059  0.1404 -2.7876
  193MOL0     H25463   8.798   3.593   7.887  0.3643  0.0577 -0.0019
  193MOL0     H25464   8.511   4.149   8.063  0.0198  1.4958  1.4926
  193MOL0     H25465   8.423   4.192   8.283  1.1512  0.3499 -0.1614
  193MOL0     H25466   8.487   4.040   8.622  0.4791 -0.3043  0.0501
  193MOL0     H25467   8.493   3.882   8.540  0.2541  0.4730 -1.5706
  193MOL0     H25468   8.290   3.815   8.609 -0.4408  1.7368 -2.7787
  193MOL0     H25469   8.390   3.862   8.745 -1.1014  2.0921  0.8102
  193MOL0     H25470   8.151   4.024   8.628 -1.7359 -2.0164  1.3265
  193MOL0     H25471   8.269   4.072   8.756  1.6232 -0.6067 -0.4633
  193MOL0     H25472   8.204   3.848   8.866 -0.2032 -0.4924 -1.1263
  193MOL0     H25473   8.085   3.981   8.853 -1.2296  0.0260 -0.6171
  193MOL0     H25474   7.924   3.643   8.632  3.3014 -2.8638  0.7474
  193MOL0     H25475   8.405   3.781   8.360  0.0871  1.4185  1.2233
  193MOL0     H25476   8.539   3.721   8.164  0.2021 -0.0662  1.4712
  194MOL0     O25477   3.398   2.946   4.731 -0.8910 -0.2301  0.1753
  194MOL0     C25478   3.304   2.916   4.805  0.6511 -0.1434  0.1370
  194MOL0     O25479   3.248   2.787   4.832  0.5601  0.0235  0.4893
  194MOL0     C25480   3.321   2.677   4.807  0.6793 -0.5911 -0.0871
  194MOL0     C25481   3.454   2.654   4.837 -0.5627 -0.9607 -0.1815
  194MOL0     C25482   3.521   2.530   4.788  0.7796 -0.2234 -0.0996
  194MOL0     C25483   3.449   2.420   4.732 -0.2057 -0.7496 -0.4052
  194MOL0     O25484   3.511   2.295   4.700 -0.2399  0.1371 -0.1121
  194MOL0     C25485   3.651   2.288   4.683  0.1720  1.4074  0.1461
  194MOL0     C25486   3.701   2.139   4.650 -0.8263 -0.2452 -1.1952
  194MOL0     C25487   3.664   2.049   4.768  0.2387 -0.3508  0.9279
  194MOL0     C25488   3.612   1.908   4.724  0.2057  0.5583  0.8982
  194MOL0     C25489   3.607   1.796   4.824  0.3582  0.5594 -0.0127
  194MOL0     C25490   3.746   1.737   4.851  1.1848  0.0125 -0.1010
  194MOL0     C25491   3.743   1.596   4.912  0.6783  0.7111  0.0588
  194MOL0     C25492   3.651   1.590   5.036 -0.7555 -0.0945  0.4706
  194MOL0     N25493   3.650   1.469   5.116  0.4936  0.3348  0.0369
  194MOL0     C25494   3.753   1.390   5.162 -0.3287 -0.0943 -1.3724
  194MOL0     C25495   3.698   1.301   5.251 -0.8462 -1.1824  0.2642
  194MOL0     C25496   3.781   1.210   5.328  0.7978 -0.3401 -0.0784
  194MOL0     C25497   3.869   1.115   5.241 -0.4689 -0.9539  0.8523
  194MOL0     C25498   3.990   1.056   5.322  0.6840  0.4176 -0.4579
  194MOL0     C25499   4.064   0.942   5.250 -0.0272  0.0637 -0.4292
  194MOL0     O25500   4.142   0.859   5.338  0.2651  0.9544 -0.1379
  194MOL0     C25501   4.251   0.791   5.279  0.1271 -0.2298 -0.1169
  194MOL0     C25502   4.278   0.781   5.136 -0.0940 -0.8691 -0.4784
  194MOL0     C25503   4.386   0.697   5.099 -1.4843 -0.1476  0.3591
  194MOL0     C25504   4.473   0.631   5.189  0.4951 -0.0896  0.7572
  194MOL0     C25505   4.588   0.546   5.143  0.5337  1.0288 -0.5762
  194MOL0     O25506   4.633   0.572   5.017  0.7961  0.2636  0.0815
  194MOL0     C25507   4.685   0.474   4.938 -0.0948  0.3869 -0.4686
  194MOL0     C25508   4.774   0.509   4.834  0.2617 -0.3077 -0.2081
  194MOL0     C25509   4.834   0.409   4.752 -0.8775  0.8587 -0.3599
  194MOL0     C25510   4.809   0.271   4.776 -0.3735 -0.0665 -1.1498
  194MOL0     O25511   4.850   0.171   4.703  0.8509 -0.8634 -0.3151
  194MOL0     C25512   4.886   0.204   4.567  0.7408 -0.8583 -0.2998
  194MOL0     C25513   4.892   0.077   4.482 -0.4271  0.8559  0.8540
  194MOL0     C25514   4.930   0.109   4.331 -0.2563 -0.2954 -0.4691
  194MOL0     C25515   4.909  -0.013   4.231 -0.1609 -0.6950 -0.3937
  194MOL0     C25516   4.965   0.020   4.092 -1.0962  0.7831  0.9595
  194MOL0     C25517   4.929  -0.081   3.983 -0.0482 -0.9517  0.9193
  194MOL0     C25518   5.026  -0.196   3.977  0.5493  0.4153  0.3180
  194MOL0     C25519   5.164  -0.167   3.918 -0.0270  0.6999  0.4982
  194MOL0    Cl25520   5.169  -0.187   3.745  0.1819 -0.5140 -0.2685
  194MOL0     C25521   4.723   0.238   4.883 -0.0111 -0.9524  0.0750
  194MOL0     C25522   4.663   0.335   4.960  0.9555  0.2477  0.7126
  194MOL0     O25523   4.627   0.457   5.220 -0.0211  0.8871 -0.5154
  194MOL0     C25524   4.430   0.633   5.322 -0.9384 -0.2014  0.4926
  194MOL0     C25525   4.331   0.716   5.371 -0.1589  0.0687  0.7258
  194MOL0     N25526   3.567   1.323   5.250 -0.5559  0.7989 -0.6733
  194MOL0     N25527   3.539   1.423   5.175 -0.1164  0.0733 -0.9761
  194MOL0     C25528   3.312   2.448   4.695  0.0959  0.1927 -0.1354
  194MOL0     C25529   3.254   2.569   4.733  0.0247  0.9806  0.0916
  194MOL0     C25530   3.231   3.038   4.853  0.3754 -0.0780  0.0676
  194MOL0     C25531   3.289   3.162   4.868 -0.2825  0.5602 -0.0643
  194MOL0     C25532   3.230   3.272   4.932  0.5060 -0.2983  0.1791
  194MOL0     C25533   3.102   3.262   4.976 -0.4597 -0.2874  0.5813
  194MOL0     O25534   3.022   3.358   5.028  0.1075  0.7277  0.0924
  194MOL0     C25535   3.064   3.406   5.154 -0.8039  0.5001 -0.4459
  194MOL0     C25536   2.998   3.544   5.193  0.1545 -0.1111  0.2682
  194MOL0     C25537   2.866   3.503   5.262 -0.1149 -0.0939 -0.8094
  194MOL0     C25538   2.790   3.625   5.299 -0.1896 -0.2357 -0.9913
  194MOL0     C25539   2.701   3.597   5.408 -0.7869  0.3663  0.4602
  194MOL0     C25540   2.638   3.571   5.506 -0.1481  0.4466  0.1946
  194MOL0     C25541   3.040   3.140   4.954  0.0601  0.6343 -0.0810
  194MOL0     C25542   3.098   3.031   4.897 -0.4832 -0.0060 -0.5898
  194MOL0     H25543   3.511   2.732   4.887  0.5793 -1.9725  0.1503
  194MOL0     H25544   3.627   2.509   4.800  0.8485 -0.8286 -1.5489
  194MOL0     H25545   3.692   2.304   4.784  2.2293  0.1443 -0.4328
  194MOL0     H25546   3.687   2.359   4.608 -1.8801 -0.8824 -3.2498
  194MOL0     H25547   3.810   2.145   4.656 -0.9391  1.7103  3.7662
  194MOL0     H25548   3.653   2.107   4.557 -1.6732  1.2777 -1.3153
  194MOL0     H25549   3.580   2.084   4.827 -1.4431 -3.4959  0.6333
  194MOL0     H25550   3.754   2.041   4.830 -0.9583 -0.8171  2.6642
  194MOL0     H25551   3.514   1.918   4.677  1.0228 -0.3363 -1.1294
  194MOL0     H25552   3.680   1.870   4.647 -0.3237 -2.0490  1.6180
  194MOL0     H25553   3.539   1.717   4.791  1.7121 -1.9571  2.8134
  194MOL0     H25554   3.570   1.846   4.914 -0.9223 -2.1037  1.0455
  194MOL0     H25555   3.804   1.804   4.915 -0.0645  1.4955 -0.4644
  194MOL0     H25556   3.797   1.732   4.754  0.8827  1.9056 -0.4029
  194MOL0     H25557   3.722   1.518   4.839  2.6853  0.4506 -0.2959
  194MOL0     H25558   3.847   1.590   4.947  0.5849  1.6854  0.5506
  194MOL0     H25559   3.549   1.629   5.023 -0.1051  2.0627  1.3065
  194MOL0     H25560   3.689   1.669   5.101 -0.9670 -0.9179  1.6307
  194MOL0     H25561   3.860   1.403   5.153 -0.2631  2.7106  1.6563
  194MOL0     H25562   3.715   1.158   5.398 -0.1112 -0.5584 -1.0757
  194MOL0     H25563   3.847   1.276   5.386 -0.3958  1.3526 -0.5779
  194MOL0     H25564   3.903   1.151   5.144  0.8988  0.2843  1.7529
  194MOL0     H25565   3.804   1.031   5.214 -0.5134 -1.2247  1.7634
  194MOL0     H25566   4.061   1.136   5.347  0.3805  0.0425  1.8052
  194MOL0     H25567   3.958   1.006   5.414  0.5893  1.7637  0.2727
  194MOL0     H25568   4.128   0.996   5.179 -1.6310  0.7779 -1.3790
  194MOL0     H25569   3.989   0.881   5.200 -0.8261  1.0112 -0.4221
  194MOL0     H25570   4.214   0.827   5.061 -1.2602 -0.5483  0.6909
  194MOL0     H25571   4.414   0.695   4.994 -0.9012  1.0448  0.4729
  194MOL0     H25572   4.791   0.613   4.810 -0.2242  0.7079  3.3913
  194MOL0     H25573   4.900   0.440   4.672 -0.4829  1.9135  0.3511
  194MOL0     H25574   4.979   0.262   4.566 -2.0541  4.2102 -0.1512
  194MOL0     H25575   4.804   0.266   4.529 -0.3968 -2.2152 -0.1095
  194MOL0     H25576   4.799   0.019   4.490  0.3795 -0.2175  3.3679
  194MOL0     H25577   4.972   0.011   4.515  0.1625  0.6973 -0.8174
  194MOL0     H25578   5.033   0.145   4.335 -0.0022 -0.7488  5.0600
  194MOL0     H25579   4.862   0.189   4.298 -0.4027  0.2521  1.0883
  194MOL0     H25580   4.968  -0.102   4.254  1.2306 -0.1162 -1.5682
  194MOL0     H25581   4.803  -0.041   4.220  0.1202 -1.2555 -1.8933
  194MOL0     H25582   5.074   0.016   4.097 -0.9663 -0.0192 -1.2901
  194MOL0     H25583   4.925   0.117   4.064  3.2485  3.3795  2.7382
  194MOL0     H25584   4.927  -0.027   3.888 -3.5186 -1.0929  0.7864
  194MOL0     H25585   4.828  -0.119   3.996 -0.4285  0.2612  1.5960
  194MOL0     H25586   5.023  -0.240   4.077 -0.7442 -0.9793 -0.2986
  194MOL0     H25587   4.962  -0.257   3.912  0.7398  2.3475 -1.8320
  194MOL0     H25588   5.234  -0.241   3.956 -1.0338 -0.6039 -0.1120
  194MOL0     H25589   5.199  -0.064   3.931 -3.2666  2.2714 -1.8458
  194MOL0     H25590   4.701   0.132   4.886 -0.0948 -0.9268  3.0923
  194MOL0     H25591   4.592   0.295   5.032  3.4318 -2.4015  1.8786
  194MOL0     H25592   4.492   0.585   5.397  0.0995  2.0602  1.1974
  194MOL0     H25593   4.312   0.710   5.478  0.4960  0.6895  0.8796
  194MOL0     H25594   3.250   2.370   4.651 -0.3200  0.5491 -0.1932
  194MOL0     H25595   3.146   2.571   4.728 -0.0870  0.4428  1.7551
  194MOL0     H25596   3.382   3.178   4.814 -0.1098  0.1852  0.1130
  194MOL0     H25597   3.282   3.366   4.948  1.2266 -0.6748  0.0840
  194MOL0     H25598   3.171   3.428   5.147 -0.8582  0.3830 -2.0048
  194MOL0     H25599   3.052   3.330   5.233 -1.5400 -0.5096 -1.4939
  194MOL0     H25600   3.057   3.595   5.269 -1.2477 -1.5648  2.4213
  194MOL0     H25601   2.990   3.602   5.100  0.7372 -0.5400 -0.0631
  194MOL0     H25602   2.883   3.443   5.352 -2.1776 -1.7739 -1.4421
  194MOL0     H25603   2.814   3.445   5.186 -0.8008 -0.1521 -0.3066
  194MOL0     H25604   2.867   3.697   5.328 -0.4208  0.0953 -1.1942
  194MOL0     H25605   2.736   3.665   5.213  2.8263 -0.1651 -2.9867
  194MOL0     H25606   2.572   3.556   5.589  0.0644 -2.0652 -0.0123
  194MOL0     H25607   2.939   3.127   4.990 -0.1573  0.9756 -0.5584
  194MOL0     H25608   3.042   2.939   4.906 -0.3534 -0.0289  0.0602
  195MOL0     O25609   1.036   4.775   9.472  0.6192  0.1930  0.5268
  195MOL0     C25610   1.129   4.827   9.531 -0.8973  0.0449  0.0028
  195MOL0     O25611   1.129   4.951   9.589 -0.6725  0.4589  0.8897
  195MOL0     C25612   1.007   5.009   9.611  0.4880 -0.7720 -0.4898
  195MOL0     C25613   0.919   4.961   9.709 -0.5565  0.0899  0.3063
  195MOL0     C25614   0.795   5.022   9.728 -0.3625 -0.1579 -0.6993
  195MOL0     C25615   0.761   5.138   9.662 -0.4658 -0.2054  0.7198
  195MOL0     O25616   0.648   5.209   9.684  0.2029 -0.3634 -0.0882
  195MOL0     C25617   0.633   5.259   9.820  0.5659  0.7117 -0.3486
  195MOL0     C25618   0.515   5.202   9.894  1.3688 -0.7244  0.8590
  195MOL0     C25619   0.532   5.191  10.050  0.1437 -0.3318  0.8984
  195MOL0     C25620   0.406   5.191  10.142 -0.4654 -0.3060 -0.6236
  195MOL0     C25621   0.446   5.211  10.287  0.4487  0.1108  0.6353
  195MOL0     C25622   0.503   5.088  10.364 -0.3398  0.2364 -0.6260
  195MOL0     C25623   0.572   5.125  10.493  0.0203 -0.4588  0.7954
  195MOL0     C25624   0.599   5.011  10.592 -0.6387 -0.7828  0.3610
  195MOL0     N25625   0.691   4.917  10.518 -0.2630 -0.7002  0.6651
  195MOL0     C25626   0.663   4.818  10.427 -0.1348 -0.0665 -0.5373
  195MOL0     C25627   0.778   4.774  10.372 -0.4168  0.3354  0.6315
  195MOL0     C25628   0.795   4.657  10.277  0.7109  1.1902 -0.2645
  195MOL0     C25629   0.865   4.694  10.143  0.3080 -0.8190  0.5189
  195MOL0     C25630   0.842   4.588  10.039 -0.0503 -0.0285  0.4709
  195MOL0     C25631   0.706   4.608   9.978 -0.8361 -0.1982 -0.2725
  195MOL0     O25632   0.678   4.488   9.899  0.6595  0.5510  0.1026
  195MOL0     C25633   0.741   4.458   9.772 -0.2554 -0.7922 -0.8576
  195MOL0     C25634   0.748   4.326   9.735 -0.1254  0.0792 -0.6700
  195MOL0     C25635   0.804   4.280   9.616 -0.1086 -0.5784  0.4656
  195MOL0     C25636   0.861   4.377   9.527 -0.0601  0.6449 -0.2482
  195MOL0     C25637   0.918   4.341   9.391  0.0200 -0.0913  0.5035
  195MOL0     O25638   0.999   4.440   9.341 -0.0197  0.3649 -0.3208
  195MOL0     C25639   1.050   4.438   9.213 -0.3546 -1.4148 -0.5666
  195MOL0     C25640   1.170   4.507   9.189 -0.3500  1.0288  0.5934
  195MOL0     C25641   1.232   4.519   9.074  0.2813 -1.1866  0.5789
  195MOL0     C25642   1.155   4.490   8.961 -0.4873 -0.2475 -0.0699
  195MOL0     O25643   1.204   4.535   8.837 -0.0758 -0.2324 -0.7008
  195MOL0     C25644   1.115   4.543   8.719  0.5747  0.5800 -0.7558
  195MOL0     C25645   1.191   4.614   8.594 -0.4607  0.2486 -0.5349
  195MOL0     C25646   1.298   4.542   8.512  0.7880  0.5402 -0.6532
  195MOL0     C25647   1.409   4.479   8.606 -0.1865  0.6420  0.3453
  195MOL0     C25648   1.508   4.390   8.529 -0.1178  0.3611  0.0800
  195MOL0     C25649   1.607   4.467   8.438  0.6754 -0.9207 -0.0412
  195MOL0     C25650   1.701   4.379   8.344  0.0619 -0.1327  0.0359
  195MOL0     C25651   1.798   4.466   8.266  0.0551 -0.5011 -0.3150
  195MOL0    Cl25652   1.921   4.551   8.358 -0.0312  0.2832 -0.0742
  195MOL0     C25653   1.037   4.404   8.974 -2.0902  0.3290 -1.0564
  195MOL0     C25654   0.985   4.386   9.101  0.2043 -0.0316  0.0424
  195MOL0     O25655   0.904   4.221   9.357  0.5642 -0.1263  1.1698
  195MOL0     C25656   0.857   4.510   9.570  0.4897 -0.7113  0.1591
  195MOL0     C25657   0.801   4.555   9.691  0.1718 -0.4949  0.2959
  195MOL0     N25658   0.880   4.857  10.414 -0.4237 -0.6821  0.0179
  195MOL0     N25659   0.827   4.937  10.502 -0.4027  0.1581 -0.0705
  195MOL0     C25660   0.855   5.179   9.560  0.5298  0.3985  0.6934
  195MOL0     C25661   0.974   5.111   9.535 -0.1898 -0.2522  0.2498
  195MOL0     C25662   1.254   4.747   9.543 -0.1098  0.7405  0.3818
  195MOL0     C25663   1.375   4.792   9.588  0.3714 -0.1526  0.8755
  195MOL0     C25664   1.478   4.709   9.633 -0.8114  0.3786 -0.0642
  195MOL0     C25665   1.460   4.572   9.631  0.5464 -1.0833 -0.0542
  195MOL0     O25666   1.546   4.477   9.678  0.3884  0.0028  0.7875
  195MOL0     C25667   1.677   4.490   9.672  0.0568 -0.0550  0.2700
  195MOL0     C25668   1.704   4.454   9.528  0.1003  0.3034  0.7649
  195MOL0     C25669   1.858   4.442   9.509  0.7660  0.2024 -1.1638
  195MOL0     C25670   1.884   4.346   9.399 -0.2261  1.0635  0.6222
  195MOL0     C25671   1.842   4.399   9.269 -0.3188 -1.1949 -1.2231
  195MOL0     C25672   1.815   4.457   9.166  0.1791  0.7234 -0.7252
  195MOL0     C25673   1.332   4.518   9.576 -0.2090 -0.7177 -0.2179
  195MOL0     C25674   1.243   4.605   9.525  0.0456 -0.4939  0.3030
  195MOL0     H25675   0.941   4.874   9.770  2.2367  0.7917  0.4323
  195MOL0     H25676   0.714   4.984   9.789 -0.8080  0.2566 -1.0252
  195MOL0     H25677   0.618   5.367   9.812  0.2378  0.7542  0.6231
  195MOL0     H25678   0.720   5.226   9.878  0.6226 -0.5182 -1.0893
  195MOL0     H25679   0.481   5.108   9.850 -1.8128  0.5787  0.3015
  195MOL0     H25680   0.434   5.268   9.863  0.7036 -1.5055  0.8971
  195MOL0     H25681   0.582   5.284  10.078 -0.7122  0.9768 -1.6356
  195MOL0     H25682   0.595   5.104  10.072  1.7679  1.0643  1.9783
  195MOL0     H25683   0.343   5.277  10.115  0.6337  0.7419  0.0267
  195MOL0     H25684   0.347   5.100  10.126 -2.0417 -0.0314  2.6015
  195MOL0     H25685   0.357   5.253  10.334  0.3306 -0.4392  0.9019
  195MOL0     H25686   0.522   5.290  10.298  1.1866 -0.8551  3.0347
  195MOL0     H25687   0.582   5.046  10.300  0.1090 -1.3780  0.9029
  195MOL0     H25688   0.423   5.014  10.375 -0.0192 -0.6793 -3.4957
  195MOL0     H25689   0.671   5.151  10.454  0.1733  1.6330  2.3770
  195MOL0     H25690   0.529   5.207  10.553  1.6952  2.7251 -2.0295
  195MOL0     H25691   0.508   4.958  10.621 -0.1667 -1.1064  1.2821
  195MOL0     H25692   0.638   5.052  10.686 -3.0278  1.1658  0.5971
  195MOL0     H25693   0.562   4.780  10.427  0.1289 -0.9389  1.6051
  195MOL0     H25694   0.700   4.605  10.259 -0.4401  2.3960  1.9298
  195MOL0     H25695   0.860   4.588  10.332  0.2218  1.3031  0.4672
  195MOL0     H25696   0.969   4.725  10.160 -0.0923  0.3224  0.9897
  195MOL0     H25697   0.823   4.794  10.125 -0.7496 -0.4225  4.2234
  195MOL0     H25698   0.913   4.600   9.956  0.4184  2.4061  1.1298
  195MOL0     H25699   0.876   4.493  10.080 -0.8454  0.0568  1.3496
  195MOL0     H25700   0.698   4.701   9.921 -1.6426 -0.0840  0.0153
  195MOL0     H25701   0.628   4.602  10.054 -2.3284 -1.9375 -1.8429
  195MOL0     H25702   0.689   4.264   9.801 -0.8041  2.9765  1.6732
  195MOL0     H25703   0.810   4.172   9.604 -3.9293 -1.0866  1.7741
  195MOL0     H25704   1.213   4.542   9.282 -1.5661 -1.1093  2.0530
  195MOL0     H25705   1.327   4.569   9.068  0.6273 -1.9330 -0.4914
  195MOL0     H25706   1.027   4.593   8.762 -0.8781 -0.4918 -2.3527
  195MOL0     H25707   1.088   4.442   8.690 -0.3088  0.9832 -1.3821
  195MOL0     H25708   1.232   4.712   8.620  2.2015 -0.2762 -2.4374
  195MOL0     H25709   1.110   4.626   8.521 -0.8922 -1.0740 -0.3123
  195MOL0     H25710   1.338   4.614   8.440  0.5668 -0.0189 -1.3449
  195MOL0     H25711   1.249   4.456   8.466 -1.1143  0.5076  1.2853
  195MOL0     H25712   1.463   4.551   8.669 -0.0353 -0.7170  1.8581
  195MOL0     H25713   1.360   4.407   8.673 -0.9545  0.1374 -0.7395
  195MOL0     H25714   1.458   4.320   8.461  1.4411 -0.4207 -0.3105
  195MOL0     H25715   1.553   4.321   8.602 -3.1652 -0.7488  1.0886
  195MOL0     H25716   1.674   4.517   8.509 -1.5520  0.9316  0.8849
  195MOL0     H25717   1.554   4.540   8.376  3.2130  2.6054  1.5854
  195MOL0     H25718   1.755   4.298   8.394  0.9211 -0.4272 -1.3246
  195MOL0     H25719   1.624   4.334   8.282  0.7483 -0.2967 -0.7140
  195MOL0     H25720   1.742   4.532   8.199 -0.3360 -0.3419  0.1616
  195MOL0     H25721   1.848   4.401   8.193 -1.0887  1.2463 -2.7573
  195MOL0     H25722   0.987   4.374   8.882  1.5190 -2.4064 -2.4244
  195MOL0     H25723   0.893   4.335   9.127  1.0221 -0.1939  2.9642
  195MOL0     H25724   0.905   4.587   9.511  1.2850  0.3613  2.1312
  195MOL0     H25725   0.805   4.662   9.704  1.5191 -0.3323 -1.1110
  195MOL0     H25726   0.842   5.272   9.507 -1.1254  0.9515  1.9639
  195MOL0     H25727   1.053   5.144   9.468  2.0885  3.2161  4.1830
  195MOL0     H25728   1.367   4.899   9.607 -4.0104 -0.1281 -0.0157
  195MOL0     H25729   1.569   4.745   9.681 -2.2530  2.8588  1.0530
  195MOL0     H25730   1.721   4.412   9.736 -0.5348  1.6370  2.9199
  195MOL0     H25731   1.722   4.587   9.694  1.2125  0.2243 -2.8609
  195MOL0     H25732   1.662   4.355   9.505  1.4768 -0.3614  1.0169
  195MOL0     H25733   1.664   4.523   9.453  3.5636  1.0691 -0.5836
  195MOL0     H25734   1.919   4.410   9.594  1.9471  0.3796 -1.9127
  195MOL0     H25735   1.892   4.544   9.488  0.7632  0.4443 -0.0664
  195MOL0     H25736   1.989   4.320   9.416 -1.1546 -2.2719  2.1629
  195MOL0     H25737   1.836   4.248   9.414  5.2962 -2.1403 -0.0186
  195MOL0     H25738   1.780   4.517   9.084 -2.1110 -2.0143 -1.9397
  195MOL0     H25739   1.314   4.411   9.580 -1.1496 -0.5282  2.0614
  195MOL0     H25740   1.148   4.567   9.489 -1.0263  1.8825  0.4234
  196MOL0     O25741   9.887   3.974   6.105 -0.1616 -0.4718 -0.5235
  196MOL0     C25742   9.843   4.078   6.156 -0.8816 -0.1822  0.6484
  196MOL0     O25743   9.852   4.203   6.100 -0.3938  0.2750 -0.5290
  196MOL0     C25744   9.856   4.205   5.962 -0.5130 -0.9341  0.3518
  196MOL0     C25745   9.740   4.229   5.882 -0.0485 -0.9635 -0.6141
  196MOL0     C25746   9.751   4.211   5.749  0.8289  0.4316  0.0846
  196MOL0     C25747   9.878   4.189   5.684  0.4936 -0.1662 -0.9579
  196MOL0     O25748   9.875   4.178   5.546  0.5127 -0.0632  0.4553
  196MOL0     C25749   9.993   4.113   5.488 -0.2152  0.3604 -0.3466
  196MOL0     C25750  10.001   4.135   5.339 -0.3553  0.3948  0.0568
  196MOL0     C25751   9.861   4.127   5.266  0.0486  0.0860 -0.2199
  196MOL0     C25752   9.884   4.176   5.120  0.1606  0.1230 -0.2404
  196MOL0     C25753   9.895   4.326   5.118  0.6339 -0.4850  0.0538
  196MOL0     C25754   9.918   4.375   4.975 -0.4454 -0.2053 -0.1287
  196MOL0     C25755   9.927   4.520   4.963  0.0778 -1.1074 -0.2439
  196MOL0     C25756   9.996   4.568   4.831  0.2062  0.1149  0.3746
  196MOL0     N25757   9.968   4.706   4.808 -0.0682 -0.0450  1.1561
  196MOL0     C25758   9.864   4.757   4.725  0.0463  0.1078 -0.2701
  196MOL0     C25759   9.870   4.889   4.749 -0.4137  0.0488 -0.1132
  196MOL0     C25760   9.784   5.003   4.690  1.0926  0.5299 -0.0006
  196MOL0     C25761   9.642   4.960   4.637 -0.4385  0.0548 -0.0793
  196MOL0     C25762   9.532   4.979   4.741 -0.2836 -0.1503 -1.0615
  196MOL0     C25763   9.536   4.873   4.854  0.0468 -0.6186 -0.2889
  196MOL0     O25764   9.558   4.745   4.804  0.0245 -0.0136 -0.4027
  196MOL0     C25765   9.554   4.649   4.910  0.3511 -0.0096 -0.0294
  196MOL0     C25766   9.491   4.653   5.036  0.7221 -0.9505 -0.4239
  196MOL0     C25767   9.482   4.545   5.124  0.9080 -0.1534 -0.4884
  196MOL0     C25768   9.497   4.416   5.070 -0.6950 -0.8784  0.2165
  196MOL0     C25769   9.468   4.308   5.159  0.8421  0.6271  0.9937
  196MOL0     O25770   9.448   4.189   5.091  0.3610  0.0280  0.6587
  196MOL0     C25771   9.375   4.083   5.141 -0.1553  0.6260 -0.3895
  196MOL0     C25772   9.440   3.959   5.129  0.9264  0.1202  0.3196
  196MOL0     C25773   9.361   3.846   5.154 -1.1001  0.2678  0.2372
  196MOL0     C25774   9.221   3.854   5.173  0.5157  0.5400  0.0367
  196MOL0     O25775   9.147   3.744   5.195 -1.2788  0.0485  0.8079
  196MOL0     C25776   9.167   3.630   5.102  0.1128  0.0119 -0.2136
  196MOL0     C25777   9.100   3.663   4.970  0.4681  0.1335  0.0812
  196MOL0     C25778   9.097   3.545   4.869  0.3910  0.4944  1.4788
  196MOL0     C25779   8.989   3.577   4.766  0.2346  0.6456 -0.1398
  196MOL0     C25780   8.997   3.458   4.661  0.4321  0.4843 -0.1968
  196MOL0     C25781   8.947   3.322   4.714 -1.0297  0.2722 -0.8455
  196MOL0     C25782   8.799   3.313   4.743  0.1992 -0.5907  0.3934
  196MOL0     C25783   8.758   3.181   4.786 -0.4841 -0.1845 -0.5206
  196MOL0    Cl25784   8.581   3.169   4.811 -0.3523 -0.0465  0.1434
  196MOL0     C25785   9.165   3.973   5.174  0.3382 -0.9452  0.0224
  196MOL0     C25786   9.235   4.094   5.170 -0.5355  0.4363  0.5152
  196MOL0     O25787   9.448   4.324   5.278 -0.2922 -0.1128 -0.0366
  196MOL0     C25788   9.543   4.407   4.937 -0.1169 -0.3900  0.6198
  196MOL0     C25789   9.569   4.517   4.865 -0.3674 -0.5572 -0.2663
  196MOL0     N25790   9.980   4.915   4.832  0.4750  0.3126  0.6024
  196MOL0     N25791  10.026   4.808   4.872 -0.0517 -0.1949 -0.4130
  196MOL0     C25792   9.989   4.169   5.767  0.8454 -0.5295 -0.4000
  196MOL0     C25793   9.979   4.176   5.904  0.2709 -0.1898 -0.0527
  196MOL0     C25794   9.789   4.076   6.295  0.6387 -0.0236 -0.5130
  196MOL0     C25795   9.754   4.198   6.358 -0.5371  0.5369 -0.5876
  196MOL0     C25796   9.684   4.188   6.480  0.2204  0.0693 -0.2502
  196MOL0     C25797   9.652   4.059   6.536 -0.6143 -0.6601 -0.3818
  196MOL0     O25798   9.582   4.068   6.652 -0.0945  0.7236  0.1430
  196MOL0     C25799   9.475   3.972   6.673 -0.7540 -1.2377  0.3052
  196MOL0     C25800   9.365   4.008   6.575 -0.0441  0.1081 -0.4809
  196MOL0     C25801   9.238   3.937   6.623  0.4448  0.2921 -0.2570
  196MOL0     C25802   9.110   4.018   6.586 -0.1687  0.3084  0.4268
  196MOL0     C25803   9.118   4.079   6.451  0.4473  0.3245 -0.2883
  196MOL0     C25804   9.123   4.134   6.348 -0.2449 -0.5282  0.3662
  196MOL0     C25805   9.673   3.940   6.466 -0.3422  0.2174  0.5746
  196MOL0     C25806   9.749   3.946   6.349 -1.1587 -0.0068  0.1605
  196MOL0     H25807   9.646   4.264   5.924 -0.1280  0.7095 -2.0436
  196MOL0     H25808   9.672   4.232   5.678  0.3263  4.4223  1.5384
  196MOL0     H25809   9.981   4.008   5.515 -1.5737  0.4609 -0.5022
  196MOL0     H25810  10.089   4.146   5.529  0.9572  0.6719 -3.1114
  196MOL0     H25811  10.066   4.053   5.306 -2.9001 -0.4750 -3.3199
  196MOL0     H25812  10.053   4.224   5.301 -1.3612 -0.1440 -2.8361
  196MOL0     H25813   9.781   4.181   5.318 -0.2644 -0.8000  0.2437
  196MOL0     H25814   9.831   4.022   5.276 -0.1663  0.1106 -0.5807
  196MOL0     H25815   9.969   4.115   5.087 -0.2458 -0.7504  0.3002
  196MOL0     H25816   9.799   4.147   5.057 -1.1944 -0.0297  1.5874
  196MOL0     H25817   9.983   4.360   5.173 -0.0220 -0.5509  1.1613
  196MOL0     H25818   9.801   4.372   5.149  0.3702 -0.5800 -0.5932
  196MOL0     H25819   9.842   4.345   4.903  0.2281 -0.7640 -0.6192
  196MOL0     H25820  10.008   4.324   4.940 -1.9421 -1.0156 -3.0576
  196MOL0     H25821   9.827   4.566   4.968 -0.6620 -2.7383  3.5176
  196MOL0     H25822   9.970   4.568   5.051 -2.0660  0.5422  0.0059
  196MOL0     H25823   9.975   4.508   4.741  0.6453  2.2008 -1.2044
  196MOL0     H25824  10.104   4.558   4.840 -0.0849 -2.6828  2.0334
  196MOL0     H25825   9.788   4.710   4.664 -0.9272  1.9311 -0.5261
  196MOL0     H25826   9.837   5.028   4.597 -0.2730  3.2204 -0.1591
  196MOL0     H25827   9.788   5.091   4.756  1.1904 -0.4967  1.3991
  196MOL0     H25828   9.651   4.858   4.600 -0.9677 -0.6025  1.5593
  196MOL0     H25829   9.620   5.023   4.550 -0.8228  1.1200  0.7605
  196MOL0     H25830   9.544   5.078   4.788 -1.7693  1.1609 -3.2547
  196MOL0     H25831   9.434   4.980   4.693 -1.9265  4.1441  1.7520
  196MOL0     H25832   9.445   4.892   4.912  0.4881  1.3755 -0.1894
  196MOL0     H25833   9.624   4.896   4.914 -1.5673  0.0018  1.9722
  196MOL0     H25834   9.457   4.749   5.073 -1.3663 -1.9034  0.2579
  196MOL0     H25835   9.433   4.560   5.219 -2.3337  0.2131 -2.0970
  196MOL0     H25836   9.546   3.967   5.104  0.5609  1.3274 -0.9993
  196MOL0     H25837   9.419   3.754   5.150 -0.9425  0.3269  0.9087
  196MOL0     H25838   9.107   3.546   5.138 -0.2284 -0.4955 -1.8831
  196MOL0     H25839   9.271   3.599   5.094 -0.3006 -0.8953 -5.2299
  196MOL0     H25840   9.154   3.744   4.920 -1.1446  1.4407  0.3612
  196MOL0     H25841   8.998   3.693   4.996  0.6340  0.5133  0.3087
  196MOL0     H25842   9.069   3.459   4.931 -0.2337 -1.0392 -0.8137
  196MOL0     H25843   9.192   3.532   4.818  0.7634  2.6716  1.4979
  196MOL0     H25844   8.890   3.573   4.815 -2.3722  0.1023 -4.8692
  196MOL0     H25845   8.999   3.674   4.716 -0.8007  0.7455 -0.1910
  196MOL0     H25846   9.097   3.461   4.616  0.0187  2.4520 -1.0735
  196MOL0     H25847   8.938   3.490   4.575  1.1351 -1.0927 -1.3028
  196MOL0     H25848   9.015   3.302   4.798  0.6342  2.3570 -1.6030
  196MOL0     H25849   8.962   3.244   4.639 -1.7183  0.0568 -0.7647
  196MOL0     H25850   8.782   3.374   4.832  0.3037 -0.3113  0.2231
  196MOL0     H25851   8.730   3.352   4.667  0.1133  1.4957  1.4708
  196MOL0     H25852   8.802   3.152   4.881  1.0672 -1.8394 -1.6944
  196MOL0     H25853   8.783   3.098   4.719 -1.7955  0.3600 -1.7468
  196MOL0     H25854   9.057   3.973   5.190  0.1979 -0.4450 -0.8673
  196MOL0     H25855   9.186   4.192   5.175  0.9086  1.2191 -0.1269
  196MOL0     H25856   9.554   4.307   4.896 -0.6383  0.9429 -3.1201
  196MOL0     H25857   9.606   4.495   4.765 -3.0052 -2.4489 -0.9189
  196MOL0     H25858  10.080   4.133   5.719  1.6535 -0.2390  0.8657
  196MOL0     H25859  10.062   4.165   5.973  0.2586 -1.9824 -0.2631
  196MOL0     H25860   9.770   4.301   6.327 -1.4383  2.2864  3.9990
  196MOL0     H25861   9.640   4.264   6.545  1.8234 -0.9119  2.1209
  196MOL0     H25862   9.435   3.993   6.772 -1.8530 -1.1048 -0.1546
  196MOL0     H25863   9.499   3.865   6.672  0.1337 -1.0460  0.1305
  196MOL0     H25864   9.344   4.116   6.581  0.7408  0.2050  1.0990
  196MOL0     H25865   9.390   3.985   6.471  3.3915  3.7161 -0.7024
  196MOL0     H25866   9.231   3.937   6.732  3.3667  3.8919  0.1167
  196MOL0     H25867   9.220   3.837   6.582 -1.8442  0.2486  0.7184
  196MOL0     H25868   9.023   3.953   6.586 -1.1011  1.4932 -0.5645
  196MOL0     H25869   9.086   4.099   6.656 -2.0422  2.6432 -2.6246
  196MOL0     H25870   9.130   4.181   6.252 -1.7603  1.7690  1.2899
  196MOL0     H25871   9.634   3.848   6.507 -0.1534  0.5061  1.4181
  196MOL0     H25872   9.780   3.855   6.299  0.5054  0.0528  1.0178
  197MOL0     O25873   4.800   1.305   4.753  0.4587  0.3452 -0.5420
  197MOL0     C25874   4.916   1.323   4.725  0.4864  0.0928  0.4985
  197MOL0     O25875   5.021   1.323   4.802 -0.0437  0.3627  0.0764
  197MOL0     C25876   5.004   1.328   4.941 -0.3894  0.4828 -0.0004
  197MOL0     C25877   5.082   1.240   5.024  1.5505  0.3927  0.6904
  197MOL0     C25878   5.061   1.239   5.163  0.3314 -0.5476 -0.3071
  197MOL0     C25879   4.973   1.340   5.217 -1.0665  1.5234  0.1011
  197MOL0     O25880   4.967   1.330   5.352  0.4400  0.6380 -0.4162
  197MOL0     C25881   4.932   1.448   5.416 -0.2356 -0.6877 -0.5269
  197MOL0     C25882   4.992   1.461   5.563 -0.0692  0.3669 -0.4465
  197MOL0     C25883   5.135   1.421   5.571 -0.9362 -0.6591  0.6703
  197MOL0     C25884   5.179   1.407   5.717  0.1895 -0.4047  0.1048
  197MOL0     C25885   5.326   1.394   5.746 -0.7246  0.3941 -0.1184
  197MOL0     C25886   5.366   1.379   5.898 -0.8250  0.4202  0.2742
  197MOL0     C25887   5.281   1.475   5.991 -0.7304  0.1342  0.4636
  197MOL0     C25888   5.320   1.618   5.984 -0.3110 -0.2093  0.3814
  197MOL0     N25889   5.277   1.690   5.864 -0.1273 -0.0376 -1.1034
  197MOL0     C25890   5.357   1.720   5.752  0.6617  1.3008  0.1350
  197MOL0     C25891   5.282   1.782   5.661  0.9039 -0.6908 -0.7384
  197MOL0     C25892   5.318   1.842   5.519 -0.6408 -0.4245  0.5430
  197MOL0     C25893   5.357   1.735   5.422  0.8688 -0.1418 -1.3674
  197MOL0     C25894   5.239   1.713   5.325  0.2439 -0.1377 -0.5193
  197MOL0     C25895   5.270   1.601   5.232  0.0206  0.4180 -0.3283
  197MOL0     O25896   5.390   1.620   5.154  0.3943 -0.3602 -0.0303
  197MOL0     C25897   5.403   1.521   5.061  0.1955 -0.5219 -0.1577
  197MOL0     C25898   5.382   1.565   4.927 -0.9182 -0.8464  0.2528
  197MOL0     C25899   5.392   1.474   4.824  0.3898  1.3456  1.4605
  197MOL0     C25900   5.410   1.336   4.848 -0.6308 -0.1600  0.4935
  197MOL0     C25901   5.442   1.240   4.736  0.5810  0.0576 -0.2335
  197MOL0     O25902   5.427   1.299   4.617 -0.0643  0.1942 -0.3493
  197MOL0     C25903   5.455   1.234   4.500 -0.3504 -0.2921  0.1427
  197MOL0     C25904   5.590   1.242   4.448  0.7507  0.5190 -0.1171
  197MOL0     C25905   5.623   1.157   4.342 -0.3892  0.7425 -0.1841
  197MOL0     C25906   5.533   1.080   4.270  0.0833  0.0338 -0.2907
  197MOL0     O25907   5.570   1.018   4.153  0.5820  0.2578  0.3558
  197MOL0     C25908   5.528   0.879   4.154  0.4935  0.2487 -0.3016
  197MOL0     C25909   5.612   0.807   4.051 -0.9601  0.3752 -0.9275
  197MOL0     C25910   5.573   0.659   4.024  0.2216  0.0564 -0.5548
  197MOL0     C25911   5.688   0.589   3.960 -0.4232  1.1797 -0.0620
  197MOL0     C25912   5.670   0.439   3.983  0.3951  1.0257  0.3763
  197MOL0     C25913   5.753   0.337   3.899 -0.1873 -0.2747  0.5714
  197MOL0     C25914   5.705   0.310   3.753 -0.0276  0.5722 -0.2371
  197MOL0     C25915   5.797   0.230   3.671 -0.1460  0.1294 -0.1490
  197MOL0    Cl25916   5.715   0.211   3.503 -0.0998  0.1026 -0.6500
  197MOL0     C25917   5.398   1.097   4.313 -0.3551 -0.3620  0.5570
  197MOL0     C25918   5.363   1.165   4.434  0.1367  0.6593  0.6378
  197MOL0     O25919   5.475   1.122   4.747 -0.1861  0.0151 -0.6997
  197MOL0     C25920   5.404   1.298   4.979 -0.1483  0.1808 -0.5711
  197MOL0     C25921   5.395   1.389   5.087 -0.2180  0.0030 -0.5724
  197MOL0     N25922   5.162   1.808   5.733  0.8649  0.3654 -0.2029
  197MOL0     N25923   5.158   1.762   5.850 -0.1215  0.4080  0.0456
  197MOL0     C25924   4.895   1.422   5.127  0.2815  0.3761  0.5860
  197MOL0     C25925   4.925   1.425   4.987  0.5351 -0.0017 -0.6232
  197MOL0     C25926   4.940   1.366   4.584 -1.5527  0.6192  0.1708
  197MOL0     C25927   4.840   1.412   4.500 -0.6336  0.8588  0.7125
  197MOL0     C25928   4.866   1.429   4.359 -0.6913  0.2007  0.2563
  197MOL0     C25929   5.000   1.410   4.306 -0.6864 -0.2144  0.2820
  197MOL0     O25930   5.026   1.430   4.168  0.2379  0.4425  0.7164
  197MOL0     C25931   5.123   1.346   4.111  0.6048  0.3892  1.6170
  197MOL0     C25932   5.066   1.204   4.090  1.0178 -0.3851 -0.0718
  197MOL0     C25933   4.948   1.204   3.997 -0.0906 -0.1567 -0.8597
  197MOL0     C25934   4.969   1.113   3.867 -0.1036  0.1814 -0.3117
  197MOL0     C25935   5.027   1.186   3.753  0.4023 -0.7051  0.0385
  197MOL0     C25936   5.051   1.238   3.648 -0.0167 -0.9828 -0.2407
  197MOL0     C25937   5.103   1.383   4.403  0.2994 -0.5344 -0.0205
  197MOL0     C25938   5.071   1.365   4.530  0.1426  0.9601 -0.3828
  197MOL0     H25939   5.147   1.167   4.976  0.8384  0.4914 -0.4547
  197MOL0     H25940   5.127   1.170   5.215  1.9728 -0.4127 -2.1236
  197MOL0     H25941   4.824   1.449   5.432 -0.0872 -2.2064  0.8164
  197MOL0     H25942   4.953   1.537   5.355 -2.2511  0.9614  1.0236
  197MOL0     H25943   4.939   1.389   5.626  4.8667 -0.7877  3.0789
  197MOL0     H25944   4.960   1.562   5.592  0.6854  1.0000 -1.7313
  197MOL0     H25945   5.201   1.495   5.527 -1.2042  1.0469  2.9521
  197MOL0     H25946   5.148   1.316   5.541 -1.7131 -0.5040 -0.2374
  197MOL0     H25947   5.154   1.502   5.766  0.5853 -0.3852  0.2740
  197MOL0     H25948   5.134   1.325   5.775  1.7254 -1.0175  0.4692
  197MOL0     H25949   5.373   1.485   5.708  0.0074  0.2663  0.4815
  197MOL0     H25950   5.364   1.307   5.690  0.4175  1.8102 -1.6425
  197MOL0     H25951   5.467   1.421   5.902 -1.8432  3.4748 -2.1222
  197MOL0     H25952   5.356   1.273   5.922  0.7141  0.6392  2.1009
  197MOL0     H25953   5.175   1.454   5.977 -0.5159 -2.2484  1.7590
  197MOL0     H25954   5.295   1.441   6.095 -1.5685 -2.5519 -0.2248
  197MOL0     H25955   5.429   1.623   5.990 -0.2103 -0.1232 -1.0860
  197MOL0     H25956   5.283   1.671   6.072  1.7437  1.4346  0.3654
  197MOL0     H25957   5.463   1.696   5.753  0.2302 -0.9001  1.4020
  197MOL0     H25958   5.411   1.897   5.540  0.0913 -1.5946  0.4667
  197MOL0     H25959   5.244   1.913   5.482  0.2877 -0.1948 -0.9777
  197MOL0     H25960   5.383   1.642   5.475  1.3000  0.8493  0.2370
  197MOL0     H25961   5.453   1.765   5.381  0.7690  3.1536  0.4636
  197MOL0     H25962   5.159   1.676   5.390  2.4821 -1.9948  1.3527
  197MOL0     H25963   5.220   1.795   5.256  0.0565  0.3809  0.1388
  197MOL0     H25964   5.184   1.607   5.164  0.3322  1.1472 -0.6797
  197MOL0     H25965   5.262   1.502   5.278 -0.2919 -0.1388 -1.5388
  197MOL0     H25966   5.358   1.671   4.920 -0.4198 -0.4236  3.3687
  197MOL0     H25967   5.386   1.499   4.719  1.5013 -0.7951  0.8279
  197MOL0     H25968   5.648   1.307   4.512 -1.5118 -0.7435  3.5510
  197MOL0     H25969   5.727   1.136   4.320 -1.1371 -3.1776 -0.8077
  197MOL0     H25970   5.424   0.867   4.122 -0.0067  1.1148  0.9372
  197MOL0     H25971   5.542   0.837   4.254  0.9236  1.6225  0.2363
  197MOL0     H25972   5.716   0.801   4.084 -1.4734 -3.9900  0.4839
  197MOL0     H25973   5.593   0.872   3.965 -2.6704  4.5975  2.3125
  197MOL0     H25974   5.484   0.657   3.960 -0.9327 -1.9237  1.0063
  197MOL0     H25975   5.542   0.614   4.119  1.7752 -2.0325 -0.9573
  197MOL0     H25976   5.695   0.619   3.855  3.5919  2.5858  0.4208
  197MOL0     H25977   5.785   0.614   4.003 -0.6166  0.0252  1.0946
  197MOL0     H25978   5.569   0.402   3.962 -0.1916  0.9522  2.9550
  197MOL0     H25979   5.690   0.419   4.089  0.5266  2.4043  0.6381
  197MOL0     H25980   5.753   0.240   3.949  3.2219  0.9588  3.3822
  197MOL0     H25981   5.856   0.376   3.897 -1.0070  2.0571 -1.9231
  197MOL0     H25982   5.602   0.272   3.762 -0.8322  3.1483  3.7713
  197MOL0     H25983   5.682   0.408   3.712 -2.5559 -0.4288 -1.4331
  197MOL0     H25984   5.806   0.135   3.725  4.3723 -0.4105 -1.4387
  197MOL0     H25985   5.901   0.258   3.654  0.4361 -1.1882  1.0124
  197MOL0     H25986   5.320   1.039   4.266 -0.6797 -1.1049  1.9633
  197MOL0     H25987   5.260   1.177   4.468 -0.5091  1.5792 -1.4379
  197MOL0     H25988   5.426   1.192   4.991  0.2361  0.5128  2.6453
  197MOL0     H25989   5.381   1.346   5.186  1.8080  0.9920  0.1979
  197MOL0     H25990   4.824   1.498   5.158 -1.7860  0.3172 -3.4215
  197MOL0     H25991   4.875   1.499   4.926  2.2263  0.9294 -0.9213
  197MOL0     H25992   4.737   1.426   4.531 -0.8309 -1.0929  1.0619
  197MOL0     H25993   4.786   1.445   4.288  0.8480  1.1539 -1.3233
  197MOL0     H25994   5.218   1.322   4.158  1.4768 -2.4009 -1.2489
  197MOL0     H25995   5.155   1.386   4.015  0.1945 -1.2488  0.7733
  197MOL0     H25996   5.148   1.162   4.031 -0.0060 -1.2463 -0.9110
  197MOL0     H25997   5.051   1.149   4.183  2.4634 -0.7215 -0.0075
  197MOL0     H25998   4.925   1.309   3.975  1.3360  2.2525  6.2825
  197MOL0     H25999   4.865   1.161   4.055 -1.5071  2.2270 -0.9941
  197MOL0     H26000   5.028   1.027   3.900  1.6668  1.4537  0.0344
  197MOL0     H26001   4.870   1.082   3.833 -0.6872  0.1669  1.3130
  197MOL0     H26002   5.085   1.278   3.555 -0.6498  1.4285  0.4678
  197MOL0     H26003   5.209   1.389   4.380  0.6200 -1.5855  1.0648
  197MOL0     H26004   5.161   1.344   4.586  1.1092 -0.3779 -2.3511
  198MOL0     O26005   4.922   1.045   8.877  0.1377  0.1622  0.6491
  198MOL0     C26006   4.833   0.950   8.870 -0.0401 -0.7799  0.7339
  198MOL0     O26007   4.709   0.960   8.928 -0.5283  0.8133  0.0833
  198MOL0     C26008   4.686   1.062   9.012 -0.0413 -0.2593 -0.0240
  198MOL0     C26009   4.621   1.176   8.960  0.6009 -0.9688 -0.5710
  198MOL0     C26010   4.577   1.279   9.045 -0.2828 -0.7039  0.9307
  198MOL0     C26011   4.605   1.265   9.183  1.0614 -0.6023 -0.2909
  198MOL0     O26012   4.553   1.360   9.271  0.0620  0.3169  0.1995
  198MOL0     C26013   4.560   1.504   9.244  0.0564 -0.3225  0.0762
  198MOL0     C26014   4.520   1.579   9.366  0.1431 -0.6906 -0.8077
  198MOL0     C26015   4.377   1.541   9.408  0.3450  0.6197  0.1896
  198MOL0     C26016   4.333   1.604   9.543  0.6250 -1.0498 -0.2126
  198MOL0     C26017   4.200   1.543   9.586  0.1480  0.2394 -0.4931
  198MOL0     C26018   4.121   1.609   9.701  0.4886 -0.0226  0.4069
  198MOL0     C26019   4.197   1.599   9.834  0.9516  0.3625  0.6527
  198MOL0     C26020   4.131   1.680   9.946 -1.0327  0.0654  0.3082
  198MOL0     N26021   4.120   1.827   9.922  0.6643 -0.6321 -0.9803
  198MOL0     C26022   4.012   1.890   9.883 -0.3583 -0.0199 -0.0366
  198MOL0     C26023   4.046   2.019   9.853  0.3308  0.1237 -0.3232
  198MOL0     C26024   3.941   2.111   9.805  0.4795 -0.0814 -0.9600
  198MOL0     C26025   3.838   2.152   9.910 -0.6211 -0.0469  0.1737
  198MOL0     C26026   3.882   2.229  10.029 -0.4629  0.2041 -0.0347
  198MOL0     C26027   4.004   2.328  10.007  0.1826  0.0760 -0.5365
  198MOL0     O26028   4.047   2.414  10.123 -0.1276 -0.1862  0.5174
  198MOL0     C26029   3.983   2.538  10.134 -0.0649  0.5613  0.4642
  198MOL0     C26030   3.898   2.606  10.037 -0.2581  0.6306  0.4757
  198MOL0     C26031   3.842   2.730  10.063 -0.3528  0.0923 -0.3008
  198MOL0     C26032   3.863   2.802  10.182 -0.3278 -0.5725 -0.0451
  198MOL0     C26033   3.810   2.938  10.200 -0.9222 -0.6736 -0.1125
  198MOL0     O26034   3.719   2.978  10.110  0.9616 -0.7876  0.1816
  198MOL0     C26035   3.663   3.095  10.130 -0.9488  0.5705 -0.3824
  198MOL0     C26036   3.737   3.211  10.130  0.0991 -0.6206 -0.3707
  198MOL0     C26037   3.670   3.325  10.139 -0.6148 -0.9883  0.1309
  198MOL0     C26038   3.531   3.338  10.157  0.2047 -0.1309 -1.2786
  198MOL0     O26039   3.459   3.453  10.161  0.0458 -0.3089 -0.4810
  198MOL0     C26040   3.504   3.561  10.243 -0.1771  0.0292 -0.0987
  198MOL0     C26041   3.387   3.649  10.291 -0.1339 -0.2006  1.4457
  198MOL0     C26042   3.310   3.715  10.177 -0.3687 -0.4674 -0.0390
  198MOL0     C26043   3.191   3.784  10.252 -0.1211  1.1067  0.4338
  198MOL0     C26044   3.119   3.891  10.171 -1.0231 -0.0824  0.2037
  198MOL0     C26045   3.053   3.841  10.050  0.4113  0.3838  0.4218
  198MOL0     C26046   3.041   3.961   9.955 -0.1803 -1.0170 -0.0692
  198MOL0     C26047   3.023   3.905   9.817  0.0872  0.2820  0.1041
  198MOL0    Cl26048   3.013   4.046   9.701  0.4148 -0.1763 -0.0414
  198MOL0     C26049   3.455   3.219  10.157  0.4592  0.0411  1.1750
  198MOL0     C26050   3.528   3.100  10.139 -0.3509 -0.5423  0.2154
  198MOL0     O26051   3.837   2.987  10.309 -0.1878  0.2455 -0.1505
  198MOL0     C26052   3.949   2.739  10.266  0.2074  0.3039  0.3154
  198MOL0     C26053   4.018   2.614  10.249 -1.4309  0.2054 -0.1130
  198MOL0     N26054   4.181   2.033   9.869 -0.4481 -0.1993 -0.3538
  198MOL0     N26055   4.223   1.922   9.925  0.7411  0.5818 -0.0884
  198MOL0     C26056   4.675   1.161   9.234  0.7412 -0.0249 -0.4330
  198MOL0     C26057   4.728   1.061   9.151  0.1027 -0.7623 -0.1535
  198MOL0     C26058   4.880   0.830   8.802  0.9630  0.9280  0.6434
  198MOL0     C26059   4.787   0.749   8.743  0.7229  0.9760 -0.7581
  198MOL0     C26060   4.829   0.628   8.682 -0.4728  0.7490 -0.0441
  198MOL0     C26061   4.965   0.589   8.686  0.7580 -0.4323  0.7369
  198MOL0     O26062   5.014   0.488   8.601  0.3486  0.2889  0.6873
  198MOL0     C26063   4.973   0.481   8.468 -0.6092 -0.2951 -0.6659
  198MOL0     C26064   5.082   0.386   8.398 -0.6477 -0.0500 -0.3179
  198MOL0     C26065   5.069   0.386   8.245 -0.2678 -0.1120 -0.0822
  198MOL0     C26066   4.939   0.335   8.187  0.7646 -0.7291 -0.2674
  198MOL0     C26067   4.945   0.333   8.041 -0.6079  0.0162  0.6386
  198MOL0     C26068   4.943   0.297   7.921 -0.1295 -0.5009  0.4767
  198MOL0     C26069   5.056   0.677   8.752  0.4245 -0.4494  0.3268
  198MOL0     C26070   5.019   0.805   8.810 -0.2840  0.1003  0.6267
  198MOL0     H26071   4.611   1.189   8.852 -1.3908  4.8558 -0.0146
  198MOL0     H26072   4.510   1.361   9.018 -0.8253 -2.0631 -2.3929
  198MOL0     H26073   4.508   1.533   9.153  1.1533 -1.8206 -1.0807
  198MOL0     H26074   4.664   1.533   9.225  0.7005 -0.7378  2.5729
  198MOL0     H26075   4.523   1.688   9.368  0.4788 -0.6696 -1.7239
  198MOL0     H26076   4.579   1.543   9.450 -2.1501 -1.0852  0.7239
  198MOL0     H26077   4.374   1.433   9.425  2.5837  0.8020  2.1695
  198MOL0     H26078   4.319   1.597   9.333  2.4294 -0.1711 -2.1409
  198MOL0     H26079   4.420   1.598   9.610  0.1313  0.4445  0.6068
  198MOL0     H26080   4.324   1.713   9.542 -1.5779 -1.1987  0.1754
  198MOL0     H26081   4.224   1.439   9.611  0.3700  0.6204  0.9579
  198MOL0     H26082   4.129   1.536   9.503 -3.6258  0.3406  2.4537
  198MOL0     H26083   4.038   1.540   9.715  0.9604 -0.1769  2.7169
  198MOL0     H26084   4.086   1.711   9.680 -0.8585 -0.3754  0.8483
  198MOL0     H26085   4.182   1.493   9.857 -0.1631  0.5907  1.0481
  198MOL0     H26086   4.299   1.634   9.817 -0.1763  3.1199 -1.1713
  198MOL0     H26087   4.187   1.670  10.040 -0.9870 -1.7087  0.1293
  198MOL0     H26088   4.033   1.633   9.952  0.2566 -2.7911  0.6417
  198MOL0     H26089   3.921   1.836   9.857  0.0813 -0.2471 -1.1790
  198MOL0     H26090   3.884   2.067   9.722 -2.3350  2.4416 -0.5407
  198MOL0     H26091   3.977   2.204   9.760  0.0891 -0.2130 -1.5537
  198MOL0     H26092   3.783   2.060   9.933  2.4718 -2.1539 -0.2341
  198MOL0     H26093   3.768   2.220   9.861  1.0534  0.4528 -1.6430
  198MOL0     H26094   3.806   2.297  10.067  2.0323  1.1777  3.8130
  198MOL0     H26095   3.893   2.159  10.112  2.4205  1.2975  0.6408
  198MOL0     H26096   3.974   2.378   9.914 -0.9360 -0.5528 -0.5402
  198MOL0     H26097   4.087   2.263   9.975  1.0071  1.3717 -1.1138
  198MOL0     H26098   3.870   2.547   9.950 -0.9234  0.3504  0.8726
  198MOL0     H26099   3.769   2.766   9.991  1.1870  1.0964 -1.4196
  198MOL0     H26100   3.845   3.209  10.119  0.3127 -2.0984  1.3660
  198MOL0     H26101   3.732   3.414  10.134  0.1966 -1.5906 -0.8537
  198MOL0     H26102   3.577   3.625  10.193  0.0613 -0.5733 -0.5338
  198MOL0     H26103   3.540   3.526  10.340 -2.5476  2.8569  2.0034
  198MOL0     H26104   3.430   3.731  10.349 -0.8540  0.5302  0.9521
  198MOL0     H26105   3.332   3.580  10.356  2.0418  1.4951  5.4574
  198MOL0     H26106   3.282   3.646  10.097 -0.6382 -2.2766  1.5179
  198MOL0     H26107   3.359   3.796  10.124  0.6188 -0.9774  0.0734
  198MOL0     H26108   3.122   3.703  10.280  1.7777 -0.0838  1.9662
  198MOL0     H26109   3.227   3.844  10.336 -2.6919  0.9800  1.7368
  198MOL0     H26110   3.189   3.969  10.139 -0.0989 -1.7330 -2.0290
  198MOL0     H26111   3.052   3.946  10.238  0.6653  0.8655  1.1728
  198MOL0     H26112   2.950   3.806  10.064  0.9608 -1.6109 -0.1439
  198MOL0     H26113   3.111   3.765   9.997  0.9976  1.3707 -0.3774
  198MOL0     H26114   2.952   4.015   9.987 -0.4062 -1.9904  0.9953
  198MOL0     H26115   3.130   4.025   9.957 -0.7105 -0.0087 -3.2052
  198MOL0     H26116   2.931   3.848   9.804  0.1730  0.3725 -0.9937
  198MOL0     H26117   3.103   3.839   9.783 -1.4452 -2.3404  1.2755
  198MOL0     H26118   3.347   3.230  10.159 -0.1573 -3.7691 -0.4490
  198MOL0     H26119   3.481   3.003  10.131  1.0145 -1.4046  2.0218
  198MOL0     H26120   3.968   2.795  10.357  0.0549  0.8976 -0.0134
  198MOL0     H26121   4.075   2.573  10.331 -0.6166 -1.2228 -1.3317
  198MOL0     H26122   4.685   1.159   9.342 -0.8810 -0.7462 -0.2716
  198MOL0     H26123   4.791   0.976   9.176  2.3557  0.5797 -0.9082
  198MOL0     H26124   4.686   0.787   8.752  0.7325  1.1357 -1.3133
  198MOL0     H26125   4.755   0.568   8.630 -0.1259 -1.1525  1.5805
  198MOL0     H26126   4.976   0.580   8.419  6.2611 -0.6146 -1.9848
  198MOL0     H26127   4.876   0.436   8.447 -0.7421  0.0572 -0.8165
  198MOL0     H26128   5.183   0.418   8.424 -0.2836 -0.2886 -1.3605
  198MOL0     H26129   5.071   0.282   8.432 -0.3151  0.7193  2.3271
  198MOL0     H26130   5.161   0.341   8.205 -0.1316  0.6792 -0.6899
  198MOL0     H26131   5.082   0.490   8.213 -0.5747  1.4485  4.1812
  198MOL0     H26132   4.924   0.229   8.211 -4.1088 -0.2775 -0.2621
  198MOL0     H26133   4.863   0.404   8.225  0.3605 -1.2694 -0.0717
  198MOL0     H26134   4.961   0.264   7.820  1.6460  0.3773  0.4629
  198MOL0     H26135   5.159   0.643   8.755  0.3051 -0.9161 -0.4297
  198MOL0     H26136   5.094   0.861   8.864  0.3172 -1.3589  1.3588
  199MOL0     O26137   6.531   0.830   8.642 -0.7847 -1.5499  0.0247
  199MOL0     C26138   6.443   0.890   8.583 -0.9544 -0.4207 -0.1610
  199MOL0     O26139   6.423   0.886   8.444 -1.2959  0.5516  0.5020
  199MOL0     C26140   6.504   0.820   8.346 -0.0538  0.5437 -0.3829
  199MOL0     C26141   6.475   0.855   8.218  0.3186 -0.4700  0.2267
  199MOL0     C26142   6.554   0.805   8.117 -0.7966 -0.9793 -0.4633
  199MOL0     C26143   6.656   0.713   8.147  0.9274 -0.4845  1.0568
  199MOL0     O26144   6.727   0.675   8.028 -0.4914 -0.4627 -0.5577
  199MOL0     C26145   6.834   0.586   8.038  1.1715 -0.1668 -1.1871
  199MOL0     C26146   6.890   0.542   7.897 -0.1414 -0.1386  0.1208
  199MOL0     C26147   6.932   0.660   7.809  0.9774  0.7021  0.7547
  199MOL0     C26148   6.969   0.597   7.671 -0.7543  0.2741 -0.7326
  199MOL0     C26149   7.001   0.703   7.563  0.0052  0.0706 -0.8041
  199MOL0     C26150   7.066   0.627   7.444  0.6381 -0.6706  0.6566
  199MOL0     C26151   7.088   0.715   7.324 -0.5372 -0.4140  0.3231
  199MOL0     C26152   7.219   0.809   7.343  0.1951 -0.1640 -1.0013
  199MOL0     N26153   7.342   0.722   7.345  0.1043 -0.4390 -0.0500
  199MOL0     C26154   7.376   0.626   7.248 -0.7219 -0.2413 -0.4708
  199MOL0     C26155   7.481   0.565   7.301  0.3473  0.4432  1.3734
  199MOL0     C26156   7.566   0.451   7.247  0.5032 -0.4216  0.6840
  199MOL0     C26157   7.470   0.324   7.220 -0.3889 -0.2099 -0.6815
  199MOL0     C26158   7.545   0.194   7.178  0.0903 -0.4695 -0.1074
  199MOL0     C26159   7.630   0.140   7.298  0.3349 -0.1029 -0.2968
  199MOL0     O26160   7.545   0.080   7.407  0.4612  0.0975  0.4047
  199MOL0     C26161   7.590   0.041   7.531  0.4097  0.3773 -0.5425
  199MOL0     C26162   7.718   0.064   7.571  0.1570 -0.9750 -1.3315
  199MOL0     C26163   7.773   0.008   7.680 -0.1534  1.1881  0.0473
  199MOL0     C26164   7.692  -0.069   7.766  0.2077 -0.9540  0.1273
  199MOL0     C26165   7.752  -0.118   7.896 -0.4924  1.1869 -0.8037
  199MOL0     O26166   7.884  -0.095   7.919 -0.2189  0.7277  0.4030
  199MOL0     C26167   7.941  -0.133   8.037  0.5905 -0.2767 -0.3367
  199MOL0     C26168   8.056  -0.049   8.075 -0.2858 -0.2558 -0.0298
  199MOL0     C26169   8.122  -0.055   8.199  0.6580  0.5128  0.2481
  199MOL0     C26170   8.086  -0.150   8.292 -0.3877  0.4303  0.4186
  199MOL0     O26171   8.146  -0.150   8.415  0.3659  0.2655  0.3926
  199MOL0     C26172   8.101  -0.240   8.519 -0.0790 -1.0196  0.7229
  199MOL0     C26173   8.191  -0.214   8.636  0.3327 -0.3706  0.4429
  199MOL0     C26174   8.121  -0.123   8.741  0.4232  1.3160  0.0039
  199MOL0     C26175   8.206  -0.083   8.858  0.5145 -1.3401  0.3233
  199MOL0     C26176   8.123  -0.017   8.968 -0.8362  0.4536  0.4726
  199MOL0     C26177   8.201   0.000   9.102 -0.0567 -1.3287  0.4068
  199MOL0     C26178   8.335   0.075   9.072  0.6486  0.1342  0.0293
  199MOL0     C26179   8.381   0.161   9.194  0.9377 -0.3966 -0.6699
  199MOL0    Cl26180   8.254   0.285   9.201 -0.1990  0.2063 -0.4829
  199MOL0     C26181   7.991  -0.246   8.243  0.0824 -0.0140  0.9343
  199MOL0     C26182   7.912  -0.232   8.126 -0.2089  0.0938 -0.2166
  199MOL0     O26183   7.673  -0.166   7.980  0.0049  0.4024  0.2391
  199MOL0     C26184   7.553  -0.075   7.741 -0.7887 -0.0610  0.5685
  199MOL0     C26185   7.504  -0.024   7.619 -0.0929  0.0649 -0.2273
  199MOL0     N26186   7.513   0.625   7.417  0.1482  0.0199 -0.7953
  199MOL0     N26187   7.432   0.721   7.445  0.0022 -0.5337 -0.3671
  199MOL0     C26188   6.691   0.677   8.280 -0.0273  0.0655  0.2836
  199MOL0     C26189   6.619   0.732   8.383  0.5439  0.1404 -0.4131
  199MOL0     C26190   6.364   0.982   8.669 -0.0127 -0.0504  0.1826
  199MOL0     C26191   6.277   1.072   8.615  0.3890 -0.4723 -0.9619
  199MOL0     C26192   6.204   1.163   8.697  0.2129 -0.3341 -0.0391
  199MOL0     C26193   6.231   1.169   8.827 -1.0376 -0.0988  0.0614
  199MOL0     O26194   6.174   1.269   8.899 -0.6081  0.1345  0.5172
  199MOL0     C26195   6.234   1.316   9.027 -1.0437  0.1385 -0.5528
  199MOL0     C26196   6.133   1.353   9.132  0.6678 -0.0838  0.1544
  199MOL0     C26197   6.187   1.421   9.263 -0.1239  0.6429  0.4845
  199MOL0     C26198   6.086   1.416   9.374  0.1914  0.4149  0.5634
  199MOL0     C26199   5.951   1.482   9.343 -0.3244  0.2566  0.6985
  199MOL0     C26200   5.846   1.533   9.312 -0.4199 -0.3530  0.3442
  199MOL0     C26201   6.296   1.056   8.889 -0.3605  0.4275 -0.8389
  199MOL0     C26202   6.368   0.966   8.807 -0.6465 -0.0381  0.6217
  199MOL0     H26203   6.394   0.925   8.199  2.4074  1.5163 -2.1059
  199MOL0     H26204   6.546   0.852   8.019  1.9658 -1.3279 -0.9221
  199MOL0     H26205   6.796   0.498   8.090  3.4290 -0.8927 -0.6536
  199MOL0     H26206   6.911   0.629   8.103  0.8384 -0.7036 -0.4342
  199MOL0     H26207   6.812   0.482   7.849 -0.2964 -0.6484  0.9921
  199MOL0     H26208   6.972   0.472   7.917 -0.0473 -0.2385 -0.6039
  199MOL0     H26209   7.014   0.714   7.857  0.1340  2.7830  0.0078
  199MOL0     H26210   6.848   0.730   7.804 -0.9832 -1.3309  2.7110
  199MOL0     H26211   7.047   0.527   7.699 -3.4247 -0.7989  5.9486
  199MOL0     H26212   6.879   0.549   7.632 -0.1033 -1.6857  0.1035
  199MOL0     H26213   7.073   0.778   7.598  1.0280 -0.2402 -2.1856
  199MOL0     H26214   6.914   0.757   7.525 -0.1042  0.1047 -0.5083
  199MOL0     H26215   7.009   0.539   7.413 -0.2537 -0.2047  0.9360
  199MOL0     H26216   7.165   0.591   7.475  1.2861  0.7503  0.3455
  199MOL0     H26217   7.106   0.653   7.236 -0.5932 -0.8927  0.6487
  199MOL0     H26218   7.011   0.785   7.291 -0.4996 -2.0688 -3.8718
  199MOL0     H26219   7.204   0.868   7.434 -0.3241  0.6404 -1.5997
  199MOL0     H26220   7.234   0.875   7.257 -1.0965  0.2260 -0.9453
  199MOL0     H26221   7.332   0.612   7.150 -2.5163 -0.7885  0.3645
  199MOL0     H26222   7.641   0.427   7.324  1.1339 -2.1845 -0.4125
  199MOL0     H26223   7.607   0.480   7.150  0.0678  1.0180  0.9179
  199MOL0     H26224   7.401   0.335   7.136  1.8184 -1.4560 -2.7509
  199MOL0     H26225   7.425   0.303   7.318 -0.0372 -2.5657 -0.9678
  199MOL0     H26226   7.482   0.114   7.139  2.3681 -2.3929 -0.0609
  199MOL0     H26227   7.607   0.233   7.096  1.7533 -0.8857  0.9029
  199MOL0     H26228   7.696   0.215   7.343 -0.2119  0.6609 -0.7612
  199MOL0     H26229   7.699   0.064   7.261  1.3813  0.5514  0.2512
  199MOL0     H26230   7.783   0.129   7.514  0.1696  0.8193  0.6049
  199MOL0     H26231   7.880   0.018   7.698  0.0616 -0.5104 -0.1447
  199MOL0     H26232   8.076   0.027   8.001  0.4801 -1.6161 -1.2849
  199MOL0     H26233   8.199   0.017   8.225  2.0882 -0.8261 -0.1764
  199MOL0     H26234   8.109  -0.343   8.482  1.2554 -0.5071 -0.5103
  199MOL0     H26235   7.994  -0.237   8.542  0.1629 -0.0655  1.8035
  199MOL0     H26236   8.288  -0.173   8.606 -1.6157  2.1602 -3.1805
  199MOL0     H26237   8.210  -0.312   8.681  0.2227 -0.0080  1.3041
  199MOL0     H26238   8.045  -0.186   8.788  2.8577 -2.4760 -0.7388
  199MOL0     H26239   8.076  -0.035   8.694 -1.6758 -0.1744 -0.9414
  199MOL0     H26240   8.256  -0.174   8.891 -0.0544 -3.2576 -3.5498
  199MOL0     H26241   8.282  -0.012   8.825  0.0505 -1.0681 -0.1860
  199MOL0     H26242   8.048  -0.093   8.990  0.0062 -1.2267 -2.0190
  199MOL0     H26243   8.088   0.080   8.933  2.8243  1.1761 -1.6788
  199MOL0     H26244   8.233  -0.094   9.147  3.5668  2.0531  6.2172
  199MOL0     H26245   8.142   0.052   9.178  0.1750  0.1378 -0.3647
  199MOL0     H26246   8.403  -0.009   9.054 -0.2415 -1.2260  2.5084
  199MOL0     H26247   8.333   0.138   8.983  1.8886 -0.4623 -0.4480
  199MOL0     H26248   8.467   0.213   9.152 -1.5691  0.5155 -5.3758
  199MOL0     H26249   8.400   0.103   9.285 -0.4017 -1.1046 -0.8140
  199MOL0     H26250   7.961  -0.327   8.308 -0.8241 -3.4257 -3.2567
  199MOL0     H26251   7.831  -0.304   8.128 -1.4711  1.2671  4.9184
  199MOL0     H26252   7.483  -0.128   7.805 -0.1052  1.5768  2.7973
  199MOL0     H26253   7.398  -0.041   7.598 -0.2094 -3.2191  2.3051
  199MOL0     H26254   6.775   0.615   8.309  2.2359  0.8470 -3.7695
  199MOL0     H26255   6.638   0.710   8.487 -1.1491  1.2297  0.1554
  199MOL0     H26256   6.268   1.086   8.507 -0.8763 -0.7606 -0.9155
  199MOL0     H26257   6.143   1.241   8.652  0.6854 -0.4460 -0.9047
  199MOL0     H26258   6.298   1.401   9.003  1.2290  0.0744  4.1485
  199MOL0     H26259   6.291   1.239   9.079 -0.2799  0.5612 -0.7517
  199MOL0     H26260   6.065   1.412   9.069  2.4907  1.5360 -0.4003
  199MOL0     H26261   6.095   1.255   9.160  1.9306 -1.2879 -2.0416
  199MOL0     H26262   6.215   1.523   9.234  2.0394 -0.3223 -1.1211
  199MOL0     H26263   6.274   1.362   9.295 -1.8360 -1.0307  2.2731
  199MOL0     H26264   6.058   1.311   9.389  1.2429 -0.0575 -0.5645
  199MOL0     H26265   6.129   1.466   9.461  1.1628  1.6830 -0.6032
  199MOL0     H26266   5.744   1.548   9.286 -1.5281 -2.6559  2.9290
  199MOL0     H26267   6.299   1.050   8.997 -2.3343 -0.3769 -0.8077
  199MOL0     H26268   6.409   0.873   8.847 -2.7840 -1.1308  0.4114
  200MOL0     O26269   1.709  10.423   9.781 -0.3518  1.1540 -0.2983
  200MOL0     C26270   1.786  10.336   9.748  0.4580 -0.0583  0.8073
  200MOL0     O26271   1.783  10.203   9.787  0.0037 -0.5127 -0.1902
  200MOL0     C26272   1.710  10.172   9.902 -0.6678  0.9117 -0.2096
  200MOL0     C26273   1.764  10.078   9.993 -0.3032 -1.1297 -0.0561
  200MOL0     C26274   1.695  10.032  10.096 -0.9171  0.9476 -0.7424
  200MOL0     C26275   1.561  10.066  10.102  0.2841  0.6237 -0.5956
  200MOL0     O26276   1.470  10.009  10.188  0.4088 -0.8530  0.2296
  200MOL0     C26277   1.510   9.921  10.291 -0.7180 -0.5059 -1.5271
  200MOL0     C26278   1.380   9.904  10.375 -0.3538 -0.1738 -0.1820
  200MOL0     C26279   1.265   9.824  10.307  0.5639  0.5051  0.2890
  200MOL0     C26280   1.320   9.684  10.269 -0.8805  0.2273 -1.5418
  200MOL0     C26281   1.223   9.565  10.258 -0.2016 -0.7476  0.1596
  200MOL0     C26282   1.288   9.432  10.240 -0.5412  0.5406  0.0619
  200MOL0     C26283   1.351   9.414  10.101  0.2726  0.4727 -1.1396
  200MOL0     C26284   1.490   9.474  10.071  0.2720  0.4973  0.2924
  200MOL0     N26285   1.585   9.408  10.162 -0.4105  0.3371  0.1227
  200MOL0     C26286   1.630   9.279  10.153 -0.1257 -0.4147  0.5383
  200MOL0     C26287   1.729   9.279  10.246  0.5037 -0.5831 -0.2338
  200MOL0     C26288   1.820   9.160  10.277 -0.4503 -0.1503 -0.2081
  200MOL0     C26289   1.877   9.112  10.145  0.2719  0.0186  0.2112
  200MOL0     C26290   1.994   9.018  10.159  0.4770 -0.5842  0.8094
  200MOL0     C26291   2.060   8.980  10.023 -0.1066 -0.4632 -0.0111
  200MOL0     O26292   2.178   9.059   9.994 -0.6153  0.3763 -0.4197
  200MOL0     C26293   2.276   9.019   9.909  0.1209  0.3675 -0.9282
  200MOL0     C26294   2.245   8.915   9.807  0.1750 -0.3846 -1.0268
  200MOL0     C26295   2.346   8.877   9.717  0.1948  0.1262 -0.5110
  200MOL0     C26296   2.480   8.911   9.735  0.0997 -0.5533  0.5456
  200MOL0     C26297   2.584   8.859   9.648 -0.3955  0.5690 -0.0941
  200MOL0     O26298   2.715   8.911   9.655 -0.1962  0.0102  0.1065
  200MOL0     C26299   2.820   8.831   9.615  0.4488  0.2102 -0.2226
  200MOL0     C26300   2.838   8.794   9.475 -0.1260 -0.3772 -0.3548
  200MOL0     C26301   2.959   8.741   9.434  0.2837  0.3127 -0.0460
  200MOL0     C26302   3.059   8.716   9.527 -0.3291 -0.2732 -0.6015
  200MOL0     O26303   3.172   8.660   9.471  0.5112 -0.3468  0.0554
  200MOL0     C26304   3.216   8.526   9.492 -0.8857 -0.2230  0.1604
  200MOL0     C26305   3.136   8.442   9.383 -0.6500 -0.6466  1.5294
  200MOL0     C26306   3.175   8.295   9.408 -0.4092 -0.4604 -0.5760
  200MOL0     C26307   3.105   8.214   9.297 -0.0813  0.1752  0.1952
  200MOL0     C26308   3.111   8.062   9.314 -0.8471  0.3488 -0.5668
  200MOL0     C26309   3.036   7.991   9.212  0.2006  1.3331 -0.2240
  200MOL0     C26310   3.045   7.836   9.222  0.7474  0.1279 -0.4623
  200MOL0     C26311   3.000   7.755   9.097  0.1439  0.3948 -0.4221
  200MOL0    Cl26312   2.829   7.796   9.062  0.3753  0.0381  0.3215
  200MOL0     C26313   3.031   8.724   9.665  0.7715 -0.1433 -0.2878
  200MOL0     C26314   2.921   8.804   9.701 -0.0742 -0.7111 -0.3473
  200MOL0     O26315   2.557   8.753   9.598  0.9525  0.6377  0.1612
  200MOL0     C26316   2.512   9.003   9.841 -0.3549 -0.7697 -0.2959
  200MOL0     C26317   2.409   9.057   9.925 -0.4661  1.3650 -0.3314
  200MOL0     N26318   1.726   9.402  10.314  0.2410  0.2252 -0.3655
  200MOL0     N26319   1.641   9.479  10.253 -0.4745 -0.2217 -0.7003
  200MOL0     C26320   1.500  10.161  10.022 -0.5692  0.4742  1.0136
  200MOL0     C26321   1.574  10.208   9.913  0.1756  0.3224  0.5158
  200MOL0     C26322   1.887  10.359   9.639  1.0409 -0.0437 -0.4048
  200MOL0     C26323   1.942  10.255   9.564 -0.6915  0.8741 -0.1815
  200MOL0     C26324   2.028  10.284   9.449  1.1674  0.0179  0.9199
  200MOL0     C26325   2.073  10.414   9.425 -0.2691  0.0374 -0.0948
  200MOL0     O26326   2.155  10.425   9.312  0.2252  0.2820 -0.0787
  200MOL0     C26327   2.298  10.460   9.339 -0.2704  0.2473 -0.9315
  200MOL0     C26328   2.350  10.526   9.217  1.2680  0.1630  0.8911
  200MOL0     C26329   2.496  10.576   9.207 -0.8199  0.3961  0.1287
  200MOL0     C26330   2.512  10.656   9.082 -0.4582  0.3122 -0.0925
  200MOL0     C26331   2.653  10.698   9.054 -0.4613  0.3462 -0.2150
  200MOL0     C26332   2.761  10.737   9.017  0.5024 -1.2797 -0.5560
  200MOL0     C26333   2.026  10.515   9.513  0.1538  0.3264  1.1453
  200MOL0     C26334   1.917  10.492   9.596 -0.9130  0.2239  0.6015
  200MOL0     H26335   1.870  10.052   9.993  1.2141  3.7361  2.3476
  200MOL0     H26336   1.748   9.957  10.153 -1.6896 -0.1480 -1.4185
  200MOL0     H26337   1.585   9.972  10.354 -1.2916 -0.3562 -0.9539
  200MOL0     H26338   1.548   9.825  10.253 -2.0829 -0.6233 -2.6456
  200MOL0     H26339   1.349  10.004  10.407  4.9028  1.3206  1.2910
  200MOL0     H26340   1.408   9.852  10.467  1.3360 -1.4254 -1.3607
  200MOL0     H26341   1.216   9.865  10.219 -0.3565  2.1384  1.4976
  200MOL0     H26342   1.183   9.818  10.380  1.3385 -1.4066  1.0798
  200MOL0     H26343   1.382   9.702  10.180 -0.3780  2.9737 -0.7208
  200MOL0     H26344   1.389   9.654  10.349 -0.4609  1.1445 -1.5469
  200MOL0     H26345   1.147   9.582  10.182  0.7024 -0.0489 -0.6145
  200MOL0     H26346   1.172   9.550  10.354  0.9204  1.8582  1.2871
  200MOL0     H26347   1.206   9.361  10.247  0.0633 -0.3835 -1.6325
  200MOL0     H26348   1.365   9.417  10.316 -2.3656 -2.1750  1.5048
  200MOL0     H26349   1.368   9.306  10.103 -0.7056  0.2937  2.0083
  200MOL0     H26350   1.281   9.440  10.021  0.9137 -0.3451 -1.9823
  200MOL0     H26351   1.485   9.577  10.110 -0.5998  0.1290  1.1950
  200MOL0     H26352   1.520   9.464   9.966  0.1794  2.1784  0.0759
  200MOL0     H26353   1.610   9.197  10.085  0.1305 -1.1961  1.3825
  200MOL0     H26354   1.770   9.075  10.324  0.4031  0.7749  2.5695
  200MOL0     H26355   1.901   9.200  10.338  1.0539 -1.2045 -1.4594
  200MOL0     H26356   1.912   9.207  10.103  1.2527 -0.1318  0.6822
  200MOL0     H26357   1.797   9.072  10.082 -0.6539  4.2601 -1.6776
  200MOL0     H26358   2.065   9.076  10.218  0.3241 -3.3790  4.0441
  200MOL0     H26359   1.963   8.928  10.212 -2.0971 -2.7900 -3.7924
  200MOL0     H26360   1.992   8.990   9.937 -0.1009  0.5484  0.0891
  200MOL0     H26361   2.101   8.880  10.037  1.1890  0.2225  1.4795
  200MOL0     H26362   2.147   8.875   9.782  0.1990  0.2369 -2.2047
  200MOL0     H26363   2.329   8.812   9.632 -0.3990 -1.0363  0.4488
  200MOL0     H26364   2.758   8.810   9.403 -1.2085  1.8455  1.2435
  200MOL0     H26365   2.968   8.719   9.328 -3.4931 -1.2034 -0.1812
  200MOL0     H26366   3.213   8.479   9.591  0.6211 -3.5550 -1.2185
  200MOL0     H26367   3.319   8.541   9.459 -0.7950  1.0686  0.9644
  200MOL0     H26368   3.169   8.471   9.283  0.2698  1.3306  2.3559
  200MOL0     H26369   3.031   8.472   9.391 -1.9439 -3.6610 -1.3816
  200MOL0     H26370   3.135   8.261   9.504 -1.2218 -0.1963 -0.8132
  200MOL0     H26371   3.285   8.291   9.406 -0.0035  4.6185  0.3631
  200MOL0     H26372   2.996   8.229   9.298 -0.2061  0.0059 -2.5483
  200MOL0     H26373   3.135   8.252   9.199 -4.4704  1.6708 -0.7964
  200MOL0     H26374   3.075   8.038   9.415 -3.1943  0.9458 -1.2227
  200MOL0     H26375   3.213   8.021   9.307 -0.4302  1.1396  0.5295
  200MOL0     H26376   3.077   8.021   9.115 -1.2021  0.3425 -1.1625
  200MOL0     H26377   2.931   8.022   9.216  0.3254  1.8245 -0.6081
  200MOL0     H26378   3.147   7.800   9.240  1.1085  0.7769 -1.1742
  200MOL0     H26379   2.977   7.802   9.302  1.0623 -0.8036 -0.5750
  200MOL0     H26380   3.015   7.648   9.116 -2.9197 -0.1337 -0.4749
  200MOL0     H26381   3.065   7.792   9.017 -0.3078  0.6638 -0.6701
  200MOL0     H26382   3.094   8.685   9.743  0.0193 -1.2204 -0.1965
  200MOL0     H26383   2.900   8.842   9.801  2.0705 -2.4824  0.8450
  200MOL0     H26384   2.617   9.029   9.854 -0.2825 -1.3967  0.4884
  200MOL0     H26385   2.440   9.127  10.002 -1.2240  0.2551  1.0307
  200MOL0     H26386   1.395  10.187  10.023 -2.0406 -4.2396 -1.2855
  200MOL0     H26387   1.521  10.279   9.850  1.0242 -0.7674 -1.5104
  200MOL0     H26388   1.937  10.151   9.595  2.0569  0.8887  0.6038
  200MOL0     H26389   2.070  10.202   9.392 -1.1874 -1.5696  1.3263
  200MOL0     H26390   2.362  10.379   9.375 -0.4146  0.0613 -1.0897
  200MOL0     H26391   2.303  10.531   9.422 -1.2551  3.1276 -3.1898
  200MOL0     H26392   2.322  10.462   9.133  0.5352  1.5315  0.0568
  200MOL0     H26393   2.285  10.614   9.207 -3.0300 -2.6678  1.0312
  200MOL0     H26394   2.559  10.486   9.206 -0.4093  0.6132 -2.7739
  200MOL0     H26395   2.518  10.644   9.289  0.1198  1.9659 -1.3379
  200MOL0     H26396   2.477  10.589   9.003 -4.1619  2.3761 -0.4371
  200MOL0     H26397   2.447  10.744   9.074 -1.7723 -0.6758 -0.7043
  200MOL0     H26398   2.862  10.772   9.012 -0.2140  1.0410  0.1379
  200MOL0     H26399   2.076  10.609   9.491  2.2613 -1.5690 -3.8161
  200MOL0     H26400   1.883  10.577   9.654 -1.0899 -1.8989  3.8836
  201MOL0     O26401  10.702   0.217   6.399  0.6651  0.3854 -0.1601
  201MOL0     C26402  10.697   0.166   6.289 -0.5048 -0.2960  0.3072
  201MOL0     O26403  10.686   0.036   6.269 -0.2059 -0.1547 -0.5020
  201MOL0     C26404  10.678  -0.048   6.385 -0.1345 -1.2552  0.0505
  201MOL0     C26405  10.790  -0.089   6.464 -0.1130 -0.6399  0.1152
  201MOL0     C26406  10.778  -0.178   6.579  0.0011 -0.7822  0.3025
  201MOL0     C26407  10.649  -0.229   6.600 -0.3416  0.1002  0.5504
  201MOL0     O26408  10.623  -0.331   6.689 -1.0194 -0.0086 -0.6324
  201MOL0     C26409  10.729  -0.392   6.763  0.1065 -0.9613 -0.1596
  201MOL0     C26410  10.684  -0.502   6.865 -0.0165 -0.3325 -0.1011
  201MOL0     C26411  10.545  -0.476   6.931 -0.5641 -0.1342 -0.4101
  201MOL0     C26412  10.537  -0.352   7.029 -0.0897  0.4337  1.2645
  201MOL0     C26413  10.396  -0.370   7.099  0.2714  0.4882  0.1062
  201MOL0     C26414  10.355  -0.244   7.172 -0.5261 -0.9661 -0.6941
  201MOL0     C26415  10.207  -0.252   7.212 -0.9411 -0.8006  0.2932
  201MOL0     C26416  10.162  -0.141   7.309  0.0624 -0.6962  0.2510
  201MOL0     N26417  10.018  -0.122   7.321  0.2412  0.5817 -0.9950
  201MOL0     C26418   9.924  -0.079   7.225  0.4201 -0.1272 -0.6457
  201MOL0     C26419   9.804  -0.104   7.270 -0.3091 -0.2900 -0.2152
  201MOL0     C26420   9.676  -0.049   7.208  0.2631 -0.4513 -0.1650
  201MOL0     C26421   9.680   0.095   7.135 -0.1738 -0.0774  0.4749
  201MOL0     C26422   9.550   0.139   7.064 -0.4765 -0.1785 -0.1089
  201MOL0     C26423   9.499   0.049   6.949 -0.7020 -0.5573 -0.0145
  201MOL0     O26424   9.606   0.031   6.862 -0.1798 -0.2202  0.1640
  201MOL0     C26425   9.592  -0.053   6.763  1.2253 -0.1987  0.7145
  201MOL0     C26426   9.687  -0.035   6.663  0.1531  0.0856 -0.3793
  201MOL0     C26427   9.698  -0.115   6.548  0.6725 -0.2260  0.3689
  201MOL0     C26428   9.614  -0.226   6.531  0.9633 -0.6644  0.0984
  201MOL0     C26429   9.625  -0.316   6.416  0.5718  0.5339  0.6613
  201MOL0     O26430   9.529  -0.406   6.398 -0.1528 -0.6686 -0.1035
  201MOL0     C26431   9.551  -0.502   6.302 -0.1546  0.1640  1.0178
  201MOL0     C26432   9.579  -0.643   6.332 -0.2788  0.0399 -0.6972
  201MOL0     C26433   9.609  -0.734   6.227  0.3048 -0.4405  0.0077
  201MOL0     C26434   9.597  -0.696   6.090  0.3556 -0.2371  0.4345
  201MOL0     O26435   9.631  -0.766   5.981  0.6020 -0.8517 -0.0346
  201MOL0     C26436   9.637  -0.904   5.996  0.3170  0.7556  0.6415
  201MOL0     C26437   9.685  -0.975   5.868  0.0739  0.3178  0.5286
  201MOL0     C26438   9.707  -1.126   5.877  0.0125  0.5453  0.1632
  201MOL0     C26439   9.587  -1.215   5.915  0.5043  1.7851 -0.2153
  201MOL0     C26440   9.475  -1.220   5.810  0.3949  0.0829 -0.9372
  201MOL0     C26441   9.373  -1.319   5.854  0.3405  0.5721  0.7879
  201MOL0     C26442   9.249  -1.313   5.761  0.4043 -0.1499 -0.3589
  201MOL0     C26443   9.201  -1.452   5.740  0.6888 -0.0875 -0.1223
  201MOL0    Cl26444   9.034  -1.434   5.648 -0.4847 -0.5378  0.6069
  201MOL0     C26445   9.555  -0.564   6.062 -1.0961 -0.6309  0.4879
  201MOL0     C26446   9.549  -0.470   6.166  0.4447  0.3955 -0.0105
  201MOL0     O26447   9.722  -0.302   6.336  0.4585  0.1147 -0.4947
  201MOL0     C26448   9.522  -0.250   6.633 -0.1076  0.7370  0.2464
  201MOL0     C26449   9.506  -0.167   6.740 -0.1887  0.0290 -0.7877
  201MOL0     N26450   9.812  -0.152   7.401 -0.8430  0.0806 -0.0154
  201MOL0     N26451   9.940  -0.154   7.427  0.3377  0.8011  0.3999
  201MOL0     C26452  10.542  -0.195   6.524 -0.3360  0.2536  0.3653
  201MOL0     C26453  10.549  -0.108   6.413 -0.5969  1.0055  0.4711
  201MOL0     C26454  10.704   0.259   6.175  0.0561 -0.9921  0.6005
  201MOL0     C26455  10.757   0.387   6.203  1.2293 -0.0280  0.6019
  201MOL0     C26456  10.795   0.472   6.090  0.1904  1.1695  0.5597
  201MOL0     C26457  10.787   0.433   5.961  0.1484 -0.0147 -0.5857
  201MOL0     O26458  10.834   0.510   5.853 -0.0620 -0.1158  0.0001
  201MOL0     C26459  10.892   0.639   5.874 -0.6542 -0.1155 -0.4955
  201MOL0     C26460  10.933   0.712   5.743  0.0441  0.1650 -0.2144
  201MOL0     C26461  10.982   0.622   5.623 -0.5877  0.5425 -0.0897
  201MOL0     C26462  10.992   0.690   5.481 -0.1245  0.1552 -0.6912
  201MOL0     C26463  11.074   0.814   5.489  0.0306  0.1957  0.6260
  201MOL0     C26464  11.145   0.909   5.512 -0.1140 -0.0423  0.3501
  201MOL0     C26465  10.734   0.305   5.934  0.7387  0.8768  0.8727
  201MOL0     C26466  10.687   0.224   6.044  0.2659  0.3678 -0.1404
  201MOL0     H26467  10.884  -0.040   6.442  0.6168 -1.5696  1.0956
  201MOL0     H26468  10.870  -0.217   6.622  0.1834 -1.3980 -0.6205
  201MOL0     H26469  10.781  -0.311   6.815 -2.4987  1.2105 -0.6743
  201MOL0     H26470  10.791  -0.450   6.694 -0.7908 -3.0341  0.6740
  201MOL0     H26471  10.765  -0.501   6.939 -0.2349 -0.2317  0.1374
  201MOL0     H26472  10.672  -0.595   6.810 -0.5087 -0.1631 -0.2849
  201MOL0     H26473  10.523  -0.565   6.991  0.6224  0.1417  0.4756
  201MOL0     H26474  10.473  -0.460   6.850 -3.5717 -2.2977  1.6268
  201MOL0     H26475  10.625  -0.363   7.093  0.0111 -3.1300  0.7243
  201MOL0     H26476  10.545  -0.258   6.973  0.9594  0.6388  1.7366
  201MOL0     H26477  10.417  -0.440   7.180 -3.2799 -3.5088 -2.0213
  201MOL0     H26478  10.319  -0.420   7.040  0.8836 -1.5180  0.9275
  201MOL0     H26479  10.371  -0.151   7.117  2.6780  0.4766  2.3260
  201MOL0     H26480  10.416  -0.242   7.263  2.6719 -1.4343 -2.6722
  201MOL0     H26481  10.147  -0.236   7.122  1.1446 -1.1121 -1.2213
  201MOL0     H26482  10.175  -0.342   7.265  0.8610 -0.1259  2.7512
  201MOL0     H26483  10.197  -0.044   7.272 -0.9689 -0.1093  0.7655
  201MOL0     H26484  10.201  -0.160   7.409 -3.1073 -0.0359  1.7477
  201MOL0     H26485   9.948  -0.033   7.130 -0.4251  0.6374 -0.5027
  201MOL0     H26486   9.603  -0.043   7.290  0.6799  0.0896  0.1760
  201MOL0     H26487   9.642  -0.128   7.141 -0.9067 -1.4055  1.4589
  201MOL0     H26488   9.753   0.087   7.054 -0.4226  1.3048  0.0760
  201MOL0     H26489   9.712   0.173   7.206 -3.7368  0.4255  1.7703
  201MOL0     H26490   9.468   0.138   7.136  1.0151 -0.7014  1.6562
  201MOL0     H26491   9.562   0.239   7.021 -0.5718 -0.0339  0.1958
  201MOL0     H26492   9.412   0.099   6.905 -0.2674  1.7307  1.5962
  201MOL0     H26493   9.470  -0.050   6.985 -0.5687 -1.1029 -1.3244
  201MOL0     H26494   9.764   0.036   6.691  0.8130 -0.5902 -0.4587
  201MOL0     H26495   9.774  -0.090   6.475  1.0490  1.7906  1.3548
  201MOL0     H26496   9.592  -0.655   6.439  0.0159  1.6489 -0.5259
  201MOL0     H26497   9.629  -0.837   6.257  1.7554 -0.9444 -2.3715
  201MOL0     H26498   9.540  -0.951   6.017  1.0034 -2.1899 -2.0205
  201MOL0     H26499   9.701  -0.932   6.080 -0.0348 -0.2813  0.5822
  201MOL0     H26500   9.780  -0.928   5.838 -0.4044  1.0607  0.1619
  201MOL0     H26501   9.606  -0.966   5.793 -1.4023  1.0617  2.1298
  201MOL0     H26502   9.787  -1.141   5.950 -1.3610  3.2921  2.4179
  201MOL0     H26503   9.742  -1.169   5.783 -0.6076 -0.9622  0.5787
  201MOL0     H26504   9.629  -1.315   5.929 -1.4223  1.2538  2.5056
  201MOL0     H26505   9.543  -1.195   6.013  0.1926 -0.9229  0.2935
  201MOL0     H26506   9.512  -1.259   5.715 -0.2435 -0.0565 -1.1391
  201MOL0     H26507   9.424  -1.123   5.805  0.5479  0.1494 -1.2744
  201MOL0     H26508   9.341  -1.320   5.959  0.0059  1.0219  0.6959
  201MOL0     H26509   9.433  -1.408   5.836 -0.9631  0.0983 -1.6659
  201MOL0     H26510   9.176  -1.243   5.802 -1.4108 -1.2253 -1.6021
  201MOL0     H26511   9.283  -1.265   5.670  0.8261 -0.5131 -0.3966
  201MOL0     H26512   9.177  -1.494   5.838  0.9683  2.5887  1.1998
  201MOL0     H26513   9.284  -1.497   5.686  0.7870  0.0926 -0.1229
  201MOL0     H26514   9.538  -0.529   5.961 -2.1046  2.1461  1.5254
  201MOL0     H26515   9.518  -0.374   6.125 -0.7567 -0.0876 -0.2676
  201MOL0     H26516   9.467  -0.344   6.627 -2.0788  1.6450  2.3192
  201MOL0     H26517   9.432  -0.186   6.818  2.5280  0.9590  2.2385
  201MOL0     H26518  10.447  -0.243   6.547  0.2777  0.0735  2.7999
  201MOL0     H26519  10.452  -0.081   6.373 -0.3344  0.1116 -0.8472
  201MOL0     H26520  10.780   0.426   6.301 -3.8326  2.8074  0.9925
  201MOL0     H26521  10.838   0.568   6.115  1.3990  0.3993  1.6001
  201MOL0     H26522  10.987   0.627   5.928 -1.3627  3.1186  1.7625
  201MOL0     H26523  10.827   0.700   5.937  1.0880 -0.1453  1.4423
  201MOL0     H26524  10.850   0.766   5.695 -2.3085 -1.9284  1.2354
  201MOL0     H26525  11.006   0.786   5.776  0.1509 -0.3760  0.8201
  201MOL0     H26526  10.910   0.540   5.609  0.9427 -1.0206  0.7272
  201MOL0     H26527  11.082   0.596   5.659  0.0027  2.1652 -0.4888
  201MOL0     H26528  11.045   0.615   5.422 -1.8035 -2.4157  0.8940
  201MOL0     H26529  10.887   0.708   5.455  0.0277  1.9172 -0.2178
  201MOL0     H26530  11.219   0.985   5.530 -2.0485  1.6609  1.6513
  201MOL0     H26531  10.718   0.281   5.829 -0.9191  2.1159  0.7835
  201MOL0     H26532  10.648   0.123   6.033 -0.3810  0.7346 -1.3833
  202MOL0     O26533   6.408   6.909   9.737  0.1141 -0.5040  0.2577
  202MOL0     C26534   6.347   7.007   9.791  0.9665 -0.3992  0.1780
  202MOL0     O26535   6.227   7.058   9.747  0.0683 -0.3470 -0.3684
  202MOL0     C26536   6.176   7.014   9.628 -0.1756  0.0337  1.5800
  202MOL0     C26537   6.205   7.084   9.513  0.5156 -0.6426 -0.0795
  202MOL0     C26538   6.159   7.044   9.385 -0.6035  0.8073  0.0074
  202MOL0     C26539   6.085   6.932   9.374 -0.3408  0.6793  0.4528
  202MOL0     O26540   6.039   6.877   9.253  0.2358  0.1608 -0.3908
  202MOL0     C26541   6.046   6.948   9.126 -0.0959 -0.0269 -0.2520
  202MOL0     C26542   6.006   6.842   9.033 -0.9716  0.9499  1.5014
  202MOL0     C26543   5.993   6.895   8.893 -1.1073 -0.0316  1.0952
  202MOL0     C26544   5.901   6.819   8.807 -0.5016  0.1517  0.1864
  202MOL0     C26545   5.913   6.855   8.656 -0.4322  0.0385  0.2318
  202MOL0     C26546   5.786   6.796   8.574 -0.1982  0.3136 -0.1424
  202MOL0     C26547   5.797   6.819   8.424 -0.1750  0.2366  0.3638
  202MOL0     C26548   5.927   6.766   8.359  1.0663 -0.2365 -0.8859
  202MOL0     N26549   6.018   6.878   8.319 -0.8859  1.3219 -1.2418
  202MOL0     C26550   6.147   6.906   8.375 -0.4896  0.1694  0.6922
  202MOL0     C26551   6.175   7.034   8.345 -0.3912  0.9175 -0.4199
  202MOL0     C26552   6.303   7.109   8.370 -1.7740 -0.6554 -0.0735
  202MOL0     C26553   6.329   7.146   8.516  0.1920  0.3179 -0.3795
  202MOL0     C26554   6.378   7.017   8.602  0.5908  0.0888  0.0667
  202MOL0     C26555   6.434   7.051   8.738 -0.5046 -0.2393 -0.0327
  202MOL0     O26556   6.322   7.100   8.808 -0.1641 -0.7155 -1.2969
  202MOL0     C26557   6.294   7.236   8.811  0.1773  0.6290  0.3359
  202MOL0     C26558   6.180   7.269   8.890  0.5134  1.2127  1.4514
  202MOL0     C26559   6.146   7.400   8.910  0.7632  0.3348 -0.9303
  202MOL0     C26560   6.222   7.512   8.862 -0.1783  0.3302  0.5876
  202MOL0     C26561   6.174   7.642   8.861 -0.1886 -0.0084 -0.9485
  202MOL0     O26562   6.256   7.729   8.789  0.2892 -0.0440 -0.0955
  202MOL0     C26563   6.215   7.857   8.803 -0.8731 -0.2908 -0.8143
  202MOL0     C26564   6.267   7.938   8.895  0.4496  0.9740  0.6452
  202MOL0     C26565   6.260   8.079   8.889  1.3293 -0.1521  0.1146
  202MOL0     C26566   6.195   8.140   8.782 -0.5508  0.3121  1.1011
  202MOL0     O26567   6.181   8.277   8.784  0.2509  0.9819  0.2832
  202MOL0     C26568   6.231   8.333   8.664 -0.1896  0.3209 -0.1642
  202MOL0     C26569   6.260   8.486   8.673  0.4420 -0.0302 -0.2555
  202MOL0     C26570   6.343   8.520   8.803  0.5312 -0.0545 -0.4779
  202MOL0     C26571   6.388   8.666   8.791 -0.0960 -0.7446 -0.1821
  202MOL0     C26572   6.507   8.689   8.697  0.9690 -0.5071  0.1661
  202MOL0     C26573   6.586   8.817   8.731  0.4522 -0.3596 -0.2704
  202MOL0     C26574   6.713   8.842   8.641  0.4248  0.6645 -0.0241
  202MOL0     C26575   6.774   8.981   8.663 -0.6988  1.0960  0.2395
  202MOL0    Cl26576   6.946   8.975   8.590 -0.2238 -0.2983 -0.0591
  202MOL0     C26577   6.134   8.058   8.684  0.4818 -0.4285 -0.4373
  202MOL0     C26578   6.146   7.916   8.699 -0.3315  0.1147  1.2405
  202MOL0     O26579   6.068   7.672   8.926  0.2733  0.4539  0.3652
  202MOL0     C26580   6.343   7.472   8.793  0.5176 -0.1300  0.3836
  202MOL0     C26581   6.381   7.339   8.767  0.6543  0.3214 -0.9370
  202MOL0     N26582   6.064   7.084   8.280  0.0837  0.1805 -0.6395
  202MOL0     N26583   5.978   6.991   8.262 -0.1894 -0.7105 -0.0406
  202MOL0     C26584   6.052   6.855   9.493  0.6268 -1.4243  0.6125
  202MOL0     C26585   6.089   6.909   9.625  0.5293  0.4082  0.1277
  202MOL0     C26586   6.403   7.053   9.917  0.2990 -0.3767  0.4038
  202MOL0     C26587   6.380   7.184   9.968  0.1648  0.3379  0.1430
  202MOL0     C26588   6.420   7.212  10.098 -0.4196  0.7662  0.0833
  202MOL0     C26589   6.488   7.112  10.178  0.2975 -0.4925 -0.1705
  202MOL0     O26590   6.538   7.159  10.299  0.0153  0.3382 -0.3710
  202MOL0     C26591   6.576   7.074  10.403  0.6717  0.5460 -0.1598
  202MOL0     C26592   6.548   7.146  10.540 -0.7208 -0.1980  0.4550
  202MOL0     C26593   6.399   7.166  10.584  0.6734  0.9839 -0.2929
  202MOL0     C26594   6.325   7.260  10.494  0.1997 -0.3616 -0.7006
  202MOL0     C26595   6.370   7.401  10.516  0.5880 -0.8326  0.2525
  202MOL0     C26596   6.402   7.515  10.527  0.5091 -0.2415  0.9776
  202MOL0     C26597   6.519   6.988  10.125 -0.3444  0.6738  0.0972
  202MOL0     C26598   6.467   6.960   9.997 -1.4270 -0.6749 -0.0107
  202MOL0     H26599   6.259   7.178   9.522 -2.1845  1.1395 -1.2036
  202MOL0     H26600   6.185   7.105   9.298 -4.8711  1.1810 -1.2427
  202MOL0     H26601   6.148   6.978   9.100  0.6340 -0.0881  2.2188
  202MOL0     H26602   5.994   7.044   9.127 -2.5224 -1.1709 -2.9128
  202MOL0     H26603   5.906   6.803   9.048 -0.4820 -0.9205  0.2510
  202MOL0     H26604   6.072   6.755   9.031 -1.8422  0.2117 -1.7420
  202MOL0     H26605   6.091   6.902   8.844 -0.6333 -2.0184  1.6854
  202MOL0     H26606   5.956   6.998   8.892 -0.3540  0.2495 -0.3229
  202MOL0     H26607   5.922   6.712   8.805  0.0179  0.0789  3.8081
  202MOL0     H26608   5.803   6.848   8.845  0.8630  1.9965  2.6026
  202MOL0     H26609   6.005   6.814   8.614  0.4316  0.8936  1.2364
  202MOL0     H26610   5.928   6.963   8.649  1.7970 -0.1923  0.7010
  202MOL0     H26611   5.694   6.832   8.620  1.1970  1.9975  1.4483
  202MOL0     H26612   5.791   6.687   8.582  2.2897  0.3062 -0.7409
  202MOL0     H26613   5.716   6.756   8.385  1.2766 -2.2220  1.0959
  202MOL0     H26614   5.762   6.916   8.387 -0.3099 -1.2800 -4.2213
  202MOL0     H26615   5.900   6.706   8.271 -4.4526 -1.1012  1.0085
  202MOL0     H26616   5.994   6.700   8.415  3.4180  3.6857  1.3894
  202MOL0     H26617   6.210   6.829   8.417  0.1675 -0.7885 -1.9089
  202MOL0     H26618   6.294   7.194   8.301  0.4517 -0.4630 -0.1992
  202MOL0     H26619   6.390   7.053   8.334 -0.9941  1.1837 -1.2175
  202MOL0     H26620   6.239   7.197   8.548 -1.0518 -1.2049 -1.2744
  202MOL0     H26621   6.406   7.224   8.513  1.5071 -0.9063  0.0508
  202MOL0     H26622   6.284   6.962   8.609 -1.7630  3.6826 -0.4200
  202MOL0     H26623   6.460   6.969   8.548 -1.6365 -3.5699 -0.3815
  202MOL0     H26624   6.529   7.106   8.739 -1.7288  2.0454 -1.2895
  202MOL0     H26625   6.470   6.963   8.792  3.3496 -0.5186 -2.6477
  202MOL0     H26626   6.128   7.182   8.930  2.6713  0.1278  2.0701
  202MOL0     H26627   6.051   7.416   8.960  2.1680 -0.4271  2.1856
  202MOL0     H26628   6.329   7.902   8.977  2.0437  0.6562 -0.6547
  202MOL0     H26629   6.303   8.140   8.968 -0.0192  0.0859  0.7098
  202MOL0     H26630   6.161   8.330   8.580  2.6069  0.8144 -2.7054
  202MOL0     H26631   6.320   8.285   8.621  0.0446 -0.9382  1.6291
  202MOL0     H26632   6.167   8.542   8.659  0.3771  1.4522  4.4810
  202MOL0     H26633   6.321   8.512   8.586 -3.2820  0.4341 -2.9871
  202MOL0     H26634   6.430   8.454   8.808  0.7060  0.2500  0.4903
  202MOL0     H26635   6.277   8.500   8.887 -0.5413  2.2292 -0.7051
  202MOL0     H26636   6.300   8.724   8.761 -1.0704 -0.8350  2.2077
  202MOL0     H26637   6.418   8.703   8.889  1.1881 -4.0817  0.8415
  202MOL0     H26638   6.481   8.706   8.592  0.7746 -2.3867 -0.1356
  202MOL0     H26639   6.575   8.604   8.713  0.2708 -0.7976  1.7844
  202MOL0     H26640   6.617   8.827   8.835  1.5547 -0.0954 -0.6135
  202MOL0     H26641   6.510   8.895   8.715  2.2103  1.1851 -1.6525
  202MOL0     H26642   6.787   8.765   8.666  0.0491  0.3439  0.1161
  202MOL0     H26643   6.691   8.827   8.534  1.2392 -0.7147 -0.0191
  202MOL0     H26644   6.766   8.995   8.772 -1.7129  0.1498  0.3051
  202MOL0     H26645   6.721   9.060   8.609 -0.4975 -0.3979 -2.3111
  202MOL0     H26646   6.076   8.088   8.598  2.1837 -0.2704 -1.5872
  202MOL0     H26647   6.111   7.867   8.609  0.3262 -0.5892  1.3512
  202MOL0     H26648   6.418   7.538   8.751  2.3729 -1.4836  1.3986
  202MOL0     H26649   6.475   7.325   8.716  1.9522 -1.0240  1.6409
  202MOL0     H26650   5.991   6.767   9.477 -0.4706 -0.5746 -0.0842
  202MOL0     H26651   6.058   6.863   9.717 -0.6958  2.4359  0.8013
  202MOL0     H26652   6.331   7.253   9.900 -2.6920 -1.3693  0.3108
  202MOL0     H26653   6.415   7.308  10.148  1.5229  1.1051 -0.2958
  202MOL0     H26654   6.684   7.056  10.400  0.4672 -0.7704 -0.1265
  202MOL0     H26655   6.534   6.974  10.395 -0.2041  1.0659 -3.2131
  202MOL0     H26656   6.612   7.100  10.616 -1.6099 -2.3028  0.0145
  202MOL0     H26657   6.582   7.250  10.531  0.0064 -0.4379  0.3277
  202MOL0     H26658   6.391   7.190  10.691  0.4958  0.3632 -0.1624
  202MOL0     H26659   6.338   7.076  10.573  0.8273  1.0168 -1.5619
  202MOL0     H26660   6.331   7.235  10.387 -1.1014  0.4457 -0.9890
  202MOL0     H26661   6.224   7.261  10.535  0.7738 -2.4477  0.8696
  202MOL0     H26662   6.417   7.621  10.539 -0.0193 -0.1669  0.9753
  202MOL0     H26663   6.588   6.923  10.178  1.0144  1.0276 -1.1681
  202MOL0     H26664   6.485   6.861   9.957  0.2519 -0.4392  0.0863
  203MOL0     O26665   8.578   6.794   2.239 -0.7237  0.0917 -0.0480
  203MOL0     C26666   8.510   6.692   2.249  0.3381  0.7167 -0.7264
  203MOL0     O26667   8.420   6.647   2.159  0.3813  0.1944 -0.3806
  203MOL0     C26668   8.364   6.727   2.058  0.0756  0.1610 -1.2833
  203MOL0     C26669   8.290   6.664   1.955  0.5805  0.6115 -0.8997
  203MOL0     C26670   8.224   6.735   1.850  0.7204 -0.2549 -0.5224
  203MOL0     C26671   8.236   6.871   1.844  0.3870 -0.6018  0.4084
  203MOL0     O26672   8.153   6.943   1.759 -0.0809 -0.3637 -0.1002
  203MOL0     C26673   8.226   7.024   1.659  0.2753  0.4786  0.2673
  203MOL0     C26674   8.123   7.056   1.547  0.3272  0.8928  0.1364
  203MOL0     C26675   8.167   7.156   1.447 -0.0597  0.8450  0.1936
  203MOL0     C26676   8.055   7.196   1.353  0.6391  0.7615 -0.6598
  203MOL0     C26677   8.100   7.273   1.219 -1.0823 -0.7335 -0.3785
  203MOL0     C26678   8.206   7.216   1.131 -1.0837 -0.4829  0.4118
  203MOL0     C26679   8.167   7.098   1.044  0.4557  0.8902  0.6774
  203MOL0     C26680   8.137   7.135   0.902  0.0135 -0.4426  0.8651
  203MOL0     N26681   8.240   7.213   0.826 -0.2377 -0.1683  0.1994
  203MOL0     C26682   8.236   7.346   0.802  0.0375 -0.2455  0.5474
  203MOL0     C26683   8.308   7.354   0.687 -0.6463  0.3622 -0.1452
  203MOL0     C26684   8.310   7.492   0.634 -0.3567 -0.4141 -0.0073
  203MOL0     C26685   8.179   7.546   0.568 -0.3187 -0.2909 -0.3194
  203MOL0     C26686   8.072   7.611   0.655 -0.9413  0.2909 -0.7089
  203MOL0     C26687   8.110   7.719   0.753 -0.1321 -0.5251 -0.5695
  203MOL0     O26688   8.124   7.670   0.888  0.6008 -0.1555  0.2803
  203MOL0     C26689   8.010   7.656   0.961  0.4442  0.0006 -0.0835
  203MOL0     C26690   8.030   7.596   1.088 -0.4292 -0.8111 -1.1582
  203MOL0     C26691   7.928   7.562   1.172  0.5448  1.1062 -0.1780
  203MOL0     C26692   7.791   7.577   1.130  0.4832  0.3707 -0.3362
  203MOL0     C26693   7.686   7.540   1.222 -0.7679  0.4624  0.2261
  203MOL0     O26694   7.564   7.567   1.193  0.3409  0.0748 -0.3177
  203MOL0     C26695   7.461   7.527   1.276  0.0935 -0.9708 -0.9581
  203MOL0     C26696   7.444   7.392   1.311 -0.1555 -0.6148 -0.0151
  203MOL0     C26697   7.347   7.352   1.403 -1.3520 -1.0523 -0.3770
  203MOL0     C26698   7.261   7.448   1.461  0.8074 -0.1409  0.0075
  203MOL0     O26699   7.169   7.407   1.553  1.0832 -0.0006  0.7579
  203MOL0     C26700   7.153   7.266   1.581 -0.6389 -0.4603 -0.7877
  203MOL0     C26701   7.036   7.265   1.676  0.3322 -0.5422  0.9156
  203MOL0     C26702   6.898   7.262   1.609  0.6212  0.0075  0.4448
  203MOL0     C26703   6.789   7.199   1.695 -1.1078  0.2377 -0.2013
  203MOL0     C26704   6.655   7.209   1.620  0.9123  0.1201  0.2442
  203MOL0     C26705   6.549   7.138   1.699 -0.4221  0.9346 -0.1581
  203MOL0     C26706   6.408   7.188   1.640  0.2590 -0.6337  0.4388
  203MOL0     C26707   6.299   7.161   1.738 -0.3690  0.6112 -0.8382
  203MOL0    Cl26708   6.281   6.994   1.775 -0.1173 -0.0108  0.0960
  203MOL0     C26709   7.277   7.577   1.432 -0.4950  0.1877 -0.4329
  203MOL0     C26710   7.367   7.622   1.335 -0.0172  0.3798 -0.5301
  203MOL0     O26711   7.724   7.469   1.311 -0.7156  0.4723  0.9388
  203MOL0     C26712   7.761   7.618   1.000  0.0331 -0.4894  0.1448
  203MOL0     C26713   7.873   7.662   0.918 -0.0250 -0.0679  0.6924
  203MOL0     N26714   8.373   7.241   0.655 -0.7424  0.8159  0.2126
  203MOL0     N26715   8.330   7.156   0.740 -0.5407  0.0400 -0.0999
  203MOL0     C26716   8.306   6.934   1.948 -0.0394 -0.1191 -0.0737
  203MOL0     C26717   8.367   6.867   2.059  0.1765  0.8238 -0.4941
  203MOL0     C26718   8.539   6.605   2.372  0.3435  0.2575  0.2230
  203MOL0     C26719   8.439   6.508   2.410  0.3820  1.2177  0.3305
  203MOL0     C26720   8.447   6.442   2.528  0.5173  0.7024  0.5702
  203MOL0     C26721   8.554   6.475   2.612  1.0726 -0.2277 -0.5479
  203MOL0     O26722   8.577   6.421   2.740 -0.1239 -0.8906  0.4536
  203MOL0     C26723   8.464   6.393   2.822  1.3111 -0.5198  0.6202
  203MOL0     C26724   8.492   6.443   2.966 -0.1559 -0.3421  0.6009
  203MOL0     C26725   8.371   6.418   3.060 -0.2320  0.1017  0.2039
  203MOL0     C26726   8.366   6.501   3.196 -0.4639 -0.5780 -0.1624
  203MOL0     C26727   8.349   6.642   3.171 -0.2209 -0.9283  1.0403
  203MOL0     C26728   8.357   6.769   3.170  0.3391  0.0040  1.5867
  203MOL0     C26729   8.658   6.565   2.580 -0.2120 -0.8742  0.4800
  203MOL0     C26730   8.645   6.630   2.464 -0.2820 -0.8077  0.5245
  203MOL0     H26731   8.271   6.559   1.975  0.8709  0.5134 -1.1318
  203MOL0     H26732   8.163   6.676   1.783  0.0681  0.3125 -0.4346
  203MOL0     H26733   8.315   6.974   1.621  0.1498  0.2313  0.2981
  203MOL0     H26734   8.254   7.122   1.698  0.1829  0.4963  0.2909
  203MOL0     H26735   8.046   7.099   1.612  0.2221  2.0044 -0.6992
  203MOL0     H26736   8.091   6.965   1.497  0.5837  0.8830 -0.0094
  203MOL0     H26737   8.252   7.106   1.400 -1.7228 -1.3935 -0.6401
  203MOL0     H26738   8.208   7.248   1.489  1.9100 -1.4540  3.8409
  203MOL0     H26739   7.992   7.109   1.334  1.4714 -0.2010  0.8472
  203MOL0     H26740   7.996   7.273   1.403 -0.1893  0.5972 -1.3670
  203MOL0     H26741   8.144   7.368   1.249  1.6709 -1.5727 -1.4835
  203MOL0     H26742   8.023   7.291   1.144 -3.1150  0.4150  1.8333
  203MOL0     H26743   8.290   7.186   1.194  0.0403 -0.0298 -0.8165
  203MOL0     H26744   8.234   7.301   1.068 -0.9321  0.4802  1.7415
  203MOL0     H26745   8.255   7.032   1.044 -0.4846 -0.4071  0.0949
  203MOL0     H26746   8.086   7.043   1.094  0.2935 -1.5917 -2.0396
  203MOL0     H26747   8.036   7.176   0.889 -0.3314 -0.9862  1.6766
  203MOL0     H26748   8.113   7.040   0.852 -0.5473 -0.6885  1.5706
  203MOL0     H26749   8.167   7.420   0.841 -2.2619 -2.4503  0.9937
  203MOL0     H26750   8.382   7.481   0.552 -0.6478 -0.5914 -0.2391
  203MOL0     H26751   8.345   7.568   0.705 -0.4893 -2.5009  2.4320
  203MOL0     H26752   8.137   7.469   0.502  2.5572 -0.7796 -1.7250
  203MOL0     H26753   8.210   7.629   0.503 -2.3629  0.0130 -1.0054
  203MOL0     H26754   8.001   7.662   0.589  2.0211  1.9278 -2.8787
  203MOL0     H26755   8.018   7.538   0.715  3.1602 -0.6828  2.2169
  203MOL0     H26756   8.034   7.797   0.743  2.9562  3.1053  1.6101
  203MOL0     H26757   8.206   7.759   0.721  0.6546 -2.9904 -1.5292
  203MOL0     H26758   8.135   7.579   1.114 -1.1038 -1.3695  1.5438
  203MOL0     H26759   7.961   7.540   1.274  1.4837  1.4534 -0.3946
  203MOL0     H26760   7.506   7.312   1.272  0.3513 -1.1463  1.7573
  203MOL0     H26761   7.341   7.250   1.437 -0.0919 -1.5763 -1.5998
  203MOL0     H26762   7.244   7.241   1.636 -1.6024 -0.9301  0.6587
  203MOL0     H26763   7.137   7.209   1.489 -0.0312  1.2466 -2.0130
  203MOL0     H26764   7.030   7.354   1.740 -1.1605  1.5059 -1.8838
  203MOL0     H26765   7.052   7.169   1.726  1.4533 -1.6820 -1.4927
  203MOL0     H26766   6.907   7.215   1.511 -0.3164  1.2314 -0.2597
  203MOL0     H26767   6.861   7.362   1.584  3.6939  1.1385 -0.0087
  203MOL0     H26768   6.820   7.098   1.723  0.5544  1.1570  1.5370
  203MOL0     H26769   6.786   7.251   1.792  0.2408 -0.4685  0.2462
  203MOL0     H26770   6.669   7.175   1.517  0.4737 -0.0077  0.2259
  203MOL0     H26771   6.617   7.311   1.619 -0.3652 -0.3390 -0.8106
  203MOL0     H26772   6.555   7.167   1.805  2.2574  0.8761 -0.2470
  203MOL0     H26773   6.558   7.029   1.698  2.7334  1.0847  1.4625
  203MOL0     H26774   6.405   7.292   1.608 -2.4666  0.4438  3.6291
  203MOL0     H26775   6.384   7.128   1.552 -0.8771  0.5380 -0.0805
  203MOL0     H26776   6.211   7.193   1.682 -0.4950 -0.0787 -1.0323
  203MOL0     H26777   6.302   7.218   1.832 -2.2505 -0.9787  0.2565
  203MOL0     H26778   7.221   7.661   1.470  0.1233  1.1452 -1.5789
  203MOL0     H26779   7.384   7.727   1.312  0.1489  0.7636  1.1839
  203MOL0     H26780   7.659   7.615   0.963 -0.1592  0.8936  0.5167
  203MOL0     H26781   7.850   7.679   0.813 -3.7196  0.0642  1.3922
  203MOL0     H26782   8.312   7.042   1.943 -1.2170 -0.0383 -0.1879
  203MOL0     H26783   8.411   6.926   2.139  1.8660 -0.9818 -0.0387
  203MOL0     H26784   8.347   6.482   2.358  1.2836 -0.4463 -0.5279
  203MOL0     H26785   8.370   6.369   2.552 -0.1738  0.1432 -2.8404
  203MOL0     H26786   8.441   6.286   2.823 -1.5179 -0.0620 -1.2863
  203MOL0     H26787   8.377   6.456   2.799  0.4612 -2.0570 -0.6348
  203MOL0     H26788   8.584   6.406   3.011  0.4691 -0.9878 -1.1562
  203MOL0     H26789   8.512   6.550   2.953 -0.9245 -0.5058 -2.5628
  203MOL0     H26790   8.350   6.311   3.065  1.2656 -0.5914 -4.2458
  203MOL0     H26791   8.292   6.463   2.999  2.4743  2.9683 -1.5038
  203MOL0     H26792   8.281   6.464   3.254  2.0205 -1.5841  3.1261
  203MOL0     H26793   8.466   6.484   3.237 -0.1868  0.1180 -0.5264
  203MOL0     H26794   8.352   6.876   3.173 -3.4279 -0.0773  2.1429
  203MOL0     H26795   8.741   6.580   2.648 -0.5399 -0.5934  0.8227
  203MOL0     H26796   8.724   6.698   2.434 -0.6872 -1.2307 -1.7011
  204MOL0     O26797   9.522   2.563   1.563 -0.5122 -0.2146 -0.3344
  204MOL0     C26798   9.463   2.633   1.478 -0.3768 -0.2491 -0.0017
  204MOL0     O26799   9.417   2.761   1.498 -0.5337 -0.6942 -0.2529
  204MOL0     C26800   9.446   2.834   1.616 -0.5054  0.5731  0.4223
  204MOL0     C26801   9.365   2.942   1.646 -0.4490  0.4160  0.5901
  204MOL0     C26802   9.394   3.016   1.753  0.5593  0.5029 -0.4316
  204MOL0     C26803   9.507   2.995   1.829 -0.2992  0.3284  0.6390
  204MOL0     O26804   9.536   3.073   1.934  0.3908 -1.0030  0.1424
  204MOL0     C26805   9.609   3.196   1.894  0.1648  0.8187  0.2665
  204MOL0     C26806   9.716   3.235   2.006  0.6116  0.4553  0.7794
  204MOL0     C26807   9.626   3.281   2.126 -0.0436 -0.2242 -0.3170
  204MOL0     C26808   9.726   3.326   2.232  0.6906 -0.6640 -0.4926
  204MOL0     C26809   9.657   3.345   2.371  0.5991 -0.5756 -1.2327
  204MOL0     C26810   9.752   3.405   2.478  0.9303  0.2085  0.5409
  204MOL0     C26811   9.783   3.292   2.579 -0.8802 -0.6162  0.0607
  204MOL0     C26812   9.840   3.352   2.708  0.1558  0.4860 -0.0946
  204MOL0     N26813   9.902   3.259   2.802 -0.5778 -0.1841 -0.0993
  204MOL0     C26814   9.831   3.200   2.899  0.6428  0.5962  0.1006
  204MOL0     C26815   9.912   3.108   2.948 -0.4491 -0.1318  0.8376
  204MOL0     C26816   9.874   3.008   3.057  0.2798  0.9604  0.1334
  204MOL0     C26817   9.905   2.859   3.016 -1.0010  0.0034 -0.9525
  204MOL0     C26818  10.046   2.819   3.059  0.2480  0.2090 -0.4924
  204MOL0     C26819  10.064   2.668   3.063  0.3880 -0.2599 -0.5895
  204MOL0     O26820  10.033   2.605   2.939  0.1146 -1.1680 -0.5971
  204MOL0     C26821  10.074   2.478   2.926  0.1333  0.1550 -0.5023
  204MOL0     C26822  10.202   2.437   2.943 -0.6189  0.4609  0.7923
  204MOL0     C26823  10.246   2.305   2.908 -0.0449 -0.0026  0.2651
  204MOL0     C26824  10.147   2.215   2.854  0.3160 -0.5928 -1.1785
  204MOL0     C26825  10.178   2.086   2.814  0.3269 -0.4998  0.1665
  204MOL0     O26826  10.090   1.986   2.854 -0.2099 -0.1135 -0.6341
  204MOL0     C26827  10.105   1.848   2.833 -0.0595 -0.5714  0.4122
  204MOL0     C26828  10.019   1.768   2.895  0.1413  0.9982 -0.5442
  204MOL0     C26829  10.013   1.628   2.875 -0.3735  0.2302  0.0909
  204MOL0     C26830  10.082   1.571   2.769  0.3938  0.5897  0.4196
  204MOL0     O26831  10.044   1.445   2.730  0.2327  0.8276 -0.6408
  204MOL0     C26832  10.075   1.402   2.599 -0.0143 -0.7430  0.7846
  204MOL0     C26833  10.143   1.264   2.620 -0.4262  0.2076  0.2093
  204MOL0     C26834  10.288   1.286   2.662 -0.2208  0.4802  0.4428
  204MOL0     C26835  10.357   1.153   2.664 -0.8219 -0.9869  0.3367
  204MOL0     C26836  10.482   1.168   2.754  0.1282 -0.3608  0.1126
  204MOL0     C26837  10.581   1.053   2.739  0.6535  0.3184  0.4349
  204MOL0     C26838  10.516   0.911   2.776  0.3206 -0.2443 -0.4125
  204MOL0     C26839  10.619   0.795   2.755  0.0595 -0.3678 -0.7021
  204MOL0    Cl26840  10.672   0.767   2.581 -0.4066 -0.0273 -0.4938
  204MOL0     C26841  10.188   1.648   2.722  0.1733 -0.6091 -0.4129
  204MOL0     C26842  10.202   1.785   2.757  0.9105  0.6500 -0.1763
  204MOL0     O26843  10.277   2.076   2.745  0.2545 -0.2736 -0.2745
  204MOL0     C26844  10.014   2.266   2.837 -0.4574 -0.6624  0.7578
  204MOL0     C26845   9.982   2.399   2.867  0.9984 -0.3448  0.3389
  204MOL0     N26846  10.036   3.123   2.884 -0.4323 -0.7477  0.2099
  204MOL0     N26847  10.033   3.222   2.801 -0.6262  0.1815 -0.3286
  204MOL0     C26848   9.593   2.895   1.792 -0.1183 -0.0564 -0.0165
  204MOL0     C26849   9.564   2.806   1.695 -0.5229  0.0662  0.8359
  204MOL0     C26850   9.423   2.571   1.351 -0.2684  0.1882  0.1951
  204MOL0     C26851   9.346   2.643   1.257 -0.1595  0.2176  0.2954
  204MOL0     C26852   9.290   2.584   1.142  0.3424 -0.5710 -0.4533
  204MOL0     C26853   9.304   2.451   1.117  0.4616 -0.2902  0.2537
  204MOL0     O26854   9.272   2.398   1.000 -0.0454 -0.4501 -0.2409
  204MOL0     C26855   9.140   2.348   0.992 -0.5783 -0.4157 -0.4959
  204MOL0     C26856   9.103   2.291   0.860 -0.3329  0.8171  0.9935
  204MOL0     C26857   9.096   2.412   0.756 -0.0191 -0.2837 -1.1328
  204MOL0     C26858   9.022   2.357   0.642 -0.1403 -0.0223  0.1063
  204MOL0     C26859   8.993   2.460   0.535 -0.3372  1.2935  0.0306
  204MOL0     C26860   8.953   2.523   0.442 -0.4369 -0.1466  0.3322
  204MOL0     C26861   9.376   2.374   1.209 -0.4176 -0.2789 -0.1631
  204MOL0     C26862   9.438   2.431   1.318 -0.4435  0.1485 -0.5487
  204MOL0     H26863   9.281   2.954   1.578  0.6322 -0.0414 -0.8651
  204MOL0     H26864   9.325   3.099   1.763  0.3724  0.2018  0.9929
  204MOL0     H26865   9.549   3.280   1.858 -2.1324 -1.8187 -2.5867
  204MOL0     H26866   9.663   3.176   1.801  0.5765 -1.7667  0.9727
  204MOL0     H26867   9.789   3.310   1.975 -0.5325  0.7789 -1.3316
  204MOL0     H26868   9.782   3.153   2.033  0.0415  0.4667  2.3123
  204MOL0     H26869   9.559   3.204   2.164 -0.0363 -0.9786 -1.7695
  204MOL0     H26870   9.580   3.376   2.099  1.3431  0.6100  0.1018
  204MOL0     H26871   9.803   3.249   2.226 -0.2021 -1.7272  1.0372
  204MOL0     H26872   9.777   3.415   2.195  1.8794 -1.2814 -0.3868
  204MOL0     H26873   9.603   3.253   2.398 -1.7349  0.4485 -2.1527
  204MOL0     H26874   9.573   3.413   2.355 -0.1680 -1.6034 -1.6818
  204MOL0     H26875   9.691   3.478   2.534  0.5753 -0.4447  1.0129
  204MOL0     H26876   9.838   3.461   2.438  0.0551  0.2087 -1.4477
  204MOL0     H26877   9.700   3.223   2.598 -0.0341 -1.3621  1.1375
  204MOL0     H26878   9.863   3.232   2.534  2.6746  2.6922  1.4366
  204MOL0     H26879   9.755   3.409   2.748 -1.6165 -1.3562 -1.0340
  204MOL0     H26880   9.914   3.428   2.685 -0.5883  0.9655 -0.9849
  204MOL0     H26881   9.727   3.219   2.922  0.5589  0.6513 -0.3177
  204MOL0     H26882   9.769   3.012   3.087  0.1761 -4.7410  1.7161
  204MOL0     H26883   9.930   3.019   3.150  2.2942 -0.8866 -0.7474
  204MOL0     H26884   9.890   2.843   2.909  0.6681  4.2110 -2.0406
  204MOL0     H26885   9.838   2.804   3.082 -2.6510  0.7335 -1.9776
  204MOL0     H26886  10.117   2.845   2.980  1.0024 -1.1917 -0.3006
  204MOL0     H26887  10.071   2.869   3.152 -0.4061 -0.1873 -0.0988
  204MOL0     H26888   9.998   2.624   3.138  2.0101 -0.2476  0.9116
  204MOL0     H26889  10.169   2.651   3.090  1.2077  2.3123 -1.7940
  204MOL0     H26890  10.279   2.490   2.998 -1.3976  0.3084  2.0468
  204MOL0     H26891  10.349   2.277   2.926 -1.1639 -1.5949  6.2193
  204MOL0     H26892   9.944   1.808   2.963  0.5784  1.2723 -0.2233
  204MOL0     H26893   9.946   1.561   2.929  2.4123  0.0785  3.7339
  204MOL0     H26894  10.125   1.474   2.533 -1.6992  0.8436  1.1515
  204MOL0     H26895   9.983   1.387   2.540  1.4862 -3.4255 -1.1338
  204MOL0     H26896  10.144   1.203   2.528  4.2394  0.4598 -0.1468
  204MOL0     H26897  10.101   1.203   2.701  0.6309 -2.1474 -0.8900
  204MOL0     H26898  10.295   1.336   2.759 -0.6854 -1.2085  1.3900
  204MOL0     H26899  10.333   1.342   2.580  1.0177 -0.0813  0.7094
  204MOL0     H26900  10.301   1.068   2.705 -2.7761 -0.1733 -0.5665
  204MOL0     H26901  10.400   1.126   2.567 -0.7763 -2.6820  0.7874
  204MOL0     H26902  10.459   1.167   2.861  0.9494  0.3881  0.3045
  204MOL0     H26903  10.540   1.260   2.739  2.9884 -1.8352  1.3326
  204MOL0     H26904  10.673   1.069   2.796  3.2303  0.7888 -3.4514
  204MOL0     H26905  10.616   1.032   2.637  0.3083 -2.1463  0.7551
  204MOL0     H26906  10.480   0.923   2.878 -1.2884  3.2252 -1.2484
  204MOL0     H26907  10.431   0.876   2.717  0.6027 -1.9907  0.1358
  204MOL0     H26908  10.596   0.698   2.801  2.8243 -1.0267 -0.4903
  204MOL0     H26909  10.708   0.823   2.813 -0.3006 -1.3197  0.3353
  204MOL0     H26910  10.262   1.606   2.654  0.5682 -3.1388  1.4352
  204MOL0     H26911  10.284   1.840   2.713  1.1244  0.0895 -0.4971
  204MOL0     H26912   9.949   2.201   2.779  1.2234 -3.1037  1.4423
  204MOL0     H26913   9.883   2.432   2.838 -0.2935 -3.3075  0.9362
  204MOL0     H26914   9.680   2.877   1.853  0.8024  2.2116 -0.5303
  204MOL0     H26915   9.632   2.722   1.681  0.4436  1.1207 -1.2520
  204MOL0     H26916   9.316   2.746   1.271 -2.1538  0.1116 -2.3466
  204MOL0     H26917   9.232   2.647   1.075 -0.3979  2.1059  2.4848
  204MOL0     H26918   9.073   2.431   1.015 -0.1397 -0.4844  1.1427
  204MOL0     H26919   9.119   2.280   1.075  0.6650 -0.2781 -0.0540
  204MOL0     H26920   9.172   2.213   0.828 -2.6065 -0.3573 -1.4118
  204MOL0     H26921   9.001   2.250   0.865 -0.3501  0.8656  1.0479
  204MOL0     H26922   9.199   2.431   0.725 -0.3440  1.7373 -1.1357
  204MOL0     H26923   9.053   2.502   0.801  0.4998 -0.3635 -0.4723
  204MOL0     H26924   9.072   2.269   0.599 -3.7281 -2.3458  0.2054
  204MOL0     H26925   8.929   2.316   0.683  0.8468 -0.0936  2.4270
  204MOL0     H26926   8.907   2.591   0.373  0.1576 -0.0462  0.0286
  204MOL0     H26927   9.382   2.267   1.188 -1.3088  0.3183 -4.3379
  204MOL0     H26928   9.499   2.366   1.381  0.8022  1.9673  0.1893
  205MOL0     O26929   3.655   6.758  10.291  0.1575  1.1718 -0.0996
  205MOL0     C26930   3.749   6.771  10.215 -0.1913  0.8848  0.1715
  205MOL0     O26931   3.843   6.863  10.220 -0.4603  0.1103  0.0916
  205MOL0     C26932   3.853   6.949  10.325  0.3220 -0.1042  0.2781
  205MOL0     C26933   3.966   6.953  10.407 -0.1972 -0.0349 -0.7883
  205MOL0     C26934   3.986   7.047  10.507 -0.7878  0.3365 -0.5385
  205MOL0     C26935   3.880   7.140  10.524  0.0497  1.3014 -0.5865
  205MOL0     O26936   3.885   7.241  10.623 -0.0231  0.2635  0.1802
  205MOL0     C26937   4.012   7.295  10.678  0.0850 -0.1621  0.1646
  205MOL0     C26938   3.972   7.440  10.707 -0.0959  1.0170 -0.4011
  205MOL0     C26939   3.849   7.466  10.804  0.1937 -0.2395 -0.7268
  205MOL0     C26940   3.897   7.426  10.949  0.7239  0.6853 -0.6615
  205MOL0     C26941   3.771   7.453  11.041  0.2160 -0.4825 -1.1294
  205MOL0     C26942   3.811   7.430  11.188 -0.6426 -0.4866  1.0824
  205MOL0     C26943   3.853   7.281  11.208 -0.5773 -0.3723 -0.4355
  205MOL0     C26944   3.798   7.226  11.342  0.6608 -0.5335  0.8061
  205MOL0     N26945   3.658   7.183  11.339 -0.8749 -0.6234  0.3363
  205MOL0     C26946   3.614   7.068  11.286  1.5876  0.3285  0.6510
  205MOL0     C26947   3.483   7.096  11.245 -0.0640  0.5116  0.6211
  205MOL0     C26948   3.402   7.004  11.150  0.0911 -0.8797 -0.1994
  205MOL0     C26949   3.264   6.970  11.197 -0.5132 -0.1959 -0.5625
  205MOL0     C26950   3.271   6.887  11.326  0.7890 -0.0416  0.0934
  205MOL0     C26951   3.289   6.735  11.297 -0.4179 -0.4999  0.4200
  205MOL0     O26952   3.163   6.680  11.254  0.2626 -0.4727  0.5680
  205MOL0     C26953   3.147   6.543  11.275  0.3015 -0.2631 -0.0552
  205MOL0     C26954   3.040   6.476  11.220  0.5611 -0.6136  1.0817
  205MOL0     C26955   3.010   6.343  11.230 -0.3264  0.3090  0.2781
  205MOL0     C26956   3.093   6.256  11.315  0.5004  0.5321 -0.0518
  205MOL0     C26957   3.059   6.113  11.338 -0.4282  0.8058  0.3888
  205MOL0     O26958   2.987   6.046  11.233 -0.3009  0.2150 -0.0032
  205MOL0     C26959   2.950   5.913  11.237 -0.8585 -0.4943 -0.3524
  205MOL0     C26960   2.986   5.818  11.330 -0.6382 -0.7359  0.1906
  205MOL0     C26961   2.931   5.685  11.324  0.1361 -0.6782  0.9906
  205MOL0     C26962   2.835   5.653  11.219 -0.0876 -0.1378 -0.0757
  205MOL0     O26963   2.783   5.527  11.209  0.8959 -0.3456 -0.1399
  205MOL0     C26964   2.744   5.478  11.083  0.1679 -0.3202 -0.8172
  205MOL0     C26965   2.749   5.327  11.059 -0.3775 -0.9866  0.1135
  205MOL0     C26966   2.680   5.233  11.148  0.7171 -0.5311  0.1860
  205MOL0     C26967   2.710   5.089  11.137  0.3885  0.6150  0.7932
  205MOL0     C26968   2.592   5.013  11.188  0.1942 -0.0604  0.0932
  205MOL0     C26969   2.604   4.867  11.238  0.2888 -0.1621  0.2675
  205MOL0     C26970   2.709   4.843  11.348  0.5014  0.6195  0.4229
  205MOL0     C26971   2.680   4.924  11.481  0.1332  0.2198  0.1298
  205MOL0    Cl26972   2.532   4.834  11.554 -0.2332 -0.1588  0.1042
  205MOL0     C26973   2.806   5.755  11.125  0.4363  0.0931  0.3232
  205MOL0     C26974   2.873   5.878  11.127  0.3241  0.2698  0.5812
  205MOL0     O26975   3.080   6.062  11.454  0.1675 -0.4944  0.3126
  205MOL0     C26976   3.201   6.321  11.374 -0.7637 -0.4154  0.1023
  205MOL0     C26977   3.233   6.458  11.347 -0.1060  0.2947 -0.1784
  205MOL0     N26978   3.461   7.231  11.284  0.0657  0.5285 -0.0648
  205MOL0     N26979   3.568   7.282  11.319  0.9445 -0.7191  0.2657
  205MOL0     C26980   3.756   7.128  10.451 -0.0201 -0.4583  0.1175
  205MOL0     C26981   3.741   7.030  10.360 -0.9497 -0.7766  0.6477
  205MOL0     C26982   3.781   6.659  10.135 -0.4356 -0.4396 -0.4218
  205MOL0     C26983   3.891   6.661  10.037 -1.1132  0.4692  0.5750
  205MOL0     C26984   3.924   6.554   9.952  0.8940 -0.1360 -2.0177
  205MOL0     C26985   3.845   6.435   9.976 -0.4548 -0.4422 -0.3773
  205MOL0     O26986   3.884   6.319   9.905  0.5871 -0.2799 -0.2148
  205MOL0     C26987   3.855   6.187   9.952 -0.6124  0.3104  0.1090
  205MOL0     C26988   3.944   6.129  10.069 -0.4100 -0.7818 -0.2508
  205MOL0     C26989   4.092   6.120  10.045 -1.4441  0.5423  0.4278
  205MOL0     C26990   4.126   6.017   9.931  0.4084 -0.0207  0.8398
  205MOL0     C26991   4.274   6.022   9.918  1.0990 -0.6519  0.2824
  205MOL0     C26992   4.397   6.032   9.924 -0.0960 -0.1799 -0.1315
  205MOL0     C26993   3.733   6.432  10.056 -1.2524 -0.4911  0.6105
  205MOL0     C26994   3.704   6.546  10.139 -0.5116  1.0744  0.3465
  205MOL0     H26995   4.056   6.899  10.380 -0.6973  0.5154 -3.9174
  205MOL0     H26996   4.073   7.070  10.567 -0.1906  0.5105 -1.4516
  205MOL0     H26997   4.094   7.302  10.607  0.0183  2.5092  0.2417
  205MOL0     H26998   4.051   7.241  10.765  3.2313 -1.7879 -2.0649
  205MOL0     H26999   3.950   7.483  10.609  1.7075  2.8934 -0.0504
  205MOL0     H27000   4.060   7.489  10.749  0.2463 -0.8726  1.2355
  205MOL0     H27001   3.756   7.414  10.781 -0.2515 -0.3168  1.1017
  205MOL0     H27002   3.819   7.571  10.806  0.9084 -0.0211 -1.1743
  205MOL0     H27003   3.914   7.318  10.950  1.2893  0.7417 -2.1017
  205MOL0     H27004   3.978   7.488  10.989  0.6139  2.2576 -2.6925
  205MOL0     H27005   3.688   7.382  11.034  0.6841 -1.5067  1.8745
  205MOL0     H27006   3.741   7.557  11.031  1.5398  0.9989  5.3417
  205MOL0     H27007   3.736   7.450  11.265 -0.9678 -0.6769  0.8133
  205MOL0     H27008   3.892   7.497  11.218 -1.6135  1.1754  0.0914
  205MOL0     H27009   3.841   7.211  11.125  1.1145 -0.4119 -0.6739
  205MOL0     H27010   3.962   7.282  11.208 -0.5778  0.4767 -0.9789
  205MOL0     H27011   3.815   7.301  11.419  0.6585 -1.1462  1.4067
  205MOL0     H27012   3.858   7.137  11.367  3.7943  0.6124 -1.8684
  205MOL0     H27013   3.678   6.985  11.258 -0.7359 -1.2945 -0.0692
  205MOL0     H27014   3.458   6.911  11.134  0.6529 -0.0456 -4.2757
  205MOL0     H27015   3.407   7.050  11.051 -2.3535  0.5953  0.2945
  205MOL0     H27016   3.206   6.917  11.120  0.9896  0.3794 -2.1766
  205MOL0     H27017   3.203   7.057  11.223 -0.0419 -0.6006  2.2169
  205MOL0     H27018   3.350   6.927  11.391  0.0992  0.0925  0.8658
  205MOL0     H27019   3.181   6.896  11.387  2.1066 -2.6331  2.6528
  205MOL0     H27020   3.328   6.703  11.394  0.4748 -0.9253 -0.0707
  205MOL0     H27021   3.363   6.713  11.220 -2.7089 -1.7410 -1.5795
  205MOL0     H27022   2.969   6.536  11.164  3.6382  0.7531 -1.7043
  205MOL0     H27023   2.917   6.316  11.181  0.0930  0.9729 -0.9200
  205MOL0     H27024   3.050   5.846  11.413  2.3957  2.5266 -2.8884
  205MOL0     H27025   2.953   5.615  11.404  1.2702 -1.7142 -0.1922
  205MOL0     H27026   2.802   5.531  11.007 -0.4630  1.2842 -0.2188
  205MOL0     H27027   2.641   5.507  11.058 -1.9471 -3.0734  3.4886
  205MOL0     H27028   2.853   5.294  11.063 -0.1417 -0.4137 -0.8262
  205MOL0     H27029   2.721   5.317  10.954 -0.4830  2.5008 -0.3283
  205MOL0     H27030   2.575   5.248  11.122  0.8817 -0.7450 -0.6371
  205MOL0     H27031   2.696   5.260  11.252 -0.5760  0.1463  0.2269
  205MOL0     H27032   2.743   5.069  11.034  2.3473 -2.8885  1.8966
  205MOL0     H27033   2.795   5.068  11.204  0.3207 -1.1075  0.3980
  205MOL0     H27034   2.527   5.021  11.099  1.2023  2.1580 -0.4993
  205MOL0     H27035   2.548   5.070  11.270  1.4589 -0.0704  0.7971
  205MOL0     H27036   2.618   4.803  11.150  1.4832  1.0973 -0.4960
  205MOL0     H27037   2.508   4.845  11.284  0.3301 -0.1268  0.3712
  205MOL0     H27038   2.712   4.736  11.368  3.6159 -0.6009 -4.8136
  205MOL0     H27039   2.809   4.872  11.317  0.4861  1.6567  1.2620
  205MOL0     H27040   2.652   5.028  11.463  0.3776  0.2797  0.1067
  205MOL0     H27041   2.769   4.904  11.542 -0.6953 -1.6587  0.8238
  205MOL0     H27042   2.750   5.727  11.037 -1.7204  1.1952  1.2764
  205MOL0     H27043   2.851   5.954  11.053 -2.0787  1.3216  2.2584
  205MOL0     H27044   3.275   6.268  11.434 -0.6380 -1.8142 -1.2242
  205MOL0     H27045   3.319   6.493  11.403 -1.5412 -0.7159  2.9188
  205MOL0     H27046   3.670   7.194  10.458 -1.3600 -2.2543  1.5779
  205MOL0     H27047   3.647   7.012  10.309  1.0257 -1.9771 -2.8979
  205MOL0     H27048   3.946   6.754  10.030 -1.0393  0.4478  0.8437
  205MOL0     H27049   4.009   6.547   9.884  3.3017 -1.8183  0.8898
  205MOL0     H27050   3.873   6.118   9.869 -0.3420 -0.7601  1.0260
  205MOL0     H27051   3.753   6.160   9.981 -0.4453  0.3422  0.7438
  205MOL0     H27052   3.922   6.191  10.157 -1.2694  1.1459 -1.7356
  205MOL0     H27053   3.907   6.032  10.103  1.5637 -0.7524  2.2828
  205MOL0     H27054   4.130   6.082  10.140 -2.9436 -1.1089  0.4224
  205MOL0     H27055   4.135   6.219  10.028 -1.5034  0.5488  0.3135
  205MOL0     H27056   4.101   5.914   9.957  2.0215 -0.7846 -0.4420
  205MOL0     H27057   4.086   6.042   9.833 -0.9369  0.1959  1.4184
  205MOL0     H27058   4.502   6.042   9.940 -0.2389 -1.2858  1.7768
  205MOL0     H27059   3.665   6.351  10.083 -3.4336  1.7806  2.3568
  205MOL0     H27060   3.622   6.536  10.209 -0.3644 -0.4388  0.3249
  206MOL0     O27061   3.338   7.902   5.084 -0.0883 -0.5150  0.4092
  206MOL0     C27062   3.365   7.814   5.163 -0.9411 -0.2180  0.3014
  206MOL0     O27063   3.308   7.798   5.282 -0.3631  0.7710  0.2219
  206MOL0     C27064   3.268   7.896   5.366  0.0578  0.3278  0.4044
  206MOL0     C27065   3.178   7.871   5.465 -0.5129  0.4166  0.5626
  206MOL0     C27066   3.147   7.957   5.571 -0.7531 -0.3357  0.2389
  206MOL0     C27067   3.202   8.085   5.574  0.3864 -0.2520  0.3816
  206MOL0     O27068   3.172   8.179   5.675 -0.3319 -0.0325  0.4944
  206MOL0     C27069   3.063   8.158   5.770 -0.5190  0.1429 -0.6758
  206MOL0     C27070   3.040   8.280   5.855  0.2842 -0.4007 -0.1077
  206MOL0     C27071   3.136   8.287   5.971  0.8268  0.3084 -0.4476
  206MOL0     C27072   3.116   8.409   6.061  0.6672 -0.6158  0.7124
  206MOL0     C27073   3.236   8.443   6.147  0.3339 -0.1127  0.0365
  206MOL0     C27074   3.233   8.600   6.185 -0.6905  0.7833  1.1895
  206MOL0     C27075   3.126   8.648   6.289 -0.1148  0.4501 -0.4102
  206MOL0     C27076   3.166   8.650   6.428 -1.2948 -0.0536 -0.5797
  206MOL0     N27077   3.196   8.512   6.468  0.1520 -0.4223  0.1086
  206MOL0     C27078   3.101   8.436   6.511  0.2913 -0.3910 -0.1887
  206MOL0     C27079   3.158   8.325   6.555 -0.2010  0.0320 -0.5296
  206MOL0     C27080   3.094   8.203   6.608  0.4600  0.2091 -0.7813
  206MOL0     C27081   3.196   8.118   6.691  0.7111 -0.4018  1.0586
  206MOL0     C27082   3.130   8.022   6.795  0.4988 -0.9908  0.3458
  206MOL0     C27083   3.225   7.921   6.863  0.3139 -0.7737 -0.5483
  206MOL0     O27084   3.285   7.842   6.762  0.1038 -0.0870  1.0130
  206MOL0     C27085   3.390   7.755   6.793  0.5969  0.7705  0.3479
  206MOL0     C27086   3.417   7.699   6.918  0.3396 -0.2821 -0.0844
  206MOL0     C27087   3.525   7.622   6.948  0.8628 -0.1259  0.2076
  206MOL0     C27088   3.612   7.592   6.842 -0.1646 -0.0723 -0.8643
  206MOL0     C27089   3.735   7.514   6.875 -0.7669  1.0093  0.1450
  206MOL0     O27090   3.747   7.484   7.005 -0.3566 -0.9844 -0.2417
  206MOL0     C27091   3.849   7.418   7.054 -0.4078  1.3758 -0.6331
  206MOL0     C27092   3.912   7.314   6.986 -0.0987 -0.7398  0.5150
  206MOL0     C27093   4.024   7.247   7.047 -1.3178  0.4588 -0.0392
  206MOL0     C27094   4.056   7.269   7.181  0.4019 -0.6028  0.2932
  206MOL0     O27095   4.134   7.170   7.231 -0.5906  0.4883  0.1328
  206MOL0     C27096   4.276   7.198   7.246  0.3514 -1.1544 -0.2659
  206MOL0     C27097   4.346   7.099   7.348  0.5476  0.2761 -0.4006
  206MOL0     C27098   4.311   6.952   7.336 -0.3777 -0.2226 -0.2243
  206MOL0     C27099   4.412   6.876   7.415 -0.3267  0.7237  0.3961
  206MOL0     C27100   4.394   6.723   7.399 -0.1602  0.4563 -0.3285
  206MOL0     C27101   4.442   6.674   7.259 -1.0145  0.0774  0.3003
  206MOL0     C27102   4.537   6.546   7.242  0.4754 -0.3406  1.0080
  206MOL0     C27103   4.459   6.423   7.284  0.7712  0.5587 -0.3850
  206MOL0    Cl27104   4.543   6.263   7.274  0.3238  0.6096  0.2622
  206MOL0     C27105   3.976   7.358   7.250 -0.2993 -0.3890 -0.4961
  206MOL0     C27106   3.880   7.443   7.192 -0.1653  0.1828  0.1158
  206MOL0     O27107   3.819   7.492   6.788  0.6671 -0.5305  0.0593
  206MOL0     C27108   3.581   7.626   6.710  0.6724 -0.0367  0.3148
  206MOL0     C27109   3.470   7.712   6.679  0.1636 -0.3290 -0.0788
  206MOL0     N27110   3.298   8.344   6.539 -0.0961 -0.3955  0.1392
  206MOL0     N27111   3.318   8.461   6.490  0.6528  0.1088 -0.1671
  206MOL0     C27112   3.279   8.131   5.463 -1.3409  0.3561  0.0222
  206MOL0     C27113   3.304   8.032   5.358 -0.1649  0.7249  0.5798
  206MOL0     C27114   3.480   7.719   5.127 -0.0287 -0.0762 -0.1767
  206MOL0     C27115   3.586   7.753   5.044 -0.1622  0.4513  0.6244
  206MOL0     C27116   3.683   7.657   5.012 -0.2667 -1.0439 -0.6618
  206MOL0     C27117   3.690   7.529   5.068  0.0977  0.1622 -0.0102
  206MOL0     O27118   3.798   7.455   5.050  0.3058  0.0753  0.9012
  206MOL0     C27119   3.795   7.319   5.088  0.0989 -0.3763 -0.5092
  206MOL0     C27120   3.712   7.238   4.987  0.1844 -0.3315 -0.0032
  206MOL0     C27121   3.746   7.091   4.998 -0.4699  0.0451  0.2781
  206MOL0     C27122   3.637   7.000   4.916 -0.8840  0.1494 -0.7249
  206MOL0     C27123   3.666   7.016   4.771  0.5786 -0.6802  0.0524
  206MOL0     C27124   3.705   7.011   4.655  0.0595 -1.5100  1.3660
  206MOL0     C27125   3.598   7.512   5.169  0.0364 -0.2696 -0.7634
  206MOL0     C27126   3.494   7.598   5.200  0.0147 -0.3421 -0.5475
  206MOL0     H27127   3.134   7.772   5.470  1.8570 -0.9076 -2.2434
  206MOL0     H27128   3.074   7.928   5.645  1.5046 -1.7383  2.0643
  206MOL0     H27129   3.093   8.071   5.830  0.7417 -1.1849 -3.0729
  206MOL0     H27130   2.968   8.134   5.723 -0.3379 -0.4402 -0.7539
  206MOL0     H27131   2.940   8.272   5.900 -0.1300  0.1568 -0.9106
  206MOL0     H27132   3.049   8.369   5.791  2.1352  0.8265  1.7169
  206MOL0     H27133   3.236   8.292   5.926  2.0512 -2.7358  1.6049
  206MOL0     H27134   3.126   8.193   6.025 -2.4907  0.1612 -1.1354
  206MOL0     H27135   3.086   8.497   6.003  0.8962 -0.3179  1.0361
  206MOL0     H27136   3.019   8.401   6.111 -0.4324  2.1709 -0.7504
  206MOL0     H27137   3.323   8.425   6.084 -0.4348  0.5144 -1.2339
  206MOL0     H27138   3.256   8.379   6.234  2.7776  0.8388  0.2528
  206MOL0     H27139   3.217   8.651   6.089  2.1587 -0.5975 -0.1386
  206MOL0     H27140   3.334   8.624   6.219  0.8446 -3.6748  0.4456
  206MOL0     H27141   3.103   8.755   6.279  0.4525  1.3765  4.9050
  206MOL0     H27142   3.034   8.590   6.280  0.6343 -1.1253  1.4368
  206MOL0     H27143   3.085   8.682   6.494 -0.7688  0.9339 -0.4003
  206MOL0     H27144   3.256   8.709   6.447 -0.1517 -2.8525  4.4958
  206MOL0     H27145   2.997   8.468   6.516  0.4159  0.3758 -1.7397
  206MOL0     H27146   3.043   8.146   6.530 -1.6068 -0.2841  0.8445
  206MOL0     H27147   3.020   8.246   6.676  2.2505  1.9098  0.2177
  206MOL0     H27148   3.264   8.185   6.744 -1.5228  1.0223  2.2784
  206MOL0     H27149   3.244   8.069   6.606  1.0156  1.4507  0.1041
  206MOL0     H27150   3.077   8.083   6.870  0.5705 -0.3955 -0.0804
  206MOL0     H27151   3.047   7.980   6.738  0.6432 -0.2452 -0.4416
  206MOL0     H27152   3.169   7.861   6.936 -2.7381  0.1512 -1.9778
  206MOL0     H27153   3.295   7.989   6.912 -0.3231 -0.1315 -0.5152
  206MOL0     H27154   3.337   7.700   6.992 -3.6094 -1.3554 -3.9279
  206MOL0     H27155   3.547   7.590   7.049 -2.4737  0.2025  1.1621
  206MOL0     H27156   3.877   7.282   6.889 -0.2242 -1.6165  0.8382
  206MOL0     H27157   4.078   7.167   6.998 -0.5181  0.8566  0.1710
  206MOL0     H27158   4.290   7.295   7.293  4.1254 -1.0719 -1.2010
  206MOL0     H27159   4.323   7.199   7.147 -1.0642  0.0211 -0.9666
  206MOL0     H27160   4.305   7.118   7.448 -1.8116 -1.4653 -0.9541
  206MOL0     H27161   4.453   7.121   7.351  0.1849  2.4600 -1.9120
  206MOL0     H27162   4.313   6.922   7.231 -1.6883 -0.3973 -0.2154
  206MOL0     H27163   4.211   6.933   7.375 -0.9097  0.2612 -1.3312
  206MOL0     H27164   4.514   6.900   7.383 -0.4260  0.5831 -0.0340
  206MOL0     H27165   4.394   6.903   7.519  2.4201 -0.7253  1.3536
  206MOL0     H27166   4.293   6.682   7.389 -0.8777  1.5169  1.9606
  206MOL0     H27167   4.439   6.668   7.482  0.7026 -2.8371 -2.7465
  206MOL0     H27168   4.508   6.753   7.221 -0.5986 -1.0549 -1.4293
  206MOL0     H27169   4.359   6.673   7.189  1.3733  0.8226 -2.7871
  206MOL0     H27170   4.556   6.526   7.136 -0.5510 -0.4910  0.8434
  206MOL0     H27171   4.631   6.573   7.291  1.2441  0.0145 -0.6120
  206MOL0     H27172   4.365   6.415   7.228  1.1336 -0.5198 -0.8665
  206MOL0     H27173   4.416   6.444   7.382  0.2574  0.2384 -0.5344
  206MOL0     H27174   3.970   7.362   7.358 -5.0718  4.6530 -0.5145
  206MOL0     H27175   3.816   7.517   7.238  1.0227  0.2519  1.7437
  206MOL0     H27176   3.634   7.592   6.622 -0.8746 -0.2227 -0.5683
  206MOL0     H27177   3.445   7.752   6.581  1.0377  2.9935  0.9244
  206MOL0     H27178   3.317   8.232   5.469  1.8847 -0.8210  2.2405
  206MOL0     H27179   3.364   8.059   5.272  0.4336  1.6267  1.2649
  206MOL0     H27180   3.584   7.852   5.000 -0.3166  1.3101  2.4681
  206MOL0     H27181   3.766   7.680   4.946  0.6685  0.2891  0.8807
  206MOL0     H27182   3.759   7.286   5.187  0.3671 -0.5988 -0.4849
  206MOL0     H27183   3.896   7.276   5.083 -0.2409 -1.2370 -0.2442
  206MOL0     H27184   3.609   7.251   5.023  0.0213 -0.7051 -0.3245
  206MOL0     H27185   3.730   7.283   4.889 -0.2575 -1.3139 -0.5519
  206MOL0     H27186   3.759   7.060   5.102  0.2216 -1.6619 -0.2811
  206MOL0     H27187   3.843   7.075   4.949 -1.5456  1.6996 -2.6529
  206MOL0     H27188   3.665   6.897   4.936 -0.0060 -0.1968 -3.3449
  206MOL0     H27189   3.532   7.030   4.929 -0.9507 -0.1069 -0.6835
  206MOL0     H27190   3.741   7.035   4.557  1.6671 -3.6387  1.3641
  206MOL0     H27191   3.613   7.421   5.228 -0.6481  2.0301  3.3491
  206MOL0     H27192   3.429   7.573   5.283  0.4142  1.9838  0.5236
  207MOL0     O27193   5.698  11.382   3.919 -0.7708  0.5405  0.1438
  207MOL0     C27194   5.606  11.311   3.872  0.6383 -0.5759 -0.7562
  207MOL0     O27195   5.490  11.289   3.938 -0.3322 -0.0332  0.2872
  207MOL0     C27196   5.455  11.362   4.053 -0.7310 -0.1511  0.7836
  207MOL0     C27197   5.369  11.302   4.150 -0.5095 -0.6456 -0.1098
  207MOL0     C27198   5.339  11.374   4.264 -0.7830 -0.8649  1.1125
  207MOL0     C27199   5.387  11.502   4.288 -0.5018  0.8122  0.2003
  207MOL0     O27200   5.368  11.560   4.414 -0.2830  0.1555 -0.3393
  207MOL0     C27201   5.429  11.476   4.516 -0.3304 -0.2720  0.6669
  207MOL0     C27202   5.392  11.531   4.657  0.3472  0.3685 -0.2428
  207MOL0     C27203   5.473  11.644   4.705  0.1330 -0.1362  0.2917
  207MOL0     C27204   5.413  11.691   4.855  0.0810 -0.8129  0.2247
  207MOL0     C27205   5.285  11.782   4.848 -0.0122 -0.0189 -0.0255
  207MOL0     C27206   5.235  11.808   4.988  0.2001  0.9718  0.6101
  207MOL0     C27207   5.106  11.888   4.979 -0.0935 -0.0710  0.3395
  207MOL0     C27208   5.137  12.034   4.918  1.0668  0.0065  0.1603
  207MOL0     N27209   5.083  12.138   5.003 -0.4683  0.0745 -0.1450
  207MOL0     C27210   4.960  12.152   5.051 -0.6158 -0.0227  0.3704
  207MOL0     C27211   4.955  12.266   5.123  0.4315  0.2305 -0.2253
  207MOL0     C27212   4.842  12.335   5.184 -0.5778 -0.4126  0.2251
  207MOL0     C27213   4.731  12.333   5.082 -0.1098 -0.1307  0.7155
  207MOL0     C27214   4.750  12.439   4.959 -0.7992  0.3404 -0.0522
  207MOL0     C27215   4.625  12.489   4.885  1.3805 -0.6071  0.5169
  207MOL0     O27216   4.507  12.421   4.930 -0.0311  0.8096 -0.5043
  207MOL0     C27217   4.442  12.357   4.837 -0.4247  0.2645 -0.5191
  207MOL0     C27218   4.498  12.251   4.778 -0.1228  0.2797 -0.2761
  207MOL0     C27219   4.433  12.183   4.677 -0.0955 -0.1224 -0.4021
  207MOL0     C27220   4.298  12.219   4.639 -0.7798 -0.6193 -0.2965
  207MOL0     C27221   4.240  12.168   4.514 -0.2938  0.3740  0.0732
  207MOL0     O27222   4.303  12.060   4.471  0.2044 -0.3380  0.5028
  207MOL0     C27223   4.257  11.989   4.363  0.9043 -0.0347  0.0870
  207MOL0     C27224   4.265  12.046   4.238  0.6351 -0.8888 -0.1219
  207MOL0     C27225   4.229  11.969   4.125  0.2587  0.2173 -0.0958
  207MOL0     C27226   4.214  11.831   4.139  1.4269  0.3622 -0.1373
  207MOL0     O27227   4.178  11.756   4.027 -0.0033 -0.0699 -0.6798
  207MOL0     C27228   4.062  11.808   3.960 -1.1610 -0.3791  0.1308
  207MOL0     C27229   4.001  11.701   3.871  0.2018  0.0728 -0.5327
  207MOL0     C27230   4.027  11.552   3.917  0.9461  0.9458  0.7529
  207MOL0     C27231   3.903  11.470   3.869 -0.1433  0.3025 -0.1300
  207MOL0     C27232   3.936  11.322   3.873  1.0077  0.1743 -0.0727
  207MOL0     C27233   3.806  11.247   3.842  1.1119 -0.0106 -0.0563
  207MOL0     C27234   3.811  11.100   3.799  0.4981  0.9834  0.0844
  207MOL0     C27235   3.707  11.077   3.695  0.1648 -1.0778  0.6324
  207MOL0    Cl27236   3.565  11.044   3.778  0.4762  0.2147 -0.1095
  207MOL0     C27237   4.213  11.772   4.258  0.4343 -0.1519 -0.5375
  207MOL0     C27238   4.240  11.854   4.372  0.5432  0.5590 -0.3103
  207MOL0     O27239   4.145  12.221   4.461 -0.8974 -0.1348 -1.0289
  207MOL0     C27240   4.243  12.328   4.710  0.1589  0.0340  0.5751
  207MOL0     C27241   4.312  12.400   4.804 -0.3384 -0.7014 -0.1226
  207MOL0     N27242   5.085  12.317   5.112  0.1396 -0.6803 -0.9175
  207MOL0     N27243   5.155  12.250   5.031 -0.1270  0.6949 -0.3491
  207MOL0     C27244   5.467  11.563   4.193 -0.4161 -0.3238 -0.5269
  207MOL0     C27245   5.504  11.489   4.078  1.2648  0.6903 -1.0832
  207MOL0     C27246   5.632  11.221   3.759 -0.1952  0.2789  0.0033
  207MOL0     C27247   5.756  11.209   3.694 -0.0641 -0.3032  0.5376
  207MOL0     C27248   5.763  11.137   3.575 -0.7235 -0.1901  0.2455
  207MOL0     C27249   5.646  11.082   3.516 -0.3996  0.9719 -0.4069
  207MOL0     O27250   5.647  11.007   3.395  0.1905  0.8118  0.0690
  207MOL0     C27251   5.751  10.918   3.360 -0.3631 -0.8080 -0.2431
  207MOL0     C27252   5.697  10.799   3.278 -0.4600  0.0868 -0.1900
  207MOL0     C27253   5.579  10.718   3.350  0.5401 -0.0857  0.6702
  207MOL0     C27254   5.551  10.593   3.272 -0.9958  0.3329  0.0881
  207MOL0     C27255   5.465  10.500   3.348 -0.0516 -1.0225 -0.4647
  207MOL0     C27256   5.390  10.410   3.402  0.3032 -0.2054  0.3861
  207MOL0     C27257   5.523  11.097   3.575  0.0019 -0.3317  0.4857
  207MOL0     C27258   5.518  11.161   3.699  0.7544  0.2307 -0.5640
  207MOL0     H27259   5.333  11.202   4.132 -0.4341 -0.5640 -0.7393
  207MOL0     H27260   5.289  11.320   4.343 -3.7932 -2.6036 -1.7220
  207MOL0     H27261   5.535  11.466   4.492 -0.7656 -0.6889 -1.2423
  207MOL0     H27262   5.386  11.376   4.511  1.5312 -1.0367 -1.4444
  207MOL0     H27263   5.407  11.440   4.716  3.1450  0.2346 -1.0078
  207MOL0     H27264   5.288  11.564   4.651  0.7700  1.7082 -0.5409
  207MOL0     H27265   5.470  11.729   4.637 -1.2860 -0.5246 -0.1736
  207MOL0     H27266   5.574  11.601   4.705  0.0326 -0.9283 -4.5504
  207MOL0     H27267   5.397  11.602   4.917 -2.8276 -1.0256 -0.6759
  207MOL0     H27268   5.488  11.758   4.899 -0.3053  0.2869 -0.7592
  207MOL0     H27269   5.211  11.722   4.794 -0.9074 -1.1182  2.2757
  207MOL0     H27270   5.289  11.868   4.780  1.3141  1.1590  1.4768
  207MOL0     H27271   5.297  11.877   5.045  0.8006  2.2694 -1.4799
  207MOL0     H27272   5.204  11.720   5.044 -1.3715  1.5377  0.6973
  207MOL0     H27273   5.035  11.839   4.912  1.9146 -1.2732 -1.0005
  207MOL0     H27274   5.055  11.888   5.076 -0.2323 -1.6456  0.2895
  207MOL0     H27275   5.093  12.039   4.818 -1.3479 -0.9706  1.0939
  207MOL0     H27276   5.244  12.058   4.915  1.1735 -0.5195 -0.8076
  207MOL0     H27277   4.887  12.075   5.028  0.6285 -0.5905 -2.0793
  207MOL0     H27278   4.866  12.439   5.207  0.1829 -0.8049  1.2828
  207MOL0     H27279   4.813  12.273   5.270 -2.2747  1.7065  1.2663
  207MOL0     H27280   4.638  12.354   5.135 -1.7787  1.7369 -2.6135
  207MOL0     H27281   4.720  12.231   5.041 -5.5266  0.5312 -0.2889
  207MOL0     H27282   4.798  12.526   5.006 -0.5277 -0.2960  0.9003
  207MOL0     H27283   4.814  12.404   4.878 -1.3843  0.2237 -0.4644
  207MOL0     H27284   4.628  12.481   4.776 -4.0321 -1.0855  0.1230
  207MOL0     H27285   4.612  12.596   4.898 -0.9371 -0.5519 -1.4739
  207MOL0     H27286   4.596  12.218   4.811 -1.1585 -3.1057 -0.1286
  207MOL0     H27287   4.472  12.092   4.631  1.5207  0.3764 -0.0987
  207MOL0     H27288   4.289  12.152   4.232  2.2923 -1.2289 -0.0811
  207MOL0     H27289   4.242  12.006   4.023  0.8132 -0.4585 -0.2735
  207MOL0     H27290   4.089  11.896   3.900  0.6933  1.7163  3.6998
  207MOL0     H27291   3.986  11.831   4.035  0.2982 -0.9489  1.8430
  207MOL0     H27292   4.051  11.709   3.774 -0.3856 -0.1522 -0.8589
  207MOL0     H27293   3.893  11.719   3.874 -0.0556 -1.4959  0.7861
  207MOL0     H27294   4.040  11.550   4.025 -0.0482 -1.1148  0.8852
  207MOL0     H27295   4.116  11.507   3.874  1.9523  0.7090  2.9765
  207MOL0     H27296   3.818  11.491   3.934 -0.4709 -2.7201  0.5790
  207MOL0     H27297   3.891  11.507   3.766 -0.5850 -1.8380 -0.9078
  207MOL0     H27298   3.970  11.294   3.973  1.5192 -0.4758 -0.4255
  207MOL0     H27299   4.011  11.287   3.801  0.5837 -2.5119  0.6837
  207MOL0     H27300   3.749  11.297   3.763 -0.8614 -4.6348 -1.9001
  207MOL0     H27301   3.744  11.240   3.931 -2.5512  0.0996 -2.3836
  207MOL0     H27302   3.911  11.074   3.764  0.0954  0.4191 -0.6607
  207MOL0     H27303   3.802  11.032   3.885  0.4563 -0.9186 -1.3607
  207MOL0     H27304   3.753  10.991   3.645  1.9700 -1.1133  2.2648
  207MOL0     H27305   3.694  11.162   3.628  1.7714  1.7024  3.5788
  207MOL0     H27306   4.179  11.670   4.272 -1.6051  0.3574 -1.5274
  207MOL0     H27307   4.239  11.803   4.468 -1.6346  0.3107 -0.4105
  207MOL0     H27308   4.139  12.356   4.693  0.8769  2.5074 -0.0968
  207MOL0     H27309   4.283  12.492   4.856  2.1305 -0.4878  1.0451
  207MOL0     H27310   5.497  11.666   4.210 -3.3832  0.4260  0.7587
  207MOL0     H27311   5.566  11.545   4.009 -0.9741 -0.4860 -4.2624
  207MOL0     H27312   5.851  11.237   3.739  0.6305 -3.2329  1.0739
  207MOL0     H27313   5.859  11.106   3.534  0.0680 -0.5949  2.2946
  207MOL0     H27314   5.799  10.880   3.450  1.3244 -2.8660 -1.9091
  207MOL0     H27315   5.816  10.974   3.292 -0.0640 -0.6920  0.1342
  207MOL0     H27316   5.660  10.845   3.186 -1.6605 -1.5541 -0.5747
  207MOL0     H27317   5.785  10.736   3.264  1.1221  2.1947 -0.2494
  207MOL0     H27318   5.488  10.776   3.364 -0.7463 -1.9016  0.1541
  207MOL0     H27319   5.624  10.694   3.447 -1.7617 -1.3473  1.5021
  207MOL0     H27320   5.505  10.613   3.175 -0.5271 -1.4105 -0.5190
  207MOL0     H27321   5.639  10.536   3.242 -1.2256  0.4809 -0.9099
  207MOL0     H27322   5.338  10.328   3.445 -0.0113  1.0011  2.4325
  207MOL0     H27323   5.441  11.042   3.532  0.4933  0.7761 -2.0658
  207MOL0     H27324   5.416  11.163   3.738  1.1247 -1.5094  0.6323
  208MOL0     O27325   8.110   6.462   2.522  0.0569  0.8358 -0.0288
  208MOL0     C27326   8.029   6.389   2.467 -0.4601 -0.4327  0.3026
  208MOL0     O27327   7.998   6.265   2.495  0.1175  0.4140 -0.3187
  208MOL0     C27328   8.024   6.214   2.621  0.2337  0.8542 -0.2976
  208MOL0     C27329   8.048   6.291   2.740 -0.7299  0.3200  0.0719
  208MOL0     C27330   8.068   6.232   2.861 -1.0680  0.3138 -0.0789
  208MOL0     C27331   8.093   6.092   2.870  0.1701 -0.5621 -0.9247
  208MOL0     O27332   8.098   6.054   2.999  0.0498  0.0810  0.7191
  208MOL0     C27333   7.977   6.023   3.079  0.1043 -0.3728 -0.5558
  208MOL0     C27334   7.944   5.870   3.080  1.2464  0.5071  0.1282
  208MOL0     C27335   7.816   5.835   3.156 -0.1358  0.1708 -0.6905
  208MOL0     C27336   7.834   5.714   3.227  0.6397  0.5531 -0.7337
  208MOL0     C27337   7.703   5.642   3.269  0.4861  1.1841  0.4170
  208MOL0     C27338   7.595   5.726   3.320  0.5653 -1.2055 -0.1612
  208MOL0     C27339   7.635   5.794   3.449  0.4230 -0.7212 -0.8653
  208MOL0     C27340   7.526   5.832   3.542 -0.2046 -0.1177 -0.3785
  208MOL0     N27341   7.468   5.964   3.518  0.3518 -1.0906  0.2519
  208MOL0     C27342   7.442   6.049   3.620 -1.2336 -0.8405 -0.7021
  208MOL0     C27343   7.408   6.170   3.560 -0.6645  0.8773 -0.2792
  208MOL0     C27344   7.380   6.301   3.619  0.8397 -1.4336 -0.1291
  208MOL0     C27345   7.450   6.306   3.750  0.0646  0.4851  0.4905
  208MOL0     C27346   7.448   6.448   3.808  0.2025 -0.4384 -0.3735
  208MOL0     C27347   7.439   6.457   3.959 -0.2862  0.6038 -0.4807
  208MOL0     O27348   7.544   6.395   4.020 -0.6325 -0.6132 -0.1652
  208MOL0     C27349   7.545   6.395   4.154  0.1560  0.5247 -0.3502
  208MOL0     C27350   7.449   6.447   4.243  0.0349  0.1605  0.4214
  208MOL0     C27351   7.469   6.448   4.379 -0.3395 -1.2884 -0.4259
  208MOL0     C27352   7.582   6.400   4.437 -0.8096  0.0240 -0.2266
  208MOL0     C27353   7.608   6.385   4.587  0.1783  1.1154 -0.1409
  208MOL0     O27354   7.737   6.370   4.633 -0.2521 -0.1997  0.3762
  208MOL0     C27355   7.758   6.349   4.767  0.0888 -0.1293 -0.9716
  208MOL0     C27356   7.844   6.243   4.804 -0.4290 -0.0631  0.8904
  208MOL0     C27357   7.872   6.215   4.938  0.7275  0.5428  0.0194
  208MOL0     C27358   7.812   6.297   5.038  0.5446  0.0416  0.1027
  208MOL0     O27359   7.833   6.261   5.170 -0.3653  0.0219 -0.6604
  208MOL0     C27360   7.910   6.365   5.232 -0.1450 -0.6048 -0.0211
  208MOL0     C27361   7.990   6.339   5.359 -0.4726  0.1941 -0.7746
  208MOL0     C27362   8.130   6.270   5.349 -0.1779  0.4579 -1.7855
  208MOL0     C27363   8.122   6.143   5.265  0.7777  0.4320  0.0898
  208MOL0     C27364   8.254   6.060   5.259  0.0107  0.2206  0.9864
  208MOL0     C27365   8.366   6.137   5.187  0.2757 -1.0209 -0.3501
  208MOL0     C27366   8.339   6.172   5.043 -0.9259 -0.0753 -0.2530
  208MOL0     C27367   8.469   6.216   4.966  0.0988 -0.2234 -0.3606
  208MOL0    Cl27368   8.424   6.221   4.795 -0.3879 -0.1949 -0.3154
  208MOL0     C27369   7.736   6.411   5.004 -0.2590 -0.0275  0.3390
  208MOL0     C27370   7.720   6.443   4.869  0.5104  0.7253 -0.1699
  208MOL0     O27371   7.509   6.381   4.657  0.5648 -0.6356  0.5610
  208MOL0     C27372   7.674   6.339   4.350 -0.3830 -0.6199  1.5649
  208MOL0     C27373   7.662   6.349   4.212  0.0044  1.0309  0.2527
  208MOL0     N27374   7.400   6.149   3.429  0.0201 -0.9368  0.1689
  208MOL0     N27375   7.440   6.027   3.403 -0.0020 -0.4645 -0.2123
  208MOL0     C27376   8.074   6.012   2.754 -0.4662  0.5800 -0.1178
  208MOL0     C27377   8.046   6.074   2.634  0.3029 -0.0207  1.4023
  208MOL0     C27378   7.963   6.445   2.346  0.2236 -0.2229 -0.7045
  208MOL0     C27379   7.848   6.391   2.287 -0.5009  0.2093 -0.0302
  208MOL0     C27380   7.803   6.448   2.174  0.2360  0.2765  1.5848
  208MOL0     C27381   7.851   6.561   2.126  0.0903  0.3291  0.1830
  208MOL0     O27382   7.799   6.625   2.015 -0.3583  0.2861  0.2646
  208MOL0     C27383   7.864   6.718   1.920 -0.1761 -0.7726 -0.3221
  208MOL0     C27384   7.779   6.741   1.797  0.3414 -0.5724  0.3321
  208MOL0     C27385   7.851   6.823   1.700  0.3214  0.2551 -0.6001
  208MOL0     C27386   7.761   6.878   1.585 -0.0201  0.0510  0.5490
  208MOL0     C27387   7.675   6.785   1.500 -0.5909  0.1007  0.8853
  208MOL0     C27388   7.627   6.696   1.426 -0.4166 -0.9484 -0.7227
  208MOL0     C27389   7.955   6.619   2.192  0.1168  0.0138 -0.6199
  208MOL0     C27390   8.021   6.563   2.302 -0.6262  0.0418  0.4578
  208MOL0     H27391   8.036   6.397   2.724  3.4990  0.6635 -2.2623
  208MOL0     H27392   8.079   6.295   2.949  1.5462  1.8274 -1.3789
  208MOL0     H27393   7.893   6.085   3.045  1.8950  2.2956 -0.3534
  208MOL0     H27394   7.994   6.056   3.182 -0.2808  2.1201 -1.2363
  208MOL0     H27395   8.023   5.808   3.125  0.0677 -1.5907 -0.5693
  208MOL0     H27396   7.926   5.831   2.980 -1.7110  3.1058 -0.4978
  208MOL0     H27397   7.734   5.832   3.083 -2.1677  2.2718  1.3481
  208MOL0     H27398   7.793   5.908   3.234 -0.5558 -0.1316 -0.5326
  208MOL0     H27399   7.894   5.644   3.168 -0.9675 -1.0849 -0.5297
  208MOL0     H27400   7.888   5.739   3.319  0.5838  3.2313 -1.3459
  208MOL0     H27401   7.726   5.564   3.342  4.4733  1.2804 -0.5130
  208MOL0     H27402   7.654   5.584   3.190 -2.8269  0.2202  2.9289
  208MOL0     H27403   7.505   5.667   3.336  0.7010 -1.0394  1.4326
  208MOL0     H27404   7.560   5.805   3.254  0.0525 -0.2825  1.1723
  208MOL0     H27405   7.701   5.727   3.504  1.7108  0.7156 -0.5916
  208MOL0     H27406   7.698   5.882   3.431  0.8637 -0.5962  1.0788
  208MOL0     H27407   7.573   5.836   3.641 -0.8490 -1.1470 -0.0040
  208MOL0     H27408   7.452   5.751   3.549 -0.1723 -0.0859  0.4132
  208MOL0     H27409   7.442   6.023   3.725 -1.4782  0.5643 -0.3311
  208MOL0     H27410   7.271   6.311   3.627  1.0085 -1.2179  3.4486
  208MOL0     H27411   7.411   6.385   3.556 -0.8969 -0.6606 -0.0065
  208MOL0     H27412   7.552   6.266   3.744 -0.5631 -2.1340  3.9596
  208MOL0     H27413   7.398   6.234   3.813 -1.7450 -0.9394 -2.4053
  208MOL0     H27414   7.532   6.514   3.786  1.0023 -0.8418  1.3108
  208MOL0     H27415   7.358   6.493   3.765  1.1312  1.2544 -0.6149
  208MOL0     H27416   7.345   6.402   3.972  0.3347 -0.6481 -1.0693
  208MOL0     H27417   7.433   6.564   3.980  1.0635  0.4232  0.9679
  208MOL0     H27418   7.349   6.475   4.211 -0.2314  1.7785  2.4265
  208MOL0     H27419   7.394   6.495   4.443 -1.1327 -0.0267 -2.1908
  208MOL0     H27420   7.887   6.177   4.730 -0.0103 -2.1660  2.9022
  208MOL0     H27421   7.932   6.131   4.971  1.0391  1.1223  0.9673
  208MOL0     H27422   7.841   6.446   5.255  1.1576  0.3706  0.5767
  208MOL0     H27423   7.970   6.418   5.157 -0.7839  0.7426  0.3879
  208MOL0     H27424   7.932   6.274   5.424  0.3561  1.2242  1.0677
  208MOL0     H27425   8.000   6.439   5.403  5.4585 -0.7381  0.7863
  208MOL0     H27426   8.162   6.241   5.449 -2.3519  1.2535 -0.8079
  208MOL0     H27427   8.194   6.338   5.291  1.0796 -1.5259 -2.8547
  208MOL0     H27428   8.036   6.085   5.302 -1.6932  4.5475  1.5177
  208MOL0     H27429   8.094   6.159   5.160  0.4831  1.0868  0.2640
  208MOL0     H27430   8.245   5.960   5.215  0.3267 -1.2780  4.0702
  208MOL0     H27431   8.291   6.048   5.361  4.4056 -0.9990 -0.4985
  208MOL0     H27432   8.460   6.080   5.192  1.1565  0.1358 -2.4617
  208MOL0     H27433   8.381   6.232   5.239  0.0462 -0.6320 -0.9770
  208MOL0     H27434   8.308   6.076   5.001 -0.4029 -0.7997  0.9483
  208MOL0     H27435   8.265   6.252   5.035 -0.1828  0.8111  1.1689
  208MOL0     H27436   8.545   6.138   4.981  0.1878  0.2862  2.5815
  208MOL0     H27437   8.498   6.311   5.012 -0.5388  0.3068 -1.0418
  208MOL0     H27438   7.691   6.469   5.084 -2.8263 -2.1884  0.6486
  208MOL0     H27439   7.658   6.530   4.845  2.8472  3.5314  2.9798
  208MOL0     H27440   7.762   6.286   4.385  1.6264 -0.2990 -2.3915
  208MOL0     H27441   7.738   6.310   4.145 -1.2909  2.2536 -2.0632
  208MOL0     H27442   8.071   5.903   2.749  0.2379  0.5519 -0.0385
  208MOL0     H27443   8.030   6.004   2.553 -0.5965 -1.3888  2.7044
  208MOL0     H27444   7.809   6.296   2.324  1.6370 -0.7568 -0.0741
  208MOL0     H27445   7.726   6.392   2.122 -0.5867  2.4464  0.3274
  208MOL0     H27446   7.964   6.677   1.902  1.3518  1.7284  1.7091
  208MOL0     H27447   7.880   6.813   1.972  1.7907 -0.9571 -0.5065
  208MOL0     H27448   7.753   6.647   1.747  0.2777  0.4644 -1.7040
  208MOL0     H27449   7.679   6.780   1.819  0.4584 -0.6612  1.0195
  208MOL0     H27450   7.927   6.764   1.649 -0.6268  1.3192 -3.4925
  208MOL0     H27451   7.895   6.907   1.754  0.7317 -1.6670  2.2329
  208MOL0     H27452   7.702   6.962   1.623 -1.1171  0.8484 -2.5577
  208MOL0     H27453   7.822   6.921   1.505 -2.8149  2.9433 -0.2386
  208MOL0     H27454   7.603   6.620   1.355  2.0868 -0.4860 -2.1869
  208MOL0     H27455   7.999   6.710   2.153  3.5522 -0.4668  1.6734
  208MOL0     H27456   8.092   6.630   2.347  0.1261 -2.3100  2.9988
  209MOL0     O27457   0.726   0.877  11.089  0.2263 -0.8877  0.4714
  209MOL0     C27458   0.631   0.893  11.165 -0.4610 -0.4575  0.9948
  209MOL0     O27459   0.582   0.804  11.249 -0.5235  0.4024 -0.0713
  209MOL0     C27460   0.647   0.684  11.248 -0.2483  0.2729  0.4565
  209MOL0     C27461   0.646   0.592  11.135  0.0193  0.0630 -0.3585
  209MOL0     C27462   0.713   0.465  11.145  0.2630  0.6660 -0.6549
  209MOL0     C27463   0.801   0.433  11.253 -0.4611  0.7498  0.2098
  209MOL0     O27464   0.873   0.318  11.264 -0.4109  0.3106  0.1132
  209MOL0     C27465   0.839   0.204  11.185  0.5778 -0.3792 -0.6666
  209MOL0     C27466   0.947   0.097  11.201 -0.0661 -0.8509  0.8537
  209MOL0     C27467   1.017   0.076  11.065 -0.7288  0.8306 -0.7953
  209MOL0     C27468   1.115  -0.041  11.062  0.2875  0.0527  0.1720
  209MOL0     C27469   1.047  -0.179  11.046  0.5169 -0.6556 -0.2910
  209MOL0     C27470   1.143  -0.283  11.082 -0.7982  0.8806 -0.7932
  209MOL0     C27471   1.109  -0.434  11.059  0.0321  1.1354  0.4509
  209MOL0     C27472   0.967  -0.483  11.098 -0.5594 -0.9201  0.2852
  209MOL0     N27473   0.929  -0.437  11.236 -0.0733  0.0926  0.5930
  209MOL0     C27474   0.997  -0.472  11.350 -0.3038 -0.8760  0.6559
  209MOL0     C27475   0.922  -0.418  11.449 -0.5976  0.8282 -0.3562
  209MOL0     C27476   0.958  -0.447  11.596 -0.4640  0.6672  0.2925
  209MOL0     C27477   1.069  -0.359  11.646 -0.6248 -0.5215  0.0473
  209MOL0     C27478   1.021  -0.215  11.652 -0.1945  0.3633 -0.2398
  209MOL0     C27479   1.131  -0.115  11.676 -0.0482 -0.7353 -0.7345
  209MOL0     O27480   1.235  -0.133  11.586  0.4600 -0.2220  0.0425
  209MOL0     C27481   1.274  -0.044  11.491 -0.4099 -0.2938  0.4656
  209MOL0     C27482   1.401  -0.069  11.436  0.0342  0.0855  0.2100
  209MOL0     C27483   1.447   0.016  11.329  0.1557  0.9202  0.1971
  209MOL0     C27484   1.391   0.138  11.311 -0.6225 -0.0141 -0.8739
  209MOL0     C27485   1.459   0.246  11.232  0.1437 -0.3283  0.1939
  209MOL0     O27486   1.403   0.373  11.230 -0.0946  0.6404  0.4735
  209MOL0     C27487   1.471   0.476  11.171 -0.0013 -0.4679 -1.0889
  209MOL0     C27488   1.540   0.470  11.049  0.2826  0.1736  1.2923
  209MOL0     C27489   1.608   0.576  10.983  0.6551  0.0794 -0.2078
  209MOL0     C27490   1.597   0.696  11.047 -0.5860 -0.6037  0.6423
  209MOL0     O27491   1.660   0.795  10.989  0.1283 -1.1316  0.6437
  209MOL0     C27492   1.566   0.888  10.945 -0.6282 -0.3483  0.1261
  209MOL0     C27493   1.596   1.035  10.989 -0.1340 -0.0308  0.2660
  209MOL0     C27494   1.558   1.067  11.136 -0.2624 -0.3447  0.4787
  209MOL0     C27495   1.570   1.217  11.168  0.1175 -0.4025 -0.1264
  209MOL0     C27496   1.436   1.280  11.206  0.0035  0.3536  0.2750
  209MOL0     C27497   1.435   1.430  11.194  1.1894 -1.0051 -0.4664
  209MOL0     C27498   1.288   1.474  11.206 -0.0877 -0.9261  0.7989
  209MOL0     C27499   1.265   1.624  11.143  0.8751  0.6247 -0.0574
  209MOL0    Cl27500   1.410   1.715  11.175  0.0634 -0.5341 -0.1322
  209MOL0     C27501   1.531   0.705  11.169  0.5664 -0.3289 -0.5511
  209MOL0     C27502   1.468   0.605  11.234  0.6226  0.4049 -0.5169
  209MOL0     O27503   1.568   0.222  11.185  0.4139 -0.6363 -0.0196
  209MOL0     C27504   1.270   0.160  11.361 -0.3350  0.8276 -0.6595
  209MOL0     C27505   1.218   0.076  11.456  0.1161  1.5980 -0.7877
  209MOL0     N27506   0.813  -0.351  11.391  0.2449 -0.8123 -0.2909
  209MOL0     N27507   0.835  -0.353  11.265 -0.3000  0.4395 -0.1717
  209MOL0     C27508   0.805   0.522  11.355  0.0956 -1.2427 -0.7183
  209MOL0     C27509   0.728   0.639  11.358 -0.1605 -0.0478  0.4712
  209MOL0     C27510   0.583   1.039  11.165 -0.1519 -0.1876  1.0597
  209MOL0     C27511   0.650   1.142  11.095  0.3640 -0.1654 -0.3842
  209MOL0     C27512   0.600   1.274  11.087 -0.1675  0.0157 -0.5554
  209MOL0     C27513   0.478   1.302  11.158  0.7437  0.4238 -0.4590
  209MOL0     O27514   0.406   1.419  11.152 -0.0581 -0.1437  0.7521
  209MOL0     C27515   0.429   1.513  11.043  0.3387  0.4260  0.0069
  209MOL0     C27516   0.352   1.649  11.053  0.0173 -0.7836  0.1069
  209MOL0     C27517   0.398   1.750  11.158 -0.1215 -0.4505 -0.3494
  209MOL0     C27518   0.312   1.875  11.185  0.4344  0.1667 -0.2916
  209MOL0     C27519   0.247   1.926  11.057  0.1944 -0.0616  0.3033
  209MOL0     C27520   0.195   1.952  10.951 -0.9075  0.0372 -0.5047
  209MOL0     C27521   0.411   1.197  11.230 -0.6225 -1.0706 -0.2785
  209MOL0     C27522   0.471   1.069  11.243  0.4673  0.0086  0.2585
  209MOL0     H27523   0.589   0.604  11.043  0.4643 -1.5084 -0.8734
  209MOL0     H27524   0.694   0.406  11.056 -1.8046 -0.2917  0.3634
  209MOL0     H27525   0.825   0.229  11.080 -4.8694  2.7722  0.3953
  209MOL0     H27526   0.745   0.162  11.222  1.3449 -1.2471  0.3374
  209MOL0     H27527   0.914  -0.004  11.227  2.5549 -2.0905 -0.2706
  209MOL0     H27528   1.016   0.108  11.285  1.9667 -2.7964 -0.4440
  209MOL0     H27529   1.065   0.171  11.041  0.8122 -0.3209 -2.6146
  209MOL0     H27530   0.950   0.058  10.980  0.9753  1.6867 -2.3827
  209MOL0     H27531   1.182  -0.022  10.978  1.7930 -0.1386  1.2857
  209MOL0     H27532   1.169  -0.041  11.157 -1.8100  0.0065  1.4282
  209MOL0     H27533   1.015  -0.186  10.942  0.7448 -1.8952 -0.2965
  209MOL0     H27534   0.961  -0.174  11.113  0.1451  1.3584 -0.8492
  209MOL0     H27535   1.169  -0.284  11.188 -2.8910 -1.5749 -0.1965
  209MOL0     H27536   1.232  -0.251  11.028 -0.2025 -0.5155 -0.6689
  209MOL0     H27537   1.120  -0.468  10.956  1.2396 -0.7862  1.1723
  209MOL0     H27538   1.179  -0.489  11.122  0.6253  3.0526  1.5296
  209MOL0     H27539   0.961  -0.590  11.079  1.5140 -0.5779 -3.0518
  209MOL0     H27540   0.880  -0.445  11.043 -1.5299 -0.1162  2.2491
  209MOL0     H27541   1.096  -0.518  11.353 -0.4942 -1.2776  0.8538
  209MOL0     H27542   0.993  -0.550  11.609  0.4301  0.9801  0.4603
  209MOL0     H27543   0.868  -0.435  11.657 -2.2031  4.7434 -2.5718
  209MOL0     H27544   1.159  -0.364  11.584  0.6068  0.4499  1.6711
  209MOL0     H27545   1.102  -0.398  11.742  0.4314 -2.5131 -1.0694
  209MOL0     H27546   0.976  -0.198  11.554 -1.2152  0.9848  0.3174
  209MOL0     H27547   0.941  -0.204  11.726  1.2186  3.1739  1.0643
  209MOL0     H27548   1.175  -0.134  11.774  1.5885 -0.0702 -1.2972
  209MOL0     H27549   1.090  -0.014  11.672 -0.5256 -0.9031 -0.2266
  209MOL0     H27550   1.443  -0.164  11.469 -3.4752 -1.3383  0.9395
  209MOL0     H27551   1.531  -0.015  11.267  0.9077  1.5408  0.8813
  209MOL0     H27552   1.526   0.388  10.978 -0.4478  1.1871  0.2307
  209MOL0     H27553   1.652   0.571  10.884 -0.6628  0.7579 -0.8467
  209MOL0     H27554   1.464   0.868  10.981 -1.1939  0.7118 -0.8256
  209MOL0     H27555   1.562   0.882  10.836 -1.1039 -2.2752  0.1986
  209MOL0     H27556   1.536   1.107  10.932  2.5439  0.5586 -1.9967
  209MOL0     H27557   1.701   1.049  10.963 -0.2142  0.4246  0.1830
  209MOL0     H27558   1.621   1.006  11.202  1.3664 -0.7502 -1.3476
  209MOL0     H27559   1.457   1.026  11.147  0.1626 -1.4968  0.3007
  209MOL0     H27560   1.638   1.206  11.253  1.6261  0.1299 -1.2267
  209MOL0     H27561   1.624   1.275  11.093 -3.1785  3.3695  0.1355
  209MOL0     H27562   1.410   1.248  11.307 -2.0965  1.2595  0.0615
  209MOL0     H27563   1.366   1.226  11.142  2.1633 -0.0640 -1.9135
  209MOL0     H27564   1.476   1.453  11.095 -1.0283  0.1586 -1.1713
  209MOL0     H27565   1.492   1.473  11.277  2.0025 -0.6497 -1.1921
  209MOL0     H27566   1.215   1.405  11.163  0.0807 -1.0019  0.6306
  209MOL0     H27567   1.271   1.491  11.313  1.8154  0.7225  0.9033
  209MOL0     H27568   1.189   1.671  11.206 -0.7137 -2.4550  0.5102
  209MOL0     H27569   1.233   1.616  11.039  1.5763 -3.9580 -0.0951
  209MOL0     H27570   1.536   0.804  11.214 -0.8568 -0.6863  0.4461
  209MOL0     H27571   1.413   0.630  11.325 -0.1408 -2.3811 -0.1160
  209MOL0     H27572   1.217   0.255  11.364  0.0621  1.0416 -0.1841
  209MOL0     H27573   1.119   0.098  11.493  0.1592 -0.2987  0.6441
  209MOL0     H27574   0.878   0.501  11.432  0.8019 -1.8506 -1.5382
  209MOL0     H27575   0.732   0.711  11.439  0.0353 -0.1541  0.5560
  209MOL0     H27576   0.738   1.106  11.042  2.4654  1.2740  1.9079
  209MOL0     H27577   0.645   1.363  11.045 -2.6064  0.6447 -1.9910
  209MOL0     H27578   0.398   1.447  10.962 -2.3717  0.1199  1.1956
  209MOL0     H27579   0.537   1.530  11.044  0.4504 -0.1899  1.3854
  209MOL0     H27580   0.349   1.707  10.960 -1.2556 -0.6621  0.2024
  209MOL0     H27581   0.244   1.630  11.060 -1.6051  2.3161 -7.2391
  209MOL0     H27582   0.495   1.788  11.126 -0.5546 -0.0456 -1.2032
  209MOL0     H27583   0.417   1.700  11.254  0.0321  1.5337  0.7177
  209MOL0     H27584   0.229   1.835  11.244  1.5706 -1.9761 -0.0153
  209MOL0     H27585   0.364   1.954  11.240 -0.8029  1.2423 -0.6366
  209MOL0     H27586   0.147   1.978  10.859 -1.4168  1.2243  0.0747
  209MOL0     H27587   0.338   1.226  11.305 -0.0297 -1.7221  0.5698
  209MOL0     H27588   0.418   1.003  11.311  1.8482 -0.8560  0.5323
  210MOL0     O27589  10.925  11.285   6.887 -0.6480  0.1731  0.1619
  210MOL0     C27590  10.918  11.216   6.987 -0.1878  0.2113  0.2250
  210MOL0     O27591  11.005  11.116   7.006 -0.4660  0.7955 -0.9130
  210MOL0     C27592  11.107  11.080   6.921 -0.4548  0.5064 -0.1041
  210MOL0     C27593  11.132  10.941   6.913 -0.5521 -0.2319  0.5372
  210MOL0     C27594  11.231  10.884   6.830 -0.1596  0.8868  0.2191
  210MOL0     C27595  11.307  10.970   6.746  0.0005 -0.3325  0.0257
  210MOL0     O27596  11.404  10.918   6.659 -0.1311  0.1120  0.1293
  210MOL0     C27597  11.403  10.780   6.634  0.4309  0.8665  0.5515
  210MOL0     C27598  11.504  10.761   6.522 -0.3074 -0.3092  0.1825
  210MOL0     C27599  11.463  10.633   6.441 -0.3134 -0.2648 -0.5673
  210MOL0     C27600  11.574  10.601   6.342 -0.6644 -0.5038  0.3179
  210MOL0     C27601  11.539  10.478   6.250 -0.2281  0.0193 -0.1508
  210MOL0     C27602  11.573  10.345   6.313 -0.1360  0.0798 -0.2698
  210MOL0     C27603  11.529  10.221   6.229 -0.0454  0.1351  0.2555
  210MOL0     C27604  11.575  10.221   6.085 -0.4933  0.6130 -1.0295
  210MOL0     N27605  11.721  10.184   6.070 -0.4012 -0.2131 -0.3772
  210MOL0     C27606  11.822  10.274   6.051  0.2105 -0.5812 -0.1886
  210MOL0     C27607  11.943  10.208   6.055 -0.7933 -0.2205  0.5385
  210MOL0     C27608  12.075  10.279   6.037  0.0643 -0.3409  1.3472
  210MOL0     C27609  12.123  10.231   5.895 -0.5256  0.7293  0.6543
  210MOL0     C27610  12.264  10.266   5.852 -0.5284  0.6103  0.5860
  210MOL0     C27611  12.297  10.415   5.867 -0.1948  0.1577  0.3164
  210MOL0     O27612  12.414  10.451   5.789  0.2775 -0.3691  0.2277
  210MOL0     C27613  12.452  10.580   5.757  0.6589 -0.2887 -0.6961
  210MOL0     C27614  12.510  10.598   5.638  0.1601  0.0272 -0.0956
  210MOL0     C27615  12.550  10.722   5.596  0.3266  0.0213 -0.6472
  210MOL0     C27616  12.537  10.835   5.680 -0.4441 -0.1921  0.2912
  210MOL0     C27617  12.570  10.969   5.630  0.3153 -0.3719  0.3984
  210MOL0     O27618  12.630  10.984   5.512  0.2593  0.4385 -0.0634
  210MOL0     C27619  12.633  11.108   5.448  0.0596 -0.4813 -0.1007
  210MOL0     C27620  12.759  11.162   5.409  0.6681 -0.4893  0.5545
  210MOL0     C27621  12.773  11.284   5.347 -1.1594 -0.3389 -0.3920
  210MOL0     C27622  12.662  11.372   5.313 -0.2596 -0.3603  0.0256
  210MOL0     O27623  12.672  11.497   5.260  0.2126 -0.6521  0.0894
  210MOL0     C27624  12.797  11.526   5.203  0.3589  0.4314 -0.0285
  210MOL0     C27625  12.766  11.646   5.122  0.3870  0.8487  0.5996
  210MOL0     C27626  12.710  11.757   5.215  0.2709  0.0723  0.4847
  210MOL0     C27627  12.710  11.893   5.145 -0.6144 -0.9158  0.0940
  210MOL0     C27628  12.592  11.994   5.190 -0.9393 -0.1577  0.2878
  210MOL0     C27629  12.579  12.103   5.078 -0.0956 -0.6665  0.6639
  210MOL0     C27630  12.532  12.234   5.143 -0.2901  0.0497  0.5233
  210MOL0     C27631  12.387  12.229   5.192  0.4308 -0.2883 -0.0842
  210MOL0    Cl27632  12.353  12.381   5.266  0.1462 -0.4609  0.2349
  210MOL0     C27633  12.535  11.317   5.352 -0.4148  0.8779  0.2513
  210MOL0     C27634  12.523  11.188   5.416 -0.6601 -0.3680 -0.9900
  210MOL0     O27635  12.549  11.068   5.706 -0.0496  0.3560  0.2335
  210MOL0     C27636  12.472  10.818   5.807  0.2409 -0.0610  0.3864
  210MOL0     C27637  12.443  10.688   5.846  0.0212  0.3794  0.6365
  210MOL0     N27638  11.917  10.077   6.093  1.0780  0.9490 -0.2067
  210MOL0     N27639  11.788  10.071   6.092 -0.2088 -0.5152  0.1702
  210MOL0     C27640  11.280  11.108   6.744  0.0118  0.4298  0.4458
  210MOL0     C27641  11.187  11.162   6.834  0.0866 -0.1610 -0.5042
  210MOL0     C27642  10.836  11.265   7.093 -0.1676 -0.6932 -0.8817
  210MOL0     C27643  10.752  11.373   7.091 -0.5955 -0.5713  0.1088
  210MOL0     C27644  10.682  11.420   7.198 -1.2506 -0.0873 -0.2664
  210MOL0     C27645  10.679  11.349   7.316  0.4770 -0.0782 -0.3622
  210MOL0     O27646  10.610  11.413   7.425  0.0631 -0.1440  0.3392
  210MOL0     C27647  10.602  11.351   7.555 -0.7141 -0.1081 -0.2155
  210MOL0     C27648  10.494  11.430   7.632 -0.1672  1.3134 -0.5474
  210MOL0     C27649  10.470  11.355   7.765 -0.0881 -0.2395 -0.5431
  210MOL0     C27650  10.338  11.395   7.834 -0.7987 -0.5984 -0.6894
  210MOL0     C27651  10.222  11.327   7.782  0.3060 -0.8632  0.3251
  210MOL0     C27652  10.115  11.265   7.741  0.4314 -0.1143 -0.3954
  210MOL0     C27653  10.752  11.233   7.322  0.6449 -0.2852 -0.0858
  210MOL0     C27654  10.842  11.194   7.216  0.2075  0.5772 -0.3194
  210MOL0     H27655  11.074  10.863   6.963 -2.8877  2.1083  1.6955
  210MOL0     H27656  11.250  10.777   6.837  0.6819  0.9934 -0.2955
  210MOL0     H27657  11.309  10.761   6.582 -0.1652 -0.1806  1.9735
  210MOL0     H27658  11.418  10.718   6.723 -0.4365  1.3224  1.0269
  210MOL0     H27659  11.603  10.744   6.566  0.7039 -1.3149 -2.2892
  210MOL0     H27660  11.505  10.846   6.453 -0.9086 -0.8509 -0.5127
  210MOL0     H27661  11.370  10.645   6.386  0.1907 -0.5553 -1.5036
  210MOL0     H27662  11.456  10.547   6.508  4.0734 -0.1406  0.3664
  210MOL0     H27663  11.568  10.682   6.269 -1.6233  0.3216  1.2779
  210MOL0     H27664  11.671  10.573   6.383 -1.8983 -3.7286  1.3684
  210MOL0     H27665  11.594  10.493   6.156 -0.1709 -0.5157 -0.2042
  210MOL0     H27666  11.432  10.478   6.227 -0.3676  1.2743  0.4256
  210MOL0     H27667  11.520  10.336   6.408  1.9463 -3.0543  0.7327
  210MOL0     H27668  11.677  10.344   6.347  0.2972  3.5270 -1.1493
  210MOL0     H27669  11.570  10.129   6.272  2.2875  0.4675 -1.0913
  210MOL0     H27670  11.419  10.215   6.227  0.0085 -1.3126  0.5943
  210MOL0     H27671  11.550  10.316   6.037 -1.0859  1.3902  0.7468
  210MOL0     H27672  11.515  10.141   6.040 -2.7434  0.7365  1.5225
  210MOL0     H27673  11.805  10.380   6.041  1.6249 -0.3197 -0.0940
  210MOL0     H27674  12.153  10.258   6.111  1.2566  0.6846  0.4244
  210MOL0     H27675  12.060  10.387   6.034 -1.2366 -0.4480 -3.3051
  210MOL0     H27676  12.050  10.276   5.827 -2.7992  1.3562  3.3127
  210MOL0     H27677  12.110  10.122   5.896 -0.4716  0.7248  1.5146
  210MOL0     H27678  12.321  10.197   5.915 -1.5625  1.3514  2.4112
  210MOL0     H27679  12.281  10.238   5.748 -1.9869 -1.1261  0.7586
  210MOL0     H27680  12.309  10.443   5.972 -1.5905  0.3430  0.4543
  210MOL0     H27681  12.219  10.486   5.839  2.9705  2.8006 -2.6738
  210MOL0     H27682  12.511  10.514   5.569  2.5042  1.9209 -2.5888
  210MOL0     H27683  12.595  10.748   5.501  0.9853  3.0771  0.4115
  210MOL0     H27684  12.843  11.106   5.447 -0.4208  1.2149  6.6381
  210MOL0     H27685  12.873  11.325   5.335 -0.1755 -2.0788  1.3200
  210MOL0     H27686  12.842  11.439   5.153 -0.7471  0.4315 -1.0792
  210MOL0     H27687  12.866  11.558   5.281  0.5300  1.5953 -0.6248
  210MOL0     H27688  12.701  11.609   5.042 -2.8957  1.3737  2.7954
  210MOL0     H27689  12.862  11.681   5.084  0.6521  1.8250  2.0876
  210MOL0     H27690  12.763  11.777   5.309  0.6083 -1.2326  0.5988
  210MOL0     H27691  12.608  11.728   5.241  0.4815 -2.0794 -0.8482
  210MOL0     H27692  12.808  11.936   5.165  0.0092 -2.7720  1.2672
  210MOL0     H27693  12.698  11.880   5.037 -0.0508  3.4552 -0.6664
  210MOL0     H27694  12.603  12.039   5.289 -3.8015 -2.3186  1.7110
  210MOL0     H27695  12.494  11.946   5.195 -1.1138  0.3296  3.0345
  210MOL0     H27696  12.515  12.070   4.995  1.4919 -1.9099 -0.1196
  210MOL0     H27697  12.679  12.112   5.035  1.4536 -2.1161  3.6599
  210MOL0     H27698  12.601  12.264   5.223  1.0719  0.5458 -0.7794
  210MOL0     H27699  12.534  12.314   5.068  0.1099  0.4067  0.9050
  210MOL0     H27700  12.379  12.146   5.262  0.9307 -0.2021  0.0800
  210MOL0     H27701  12.309  12.212   5.117 -1.7122  0.8338  1.7702
  210MOL0     H27702  12.449  11.379   5.327 -2.3028 -1.5661  0.2885
  210MOL0     H27703  12.428  11.157   5.457  0.0645 -0.3118  0.7850
  210MOL0     H27704  12.445  10.896   5.877 -1.3319 -0.2230 -0.0022
  210MOL0     H27705  12.386  10.667   5.935  2.1145  2.8176  2.7065
  210MOL0     H27706  11.339  11.180   6.688 -2.5358  3.6826  1.6140
  210MOL0     H27707  11.172  11.269   6.846 -1.5345 -0.2812 -1.2668
  210MOL0     H27708  10.763  11.440   7.007 -1.4543  2.1307  2.0329
  210MOL0     H27709  10.630  11.514   7.182 -2.6138 -1.2519 -3.5034
  210MOL0     H27710  10.695  11.378   7.606  0.5293  4.2825 -4.0871
  210MOL0     H27711  10.578  11.244   7.547  0.7020 -0.2797 -2.8986
  210MOL0     H27712  10.514  11.537   7.636 -1.2556  1.5677 -1.3721
  210MOL0     H27713  10.397  11.438   7.583  0.1462 -0.9792 -1.6589
  210MOL0     H27714  10.551  11.366   7.838 -0.8918  0.3650  0.2903
  210MOL0     H27715  10.441  11.251   7.749 -2.3914 -0.2262  2.5204
  210MOL0     H27716  10.346  11.370   7.940  0.2259  5.0495  0.8966
  210MOL0     H27717  10.324  11.504   7.831 -0.2936 -0.5032  0.1339
  210MOL0     H27718  10.022  11.218   7.713 -0.3532  0.2957  1.3988
  210MOL0     H27719  10.754  11.170   7.410 -0.4239  2.7408  2.2631
  210MOL0     H27720  10.902  11.105   7.229 -0.9151 -0.1567  0.0617
  211MOL0     O27721   5.723   7.607   5.608  0.5965  0.1367 -0.2583
  211MOL0     C27722   5.830   7.652   5.574 -1.0940  0.5673  1.8663
  211MOL0     O27723   5.953   7.589   5.545  0.8587  0.6583  0.2664
  211MOL0     C27724   5.963   7.448   5.553  0.2765 -0.6163  0.0191
  211MOL0     C27725   6.096   7.396   5.524 -0.6445 -0.1750  0.1408
  211MOL0     C27726   6.128   7.257   5.524 -0.0481  0.6647  0.1012
  211MOL0     C27727   6.047   7.166   5.585  0.5054 -0.4012 -0.8279
  211MOL0     O27728   6.091   7.036   5.593 -0.4321 -0.2306 -0.2463
  211MOL0     C27729   5.992   6.942   5.647 -0.8757  0.0715 -0.4380
  211MOL0     C27730   6.071   6.820   5.679  0.1525 -0.5396 -0.2493
  211MOL0     C27731   6.147   6.762   5.559 -0.9025 -0.1409  0.4326
  211MOL0     C27732   6.048   6.723   5.440 -0.2775 -0.2049 -0.1570
  211MOL0     C27733   5.968   6.597   5.477  0.6288  0.5636 -0.0674
  211MOL0     C27734   6.055   6.471   5.536  0.1710 -0.0775  1.2928
  211MOL0     C27735   6.158   6.426   5.433 -0.8057 -1.0516 -0.6240
  211MOL0     C27736   6.266   6.331   5.503 -0.4030  0.1213  0.5208
  211MOL0     N27737   6.366   6.292   5.404 -1.2345  0.3765  0.1643
  211MOL0     C27738   6.384   6.172   5.332  0.4961 -1.0885  0.2120
  211MOL0     C27739   6.506   6.166   5.272 -0.0803 -0.1815  0.4711
  211MOL0     C27740   6.550   6.055   5.174  0.4204 -0.0602  0.2513
  211MOL0     C27741   6.695   6.014   5.208  0.3130  0.2162 -0.1699
  211MOL0     C27742   6.723   5.869   5.183 -0.1586  0.6109  0.4164
  211MOL0     C27743   6.720   5.852   5.032  0.6555 -0.0541  0.0612
  211MOL0     O27744   6.798   5.740   4.986  0.2261  0.2106 -1.1432
  211MOL0     C27745   6.724   5.622   4.999 -0.8155  0.0488 -0.6049
  211MOL0     C27746   6.771   5.530   5.094  0.3075 -0.0223 -0.6794
  211MOL0     C27747   6.715   5.400   5.097  0.0749  0.7456 -0.4467
  211MOL0     C27748   6.627   5.354   4.993  0.0411 -0.0789 -0.6571
  211MOL0     C27749   6.576   5.225   5.003  0.2770  1.1227  0.5251
  211MOL0     O27750   6.601   5.140   5.108  0.1901  0.4371  1.0669
  211MOL0     C27751   6.572   5.011   5.090  0.0334  0.3431  0.4010
  211MOL0     C27752   6.521   4.943   5.210  0.1322  0.0203 -0.0164
  211MOL0     C27753   6.500   4.808   5.218  0.6826  0.8946  0.3086
  211MOL0     C27754   6.515   4.727   5.108  0.8335  0.4117  1.0470
  211MOL0     O27755   6.466   4.595   5.089  0.3120 -0.0928  0.3522
  211MOL0     C27756   6.441   4.520   5.211  0.4880 -0.7344  0.2931
  211MOL0     C27757   6.388   4.387   5.166  0.3166 -0.6451  0.1993
  211MOL0     C27758   6.500   4.299   5.117 -0.5878  0.4026 -0.6927
  211MOL0     C27759   6.469   4.152   5.135 -0.2005 -0.1376 -0.1602
  211MOL0     C27760   6.581   4.057   5.102 -0.6084 -0.4969 -0.7642
  211MOL0     C27761   6.564   3.920   5.175 -0.5908 -0.2244 -0.2755
  211MOL0     C27762   6.646   3.817   5.093  0.6130  0.4965 -1.2229
  211MOL0     C27763   6.796   3.850   5.102  0.7150  0.4614 -1.0197
  211MOL0    Cl27764   6.887   3.734   5.000  0.4863  0.1722  0.4994
  211MOL0     C27765   6.555   4.781   4.987  0.4551  0.4377  0.0881
  211MOL0     C27766   6.586   4.921   4.974  0.2982 -0.3309 -0.0331
  211MOL0     O27767   6.510   5.193   4.904 -0.5253 -0.1234  0.1800
  211MOL0     C27768   6.592   5.446   4.885 -0.4753  0.6797 -0.2169
  211MOL0     C27769   6.631   5.583   4.889 -0.0682  0.7706 -1.5699
  211MOL0     N27770   6.560   6.288   5.297  0.1456  0.5201  0.2035
  211MOL0     N27771   6.485   6.363   5.381 -0.3534 -0.5078  0.3517
  211MOL0     C27772   5.911   7.217   5.613 -0.0364  0.5673  0.2767
  211MOL0     C27773   5.869   7.356   5.591 -0.2531  0.2553 -0.7264
  211MOL0     C27774   5.837   7.804   5.565 -0.7215 -0.2238 -0.3132
  211MOL0     C27775   5.724   7.885   5.608  0.2649  1.0184 -0.7444
  211MOL0     C27776   5.732   8.020   5.616 -0.1113 -1.0093  0.0706
  211MOL0     C27777   5.850   8.084   5.603 -1.5873  0.2904 -0.2910
  211MOL0     O27778   5.848   8.223   5.603 -0.9831  0.2312  0.1334
  211MOL0     C27779   5.938   8.302   5.523 -0.7588 -0.8995  0.1046
  211MOL0     C27780   5.935   8.446   5.571  0.2629 -0.4802  0.0169
  211MOL0     C27781   5.794   8.510   5.542  0.1694 -0.6744  0.5990
  211MOL0     C27782   5.815   8.663   5.520 -0.3988  0.8331  0.1491
  211MOL0     C27783   5.863   8.707   5.651 -0.1081 -0.1416  0.0911
  211MOL0     C27784   5.888   8.740   5.766 -0.5093  0.0144 -0.0040
  211MOL0     C27785   5.964   8.011   5.575 -0.3454 -0.1521 -0.4921
  211MOL0     C27786   5.959   7.880   5.549 -0.3509 -0.3287  0.5236
  211MOL0     H27787   6.166   7.468   5.484 -0.5680 -1.1535 -1.6212
  211MOL0     H27788   6.219   7.217   5.480 -0.7591 -3.7795  2.1317
  211MOL0     H27789   5.916   6.936   5.568 -0.3060  1.1149 -1.1019
  211MOL0     H27790   5.941   6.978   5.737  2.5193  1.1569  1.2070
  211MOL0     H27791   5.992   6.753   5.716 -2.4564  1.6861 -1.3938
  211MOL0     H27792   6.141   6.846   5.758  1.3587 -2.5508 -0.5722
  211MOL0     H27793   6.204   6.674   5.589  1.2489  1.2964  0.7592
  211MOL0     H27794   6.220   6.835   5.521  1.0762 -1.6760  1.1032
  211MOL0     H27795   5.980   6.804   5.412 -2.8380 -1.7124  1.3111
  211MOL0     H27796   6.108   6.701   5.351 -1.0092 -0.4308 -0.5963
  211MOL0     H27797   5.904   6.557   5.398 -0.6959  1.5999  0.4270
  211MOL0     H27798   5.893   6.628   5.551 -0.1974  1.1311 -1.1043
  211MOL0     H27799   5.978   6.395   5.553  0.4111 -0.5523  0.2752
  211MOL0     H27800   6.099   6.507   5.630 -0.3053  4.6863 -0.0347
  211MOL0     H27801   6.099   6.384   5.350 -1.5171 -0.9574 -0.1686
  211MOL0     H27802   6.208   6.517   5.397  1.1862 -2.1863 -0.8929
  211MOL0     H27803   6.216   6.253   5.560  0.4155 -0.1830  0.8410
  211MOL0     H27804   6.320   6.397   5.572  2.4391  0.1166 -1.5162
  211MOL0     H27805   6.297   6.107   5.334 -2.1852  2.1581  2.9777
  211MOL0     H27806   6.557   6.088   5.070  3.8955 -1.9877 -0.2559
  211MOL0     H27807   6.483   5.969   5.170  1.4958 -0.8609 -1.6329
  211MOL0     H27808   6.718   6.022   5.314  2.3853 -0.4529 -0.5356
  211MOL0     H27809   6.763   6.080   5.155 -0.6491  1.3990  0.0206
  211MOL0     H27810   6.821   5.848   5.229  0.3148  2.6200  0.4398
  211MOL0     H27811   6.658   5.798   5.235 -1.6314  1.3598 -0.3547
  211MOL0     H27812   6.772   5.933   4.981  2.3323 -0.5439  0.9096
  211MOL0     H27813   6.616   5.842   5.000  1.1336 -0.9651 -1.3342
  211MOL0     H27814   6.845   5.572   5.163 -0.0589 -1.1642  0.4435
  211MOL0     H27815   6.756   5.341   5.178  2.9002 -0.3903 -2.5433
  211MOL0     H27816   6.497   5.008   5.294 -2.3507  1.3104 -1.6001
  211MOL0     H27817   6.460   4.767   5.311 -1.7470 -1.0304 -1.4442
  211MOL0     H27818   6.370   4.569   5.279  0.1690 -0.3943 -0.2663
  211MOL0     H27819   6.533   4.514   5.269  2.7471 -0.0229 -2.9467
  211MOL0     H27820   6.306   4.395   5.094 -0.2112  2.3075  0.9928
  211MOL0     H27821   6.334   4.342   5.248 -2.5008  1.2133 -0.4822
  211MOL0     H27822   6.590   4.313   5.178 -1.6893  0.0843  1.0552
  211MOL0     H27823   6.528   4.322   5.013  0.4159  0.2312 -0.4766
  211MOL0     H27824   6.437   4.137   5.238 -2.6173  0.3711 -0.7795
  211MOL0     H27825   6.379   4.116   5.085 -2.0579  0.5741  2.4712
  211MOL0     H27826   6.676   4.094   5.141 -0.6232 -3.4684  2.5062
  211MOL0     H27827   6.585   4.048   4.993  1.0677  3.8506 -1.2788
  211MOL0     H27828   6.459   3.892   5.173 -1.0361  1.3762 -0.5394
  211MOL0     H27829   6.593   3.927   5.280 -2.4538  3.1258  0.1395
  211MOL0     H27830   6.622   3.716   5.125 -4.0614  1.8500  0.2928
  211MOL0     H27831   6.615   3.827   4.989 -2.0814  1.9465 -0.3813
  211MOL0     H27832   6.821   3.847   5.209 -2.6308  2.6496 -0.0199
  211MOL0     H27833   6.821   3.954   5.080  0.2964  0.5977 -0.8687
  211MOL0     H27834   6.580   4.720   4.900 -1.0638 -1.4643  0.9057
  211MOL0     H27835   6.614   4.940   4.871 -1.1393 -4.1454 -1.3273
  211MOL0     H27836   6.534   5.404   4.803  1.1750 -2.8695  0.2356
  211MOL0     H27837   6.604   5.655   4.812 -1.2755 -1.5086 -3.3872
  211MOL0     H27838   5.843   7.138   5.646 -0.2024  0.7177  0.2949
  211MOL0     H27839   5.768   7.382   5.620 -1.2668 -1.1862 -2.7242
  211MOL0     H27840   5.634   7.829   5.632  1.5770  0.1921  2.9059
  211MOL0     H27841   5.650   8.083   5.648 -2.4414 -3.8420  0.2101
  211MOL0     H27842   5.906   8.285   5.420 -1.8434 -3.9613  0.8487
  211MOL0     H27843   6.043   8.270   5.522 -0.6526 -0.5659  0.4330
  211MOL0     H27844   5.952   8.460   5.678 -0.0315  0.5231 -0.0548
  211MOL0     H27845   6.018   8.492   5.517  1.7432 -3.8893 -0.8688
  211MOL0     H27846   5.732   8.488   5.629 -1.2417  0.4361 -0.0842
  211MOL0     H27847   5.753   8.465   5.450 -1.0566  0.7648  0.4056
  211MOL0     H27848   5.887   8.677   5.439  0.2404 -1.2461  0.3020
  211MOL0     H27849   5.716   8.697   5.490 -0.9639 -1.3641 -0.7031
  211MOL0     H27850   5.921   8.766   5.865  1.1996 -0.4413 -0.4199
  211MOL0     H27851   6.066   8.046   5.563  0.0758 -2.1444 -4.5595
  211MOL0     H27852   6.052   7.827   5.531  1.2467  1.8848  1.7455
  212MOL0     O27853   0.399  10.926   7.853  0.4921 -0.4482  0.0267
  212MOL0     C27854   0.398  10.939   7.975 -0.0963  0.9093 -0.4674
  212MOL0     O27855   0.431  10.845   8.066 -0.0763  0.5041 -0.5312
  212MOL0     C27856   0.455  10.710   8.040 -0.3021  0.7118  0.6443
  212MOL0     C27857   0.549  10.636   8.123  0.2767  0.3288 -0.1965
  212MOL0     C27858   0.589  10.508   8.099 -0.3315  0.0018 -0.5355
  212MOL0     C27859   0.527  10.435   8.002 -0.3360 -0.9821 -0.4072
  212MOL0     O27860   0.559  10.302   7.977 -0.1408  0.2708  0.1585
  212MOL0     C27861   0.686  10.237   8.012  0.4599  1.3054  0.1408
  212MOL0     C27862   0.717  10.114   7.921  0.3453 -0.5885  0.1183
  212MOL0     C27863   0.746  10.143   7.769  0.1759  0.2727 -1.0889
  212MOL0     C27864   0.719  10.017   7.691 -0.0499  0.1285  0.0956
  212MOL0     C27865   0.563   9.994   7.660  0.3025  0.1549  0.6007
  212MOL0     C27866   0.553   9.912   7.532  0.6099 -0.3516 -0.0389
  212MOL0     C27867   0.414   9.938   7.475 -0.1728 -0.3262 -0.0352
  212MOL0     C27868   0.396   9.874   7.334  0.0669 -0.2359  0.2881
  212MOL0     N27869   0.270   9.916   7.259  0.0564  0.4311  0.1343
  212MOL0     C27870   0.223   9.880   7.131 -0.5700  0.9037 -0.4725
  212MOL0     C27871   0.095   9.931   7.116  0.2848 -0.0062 -0.7791
  212MOL0     C27872   0.020   9.938   6.981 -0.2152  0.2259  0.5415
  212MOL0     C27873  -0.062   9.816   6.962  1.0097 -0.0193 -0.1737
  212MOL0     C27874  -0.195   9.820   7.040 -0.9493  0.0416  0.1896
  212MOL0     C27875  -0.265   9.955   7.069 -0.3964 -0.5954 -0.9495
  212MOL0     O27876  -0.320  10.013   6.942 -0.1835  0.6348  0.7198
  212MOL0     C27877  -0.445  10.074   6.966  0.4214  0.3381 -0.2068
  212MOL0     C27878  -0.467  10.178   7.056  0.8500  0.0099 -0.9397
  212MOL0     C27879  -0.597  10.247   7.057 -0.0014  1.1179  0.8643
  212MOL0     C27880  -0.710  10.187   6.981 -0.1779  0.0249 -0.4338
  212MOL0     C27881  -0.845  10.234   7.004 -0.8694 -0.6384  0.1285
  212MOL0     O27882  -0.933  10.185   6.910 -0.6267 -0.0963 -0.8673
  212MOL0     C27883  -1.070  10.177   6.939  0.8850  0.4956 -0.4821
  212MOL0     C27884  -1.133  10.051   6.976 -0.6331  0.3334 -0.4348
  212MOL0     C27885  -1.268  10.032   6.986 -0.8410 -0.0387  0.2121
  212MOL0     C27886  -1.351  10.143   6.954 -0.7933  0.3152  1.1307
  212MOL0     O27887  -1.488  10.127   6.946 -0.5855 -0.8627  0.3791
  212MOL0     C27888  -1.540  10.106   7.078  0.3020 -0.1201  0.0017
  212MOL0     C27889  -1.597  10.240   7.129 -0.7724  0.4771  0.7270
  212MOL0     C27890  -1.704  10.304   7.033 -0.9498 -0.5982 -0.7317
  212MOL0     C27891  -1.773  10.438   7.080 -0.2834 -0.4913  0.5352
  212MOL0     C27892  -1.895  10.462   6.993  0.3493  0.0508  1.2614
  212MOL0     C27893  -1.962  10.589   7.043 -0.0349  0.6405 -1.0264
  212MOL0     C27894  -2.070  10.634   6.948 -0.5736 -0.4340 -0.2278
  212MOL0     C27895  -2.168  10.527   6.936  1.0626  0.1441  0.3890
  212MOL0    Cl27896  -2.330  10.571   6.850  0.1954 -0.0992  0.0709
  212MOL0     C27897  -1.293  10.269   6.912  0.1816  0.8776  1.4683
  212MOL0     C27898  -1.156  10.282   6.901  1.2008  0.5740 -0.1648
  212MOL0     O27899  -0.872  10.298   7.102 -0.4432  0.6206  0.3982
  212MOL0     C27900  -0.687  10.070   6.919 -0.9365  0.3241  0.9289
  212MOL0     C27901  -0.559  10.018   6.905  0.9231 -0.1503 -0.1099
  212MOL0     N27902   0.068   9.987   7.236 -0.3836  0.1086 -0.2557
  212MOL0     N27903   0.167   9.982   7.314 -0.0804 -0.8492 -1.6950
  212MOL0     C27904   0.430  10.497   7.919 -0.2086  0.6332  0.2711
  212MOL0     C27905   0.393  10.635   7.938 -0.0626  0.4364 -0.7523
  212MOL0     C27906   0.366  11.079   8.027 -0.3308 -0.5777  0.5742
  212MOL0     C27907   0.353  11.119   8.162 -0.5784  0.1221 -0.1258
  212MOL0     C27908   0.339  11.252   8.207  0.3512  0.3920  0.1998
  212MOL0     C27909   0.339  11.359   8.117 -0.3766  0.4117 -0.6926
  212MOL0     O27910   0.329  11.498   8.155 -0.3712 -0.0710  0.6652
  212MOL0     C27911   0.343  11.551   8.291 -0.1242  0.0658 -0.0824
  212MOL0     C27912   0.196  11.555   8.341 -0.1614  0.9429  0.1514
  212MOL0     C27913   0.186  11.643   8.463 -1.0031  1.0874 -0.4632
  212MOL0     C27914   0.226  11.564   8.589  0.3056 -0.0731  0.0807
  212MOL0     C27915   0.177  11.630   8.712 -0.1908  0.2290  0.1441
  212MOL0     C27916   0.150  11.690   8.822 -0.6413  0.1604 -0.2198
  212MOL0     C27917   0.355  11.319   7.983 -0.0145 -0.5528  0.4002
  212MOL0     C27918   0.352  11.187   7.938 -1.0558 -0.0168  0.7672
  212MOL0     H27919   0.590  10.669   8.218 -1.0308 -0.0294  0.5161
  212MOL0     H27920   0.658  10.464   8.171 -0.9093 -1.9269 -1.0932
  212MOL0     H27921   0.672  10.189   8.110  1.1646 -2.4180 -1.3819
  212MOL0     H27922   0.775  10.300   7.999  0.9264  0.4822 -0.8188
  212MOL0     H27923   0.629  10.048   7.922 -0.1374  0.0545  0.2635
  212MOL0     H27924   0.803  10.063   7.967 -0.5709 -0.4116  2.1520
  212MOL0     H27925   0.853  10.168   7.763  0.1536  0.6111 -0.1530
  212MOL0     H27926   0.680  10.223   7.736  0.3110 -0.1364 -2.4163
  212MOL0     H27927   0.771  10.017   7.595  0.5763 -1.2910  0.4094
  212MOL0     H27928   0.756   9.930   7.745 -2.8483 -2.2213 -1.4748
  212MOL0     H27929   0.519  10.093   7.651  1.9084  0.9958  1.6024
  212MOL0     H27930   0.506   9.946   7.740 -1.3853  0.6267 -0.2708
  212MOL0     H27931   0.570   9.807   7.556  1.7683  0.0701  1.0782
  212MOL0     H27932   0.632   9.944   7.463  2.1533 -0.3305  1.6648
  212MOL0     H27933   0.335   9.889   7.533 -0.2646  0.1604  0.2587
  212MOL0     H27934   0.402  10.046   7.465  0.3358 -0.4807 -3.3014
  212MOL0     H27935   0.389   9.766   7.346 -0.7987 -0.3640 -1.2164
  212MOL0     H27936   0.487   9.900   7.280 -1.1838  0.4843 -1.5705
  212MOL0     H27937   0.281   9.829   7.055 -0.6918 -0.0055  0.0269
  212MOL0     H27938   0.090   9.928   6.898 -1.3461  1.9799 -0.6817
  212MOL0     H27939  -0.028  10.035   6.966  1.1359  0.9675  0.7776
  212MOL0     H27940   0.008   9.733   6.970  2.9562  1.7112  2.0794
  212MOL0     H27941  -0.101   9.813   6.859  2.0712 -0.7628 -0.5639
  212MOL0     H27942  -0.264   9.756   6.985  1.4763 -1.5955 -1.1665
  212MOL0     H27943  -0.169   9.794   7.143 -1.5139 -0.5361  0.1924
  212MOL0     H27944  -0.194  10.015   7.127  1.7678 -2.5244 -1.4461
  212MOL0     H27945  -0.344   9.926   7.139  0.1022  1.7739  0.7230
  212MOL0     H27946  -0.386  10.221   7.114  2.0385 -1.8522 -1.1448
  212MOL0     H27947  -0.635  10.327   7.119 -1.9656 -0.2996  1.5981
  212MOL0     H27948  -1.061   9.971   6.988  1.2909  2.2360  1.9664
  212MOL0     H27949  -1.310   9.935   7.009 -0.1564 -0.2884  0.4338
  212MOL0     H27950  -1.463  10.072   7.148 -0.5421 -0.2131  0.9078
  212MOL0     H27951  -1.617  10.028   7.073  0.0771  0.1729 -3.4756
  212MOL0     H27952  -1.510  10.305   7.142 -0.0980 -0.0886 -0.7438
  212MOL0     H27953  -1.639  10.223   7.228 -0.1363  0.4269  0.9925
  212MOL0     H27954  -1.777  10.225   7.017 -1.5006 -0.8513  2.4613
  212MOL0     H27955  -1.658  10.326   6.936  1.2122 -0.0432  0.3384
  212MOL0     H27956  -1.815  10.429   7.181 -2.3902 -2.2147 -0.4215
  212MOL0     H27957  -1.698  10.518   7.080 -0.2250 -0.4394 -2.7093
  212MOL0     H27958  -1.955  10.371   6.999  0.4523  0.0084  1.7256
  212MOL0     H27959  -1.861  10.485   6.892  3.9218 -0.5227  2.1861
  212MOL0     H27960  -1.898  10.675   7.066 -0.4957  0.7906 -0.2731
  212MOL0     H27961  -2.006  10.577   7.143  2.4328  1.3592  0.2329
  212MOL0     H27962  -2.114  10.726   6.988 -2.2982 -1.4254  0.2822
  212MOL0     H27963  -2.033  10.664   6.850 -2.9316  1.2002 -0.7018
  212MOL0     H27964  -2.188  10.482   7.034  1.3904 -1.8233 -0.4092
  212MOL0     H27965  -2.126  10.442   6.881 -0.2525 -0.0325 -0.3865
  212MOL0     H27966  -1.372  10.342   6.896 -2.5378 -1.3352  3.5921
  212MOL0     H27967  -1.114  10.379   6.877  0.3288  1.5508  1.9663
  212MOL0     H27968  -0.773  10.021   6.875 -1.6631 -0.2154  2.8578
  212MOL0     H27969  -0.558   9.932   6.840 -0.1383 -0.0100 -0.3268
  212MOL0     H27970   0.393  10.436   7.837  1.3305 -0.3443  0.2636
  212MOL0     H27971   0.330  10.679   7.861 -0.5876 -1.3313 -1.3926
  212MOL0     H27972   0.352  11.042   8.239 -1.6255  1.7141  1.5359
  212MOL0     H27973   0.317  11.270   8.312  2.5844 -2.3802  1.2955
  212MOL0     H27974   0.394  11.643   8.259  1.3086 -1.4323 -2.4852
  212MOL0     H27975   0.408  11.481   8.344 -2.3260 -0.9891  1.3697
  212MOL0     H27976   0.143  11.589   8.252  1.9274  0.4373 -1.3844
  212MOL0     H27977   0.162  11.457   8.376 -0.6226  0.7995 -0.6755
  212MOL0     H27978   0.090  11.695   8.464 -0.3360  2.6410 -3.7766
  212MOL0     H27979   0.264  11.718   8.449 -0.7228  1.2895  1.7768
  212MOL0     H27980   0.193  11.460   8.588  2.7674 -1.1120  3.7013
  212MOL0     H27981   0.335  11.566   8.599  0.1233 -1.0587  3.3851
  212MOL0     H27982   0.132  11.746   8.912 -2.6097 -1.0120  0.1733
  212MOL0     H27983   0.368  11.402   7.915 -0.3369  0.8115  1.9510
  212MOL0     H27984   0.357  11.162   7.832 -3.3092  0.5313  0.4888
  213MOL0     O27985  10.430   6.253  10.754  0.2628  0.5584 -0.2256
  213MOL0     C27986  10.490   6.166  10.688 -0.1496  0.1087  0.2500
  213MOL0     O27987  10.436   6.062  10.614 -0.3121 -0.5494 -0.5964
  213MOL0     C27988  10.311   6.019  10.647  0.0082 -0.2954  0.2041
  213MOL0     C27989  10.239   6.041  10.772  0.2748 -0.4102 -0.7371
  213MOL0     C27990  10.100   6.006  10.783 -0.3879  0.8119 -0.4238
  213MOL0     C27991  10.032   5.937  10.689 -0.2146 -0.5165 -0.3442
  213MOL0     O27992   9.905   5.910  10.719  0.1035 -0.0829  0.2302
  213MOL0     C27993   9.836   5.803  10.646  0.4278  0.5947 -0.8288
  213MOL0     C27994   9.705   5.807  10.695  0.1292 -0.0982 -0.5459
  213MOL0     C27995   9.627   5.676  10.654 -0.9829  0.9629  0.8074
  213MOL0     C27996   9.580   5.684  10.510  0.0287 -0.0634  0.2011
  213MOL0     C27997   9.471   5.579  10.476 -0.5087 -0.1361  0.4096
  213MOL0     C27998   9.518   5.431  10.507 -0.5755 -0.6497  0.4767
  213MOL0     C27999   9.658   5.402  10.451  0.0265  1.0105 -0.0387
  213MOL0     C28000   9.656   5.395  10.300  0.4321  0.1452  0.0351
  213MOL0     N28001   9.772   5.328  10.254  0.9990 -0.4429 -0.3944
  213MOL0     C28002   9.879   5.386  10.200 -0.3496  0.5140 -0.4069
  213MOL0     C28003   9.958   5.278  10.169  0.5075  0.2775 -0.4468
  213MOL0     C28004  10.100   5.301  10.123  0.3837  0.0806 -0.4049
  213MOL0     C28005  10.100   5.333   9.973  0.6545 -0.5915  0.1217
  213MOL0     C28006  10.237   5.330   9.903 -0.1066  0.0586  0.6063
  213MOL0     C28007  10.349   5.421   9.958  0.3815  0.7249  0.1984
  213MOL0     O28008  10.443   5.446   9.858 -0.1460 -0.4887  0.3536
  213MOL0     C28009  10.545   5.359   9.839 -0.8415 -0.1114 -0.4232
  213MOL0     C28010  10.554   5.224   9.892 -0.4370 -0.3140  0.9464
  213MOL0     C28011  10.666   5.151   9.861 -0.5564 -0.1744  0.3791
  213MOL0     C28012  10.774   5.202   9.784  0.7760  0.3058  0.1291
  213MOL0     C28013  10.902   5.120   9.768  1.0490 -0.0364 -0.3445
  213MOL0     O28014  10.980   5.156   9.657  0.3399 -0.3055 -0.7835
  213MOL0     C28015  11.069   5.074   9.598  0.5718  0.4345 -0.6137
  213MOL0     C28016  11.053   4.934   9.593  1.1188  0.2050  0.2786
  213MOL0     C28017  11.144   4.849   9.528 -0.3309 -0.0132  0.7553
  213MOL0     C28018  11.247   4.904   9.453 -0.3364 -0.0049 -0.7505
  213MOL0     O28019  11.340   4.825   9.388 -0.2526  0.6488  0.0937
  213MOL0     C28020  11.388   4.704   9.451  0.6729 -0.2608  0.1994
  213MOL0     C28021  11.504   4.662   9.365 -0.8011 -1.4013  0.4352
  213MOL0     C28022  11.471   4.638   9.215 -0.4972 -0.0153 -0.0821
  213MOL0     C28023  11.580   4.553   9.141 -0.8855  0.6936 -0.8315
  213MOL0     C28024  11.712   4.620   9.142 -0.6709  0.7965  0.3018
  213MOL0     C28025  11.824   4.526   9.106 -0.0992  0.1797  0.1656
  213MOL0     C28026  11.862   4.430   9.212  0.1343 -0.1111 -0.8330
  213MOL0     C28027  12.001   4.375   9.186 -0.1775  0.4055  0.8131
  213MOL0    Cl28028  12.016   4.310   9.008  0.1378 -0.3322 -0.1775
  213MOL0     C28029  11.264   5.043   9.456  0.3251  0.9867  1.2381
  213MOL0     C28030  11.172   5.120   9.522  0.6047 -0.5175 -1.6365
  213MOL0     O28031  10.927   5.035   9.842  0.6227 -0.0893  0.3078
  213MOL0     C28032  10.749   5.329   9.723 -0.9090  0.6688  0.0645
  213MOL0     C28033  10.640   5.407   9.747  0.4636  1.7102 -0.2854
  213MOL0     N28034   9.887   5.161  10.204 -0.1315  0.0185 -0.1376
  213MOL0     N28035   9.778   5.192  10.253  0.3788 -0.0229 -0.6515
  213MOL0     C28036  10.107   5.905  10.570  0.2113 -0.7036 -0.3856
  213MOL0     C28037  10.245   5.947  10.550 -0.0253  0.9831 -0.6451
  213MOL0     C28038  10.631   6.191  10.662  0.5173 -0.1650 -0.6196
  213MOL0     C28039  10.689   6.124  10.559  0.1788  0.3892 -0.9782
  213MOL0     C28040  10.809   6.167  10.508 -0.1146 -0.6540  0.5055
  213MOL0     C28041  10.878   6.274  10.559  0.3810 -0.9337 -0.1985
  213MOL0     O28042  10.992   6.314  10.491 -0.4902 -0.2296 -0.6719
  213MOL0     C28043  11.069   6.427  10.545 -0.2164 -0.2167 -0.1227
  213MOL0     C28044  11.202   6.385  10.596  0.1154  0.7385  1.1438
  213MOL0     C28045  11.263   6.445  10.717  1.4801  0.3489  0.8128
  213MOL0     C28046  11.289   6.600  10.693  0.0434 -0.8721  0.1218
  213MOL0     C28047  11.307   6.670  10.823 -0.7589  0.0914  0.7375
  213MOL0     C28048  11.333   6.728  10.926 -0.2274 -0.8142  0.9052
  213MOL0     C28049  10.819   6.338  10.675  0.1628  0.0612 -0.8562
  213MOL0     C28050  10.693   6.293  10.724 -0.7955  1.0207 -0.2355
  213MOL0     H28051  10.276   6.095  10.859  1.1458 -1.2891 -0.5443
  213MOL0     H28052  10.041   6.049  10.863 -4.4288  1.4367 -3.4723
  213MOL0     H28053   9.882   5.706  10.668  0.1044  1.2653  3.8660
  213MOL0     H28054   9.837   5.820  10.538  1.1515  1.2958 -0.7218
  213MOL0     H28055   9.652   5.898  10.668  0.7597  0.0658 -1.2601
  213MOL0     H28056   9.728   5.801  10.802  3.8801 -0.5685 -1.2405
  213MOL0     H28057   9.543   5.662  10.722 -1.5808 -0.6334 -0.2116
  213MOL0     H28058   9.699   5.595  10.669 -1.6705  0.4406  1.3362
  213MOL0     H28059   9.526   5.777  10.491 -3.0271 -2.1913 -2.5666
  213MOL0     H28060   9.667   5.680  10.444  0.2688 -2.4799  0.5571
  213MOL0     H28061   9.447   5.591  10.370 -2.7097  3.7587  1.1513
  213MOL0     H28062   9.383   5.605  10.535 -1.0740 -2.0233  0.4584
  213MOL0     H28063   9.442   5.367  10.462  0.2166  0.4133 -2.6534
  213MOL0     H28064   9.529   5.412  10.614  0.8600 -0.7806  0.3328
  213MOL0     H28065   9.741   5.463  10.486  3.3618 -1.6432 -2.6520
  213MOL0     H28066   9.686   5.302  10.488 -2.2898  0.5704  0.7053
  213MOL0     H28067   9.646   5.491  10.250 -0.9192 -0.7291 -1.4684
  213MOL0     H28068   9.572   5.333  10.266 -0.1299  2.0255 -2.1942
  213MOL0     H28069   9.903   5.491  10.193  1.2894  0.3095  1.2644
  213MOL0     H28070  10.162   5.214  10.145 -0.9918 -1.1774 -1.3333
  213MOL0     H28071  10.135   5.384  10.186 -1.6409  0.7173 -0.0516
  213MOL0     H28072  10.048   5.429   9.971 -0.4342 -1.1267  1.0974
  213MOL0     H28073  10.019   5.279   9.922 -1.5021  3.7254 -1.4957
  213MOL0     H28074  10.278   5.229   9.905  1.0021  0.4772 -0.0835
  213MOL0     H28075  10.220   5.370   9.802  1.0336  1.8643  1.0830
  213MOL0     H28076  10.409   5.382  10.041  1.9711 -0.0328 -1.2452
  213MOL0     H28077  10.314   5.516   9.999 -0.9647 -1.4874  4.8574
  213MOL0     H28078  10.487   5.174   9.960  1.1675 -0.3729  2.5813
  213MOL0     H28079  10.677   5.050   9.901  2.9099  0.2790  0.8814
  213MOL0     H28080  10.970   4.899   9.653  0.6603  2.1899  0.8701
  213MOL0     H28081  11.122   4.743   9.534 -2.7719  0.4286  0.5834
  213MOL0     H28082  11.306   4.631   9.454  0.4705 -0.2230 -2.3778
  213MOL0     H28083  11.412   4.717   9.557  0.2485 -3.7289  0.8517
  213MOL0     H28084  11.541   4.571   9.413  0.8831  0.1376  2.2380
  213MOL0     H28085  11.570   4.749   9.360 -2.7864  0.0836 -2.2730
  213MOL0     H28086  11.458   4.734   9.163 -1.3847 -0.8123 -1.3784
  213MOL0     H28087  11.371   4.594   9.204 -0.9459  0.7304  0.7654
  213MOL0     H28088  11.585   4.453   9.183 -1.6996  1.2818  0.7693
  213MOL0     H28089  11.555   4.524   9.039 -0.7699 -1.2981 -0.3220
  213MOL0     H28090  11.743   4.655   9.241 -0.6891 -0.9519  0.9736
  213MOL0     H28091  11.721   4.700   9.068  0.3005  3.0575  2.6994
  213MOL0     H28092  11.914   4.587   9.096  1.5591 -2.2238 -0.6203
  213MOL0     H28093  11.814   4.469   9.013  3.3249 -1.4561  0.6584
  213MOL0     H28094  11.871   4.486   9.305  1.2861  2.0696 -2.1778
  213MOL0     H28095  11.788   4.350   9.226 -1.1519  1.4392  2.2184
  213MOL0     H28096  12.009   4.288   9.251 -0.2502  0.2287  0.5876
  213MOL0     H28097  12.081   4.446   9.209  0.7662 -0.2603 -0.3378
  213MOL0     H28098  11.349   5.084   9.402  0.8066 -0.3103  0.9660
  213MOL0     H28099  11.189   5.227   9.514  0.8621 -0.4311 -0.1605
  213MOL0     H28100  10.835   5.370   9.671 -0.2037  0.9181  1.3917
  213MOL0     H28101  10.614   5.503   9.703 -0.9937  1.6045  0.2831
  213MOL0     H28102  10.075   5.833  10.496 -1.3888 -0.4472  0.0179
  213MOL0     H28103  10.294   5.932  10.454 -0.2739  0.3459 -0.6719
  213MOL0     H28104  10.651   6.036  10.509  1.9025 -0.2042 -1.3221
  213MOL0     H28105  10.835   6.118  10.414 -1.4637  0.0130 -0.2399
  213MOL0     H28106  11.019   6.492  10.618  0.2337  0.4369 -0.3829
  213MOL0     H28107  11.088   6.493  10.460 -0.2387 -2.4700 -1.9932
  213MOL0     H28108  11.206   6.278  10.618 -0.3421 -0.2712 -2.8440
  213MOL0     H28109  11.276   6.392  10.515 -2.3795  1.8286 -1.2091
  213MOL0     H28110  11.359   6.394  10.734  0.4600 -1.5098  1.3538
  213MOL0     H28111  11.203   6.426  10.807  1.3584  0.6315  0.7917
  213MOL0     H28112  11.376   6.609  10.627  1.6716  1.1834  2.3643
  213MOL0     H28113  11.208   6.658  10.648 -0.8321 -1.9354  0.3079
  213MOL0     H28114  11.364   6.784  11.012 -0.7922 -3.6907  3.1668
  213MOL0     H28115  10.861   6.421  10.731  1.4905 -1.3378  0.3353
  213MOL0     H28116  10.648   6.335  10.813 -1.3461 -1.5646  0.7969
  214MOL0     O28117   9.455   1.262   0.910 -0.6044 -1.1759 -0.0936
  214MOL0     C28118   9.376   1.343   0.953 -0.5919 -0.1364 -0.3143
  214MOL0     O28119   9.244   1.359   0.899 -0.0348 -0.5781 -0.2166
  214MOL0     C28120   9.220   1.323   0.770  1.0946 -0.8196 -0.3449
  214MOL0     C28121   9.091   1.289   0.744  0.6309 -0.0907 -0.0037
  214MOL0     C28122   9.049   1.270   0.616 -0.6765  0.4993 -0.7440
  214MOL0     C28123   9.146   1.276   0.511 -0.2548 -0.7161  0.3754
  214MOL0     O28124   9.092   1.270   0.390 -0.0624  0.1272  1.1106
  214MOL0     C28125   9.160   1.187   0.290  0.2299  0.2015 -0.6122
  214MOL0     C28126   9.075   1.065   0.252  0.3485 -1.2028  0.5859
  214MOL0     C28127   8.988   1.101   0.131  0.6265 -0.2575  0.1051
  214MOL0     C28128   8.857   1.028   0.133 -0.0139 -0.4623  0.8297
  214MOL0     C28129   8.775   1.073   0.012  0.1615  0.3236  0.0080
  214MOL0     C28130   8.650   0.989  -0.029 -0.1258 -0.7385 -0.2516
  214MOL0     C28131   8.585   1.032  -0.170 -0.1247 -0.2890 -0.2940
  214MOL0     C28132   8.431   1.020  -0.172  0.0524  0.2132 -0.5164
  214MOL0     N28133   8.382   1.069  -0.304 -0.4544  0.3182  0.5124
  214MOL0     C28134   8.264   1.121  -0.334  0.4921 -0.5169 -0.0864
  214MOL0     C28135   8.239   1.103  -0.463  0.4742  0.0833 -0.4149
  214MOL0     C28136   8.113   1.117  -0.541 -0.2996 -0.7881  0.5886
  214MOL0     C28137   8.128   1.184  -0.677 -0.8027 -0.5682  0.5742
  214MOL0     C28138   8.193   1.324  -0.664 -1.0660  0.2397 -0.8217
  214MOL0     C28139   8.139   1.426  -0.768  0.0987 -0.4591  0.5915
  214MOL0     O28140   8.149   1.372  -0.904 -0.6878  0.3734 -0.8666
  214MOL0     C28141   8.128   1.455  -1.014 -0.3438  0.0863  0.5833
  214MOL0     C28142   8.153   1.398  -1.140 -0.1447 -0.2256 -0.1959
  214MOL0     C28143   8.121   1.458  -1.266  0.7524 -0.3416  0.6246
  214MOL0     C28144   8.075   1.579  -1.258  0.7467  0.4419 -0.1434
  214MOL0     C28145   8.041   1.653  -1.390 -0.8507 -0.1847 -0.2947
  214MOL0     O28146   8.085   1.598  -1.511  0.2494  0.3364  0.6124
  214MOL0     C28147   8.077   1.646  -1.636 -0.1917 -0.0399  0.7259
  214MOL0     C28148   7.952   1.696  -1.682 -0.3226 -0.1144 -0.1337
  214MOL0     C28149   7.922   1.741  -1.810 -0.6247  0.8800 -0.0249
  214MOL0     C28150   8.022   1.744  -1.903  0.5227 -0.6934  0.3088
  214MOL0     O28151   8.006   1.799  -2.028 -0.5628  0.2701 -0.8382
  214MOL0     C28152   8.007   1.943  -2.035  0.4429 -0.0379 -0.1881
  214MOL0     C28153   7.974   2.014  -2.173  0.0776  0.0684 -0.7816
  214MOL0     C28154   7.828   2.012  -2.204  0.2691 -0.4492 -0.5466
  214MOL0     C28155   7.810   2.087  -2.332 -0.1536 -0.0412  0.0284
  214MOL0     C28156   7.664   2.088  -2.383 -1.1646  1.2590 -0.4271
  214MOL0     C28157   7.646   2.186  -2.502 -0.0235  0.0829  0.6506
  214MOL0     C28158   7.501   2.197  -2.551 -0.1936 -0.4167 -0.1860
  214MOL0     C28159   7.491   2.274  -2.683 -0.2350  0.2151  0.5296
  214MOL0    Cl28160   7.623   2.225  -2.807 -0.4858  0.4004  0.1554
  214MOL0     C28161   8.146   1.685  -1.866  0.0239 -0.7373  0.5664
  214MOL0     C28162   8.177   1.649  -1.731  0.7738 -0.1943  0.2329
  214MOL0     O28163   7.981   1.760  -1.376  0.0918 -0.0334  1.0456
  214MOL0     C28164   8.054   1.647  -1.133 -0.5688 -0.2854  0.0399
  214MOL0     C28165   8.064   1.576  -1.015 -0.7521  0.4435  0.2230
  214MOL0     N28166   8.346   1.037  -0.520 -0.6965 -0.1395  0.1730
  214MOL0     N28167   8.437   1.033  -0.427  0.1797  0.5506  0.0445
  214MOL0     C28168   9.279   1.310   0.546  0.2425  1.1396  0.3311
  214MOL0     C28169   9.314   1.340   0.677  0.3167  0.3104 -0.1919
  214MOL0     C28170   9.418   1.422   1.074  0.2916  0.6115 -0.4472
  214MOL0     C28171   9.542   1.414   1.137  0.0152  1.0675 -0.2849
  214MOL0     C28172   9.568   1.471   1.266 -0.0800 -0.4164  0.0337
  214MOL0     C28173   9.472   1.543   1.325  0.3290  0.0595 -0.1152
  214MOL0     O28174   9.497   1.600   1.442  0.5886 -0.6267 -0.4569
  214MOL0     C28175   9.398   1.647   1.528  0.2666 -0.3661 -0.7508
  214MOL0     C28176   9.329   1.535   1.595 -0.3900 -0.1507  0.0714
  214MOL0     C28177   9.240   1.439   1.514  1.3369 -0.1809 -0.2237
  214MOL0     C28178   9.156   1.340   1.588 -0.4930  0.8688  0.2942
  214MOL0     C28179   9.062   1.408   1.683  1.3701 -0.1576 -0.3276
  214MOL0     C28180   8.995   1.476   1.762 -0.5239  0.6360  0.1491
  214MOL0     C28181   9.352   1.572   1.247 -0.8554 -0.0522  0.8323
  214MOL0     C28182   9.322   1.511   1.129  0.2925  0.4102 -0.5234
  214MOL0     H28183   9.013   1.280   0.819  1.7973 -0.3285  1.2308
  214MOL0     H28184   8.941   1.269   0.604 -0.6610 -1.6994 -0.9467
  214MOL0     H28185   9.249   1.147   0.339  0.1974 -0.0935 -0.7948
  214MOL0     H28186   9.190   1.241   0.199 -0.1248 -0.8203 -1.3433
  214MOL0     H28187   9.015   1.047   0.341  0.5563 -0.1238  0.9632
  214MOL0     H28188   9.144   0.984   0.227  2.5573  1.4706 -3.0133
  214MOL0     H28189   9.050   1.075   0.045  1.0034  0.2415  0.2250
  214MOL0     H28190   8.971   1.208   0.118 -2.0641 -0.9279 -3.5183
  214MOL0     H28191   8.865   0.919   0.131 -1.1209 -0.6166 -2.8634
  214MOL0     H28192   8.797   1.067   0.216 -2.1189  2.0472 -1.6718
  214MOL0     H28193   8.831   1.081  -0.082 -0.5736 -1.2028 -0.5990
  214MOL0     H28194   8.742   1.177   0.020  2.0493  1.2552 -2.7803
  214MOL0     H28195   8.576   0.992   0.051 -0.1761  1.3081 -0.3256
  214MOL0     H28196   8.677   0.883  -0.035 -2.6033 -1.4175 -0.4564
  214MOL0     H28197   8.589   1.141  -0.182 -1.1881 -0.1657  0.3116
  214MOL0     H28198   8.629   0.961  -0.240 -2.0810 -3.1640  1.1915
  214MOL0     H28199   8.382   1.093  -0.107 -1.4998 -0.4419 -0.9087
  214MOL0     H28200   8.392   0.922  -0.144  0.3056  0.7640  2.0677
  214MOL0     H28201   8.201   1.171  -0.261  2.7154  2.6075 -0.0669
  214MOL0     H28202   8.038   1.166  -0.479 -0.3021  0.2910 -0.2352
  214MOL0     H28203   8.068   1.019  -0.562 -2.4579  0.5640 -1.7143
  214MOL0     H28204   8.028   1.192  -0.721 -0.5611 -4.4790 -1.0539
  214MOL0     H28205   8.187   1.123  -0.746  0.9929  2.2951 -0.5860
  214MOL0     H28206   8.199   1.366  -0.564  3.2801 -0.1012 -0.7692
  214MOL0     H28207   8.297   1.298  -0.685 -0.9657 -2.1941  2.0382
  214MOL0     H28208   8.204   1.514  -0.759  1.5431 -1.6938  3.6701
  214MOL0     H28209   8.039   1.456  -0.735 -0.1254  0.2850 -0.6958
  214MOL0     H28210   8.198   1.299  -1.144 -0.1664 -0.2455  0.0584
  214MOL0     H28211   8.132   1.401  -1.358  0.1169  1.4233 -0.5988
  214MOL0     H28212   7.878   1.712  -1.605 -1.3842 -2.0570 -0.6858
  214MOL0     H28213   7.824   1.773  -1.844 -0.1511  0.2162 -2.1682
  214MOL0     H28214   8.109   1.970  -2.008  0.1200 -0.4838  1.6153
  214MOL0     H28215   7.935   1.977  -1.960 -0.5575  1.3919 -1.7323
  214MOL0     H28216   8.031   1.968  -2.254 -2.0565 -2.1399 -1.1474
  214MOL0     H28217   8.007   2.114  -2.143  0.4673 -0.6054  1.2392
  214MOL0     H28218   7.789   2.057  -2.113  0.3944 -1.3685 -0.0221
  214MOL0     H28219   7.791   1.909  -2.204 -1.0048 -0.0252  1.0203
  214MOL0     H28220   7.835   2.192  -2.311 -2.6856  0.2497  2.0331
  214MOL0     H28221   7.874   2.046  -2.411  0.9148  0.8779  0.3751
  214MOL0     H28222   7.592   2.119  -2.306 -0.3368  2.9775 -0.3091
  214MOL0     H28223   7.649   1.985  -2.415 -0.1625  0.4272  1.5770
  214MOL0     H28224   7.712   2.151  -2.582  0.1079 -0.7607  1.1121
  214MOL0     H28225   7.681   2.280  -2.459  4.1821 -1.2563  0.5230
  214MOL0     H28226   7.464   2.095  -2.560 -1.1859 -0.0529 -0.3617
  214MOL0     H28227   7.444   2.246  -2.472 -3.0881 -2.7431 -0.6669
  214MOL0     H28228   7.499   2.383  -2.674  3.0477  0.1785 -0.6583
  214MOL0     H28229   7.393   2.257  -2.728 -0.8145 -1.6662  2.3405
  214MOL0     H28230   8.227   1.686  -1.939 -1.6612  0.1707 -1.4090
  214MOL0     H28231   8.272   1.615  -1.691  1.3343  0.4045 -0.5647
  214MOL0     H28232   8.021   1.750  -1.135  3.7722  1.2818 -1.1256
  214MOL0     H28233   8.006   1.608  -0.929 -1.1540 -0.2418  0.2156
  214MOL0     H28234   9.352   1.319   0.465 -2.1432 -2.9553 -2.6585
  214MOL0     H28235   9.408   1.384   0.708  0.6561 -0.3701 -0.2149
  214MOL0     H28236   9.618   1.343   1.103 -1.5812 -0.4084 -0.9178
  214MOL0     H28237   9.664   1.464   1.316  0.3452  2.8299 -0.1009
  214MOL0     H28238   9.317   1.706   1.485  0.6681  1.9260  1.3487
  214MOL0     H28239   9.445   1.706   1.608 -4.0699 -0.3140  2.0627
  214MOL0     H28240   9.408   1.475   1.639 -0.2501  0.4652  0.6858
  214MOL0     H28241   9.273   1.591   1.671  2.2051 -0.2935  2.2225
  214MOL0     H28242   9.308   1.379   1.453 -1.4250 -1.2043 -2.5389
  214MOL0     H28243   9.172   1.498   1.452 -1.4447 -1.3733  1.4985
  214MOL0     H28244   9.105   1.280   1.512  2.0304 -0.4871 -0.4569
  214MOL0     H28245   9.214   1.266   1.644 -2.0267 -0.8173 -0.2281
  214MOL0     H28246   8.954   1.521   1.850  0.1412  0.2133  0.6819
  214MOL0     H28247   9.291   1.653   1.286  1.7339  2.6726 -0.3961
  214MOL0     H28248   9.222   1.515   1.087 -0.1657 -0.3123  0.4423
  215MOL0     O28249   9.212   5.861   5.963 -0.1577  0.4398  0.1890
  215MOL0     C28250   9.321   5.893   6.017  0.4014  0.7551 -0.7656
  215MOL0     O28251   9.402   6.004   5.995  0.0059  0.6757  0.5781
  215MOL0     C28252   9.404   6.042   5.866 -0.3089 -0.8554 -0.9676
  215MOL0     C28253   9.528   6.032   5.792  0.1909  0.2734 -0.1835
  215MOL0     C28254   9.541   6.075   5.658  0.4337  0.3734 -0.6143
  215MOL0     C28255   9.426   6.131   5.601 -0.6167 -0.0551 -0.3797
  215MOL0     O28256   9.427   6.175   5.474  0.0370  0.8026  0.2207
  215MOL0     C28257   9.495   6.104   5.370 -0.3542  0.5877 -0.1628
  215MOL0     C28258   9.451   6.133   5.228  0.2136  0.1432  0.5446
  215MOL0     C28259   9.331   6.050   5.195  0.3695  0.4619 -0.7617
  215MOL0     C28260   9.344   5.898   5.204 -0.0560 -0.2588  0.4733
  215MOL0     C28261   9.241   5.836   5.103 -0.7295 -0.6278  0.3350
  215MOL0     C28262   9.216   5.694   5.138 -0.1718  0.8046 -0.4497
  215MOL0     C28263   9.160   5.613   5.019  0.7484  0.4666 -0.0090
  215MOL0     C28264   9.034   5.658   4.941 -0.7192 -0.1988  0.5026
  215MOL0     N28265   9.015   5.572   4.828  0.2668 -0.1283 -0.3534
  215MOL0     C28266   8.996   5.615   4.706  0.1603  0.8824  0.5826
  215MOL0     C28267   8.954   5.511   4.634  0.9658  1.2495  0.0134
  215MOL0     C28268   8.925   5.501   4.492  0.3281  0.5405 -0.4519
  215MOL0     C28269   9.042   5.537   4.402  0.4498 -0.0184 -0.5923
  215MOL0     C28270   9.004   5.640   4.294  0.2178 -0.2326  1.1513
  215MOL0     C28271   9.132   5.705   4.236 -0.5501 -0.4873 -0.0279
  215MOL0     O28272   9.218   5.621   4.164  0.2396  0.6869  0.1698
  215MOL0     C28273   9.171   5.562   4.050 -0.9243 -0.1530 -0.8622
  215MOL0     C28274   9.197   5.429   4.022  0.3125  0.7660  0.7747
  215MOL0     C28275   9.153   5.363   3.909  0.4477 -0.8901 -0.2563
  215MOL0     C28276   9.083   5.425   3.812 -0.5124 -0.1643  1.1814
  215MOL0     C28277   9.010   5.355   3.700  0.6536  0.7153 -0.5375
  215MOL0     O28278   9.005   5.222   3.690  1.2137 -0.0789  0.3295
  215MOL0     C28279   8.906   5.153   3.622 -0.7231 -0.8394  0.8081
  215MOL0     C28280   8.774   5.185   3.631  0.5402  0.3301  0.2106
  215MOL0     C28281   8.672   5.105   3.569  0.1709 -0.5448  0.2016
  215MOL0     C28282   8.705   4.990   3.492 -0.3571 -0.4965 -0.4269
  215MOL0     O28283   8.631   4.898   3.417 -0.6467  0.4460  0.1199
  215MOL0     C28284   8.531   4.969   3.345  0.8567  0.1006  0.7624
  215MOL0     C28285   8.587   5.046   3.230 -0.5062  0.0816 -0.1810
  215MOL0     C28286   8.652   4.965   3.118 -0.4588 -0.4184  0.2870
  215MOL0     C28287   8.736   5.058   3.038  1.0399  0.7108  0.6427
  215MOL0     C28288   8.801   4.993   2.919  0.2728  0.2300 -0.4753
  215MOL0     C28289   8.888   5.087   2.841 -0.5379  0.1532 -1.0425
  215MOL0     C28290   8.941   5.018   2.722  0.2834  0.2116  0.4317
  215MOL0     C28291   9.036   5.114   2.656 -0.0454  0.4349  0.7939
  215MOL0    Cl28292   9.124   5.033   2.514  0.7342 -0.1567  0.0122
  215MOL0     C28293   8.839   4.963   3.489 -0.4206  0.6811 -0.7091
  215MOL0     C28294   8.938   5.037   3.548 -0.8134  0.4136 -0.8135
  215MOL0     O28295   8.934   5.429   3.638 -0.5479  0.2202  0.4480
  215MOL0     C28296   9.059   5.569   3.824  0.5062  0.2108  0.3053
  215MOL0     C28297   9.108   5.629   3.947  0.6512  0.1381  1.0753
  215MOL0     N28298   8.962   5.399   4.721  1.1421 -0.2776  0.0470
  215MOL0     N28299   8.998   5.435   4.839 -0.7405  0.6678 -0.2172
  215MOL0     C28300   9.305   6.144   5.662  0.2260 -0.3320 -0.4812
  215MOL0     C28301   9.296   6.098   5.795  0.0055 -0.5757  0.6648
  215MOL0     C28302   9.342   5.808   6.140 -1.3174 -0.0869  0.7079
  215MOL0     C28303   9.418   5.854   6.257 -0.4852  0.2120 -0.4692
  215MOL0     C28304   9.427   5.777   6.378 -0.0489 -0.1967  1.2155
  215MOL0     C28305   9.359   5.660   6.386 -0.1012 -0.6823 -0.1114
  215MOL0     O28306   9.384   5.586   6.496  0.1166 -0.0444  0.0549
  215MOL0     C28307   9.408   5.442   6.486 -0.8058 -0.7716  0.2656
  215MOL0     C28308   9.561   5.430   6.470  1.1449 -0.1367 -0.5695
  215MOL0     C28309   9.632   5.492   6.595  0.4308  0.1676  0.1596
  215MOL0     C28310   9.753   5.418   6.638 -0.3386  0.0071  0.0219
  215MOL0     C28311   9.802   5.461   6.771  0.1657 -0.1221  0.0057
  215MOL0     C28312   9.850   5.511   6.869 -0.5278  0.3656 -0.2434
  215MOL0     C28313   9.278   5.620   6.277 -0.4078  0.8548 -0.4315
  215MOL0     C28314   9.284   5.680   6.155 -0.4785  0.7429 -0.6324
  215MOL0     H28315   9.619   5.989   5.832 -0.0235 -0.3388 -0.3424
  215MOL0     H28316   9.640   6.074   5.614  0.7103 -3.3066 -0.2521
  215MOL0     H28317   9.501   5.997   5.391 -2.2360  0.0811 -1.8886
  215MOL0     H28318   9.599   6.137   5.368  0.8114 -2.7451  0.2357
  215MOL0     H28319   9.540   6.115   5.167  0.0058 -0.7022  0.4722
  215MOL0     H28320   9.430   6.240   5.220 -0.2379 -0.0172 -0.6133
  215MOL0     H28321   9.298   6.078   5.094  0.4297  0.3992 -0.7994
  215MOL0     H28322   9.252   6.083   5.263 -0.6486  0.3200 -1.8410
  215MOL0     H28323   9.447   5.868   5.180 -0.5712 -0.4052 -1.7481
  215MOL0     H28324   9.332   5.874   5.310 -1.7695  1.4496  0.7155
  215MOL0     H28325   9.275   5.847   4.999  0.7006  3.0505  1.0325
  215MOL0     H28326   9.160   5.910   5.104  3.7504  5.2995 -3.0050
  215MOL0     H28327   9.150   5.677   5.224 -3.5462 -0.5823 -3.0420
  215MOL0     H28328   9.307   5.648   5.178 -1.6335 -1.1959  0.8231
  215MOL0     H28329   9.241   5.618   4.945 -0.2904  0.0177 -1.2089
  215MOL0     H28330   9.142   5.511   5.053 -4.0392  0.1714 -2.5827
  215MOL0     H28331   9.054   5.753   4.892  0.7067 -1.6978 -2.0222
  215MOL0     H28332   8.947   5.663   5.008 -1.0293 -0.0255  0.0921
  215MOL0     H28333   8.991   5.717   4.668  2.7744 -0.2054 -3.2280
  215MOL0     H28334   8.838   5.557   4.459  0.8748  0.9919 -1.1553
  215MOL0     H28335   8.901   5.395   4.480 -2.5169  0.7821  1.9222
  215MOL0     H28336   9.076   5.442   4.359 -2.9445 -0.6622 -2.1649
  215MOL0     H28337   9.112   5.588   4.470 -2.8367  0.7814  2.4559
  215MOL0     H28338   8.941   5.603   4.212 -1.0841 -1.4213  2.6272
  215MOL0     H28339   8.947   5.720   4.342 -2.3841 -1.5657  0.4560
  215MOL0     H28340   9.195   5.747   4.315  0.1468  1.2809 -1.4554
  215MOL0     H28341   9.093   5.784   4.171  0.7332 -1.0278 -1.5164
  215MOL0     H28342   9.238   5.373   4.106 -0.4939 -0.4848  0.3551
  215MOL0     H28343   9.170   5.257   3.893 -1.1469 -1.2460  0.2175
  215MOL0     H28344   8.744   5.274   3.686  1.4165  0.6350  0.2077
  215MOL0     H28345   8.570   5.141   3.573  1.1130  2.4548 -0.0925
  215MOL0     H28346   8.465   5.028   3.409 -3.1419 -0.4441 -2.4610
  215MOL0     H28347   8.465   4.896   3.299  0.8088  1.4732 -1.5304
  215MOL0     H28348   8.663   5.115   3.268  3.1291 -2.9645 -1.2557
  215MOL0     H28349   8.501   5.094   3.182 -0.2794  0.2205 -0.4525
  215MOL0     H28350   8.574   4.917   3.059  1.2656 -0.9486 -1.6861
  215MOL0     H28351   8.715   4.887   3.160 -1.1102 -0.8637  0.4448
  215MOL0     H28352   8.663   5.130   3.000  0.7248  0.3598  0.5842
  215MOL0     H28353   8.814   5.112   3.093  1.5056  0.8514 -0.1496
  215MOL0     H28354   8.730   4.958   2.843 -1.6168  1.6502  0.5548
  215MOL0     H28355   8.859   4.910   2.960 -2.2986 -1.2094  0.4685
  215MOL0     H28356   8.969   5.124   2.904  1.6030 -1.9209 -2.4496
  215MOL0     H28357   8.824   5.174   2.818 -2.0721 -0.4024  0.7642
  215MOL0     H28358   8.994   4.928   2.756  0.1894  0.0398  0.1174
  215MOL0     H28359   8.857   4.998   2.655 -2.2525  3.3006  2.3558
  215MOL0     H28360   9.106   5.166   2.724 -1.3360  1.2015  1.5802
  215MOL0     H28361   8.977   5.200   2.624  1.3853  1.8645  1.7661
  215MOL0     H28362   8.864   4.876   3.431  2.0962 -1.9755  3.8020
  215MOL0     H28363   9.039   4.997   3.553 -2.0043 -2.8113  0.1775
  215MOL0     H28364   9.023   5.639   3.749 -1.1405  0.0349  0.8973
  215MOL0     H28365   9.080   5.734   3.950 -3.9509 -0.8934  1.7571
  215MOL0     H28366   9.212   6.189   5.627  0.1575 -0.2681 -0.2188
  215MOL0     H28367   9.196   6.102   5.836 -0.6825 -1.6651 -0.8280
  215MOL0     H28368   9.471   5.948   6.242  1.4316 -0.6454  0.5518
  215MOL0     H28369   9.489   5.816   6.458  2.5897  1.5915 -1.4590
  215MOL0     H28370   9.344   5.391   6.413 -1.1554 -0.3702  0.2868
  215MOL0     H28371   9.365   5.397   6.576 -0.3498 -0.4560  0.6425
  215MOL0     H28372   9.585   5.323   6.467 -0.0123 -0.5445  2.2010
  215MOL0     H28373   9.583   5.479   6.374  0.8162 -0.7983 -0.9927
  215MOL0     H28374   9.563   5.523   6.675 -0.0756  0.7354 -0.4851
  215MOL0     H28375   9.665   5.589   6.558  1.5292 -0.2461  0.0368
  215MOL0     H28376   9.728   5.314   6.659  2.4648 -0.4211  1.7568
  215MOL0     H28377   9.830   5.422   6.560 -2.1724 -1.2428 -1.9473
  215MOL0     H28378   9.905   5.550   6.952 -1.2593  1.5161 -0.2781
  215MOL0     H28379   9.220   5.529   6.291 -1.4916  1.5574 -0.2424
  215MOL0     H28380   9.228   5.633   6.075  1.3711 -0.9331 -1.0125
  216MOL0     O28381   2.971   8.920   7.364 -0.2759 -0.3329 -0.1670
  216MOL0     C28382   2.971   8.794   7.381 -0.8660 -0.5042 -0.3235
  216MOL0     O28383   2.866   8.725   7.431  0.2256  0.4633 -0.4191
  216MOL0     C28384   2.746   8.783   7.399 -0.1000 -0.6340  0.6363
  216MOL0     C28385   2.696   8.890   7.483 -0.1918 -0.0775  0.2732
  216MOL0     C28386   2.580   8.956   7.454 -0.2515 -0.6809 -0.4766
  216MOL0     C28387   2.516   8.929   7.332 -0.3073  0.3798 -0.0057
  216MOL0     O28388   2.400   9.005   7.311  0.3033  0.3624  0.2077
  216MOL0     C28389   2.301   8.964   7.223 -0.3870 -0.6464 -1.2101
  216MOL0     C28390   2.222   8.869   7.303  1.3487  0.1588 -0.0337
  216MOL0     C28391   2.087   8.866   7.235 -0.3835 -1.3238 -1.3093
  216MOL0     C28392   1.999   8.745   7.274  0.0993 -0.3314  0.2513
  216MOL0     C28393   1.841   8.766   7.245  0.3267  0.0349  0.2540
  216MOL0     C28394   1.743   8.700   7.348  0.1205  0.7933 -0.5076
  216MOL0     C28395   1.599   8.714   7.305  0.6906  0.6258 -0.7435
  216MOL0     C28396   1.505   8.666   7.413  0.0303 -0.8036  1.1144
  216MOL0     N28397   1.528   8.526   7.444  0.8840 -0.4595 -0.0538
  216MOL0     C28398   1.494   8.421   7.364  0.7533 -0.5330  0.6916
  216MOL0     C28399   1.546   8.315   7.418 -0.4606 -0.2822  0.4515
  216MOL0     C28400   1.547   8.178   7.351  0.1704  0.7450  0.3996
  216MOL0     C28401   1.452   8.086   7.443  0.2026  0.3267  0.3786
  216MOL0     C28402   1.453   7.958   7.381  0.4848  1.1107  0.2740
  216MOL0     C28403   1.397   7.842   7.476  0.5125  0.2157 -0.9533
  216MOL0     O28404   1.292   7.898   7.558 -0.0763  0.6154 -0.2725
  216MOL0     C28405   1.249   7.837   7.674  0.1549 -0.1701  0.2293
  216MOL0     C28406   1.151   7.912   7.747 -0.9217 -0.9790 -1.0790
  216MOL0     C28407   1.074   7.863   7.847 -0.4158  0.2626 -0.6534
  216MOL0     C28408   1.093   7.723   7.883  1.2199  0.0784  1.2790
  216MOL0     C28409   1.012   7.649   7.988  0.4095  0.6033  0.2463
  216MOL0     O28410   1.046   7.518   8.018 -0.4118 -1.1035  0.4829
  216MOL0     C28411   0.989   7.460   8.129 -0.7206 -0.8819 -0.4084
  216MOL0     C28412   0.977   7.318   8.131 -1.2285  0.3069 -1.1164
  216MOL0     C28413   0.946   7.244   8.239 -0.0219  0.0635 -0.2460
  216MOL0     C28414   0.901   7.318   8.357  0.3447  0.5626  0.3771
  216MOL0     O28415   0.859   7.250   8.463 -0.0973 -0.8543 -0.6569
  216MOL0     C28416   0.729   7.293   8.506 -0.6082 -0.2810 -0.7184
  216MOL0     C28417   0.621   7.187   8.471 -0.2215  0.8393  0.0461
  216MOL0     C28418   0.479   7.236   8.490 -0.5069 -0.4310  0.4386
  216MOL0     C28419   0.380   7.125   8.504 -1.0682 -0.5091  0.3117
  216MOL0     C28420   0.243   7.168   8.474  0.4514 -0.6492 -0.1234
  216MOL0     C28421   0.211   7.275   8.599 -0.3523 -0.6355  0.3196
  216MOL0     C28422   0.058   7.284   8.635 -0.0184  0.0341  0.1190
  216MOL0     C28423  -0.014   7.361   8.523  0.3722 -0.1149 -0.2291
  216MOL0    Cl28424  -0.054   7.283   8.374 -0.4304  0.4709 -0.2252
  216MOL0     C28425   0.919   7.457   8.360  0.4791 -0.1316 -0.1424
  216MOL0     C28426   0.976   7.525   8.252  0.3431  0.1863  0.3706
  216MOL0     O28427   0.930   7.720   8.048 -0.1785 -0.2477 -0.1158
  216MOL0     C28428   1.196   7.652   7.817 -0.1262 -0.0705  0.3347
  216MOL0     C28429   1.266   7.704   7.713 -0.6982 -0.7838 -0.7586
  216MOL0     N28430   1.619   8.346   7.521 -0.1997  0.1180  0.2614
  216MOL0     N28431   1.614   8.473   7.542 -0.5960 -0.0637  0.2613
  216MOL0     C28432   2.559   8.824   7.248  0.2661  0.0044 -0.2164
  216MOL0     C28433   2.671   8.746   7.283  0.2732 -0.0399 -0.8256
  216MOL0     C28434   3.111   8.726   7.381 -0.6589 -0.6784  0.1521
  216MOL0     C28435   3.115   8.587   7.395 -0.0964  0.2425 -0.1344
  216MOL0     C28436   3.234   8.513   7.390 -0.1218 -1.2155  0.6317
  216MOL0     C28437   3.360   8.589   7.382 -0.3442  0.0978  0.8244
  216MOL0     O28438   3.488   8.538   7.369  0.0770  0.1716 -0.1604
  216MOL0     C28439   3.493   8.394   7.342 -0.2609 -1.2298 -0.3745
  216MOL0     C28440   3.642   8.354   7.304 -0.5797 -0.1003 -0.0313
  216MOL0     C28441   3.658   8.200   7.326  0.1327  0.3800 -0.1396
  216MOL0     C28442   3.678   8.154   7.463 -0.1205 -0.1275 -0.5002
  216MOL0     C28443   3.734   8.017   7.462 -0.0389  0.6909 -0.2841
  216MOL0     C28444   3.780   7.906   7.476  0.6514 -0.2428 -0.5946
  216MOL0     C28445   3.352   8.729   7.365  0.0090 -0.1310  0.3029
  216MOL0     C28446   3.237   8.796   7.359  0.9815 -0.3604 -1.1349
  216MOL0     H28447   2.753   8.918   7.571 -0.9124 -3.8412  2.1170
  216MOL0     H28448   2.535   9.027   7.522 -0.7237  0.2050 -1.6846
  216MOL0     H28449   2.340   8.927   7.128  0.9704  0.9598 -1.3182
  216MOL0     H28450   2.238   9.052   7.205 -2.8970 -1.8873  0.7736
  216MOL0     H28451   2.209   8.895   7.408 -4.1962  2.7519 -1.0175
  216MOL0     H28452   2.255   8.764   7.299 -1.3087 -0.7689  0.2043
  216MOL0     H28453   2.099   8.857   7.127 -0.7930  0.3750 -1.5149
  216MOL0     H28454   2.046   8.966   7.248  1.8363 -0.2403 -2.1277
  216MOL0     H28455   2.035   8.656   7.220  2.4522  2.3944 -3.0768
  216MOL0     H28456   2.005   8.733   7.383  0.3835 -0.5249  0.2164
  216MOL0     H28457   1.808   8.729   7.147 -0.2194 -1.0064  0.8060
  216MOL0     H28458   1.818   8.873   7.243 -0.9071 -0.1731  1.4621
  216MOL0     H28459   1.755   8.757   7.441  0.6080  1.2604 -0.8521
  216MOL0     H28460   1.771   8.599   7.380 -1.1050  1.2921  2.5127
  216MOL0     H28461   1.572   8.815   7.274 -1.0481  0.4744  0.1546
  216MOL0     H28462   1.563   8.654   7.221 -0.3370  0.4846 -0.2179
  216MOL0     H28463   1.407   8.693   7.374 -0.4657 -2.6375  0.9988
  216MOL0     H28464   1.524   8.728   7.501 -2.1400  1.1196  0.3300
  216MOL0     H28465   1.454   8.422   7.263 -0.0805  1.7525  0.9804
  216MOL0     H28466   1.650   8.142   7.362  0.0080  0.6393  1.8398
  216MOL0     H28467   1.524   8.194   7.246 -1.5771 -0.7112  0.5203
  216MOL0     H28468   1.358   8.135   7.469  1.0006  1.1704  1.8784
  216MOL0     H28469   1.509   8.075   7.537  0.7405 -1.4275 -0.1154
  216MOL0     H28470   1.395   7.953   7.288 -2.1414 -2.7619  1.8616
  216MOL0     H28471   1.555   7.931   7.353  0.0318 -2.8552  1.8456
  216MOL0     H28472   1.477   7.796   7.536  2.0001  1.4944 -1.8662
  216MOL0     H28473   1.355   7.761   7.416 -0.4843  1.7431 -2.3974
  216MOL0     H28474   1.146   8.013   7.708  1.2609 -0.4346 -0.1094
  216MOL0     H28475   1.006   7.914   7.914 -1.0065 -1.5471  0.1870
  216MOL0     H28476   1.003   7.261   8.042  0.0450  0.4131 -0.8177
  216MOL0     H28477   0.936   7.136   8.226 -0.4845 -0.2525  2.2579
  216MOL0     H28478   0.697   7.383   8.453 -1.4592  1.0997  1.9725
  216MOL0     H28479   0.721   7.308   8.614 -1.1126  2.3077 -1.0524
  216MOL0     H28480   0.651   7.111   8.543  1.7039  2.6322  1.2273
  216MOL0     H28481   0.631   7.150   8.368 -1.0400  1.3104 -0.2090
  216MOL0     H28482   0.465   7.293   8.397  0.3300  0.0119  0.5787
  216MOL0     H28483   0.472   7.301   8.578 -2.5747 -0.1781  0.1565
  216MOL0     H28484   0.400   7.053   8.424 -2.6849  1.0773 -1.6183
  216MOL0     H28485   0.390   7.073   8.601 -1.0194  2.3401  1.9420
  216MOL0     H28486   0.180   7.081   8.490 -3.7830  2.4261  1.7122
  216MOL0     H28487   0.220   7.215   8.377  0.9153 -0.6681 -0.2485
  216MOL0     H28488   0.249   7.374   8.571  0.6255 -1.2495 -0.5967
  216MOL0     H28489   0.271   7.234   8.681  0.2053 -1.1824 -0.3479
  216MOL0     H28490   0.036   7.178   8.653  2.1620 -0.6642 -0.9492
  216MOL0     H28491   0.047   7.336   8.731  0.8090  1.4750 -0.5371
  216MOL0     H28492   0.042   7.452   8.502  1.0541 -0.7521 -1.2530
  216MOL0     H28493  -0.111   7.386   8.566 -0.0701 -1.9854 -0.0329
  216MOL0     H28494   0.908   7.503   8.457 -2.9636 -1.0561  0.0195
  216MOL0     H28495   1.015   7.624   8.270  1.7906 -0.5809  1.7059
  216MOL0     H28496   1.209   7.544   7.821 -2.4862 -0.3860  1.3794
  216MOL0     H28497   1.346   7.647   7.667  0.7729  0.0865  0.5909
  216MOL0     H28498   2.502   8.796   7.160  2.3522 -2.8452 -0.8121
  216MOL0     H28499   2.691   8.665   7.214 -2.7258 -1.1486 -0.5486
  216MOL0     H28500   3.022   8.532   7.394 -0.3160  0.5852  0.7254
  216MOL0     H28501   3.243   8.405   7.389  1.4307 -1.1359 -1.4376
  216MOL0     H28502   3.422   8.374   7.261 -1.7160 -0.0244  0.5524
  216MOL0     H28503   3.462   8.343   7.433  2.6076 -1.4724  0.5600
  216MOL0     H28504   3.647   8.373   7.197  0.7183  0.7416  0.1658
  216MOL0     H28505   3.715   8.428   7.337 -0.0558 -0.7571  0.3277
  216MOL0     H28506   3.749   8.173   7.271 -0.2653 -2.5649  0.4914
  216MOL0     H28507   3.570   8.144   7.294 -0.8740  1.7501  0.1466
  216MOL0     H28508   3.745   8.223   7.517 -1.2517  0.6316 -0.0353
  216MOL0     H28509   3.585   8.169   7.518  1.1293 -1.1983  2.0784
  216MOL0     H28510   3.819   7.809   7.454 -1.6630 -1.4954  0.4317
  216MOL0     H28511   3.451   8.770   7.350  0.0583 -1.1910 -2.8058
  216MOL0     H28512   3.237   8.904   7.362 -0.2533 -0.3330  2.1275
  217MOL0     O28513   3.899   5.669   7.674  0.3541 -0.0526 -1.6639
  217MOL0     C28514   3.887   5.563   7.731 -0.0602  0.2013  0.4019
  217MOL0     O28515   3.788   5.523   7.814  0.0279 -0.7809 -0.0900
  217MOL0     C28516   3.703   5.624   7.856 -0.7050 -0.3587 -0.0649
  217MOL0     C28517   3.743   5.748   7.921  0.4233  1.2961 -0.2232
  217MOL0     C28518   3.640   5.828   7.971 -0.3858 -0.9359  0.1372
  217MOL0     C28519   3.505   5.794   7.944 -0.4852 -0.0100  0.8025
  217MOL0     O28520   3.396   5.874   7.975  0.0285  0.1954  0.5735
  217MOL0     C28521   3.405   5.977   8.065  0.1303 -0.4200  0.7945
  217MOL0     C28522   3.430   5.929   8.215 -0.2634 -0.0273 -0.5789
  217MOL0     C28523   3.424   6.061   8.302 -0.1539  0.8955  0.4141
  217MOL0     C28524   3.397   6.032   8.455 -0.2502  0.6092 -0.0932
  217MOL0     C28525   3.363   6.164   8.531  0.2682 -0.0007 -0.1485
  217MOL0     C28526   3.401   6.127   8.676  0.3805 -0.8631  0.1677
  217MOL0     C28527   3.368   6.236   8.783 -0.0036 -0.4249 -0.0309
  217MOL0     C28528   3.443   6.371   8.781 -1.0420 -0.7514  0.5710
  217MOL0     N28529   3.387   6.460   8.679  0.8652 -0.0936 -0.7479
  217MOL0     C28530   3.254   6.476   8.632 -0.2471  0.5292  0.2962
  217MOL0     C28531   3.250   6.580   8.551 -0.3874 -0.1348  0.2754
  217MOL0     C28532   3.124   6.629   8.483  0.3274 -0.7481 -0.4360
  217MOL0     C28533   3.047   6.541   8.383  0.2815 -0.1900 -0.2229
  217MOL0     C28534   3.123   6.473   8.263 -0.0441  0.1249  0.4265
  217MOL0     C28535   3.032   6.383   8.192  0.4949  1.0387 -0.5316
  217MOL0     O28536   3.029   6.256   8.264 -0.4365  0.0897 -0.3229
  217MOL0     C28537   3.012   6.133   8.202 -0.3725  0.1703  0.1441
  217MOL0     C28538   3.043   6.025   8.288  0.1252 -0.9622  1.2429
  217MOL0     C28539   3.041   5.891   8.233  0.4031 -0.8305 -0.3328
  217MOL0     C28540   3.019   5.864   8.095  0.2669 -0.6237 -0.2213
  217MOL0     C28541   3.025   5.723   8.036  0.1810 -0.1402 -0.0865
  217MOL0     O28542   2.971   5.708   7.915  0.3264  0.2708 -0.1331
  217MOL0     C28543   2.975   5.591   7.843 -0.0859  1.2812 -0.1610
  217MOL0     C28544   2.870   5.563   7.745 -0.5406  0.1353  0.9414
  217MOL0     C28545   2.867   5.438   7.684 -0.3060 -0.3593  0.2223
  217MOL0     C28546   2.974   5.339   7.697 -1.0176  0.6307  0.3246
  217MOL0     O28547   2.961   5.216   7.630 -1.0609  0.2921  0.3466
  217MOL0     C28548   3.066   5.110   7.640 -0.7613  0.5963 -0.1440
  217MOL0     C28549   3.042   5.028   7.516 -0.0891 -0.0232  0.4663
  217MOL0     C28550   3.135   5.051   7.396 -0.1281 -0.6303 -0.4361
  217MOL0     C28551   3.091   4.955   7.294  0.7425  0.5374  0.3223
  217MOL0     C28552   3.189   4.944   7.179  0.0031 -0.1894 -0.1966
  217MOL0     C28553   3.292   4.833   7.167  0.0526 -0.7642  0.3856
  217MOL0     C28554   3.381   4.847   7.045  0.5927 -0.9903 -0.3717
  217MOL0     C28555   3.475   4.731   7.045 -0.3291  0.6592  0.2331
  217MOL0    Cl28556   3.401   4.600   6.974  0.0380  0.3785 -0.0248
  217MOL0     C28557   3.084   5.377   7.776  0.3468 -0.4257  0.2837
  217MOL0     C28558   3.076   5.494   7.843 -1.1467  0.5011  0.7781
  217MOL0     O28559   3.087   5.634   8.090  0.2634  0.8291 -0.2608
  217MOL0     C28560   2.989   5.970   8.018 -0.3365 -0.0568 -0.3487
  217MOL0     C28561   2.981   6.105   8.072  0.1464 -0.0383 -0.7715
  217MOL0     N28562   3.383   6.630   8.550 -0.3994  0.2767  0.4643
  217MOL0     N28563   3.468   6.561   8.626 -0.2246 -0.5457  0.7714
  217MOL0     C28564   3.470   5.675   7.883 -0.1774 -0.0475  0.1258
  217MOL0     C28565   3.572   5.593   7.835  0.1854  0.5604 -0.8969
  217MOL0     C28566   4.001   5.473   7.696  0.2159  0.6948  0.4011
  217MOL0     C28567   3.991   5.336   7.712  0.0219  0.2118 -0.1678
  217MOL0     C28568   4.094   5.253   7.670 -0.2969 -0.5005 -1.2651
  217MOL0     C28569   4.219   5.303   7.631 -0.5907 -0.4277 -0.2542
  217MOL0     O28570   4.312   5.218   7.583 -0.0251  0.7197  0.6048
  217MOL0     C28571   4.447   5.255   7.551  0.0839  0.1549 -0.2033
  217MOL0     C28572   4.543   5.138   7.579 -0.6243 -0.8265 -0.5614
  217MOL0     C28573   4.682   5.178   7.516  0.8370  0.4740 -0.0242
  217MOL0     C28574   4.683   5.143   7.380  0.6031 -0.3579  0.0764
  217MOL0     C28575   4.809   5.131   7.304 -0.0913 -0.1967  0.8804
  217MOL0     C28576   4.900   5.139   7.226 -0.3630 -0.6905 -0.1307
  217MOL0     C28577   4.235   5.440   7.607 -0.4403  0.8024 -0.0338
  217MOL0     C28578   4.132   5.525   7.655  0.1569 -0.7014  0.5264
  217MOL0     H28579   3.848   5.777   7.926  0.2965  1.7353 -0.0996
  217MOL0     H28580   3.678   5.917   8.020 -3.4918 -0.5372  2.0825
  217MOL0     H28581   3.311   6.028   8.041 -1.9687 -1.9774  4.6778
  217MOL0     H28582   3.478   6.056   8.045  0.4780 -1.1242 -0.8030
  217MOL0     H28583   3.527   5.881   8.228 -0.1996  0.8807  3.5942
  217MOL0     H28584   3.350   5.859   8.239  0.3336 -0.9427 -1.1766
  217MOL0     H28585   3.338   6.120   8.267  0.9194  3.2371  1.4928
  217MOL0     H28586   3.519   6.115   8.298  0.5853 -0.4006  0.1338
  217MOL0     H28587   3.322   5.952   8.454  1.9104 -1.5547 -1.5393
  217MOL0     H28588   3.487   5.988   8.498 -0.6899 -0.3423 -0.1078
  217MOL0     H28589   3.256   6.181   8.544  0.4184 -0.0025  1.2436
  217MOL0     H28590   3.412   6.257   8.503  0.3079  0.6264  1.8467
  217MOL0     H28591   3.508   6.110   8.684  1.1867  2.5333 -1.4218
  217MOL0     H28592   3.349   6.032   8.693  2.1638 -2.3693 -2.1124
  217MOL0     H28593   3.263   6.267   8.788 -0.9647 -3.4750  3.7282
  217MOL0     H28594   3.383   6.198   8.885 -1.4201  0.4644  0.5462
  217MOL0     H28595   3.547   6.351   8.755 -1.4495 -2.7134  0.2976
  217MOL0     H28596   3.437   6.417   8.880  4.3759 -0.2825  0.9974
  217MOL0     H28597   3.163   6.418   8.643 -3.4909  3.7112 -4.9975
  217MOL0     H28598   3.149   6.726   8.439 -1.5494  0.1407  0.3526
  217MOL0     H28599   3.049   6.646   8.560 -2.2481 -2.1468 -2.4729
  217MOL0     H28600   2.962   6.594   8.338 -0.2200 -2.0929 -1.6324
  217MOL0     H28601   2.992   6.466   8.440 -1.1459  0.4274 -0.7257
  217MOL0     H28602   3.166   6.551   8.199  0.3559  0.6852  1.3609
  217MOL0     H28603   3.215   6.428   8.299  1.2691  1.1009 -1.4750
  217MOL0     H28604   3.070   6.370   8.090  2.6986  0.9833  0.2286
  217MOL0     H28605   2.934   6.431   8.203  1.6822  3.1289  2.3811
  217MOL0     H28606   3.069   6.047   8.391  1.7553  2.6144  0.2323
  217MOL0     H28607   3.051   5.804   8.297 -2.0964 -1.4993 -0.7562
  217MOL0     H28608   2.790   5.635   7.724  1.0784  2.3343  1.9234
  217MOL0     H28609   2.780   5.408   7.627 -0.1612  0.3812 -0.3932
  217MOL0     H28610   3.053   5.050   7.731  3.1157  0.4738  0.4868
  217MOL0     H28611   3.168   5.150   7.644 -1.4911  2.5819 -0.1917
  217MOL0     H28612   2.939   5.042   7.482  1.1439 -1.5672 -4.8077
  217MOL0     H28613   3.043   4.922   7.543 -1.1378 -0.3548 -0.6698
  217MOL0     H28614   3.233   5.013   7.424 -0.5750 -1.4246  0.1074
  217MOL0     H28615   3.138   5.155   7.365 -1.5009 -0.5213 -0.2602
  217MOL0     H28616   3.079   4.853   7.331 -0.6914  0.5600 -0.0202
  217MOL0     H28617   2.994   4.982   7.251  0.7329  1.8817  1.1363
  217MOL0     H28618   3.243   5.038   7.191  0.5329 -0.7991  3.8154
  217MOL0     H28619   3.131   4.934   7.087 -3.8404 -5.3596  2.2517
  217MOL0     H28620   3.237   4.740   7.152 -0.9047  0.2959 -4.0036
  217MOL0     H28621   3.356   4.825   7.256  0.3980 -4.4188 -0.0439
  217MOL0     H28622   3.321   4.847   6.953 -1.1348 -0.7799  0.7176
  217MOL0     H28623   3.435   4.942   7.051 -1.9526  0.4636  1.8422
  217MOL0     H28624   3.498   4.692   7.145 -3.9238 -1.1168  0.5116
  217MOL0     H28625   3.563   4.748   6.982  0.1501  1.6187  1.1168
  217MOL0     H28626   3.170   5.315   7.798 -0.7250 -1.6264  1.2628
  217MOL0     H28627   3.167   5.521   7.895 -0.9020 -2.0527  1.8299
  217MOL0     H28628   2.970   5.958   7.912 -0.8203 -1.8381 -0.0931
  217MOL0     H28629   2.974   6.190   8.005  0.5027  2.0967  1.7176
  217MOL0     H28630   3.368   5.642   7.872 -0.8943  0.9529  2.8352
  217MOL0     H28631   3.541   5.502   7.785 -3.2255  1.5400 -0.8075
  217MOL0     H28632   3.907   5.278   7.751  1.4062 -1.8253 -0.0463
  217MOL0     H28633   4.089   5.145   7.683 -0.1807 -0.4646 -0.9137
  217MOL0     H28634   4.481   5.330   7.623  2.6316 -0.6430 -0.4547
  217MOL0     H28635   4.438   5.292   7.449 -2.9755 -3.0169 -1.2978
  217MOL0     H28636   4.550   5.106   7.684 -0.1621  1.8796  0.3024
  217MOL0     H28637   4.504   5.055   7.520  2.5463 -1.2487 -2.2953
  217MOL0     H28638   4.768   5.137   7.570 -1.0159 -1.5392  1.5599
  217MOL0     H28639   4.699   5.284   7.537  0.5136  0.7818 -1.2483
  217MOL0     H28640   4.636   5.045   7.368 -0.2202 -0.2605  2.0516
  217MOL0     H28641   4.614   5.203   7.319  0.4215 -1.7119 -1.1211
  217MOL0     H28642   4.983   5.132   7.159 -0.1840 -1.8329  0.1718
  217MOL0     H28643   4.329   5.489   7.586 -0.2101  0.3857  0.0162
  217MOL0     H28644   4.150   5.632   7.654  0.3271 -0.7269 -0.8440
  218MOL0     O28645   8.958   9.650   8.512  0.8965  0.2419 -0.0025
  218MOL0     C28646   8.839   9.682   8.513  0.0223  1.0538 -0.5974
  218MOL0     O28647   8.791   9.775   8.591 -0.9029 -0.0324 -0.0806
  218MOL0     C28648   8.888   9.835   8.674  0.7805 -0.2364 -0.6721
  218MOL0     C28649   8.946   9.755   8.775 -0.0969  0.4961 -0.5041
  218MOL0     C28650   9.040   9.814   8.864 -0.9066 -0.1034 -0.1323
  218MOL0     C28651   9.081   9.948   8.858 -0.2940 -0.5277 -0.7435
  218MOL0     O28652   9.178  10.015   8.931  0.3420  0.0098  0.1977
  218MOL0     C28653   9.298   9.947   8.975 -0.8412  0.2902 -0.1314
  218MOL0     C28654   9.362  10.017   9.092 -0.5183 -0.9428 -0.6394
  218MOL0     C28655   9.426  10.156   9.052 -0.7758  0.6520 -0.8912
  218MOL0     C28656   9.462  10.227   9.188 -0.7872  0.2657 -1.2702
  218MOL0     C28657   9.490  10.370   9.176  0.1658 -0.4801 -0.1271
  218MOL0     C28658   9.527  10.433   9.314 -0.1552 -0.4730  0.0697
  218MOL0     C28659   9.548  10.588   9.314  0.1849 -0.4282 -0.7204
  218MOL0     C28660   9.562  10.655   9.456 -0.7394 -0.7417 -0.5030
  218MOL0     N28661   9.546  10.801   9.453  0.0499 -0.0986  0.7435
  218MOL0     C28662   9.423  10.856   9.453  0.8551 -0.4681  0.5778
  218MOL0     C28663   9.433  10.990   9.441  0.6709  0.2902  0.9545
  218MOL0     C28664   9.319  11.095   9.425  0.1646 -0.6662  0.8762
  218MOL0     C28665   9.250  11.118   9.293  0.8374 -0.3257 -0.1313
  218MOL0     C28666   9.193  10.991   9.220 -0.2108 -0.5193 -0.5512
  218MOL0     C28667   9.134  11.048   9.087 -0.2089 -0.4046 -0.7679
  218MOL0     O28668   9.233  11.036   8.984 -0.2337 -0.6831  0.4578
  218MOL0     C28669   9.235  10.918   8.909  0.1953 -0.3660 -0.3483
  218MOL0     C28670   9.168  10.800   8.936  0.4622 -0.5256  0.2791
  218MOL0     C28671   9.168  10.693   8.854 -0.0096 -0.3468  0.7930
  218MOL0     C28672   9.236  10.707   8.729  0.6535  0.7341  0.9020
  218MOL0     C28673   9.226  10.593   8.631  0.0860  0.5046  0.2005
  218MOL0     O28674   9.132  10.499   8.658  0.0874  0.3211 -0.4478
  218MOL0     C28675   9.134  10.387   8.579 -0.1509  0.6629 -0.0634
  218MOL0     C28676   9.012  10.340   8.518 -0.2354 -0.7661 -0.1823
  218MOL0     C28677   9.004  10.222   8.450  0.7956 -0.6326 -0.5734
  218MOL0     C28678   9.116  10.148   8.434  0.4454  0.8650  0.5278
  218MOL0     O28679   9.118  10.025   8.360  0.4086  0.2062 -0.3150
  218MOL0     C28680   8.998   9.985   8.300 -0.4281 -0.5460  1.7337
  218MOL0     C28681   9.036   9.870   8.210 -0.2667  0.5636  1.1044
  218MOL0     C28682   8.943   9.849   8.092  0.5506  0.3795  0.1251
  218MOL0     C28683   8.984   9.938   7.981 -0.4729 -0.9713 -0.5511
  218MOL0     C28684   8.913   9.884   7.861  0.2576  0.2264 -0.3725
  218MOL0     C28685   8.761   9.842   7.879  0.9692  0.0429  0.3967
  218MOL0     C28686   8.682   9.961   7.947  0.4854  0.7104  0.5508
  218MOL0     C28687   8.528   9.935   7.955 -0.9853  0.0049 -0.0983
  218MOL0    Cl28688   8.489   9.817   8.082  0.3165 -0.4892 -0.5975
  218MOL0     C28689   9.241  10.190   8.483  0.3532 -0.6354 -0.1575
  218MOL0     C28690   9.247  10.304   8.557  0.2214 -0.7391  0.8034
  218MOL0     O28691   9.281  10.609   8.526 -0.5736  0.0485 -0.0325
  218MOL0     C28692   9.300  10.833   8.698  0.0958 -0.8722  0.2955
  218MOL0     C28693   9.320  10.926   8.795 -0.3995  0.7376 -0.6282
  218MOL0     N28694   9.571  11.022   9.451  0.0224  0.5701 -0.8527
  218MOL0     N28695   9.639  10.911   9.448 -0.8773  0.5147 -0.0223
  218MOL0     C28696   9.014  10.026   8.768  0.2537  0.4841  0.0075
  218MOL0     C28697   8.931   9.972   8.675  0.8123 -0.5454  0.1058
  218MOL0     C28698   8.759   9.613   8.416  0.4591 -0.6004 -0.8787
  218MOL0     C28699   8.617   9.651   8.407  0.1074 -0.0785  0.4141
  218MOL0     C28700   8.527   9.584   8.317 -0.7217 -0.0862  0.5972
  218MOL0     C28701   8.582   9.485   8.232 -0.9994 -0.7286 -0.5027
  218MOL0     O28702   8.486   9.437   8.164  0.2736 -0.0648 -0.3839
  218MOL0     C28703   8.495   9.349   8.050 -1.0010  0.4249 -0.3252
  218MOL0     C28704   8.440   9.433   7.930  0.0837  0.5806 -0.3419
  218MOL0     C28705   8.402   9.344   7.808 -0.6555 -0.0163 -0.2823
  218MOL0     C28706   8.294   9.403   7.720 -0.7205  0.3901 -0.3567
  218MOL0     C28707   8.323   9.549   7.705  0.3877  0.6367  0.1822
  218MOL0     C28708   8.355   9.663   7.713 -0.1631 -0.7428  0.1500
  218MOL0     C28709   8.719   9.459   8.227 -0.3821  0.1973 -0.1451
  218MOL0     C28710   8.805   9.519   8.324  0.0824  1.1220  0.1834
  218MOL0     H28711   8.918   9.652   8.796 -1.2145  1.1257  1.2885
  218MOL0     H28712   9.072   9.746   8.942  0.5319 -0.3065 -0.8812
  218MOL0     H28713   9.362   9.930   8.887 -1.1371 -2.6290  0.1232
  218MOL0     H28714   9.286   9.843   9.006 -0.6245  1.2532  3.5449
  218MOL0     H28715   9.440   9.959   9.141 -1.3330 -0.4990  1.2683
  218MOL0     H28716   9.291  10.035   9.173 -0.6288  5.3602 -1.6109
  218MOL0     H28717   9.344  10.207   9.000 -0.9479  3.1719  1.6423
  218MOL0     H28718   9.505  10.127   8.983  0.4442 -0.3693  0.8525
  218MOL0     H28719   9.380  10.216   9.259  0.7365  3.6197  1.2640
  218MOL0     H28720   9.543  10.176   9.240 -2.0704 -0.6505 -0.0967
  218MOL0     H28721   9.402  10.420   9.136 -0.3505  0.8865  2.4780
  218MOL0     H28722   9.578  10.391   9.115  1.1683 -0.3978  1.2814
  218MOL0     H28723   9.601  10.379   9.374 -1.7968 -0.9771  1.7459
  218MOL0     H28724   9.442  10.433   9.382  1.3053 -1.1341  1.9968
  218MOL0     H28725   9.641  10.582   9.257  0.4968  0.7441 -0.3582
  218MOL0     H28726   9.477  10.643   9.251 -0.8244 -0.5060  0.3264
  218MOL0     H28727   9.658  10.634   9.505 -1.0729 -1.6701 -0.2219
  218MOL0     H28728   9.477  10.617   9.513 -0.0072 -2.1451 -0.2810
  218MOL0     H28729   9.333  10.795   9.449  0.8043 -0.3920  0.5547
  218MOL0     H28730   9.349  11.193   9.462 -2.5499  0.7994 -0.4851
  218MOL0     H28731   9.242  11.057   9.493  0.3197 -0.3402  1.2348
  218MOL0     H28732   9.316  11.166   9.221  2.6214  1.4767  2.5288
  218MOL0     H28733   9.164  11.182   9.315  0.5144 -0.1142 -1.8960
  218MOL0     H28734   9.263  10.909   9.205 -1.9114 -2.3969  1.1468
  218MOL0     H28735   9.116  10.947   9.285 -1.5773 -0.6785 -2.1879
  218MOL0     H28736   9.098  11.151   9.097 -0.8110 -0.6672 -0.0671
  218MOL0     H28737   9.047  10.982   9.082  1.0827 -2.1646 -0.8806
  218MOL0     H28738   9.105  10.785   9.022 -2.8006 -1.3060 -2.0785
  218MOL0     H28739   9.125  10.601   8.893 -4.5056  1.6300  1.1061
  218MOL0     H28740   8.935  10.414   8.538  0.1073  0.3335 -2.5418
  218MOL0     H28741   8.901  10.197   8.427 -0.8028  1.4053  3.3897
  218MOL0     H28742   8.967  10.065   8.233 -3.6098 -1.0909  2.3868
  218MOL0     H28743   8.925   9.958   8.377  0.3487  0.2058  2.7585
  218MOL0     H28744   9.046   9.775   8.264 -2.6608 -2.0053 -2.5109
  218MOL0     H28745   9.138   9.879   8.170  0.4924 -2.4343  2.1116
  218MOL0     H28746   8.841   9.871   8.124  0.7927  1.4998  0.1641
  218MOL0     H28747   8.956   9.744   8.064 -0.9925  0.3865 -0.7012
  218MOL0     H28748   8.953  10.039   8.009 -3.1998 -1.2682 -2.2136
  218MOL0     H28749   9.091   9.930   7.960 -0.6956 -2.7662 -1.1540
  218MOL0     H28750   8.962   9.791   7.830  1.4320 -0.3382  2.8343
  218MOL0     H28751   8.922   9.964   7.787 -1.0603  0.4941 -0.2626
  218MOL0     H28752   8.756   9.752   7.941  1.9133  0.5289  1.2185
  218MOL0     H28753   8.720   9.814   7.782  1.6907  1.1386 -0.2474
  218MOL0     H28754   8.708   9.986   8.050 -0.6884 -0.7453  1.2460
  218MOL0     H28755   8.689  10.053   7.888 -2.5037  1.6944  1.4888
  218MOL0     H28756   8.493   9.894   7.860 -0.0494 -1.4939  0.1666
  218MOL0     H28757   8.471  10.024   7.982  0.6833  0.9972  0.3240
  218MOL0     H28758   9.327  10.130   8.456  0.4011 -0.6905  0.1212
  218MOL0     H28759   9.345  10.344   8.581  0.1400 -0.1020  0.1135
  218MOL0     H28760   9.335  10.860   8.599 -5.1452  1.3273 -1.2813
  218MOL0     H28761   9.370  11.021   8.776  1.3823 -0.1325 -0.5116
  218MOL0     H28762   9.047  10.129   8.760 -0.2673  0.8180  1.6377
  218MOL0     H28763   8.898  10.026   8.586 -0.7499 -2.1443 -0.3284
  218MOL0     H28764   8.571   9.724   8.474  1.4175  3.2567 -2.0554
  218MOL0     H28765   8.422   9.609   8.305 -0.5331 -0.7054 -4.1348
  218MOL0     H28766   8.442   9.256   8.069  2.7294 -1.4674  1.8871
  218MOL0     H28767   8.597   9.322   8.021  0.4395  2.2250  2.5253
  218MOL0     H28768   8.366   9.509   7.960  0.7085  0.4807  1.5939
  218MOL0     H28769   8.525   9.494   7.900  1.2181 -0.9969 -0.4452
  218MOL0     H28770   8.367   9.245   7.840 -1.9651  0.6066  0.3011
  218MOL0     H28771   8.492   9.314   7.754 -2.3083 -2.9602 -1.6898
  218MOL0     H28772   8.294   9.348   7.625  0.3734 -1.8016  0.8322
  218MOL0     H28773   8.194   9.389   7.761 -0.4826 -0.2163  0.0352
  218MOL0     H28774   8.361   9.769   7.707 -3.0052 -0.5895 -1.8195
  218MOL0     H28775   8.770   9.396   8.155  1.8952  1.2236  0.4941
  218MOL0     H28776   8.911   9.495   8.318 -0.8112 -4.1155  0.8357
  219MOL0     O28777   9.239   4.109   6.925 -0.5825 -0.1082  0.3130
  219MOL0     C28778   9.325   4.191   6.905 -0.4796 -0.3335  1.2197
  219MOL0     O28779   9.330   4.285   6.799 -0.0988 -0.4349 -0.8263
  219MOL0     C28780   9.218   4.344   6.745 -0.4007  0.3714 -0.6222
  219MOL0     C28781   9.093   4.355   6.805  0.2176  0.1741  0.0720
  219MOL0     C28782   8.982   4.411   6.737  1.1905 -0.3582  0.1819
  219MOL0     C28783   8.994   4.470   6.609  0.3573 -0.5260  0.2579
  219MOL0     O28784   8.897   4.549   6.547  0.3333 -0.4176  0.0813
  219MOL0     C28785   8.765   4.536   6.602  0.2169  0.2444 -0.1975
  219MOL0     C28786   8.697   4.408   6.567  1.0752  0.2547 -0.4924
  219MOL0     C28787   8.584   4.350   6.659  0.3616 -0.0325  0.4473
  219MOL0     C28788   8.455   4.437   6.660  0.4277  0.1899 -0.9934
  219MOL0     C28789   8.364   4.382   6.767  0.2330 -0.4257 -0.7239
  219MOL0     C28790   8.394   4.441   6.910 -0.1831  0.0000  0.7723
  219MOL0     C28791   8.329   4.374   7.035 -0.1838 -0.1974 -0.1798
  219MOL0     C28792   8.392   4.450   7.155  0.5672 -0.0198 -0.3114
  219MOL0     N28793   8.372   4.370   7.284  0.1433  0.3921 -0.1100
  219MOL0     C28794   8.470   4.301   7.334  1.4507  0.6044 -0.5770
  219MOL0     C28795   8.430   4.256   7.452 -0.8527  0.0838 -1.2717
  219MOL0     C28796   8.524   4.172   7.523  0.1126  0.7335  0.0675
  219MOL0     C28797   8.638   4.247   7.591  0.2545 -0.1011  0.6405
  219MOL0     C28798   8.600   4.308   7.722 -1.1598  0.6055  0.0937
  219MOL0     C28799   8.730   4.342   7.799 -1.2401 -0.1318 -0.4901
  219MOL0     O28800   8.703   4.458   7.880 -0.6161  0.3855  0.2953
  219MOL0     C28801   8.773   4.473   7.991 -0.5496  0.5905  0.0797
  219MOL0     C28802   8.833   4.597   8.021  0.8665 -0.7643 -0.0184
  219MOL0     C28803   8.921   4.613   8.134  0.4070 -0.1985 -0.1026
  219MOL0     C28804   8.954   4.498   8.206 -0.5545  0.3940  0.6294
  219MOL0     C28805   9.049   4.507   8.314  1.0266 -0.0558 -0.7513
  219MOL0     O28806   9.128   4.400   8.331 -0.2410 -0.2468 -0.3552
  219MOL0     C28807   9.249   4.402   8.389  0.8325 -0.7917 -0.4966
  219MOL0     C28808   9.342   4.327   8.323  0.8967 -0.1578  0.9396
  219MOL0     C28809   9.470   4.303   8.380 -0.6136  0.0352  0.4471
  219MOL0     C28810   9.505   4.368   8.502 -0.1580 -1.0042 -0.2031
  219MOL0     O28811   9.633   4.358   8.549  0.2064 -0.4132 -0.2981
  219MOL0     C28812   9.741   4.388   8.461 -0.0211 -0.0783  0.6927
  219MOL0     C28813   9.870   4.436   8.541 -0.1429  0.3273  0.0600
  219MOL0     C28814   9.850   4.555   8.626  0.7296 -0.5208 -0.2252
  219MOL0     C28815   9.971   4.608   8.705 -0.3610 -0.2787 -0.1346
  219MOL0     C28816   9.929   4.732   8.798 -1.2602  0.3659 -0.2667
  219MOL0     C28817  10.062   4.786   8.863  0.0025  0.2603  0.0630
  219MOL0     C28818  10.118   4.720   8.986  0.4743  1.1800  0.4654
  219MOL0     C28819  10.260   4.764   9.009  0.1779 -0.5907 -0.1907
  219MOL0    Cl28820  10.316   4.701   9.168  0.4713  0.1115 -0.4921
  219MOL0     C28821   9.409   4.446   8.565  0.3748 -0.2899 -0.8388
  219MOL0     C28822   9.279   4.461   8.516  0.3069  1.0598  0.2479
  219MOL0     O28823   9.075   4.620   8.356 -0.0323  0.0693 -1.1592
  219MOL0     C28824   8.890   4.377   8.177 -0.0770  0.9314  0.7210
  219MOL0     C28825   8.795   4.364   8.070  0.4376 -0.1020  0.3144
  219MOL0     N28826   8.300   4.300   7.468  0.0788 -0.2391 -0.6160
  219MOL0     N28827   8.254   4.361   7.362  0.5707 -0.9419  0.3145
  219MOL0     C28828   9.119   4.458   6.547  0.4900  0.2641 -0.8364
  219MOL0     C28829   9.228   4.391   6.617 -0.1175  0.4909  0.7362
  219MOL0     C28830   9.454   4.168   6.970 -0.2940  0.3454 -0.3768
  219MOL0     C28831   9.472   4.055   7.051  0.6424  0.1164  0.4898
  219MOL0     C28832   9.598   4.030   7.115 -0.1067 -0.6771  0.1952
  219MOL0     C28833   9.698   4.131   7.125 -0.1692  0.0766 -0.1993
  219MOL0     O28834   9.799   4.110   7.208 -0.5301 -0.1851 -0.3363
  219MOL0     C28835   9.920   4.188   7.200  0.4118  0.2497  0.8330
  219MOL0     C28836  10.014   4.150   7.308 -0.4417 -0.0996  0.3006
  219MOL0     C28837  10.044   3.999   7.286  0.0136  0.2285 -0.9806
  219MOL0     C28838  10.148   3.937   7.380  0.3832  0.2132 -0.4390
  219MOL0     C28839  10.181   3.799   7.326 -0.1239 -0.6917  0.5766
  219MOL0     C28840  10.209   3.689   7.289  0.1396  0.1604  0.3488
  219MOL0     C28841   9.680   4.237   7.034 -0.4325 -0.2937  0.6812
  219MOL0     C28842   9.564   4.258   6.956  0.2399 -0.9107 -0.5789
  219MOL0     H28843   9.069   4.310   6.901 -0.1753 -2.1982 -1.0591
  219MOL0     H28844   8.891   4.425   6.794  1.7622 -2.5801  1.7852
  219MOL0     H28845   8.702   4.615   6.561 -0.7359 -0.3017  0.1997
  219MOL0     H28846   8.753   4.548   6.710 -3.4520  0.1359 -0.4697
  219MOL0     H28847   8.777   4.335   6.563  1.9806  1.2460 -0.9019
  219MOL0     H28848   8.657   4.417   6.466 -0.9614 -0.7758  0.1481
  219MOL0     H28849   8.619   4.317   6.757 -2.1553  0.7547  1.6768
  219MOL0     H28850   8.544   4.267   6.600 -2.4302  0.6092  1.3161
  219MOL0     H28851   8.483   4.539   6.687  3.1064 -1.0510  1.4267
  219MOL0     H28852   8.405   4.422   6.564 -2.4517 -4.7693  0.8814
  219MOL0     H28853   8.380   4.275   6.784 -0.1564 -0.4285 -0.3689
  219MOL0     H28854   8.259   4.408   6.753  0.5589  0.3591 -1.9074
  219MOL0     H28855   8.370   4.548   6.913 -0.0913  0.3100 -3.2804
  219MOL0     H28856   8.503   4.430   6.910 -0.1659 -0.2715  3.4401
  219MOL0     H28857   8.221   4.394   7.044 -0.2496  1.9038 -3.5765
  219MOL0     H28858   8.347   4.269   7.058  0.0182  0.1182  1.1763
  219MOL0     H28859   8.349   4.549   7.171  0.2679  0.0532 -1.4479
  219MOL0     H28860   8.497   4.464   7.129  0.0607 -0.6363 -3.0767
  219MOL0     H28861   8.569   4.296   7.291  1.3083 -0.3141 -0.8110
  219MOL0     H28862   8.559   4.094   7.455 -0.3701  0.3388  0.2681
  219MOL0     H28863   8.473   4.119   7.604 -1.1895  1.6130 -0.1453
  219MOL0     H28864   8.695   4.318   7.531 -2.0353  0.0466 -1.5301
  219MOL0     H28865   8.701   4.160   7.614 -0.3871 -0.5809  0.5936
  219MOL0     H28866   8.556   4.406   7.697  0.6391  2.1587  2.5476
  219MOL0     H28867   8.526   4.247   7.774 -0.4514 -0.6403 -0.3188
  219MOL0     H28868   8.811   4.362   7.729 -1.2826  2.0228 -0.0006
  219MOL0     H28869   8.774   4.254   7.847  2.0969  2.4652  1.6857
  219MOL0     H28870   8.828   4.674   7.946 -1.0743  1.8637  2.5876
  219MOL0     H28871   8.964   4.707   8.169 -0.7819  0.1059  0.5865
  219MOL0     H28872   9.321   4.278   8.228  0.0662  1.0705  0.4755
  219MOL0     H28873   9.527   4.231   8.324 -0.9620 -0.3240  0.5549
  219MOL0     H28874   9.705   4.464   8.391 -1.8182 -1.7940 -0.3270
  219MOL0     H28875   9.761   4.295   8.408 -3.2232  0.8806 -2.6750
  219MOL0     H28876   9.954   4.457   8.473  0.6896 -0.7445  0.7247
  219MOL0     H28877   9.901   4.345   8.593 -2.0853 -1.0799 -1.1119
  219MOL0     H28878   9.770   4.530   8.698  1.9681 -3.2801  0.3203
  219MOL0     H28879   9.806   4.621   8.551 -0.6332 -1.5731 -0.3970
  219MOL0     H28880  10.004   4.524   8.767 -0.2927 -0.5750 -0.5701
  219MOL0     H28881  10.051   4.634   8.636  3.1389 -3.8392  2.1838
  219MOL0     H28882   9.870   4.699   8.884 -0.6230 -0.7438 -0.2251
  219MOL0     H28883   9.882   4.814   8.743 -0.6253  0.2926 -0.9385
  219MOL0     H28884  10.018   4.881   8.895 -0.9867  1.3971 -4.1093
  219MOL0     H28885  10.146   4.801   8.795  2.0052  0.6012  2.4376
  219MOL0     H28886  10.061   4.754   9.073 -0.9538  0.2489 -0.0753
  219MOL0     H28887  10.114   4.610   8.990 -0.0723  1.2275  2.1839
  219MOL0     H28888  10.274   4.873   9.005  1.7011 -0.7571  0.1512
  219MOL0     H28889  10.331   4.725   8.936  0.8207 -2.2498  1.2687
  219MOL0     H28890   9.448   4.490   8.657  1.1333 -0.9884 -0.8087
  219MOL0     H28891   9.197   4.519   8.556 -0.4672  0.8387 -0.9596
  219MOL0     H28892   8.911   4.289   8.238 -1.9865  0.9107  1.4215
  219MOL0     H28893   8.744   4.271   8.045  0.7572  0.0293 -0.8439
  219MOL0     H28894   9.135   4.512   6.454 -2.3418  1.3481 -0.7954
  219MOL0     H28895   9.326   4.396   6.571 -0.4154  3.3405  0.2478
  219MOL0     H28896   9.396   3.977   7.054  1.2109 -0.4408  2.8534
  219MOL0     H28897   9.606   3.941   7.176  2.0701  1.4333  3.2943
  219MOL0     H28898   9.891   4.293   7.208 -1.5015 -0.3634  4.3745
  219MOL0     H28899   9.972   4.186   7.104 -2.1610 -1.9012 -0.6549
  219MOL0     H28900  10.101   4.215   7.322  2.0233 -3.4302  1.5167
  219MOL0     H28901   9.955   4.160   7.399 -1.4483 -1.8017 -0.1332
  219MOL0     H28902  10.086   3.978   7.187 -0.6249 -1.9148 -0.8553
  219MOL0     H28903   9.948   3.947   7.297  0.7849 -0.5842  4.8002
  219MOL0     H28904  10.244   3.991   7.387  0.5897 -0.1432 -0.5121
  219MOL0     H28905  10.098   3.920   7.475 -1.1983 -0.6788 -1.3892
  219MOL0     H28906  10.248   3.595   7.257  1.8294  0.6200  0.9422
  219MOL0     H28907   9.753   4.316   7.043 -0.0643 -0.1676 -2.3469
  219MOL0     H28908   9.557   4.346   6.892 -0.5983 -1.0806 -0.7347
  220MOL0     O28909  10.830   9.343   8.560  0.4628  0.3065 -1.0419
  220MOL0     C28910  10.741   9.358   8.647  0.2041 -0.3043  0.1645
  220MOL0     O28911  10.640   9.273   8.670  0.1534 -0.0462 -0.5676
  220MOL0     C28912  10.611   9.177   8.577  0.2575 -0.2457 -0.0574
  220MOL0     C28913  10.636   9.164   8.441 -0.1547 -0.9672  1.4030
  220MOL0     C28914  10.593   9.048   8.378 -0.2649 -0.2666  0.0523
  220MOL0     C28915  10.531   8.946   8.443  0.6038 -0.2064 -0.0464
  220MOL0     O28916  10.494   8.841   8.364  0.5324 -1.1127  0.2566
  220MOL0     C28917  10.436   8.723   8.409  0.0621  0.4246 -0.4016
  220MOL0     C28918  10.416   8.634   8.293  0.9279  0.1171  0.7284
  220MOL0     C28919  10.543   8.551   8.264 -0.5036 -0.5933 -0.0144
  220MOL0     C28920  10.525   8.476   8.135  0.6664 -1.4848  0.7377
  220MOL0     C28921  10.645   8.390   8.079 -0.4112 -0.1954  0.1234
  220MOL0     C28922  10.783   8.459   8.079  0.2103  0.1442  0.6125
  220MOL0     C28923  10.908   8.366   8.058  0.3595  0.4099 -0.4664
  220MOL0     C28924  10.892   8.277   7.940  0.6177  0.9147  0.2927
  220MOL0     N28925  10.896   8.349   7.818 -0.0220 -0.2265  0.3426
  220MOL0     C28926  10.932   8.483   7.791 -0.8694 -0.0140 -0.4739
  220MOL0     C28927  10.880   8.507   7.665  0.7250  0.2566 -0.8550
  220MOL0     C28928  10.903   8.627   7.578  0.0728 -0.0325  0.2933
  220MOL0     C28929  10.896   8.765   7.653  0.8393 -0.7579  0.4266
  220MOL0     C28930  10.856   8.879   7.556  0.4793  0.1304 -0.3522
  220MOL0     C28931  10.936   8.903   7.435 -0.5039  1.6108  0.3192
  220MOL0     O28932  11.066   8.957   7.466 -0.0617 -0.2802  0.2358
  220MOL0     C28933  11.080   9.093   7.480 -0.0151 -0.9054 -0.2911
  220MOL0     C28934  11.034   9.180   7.379 -0.8843  0.4120  0.7706
  220MOL0     C28935  11.054   9.322   7.401 -0.4352  1.0118  0.5892
  220MOL0     C28936  11.108   9.379   7.510  0.3169 -0.6450 -0.5549
  220MOL0     C28937  11.114   9.521   7.524  0.3568 -0.5208 -0.2409
  220MOL0     O28938  11.074   9.595   7.421  0.1270  0.3376 -0.0576
  220MOL0     C28939  11.088   9.724   7.432  0.1642 -1.0524 -0.3894
  220MOL0     C28940  11.214   9.783   7.436  0.2223 -0.2511  0.1925
  220MOL0     C28941  11.233   9.921   7.432 -0.3240  0.3366 -0.0094
  220MOL0     C28942  11.125  10.010   7.419  0.1301 -0.4289 -0.0599
  220MOL0     O28943  11.125  10.145   7.414 -0.3092  0.4361 -0.8643
  220MOL0     C28944  11.258  10.211   7.394 -0.2185  0.4362 -0.7999
  220MOL0     C28945  11.251  10.360   7.374  0.3147 -0.6806  0.4271
  220MOL0     C28946  11.371  10.447   7.355 -0.1696 -0.6930 -0.6994
  220MOL0     C28947  11.335  10.587   7.299 -0.5330  0.2396  0.3699
  220MOL0     C28948  11.406  10.693   7.384 -0.3093  0.9697  0.5780
  220MOL0     C28949  11.356  10.707   7.528  0.2137  0.3993  0.6818
  220MOL0     C28950  11.200  10.725   7.542 -0.4030  0.1296  0.0489
  220MOL0     C28951  11.163  10.767   7.687  0.1183 -0.8311 -0.2612
  220MOL0    Cl28952  11.205  10.633   7.795 -0.1180 -0.0414  0.4573
  220MOL0     C28953  10.996   9.954   7.405 -0.4320  0.5403 -0.3452
  220MOL0     C28954  10.981   9.816   7.412 -0.9056  0.6047 -0.2652
  220MOL0     O28955  11.108   9.560   7.643 -0.2492  0.1577  0.1630
  220MOL0     C28956  11.131   9.286   7.618 -1.0926 -0.1047  2.0271
  220MOL0     C28957  11.125   9.144   7.599  0.0405 -0.3373  0.2392
  220MOL0     N28958  10.794   8.402   7.635 -0.5179  0.2655  0.1344
  220MOL0     N28959  10.798   8.318   7.723  0.3028  0.0281  0.5818
  220MOL0     C28960  10.496   8.960   8.576  0.8432  0.3571 -0.1009
  220MOL0     C28961  10.542   9.074   8.641  0.2720 -0.8940  0.2433
  220MOL0     C28962  10.758   9.476   8.741 -0.3174 -0.3031 -0.0276
  220MOL0     C28963  10.645   9.525   8.807 -0.1741  0.7623 -0.7512
  220MOL0     C28964  10.650   9.635   8.894  0.1477  0.7379 -0.0477
  220MOL0     C28965  10.772   9.708   8.895  0.1637  0.8180  0.5260
  220MOL0     O28966  10.781   9.805   8.999  0.6697  0.1552  0.4997
  220MOL0     C28967  10.916   9.834   9.044  0.1523  0.5694  0.3117
  220MOL0     C28968  10.904   9.943   9.142  0.1775 -0.9980 -0.2816
  220MOL0     C28969  10.837   9.895   9.282 -0.0324 -0.8612 -1.1939
  220MOL0     C28970  10.817  10.008   9.383 -0.8202  0.5401  0.1546
  220MOL0     C28971  10.739  10.125   9.324 -0.1513  0.8384  1.1064
  220MOL0     C28972  10.694  10.212   9.263  0.3811 -0.2128 -0.2013
  220MOL0     C28973  10.881   9.671   8.814 -0.5244 -0.7969 -0.0913
  220MOL0     C28974  10.876   9.557   8.736  0.1081 -0.2816 -0.4520
  220MOL0     H28975  10.676   9.247   8.385 -0.2269 -0.1653  2.5172
  220MOL0     H28976  10.607   9.034   8.272  1.0524  3.3842 -0.3929
  220MOL0     H28977  10.336   8.747   8.445  0.4753  1.5723  0.0055
  220MOL0     H28978  10.494   8.677   8.489  0.3650  1.8149  0.2078
  220MOL0     H28979  10.378   8.698   8.213 -1.3759 -2.4790 -0.4145
  220MOL0     H28980  10.331   8.566   8.303  1.6303 -0.9342 -0.3145
  220MOL0     H28981  10.566   8.484   8.347  0.0159 -1.0239 -0.4905
  220MOL0     H28982  10.623   8.626   8.256 -1.5855  1.2968  4.1714
  220MOL0     H28983  10.441   8.409   8.154  0.0602 -0.7236  0.7970
  220MOL0     H28984  10.502   8.554   8.062 -1.0863 -0.7970  1.9311
  220MOL0     H28985  10.610   8.370   7.978 -2.4372  3.2763 -0.0295
  220MOL0     H28986  10.646   8.298   8.140 -1.6686  0.2474  0.8575
  220MOL0     H28987  10.789   8.508   8.177 -0.1501  0.1703  0.6258
  220MOL0     H28988  10.783   8.535   8.000  2.7485 -0.7923 -0.3824
  220MOL0     H28989  10.995   8.433   8.055 -2.2552  4.2111  0.5448
  220MOL0     H28990  10.907   8.296   8.141 -1.9638 -1.4795 -1.9541
  220MOL0     H28991  10.803   8.213   7.945  2.2841 -1.6901 -1.0846
  220MOL0     H28992  10.971   8.201   7.943  1.2439  1.5943  1.3808
  220MOL0     H28993  11.003   8.544   7.846  0.7944 -2.7833  0.6510
  220MOL0     H28994  10.831   8.618   7.496  0.3276 -1.2466  0.1756
  220MOL0     H28995  11.004   8.621   7.536  0.6957  3.6435  0.9208
  220MOL0     H28996  10.982   8.799   7.711  0.2983  0.2507  0.6529
  220MOL0     H28997  10.814   8.752   7.724 -0.6789 -1.5908 -1.4086
  220MOL0     H28998  10.753   8.861   7.525 -0.0662 -0.3196  1.5302
  220MOL0     H28999  10.869   8.974   7.608  6.5779 -0.1490 -0.6225
  220MOL0     H29000  10.876   8.975   7.378  0.6318  3.7213  1.6481
  220MOL0     H29001  10.938   8.816   7.369 -2.3262  1.1530  0.8376
  220MOL0     H29002  10.979   9.145   7.292  0.6629 -1.3070  0.4034
  220MOL0     H29003  11.027   9.380   7.313  0.3037 -1.4120 -1.3612
  220MOL0     H29004  11.294   9.718   7.470  0.1200 -0.0933  0.7382
  220MOL0     H29005  11.338   9.945   7.445  0.0062 -0.5451 -0.8843
  220MOL0     H29006  11.302  10.169   7.303  0.7116 -1.8544  0.6102
  220MOL0     H29007  11.320  10.211   7.485 -2.0552 -0.8466  0.5168
  220MOL0     H29008  11.205  10.396   7.466  0.3239 -1.1626  0.6211
  220MOL0     H29009  11.194  10.356   7.280  1.5017 -1.0026 -0.3040
  220MOL0     H29010  11.436  10.401   7.280  0.1887  1.1695 -1.5803
  220MOL0     H29011  11.428  10.457   7.448  1.7740  0.0255 -1.9103
  220MOL0     H29012  11.376  10.595   7.198 -0.5528  0.7171  0.3988
  220MOL0     H29013  11.229  10.602   7.280 -0.0094  2.0523 -1.4235
  220MOL0     H29014  11.366  10.786   7.341 -3.4290  0.1358  1.4325
  220MOL0     H29015  11.513  10.676   7.372 -0.1418  0.5521  2.3925
  220MOL0     H29016  11.401  10.797   7.572 -1.4560  0.4882  2.3115
  220MOL0     H29017  11.394  10.624   7.588  0.0879 -2.9966 -3.4874
  220MOL0     H29018  11.169  10.806   7.477 -0.3464 -1.9555 -2.7682
  220MOL0     H29019  11.150  10.633   7.511  3.1765 -2.2265  0.6058
  220MOL0     H29020  11.055  10.785   7.684  0.3028  0.3227 -0.1612
  220MOL0     H29021  11.214  10.855   7.725 -2.3632  0.0057  1.3534
  220MOL0     H29022  10.913  10.019   7.377  1.4078  1.7235 -3.5442
  220MOL0     H29023  10.876   9.788   7.410 -0.7036 -0.6046  2.2511
  220MOL0     H29024  11.158   9.325   7.716 -0.0918 -3.6741  3.3294
  220MOL0     H29025  11.130   9.078   7.685  0.1472 -2.4271 -1.3058
  220MOL0     H29026  10.430   8.891   8.627  0.7735  1.2589  1.0829
  220MOL0     H29027  10.513   9.076   8.745  1.3579 -2.5847  0.6287
  220MOL0     H29028  10.554   9.470   8.790  0.5431 -0.2053 -1.6127
  220MOL0     H29029  10.559   9.650   8.951  0.5202  0.9242  0.5071
  220MOL0     H29030  10.972   9.873   8.959 -2.2520 -0.4013 -1.8557
  220MOL0     H29031  10.956   9.742   9.089 -2.3685 -0.5437  0.4493
  220MOL0     H29032  10.997   9.989   9.176  0.7156 -1.7022 -0.7883
  220MOL0     H29033  10.833  10.012   9.095  0.7701 -1.2517 -1.5720
  220MOL0     H29034  10.903   9.813   9.311  0.6696 -0.2678 -1.0871
  220MOL0     H29035  10.740   9.852   9.255 -0.5363  0.6280 -1.8557
  220MOL0     H29036  10.770   9.980   9.477 -2.6644 -0.8938 -1.1163
  220MOL0     H29037  10.920  10.038   9.407  0.8320 -3.2150 -1.4298
  220MOL0     H29038  10.657  10.298   9.211  1.1703  0.3166  0.0937
  220MOL0     H29039  10.967   9.738   8.806 -0.9980 -0.2012 -0.2677
  220MOL0     H29040  10.960   9.530   8.672 -0.6219  1.8385 -2.4318
  221MOL0     O29041   1.670   8.819   4.247  0.4994  0.7412 -0.6187
  221MOL0     C29042   1.573   8.853   4.314  0.4689  0.2281  0.0075
  221MOL0     O29043   1.551   8.971   4.370  0.2136  0.1727 -0.2161
  221MOL0     C29044   1.655   9.068   4.376  0.4083 -0.3312  0.7923
  221MOL0     C29045   1.618   9.198   4.322  0.9804  0.1127 -0.1116
  221MOL0     C29046   1.710   9.299   4.320  0.0048  0.5366  0.4982
  221MOL0     C29047   1.834   9.271   4.361 -0.2133 -0.2835 -0.4220
  221MOL0     O29048   1.928   9.363   4.357 -0.1763 -0.2966 -0.1692
  221MOL0     C29049   1.905   9.509   4.325 -0.6540 -0.6505  0.5567
  221MOL0     C29050   2.026   9.584   4.379 -0.8273  1.1312 -0.7437
  221MOL0     C29051   2.016   9.737   4.367  0.5551 -0.2380  0.0241
  221MOL0     C29052   1.996   9.776   4.216  0.3684  0.0843  0.0993
  221MOL0     C29053   1.997   9.937   4.192  0.6506  0.0688 -0.2147
  221MOL0     C29054   1.915  10.018   4.299 -0.0732 -0.4292 -0.8024
  221MOL0     C29055   1.852  10.154   4.250 -1.8372 -0.0627 -0.2930
  221MOL0     C29056   1.782  10.165   4.118  0.1089  0.7045 -0.4471
  221MOL0     N29057   1.687  10.054   4.079  0.4204 -0.5634 -0.7378
  221MOL0     C29058   1.717   9.949   3.988  0.1927  0.1292  0.3407
  221MOL0     C29059   1.596   9.877   3.992 -0.2994  0.1857  0.5403
  221MOL0     C29060   1.566   9.751   3.901  0.5397  0.0568 -0.4224
  221MOL0     C29061   1.633   9.625   3.971  1.0827 -0.1710 -0.7385
  221MOL0     C29062   1.615   9.505   3.881 -0.5675 -0.6264 -0.8047
  221MOL0     C29063   1.652   9.375   3.946  0.2768  0.2143 -0.3290
  221MOL0     O29064   1.534   9.325   4.003  0.6002  0.2966  1.0577
  221MOL0     C29065   1.481   9.208   3.963  0.0055 -0.0259 -0.0813
  221MOL0     C29066   1.348   9.199   3.928  0.4436  0.8371 -0.8302
  221MOL0     C29067   1.290   9.072   3.908 -0.4966 -0.4356 -0.1705
  221MOL0     C29068   1.367   8.955   3.913 -0.4440 -0.2369 -1.3499
  221MOL0     C29069   1.304   8.829   3.897  0.9589 -0.0484  1.4013
  221MOL0     O29070   1.159   8.826   3.885  0.1989 -0.2105  0.1028
  221MOL0     C29071   1.104   8.703   3.873 -0.0636  0.2567 -0.5601
  221MOL0     C29072   1.148   8.619   3.765  0.4066  0.1805 -0.5327
  221MOL0     C29073   1.083   8.504   3.737 -0.3544  0.2552  0.1756
  221MOL0     C29074   0.985   8.455   3.824 -1.0079  0.1850  0.2433
  221MOL0     O29075   0.939   8.326   3.799 -0.2475  0.1268  0.9919
  221MOL0     C29076   0.828   8.272   3.885 -0.0942 -0.1886  0.5710
  221MOL0     C29077   0.786   8.132   3.842 -0.1786 -0.0080  0.3095
  221MOL0     C29078   0.674   8.068   3.923  0.0205 -1.2771 -0.1223
  221MOL0     C29079   0.680   7.920   3.927  0.3452  0.2445 -0.0434
  221MOL0     C29080   0.697   7.868   3.779 -0.6693  0.2432 -0.0427
  221MOL0     C29081   0.615   7.742   3.763 -0.6879  0.0678 -0.4388
  221MOL0     C29082   0.637   7.691   3.625 -0.8498  0.3762 -0.0789
  221MOL0     C29083   0.558   7.566   3.601  0.4550  0.1962 -0.4749
  221MOL0    Cl29084   0.590   7.489   3.443  0.0251 -0.1264 -0.2643
  221MOL0     C29085   0.941   8.527   3.929  0.0343  0.4140  0.0015
  221MOL0     C29086   0.999   8.653   3.952  0.4249 -0.3277  1.1217
  221MOL0     O29087   1.383   8.738   3.879 -0.0623  0.5077 -0.1367
  221MOL0     C29088   1.512   8.974   3.940 -0.1221 -0.7203  0.0828
  221MOL0     C29089   1.564   9.099   3.970  0.5086  0.5862  0.3739
  221MOL0     N29090   1.514   9.938   4.081 -0.6630  1.0082 -1.0354
  221MOL0     N29091   1.569  10.037   4.136 -0.1685  0.0731  0.1504
  221MOL0     C29092   1.874   9.151   4.412  0.5136  1.0139 -0.1495
  221MOL0     C29093   1.784   9.046   4.412  0.1998  0.9559  0.2047
  221MOL0     C29094   1.451   8.756   4.315 -0.0613  0.1043 -0.1046
  221MOL0     C29095   1.333   8.812   4.366 -0.8980  0.5577  0.1294
  221MOL0     C29096   1.219   8.723   4.368  0.4212  0.0181 -0.2729
  221MOL0     C29097   1.223   8.596   4.317  0.1973  0.1987 -0.1413
  221MOL0     O29098   1.102   8.531   4.337 -0.1300 -0.1766  0.2075
  221MOL0     C29099   1.072   8.408   4.270 -0.3554 -0.1256  0.2187
  221MOL0     C29100   0.944   8.346   4.325  0.7913 -0.0979  0.8112
  221MOL0     C29101   0.968   8.191   4.317 -1.2426 -0.5651 -0.9259
  221MOL0     C29102   1.046   8.147   4.437 -0.4233  0.7299 -0.5457
  221MOL0     C29103   1.189   8.127   4.404 -0.3227 -0.6746 -0.4093
  221MOL0     C29104   1.308   8.101   4.397 -0.0215  0.0418 -0.3044
  221MOL0     C29105   1.336   8.545   4.265 -0.0211  0.4183 -0.1710
  221MOL0     C29106   1.455   8.624   4.269 -0.3885 -0.2326  0.1063
  221MOL0     H29107   1.513   9.200   4.296  0.7964  1.3880  0.6432
  221MOL0     H29108   1.671   9.392   4.280 -0.9783 -1.8653 -5.0067
  221MOL0     H29109   1.820   9.557   4.373 -0.3390  1.9983 -1.2955
  221MOL0     H29110   1.891   9.528   4.218  0.3151 -0.4139  0.4624
  221MOL0     H29111   2.126   9.551   4.352 -0.2336 -0.1095  2.5123
  221MOL0     H29112   2.020   9.561   4.486 -0.9822  1.1970 -0.7385
  221MOL0     H29113   2.114   9.774   4.400 -0.5720  2.7771  0.3737
  221MOL0     H29114   1.939   9.777   4.434  1.4498 -1.9672  2.1735
  221MOL0     H29115   2.080   9.738   4.157  0.9446  1.2911  0.1064
  221MOL0     H29116   1.907   9.732   4.172  0.3074 -2.9061  2.8598
  221MOL0     H29117   1.955   9.950   4.092 -0.3474 -0.0945  0.1784
  221MOL0     H29118   2.095   9.983   4.175  0.0932  1.1014 -0.7351
  221MOL0     H29119   1.975  10.047   4.386 -2.4595 -1.1899  1.2118
  221MOL0     H29120   1.831   9.963   4.342 -1.0264  1.4653 -0.0926
  221MOL0     H29121   1.778  10.191   4.321 -0.7266  0.9046  0.4030
  221MOL0     H29122   1.931  10.230   4.255 -0.7752 -1.1852  1.6383
  221MOL0     H29123   1.858  10.173   4.040  0.4042 -1.3203 -0.4235
  221MOL0     H29124   1.724  10.257   4.121  1.5398  1.6027  1.4224
  221MOL0     H29125   1.808   9.932   3.931 -1.1776  1.0943 -2.3306
  221MOL0     H29126   1.609   9.768   3.802  0.0420 -0.2578 -0.6977
  221MOL0     H29127   1.458   9.746   3.883  0.8596  1.9311 -3.7401
  221MOL0     H29128   1.596   9.621   4.074  1.5042 -0.5361 -0.6024
  221MOL0     H29129   1.740   9.644   3.984  1.2297 -0.9140 -0.8547
  221MOL0     H29130   1.520   9.507   3.826  0.6070 -0.8199 -2.9434
  221MOL0     H29131   1.687   9.507   3.799 -1.0124  0.7383 -1.1845
  221MOL0     H29132   1.739   9.375   4.012 -0.7487  3.5870  1.2616
  221MOL0     H29133   1.677   9.316   3.857 -1.9862 -1.1966 -0.1294
  221MOL0     H29134   1.292   9.291   3.925 -1.8087 -0.3209  1.6036
  221MOL0     H29135   1.191   9.070   3.863 -0.5275 -1.5044 -0.0695
  221MOL0     H29136   1.230   8.639   3.696  0.5044 -0.8446 -0.7323
  221MOL0     H29137   1.113   8.450   3.648 -2.0436  1.6169 -1.3127
  221MOL0     H29138   0.738   8.334   3.886  1.6828  2.5454  0.2414
  221MOL0     H29139   0.863   8.263   3.988  1.1076  1.2792  0.3141
  221MOL0     H29140   0.871   8.063   3.846  1.0261  1.3855  0.0704
  221MOL0     H29141   0.748   8.146   3.740 -0.9309  0.2764  0.6238
  221MOL0     H29142   0.589   8.104   3.865  1.6374 -0.3063 -1.9884
  221MOL0     H29143   0.690   8.100   4.027  4.3854  1.5137 -1.3552
  221MOL0     H29144   0.766   7.901   3.992  1.4619  1.2472 -1.1784
  221MOL0     H29145   0.586   7.877   3.965 -0.4715  0.1037 -2.1010
  221MOL0     H29146   0.802   7.846   3.759 -0.4432 -1.2992  2.5232
  221MOL0     H29147   0.663   7.941   3.705 -0.1993  1.2514  0.7108
  221MOL0     H29148   0.511   7.760   3.795  0.3244  1.3875  2.4605
  221MOL0     H29149   0.649   7.661   3.828 -0.2347  0.9901  0.5050
  221MOL0     H29150   0.608   7.764   3.549 -3.0770  2.7167  2.7617
  221MOL0     H29151   0.740   7.656   3.621 -0.8782  0.3243 -0.3695
  221MOL0     H29152   0.459   7.612   3.606  2.5195  5.4557 -1.2423
  221MOL0     H29153   0.560   7.495   3.684  2.0492 -0.3617 -0.9513
  221MOL0     H29154   0.852   8.493   3.981 -2.4024 -0.8222 -4.5045
  221MOL0     H29155   0.959   8.723   4.025 -0.2114 -0.9519  1.3798
  221MOL0     H29156   1.589   8.898   3.950  1.3210  0.4352 -1.7325
  221MOL0     H29157   1.668   9.106   4.000  0.3260  1.1008  0.9175
  221MOL0     H29158   1.979   9.144   4.437  0.5884 -1.2535 -0.8657
  221MOL0     H29159   1.816   8.956   4.465 -1.0751  0.2311 -0.2048
  221MOL0     H29160   1.338   8.906   4.419  0.2724  1.2660 -1.1647
  221MOL0     H29161   1.127   8.758   4.413 -2.1956 -5.2894 -0.7416
  221MOL0     H29162   1.163   8.349   4.284 -1.3492 -2.4242 -2.2265
  221MOL0     H29163   1.042   8.409   4.165 -2.1531  0.9140  0.6914
  221MOL0     H29164   0.925   8.375   4.429 -0.6237  1.3251  0.1946
  221MOL0     H29165   0.864   8.372   4.255  2.5277  1.7412 -0.6094
  221MOL0     H29166   1.016   8.156   4.225 -4.1705 -0.9154 -2.4575
  221MOL0     H29167   0.868   8.147   4.319 -3.1608  3.2815 -1.3796
  221MOL0     H29168   1.030   8.207   4.527  3.7336 -0.3501  1.1138
  221MOL0     H29169   0.999   8.052   4.466 -1.5417  1.1995 -0.7703
  221MOL0     H29170   1.410   8.077   4.378 -0.0910  0.8530 -1.8960
  221MOL0     H29171   1.330   8.443   4.228 -1.3379 -0.4243  2.2028
  221MOL0     H29172   1.546   8.591   4.219 -1.4620 -0.5649 -1.7234
  222MOL0     O29173   8.710   8.693   9.878 -0.9660  0.3463 -1.1729
  222MOL0     C29174   8.759   8.611   9.795 -0.1744  0.5931  0.5811
  222MOL0     O29175   8.888   8.579   9.782 -0.8327 -0.1676 -0.6808
  222MOL0     C29176   8.981   8.632   9.865 -0.2373  1.2864  0.0402
  222MOL0     C29177   9.084   8.551   9.919 -0.8190 -0.4477 -0.5194
  222MOL0     C29178   9.171   8.585  10.028 -0.4846 -0.0200 -0.1067
  222MOL0     C29179   9.140   8.712  10.079 -0.8628 -0.2002 -0.7088
  222MOL0     O29180   9.201   8.764  10.186  1.0550  0.0843 -0.9085
  222MOL0     C29181   9.320   8.702  10.239 -1.0356 -0.6385 -0.9266
  222MOL0     C29182   9.374   8.795  10.352 -0.0589  0.7035 -0.2510
  222MOL0     C29183   9.417   8.928  10.293  0.6311 -0.1822 -0.7235
  222MOL0     C29184   9.418   9.041  10.407  0.6072 -0.3803 -0.0032
  222MOL0     C29185   9.465   9.168  10.342 -0.1480 -0.6757 -0.6597
  222MOL0     C29186   9.624   9.173  10.353  0.4513 -0.4160  0.3276
  222MOL0     C29187   9.672   9.309  10.300 -0.5379 -0.3070  0.3676
  222MOL0     C29188   9.824   9.327  10.331 -0.3069  0.9608  0.2712
  222MOL0     N29189   9.856   9.298  10.472 -0.7849  1.1472 -0.0229
  222MOL0     C29190   9.926   9.185  10.509  0.6229  0.8760 -1.2765
  222MOL0     C29191   9.940   9.202  10.643  0.2136 -0.2473  0.7857
  222MOL0     C29192  10.003   9.103  10.731  0.5053 -0.0551  0.0753
  222MOL0     C29193  10.154   9.111  10.709 -0.1278 -0.1776 -0.6856
  222MOL0     C29194  10.221   9.180  10.830 -1.1140 -0.4460  1.2192
  222MOL0     C29195  10.222   9.327  10.826 -0.7007 -0.0111 -0.2988
  222MOL0     O29196  10.306   9.351  10.937 -0.3549  0.7042  0.2241
  222MOL0     C29197  10.339   9.481  10.962  1.6469 -0.3875  0.0103
  222MOL0     C29198  10.321   9.596  10.879 -0.7128 -0.2296  0.4930
  222MOL0     C29199  10.373   9.727  10.910  0.1636  0.6568  0.3545
  222MOL0     C29200  10.447   9.728  11.040  0.8876  0.4450  0.7610
  222MOL0     C29201  10.519   9.856  11.083 -0.4737  0.5018  0.1134
  222MOL0     O29202  10.529   9.965  10.999 -0.3997  0.1878  0.3204
  222MOL0     C29203  10.540  10.081  11.068  1.5332  0.7184 -0.2469
  222MOL0     C29204  10.422  10.162  11.085 -0.8555 -0.1180  0.1876
  222MOL0     C29205  10.428  10.278  11.171 -0.5425  0.7200 -0.6277
  222MOL0     C29206  10.550  10.319  11.222  0.8943 -0.3803 -0.4810
  222MOL0     O29207  10.558  10.428  11.306  0.4846 -0.2350 -0.9492
  222MOL0     C29208  10.615  10.388  11.432  0.4046 -0.3258  0.1036
  222MOL0     C29209  10.593  10.509  11.521 -0.5065  0.6722 -0.5162
  222MOL0     C29210  10.676  10.479  11.653  0.2654 -0.5265  0.9346
  222MOL0     C29211  10.829  10.508  11.649  0.0760 -0.2930 -0.0044
  222MOL0     C29212  10.896  10.490  11.785 -0.8574  0.4198  0.0269
  222MOL0     C29213  11.045  10.542  11.779 -0.4147 -0.1115  0.4313
  222MOL0     C29214  11.105  10.534  11.916  0.5033 -0.4350  0.2087
  222MOL0     C29215  11.182  10.655  11.960  0.0168  0.5782  0.1055
  222MOL0    Cl29216  11.089  10.798  11.987  0.3271  0.3464 -0.0421
  222MOL0     C29217  10.665  10.249  11.189 -1.0727  0.0044  0.5225
  222MOL0     C29218  10.666  10.128  11.123 -0.3459  0.2270  0.5609
  222MOL0     O29219  10.556   9.859  11.199  0.7149  0.2220 -0.3085
  222MOL0     C29220  10.454   9.622  11.124 -0.0833  0.0941 -0.0626
  222MOL0     C29221  10.397   9.505  11.084 -0.1166  0.4538  0.1585
  222MOL0     N29222   9.895   9.327  10.680 -0.0154 -0.9359 -0.0894
  222MOL0     N29223   9.857   9.386  10.568 -0.3428 -0.5257  0.1677
  222MOL0     C29224   9.048   8.805  10.021 -0.8965 -0.4107  0.4823
  222MOL0     C29225   8.976   8.764   9.910 -0.4556  0.1094 -1.3318
  222MOL0     C29226   8.673   8.547   9.690 -0.3894 -0.3313 -0.2391
  222MOL0     C29227   8.722   8.503   9.570 -0.0933 -0.2487  0.0544
  222MOL0     C29228   8.636   8.453   9.475 -0.5586  1.5927 -0.8844
  222MOL0     C29229   8.500   8.425   9.505  0.5171 -0.6264 -0.1449
  222MOL0     O29230   8.406   8.383   9.420 -0.1258  0.0692 -0.0326
  222MOL0     C29231   8.437   8.278   9.328  0.1581 -0.1914 -0.5479
  222MOL0     C29232   8.422   8.331   9.184 -0.6450  0.4351  0.1707
  222MOL0     C29233   8.416   8.209   9.095  0.3236 -0.0040 -0.2676
  222MOL0     C29234   8.408   8.254   8.957  0.6841  0.3973  0.3403
  222MOL0     C29235   8.510   8.344   8.906  0.2939  0.2674 -0.4433
  222MOL0     C29236   8.601   8.421   8.889 -0.0300 -0.4340 -0.3058
  222MOL0     C29237   8.455   8.462   9.632  0.4335  0.4211  1.0921
  222MOL0     C29238   8.534   8.527   9.716  0.5161 -0.0643  0.4049
  222MOL0     H29239   9.102   8.448   9.887 -0.0395 -1.2862  2.3196
  222MOL0     H29240   9.253   8.526  10.067 -1.3786 -2.8207 -2.1218
  222MOL0     H29241   9.391   8.679  10.159 -0.1911  4.6788 -2.0683
  222MOL0     H29242   9.287   8.607  10.283  0.8916 -0.7633  0.3777
  222MOL0     H29243   9.463   8.745  10.393  1.7833  3.6497 -0.3393
  222MOL0     H29244   9.290   8.817  10.419 -1.5583 -0.3094 -1.7253
  222MOL0     H29245   9.335   8.969  10.234 -1.6186  0.0606  2.3360
  222MOL0     H29246   9.504   8.929  10.225  0.9643  1.9027 -0.3250
  222MOL0     H29247   9.321   9.063  10.453  1.9940  1.8792  2.0363
  222MOL0     H29248   9.477   9.013  10.494 -1.3836  1.2823  1.9923
  222MOL0     H29249   9.419   9.251  10.396 -1.2225 -1.9195  0.4099
  222MOL0     H29250   9.415   9.183  10.246 -1.6084  0.5232  0.2307
  222MOL0     H29251   9.658   9.092  10.288 -3.6074 -0.3471 -2.2758
  222MOL0     H29252   9.655   9.155  10.457  1.5090  1.5829  0.4050
  222MOL0     H29253   9.659   9.319  10.191  3.5435 -2.4538 -0.5447
  222MOL0     H29254   9.609   9.388  10.340  0.9313  0.4478  1.2834
  222MOL0     H29255   9.861   9.428  10.312 -1.9121  1.4830 -0.2150
  222MOL0     H29256   9.875   9.258  10.263 -1.3989 -0.7201  1.0836
  222MOL0     H29257   9.959   9.103  10.446 -0.2067  0.0656 -0.6838
  222MOL0     H29258   9.962   9.005  10.705  1.2925  0.3771 -3.2359
  222MOL0     H29259   9.980   9.114  10.837 -2.1467  0.4507 -0.4607
  222MOL0     H29260  10.180   9.156  10.613 -1.5755 -0.5925 -1.3044
  222MOL0     H29261  10.188   9.008  10.719 -0.3560 -0.0998  1.2701
  222MOL0     H29262  10.184   9.146  10.927  4.4165 -0.6228  3.6214
  222MOL0     H29263  10.325   9.153  10.808 -2.4564 -3.2523 -2.8276
  222MOL0     H29264  10.122   9.368  10.839  0.1306  2.5792 -1.5564
  222MOL0     H29265  10.277   9.360  10.738  0.1451 -1.7867 -0.4922
  222MOL0     H29266  10.284   9.584  10.777 -0.3508 -0.6814  0.4125
  222MOL0     H29267  10.369   9.815  10.847  0.7619  1.9559  2.0596
  222MOL0     H29268  10.327  10.132  11.042 -0.1128 -1.6984 -0.4210
  222MOL0     H29269  10.332  10.312  11.209 -1.6079 -3.3052  0.7952
  222MOL0     H29270  10.722  10.378  11.411  0.4246  0.2809 -0.0934
  222MOL0     H29271  10.570  10.305  11.487 -1.2019  1.1065  1.0467
  222MOL0     H29272  10.485  10.500  11.535 -0.2824 -1.2386  0.3190
  222MOL0     H29273  10.611  10.606  11.473  0.7257  1.3707  1.2126
  222MOL0     H29274  10.667  10.373  11.678 -1.5129 -0.8066 -0.6782
  222MOL0     H29275  10.625  10.529  11.736 -2.1155 -0.2217 -0.6142
  222MOL0     H29276  10.877  10.445  11.574  0.1164 -1.5929  1.0712
  222MOL0     H29277  10.851  10.611  11.621 -0.0048 -0.1029  0.6154
  222MOL0     H29278  10.910  10.387  11.819  1.9938 -0.9929 -4.4522
  222MOL0     H29279  10.843  10.555  11.855  0.1795 -0.4783  1.7051
  222MOL0     H29280  11.061  10.640  11.734  0.8833 -1.5516 -2.5668
  222MOL0     H29281  11.100  10.472  11.715  0.3650 -0.1962  1.1763
  222MOL0     H29282  11.026  10.521  11.990  0.4937  2.1612  0.7260
  222MOL0     H29283  11.160  10.439  11.919  0.4689 -0.5129 -1.0942
  222MOL0     H29284  11.261  10.673  11.886  1.1668  2.5083  1.6953
  222MOL0     H29285  11.237  10.636  12.053 -2.5390  0.4257  1.6696
  222MOL0     H29286  10.761  10.292  11.216  0.4547 -0.8250 -2.9573
  222MOL0     H29287  10.755  10.070  11.099 -1.7000 -0.7370 -2.7789
  222MOL0     H29288  10.524   9.620  11.207  1.2200 -2.9194 -1.0874
  222MOL0     H29289  10.410   9.427  11.158  0.9821  1.6506  1.2757
  222MOL0     H29290   9.056   8.908  10.053  1.9448 -0.7942  1.1997
  222MOL0     H29291   8.903   8.837   9.874 -2.6765 -1.3280 -0.0235
  222MOL0     H29292   8.825   8.509   9.536  0.0688  3.2938  0.7448
  222MOL0     H29293   8.674   8.418   9.379  1.4164 -1.3223  0.8031
  222MOL0     H29294   8.377   8.187   9.338 -0.6228  0.2345 -1.2235
  222MOL0     H29295   8.541   8.246   9.341 -0.1331  0.0583  3.7288
  222MOL0     H29296   8.328   8.383   9.163 -2.4118 -1.4579  2.7332
  222MOL0     H29297   8.501   8.406   9.173  1.0841 -1.0712  1.6680
  222MOL0     H29298   8.328   8.153   9.128 -0.1932  0.7467 -0.3471
  222MOL0     H29299   8.510   8.153   9.103  0.2647 -0.2042 -0.9263
  222MOL0     H29300   8.399   8.165   8.895  0.6261 -1.0975  2.4010
  222MOL0     H29301   8.318   8.312   8.930 -0.7742 -1.2888  1.3336
  222MOL0     H29302   8.679   8.492   8.871  1.3902 -0.8215  3.4221
  222MOL0     H29303   8.349   8.459   9.655 -0.1806  1.0117 -1.3452
  222MOL0     H29304   8.492   8.563   9.810 -2.1336 -2.4242  0.2298
  223MOL0     O29305   8.764  10.576   2.803  0.5984 -0.5396 -0.1016
  223MOL0     C29306   8.734  10.471   2.851  0.0888 -0.0329  0.3722
  223MOL0     O29307   8.728  10.452   2.990  0.5489  0.2176  0.0916
  223MOL0     C29308   8.755  10.569   3.062  0.0866  0.5104 -0.0652
  223MOL0     C29309   8.675  10.681   3.068  0.4218 -0.5529 -0.4877
  223MOL0     C29310   8.686  10.786   3.166  0.0490 -0.0299 -0.3434
  223MOL0     C29311   8.796  10.787   3.250 -0.1565 -0.5292  0.6139
  223MOL0     O29312   8.815  10.897   3.332  0.3434 -0.4578  0.6318
  223MOL0     C29313   8.947  10.910   3.385  0.2934  0.2097  0.0838
  223MOL0     C29314   8.955  11.028   3.473  0.0210 -0.9594 -1.1625
  223MOL0     C29315   8.885  10.981   3.602  0.2769  0.6432  1.4807
  223MOL0     C29316   8.860  11.096   3.701  0.0786 -0.4309 -0.3767
  223MOL0     C29317   8.759  11.060   3.806  1.1483  0.1940 -0.4113
  223MOL0     C29318   8.807  10.939   3.895  0.3841  0.5515 -0.1822
  223MOL0     C29319   8.697  10.838   3.942 -0.2840  0.0803 -0.7507
  223MOL0     C29320   8.590  10.902   4.026 -0.2875  0.7232 -0.0634
  223MOL0     N29321   8.615  10.892   4.168  0.0268  0.0689 -0.0713
  223MOL0     C29322   8.698  10.966   4.244  0.0371  0.1321  0.3291
  223MOL0     C29323   8.685  10.904   4.371 -0.6160 -0.4349 -0.0170
  223MOL0     C29324   8.785  10.926   4.483  0.7008  0.2009  0.0799
  223MOL0     C29325   8.725  10.921   4.632  0.4118  0.7313  0.7835
  223MOL0     C29326   8.833  10.932   4.745 -0.2720 -0.7052 -0.6243
  223MOL0     C29327   8.766  10.934   4.885 -0.5315  0.1760  0.2018
  223MOL0     O29328   8.658  11.023   4.904 -0.4606  0.0997  0.4984
  223MOL0     C29329   8.601  11.024   5.027 -0.9205 -1.0572 -0.1480
  223MOL0     C29330   8.674  11.017   5.149 -0.0069 -0.8958 -0.3111
  223MOL0     C29331   8.603  11.036   5.276  0.5613  0.8362  0.3323
  223MOL0     C29332   8.462  11.066   5.271 -0.5171 -0.7208  0.1876
  223MOL0     C29333   8.382  11.086   5.400  0.1448  0.2865  0.5331
  223MOL0     O29334   8.450  11.036   5.508 -0.1277  0.4355 -0.0725
  223MOL0     C29335   8.386  11.057   5.632 -0.2945  0.4297 -0.0298
  223MOL0     C29336   8.272  10.988   5.662  0.3866 -0.7300 -0.6566
  223MOL0     C29337   8.195  11.020   5.776 -0.0446  0.1553 -0.9499
  223MOL0     C29338   8.230  11.124   5.855  0.2100  0.7208 -0.0500
  223MOL0     O29339   8.145  11.157   5.962  0.4579 -0.3175  0.5489
  223MOL0     C29340   8.207  11.200   6.080  0.3404  0.2483  0.6724
  223MOL0     C29341   8.171  11.103   6.200 -0.2719 -0.2869 -0.9542
  223MOL0     C29342   8.243  11.147   6.331 -0.1069  0.6064  0.5762
  223MOL0     C29343   8.223  11.033   6.439 -0.5681  0.8208 -0.3545
  223MOL0     C29344   8.209  11.100   6.577 -0.3990  0.1826 -0.9510
  223MOL0     C29345   8.163  11.002   6.695 -0.1252 -0.0745 -0.4101
  223MOL0     C29346   8.008  10.975   6.694 -0.2629  0.1790 -0.3669
  223MOL0     C29347   7.963  10.906   6.826  0.0656  0.6615 -1.5544
  223MOL0    Cl29348   8.063  10.751   6.831 -0.2212  0.0599 -0.1845
  223MOL0     C29349   8.339  11.204   5.823 -0.4430  0.3552 -0.1674
  223MOL0     C29350   8.424  11.164   5.718 -0.9245  0.8961  0.4890
  223MOL0     O29351   8.285  11.162   5.406 -0.3607 -0.4423  0.5055
  223MOL0     C29352   8.401  11.064   5.147  0.9267  0.3201 -0.4892
  223MOL0     C29353   8.469  11.049   5.028  0.6969  0.4762  1.2681
  223MOL0     N29354   8.592  10.806   4.368 -0.1802 -0.3772  0.2489
  223MOL0     N29355   8.543  10.805   4.245 -0.6685 -1.3166 -0.4157
  223MOL0     C29356   8.894  10.679   3.241  0.6671 -0.5581 -0.2415
  223MOL0     C29357   8.873  10.573   3.145  0.3459  1.0139  1.1152
  223MOL0     C29358   8.733  10.360   2.764 -0.2379 -0.7449 -0.7633
  223MOL0     C29359   8.729  10.230   2.821  0.9616  1.2211  0.7217
  223MOL0     C29360   8.727  10.118   2.742  0.3122 -0.2839 -0.7194
  223MOL0     C29361   8.707  10.131   2.604 -0.1877  0.7027  0.6273
  223MOL0     O29362   8.684  10.036   2.508 -0.7797  0.5687  0.7509
  223MOL0     C29363   8.639   9.902   2.549 -0.8135 -0.0465 -0.3400
  223MOL0     C29364   8.579   9.836   2.426  1.0330  0.5225 -0.0306
  223MOL0     C29365   8.590   9.680   2.450  0.4628  0.3119 -0.3295
  223MOL0     C29366   8.735   9.628   2.428  1.3702 -0.1508  0.5487
  223MOL0     C29367   8.786   9.523   2.516  0.3649 -0.1921  0.4512
  223MOL0     C29368   8.818   9.417   2.576 -0.1639  0.8443 -0.8636
  223MOL0     C29369   8.708  10.260   2.550  0.1370 -0.5018 -0.2317
  223MOL0     C29370   8.722  10.374   2.624 -0.0669 -0.2007  0.2150
  223MOL0     H29371   8.590  10.677   2.999 -0.1368 -0.5854  0.1911
  223MOL0     H29372   8.613  10.867   3.167  0.7822  0.6420 -0.4659
  223MOL0     H29373   9.019  10.915   3.303  0.8649 -0.2639  0.5445
  223MOL0     H29374   8.974  10.826   3.451 -1.6962 -0.7252 -0.2098
  223MOL0     H29375   8.915  11.115   3.419  0.7642 -0.2549 -0.6074
  223MOL0     H29376   9.060  11.051   3.492 -0.1090 -2.7009  2.4416
  223MOL0     H29377   8.947  10.902   3.645 -1.5331 -2.4304 -1.0987
  223MOL0     H29378   8.789  10.935   3.581  0.6294  1.3382 -2.2708
  223MOL0     H29379   8.945  11.129   3.762  0.8419  2.5038 -2.7683
  223MOL0     H29380   8.822  11.186   3.652 -0.9851  0.6609  2.2603
  223MOL0     H29381   8.662  11.041   3.760  0.1088  0.8575  1.4110
  223MOL0     H29382   8.739  11.155   3.858 -3.6211 -0.5995 -0.3159
  223MOL0     H29383   8.872  10.986   3.970 -0.5990  0.7872  0.5427
  223MOL0     H29384   8.864  10.868   3.835 -1.3226 -2.5847  1.6302
  223MOL0     H29385   8.648  10.807   3.850  1.2305  1.3781 -2.0604
  223MOL0     H29386   8.748  10.753   3.988 -0.4071 -0.0261 -0.8123
  223MOL0     H29387   8.497  10.856   3.992  1.0338 -1.7901 -0.5121
  223MOL0     H29388   8.580  11.006   3.993 -0.2774  0.1810 -1.8374
  223MOL0     H29389   8.777  11.034   4.213  0.2336  0.2093  0.9890
  223MOL0     H29390   8.853  11.011   4.479  1.1723 -0.1177  1.1044
  223MOL0     H29391   8.844  10.834   4.480 -1.8358 -1.6334  1.6584
  223MOL0     H29392   8.679  10.823   4.642  1.5158  0.0073 -0.7620
  223MOL0     H29393   8.646  10.996   4.638  1.2107  1.6617  0.1295
  223MOL0     H29394   8.900  10.846   4.756  0.2453 -0.3175 -0.7089
  223MOL0     H29395   8.902  11.012   4.715  0.0066 -0.3535  0.8714
  223MOL0     H29396   8.848  10.950   4.956  0.5355  0.7377 -1.1065
  223MOL0     H29397   8.729  10.833   4.903  0.2846 -0.2152 -0.2887
  223MOL0     H29398   8.781  11.007   5.165  0.1301  1.5007  0.7749
  223MOL0     H29399   8.654  11.025   5.371  0.8479  0.7913  0.1731
  223MOL0     H29400   8.228  10.918   5.592 -1.5613  1.0142 -1.2926
  223MOL0     H29401   8.105  10.973   5.814  0.2451  0.3217 -0.0223
  223MOL0     H29402   8.166  11.300   6.096 -0.0162  0.1764  0.2420
  223MOL0     H29403   8.316  11.195   6.071  0.4287  0.8625  1.3940
  223MOL0     H29404   8.201  11.002   6.171 -2.7033 -1.0552 -0.9843
  223MOL0     H29405   8.062  11.099   6.208 -0.2032 -0.5729 -0.1122
  223MOL0     H29406   8.198  11.239   6.369 -1.4436 -0.4835  1.7402
  223MOL0     H29407   8.349  11.156   6.307 -0.0175 -1.8493 -0.2242
  223MOL0     H29408   8.136  10.971   6.417  0.5572 -0.7393 -0.5554
  223MOL0     H29409   8.314  10.972   6.444  0.3859  2.0815 -1.3722
  223MOL0     H29410   8.123  11.166   6.560 -1.3502 -0.1698  2.0439
  223MOL0     H29411   8.301  11.157   6.596  0.2262 -0.8096 -0.9217
  223MOL0     H29412   8.192  11.051   6.788  0.7473  0.1828 -0.8044
  223MOL0     H29413   8.214  10.908   6.676 -1.5618 -0.7939 -0.8743
  223MOL0     H29414   7.947  11.064   6.677 -0.1093  0.6105  1.2330
  223MOL0     H29415   7.981  10.910   6.610 -0.6859  2.0842 -1.7747
  223MOL0     H29416   7.859  10.873   6.829  0.8746 -2.0806  0.7867
  223MOL0     H29417   7.984  10.984   6.899  0.7913 -0.7514 -0.1864
  223MOL0     H29418   8.368  11.294   5.877 -2.1176 -0.9872  3.3411
  223MOL0     H29419   8.517  11.212   5.691 -1.5071  0.5045 -2.6282
  223MOL0     H29420   8.299  11.100   5.148  0.6140 -0.5507  0.3593
  223MOL0     H29421   8.428  11.062   4.929  1.2694  1.9952  1.2058
  223MOL0     H29422   8.987  10.675   3.296  0.3686  1.3430  0.4695
  223MOL0     H29423   8.943  10.490   3.141 -1.6656 -0.7510 -0.1944
  223MOL0     H29424   8.728  10.214   2.928  0.1930  1.0262  0.6956
  223MOL0     H29425   8.734  10.021   2.790 -1.4953  1.5592  3.7174
  223MOL0     H29426   8.564   9.921   2.626 -1.5712  1.9736 -1.4987
  223MOL0     H29427   8.724   9.846   2.590  0.3216  0.4244 -1.9272
  223MOL0     H29428   8.474   9.863   2.412  0.5165 -2.0933 -2.0627
  223MOL0     H29429   8.630   9.856   2.331 -2.7536 -0.2491 -2.4350
  223MOL0     H29430   8.534   9.625   2.374 -1.7276  0.6794  0.9062
  223MOL0     H29431   8.548   9.652   2.548 -0.9872  0.4844 -0.8789
  223MOL0     H29432   8.730   9.594   2.325 -1.7706  1.4319  0.0691
  223MOL0     H29433   8.805   9.712   2.432  2.8926 -1.3686  0.3461
  223MOL0     H29434   8.840   9.338   2.645  0.3560 -2.7140 -4.7302
  223MOL0     H29435   8.727  10.275   2.444  1.3694  0.1611  0.0616
  223MOL0     H29436   8.697  10.472   2.582 -4.7398 -1.4392 -0.4613
  224MOL0     O29437   2.210   6.150   0.344  0.0571 -0.1678  0.0792
  224MOL0     C29438   2.278   6.066   0.401  0.2781  0.5340 -0.6405
  224MOL0     O29439   2.297   5.941   0.369 -0.1862  0.9713  0.6581
  224MOL0     C29440   2.230   5.874   0.273  0.9467  0.0388  0.3561
  224MOL0     C29441   2.179   5.936   0.154  1.1184 -0.0651 -0.0605
  224MOL0     C29442   2.109   5.859   0.058 -0.4237 -0.3206  0.5447
  224MOL0     C29443   2.068   5.737   0.088 -1.0902  0.4290  0.5014
  224MOL0     O29444   1.995   5.652   0.006  0.3650 -0.5405  0.3387
  224MOL0     C29445   1.928   5.699  -0.109  0.1717  0.0137  0.0073
  224MOL0     C29446   1.849   5.594  -0.169  0.1814  0.1337  0.4514
  224MOL0     C29447   1.786   5.627  -0.300  0.7418 -0.5035  0.2428
  224MOL0     C29448   1.734   5.500  -0.375 -0.7794 -2.3136  0.2402
  224MOL0     C29449   1.646   5.534  -0.489  0.2421  0.0897  0.5918
  224MOL0     C29450   1.614   5.399  -0.563 -0.3589 -0.4743  0.0173
  224MOL0     C29451   1.495   5.430  -0.654 -0.6316  0.4647 -0.1438
  224MOL0     C29452   1.445   5.314  -0.733  0.2089 -0.5078 -1.0271
  224MOL0     N29453   1.415   5.196  -0.655 -0.1848  0.0895  0.3903
  224MOL0     C29454   1.321   5.198  -0.552 -0.1937  0.2390  0.6069
  224MOL0     C29455   1.311   5.068  -0.513  0.0376  0.4457 -0.4709
  224MOL0     C29456   1.250   5.006  -0.390 -0.2766 -0.0142 -0.6650
  224MOL0     C29457   1.323   5.067  -0.269  0.5657 -0.0568  0.7511
  224MOL0     C29458   1.262   4.984  -0.149 -0.1062 -1.1878  0.4118
  224MOL0     C29459   1.305   5.040  -0.012 -1.1378  0.5901  0.0906
  224MOL0     O29460   1.234   5.157   0.011  0.1995 -0.3145 -0.5098
  224MOL0     C29461   1.263   5.234   0.122  1.1430 -0.0528 -0.1735
  224MOL0     C29462   1.335   5.189   0.234 -1.1337  0.1646  1.0054
  224MOL0     C29463   1.353   5.275   0.347 -0.9550 -0.4449  0.2803
  224MOL0     C29464   1.277   5.394   0.361  1.0232 -0.8569  0.0600
  224MOL0     C29465   1.301   5.475   0.485 -0.1035 -0.5793 -1.0506
  224MOL0     O29466   1.383   5.417   0.584 -0.3359 -0.7671  0.8640
  224MOL0     C29467   1.393   5.463   0.709  0.5165  0.7280 -0.5823
  224MOL0     C29468   1.443   5.589   0.725 -0.3084 -0.0079 -0.1230
  224MOL0     C29469   1.471   5.635   0.852 -0.3008 -0.9716  0.3842
  224MOL0     C29470   1.449   5.555   0.961 -0.2419  0.1832  1.0003
  224MOL0     O29471   1.477   5.595   1.090  0.1007 -0.0814  0.7081
  224MOL0     C29472   1.592   5.534   1.154  0.1698  0.5921 -0.2684
  224MOL0     C29473   1.543   5.535   1.303  0.2399  0.5967 -0.1190
  224MOL0     C29474   1.650   5.474   1.399  0.5765 -0.5058 -0.4223
  224MOL0     C29475   1.798   5.521   1.373  0.2008 -0.0970  0.9430
  224MOL0     C29476   1.881   5.494   1.499  0.1057 -0.6407 -0.4155
  224MOL0     C29477   2.026   5.535   1.479 -0.0728  0.5258  0.1369
  224MOL0     C29478   2.108   5.537   1.609  0.4171  0.5608 -0.6779
  224MOL0     C29479   2.251   5.496   1.587  0.0932 -0.6892 -0.5745
  224MOL0    Cl29480   2.325   5.625   1.478  0.2262  0.1581 -0.5625
  224MOL0     C29481   1.399   5.428   0.945  1.0820  0.0018  1.1521
  224MOL0     C29482   1.377   5.370   0.814 -0.8398 -0.0776  0.0762
  224MOL0     O29483   1.232   5.568   0.501  0.5604 -0.3110 -0.3368
  224MOL0     C29484   1.204   5.439   0.248 -0.7254 -0.4581 -0.2454
  224MOL0     C29485   1.195   5.359   0.134  0.2461  0.5560 -1.0586
  224MOL0     N29486   1.390   4.991  -0.605 -0.5293 -0.3178  0.0468
  224MOL0     N29487   1.459   5.075  -0.678  0.1161  0.2018 -0.6107
  224MOL0     C29488   2.115   5.679   0.202  0.1614  1.4174  0.5695
  224MOL0     C29489   2.192   5.744   0.304  1.0187  0.2599  0.5348
  224MOL0     C29490   2.365   6.112   0.510  0.7203 -0.5915  0.1902
  224MOL0     C29491   2.440   6.018   0.592  0.4610  0.3545 -0.0989
  224MOL0     C29492   2.517   6.063   0.703 -1.8806 -0.5870  0.7542
  224MOL0     C29493   2.512   6.201   0.741  0.0202 -0.4569 -0.3917
  224MOL0     O29494   2.567   6.250   0.863 -0.2934 -0.2169  0.1341
  224MOL0     C29495   2.659   6.169   0.935 -0.4528 -1.5848 -0.2971
  224MOL0     C29496   2.743   6.275   1.019  0.9594 -0.1658 -0.2386
  224MOL0     C29497   2.864   6.208   1.084 -0.2148  0.4205  0.4859
  224MOL0     C29498   2.922   6.288   1.193  0.7875  0.0141 -0.9112
  224MOL0     C29499   3.022   6.203   1.262  0.4520 -0.4442 -0.5856
  224MOL0     C29500   3.115   6.137   1.322 -0.1537 -0.0749 -0.6223
  224MOL0     C29501   2.444   6.294   0.657  0.5589 -0.5438  0.1096
  224MOL0     C29502   2.368   6.245   0.552 -0.3330 -0.7609 -1.3655
  224MOL0     H29503   2.203   6.033   0.111 -0.7958  0.2201 -0.5890
  224MOL0     H29504   2.102   5.908  -0.039  0.3752  1.0821  1.1627
  224MOL0     H29505   2.010   5.734  -0.172  0.1385  1.8885  0.9727
  224MOL0     H29506   1.865   5.784  -0.085  2.0101  1.1661  0.9643
  224MOL0     H29507   1.766   5.565  -0.104 -2.2153  1.7461 -1.7136
  224MOL0     H29508   1.907   5.501  -0.180  0.5943  0.6113 -2.2541
  224MOL0     H29509   1.857   5.690  -0.355 -1.3221  2.3855  0.7051
  224MOL0     H29510   1.691   5.678  -0.287  1.2972  0.3280  1.1951
  224MOL0     H29511   1.822   5.447  -0.410  2.1443  1.9246  0.4849
  224MOL0     H29512   1.680   5.429  -0.312 -1.9337 -4.0066 -2.4824
  224MOL0     H29513   1.688   5.611  -0.555 -3.1911  2.2409  0.6839
  224MOL0     H29514   1.556   5.577  -0.443 -1.3153 -1.4549 -0.8546
  224MOL0     H29515   1.591   5.318  -0.494 -1.9694 -3.1294 -3.3379
  224MOL0     H29516   1.699   5.374  -0.628  0.7316  2.6931  0.0338
  224MOL0     H29517   1.411   5.456  -0.589  1.6242 -0.0686  3.2582
  224MOL0     H29518   1.529   5.511  -0.718 -0.1161  1.2388  1.0888
  224MOL0     H29519   1.522   5.278  -0.802 -0.9404 -1.3338 -1.9175
  224MOL0     H29520   1.353   5.344  -0.782 -1.9274 -0.9670  2.3600
  224MOL0     H29521   1.289   5.290  -0.502  0.2926  1.3322 -0.9990
  224MOL0     H29522   1.269   4.898  -0.387  0.4672  0.1264  0.2440
  224MOL0     H29523   1.143   5.019  -0.376 -0.2278 -2.4217  4.4959
  224MOL0     H29524   1.301   5.174  -0.260 -1.5044 -0.2099 -1.3673
  224MOL0     H29525   1.429   5.045  -0.285  0.6796  2.1995 -2.5143
  224MOL0     H29526   1.152   4.987  -0.146 -0.1142  2.0291  0.0144
  224MOL0     H29527   1.294   4.880  -0.157  1.2329 -0.8731  1.4107
  224MOL0     H29528   1.412   5.056  -0.025 -1.7403  2.7801 -3.7544
  224MOL0     H29529   1.282   4.976   0.074 -3.5132  1.4446  0.1590
  224MOL0     H29530   1.387   5.095   0.236 -0.7139  0.4032  2.4112
  224MOL0     H29531   1.418   5.239   0.426  1.7847  4.4007  0.6162
  224MOL0     H29532   1.463   5.647   0.635 -1.4874 -0.0316 -0.4205
  224MOL0     H29533   1.519   5.731   0.871 -0.2261 -1.1563  1.1402
  224MOL0     H29534   1.688   5.586   1.147  0.4926  0.6573  2.9515
  224MOL0     H29535   1.600   5.427   1.131 -0.6930  0.7018 -1.1515
  224MOL0     H29536   1.443   5.492   1.292 -0.4519  2.7005 -2.9735
  224MOL0     H29537   1.522   5.637   1.335 -2.0289 -0.0164  0.5856
  224MOL0     H29538   1.663   5.366   1.401  4.7179 -0.1602  0.2329
  224MOL0     H29539   1.619   5.509   1.497  1.7266 -0.7031  0.0335
  224MOL0     H29540   1.848   5.468   1.291  3.0163 -0.6444  2.8517
  224MOL0     H29541   1.804   5.628   1.352 -2.0459  0.2024  1.6142
  224MOL0     H29542   1.885   5.393   1.541  0.2415  0.6218  2.9077
  224MOL0     H29543   1.835   5.547   1.583 -2.0407 -0.3773 -1.6932
  224MOL0     H29544   2.031   5.637   1.439 -1.1773  0.1784 -0.9432
  224MOL0     H29545   2.071   5.478   1.398 -1.0253  3.1897 -2.4471
  224MOL0     H29546   2.103   5.638   1.652 -1.7883  0.3479 -0.3456
  224MOL0     H29547   2.066   5.458   1.671  1.6466 -0.5908 -1.2613
  224MOL0     H29548   2.229   5.399   1.541 -4.2422  0.3476 -1.0567
  224MOL0     H29549   2.301   5.478   1.683 -2.9669 -1.7121  0.9520
  224MOL0     H29550   1.381   5.375   1.038 -0.2034 -0.1094  0.8563
  224MOL0     H29551   1.341   5.268   0.807 -2.3473  0.4208  0.3204
  224MOL0     H29552   1.160   5.538   0.253  1.2152  0.4283  0.5455
  224MOL0     H29553   1.141   5.387   0.044  0.7813 -0.4604 -1.7096
  224MOL0     H29554   2.083   5.577   0.221  0.2127  1.6219  1.8435
  224MOL0     H29555   2.215   5.698   0.400 -3.0330 -3.5439  0.0012
  224MOL0     H29556   2.434   5.912   0.569  1.0307  0.7798 -2.5333
  224MOL0     H29557   2.562   5.989   0.769 -1.9393 -1.4005 -0.0915
  224MOL0     H29558   2.724   6.107   0.873 -0.0863 -1.8284  0.3264
  224MOL0     H29559   2.609   6.109   1.012 -2.8371  0.8871  0.2243
  224MOL0     H29560   2.771   6.361   0.957  0.7075  2.6170  3.2051
  224MOL0     H29561   2.682   6.307   1.104  1.8219 -1.8694  1.0948
  224MOL0     H29562   2.945   6.180   1.015  1.1769  2.9076  0.9963
  224MOL0     H29563   2.826   6.118   1.134 -0.7180  1.1944  1.5251
  224MOL0     H29564   2.976   6.372   1.150  1.2601  1.8185  2.8047
  224MOL0     H29565   2.846   6.335   1.257  1.8122  2.9599 -1.7033
  224MOL0     H29566   3.189   6.074   1.367 -1.1599 -2.3125 -1.8940
  224MOL0     H29567   2.436   6.401   0.676  0.2663 -0.6879  0.8422
  224MOL0     H29568   2.315   6.323   0.498  0.4186 -0.5859 -1.8765
  225MOL0     O29569   9.737   6.922   1.029  0.4961  0.0416  1.1633
  225MOL0     C29570   9.647   6.840   1.047 -0.6245 -0.9419  0.4512
  225MOL0     O29571   9.529   6.873   1.095  0.1341  0.7071  0.0359
  225MOL0     C29572   9.502   6.993   1.155 -0.5222 -0.6791 -0.6058
  225MOL0     C29573   9.587   7.043   1.248 -0.4032  0.7267  0.0011
  225MOL0     C29574   9.561   7.155   1.310  0.3635 -0.2664  0.2909
  225MOL0     C29575   9.469   7.239   1.266 -0.3485 -0.1738  0.0463
  225MOL0     O29576   9.478   7.366   1.312  0.8733  0.1137 -0.3368
  225MOL0     C29577   9.366   7.408   1.391  0.0321  0.0191  0.0164
  225MOL0     C29578   9.397   7.554   1.428  0.7637 -0.8719  0.0113
  225MOL0     C29579   9.419   7.646   1.307 -0.6505 -0.0583 -0.5844
  225MOL0     C29580   9.468   7.795   1.329  0.0212  0.9861  0.4460
  225MOL0     C29581   9.462   7.878   1.197 -0.0513  1.2223 -0.5962
  225MOL0     C29582   9.587   7.874   1.112 -0.7603 -0.4696  0.2447
  225MOL0     C29583   9.675   8.001   1.128 -0.0902  0.3784  0.0815
  225MOL0     C29584   9.817   7.984   1.067 -0.2232 -0.5298 -0.6228
  225MOL0     N29585   9.906   8.101   1.100  0.7791 -0.1878 -0.0054
  225MOL0     C29586   9.913   8.164   1.219 -0.4337 -0.0883 -0.0783
  225MOL0     C29587  10.013   8.254   1.217 -0.0700 -0.1760 -0.2568
  225MOL0     C29588  10.055   8.349   1.326 -0.1526 -0.3535 -0.1662
  225MOL0     C29589  10.173   8.433   1.283 -0.4976 -0.2956 -0.6289
  225MOL0     C29590  10.300   8.349   1.266 -0.2302 -0.4304 -0.4433
  225MOL0     C29591  10.423   8.444   1.258  0.3709  0.7459 -0.8369
  225MOL0     O29592  10.401   8.511   1.137  0.4884  0.5993  0.7480
  225MOL0     C29593  10.496   8.605   1.101 -0.1233 -0.0354 -0.1756
  225MOL0     C29594  10.439   8.714   1.022  0.1596 -0.0724  0.8851
  225MOL0     C29595  10.508   8.838   1.007  0.2270 -1.1298  0.3644
  225MOL0     C29596  10.637   8.850   1.066 -0.1925 -0.7557 -0.0467
  225MOL0     C29597  10.706   8.978   1.046  0.5357 -0.0051 -0.2589
  225MOL0     O29598  10.838   8.974   1.087  0.1560 -0.1887 -0.4565
  225MOL0     C29599  10.918   9.079   1.039  0.2885  0.9727  0.3292
  225MOL0     C29600  10.940   9.196   1.109 -0.1167  0.3599  0.2042
  225MOL0     C29601  11.010   9.301   1.048 -0.4410 -1.3268  0.2258
  225MOL0     C29602  11.062   9.284   0.917 -0.5272  0.6850 -0.3001
  225MOL0     O29603  11.128   9.393   0.857 -0.0718  0.4570  0.0617
  225MOL0     C29604  11.079   9.448   0.736  0.8293  0.8491  0.3531
  225MOL0     C29605  11.186   9.442   0.623  0.4131 -0.6772 -0.2714
  225MOL0     C29606  11.288   9.558   0.632  0.1059  0.2743 -0.3560
  225MOL0     C29607  11.383   9.555   0.499  0.6790  0.0015 -0.2453
  225MOL0     C29608  11.487   9.668   0.505  0.0179 -0.9654  0.0738
  225MOL0     C29609  11.549   9.685   0.361  0.9422  1.2547 -0.0573
  225MOL0     C29610  11.685   9.764   0.377 -0.6964  0.2005 -0.2974
  225MOL0     C29611  11.786   9.712   0.484 -0.3871  0.0577 -0.4884
  225MOL0    Cl29612  11.838   9.546   0.461  0.5299  0.1032 -0.1716
  225MOL0     C29613  11.044   9.162   0.857 -0.5356 -0.8756  0.1456
  225MOL0     C29614  10.969   9.060   0.917  0.0097 -1.4351  0.3468
  225MOL0     O29615  10.650   9.078   1.003  1.1403 -0.0887  0.0879
  225MOL0     C29616  10.690   8.737   1.134 -0.4631  0.5245 -0.0750
  225MOL0     C29617  10.618   8.627   1.155 -0.2801 -0.7358  0.6891
  225MOL0     N29618  10.061   8.255   1.083 -0.1923 -0.3211 -0.5903
  225MOL0     N29619   9.990   8.166   1.016 -0.9589  1.1165 -0.6492
  225MOL0     C29620   9.383   7.203   1.167  0.4131 -1.0321 -0.3861
  225MOL0     C29621   9.392   7.075   1.111 -0.8975 -0.4359 -0.9148
  225MOL0     C29622   9.671   6.699   1.003  0.9122 -1.2943 -1.9158
  225MOL0     C29623   9.602   6.595   1.071 -0.1506  0.1402 -0.0567
  225MOL0     C29624   9.618   6.457   1.031 -0.2291  0.0943 -0.6353
  225MOL0     C29625   9.713   6.427   0.934 -1.6538  0.3459  0.3010
  225MOL0     O29626   9.742   6.298   0.908  0.0497  0.0835  0.4454
  225MOL0     C29627   9.837   6.254   0.801  0.7887 -0.3161  0.9024
  225MOL0     C29628   9.836   6.104   0.789  0.7876  0.8228 -0.2649
  225MOL0     C29629   9.961   6.056   0.701  0.4648  0.0928 -0.8503
  225MOL0     C29630   9.961   5.907   0.667  0.2186  0.3676 -0.0510
  225MOL0     C29631   9.987   5.829   0.786 -0.3974  0.3756 -0.3216
  225MOL0     C29632  10.019   5.768   0.880  0.7567  0.7021 -0.1722
  225MOL0     C29633   9.776   6.531   0.868 -0.0610 -0.5451  0.5516
  225MOL0     C29634   9.744   6.667   0.892 -0.7452  1.1178 -0.3389
  225MOL0     H29635   9.685   7.004   1.275 -0.1640 -0.3931 -2.2820
  225MOL0     H29636   9.629   7.194   1.384 -0.7683  0.8733  0.7808
  225MOL0     H29637   9.360   7.350   1.484 -2.0422  1.2589  0.6992
  225MOL0     H29638   9.272   7.381   1.341 -0.9305 -0.1429  1.8418
  225MOL0     H29639   9.488   7.573   1.486 -1.1718  0.7943  2.7468
  225MOL0     H29640   9.312   7.591   1.486  0.0108 -0.5034 -1.2734
  225MOL0     H29641   9.338   7.626   1.237  0.9825 -2.5813 -1.9183
  225MOL0     H29642   9.507   7.603   1.258 -0.1134 -1.8742  1.7644
  225MOL0     H29643   9.393   7.835   1.399 -1.4837 -1.3957  0.3390
  225MOL0     H29644   9.568   7.788   1.371  0.4621 -2.4644 -0.8205
  225MOL0     H29645   9.450   7.983   1.225 -1.1358  0.9560 -0.0135
  225MOL0     H29646   9.379   7.851   1.132 -0.3353 -0.0769  0.2647
  225MOL0     H29647   9.556   7.850   1.010 -0.7858  2.0120 -0.4023
  225MOL0     H29648   9.659   7.795   1.136  1.7138  0.7200 -2.7086
  225MOL0     H29649   9.618   8.084   1.084 -1.4090 -0.2384  0.5618
  225MOL0     H29650   9.693   8.017   1.235  0.1293 -1.1770  0.2973
  225MOL0     H29651   9.819   7.971   0.959  0.1865 -0.8992 -0.5718
  225MOL0     H29652   9.863   7.899   1.117 -1.5777 -1.0821 -0.2602
  225MOL0     H29653   9.847   8.146   1.304 -0.5023  1.4466  0.2223
  225MOL0     H29654  10.080   8.295   1.418 -3.3614  3.3348  3.2070
  225MOL0     H29655   9.976   8.418   1.353  2.9096  3.5557 -0.3268
  225MOL0     H29656  10.190   8.506   1.363  1.0652 -1.6387  0.3227
  225MOL0     H29657  10.156   8.487   1.189  1.2200 -0.6762 -1.1976
  225MOL0     H29658  10.311   8.273   1.344  0.8794  1.5791  1.4411
  225MOL0     H29659  10.292   8.297   1.170  0.8409 -0.4934 -0.5064
  225MOL0     H29660  10.518   8.392   1.241 -1.7113 -2.2039 -5.5502
  225MOL0     H29661  10.424   8.512   1.344 -1.5734 -3.3675  2.8290
  225MOL0     H29662  10.340   8.690   0.983  0.4540 -1.1263  0.7494
  225MOL0     H29663  10.464   8.925   0.961  0.5724 -1.5315 -0.7740
  225MOL0     H29664  10.906   9.218   1.210  0.1672  0.3262  0.3058
  225MOL0     H29665  11.014   9.395   1.102 -2.4981  0.1098 -1.9555
  225MOL0     H29666  11.055   9.554   0.745 -0.6199  0.3987  2.7150
  225MOL0     H29667  10.986   9.401   0.703  2.6952  0.0104 -4.4161
  225MOL0     H29668  11.136   9.455   0.526  0.3459  0.8144 -0.0615
  225MOL0     H29669  11.229   9.341   0.623 -2.1838 -1.8799 -0.3172
  225MOL0     H29670  11.356   9.540   0.716 -0.0015  3.3595  0.5120
  225MOL0     H29671  11.256   9.661   0.652 -0.6923 -0.5957  3.7027
  225MOL0     H29672  11.448   9.467   0.496  2.8341  1.5243 -0.2888
  225MOL0     H29673  11.310   9.560   0.418 -2.3435 -0.7928  2.2190
  225MOL0     H29674  11.561   9.652   0.584  0.5589  2.7846  0.5308
  225MOL0     H29675  11.450   9.769   0.525  2.9484 -0.1812  2.2328
  225MOL0     H29676  11.479   9.728   0.289  0.6577 -1.8697 -1.8225
  225MOL0     H29677  11.566   9.586   0.318 -1.3449  1.1240 -0.8296
  225MOL0     H29678  11.738   9.801   0.288 -0.4873  0.2808 -0.1396
  225MOL0     H29679  11.666   9.864   0.418 -2.5194 -0.2813  0.1319
  225MOL0     H29680  11.748   9.712   0.587  2.9924 -0.7857  0.8856
  225MOL0     H29681  11.867   9.784   0.470  1.7228 -1.9001  0.9665
  225MOL0     H29682  11.105   9.157   0.768 -0.1670 -0.7934  0.3916
  225MOL0     H29683  10.958   8.966   0.863 -1.0594 -1.6020  0.8484
  225MOL0     H29684  10.789   8.743   1.179 -0.5098 -1.0785  0.3060
  225MOL0     H29685  10.650   8.550   1.224  0.5734 -1.0590 -0.0463
  225MOL0     H29686   9.316   7.280   1.130  2.5832  0.3333 -1.7180
  225MOL0     H29687   9.335   7.029   1.032 -1.3258 -0.5056 -0.5693
  225MOL0     H29688   9.537   6.629   1.151 -2.3394 -0.1172 -1.6627
  225MOL0     H29689   9.566   6.377   1.082  3.1846 -1.3811  0.7813
  225MOL0     H29690   9.936   6.293   0.829  1.7219 -0.0727 -2.3078
  225MOL0     H29691   9.818   6.306   0.707 -2.2700  0.0537  1.6220
  225MOL0     H29692   9.842   6.069   0.893 -0.9201  2.9335  0.6027
  225MOL0     H29693   9.744   6.064   0.747  0.1967  1.5045  0.3565
  225MOL0     H29694  10.055   6.083   0.750  1.1097 -1.9352 -0.8906
  225MOL0     H29695   9.941   6.114   0.611 -0.8973  1.8519  0.5293
  225MOL0     H29696   9.863   5.880   0.625 -0.6070  1.5978  1.0191
  225MOL0     H29697  10.046   5.878   0.605 -0.1235 -0.9475  0.0497
  225MOL0     H29698  10.044   5.720   0.972  4.6186  2.0869 -0.3079
  225MOL0     H29699   9.854   6.519   0.793  0.0918 -1.2924  0.8158
  225MOL0     H29700   9.787   6.752   0.840 -0.1144  1.1253  0.1923
  226MOL0     O29701   5.921   3.131   2.002 -0.7916  0.6724 -0.3486
  226MOL0     C29702   5.943   3.249   1.988  0.2284  0.3403 -1.2771
  226MOL0     O29703   6.004   3.315   1.880  0.3267  1.0447  0.4477
  226MOL0     C29704   6.046   3.229   1.779  0.3960 -0.1550  0.5158
  226MOL0     C29705   6.166   3.168   1.805  0.4617  0.4708 -0.0550
  226MOL0     C29706   6.233   3.092   1.712 -0.7657 -0.8298  0.0651
  226MOL0     C29707   6.179   3.080   1.579  0.5534  0.0735 -0.0412
  226MOL0     O29708   6.234   3.005   1.481  0.0330 -0.1884 -0.5508
  226MOL0     C29709   6.376   2.976   1.500 -0.2895 -0.2479 -0.3263
  226MOL0     C29710   6.437   2.919   1.377  1.2715 -0.5543 -0.4670
  226MOL0     C29711   6.578   2.859   1.373 -0.4182  0.1159  0.0167
  226MOL0     C29712   6.679   2.962   1.418 -0.0120  0.9516 -0.5113
  226MOL0     C29713   6.810   2.943   1.347 -0.7349  0.8790  0.8700
  226MOL0     C29714   6.895   3.048   1.406  1.4893 -0.1786 -0.3547
  226MOL0     C29715   7.039   3.031   1.385 -0.1599 -1.2661  0.1267
  226MOL0     C29716   7.080   3.005   1.235 -0.6495 -0.1057  0.3244
  226MOL0     N29717   7.089   2.867   1.195 -0.9144 -0.8623 -0.4375
  226MOL0     C29718   7.139   2.767   1.269 -0.2320  0.1649 -0.5797
  226MOL0     C29719   7.135   2.655   1.194 -0.0974 -0.9638 -0.5199
  226MOL0     C29720   7.183   2.523   1.248  0.8179 -0.9706  0.5164
  226MOL0     C29721   7.115   2.475   1.386 -0.1194  0.3133 -0.2760
  226MOL0     C29722   6.967   2.420   1.376  0.2494 -0.4587  1.0157
  226MOL0     C29723   6.930   2.342   1.514  0.3046  0.0301 -0.7524
  226MOL0     O29724   6.790   2.307   1.510 -0.9529  0.0180 -0.7440
  226MOL0     C29725   6.738   2.260   1.629 -0.2250  0.8527 -0.9350
  226MOL0     C29726   6.601   2.256   1.635  0.5379  0.0809  0.0423
  226MOL0     C29727   6.535   2.210   1.747  0.5443  0.8267  0.0112
  226MOL0     C29728   6.600   2.143   1.842 -0.7589  0.1135 -0.0481
  226MOL0     C29729   6.528   2.090   1.959  0.5831 -0.0939  0.1745
  226MOL0     O29730   6.607   2.040   2.052  0.7952  0.3934 -0.0868
  226MOL0     C29731   6.562   1.992   2.170  0.1352  0.1114 -0.1366
  226MOL0     C29732   6.460   2.048   2.252 -0.9623 -0.0812  0.3094
  226MOL0     C29733   6.438   2.004   2.383 -0.8894  0.1660  1.0488
  226MOL0     C29734   6.529   1.914   2.445  0.1506  0.0563  0.4117
  226MOL0     O29735   6.510   1.864   2.571  0.0533  0.4602 -0.0284
  226MOL0     C29736   6.460   1.731   2.558 -0.5455 -0.2082 -0.3237
  226MOL0     C29737   6.444   1.666   2.696 -0.4990  0.3325 -0.3983
  226MOL0     C29738   6.573   1.639   2.776 -0.0735 -0.2726  0.5874
  226MOL0     C29739   6.702   1.610   2.691 -0.1228 -0.5060  0.9993
  226MOL0     C29740   6.814   1.562   2.788  0.3500 -0.7529 -0.0904
  226MOL0     C29741   6.774   1.465   2.906  0.0218 -1.0830  0.7364
  226MOL0     C29742   6.726   1.331   2.850  0.0431 -0.4753 -0.3618
  226MOL0     C29743   6.725   1.242   2.969  0.7095 -0.1875  0.3296
  226MOL0    Cl29744   6.643   1.098   2.915  0.0657  0.1590 -0.3227
  226MOL0     C29745   6.646   1.875   2.373  0.9968 -0.1893 -0.1760
  226MOL0     C29746   6.659   1.915   2.240 -0.3012  0.6579 -0.0121
  226MOL0     O29747   6.405   2.089   1.952 -0.1540  0.1263 -0.0869
  226MOL0     C29748   6.743   2.138   1.830 -0.9740 -0.4392 -0.3559
  226MOL0     C29749   6.808   2.202   1.727  0.9593  0.9142  0.0356
  226MOL0     N29750   7.087   2.696   1.080  0.4022 -0.0358  0.5764
  226MOL0     N29751   7.040   2.817   1.081 -0.0963  0.2882 -0.1977
  226MOL0     C29752   6.057   3.140   1.555 -0.4203  0.2320 -0.6891
  226MOL0     C29753   5.988   3.223   1.648 -0.3493  0.3733 -0.5430
  226MOL0     C29754   5.893   3.342   2.087  0.0133  0.1767  0.0675
  226MOL0     C29755   5.850   3.292   2.211 -0.5842  0.2650  0.1153
  226MOL0     C29756   5.826   3.378   2.313  0.0724  0.2628  0.5347
  226MOL0     C29757   5.842   3.517   2.298 -0.1851 -0.6251  0.0338
  226MOL0     O29758   5.816   3.586   2.416  0.5549  0.4666 -0.0642
  226MOL0     C29759   5.804   3.731   2.403 -1.0831  0.3644  0.4478
  226MOL0     C29760   5.733   3.801   2.519  0.4674  0.3469 -0.7639
  226MOL0     C29761   5.746   3.954   2.501  0.9091 -0.0744 -0.2923
  226MOL0     C29762   5.658   4.037   2.606 -0.3749  0.6589  0.2485
  226MOL0     C29763   5.682   4.181   2.583  0.2144 -1.0216  0.3367
  226MOL0     C29764   5.705   4.296   2.543  0.3359  0.5139 -0.5273
  226MOL0     C29765   5.870   3.566   2.170  0.0770  0.2030 -0.3378
  226MOL0     C29766   5.905   3.475   2.072  0.4564 -0.2941  0.3756
  226MOL0     H29767   6.202   3.190   1.905  1.1945  2.8992 -0.7798
  226MOL0     H29768   6.328   3.054   1.749  0.2058  4.0132  3.6506
  226MOL0     H29769   6.383   2.904   1.582 -0.2955 -1.2170 -1.1572
  226MOL0     H29770   6.425   3.067   1.534 -0.3842  0.1127 -1.1231
  226MOL0     H29771   6.425   2.992   1.297  2.5237  1.7552  1.3500
  226MOL0     H29772   6.374   2.830   1.369  0.3004 -0.2660  2.7458
  226MOL0     H29773   6.598   2.820   1.273 -0.5203  2.3888 -0.9606
  226MOL0     H29774   6.576   2.775   1.443 -1.1146  1.8093  2.1287
  226MOL0     H29775   6.632   3.059   1.398 -0.1558  1.4153  1.8213
  226MOL0     H29776   6.690   2.959   1.527  0.2283 -1.7405 -0.5491
  226MOL0     H29777   6.806   2.959   1.239 -1.8317  1.9860  1.0512
  226MOL0     H29778   6.851   2.844   1.372 -0.7295  1.1792  2.0989
  226MOL0     H29779   6.890   3.044   1.515  5.4236  0.9871  0.0495
  226MOL0     H29780   6.853   3.143   1.374 -0.6501 -1.2428 -0.8703
  226MOL0     H29781   7.097   3.121   1.409 -0.7002 -0.7065 -0.6316
  226MOL0     H29782   7.084   2.957   1.453  0.8309 -1.0046 -0.2277
  226MOL0     H29783   7.174   3.056   1.213 -1.8201  2.1887  0.3090
  226MOL0     H29784   6.996   3.045   1.177  0.3374  0.2585 -0.8949
  226MOL0     H29785   7.181   2.784   1.368 -2.1002 -1.0031  0.4748
  226MOL0     H29786   7.291   2.512   1.247  0.9397  0.1836  0.3925
  226MOL0     H29787   7.153   2.457   1.166  1.7950  0.5624 -1.1399
  226MOL0     H29788   7.115   2.561   1.453 -1.1982  0.6199 -0.6446
  226MOL0     H29789   7.183   2.404   1.435  0.4353 -0.8235 -2.5317
  226MOL0     H29790   6.887   2.491   1.356 -1.1060 -1.3479  2.9553
  226MOL0     H29791   6.970   2.351   1.291 -0.0066 -0.9112  1.3711
  226MOL0     H29792   6.949   2.409   1.598 -1.1746  0.3815 -0.6710
  226MOL0     H29793   6.990   2.252   1.526  0.9025  0.3336 -1.3757
  226MOL0     H29794   6.536   2.297   1.559 -1.1168  1.3980  2.0733
  226MOL0     H29795   6.428   2.203   1.735  0.7535 -2.7288 -0.8980
  226MOL0     H29796   6.388   2.115   2.206 -1.6307 -1.9055 -1.4711
  226MOL0     H29797   6.363   2.036   2.454 -3.1942 -3.6411  0.5981
  226MOL0     H29798   6.529   1.671   2.498  2.1008  0.9972  1.3385
  226MOL0     H29799   6.358   1.730   2.517  0.0466 -2.2053 -1.8762
  226MOL0     H29800   6.402   1.567   2.679  2.6080 -1.1503 -0.1053
  226MOL0     H29801   6.379   1.712   2.772 -0.7341 -0.5174 -0.0734
  226MOL0     H29802   6.538   1.555   2.836 -0.5228  0.4584  1.3769
  226MOL0     H29803   6.580   1.735   2.828  0.3879  1.0363 -1.7692
  226MOL0     H29804   6.679   1.529   2.622 -1.0321  2.1537 -2.0259
  226MOL0     H29805   6.744   1.701   2.647 -1.7041  2.7691  5.4919
  226MOL0     H29806   6.843   1.658   2.831 -1.5990  0.1321 -0.6207
  226MOL0     H29807   6.892   1.524   2.722  0.4745  0.8303 -0.8871
  226MOL0     H29808   6.695   1.520   2.959 -0.9935 -1.4445 -0.3581
  226MOL0     H29809   6.864   1.460   2.967  0.3458  0.2056  0.3997
  226MOL0     H29810   6.629   1.351   2.804  0.6363 -0.8961 -1.8331
  226MOL0     H29811   6.797   1.302   2.773  0.4740  0.7846 -0.4638
  226MOL0     H29812   6.690   1.282   3.065  0.7537 -0.9227  0.6603
  226MOL0     H29813   6.825   1.199   2.983  0.6032 -0.8092 -0.7481
  226MOL0     H29814   6.720   1.811   2.418  0.7187  0.2510  0.9436
  226MOL0     H29815   6.751   1.879   2.194  0.1173  0.9901  0.5505
  226MOL0     H29816   6.806   2.088   1.903  2.2140  0.6550 -2.1371
  226MOL0     H29817   6.916   2.194   1.730  0.9017  0.1202  0.1950
  226MOL0     H29818   6.007   3.110   1.464  1.3248 -1.9676 -1.0311
  226MOL0     H29819   5.897   3.282   1.633  1.7726  3.6798 -1.6461
  226MOL0     H29820   5.832   3.186   2.225  0.9931  0.0004  0.3561
  226MOL0     H29821   5.779   3.350   2.407 -2.1079  1.6465 -0.0694
  226MOL0     H29822   5.757   3.757   2.308  0.8028  0.0550 -0.6327
  226MOL0     H29823   5.902   3.778   2.391 -0.8542  0.1706  1.4511
  226MOL0     H29824   5.629   3.771   2.500  0.6564  1.5956 -4.5591
  226MOL0     H29825   5.774   3.771   2.616  1.5652  0.0272 -1.3081
  226MOL0     H29826   5.720   3.982   2.398  0.6530  0.2239 -0.1479
  226MOL0     H29827   5.849   3.982   2.523  0.2331  0.2666  2.9583
  226MOL0     H29828   5.550   4.022   2.597 -0.0724 -1.5649 -0.3487
  226MOL0     H29829   5.703   4.005   2.700  2.2834  0.2531 -1.0717
  226MOL0     H29830   5.725   4.396   2.509 -2.4297  1.2781 -0.1409
  226MOL0     H29831   5.867   3.671   2.140 -0.8662  0.3895  0.3741
  226MOL0     H29832   5.921   3.519   1.974  1.6759 -2.6538 -0.5569
  227MOL0     O29833   3.722   2.181   1.166 -0.4023 -0.2625 -0.1744
  227MOL0     C29834   3.777   2.117   1.079  0.0399  0.2675 -0.1426
  227MOL0     O29835   3.731   1.991   1.024 -0.2824 -0.5144  0.2490
  227MOL0     C29836   3.635   1.917   1.079  0.5840  0.2920 -0.3803
  227MOL0     C29837   3.556   1.830   0.995  0.9275  0.1718 -0.2315
  227MOL0     C29838   3.464   1.741   1.038 -0.5995 -0.7887  0.6040
  227MOL0     C29839   3.436   1.728   1.177 -0.8865  0.5203 -1.1727
  227MOL0     O29840   3.344   1.653   1.242  0.9661 -0.3785  0.3761
  227MOL0     C29841   3.254   1.575   1.154  0.1012 -0.5487 -0.5333
  227MOL0     C29842   3.120   1.558   1.220 -0.0457  0.3738 -0.2031
  227MOL0     C29843   3.124   1.497   1.357 -0.8593  0.7303 -0.0626
  227MOL0     C29844   3.201   1.355   1.368  0.0221 -0.8172  0.2874
  227MOL0     C29845   3.161   1.283   1.498  0.1907  0.8218  0.5777
  227MOL0     C29846   3.058   1.172   1.485  0.6656 -0.4862  0.4206
  227MOL0     C29847   2.965   1.161   1.612 -0.1948  0.1094  0.2185
  227MOL0     C29848   3.029   1.084   1.734 -1.8010 -0.0843  0.2575
  227MOL0     N29849   2.926   1.058   1.831 -0.0363 -0.7270  0.2933
  227MOL0     C29850   2.878   1.149   1.921 -0.0233  0.1577 -0.3928
  227MOL0     C29851   2.771   1.087   1.976  0.6516 -0.0450 -0.5518
  227MOL0     C29852   2.689   1.152   2.077 -0.4075 -0.0111  0.4392
  227MOL0     C29853   2.669   1.086   2.213  0.2483 -0.1709 -0.2114
  227MOL0     C29854   2.588   1.173   2.316  0.4308 -0.1188 -0.5945
  227MOL0     C29855   2.572   1.113   2.449 -0.5124 -0.1667  0.1262
  227MOL0     O29856   2.469   1.016   2.466  0.0305  1.1391  0.0916
  227MOL0     C29857   2.455   0.934   2.584 -0.1527 -0.1348  0.3065
  227MOL0     C29858   2.564   0.929   2.676 -0.4742  0.9086  0.1279
  227MOL0     C29859   2.550   0.851   2.787 -0.2005  0.7386  0.1807
  227MOL0     C29860   2.433   0.784   2.825  0.6564  0.1964  0.2489
  227MOL0     C29861   2.441   0.697   2.949  0.6371 -0.7169  0.3100
  227MOL0     O29862   2.522   0.760   3.045  0.6997 -0.3094  1.0776
  227MOL0     C29863   2.533   0.683   3.157  0.2218  0.1673 -0.5739
  227MOL0     C29864   2.427   0.684   3.237 -0.0350  0.2791  0.2571
  227MOL0     C29865   2.445   0.630   3.364 -0.3180  0.3490  0.4858
  227MOL0     C29866   2.566   0.572   3.399  0.1998  0.3184 -0.3926
  227MOL0     O29867   2.572   0.497   3.516 -0.2306  0.5007 -0.1126
  227MOL0     C29868   2.453   0.422   3.548 -0.0111 -0.5506  0.8542
  227MOL0     C29869   2.496   0.297   3.631 -0.5919 -0.1707 -0.0077
  227MOL0     C29870   2.517   0.334   3.777 -0.7195  0.0272 -0.5349
  227MOL0     C29871   2.540   0.210   3.864  1.3075  0.1282  0.3098
  227MOL0     C29872   2.613   0.251   3.999  0.7101  0.3308  0.0074
  227MOL0     C29873   2.627   0.123   4.077  0.4445  1.8341 -0.8665
  227MOL0     C29874   2.687   0.133   4.210 -0.3542 -1.0229 -0.1176
  227MOL0     C29875   2.671  -0.011   4.269 -1.1740 -0.2663 -0.5820
  227MOL0    Cl29876   2.504  -0.024   4.333 -0.3768 -0.4246  0.0243
  227MOL0     C29877   2.674   0.585   3.318 -0.9938  0.1806 -0.3380
  227MOL0     C29878   2.659   0.647   3.200 -0.4647 -0.6183 -0.8837
  227MOL0     O29879   2.371   0.594   2.952  0.6418  0.2841  0.0150
  227MOL0     C29880   2.327   0.773   2.722  0.0127  0.9546 -0.0317
  227MOL0     C29881   2.337   0.858   2.613  0.1562  0.5772  0.4441
  227MOL0     N29882   2.750   0.963   1.914  0.4548 -0.2142 -0.2417
  227MOL0     N29883   2.839   0.951   1.828  0.2306  0.0703 -0.8136
  227MOL0     C29884   3.508   1.813   1.263 -0.2364 -0.2755 -0.2269
  227MOL0     C29885   3.609   1.905   1.223 -1.5379  0.3015  0.2347
  227MOL0     C29886   3.910   2.161   1.026 -0.1845 -0.1775  1.0583
  227MOL0     C29887   3.987   2.079   0.941 -0.9604 -0.4707 -1.0997
  227MOL0     C29888   4.116   2.120   0.895 -0.4308 -1.0875  0.2990
  227MOL0     C29889   4.169   2.240   0.924 -0.8007  0.2254 -1.6845
  227MOL0     O29890   4.288   2.286   0.885 -0.5956 -0.2584 -0.0226
  227MOL0     C29891   4.364   2.212   0.796 -0.5878 -0.7133 -0.2450
  227MOL0     C29892   4.488   2.299   0.762 -0.4883 -0.3404  0.6186
  227MOL0     C29893   4.466   2.434   0.688  0.2457 -0.4421 -0.2774
  227MOL0     C29894   4.378   2.420   0.572 -0.3214 -0.3826 -0.1156
  227MOL0     C29895   4.432   2.331   0.466 -0.7147  0.0024  0.8207
  227MOL0     C29896   4.496   2.266   0.381 -0.1458  0.4157 -1.4286
  227MOL0     C29897   4.091   2.328   1.007  0.4599  0.1451  0.0743
  227MOL0     C29898   3.959   2.291   1.055  0.0407 -0.2869 -0.3243
  227MOL0     H29899   3.568   1.851   0.890  6.1331 -0.5768 -0.0459
  227MOL0     H29900   3.404   1.680   0.971 -0.4974  0.5035 -0.7358
  227MOL0     H29901   3.277   1.470   1.135 -1.0913 -0.6815 -1.3720
  227MOL0     H29902   3.227   1.631   1.064  1.5409  1.7765  0.3801
  227MOL0     H29903   3.052   1.502   1.156 -0.0893 -0.3380  0.4449
  227MOL0     H29904   3.064   1.652   1.223 -2.9255 -1.2328  2.3749
  227MOL0     H29905   3.020   1.479   1.385 -0.0154 -0.3009  2.7057
  227MOL0     H29906   3.177   1.565   1.425 -0.1188  0.6089 -0.5054
  227MOL0     H29907   3.188   1.301   1.273  1.6952  0.0316 -0.4776
  227MOL0     H29908   3.310   1.365   1.377  0.6048 -5.1462  0.0820
  227MOL0     H29909   3.131   1.373   1.554  3.6612  3.0078 -0.7241
  227MOL0     H29910   3.246   1.229   1.539  0.0282 -0.0983 -0.2625
  227MOL0     H29911   3.098   1.076   1.452 -0.9348 -1.2508  0.6651
  227MOL0     H29912   2.993   1.207   1.404  0.3762  0.9001  1.2073
  227MOL0     H29913   2.929   1.257   1.650 -0.0842 -0.7550  2.7414
  227MOL0     H29914   2.881   1.094   1.589 -0.3345  0.5246 -0.4916
  227MOL0     H29915   3.108   1.148   1.773 -1.1603 -2.9119  4.2343
  227MOL0     H29916   3.082   0.999   1.691  0.8275  2.5383 -2.0515
  227MOL0     H29917   2.924   1.243   1.951 -4.3989  3.0234 -1.7393
  227MOL0     H29918   2.588   1.154   2.034  0.0288 -3.3706 -0.9808
  227MOL0     H29919   2.716   1.258   2.078  0.8244 -0.2921 -0.4158
  227MOL0     H29920   2.765   1.049   2.250  1.2515  2.5253  0.0918
  227MOL0     H29921   2.608   0.996   2.202 -1.4505  0.5935  2.2297
  227MOL0     H29922   2.652   1.261   2.327  0.6440 -0.4091  0.5715
  227MOL0     H29923   2.491   1.197   2.272  0.2393 -1.4020 -0.9213
  227MOL0     H29924   2.559   1.190   2.525 -1.2613 -1.7782  1.6952
  227MOL0     H29925   2.666   1.062   2.474 -1.6607 -1.8227  1.2620
  227MOL0     H29926   2.654   0.985   2.657  1.3132 -1.3353  1.4661
  227MOL0     H29927   2.634   0.865   2.854  1.3114  3.0400 -2.0176
  227MOL0     H29928   2.327   0.703   3.198 -0.3645  0.0049  0.9379
  227MOL0     H29929   2.364   0.613   3.435  0.4828 -2.9565  0.7762
  227MOL0     H29930   2.412   0.389   3.452  2.9712 -0.1940 -0.6594
  227MOL0     H29931   2.369   0.481   3.587  0.0325  2.5813 -3.2147
  227MOL0     H29932   2.578   0.240   3.589 -1.4931 -1.4622 -0.0722
  227MOL0     H29933   2.402   0.240   3.631 -2.1772  2.2726  0.9262
  227MOL0     H29934   2.432   0.383   3.825 -1.6226 -2.0422  0.0958
  227MOL0     H29935   2.606   0.396   3.789 -3.4857  3.9764  1.7263
  227MOL0     H29936   2.446   0.154   3.869  1.1029  0.5475  2.2262
  227MOL0     H29937   2.607   0.133   3.826 -0.5808 -2.1346  1.3253
  227MOL0     H29938   2.552   0.316   4.063 -0.6313  0.2891 -1.1881
  227MOL0     H29939   2.713   0.295   4.000  0.2973  1.3036  0.6554
  227MOL0     H29940   2.680   0.047   4.019 -0.7352 -1.7250  2.3192
  227MOL0     H29941   2.523   0.088   4.077  0.8682  0.5293 -1.0286
  227MOL0     H29942   2.792   0.161   4.219 -0.4105 -0.8094 -0.1137
  227MOL0     H29943   2.627   0.203   4.269  0.6174  0.4938 -0.8678
  227MOL0     H29944   2.742  -0.039   4.348 -3.8698 -2.8467  1.1561
  227MOL0     H29945   2.673  -0.096   4.201 -1.6435  0.0380 -0.9883
  227MOL0     H29946   2.761   0.528   3.347 -3.0151 -2.1038  1.7617
  227MOL0     H29947   2.745   0.674   3.138  0.0213 -0.0463  0.0189
  227MOL0     H29948   2.233   0.723   2.743  0.6230  0.0389  0.5373
  227MOL0     H29949   2.258   0.853   2.539 -0.2246 -1.3248  0.9146
  227MOL0     H29950   3.504   1.806   1.371  2.0198 -0.1466 -0.0888
  227MOL0     H29951   3.670   1.970   1.285  2.9979 -0.7467 -2.6395
  227MOL0     H29952   3.945   1.982   0.917 -4.2096  0.8071 -1.1202
  227MOL0     H29953   4.158   2.040   0.834 -1.5296  0.1921 -2.3130
  227MOL0     H29954   4.305   2.177   0.711 -1.2420  1.1585 -0.6028
  227MOL0     H29955   4.401   2.118   0.838 -2.7067 -0.8195  1.5815
  227MOL0     H29956   4.539   2.321   0.856 -1.8519  0.0041  1.3021
  227MOL0     H29957   4.556   2.242   0.697  0.4902 -1.9897  2.9611
  227MOL0     H29958   4.561   2.481   0.663  0.4254 -0.4316  0.3854
  227MOL0     H29959   4.426   2.503   0.764  0.7624 -0.9392  0.4608
  227MOL0     H29960   4.279   2.379   0.593  0.8024 -3.1099  0.2978
  227MOL0     H29961   4.372   2.524   0.538  0.3074  0.2779  1.6947
  227MOL0     H29962   4.550   2.211   0.306 -0.7470  0.3064 -1.7846
  227MOL0     H29963   4.131   2.426   1.030 -1.4709  1.7362 -2.7120
  227MOL0     H29964   3.900   2.366   1.107 -1.4822 -2.2148  0.8400
  228MOL0     O29965   8.811  10.170   9.128 -0.5066  0.5055  0.4016
  228MOL0     C29966   8.831  10.218   9.017  0.2493  0.7152  0.4837
  228MOL0     O29967   8.936  10.297   8.988 -0.5144  0.3748 -0.7627
  228MOL0     C29968   9.004  10.355   9.093  0.0947 -0.5180  0.0770
  228MOL0     C29969   9.081  10.276   9.176 -0.1748  0.6589 -0.3598
  228MOL0     C29970   9.158  10.326   9.282 -0.0408 -0.3853 -0.3210
  228MOL0     C29971   9.144  10.467   9.306  0.3280  0.2268  0.5462
  228MOL0     O29972   9.203  10.520   9.420  0.1003 -0.1253 -0.0575
  228MOL0     C29973   9.117  10.531   9.533  0.7687 -0.1565 -0.9268
  228MOL0     C29974   9.205  10.561   9.656 -0.4559  0.0775 -0.6348
  228MOL0     C29975   9.112  10.601   9.778 -1.1684  0.2013  0.5008
  228MOL0     C29976   9.018  10.720   9.731  0.6207 -0.5748  0.0129
  228MOL0     C29977   8.947  10.776   9.848 -0.6648  0.5336 -0.2371
  228MOL0     C29978   8.799  10.744   9.840 -0.1717 -0.5478  0.0724
  228MOL0     C29979   8.729  10.785   9.969 -0.4200 -0.8157  0.1822
  228MOL0     C29980   8.579  10.802   9.961 -0.1565 -1.0682 -1.2651
  228MOL0     N29981   8.531  10.786  10.100 -0.7085  0.2272  0.3774
  228MOL0     C29982   8.498  10.892  10.184 -0.7630  0.6646  0.7753
  228MOL0     C29983   8.488  10.832  10.312  0.7289 -0.6035 -0.1762
  228MOL0     C29984   8.460  10.916  10.435  0.7474 -0.0637  0.1894
  228MOL0     C29985   8.493  10.849  10.566  0.6041 -0.7315 -0.2123
  228MOL0     C29986   8.413  10.723  10.597 -0.2856  0.1597 -0.0836
  228MOL0     C29987   8.449  10.667  10.740  0.0501  0.5666  0.8491
  228MOL0     O29988   8.594  10.645  10.758  0.0690  0.3143 -0.5740
  228MOL0     C29989   8.633  10.611  10.888  0.0772  0.1974  0.2638
  228MOL0     C29990   8.752  10.669  10.938  0.7371  0.3969 -0.5214
  228MOL0     C29991   8.797  10.630  11.061 -0.3007  1.0674  0.3344
  228MOL0     C29992   8.730  10.540  11.152  0.0787 -0.4800  0.2039
  228MOL0     C29993   8.777  10.481  11.278 -0.2578 -0.0537 -0.1024
  228MOL0     O29994   8.913  10.456  11.282 -0.3862  0.1702 -0.3729
  228MOL0     C29995   8.952  10.425  11.411 -0.4524  0.3173 -0.2951
  228MOL0     C29996   8.979  10.294  11.445  0.2444 -0.3143 -0.1740
  228MOL0     C29997   9.016  10.260  11.577 -0.5982  0.2252  1.2100
  228MOL0     C29998   9.032  10.356  11.676 -0.6425  0.1244 -0.0088
  228MOL0     O29999   9.072  10.328  11.809  0.6912 -0.3875  0.2958
  228MOL0     C30000   9.086  10.190  11.845  0.8700 -0.4420 -0.6868
  228MOL0     C30001   9.167  10.188  11.972  0.7328 -0.4612 -0.0089
  228MOL0     C30002   9.159  10.038  12.020  0.2048  0.4596  0.0993
  228MOL0     C30003   9.242   9.996  12.142  0.0595  0.1186  0.4829
  228MOL0     C30004   9.249   9.848  12.149  0.9319  0.0315  0.1556
  228MOL0     C30005   9.114   9.781  12.180  0.7126 -0.3828 -0.1613
  228MOL0     C30006   9.150   9.639  12.208 -0.5904 -0.9029  0.4309
  228MOL0     C30007   9.046   9.544  12.211 -0.3806 -0.0656 -0.4586
  228MOL0    Cl30008   8.931   9.580  12.342  0.2760 -0.2925  0.0141
  228MOL0     C30009   9.011  10.487  11.645  0.1078 -0.0865  0.3375
  228MOL0     C30010   8.976  10.521  11.512  0.7804 -0.0296 -0.0489
  228MOL0     O30011   8.692  10.450  11.368 -0.1510 -0.1563  1.3092
  228MOL0     C30012   8.602  10.490  11.102  0.8176 -0.0838 -0.3630
  228MOL0     C30013   8.565  10.518  10.969  0.2378 -0.5076 -0.4368
  228MOL0     N30014   8.519  10.700  10.297 -0.5059  0.0854 -0.1703
  228MOL0     N30015   8.528  10.670  10.174  0.6912  0.0104  0.0519
  228MOL0     C30016   9.057  10.540   9.223 -1.3434  0.1799 -0.6411
  228MOL0     C30017   8.991  10.488   9.125  0.7358  0.1118 -0.4374
  228MOL0     C30018   8.715  10.211   8.929 -0.3213  0.5427  0.3220
  228MOL0     C30019   8.602  10.148   8.976  0.0581  0.1478 -0.8085
  228MOL0     C30020   8.471  10.136   8.912  0.0386 -0.7383 -0.0380
  228MOL0     C30021   8.455  10.197   8.788  0.0357  0.6105 -0.7067
  228MOL0     O30022   8.342  10.206   8.713  0.8439 -0.2163 -0.0595
  228MOL0     C30023   8.210  10.175   8.765 -0.0923  0.2195  1.3496
  228MOL0     C30024   8.096  10.197   8.667 -0.1167  0.8971 -0.0132
  228MOL0     C30025   7.972  10.120   8.696  0.0222 -0.3649  0.6029
  228MOL0     C30026   8.001   9.970   8.684  0.1309 -0.8717  0.3341
  228MOL0     C30027   7.885   9.887   8.645  0.9358  0.3486  0.0887
  228MOL0     C30028   7.777   9.838   8.610  0.7088  0.4299  0.2727
  228MOL0     C30029   8.565  10.252   8.728 -1.0138 -0.2557 -1.3715
  228MOL0     C30030   8.694  10.257   8.792 -0.7284  0.1705 -0.0110
  228MOL0     H30031   9.082  10.172   9.145 -1.5468  0.9553 -1.5100
  228MOL0     H30032   9.216  10.265   9.350 -0.5589  0.5436  0.9794
  228MOL0     H30033   9.049  10.449   9.558  1.1429  0.3693  2.2693
  228MOL0     H30034   9.056  10.613   9.495  2.4188  1.4329 -0.3223
  228MOL0     H30035   9.276  10.642   9.637 -3.2426  2.3450 -2.0651
  228MOL0     H30036   9.257  10.471   9.690  0.7441  0.2437 -1.9143
  228MOL0     H30037   9.161  10.623   9.873 -0.0565 -1.1706  0.2782
  228MOL0     H30038   9.050  10.513   9.800 -2.2390  0.1890 -2.2053
  228MOL0     H30039   9.072  10.805   9.689 -0.5100  0.9513  1.5315
  228MOL0     H30040   8.940  10.692   9.660  0.2365 -0.4405  0.3749
  228MOL0     H30041   8.977  10.879   9.867 -0.2167  0.4004 -0.2139
  228MOL0     H30042   8.985  10.727   9.938  2.4013 -0.3050 -1.8586
  228MOL0     H30043   8.795  10.636   9.824  0.7232 -0.5514 -0.1827
  228MOL0     H30044   8.754  10.788   9.750 -1.9540 -0.7737  0.8204
  228MOL0     H30045   8.751  10.707  10.042 -0.9446 -1.5629 -0.4404
  228MOL0     H30046   8.764  10.885   9.996 -1.3355 -0.0208 -1.3824
  228MOL0     H30047   8.547  10.714   9.903 -0.6353 -1.6462 -0.1581
  228MOL0     H30048   8.553  10.897   9.915  1.3437 -0.1879 -0.3843
  228MOL0     H30049   8.468  10.993  10.159  1.0254  1.6620  2.4218
  228MOL0     H30050   8.354  10.942  10.425  0.5594 -1.4860 -2.3323
  228MOL0     H30051   8.513  11.011  10.427 -1.4345  1.4559  2.2511
  228MOL0     H30052   8.469  10.924  10.643  2.5828 -0.3734  0.1023
  228MOL0     H30053   8.599  10.823  10.568  0.3780 -1.8080  2.4001
  228MOL0     H30054   8.306  10.742  10.588 -0.5861 -1.8247 -1.5440
  228MOL0     H30055   8.417  10.647  10.517  0.6345  2.1603 -2.0430
  228MOL0     H30056   8.401  10.572  10.765  1.7180 -0.5410  0.0250
  228MOL0     H30057   8.406  10.737  10.812 -1.7915  0.6638 -0.2834
  228MOL0     H30058   8.807  10.743  10.880 -0.1740  1.8501  0.4127
  228MOL0     H30059   8.885  10.673  11.107  0.0884  0.3439  0.2761
  228MOL0     H30060   8.961  10.214  11.374  1.9987 -2.5496  1.7340
  228MOL0     H30061   9.031  10.153  11.589  1.6251 -0.2660 -3.5612
  228MOL0     H30062   9.144  10.139  11.767  3.5990 -1.6596  1.9699
  228MOL0     H30063   8.987  10.151  11.871  1.3996 -1.8616 -0.7119
  228MOL0     H30064   9.120  10.254  12.046 -1.2931 -2.3535  0.4875
  228MOL0     H30065   9.269  10.225  11.956 -0.8777  4.3787 -0.7523
  228MOL0     H30066   9.200   9.988  11.932  2.2649  0.9141  0.7327
  228MOL0     H30067   9.054  10.009  12.031  0.8200 -1.9072  0.2323
  228MOL0     H30068   9.345  10.032  12.131 -0.7625  2.4926 -0.2315
  228MOL0     H30069   9.212  10.029  12.241  0.3551  1.5096  0.1428
  228MOL0     H30070   9.315   9.826  12.234  0.0054  0.3334  0.9803
  228MOL0     H30071   9.303   9.812  12.062  3.7326 -0.9054  2.1171
  228MOL0     H30072   9.045   9.782  12.095  3.4822 -1.0172 -2.5793
  228MOL0     H30073   9.066   9.814  12.273  0.3389 -0.3042 -0.3817
  228MOL0     H30074   9.214   9.612  12.124 -0.1203  1.2467  0.0405
  228MOL0     H30075   9.215   9.641  12.295  1.0390  1.1194 -0.7448
  228MOL0     H30076   9.080   9.441  12.195 -1.7393 -0.0909 -4.1799
  228MOL0     H30077   8.988   9.549  12.119  0.4165 -1.3050 -1.0598
  228MOL0     H30078   9.054  10.555  11.718  1.0988 -1.0197  0.6511
  228MOL0     H30079   8.967  10.625  11.482  0.0692  0.9909  3.3495
  228MOL0     H30080   8.539  10.430  11.167  0.3183  0.3320 -0.4546
  228MOL0     H30081   8.480  10.465  10.927  1.7831 -3.2685 -0.3809
  228MOL0     H30082   9.064  10.645   9.251 -1.4698  0.1908 -0.6529
  228MOL0     H30083   8.919  10.552   9.075  0.0943 -3.1627 -4.1784
  228MOL0     H30084   8.611  10.118   9.080  0.6642  3.5111  0.2385
  228MOL0     H30085   8.387  10.093   8.964  0.7256 -0.8092  1.0380
  228MOL0     H30086   8.191  10.247   8.845 -2.1104  2.0239 -0.6072
  228MOL0     H30087   8.201  10.073   8.801  0.3457 -0.0783  0.6410
  228MOL0     H30088   8.081  10.305   8.665  0.7845  1.0164 -0.9062
  228MOL0     H30089   8.125  10.179   8.563 -1.0970  1.1580 -0.3419
  228MOL0     H30090   7.898  10.152   8.622  0.1154  0.3727  0.8196
  228MOL0     H30091   7.939  10.158   8.793 -1.2118 -0.3625  0.1959
  228MOL0     H30092   8.073   9.958   8.603 -0.2911 -2.0769  0.1209
  228MOL0     H30093   8.038   9.928   8.778 -2.7712 -1.2001  1.4465
  228MOL0     H30094   7.686   9.784   8.590  3.2338 -3.7150 -1.3613
  228MOL0     H30095   8.560  10.278   8.623 -0.8550  1.1907 -1.0515
  228MOL0     H30096   8.773  10.289   8.725 -0.3404  2.0093  1.2499
  229MOL0     O30097  11.307   4.228   9.068 -0.2068 -0.6586 -0.4658
  229MOL0     C30098  11.368   4.144   9.134  1.5264 -0.3368 -0.9085
  229MOL0     O30099  11.317   4.085   9.257  0.1186 -0.4025 -0.2198
  229MOL0     C30100  11.195   4.138   9.298  0.3498  0.8873  0.7050
  229MOL0     C30101  11.077   4.144   9.220 -0.0180 -0.3396 -1.0573
  229MOL0     C30102  10.959   4.181   9.300 -0.3143 -0.3177 -0.4571
  229MOL0     C30103  10.969   4.221   9.433 -0.1024  0.3238 -0.6292
  229MOL0     O30104  10.856   4.276   9.498 -0.5244 -0.6296 -0.0528
  229MOL0     C30105  10.882   4.377   9.600 -0.4021 -0.6271 -0.1112
  229MOL0     C30106  10.752   4.439   9.661 -0.1272  0.6067 -0.6319
  229MOL0     C30107  10.784   4.546   9.748 -0.6220 -0.1791  0.4538
  229MOL0     C30108  10.659   4.590   9.823 -0.0216  0.3878 -0.1673
  229MOL0     C30109  10.689   4.639   9.968 -0.0511 -0.1948 -0.8089
  229MOL0     C30110  10.726   4.540  10.069 -0.6261 -0.0600 -0.6648
  229MOL0     C30111  10.631   4.424  10.086  0.4584  0.2396 -0.0332
  229MOL0     C30112  10.506   4.464  10.171  0.4563 -0.5561 -0.1825
  229MOL0     N30113  10.388   4.388  10.143 -0.0931  0.2547  0.2978
  229MOL0     C30114  10.371   4.253  10.176  0.3020 -1.2989 -0.8141
  229MOL0     C30115  10.242   4.231  10.149  0.1388 -0.6183  0.4528
  229MOL0     C30116  10.169   4.096  10.124 -1.3359  0.1950 -0.3604
  229MOL0     C30117  10.133   4.021  10.254 -0.6718  0.0428  0.1057
  229MOL0     C30118  10.106   3.868  10.230 -0.3088 -0.2667 -0.2453
  229MOL0     C30119  10.089   3.795  10.367  1.2538 -0.7675 -0.3459
  229MOL0     O30120  10.203   3.711  10.377 -0.5403  0.1474 -0.0199
  229MOL0     C30121  10.212   3.613  10.474 -1.2012 -0.3007  0.8617
  229MOL0     C30122  10.343   3.567  10.504  0.2403 -0.7226  0.2006
  229MOL0     C30123  10.368   3.480  10.609 -0.6898 -1.6811 -0.8379
  229MOL0     C30124  10.266   3.441  10.695 -0.3799  0.3665  0.2795
  229MOL0     C30125  10.292   3.360  10.808 -0.7353  0.2072  0.1425
  229MOL0     O30126  10.206   3.364  10.907 -0.9349  1.1063  0.2119
  229MOL0     C30127  10.201   3.271  11.012 -0.9524  0.4007  0.7809
  229MOL0     C30128  10.084   3.229  11.073 -0.0503 -0.3489 -0.2459
  229MOL0     C30129  10.083   3.136  11.177 -0.3205  0.7100 -0.2670
  229MOL0     C30130  10.203   3.077  11.212 -0.3224  0.1606 -0.0110
  229MOL0     O30131  10.206   2.996  11.320  0.0877 -0.1935  0.1612
  229MOL0     C30132  10.266   2.863  11.327 -0.5711  0.2305  0.8598
  229MOL0     C30133  10.271   2.827  11.480 -0.5539 -0.7011 -0.1492
  229MOL0     C30134  10.340   2.695  11.499  0.2797  0.1704 -0.2553
  229MOL0     C30135  10.359   2.637  11.643  0.2806  0.5909  0.3437
  229MOL0     C30136  10.238   2.653  11.738  1.3794  0.0913  0.1931
  229MOL0     C30137  10.271   2.637  11.893 -0.5028 -0.5159 -0.4071
  229MOL0     C30138  10.144   2.656  11.981  0.3191  0.0134  0.8425
  229MOL0     C30139  10.158   2.602  12.128  0.3652 -0.5938 -0.0958
  229MOL0    Cl30140  10.000   2.517  12.166 -0.2317 -0.0428  0.2563
  229MOL0     C30141  10.317   3.119  11.160  0.8089  0.3068  0.3495
  229MOL0     C30142  10.319   3.216  11.063 -0.1572  1.0146 -0.1836
  229MOL0     O30143  10.380   3.276  10.793  1.1625  0.4204 -0.5116
  229MOL0     C30144  10.133   3.474  10.658 -0.2186  0.0540  0.4426
  229MOL0     C30145  10.107   3.563  10.551 -0.0315 -0.6266  0.0349
  229MOL0     N30146  10.192   4.355  10.107 -0.2459  1.2278 -0.5533
  229MOL0     N30147  10.280   4.439  10.092 -0.6095 -0.1617 -0.9948
  229MOL0     C30148  11.093   4.202   9.501  0.7692 -0.5137 -0.0411
  229MOL0     C30149  11.205   4.162   9.431  0.0485  0.3151 -0.0640
  229MOL0     C30150  11.492   4.097   9.085 -0.6496 -0.7288  0.5394
  229MOL0     C30151  11.590   4.061   9.169 -0.7252  0.5845  0.1106
  229MOL0     C30152  11.712   4.017   9.128 -0.4803  0.2919 -1.0307
  229MOL0     C30153  11.739   3.997   8.995  0.0302  0.9647  0.0723
  229MOL0     O30154  11.857   3.943   8.967 -0.8029  0.2124 -0.2012
  229MOL0     C30155  11.906   3.949   8.839  0.4458 -0.4615 -0.5540
  229MOL0     C30156  12.049   3.897   8.847  0.1408 -0.2760  0.4145
  229MOL0     C30157  12.166   3.977   8.883 -0.7226 -0.0221 -0.4366
  229MOL0     C30158  12.286   3.890   8.921 -0.1580 -0.0097  0.3366
  229MOL0     C30159  12.407   3.973   8.927 -1.2078 -0.1096 -0.0789
  229MOL0     C30160  12.507   4.036   8.927  0.9861  0.1528 -0.1068
  229MOL0     C30161  11.642   4.037   8.904 -0.2175 -0.6783 -0.5573
  229MOL0     C30162  11.523   4.092   8.948  0.2063  0.1136 -0.0058
  229MOL0     H30163  11.080   4.111   9.117 -1.0652 -1.3513 -0.7818
  229MOL0     H30164  10.861   4.195   9.254 -1.2016 -0.9343  1.1691
  229MOL0     H30165  10.937   4.458   9.551  0.5352 -0.5082  1.0760
  229MOL0     H30166  10.954   4.357   9.680  1.7393 -1.2048 -2.0539
  229MOL0     H30167  10.694   4.356   9.701 -2.5356  1.9263 -1.1951
  229MOL0     H30168  10.692   4.471   9.575 -1.0030 -3.5460 -1.7972
  229MOL0     H30169  10.820   4.640   9.707  0.4326 -1.3493 -1.4345
  229MOL0     H30170  10.860   4.505   9.815 -0.7666  2.2268  2.2441
  229MOL0     H30171  10.617   4.680   9.776 -0.3039  1.3725  1.8743
  229MOL0     H30172  10.577   4.516   9.820  0.1591 -0.1596  3.7220
  229MOL0     H30173  10.603   4.699  10.000  0.0293 -0.2220 -0.5392
  229MOL0     H30174  10.765   4.716   9.953  1.2985 -0.6353  2.8764
  229MOL0     H30175  10.734   4.594  10.164  0.0904  2.5760 -2.1396
  229MOL0     H30176  10.825   4.495  10.059 -0.2655  0.2476  1.1183
  229MOL0     H30177  10.608   4.377   9.990  1.8800 -0.6123  0.0143
  229MOL0     H30178  10.691   4.349  10.140 -2.1299 -0.7306  1.6877
  229MOL0     H30179  10.490   4.568  10.141  3.1248 -0.4297 -1.4913
  229MOL0     H30180  10.531   4.451  10.277  2.0229 -2.1465 -0.7020
  229MOL0     H30181  10.441   4.180  10.216 -0.2614 -1.1300  0.5379
  229MOL0     H30182  10.239   4.023  10.082 -0.4315 -0.9338  2.8546
  229MOL0     H30183  10.088   4.106  10.050 -2.0053  1.9291  0.5404
  229MOL0     H30184  10.049   4.068  10.307  0.6427 -2.9112  5.4848
  229MOL0     H30185  10.220   4.020  10.319 -0.8064  0.6315  0.3072
  229MOL0     H30186  10.015   3.861  10.170 -0.2725  1.0346 -0.4918
  229MOL0     H30187  10.187   3.824  10.173  0.4028 -2.5256  2.3246
  229MOL0     H30188   9.998   3.735  10.375  0.6842  0.3261  3.2295
  229MOL0     H30189  10.085   3.872  10.444  3.0474  0.2351 -1.1753
  229MOL0     H30190  10.424   3.608  10.444 -0.8956  0.9726 -0.2273
  229MOL0     H30191  10.473   3.462  10.630 -0.1447  0.0379 -1.8913
  229MOL0     H30192   9.996   3.288  11.049  2.0868  3.4994  0.4349
  229MOL0     H30193   9.991   3.104  11.223 -0.9990 -0.3647 -2.2579
  229MOL0     H30194  10.370   2.873  11.295 -0.6496  0.0222  0.5302
  229MOL0     H30195  10.213   2.790  11.264 -0.8879  1.0750  0.1261
  229MOL0     H30196  10.164   2.816  11.504 -0.3499  0.2675  1.3375
  229MOL0     H30197  10.312   2.905  11.545 -2.4632 -1.1091  1.6603
  229MOL0     H30198  10.438   2.688  11.451 -0.0922  0.1293 -1.0275
  229MOL0     H30199  10.289   2.615  11.444  0.5887  0.6631 -1.2921
  229MOL0     H30200  10.363   2.528  11.632  0.3718  0.6792 -0.4912
  229MOL0     H30201  10.447   2.668  11.700 -1.3222 -0.8437  3.9537
  229MOL0     H30202  10.154   2.588  11.710  0.4282  0.1095  2.7209
  229MOL0     H30203  10.218   2.760  11.731  2.4053  0.2307 -0.8362
  229MOL0     H30204  10.343   2.705  11.940 -1.2492  0.5112 -0.7093
  229MOL0     H30205  10.300   2.532  11.900 -1.5488 -0.8149 -0.4671
  229MOL0     H30206  10.125   2.764  11.984 -1.4003 -0.2842  2.0044
  229MOL0     H30207  10.060   2.616  11.925 -0.2293 -0.7309  2.1369
  229MOL0     H30208  10.187   2.671  12.207  0.7199  1.5361 -1.9729
  229MOL0     H30209  10.248   2.541  12.119  3.1829  3.1922  0.1423
  229MOL0     H30210  10.408   3.079  11.204  1.2676  0.3209 -0.5615
  229MOL0     H30211  10.415   3.246  11.022  0.4654 -0.5327  0.0907
  229MOL0     H30212  10.061   3.436  10.730 -2.0943  3.4937  0.6123
  229MOL0     H30213  10.003   3.587  10.531  0.6669  2.3707 -0.3630
  229MOL0     H30214  11.109   4.234   9.604  3.3328 -1.5803 -0.0197
  229MOL0     H30215  11.301   4.131   9.472  0.3488  0.0083 -0.9802
  229MOL0     H30216  11.571   4.054   9.276 -1.0492  0.2416  0.0359
  229MOL0     H30217  11.779   3.995   9.210 -0.5523  1.8587 -0.5172
  229MOL0     H30218  11.908   4.055   8.811  2.5351 -0.8671 -2.2137
  229MOL0     H30219  11.847   3.902   8.760 -0.6759  4.7681 -3.2864
  229MOL0     H30220  12.032   3.804   8.902 -1.7828  0.3675  1.0080
  229MOL0     H30221  12.075   3.842   8.756  0.0237  0.8573 -0.3311
  229MOL0     H30222  12.141   4.038   8.970  1.3341  2.2267 -1.3198
  229MOL0     H30223  12.180   4.050   8.804 -2.1374  0.5699 -0.1621
  229MOL0     H30224  12.268   3.842   9.017  0.4399 -1.7768 -0.3852
  229MOL0     H30225  12.314   3.814   8.847  0.6056  0.0453  0.5610
  229MOL0     H30226  12.593   4.100   8.924  0.4376  0.8924 -0.5938
  229MOL0     H30227  11.652   4.026   8.796  1.5243  1.5229 -0.6903
  229MOL0     H30228  11.453   4.124   8.871  1.3704 -2.8113 -2.4466
  230MOL0     O30229   9.040  11.289   5.669  0.2819 -0.0672 -0.4062
  230MOL0     C30230   9.145  11.249   5.628  0.1465 -0.1439  0.3894
  230MOL0     O30231   9.221  11.138   5.675  0.4021  0.3261 -0.8557
  230MOL0     C30232   9.169  11.057   5.778  0.6220  0.5076 -0.3083
  230MOL0     C30233   9.247  11.030   5.891 -0.1353 -0.2190 -0.7363
  230MOL0     C30234   9.209  10.947   5.999 -0.6581 -0.3437  0.9865
  230MOL0     C30235   9.090  10.880   5.993  0.7242 -0.1531  0.1174
  230MOL0     O30236   9.050  10.789   6.088  0.2256 -0.0236  0.8673
  230MOL0     C30237   9.141  10.733   6.187  0.2683 -0.0814  0.5532
  230MOL0     C30238   9.146  10.808   6.313  0.2535 -0.1020  0.4332
  230MOL0     C30239   9.053  10.737   6.413  0.1702 -0.5459  1.1427
  230MOL0     C30240   9.013  10.824   6.527 -0.1315 -0.9913  0.6854
  230MOL0     C30241   9.146  10.841   6.608 -0.7857  0.5485 -0.3864
  230MOL0     C30242   9.112  10.909   6.741 -0.1583  0.0513  0.8457
  230MOL0     C30243   9.247  10.957   6.807 -0.6611  0.0817 -0.3633
  230MOL0     C30244   9.222  10.994   6.957 -0.0297 -0.4788 -0.0959
  230MOL0     N30245   9.163  11.127   6.967  0.9162  0.6218  0.3068
  230MOL0     C30246   9.027  11.159   6.938  0.6098 -0.1220 -0.3606
  230MOL0     C30247   9.016  11.293   6.958 -0.0909  0.3133  0.4431
  230MOL0     C30248   8.895  11.376   6.925  0.9797  1.0642  0.7294
  230MOL0     C30249   8.768  11.345   7.015 -0.1931  0.4014  0.3317
  230MOL0     C30250   8.773  11.421   7.145 -0.3538  0.0597  1.8674
  230MOL0     C30251   8.643  11.401   7.227 -0.6004 -0.3123 -0.0232
  230MOL0     O30252   8.655  11.442   7.365  0.7341  0.1157  0.0098
  230MOL0     C30253   8.759  11.402   7.456  0.4713  0.9399 -0.2623
  230MOL0     C30254   8.827  11.282   7.429 -0.2047 -0.6332  0.5095
  230MOL0     C30255   8.938  11.244   7.511  0.4574 -0.4753  0.0506
  230MOL0     C30256   8.981  11.325   7.621 -0.0938  0.6743 -0.1784
  230MOL0     C30257   9.102  11.289   7.699 -1.0124 -0.3916  0.6990
  230MOL0     O30258   9.160  11.387   7.781 -0.5478  0.5701 -0.2040
  230MOL0     C30259   9.294  11.375   7.819 -0.3635  0.9321  0.4627
  230MOL0     C30260   9.326  11.347   7.949  0.0252  0.0392  0.3288
  230MOL0     C30261   9.461  11.352   7.994 -0.3490  0.3961  0.3591
  230MOL0     C30262   9.564  11.379   7.912  0.6815 -0.7239 -0.4214
  230MOL0     O30263   9.692  11.380   7.962  0.7500  0.1703  0.3835
  230MOL0     C30264   9.794  11.384   7.854 -0.3621  0.1502  0.0337
  230MOL0     C30265   9.845  11.526   7.814  0.5655 -0.0423  0.3059
  230MOL0     C30266   9.880  11.625   7.922 -0.2963 -0.5679  0.3508
  230MOL0     C30267   9.909  11.768   7.865  0.2139 -0.0517  0.3038
  230MOL0     C30268   9.894  11.871   7.986  0.1928  0.1846  0.0292
  230MOL0     C30269   9.982  11.836   8.111 -0.4723  0.0535  0.2422
  230MOL0     C30270   9.960  11.924   8.230 -0.2168  0.3959 -0.4416
  230MOL0     C30271  10.068  11.927   8.334 -0.4833  0.6448  0.0466
  230MOL0    Cl30272  10.125  11.754   8.361 -0.4677 -0.2512 -0.1605
  230MOL0     C30273   9.530  11.415   7.780  0.6167 -0.7085 -0.1648
  230MOL0     C30274   9.398  11.400   7.726 -0.2575 -1.0032 -0.2988
  230MOL0     O30275   9.162  11.184   7.680  0.2272 -0.1542  0.0120
  230MOL0     C30276   8.901  11.434   7.651 -0.1145 -0.4356 -0.5206
  230MOL0     C30277   8.794  11.471   7.567 -0.2480  0.1538  0.0686
  230MOL0     N30278   9.135  11.343   6.990 -0.1886 -0.0950  0.4627
  230MOL0     N30279   9.223  11.249   6.998  0.3771 -0.8507 -0.0951
  230MOL0     C30280   9.009  10.909   5.882  0.5510 -0.3335  0.1195
  230MOL0     C30281   9.048  10.992   5.775 -0.2243  0.7036 -0.3205
  230MOL0     C30282   9.211  11.331   5.524 -0.8281 -0.2164 -0.3698
  230MOL0     C30283   9.300  11.272   5.421 -0.0030 -0.2570 -0.2943
  230MOL0     C30284   9.352  11.356   5.322 -0.1138  0.4095 -0.4786
  230MOL0     C30285   9.310  11.486   5.315  0.7015  0.7939 -0.3930
  230MOL0     O30286   9.343  11.574   5.219 -0.1371  0.1045  0.2541
  230MOL0     C30287   9.493  11.602   5.211 -0.0430 -0.0552  0.4835
  230MOL0     C30288   9.525  11.645   5.062 -0.0858  0.8199 -0.3567
  230MOL0     C30289   9.675  11.677   5.045  0.3567 -0.6454  0.2118
  230MOL0     C30290   9.777  11.580   5.105 -0.5705  0.5771  0.3587
  230MOL0     C30291   9.739  11.444   5.057 -0.3374  1.0641  0.7005
  230MOL0     C30292   9.731  11.323   5.039  0.2884  0.0865 -0.3407
  230MOL0     C30293   9.223  11.543   5.415  0.1652  1.6299  0.6029
  230MOL0     C30294   9.169  11.471   5.521  0.0529  0.2149  1.1349
  230MOL0     H30295   9.337  11.087   5.909 -0.4457 -0.4349  2.0694
  230MOL0     H30296   9.279  10.944   6.082 -0.4003  0.8420  0.8293
  230MOL0     H30297   9.240  10.725   6.142  0.7859 -1.4970  1.8284
  230MOL0     H30298   9.109  10.630   6.205  3.3529 -0.9357  1.8197
  230MOL0     H30299   9.110  10.911   6.307  2.9201  0.8997  0.2006
  230MOL0     H30300   9.249  10.821   6.348  1.4697  0.4120 -2.9674
  230MOL0     H30301   9.101  10.648   6.455  2.0366 -0.0060  0.2717
  230MOL0     H30302   8.968  10.706   6.353  1.8680  1.7622 -2.8817
  230MOL0     H30303   8.984  10.918   6.479 -0.6096 -2.0078 -1.1051
  230MOL0     H30304   8.927  10.781   6.579  0.4558 -1.2385  1.4666
  230MOL0     H30305   9.210  10.908   6.551  0.8706 -0.2459  0.4785
  230MOL0     H30306   9.203  10.750   6.628 -0.4640  0.8852  0.2576
  230MOL0     H30307   9.057  10.849   6.814 -1.1022  0.4443  0.4773
  230MOL0     H30308   9.052  10.997   6.716 -0.1048  0.2582  1.4386
  230MOL0     H30309   9.321  10.877   6.800 -2.0503 -1.0795 -3.9141
  230MOL0     H30310   9.284  11.049   6.761 -0.0017  2.0170  3.5862
  230MOL0     H30311   9.319  10.992   7.007  1.8764  0.9207 -3.4035
  230MOL0     H30312   9.151  10.927   7.007 -0.0714  0.7014  1.5162
  230MOL0     H30313   8.945  11.100   6.898  1.0898 -1.1020  0.0540
  230MOL0     H30314   8.849  11.351   6.829  1.6353 -0.3065  0.7378
  230MOL0     H30315   8.918  11.482   6.922  0.3723  1.2067  0.9965
  230MOL0     H30316   8.751  11.238   7.031  2.4387 -0.5703 -2.4094
  230MOL0     H30317   8.682  11.386   6.961  0.0557  2.4407  1.3693
  230MOL0     H30318   8.865  11.397   7.199  1.7236  0.3041 -1.2652
  230MOL0     H30319   8.777  11.529   7.123 -1.6386 -0.4939 -1.7729
  230MOL0     H30320   8.622  11.295   7.213 -1.9451  0.3137 -4.0070
  230MOL0     H30321   8.556  11.453   7.186 -3.3527 -3.3731  1.4380
  230MOL0     H30322   8.801  11.208   7.353 -2.5816  0.6708 -0.0589
  230MOL0     H30323   8.986  11.149   7.493 -0.2005 -0.5559 -1.4588
  230MOL0     H30324   9.246  11.307   8.011 -1.9437 -1.9260 -3.1101
  230MOL0     H30325   9.492  11.324   8.094 -3.1235  1.8480  1.7203
  230MOL0     H30326   9.772  11.326   7.764  1.3301  0.0898 -0.3841
  230MOL0     H30327   9.880  11.327   7.890 -1.9497 -1.5251  1.3501
  230MOL0     H30328   9.772  11.572   7.747  0.8057  2.5786  1.7326
  230MOL0     H30329   9.938  11.510   7.757  0.0734 -0.0848 -0.4968
  230MOL0     H30330   9.968  11.579   7.967 -1.0693 -0.8074  1.6774
  230MOL0     H30331   9.800  11.633   7.996 -1.0628 -0.4465 -0.4717
  230MOL0     H30332  10.003  11.758   7.809  0.5165 -1.0436  0.9494
  230MOL0     H30333   9.828  11.790   7.795  1.4126  1.8112 -0.5620
  230MOL0     H30334   9.789  11.870   8.017  0.1627  1.0417 -0.0182
  230MOL0     H30335   9.921  11.972   7.951  8.3194 -0.6796  1.9214
  230MOL0     H30336  10.087  11.840   8.080 -0.3150  2.3558  0.8641
  230MOL0     H30337   9.951  11.737   8.145 -2.4195 -0.3052 -2.2261
  230MOL0     H30338   9.943  12.029   8.205 -1.9324  0.1807 -0.2539
  230MOL0     H30339   9.883  11.875   8.290  2.3090 -0.0591  2.6929
  230MOL0     H30340  10.023  11.958   8.428 -0.8817 -4.3856  1.8061
  230MOL0     H30341  10.150  11.995   8.309  1.9836 -1.9085  0.6765
  230MOL0     H30342   9.604  11.441   7.705  1.2558 -1.6854  0.1053
  230MOL0     H30343   9.392  11.432   7.622 -0.8563  0.9303  0.2945
  230MOL0     H30344   8.910  11.489   7.745 -2.8572 -0.7516  0.0007
  230MOL0     H30345   8.720  11.551   7.575 -1.4726 -0.9879  0.4711
  230MOL0     H30346   8.910  10.866   5.887  0.8530 -1.1842 -0.9126
  230MOL0     H30347   8.981  11.025   5.697 -1.6067  0.7767  0.8520
  230MOL0     H30348   9.331  11.169   5.436 -0.0997 -0.0913  1.1810
  230MOL0     H30349   9.434  11.325   5.259 -0.5597 -1.1821 -0.3259
  230MOL0     H30350   9.550  11.511   5.229  0.3520  0.5861  2.8313
  230MOL0     H30351   9.535  11.663   5.290 -1.7089  0.8762  0.7065
  230MOL0     H30352   9.498  11.555   5.005  0.3777  0.4668 -0.0243
  230MOL0     H30353   9.461  11.731   5.040 -1.1424  0.4196  0.9850
  230MOL0     H30354   9.691  11.775   5.091 -0.5368 -0.1076 -0.6105
  230MOL0     H30355   9.697  11.684   4.939  0.0442 -1.0497  0.1187
  230MOL0     H30356   9.878  11.613   5.080  0.1071 -0.6351  1.4148
  230MOL0     H30357   9.774  11.574   5.214 -0.0179  0.7144  0.3842
  230MOL0     H30358   9.744  11.221   5.009  1.5877  0.9455 -2.8986
  230MOL0     H30359   9.192  11.646   5.403  0.1448  1.9914  3.1876
  230MOL0     H30360   9.096  11.506   5.593 -0.4123  0.4618  0.5437
  231MOL0     O30361   4.827  11.010   5.294 -0.0368 -0.0417 -0.3317
  231MOL0     C30362   4.751  10.938   5.227  0.4151  0.0153  0.1736
  231MOL0     O30363   4.626  10.913   5.265 -0.3368  0.1074  0.0806
  231MOL0     C30364   4.577  10.952   5.386 -0.8067 -0.9100  0.6128
  231MOL0     C30365   4.645  10.943   5.512 -0.5485 -0.0501  0.4992
  231MOL0     C30366   4.579  10.971   5.629  0.0807 -0.8846  0.2088
  231MOL0     C30367   4.450  11.026   5.626  0.3777 -0.0911 -0.8904
  231MOL0     O30368   4.388  11.088   5.736 -0.6073 -0.2788  0.0188
  231MOL0     C30369   4.432  11.072   5.867 -0.1583  0.4036  0.1130
  231MOL0     C30370   4.342  11.125   5.976  0.6499 -0.1487 -0.7172
  231MOL0     C30371   4.346  11.273   6.021 -0.1446 -0.3168  0.3222
  231MOL0     C30372   4.291  11.351   5.907  0.0577 -0.6588 -0.7376
  231MOL0     C30373   4.275  11.502   5.933 -0.0276  0.0899 -0.1293
  231MOL0     C30374   4.190  11.568   5.832 -0.6884 -1.3673  0.4210
  231MOL0     C30375   4.260  11.612   5.697  0.2474  0.7474 -0.8830
  231MOL0     C30376   4.330  11.743   5.713  0.7108  0.4473 -0.2232
  231MOL0     N30377   4.244  11.859   5.717  0.1907 -0.0124  0.1009
  231MOL0     C30378   4.180  11.916   5.825 -0.1857  0.4477  0.2864
  231MOL0     C30379   4.123  12.031   5.781  0.4499  0.0067  0.1123
  231MOL0     C30380   4.028  12.120   5.864  0.2370 -0.3723  0.3312
  231MOL0     C30381   3.900  12.141   5.781 -0.5322  0.1020  0.2908
  231MOL0     C30382   3.812  12.018   5.774  0.0334  0.2396 -0.2041
  231MOL0     C30383   3.780  11.968   5.915 -0.2617  0.3804 -1.2195
  231MOL0     O30384   3.864  11.853   5.950 -0.4529 -0.3067  0.2741
  231MOL0     C30385   3.820  11.786   6.062  0.3614 -0.8030 -0.3076
  231MOL0     C30386   3.904  11.765   6.164  0.1447  0.2401 -0.4350
  231MOL0     C30387   3.864  11.689   6.271 -0.2471  0.6647 -0.5253
  231MOL0     C30388   3.737  11.626   6.280  0.2917  1.1254 -0.2781
  231MOL0     C30389   3.696  11.539   6.397  0.7599  0.0274  0.2417
  231MOL0     O30390   3.796  11.482   6.467 -0.1050  0.5238  1.3993
  231MOL0     C30391   3.756  11.406   6.576  0.3931  0.7917 -0.6118
  231MOL0     C30392   3.640  11.418   6.663 -0.8245 -0.3050  0.6572
  231MOL0     C30393   3.634  11.357   6.788 -0.1739  0.0716  0.6559
  231MOL0     C30394   3.739  11.275   6.832  0.1084 -0.7253  0.8510
  231MOL0     O30395   3.727  11.211   6.959  0.1340 -0.4737  0.6123
  231MOL0     C30396   3.823  11.113   6.999  1.0630  1.3701  0.3858
  231MOL0     C30397   3.758  11.026   7.110  0.4413 -0.0964  0.4804
  231MOL0     C30398   3.856  10.913   7.146  0.7882 -0.1358 -0.1508
  231MOL0     C30399   3.817  10.835   7.269 -0.1901 -0.1339 -0.5397
  231MOL0     C30400   3.828  10.915   7.397 -0.1679  0.6539  0.0862
  231MOL0     C30401   3.734  10.862   7.514 -0.1844  0.5358 -0.3276
  231MOL0     C30402   3.793  10.897   7.649 -0.6675  0.2426  0.3234
  231MOL0     C30403   3.690  10.958   7.739 -0.2096  1.3350  0.3055
  231MOL0    Cl30404   3.538  10.855   7.770 -0.3523  0.0888  0.0337
  231MOL0     C30405   3.851  11.261   6.755 -0.0905 -0.0878 -0.3945
  231MOL0     C30406   3.858  11.325   6.633  0.6699  0.7594 -0.5674
  231MOL0     O30407   3.579  11.527   6.407 -0.2562  0.6443 -0.1130
  231MOL0     C30408   3.649  11.655   6.173  0.0914  0.6290 -1.5311
  231MOL0     C30409   3.693  11.727   6.063 -0.5287 -0.3006  0.1493
  231MOL0     N30410   4.142  12.034   5.643 -0.8712 -0.3884 -0.7278
  231MOL0     N30411   4.212  11.935   5.613  0.5143  1.0326  0.0885
  231MOL0     C30412   4.380  11.028   5.504  0.1156 -0.1993 -0.2223
  231MOL0     C30413   4.440  10.982   5.383 -0.1736 -0.4686 -0.5438
  231MOL0     C30414   4.807  10.879   5.098 -0.7256  0.4355  1.5640
  231MOL0     C30415   4.952  10.895   5.065  0.8816  0.1741 -0.1876
  231MOL0     C30416   5.005  10.851   4.946 -0.1491 -0.5021 -0.2344
  231MOL0     C30417   4.916  10.796   4.849 -0.0330  0.3781  0.5282
  231MOL0     O30418   4.961  10.726   4.739  0.2384  0.2769 -0.0425
  231MOL0     C30419   4.944  10.784   4.610  0.0074 -0.5160  0.0617
  231MOL0     C30420   5.020  10.703   4.513 -0.3414 -0.7292  0.7481
  231MOL0     C30421   4.982  10.553   4.493 -0.6861 -0.6129 -0.9358
  231MOL0     C30422   4.845  10.521   4.445  0.4436 -0.5915 -0.0962
  231MOL0     C30423   4.798  10.583   4.320 -0.4853  0.1073  0.3710
  231MOL0     C30424   4.738  10.628   4.232  0.6922 -0.9915 -0.6933
  231MOL0     C30425   4.774  10.788   4.871  1.0612 -0.0943  0.6219
  231MOL0     C30426   4.720  10.822   4.999 -0.6277  0.4259 -0.3662
  231MOL0     H30427   4.748  10.908   5.515 -0.0941  1.2906  1.5339
  231MOL0     H30428   4.635  10.975   5.722  2.9608  0.1597 -1.4310
  231MOL0     H30429   4.527  11.127   5.873 -0.6956  1.3317  0.2542
  231MOL0     H30430   4.457  10.970   5.899 -2.2267  0.1000  0.8857
  231MOL0     H30431   4.358  11.060   6.062  1.0196 -1.4031 -1.7077
  231MOL0     H30432   4.238  11.103   5.947  0.2847  0.2973  0.2285
  231MOL0     H30433   4.448  11.311   6.038 -0.3396 -0.0668  0.9463
  231MOL0     H30434   4.281  11.290   6.107 -1.4438  0.1208 -0.7126
  231MOL0     H30435   4.358  11.335   5.822 -0.8703 -1.3035 -1.3650
  231MOL0     H30436   4.200  11.303   5.871  0.0962 -1.7753  0.5876
  231MOL0     H30437   4.374  11.549   5.924  0.1604 -0.7327 -3.4558
  231MOL0     H30438   4.252  11.519   6.039  3.6556  1.3894  0.6143
  231MOL0     H30439   4.142  11.654   5.881 -0.5654  0.0999 -1.8556
  231MOL0     H30440   4.108  11.501   5.807  0.7457 -3.2510  0.5471
  231MOL0     H30441   4.315  11.523   5.668 -0.0539  0.3076 -0.1322
  231MOL0     H30442   4.172  11.629   5.634 -1.6253  1.8015  1.7949
  231MOL0     H30443   4.406  11.755   5.635  0.0207 -1.7323 -1.2945
  231MOL0     H30444   4.402  11.747   5.795  2.6231 -1.6418 -1.6889
  231MOL0     H30445   4.178  11.870   5.924 -2.9150 -2.1459 -0.8099
  231MOL0     H30446   4.071  12.220   5.873  1.7398 -0.8278 -1.1099
  231MOL0     H30447   4.012  12.080   5.964  2.5159 -1.3944  0.3455
  231MOL0     H30448   3.920  12.178   5.680  2.4979  1.2587  1.2178
  231MOL0     H30449   3.828  12.208   5.829 -0.7924 -0.0669  0.1392
  231MOL0     H30450   3.720  12.046   5.723  1.1485  2.7251 -0.9977
  231MOL0     H30451   3.871  11.948   5.713  0.6112  3.4457 -3.6152
  231MOL0     H30452   3.679  11.928   5.910  0.1357 -0.6867 -0.8688
  231MOL0     H30453   3.780  12.048   5.991  2.6841  1.4872 -2.2611
  231MOL0     H30454   4.007  11.800   6.163  0.7037 -1.2582  0.6150
  231MOL0     H30455   3.947  11.670   6.338 -0.4997 -0.5342 -0.5265
  231MOL0     H30456   3.574  11.494   6.623 -0.8986 -0.6819  0.0516
  231MOL0     H30457   3.551  11.370   6.857 -0.4994 -0.5230  0.3826
  231MOL0     H30458   3.905  11.164   7.050  1.4091  1.2450 -0.0484
  231MOL0     H30459   3.843  11.045   6.917 -2.5426 -1.8064  1.8308
  231MOL0     H30460   3.668  10.987   7.061  2.0927 -0.4352 -2.5314
  231MOL0     H30461   3.734  11.094   7.192  2.0857  0.1870  0.7454
  231MOL0     H30462   3.959  10.950   7.156  1.4761 -1.9177 -0.2009
  231MOL0     H30463   3.860  10.844   7.061  1.1190 -2.1702  1.4266
  231MOL0     H30464   3.719  10.787   7.260 -0.2915  0.1075 -0.7153
  231MOL0     H30465   3.882  10.747   7.273  1.3075  0.8307 -2.1728
  231MOL0     H30466   3.807  11.023   7.397 -2.4097  0.2853 -1.6576
  231MOL0     H30467   3.930  10.900   7.434 -1.3844 -0.4070  3.3825
  231MOL0     H30468   3.702  10.757   7.511 -1.6296  0.8590  1.3928
  231MOL0     H30469   3.643  10.917   7.488 -0.1268  0.0973 -1.4955
  231MOL0     H30470   3.839  10.814   7.702 -0.2372 -0.4789 -1.1291
  231MOL0     H30471   3.877  10.967   7.645 -0.4104 -0.0554  0.4888
  231MOL0     H30472   3.652  11.049   7.692 -1.4987  2.7065  3.7037
  231MOL0     H30473   3.744  10.975   7.832 -1.3347 -2.7693  1.9189
  231MOL0     H30474   3.926  11.191   6.790  1.2053  2.3343  2.0280
  231MOL0     H30475   3.954  11.327   6.583  1.4046  3.4708  0.7399
  231MOL0     H30476   3.556  11.600   6.160 -1.0543  1.6847  1.3902
  231MOL0     H30477   3.627  11.752   5.981  1.2448  1.4964 -0.8279
  231MOL0     H30478   4.280  11.063   5.525  0.6017  1.1230  0.0054
  231MOL0     H30479   4.375  10.971   5.297 -0.2142  0.5758 -0.6685
  231MOL0     H30480   5.005  10.949   5.143  0.1397 -0.6439  0.9160
  231MOL0     H30481   5.113  10.852   4.952 -0.1992  2.0688  3.0252
  231MOL0     H30482   4.986  10.883   4.628  0.2385 -0.9261  2.0256
  231MOL0     H30483   4.843  10.789   4.569  0.5474  0.0481 -1.2454
  231MOL0     H30484   5.012  10.744   4.411 -0.0152 -1.6371  0.3461
  231MOL0     H30485   5.129  10.702   4.524  0.4314 -5.6576 -3.3944
  231MOL0     H30486   4.995  10.494   4.584 -1.6851 -1.4332 -1.3080
  231MOL0     H30487   5.052  10.535   4.411  0.9634 -0.5207  0.4038
  231MOL0     H30488   4.845  10.412   4.452 -0.7229 -0.4948  5.1401
  231MOL0     H30489   4.774  10.549   4.523  0.6225  2.3046 -0.8748
  231MOL0     H30490   4.689  10.670   4.146  1.1593  0.8444 -0.1037
  231MOL0     H30491   4.712  10.740   4.796  0.6392  0.3680  0.6772
  231MOL0     H30492   4.612  10.824   5.008 -0.7394  2.1154 -1.5746
  232MOL0     O30493   7.737   5.654   8.177 -0.6808  0.0880  0.6649
  232MOL0     C30494   7.751   5.753   8.107  0.1812  0.0816 -0.0023
  232MOL0     O30495   7.732   5.881   8.158 -0.2443 -0.0533  0.4247
  232MOL0     C30496   7.762   5.906   8.292 -0.5776  0.2574  0.3326
  232MOL0     C30497   7.654   5.874   8.372 -0.6006  0.1819 -0.5671
  232MOL0     C30498   7.670   5.901   8.509  0.3030  0.5034  0.0844
  232MOL0     C30499   7.791   5.959   8.556 -0.1152  0.2346  0.6841
  232MOL0     O30500   7.791   5.975   8.696  0.1716  0.2997 -0.2175
  232MOL0     C30501   7.916   6.004   8.765 -0.7071 -0.6827  0.5173
  232MOL0     C30502   8.027   5.897   8.775  0.4601  0.0736  0.2575
  232MOL0     C30503   8.151   5.944   8.853 -1.1278 -0.2513 -0.2240
  232MOL0     C30504   8.259   5.832   8.883  2.1450  1.1555  0.4039
  232MOL0     C30505   8.411   5.877   8.897  0.6457 -0.4182 -0.5325
  232MOL0     C30506   8.515   5.765   8.930  0.6619  0.3296 -0.0270
  232MOL0     C30507   8.661   5.807   8.904 -0.7804  0.5000 -0.9295
  232MOL0     C30508   8.754   5.680   8.910  0.2492 -0.8763  0.0586
  232MOL0     N30509   8.889   5.703   8.861 -0.3504 -0.0727 -0.1630
  232MOL0     C30510   8.961   5.816   8.896 -0.4483 -0.3667  0.6171
  232MOL0     C30511   9.073   5.809   8.819  0.8579 -0.5112 -0.7295
  232MOL0     C30512   9.191   5.894   8.820 -1.1603  0.0391 -0.5467
  232MOL0     C30513   9.179   6.009   8.723  0.4801 -0.1489  0.3213
  232MOL0     C30514   9.307   6.090   8.736 -0.3635 -0.2196  1.2147
  232MOL0     C30515   9.317   6.194   8.616  0.4476 -0.5212  0.5527
  232MOL0     O30516   9.320   6.131   8.484 -0.0836  0.2001 -0.2201
  232MOL0     C30517   9.366   6.186   8.364 -0.4174  0.6984 -0.6499
  232MOL0     C30518   9.433   6.302   8.343 -0.7768  0.4106  0.7382
  232MOL0     C30519   9.461   6.349   8.217  0.4322  0.0402 -0.3573
  232MOL0     C30520   9.445   6.267   8.107  0.0012  0.7792 -0.3919
  232MOL0     C30521   9.486   6.309   7.974  0.9771 -0.1415  0.0045
  232MOL0     O30522   9.418   6.249   7.877  0.1588  0.8492 -0.1251
  232MOL0     C30523   9.414   6.297   7.751 -0.2598 -0.0422  0.0885
  232MOL0     C30524   9.516   6.267   7.659  0.1589 -0.6941 -0.1132
  232MOL0     C30525   9.506   6.327   7.526  0.2754 -0.1755  1.1388
  232MOL0     C30526   9.400   6.422   7.496 -0.0541 -0.6121  1.0262
  232MOL0     O30527   9.388   6.492   7.373 -0.2214  0.1001  0.1999
  232MOL0     C30528   9.383   6.638   7.383  0.0772 -0.4753 -0.9417
  232MOL0     C30529   9.452   6.672   7.252 -0.8533 -1.0840  0.4433
  232MOL0     C30530   9.429   6.818   7.218 -0.0890  0.6875 -0.3388
  232MOL0     C30531   9.489   6.913   7.324 -0.6215 -0.4187  0.2848
  232MOL0     C30532   9.640   6.880   7.358  0.4247 -0.0394  1.0495
  232MOL0     C30533   9.696   6.980   7.452  0.7269 -0.4552 -0.2243
  232MOL0     C30534   9.852   6.975   7.434  0.0178  0.4042  0.6221
  232MOL0     C30535   9.933   7.035   7.552  0.7403 -0.2307  0.3834
  232MOL0    Cl30536   9.912   7.200   7.579  0.0906 -0.5221 -0.0066
  232MOL0     C30537   9.304   6.446   7.586 -0.2374  0.9607 -1.1573
  232MOL0     C30538   9.308   6.377   7.713 -0.6143 -0.1331 -0.4726
  232MOL0     O30539   9.563   6.395   7.962 -0.2365  0.3135 -0.3142
  232MOL0     C30540   9.368   6.152   8.130 -0.6805 -0.4211 -1.1513
  232MOL0     C30541   9.336   6.116   8.257 -0.3534  1.2068 -0.0281
  232MOL0     N30542   9.062   5.705   8.737  0.0245  0.4634  0.4494
  232MOL0     N30543   8.949   5.638   8.759  0.4556  0.1731 -0.0985
  232MOL0     C30544   7.900   5.979   8.474  0.4182  0.2844  0.8026
  232MOL0     C30545   7.883   5.944   8.339  0.5341  0.2731  0.6605
  232MOL0     C30546   7.771   5.733   7.958 -0.6131 -0.4702 -0.5095
  232MOL0     C30547   7.780   5.604   7.908 -0.1678  0.3874  0.5493
  232MOL0     C30548   7.806   5.581   7.772 -0.1934  0.2891 -1.0260
  232MOL0     C30549   7.829   5.686   7.681 -0.0101 -0.2519  0.7331
  232MOL0     O30550   7.840   5.638   7.551  0.4138 -0.2801 -0.1581
  232MOL0     C30551   7.869   5.738   7.449 -0.4936  0.3006 -0.6037
  232MOL0     C30552   7.734   5.794   7.405  0.7960  0.3893  0.4631
  232MOL0     C30553   7.770   5.867   7.263 -0.1864  0.5039  0.0298
  232MOL0     C30554   7.791   5.763   7.154 -0.6470  0.1875 -0.6053
  232MOL0     C30555   7.761   5.801   7.014 -0.3714 -0.2264  0.4256
  232MOL0     C30556   7.744   5.857   6.907  0.1269  0.3225  0.6132
  232MOL0     C30557   7.829   5.814   7.731  0.1153  1.2616 -0.1146
  232MOL0     C30558   7.794   5.838   7.869  0.4518  0.5660 -0.1660
  232MOL0     H30559   7.555   5.839   8.341 -1.3210  0.3665  1.4230
  232MOL0     H30560   7.585   5.872   8.570 -1.0851 -0.4462 -2.1579
  232MOL0     H30561   7.885   6.025   8.868 -1.7021  2.3793 -0.3234
  232MOL0     H30562   7.952   6.099   8.725  1.5403 -2.0007 -0.8636
  232MOL0     H30563   8.060   5.874   8.673  1.3812 -0.8190  0.7463
  232MOL0     H30564   7.992   5.804   8.821  0.9471  0.9048  2.4236
  232MOL0     H30565   8.119   5.985   8.949 -1.2550  0.2610 -0.4794
  232MOL0     H30566   8.203   6.025   8.800 -3.1167  0.2225 -1.5600
  232MOL0     H30567   8.237   5.787   8.980 -2.8202 -1.1087 -1.4384
  232MOL0     H30568   8.242   5.756   8.806  3.7870  1.7324 -0.5957
  232MOL0     H30569   8.428   5.943   8.983 -0.3173 -0.9159  0.0615
  232MOL0     H30570   8.446   5.913   8.800 -0.7480 -1.4213 -1.4407
  232MOL0     H30571   8.502   5.686   8.856  3.2487  0.4672 -0.7512
  232MOL0     H30572   8.497   5.735   9.034 -0.8046  0.9129 -0.0956
  232MOL0     H30573   8.676   5.857   8.808  3.4555  2.0586  0.3215
  232MOL0     H30574   8.678   5.887   8.977 -3.4130  0.8669 -0.6300
  232MOL0     H30575   8.705   5.600   8.854  1.6367 -2.1624  0.6412
  232MOL0     H30576   8.766   5.639   9.011 -1.6587  2.2355  1.7445
  232MOL0     H30577   8.939   5.892   8.970  0.4525 -0.6169  1.1472
  232MOL0     H30578   9.273   5.828   8.790 -2.5108 -2.7093  1.4131
  232MOL0     H30579   9.218   5.923   8.921 -0.1865 -0.7651 -0.5604
  232MOL0     H30580   9.086   6.058   8.752 -1.2431 -2.3299 -1.1242
  232MOL0     H30581   9.165   5.970   8.621 -0.7225  0.3609  0.2695
  232MOL0     H30582   9.311   6.144   8.831 -3.0946 -1.9294  2.4185
  232MOL0     H30583   9.390   6.020   8.738  0.2162  0.3903 -0.2575
  232MOL0     H30584   9.410   6.249   8.632  0.4476 -0.6697  1.0752
  232MOL0     H30585   9.244   6.275   8.611  4.9993  4.0620 -0.1105
  232MOL0     H30586   9.450   6.360   8.433 -1.2069  1.0206  0.4320
  232MOL0     H30587   9.505   6.447   8.210  0.4473  0.2144  1.5847
  232MOL0     H30588   9.588   6.195   7.696  0.8283 -1.1070 -2.0824
  232MOL0     H30589   9.574   6.294   7.448 -0.2949  1.8221 -0.2940
  232MOL0     H30590   9.438   6.670   7.472  0.9350 -2.2265 -0.7985
  232MOL0     H30591   9.278   6.666   7.374 -1.3165 -4.9103 -0.9781
  232MOL0     H30592   9.411   6.609   7.171 -0.0568 -3.1885  1.5923
  232MOL0     H30593   9.559   6.651   7.252 -0.7973 -0.8996 -0.9116
  232MOL0     H30594   9.325   6.840   7.191 -0.5872 -0.0148  0.9300
  232MOL0     H30595   9.481   6.839   7.124 -0.5814  1.4794 -0.4445
  232MOL0     H30596   9.475   7.016   7.290  1.8093 -0.1189  0.0058
  232MOL0     H30597   9.445   6.911   7.424  2.1471 -1.2491  1.5796
  232MOL0     H30598   9.700   6.883   7.267  3.1352 -1.4158  2.6872
  232MOL0     H30599   9.658   6.786   7.411  4.2915  0.7065  1.3542
  232MOL0     H30600   9.659   6.951   7.551 -2.4476  1.3776 -0.7322
  232MOL0     H30601   9.655   7.081   7.446 -2.3695 -1.6945 -2.5367
  232MOL0     H30602   9.885   6.871   7.420 -2.5151 -0.2858 -0.8538
  232MOL0     H30603   9.884   7.030   7.345  2.2498  0.4727  1.4041
  232MOL0     H30604  10.034   7.036   7.510  1.6585  2.3461  2.3435
  232MOL0     H30605   9.919   6.978   7.644 -0.4475 -0.3696  0.1272
  232MOL0     H30606   9.219   6.511   7.565 -1.0525  0.8604  1.4442
  232MOL0     H30607   9.231   6.408   7.783 -0.9820  0.6226 -1.1843
  232MOL0     H30608   9.331   6.087   8.051  1.7566 -1.4695 -1.5268
  232MOL0     H30609   9.278   6.024   8.263  3.8019 -1.7679 -0.9456
  232MOL0     H30610   7.996   6.014   8.511  1.2144 -1.7993  0.8807
  232MOL0     H30611   7.963   5.955   8.266 -1.1886 -0.5510 -1.4913
  232MOL0     H30612   7.764   5.525   7.981 -0.2649 -0.1912 -0.0936
  232MOL0     H30613   7.805   5.486   7.720 -1.7538 -0.0773 -0.3791
  232MOL0     H30614   7.933   5.688   7.375  0.7565  0.0112  0.6171
  232MOL0     H30615   7.918   5.830   7.480 -3.1416  1.3423  0.8070
  232MOL0     H30616   7.661   5.718   7.374  0.1434  1.4298 -0.6546
  232MOL0     H30617   7.683   5.859   7.476 -1.7997 -2.3470  1.3021
  232MOL0     H30618   7.859   5.930   7.256 -0.3415  0.6346 -0.8833
  232MOL0     H30619   7.682   5.927   7.240 -0.9449  0.8065  3.2404
  232MOL0     H30620   7.894   5.728   7.166 -1.5475 -3.1529 -1.6948
  232MOL0     H30621   7.728   5.675   7.169 -0.9900  0.1467 -2.1708
  232MOL0     H30622   7.718   5.901   6.813  1.3023  3.3208  1.5376
  232MOL0     H30623   7.845   5.905   7.675  2.4215  0.8336 -0.2622
  232MOL0     H30624   7.804   5.940   7.904  2.5033  1.1115 -2.0856
  233MOL0     O30625   1.306   9.968   3.175 -0.2578 -0.1635  0.4596
  233MOL0     C30626   1.272   9.857   3.132  0.7867 -0.7383 -1.1903
  233MOL0     O30627   1.157   9.797   3.170  0.3487 -0.4103  0.7870
  233MOL0     C30628   1.095   9.828   3.288  0.4929  0.7016 -1.0916
  233MOL0     C30629   1.156   9.799   3.414 -0.3736 -0.1724  0.3767
  233MOL0     C30630   1.093   9.836   3.532  0.5418 -0.4533 -0.0740
  233MOL0     C30631   0.974   9.906   3.527 -1.4899  0.0440  0.5569
  233MOL0     O30632   0.912   9.957   3.642 -0.1577 -0.5501 -0.5598
  233MOL0     C30633   0.790   9.885   3.673 -0.0222 -0.9697 -0.1193
  233MOL0     C30634   0.699   9.962   3.767 -0.1909 -0.8034  0.7689
  233MOL0     C30635   0.615  10.051   3.670  0.3156 -0.2022 -0.7326
  233MOL0     C30636   0.600  10.192   3.711 -0.7546  0.0981 -0.3842
  233MOL0     C30637   0.503  10.268   3.627  0.4946  0.3192 -0.6017
  233MOL0     C30638   0.350  10.258   3.624  0.5071  0.3616  0.5619
  233MOL0     C30639   0.292  10.352   3.537  0.0946 -0.3843  0.4140
  233MOL0     C30640   0.132  10.341   3.567 -0.3962  0.5066 -0.6158
  233MOL0     N30641   0.088  10.411   3.688  0.0557 -0.5640  0.5313
  233MOL0     C30642   0.141  10.530   3.729 -0.7651  0.0871 -0.6664
  233MOL0     C30643   0.093  10.549   3.854  0.9682  0.1782  0.1223
  233MOL0     C30644   0.125  10.676   3.937 -0.1302  0.3699  0.5840
  233MOL0     C30645   0.002  10.772   3.958 -0.6162  0.6183  0.0482
  233MOL0     C30646   0.046  10.860   4.070  0.2374 -0.2253  0.7348
  233MOL0     C30647  -0.074  10.912   4.148 -0.3075  0.2023 -0.1065
  233MOL0     O30648  -0.183  10.969   4.077  0.2770 -0.3947  0.2199
  233MOL0     C30649  -0.182  11.108   4.043  0.1884  0.1283 -0.4116
  233MOL0     C30650  -0.097  11.208   4.072  0.0581  0.0567  0.3594
  233MOL0     C30651  -0.115  11.343   4.047  0.8331  0.3659  0.3254
  233MOL0     C30652  -0.225  11.391   3.984  0.0810 -0.9839  0.7811
  233MOL0     C30653  -0.240  11.540   3.945  0.7365 -0.7404  0.2795
  233MOL0     O30654  -0.126  11.628   3.973 -0.2800  0.2668 -0.6922
  233MOL0     C30655  -0.137  11.759   3.942 -0.3200  0.2454  0.1956
  233MOL0     C30656  -0.078  11.812   3.825 -0.2356  0.0349 -0.5305
  233MOL0     C30657  -0.045  11.951   3.819  0.2787  0.0741  0.4121
  233MOL0     C30658  -0.106  12.038   3.912  0.5225 -0.0874  0.4758
  233MOL0     O30659  -0.105  12.173   3.924 -0.0914 -0.0240  0.2248
  233MOL0     C30660  -0.016  12.252   3.846  0.6694 -0.0047 -0.6370
  233MOL0     C30661   0.131  12.223   3.909 -0.3626  0.3077 -0.8426
  233MOL0     C30662   0.251  12.294   3.842 -0.2716  0.1313 -0.8425
  233MOL0     C30663   0.286  12.223   3.704 -0.2769  0.8196 -1.2565
  233MOL0     C30664   0.357  12.312   3.603 -0.4906  0.2347  0.0873
  233MOL0     C30665   0.306  12.454   3.572  0.5631 -0.3349  0.1585
  233MOL0     C30666   0.385  12.534   3.476  0.4957  0.4163  0.3846
  233MOL0     C30667   0.515  12.597   3.529 -0.1838  0.4336  0.4585
  233MOL0    Cl30668   0.478  12.725   3.653 -0.0089  0.2576  0.5854
  233MOL0     C30669  -0.173  11.981   4.017 -0.3183  0.5742  0.1253
  233MOL0     C30670  -0.177  11.846   4.039  0.8800 -0.2948 -0.5620
  233MOL0     O30671  -0.352  11.582   3.909  0.3030 -0.5891 -0.4338
  233MOL0     C30672  -0.325  11.293   3.953  0.0168  0.0745 -0.1724
  233MOL0     C30673  -0.298  11.157   3.975  0.2266  1.5866 -0.0078
  233MOL0     N30674   0.003  10.443   3.881  0.0217 -1.1739 -0.0237
  233MOL0     N30675   0.009  10.357   3.787 -0.0207 -0.6679 -0.3765
  233MOL0     C30676   0.918   9.929   3.410  0.8233  1.4171  0.0815
  233MOL0     C30677   0.973   9.897   3.286 -0.1678 -0.7378  0.0856
  233MOL0     C30678   1.354   9.785   3.043  0.0298  1.3222  0.0275
  233MOL0     C30679   1.489   9.810   3.026  0.5476  0.3289 -0.4010
  233MOL0     C30680   1.572   9.742   2.934  0.1607  0.6514  1.0718
  233MOL0     C30681   1.525   9.641   2.857  1.1004 -0.2337 -1.1296
  233MOL0     O30682   1.600   9.598   2.753  0.0475 -0.7261  0.2892
  233MOL0     C30683   1.698   9.493   2.783  0.1508 -0.4187 -0.5210
  233MOL0     C30684   1.732   9.413   2.664  0.9918  0.1408  0.0945
  233MOL0     C30685   1.614   9.316   2.643  0.5352  1.1072  0.6608
  233MOL0     C30686   1.659   9.202   2.562  1.0727  0.8072 -0.0973
  233MOL0     C30687   1.687   9.231   2.419  0.3531 -0.3981  0.5785
  233MOL0     C30688   1.703   9.260   2.303  0.3406  0.1789  0.1259
  233MOL0     C30689   1.389   9.604   2.878  0.4614 -0.5842  0.1101
  233MOL0     C30690   1.300   9.684   2.957  1.0139 -0.4617  0.0379
  233MOL0     H30691   1.256   9.762   3.434 -0.9775 -0.6696  2.7883
  233MOL0     H30692   1.137   9.844   3.631 -2.6815  2.9980  1.2887
  233MOL0     H30693   0.829   9.793   3.717  1.2456 -0.5568 -0.3315
  233MOL0     H30694   0.736   9.853   3.584 -0.0003 -3.8852  0.7892
  233MOL0     H30695   0.773  10.016   3.827  1.5506 -0.8989 -1.1897
  233MOL0     H30696   0.629   9.898   3.822 -0.6067 -0.5360  0.5550
  233MOL0     H30697   0.515  10.010   3.653  1.0145 -2.5520  0.2915
  233MOL0     H30698   0.654  10.057   3.568  2.2611  5.6990 -0.0125
  233MOL0     H30699   0.562  10.205   3.813 -3.9010  4.1822 -1.8373
  233MOL0     H30700   0.699  10.237   3.697 -0.2826 -0.8549 -0.2479
  233MOL0     H30701   0.523  10.268   3.519 -1.4919  4.7224 -1.1866
  233MOL0     H30702   0.518  10.373   3.656  2.3101  0.7965 -2.8820
  233MOL0     H30703   0.319  10.280   3.727 -1.0192  0.0965  0.1786
  233MOL0     H30704   0.316  10.154   3.622  0.0065  0.5040  1.2832
  233MOL0     H30705   0.337  10.452   3.539  0.6975 -0.6151 -0.6336
  233MOL0     H30706   0.303  10.324   3.432  1.1804  3.1775 -0.5656
  233MOL0     H30707   0.112  10.237   3.596  0.5362  1.3813  3.9459
  233MOL0     H30708   0.069  10.364   3.480 -1.3560  0.2606 -0.0030
  233MOL0     H30709   0.218  10.592   3.684  0.6748  0.4389  2.0759
  233MOL0     H30710   0.209  10.734   3.898  0.9823 -1.2864  0.4545
  233MOL0     H30711   0.155  10.643   4.037 -1.7283 -0.2713  0.8762
  233MOL0     H30712  -0.084  10.707   3.978  0.6062 -0.8925  0.6614
  233MOL0     H30713  -0.025  10.828   3.869 -2.8298  1.1336  0.9746
  233MOL0     H30714   0.123  10.819   4.136  0.7311  0.6862  0.7419
  233MOL0     H30715   0.092  10.951   4.030 -0.4820  0.2041  0.8670
  233MOL0     H30716  -0.038  10.986   4.219  0.9804 -0.4637 -0.0246
  233MOL0     H30717  -0.097  10.827   4.213  2.1326 -0.5597 -0.1316
  233MOL0     H30718  -0.001  11.183   4.116 -0.2873 -2.5099 -0.2092
  233MOL0     H30719  -0.038  11.416   4.068  1.8605  0.2636 -2.6246
  233MOL0     H30720  -0.051  11.739   3.749  1.8316  0.2314 -0.0335
  233MOL0     H30721   0.004  11.985   3.728 -2.0353 -0.6751 -1.2007
  233MOL0     H30722  -0.025  12.360   3.860  3.4807  0.1978  0.0777
  233MOL0     H30723  -0.038  12.233   3.740 -2.0978  0.3963 -0.2198
  233MOL0     H30724   0.160  12.118   3.899 -0.8976  0.1691 -1.0189
  233MOL0     H30725   0.130  12.251   4.015  0.7463  5.8588 -1.9980
  233MOL0     H30726   0.334  12.270   3.908  0.1566 -0.3842 -1.5538
  233MOL0     H30727   0.220  12.398   3.827 -0.2266  0.6672  2.1820
  233MOL0     H30728   0.354  12.138   3.718  1.3763  2.4966  2.3910
  233MOL0     H30729   0.199  12.181   3.654 -1.8459  0.4599  1.5905
  233MOL0     H30730   0.379  12.251   3.515  1.1602 -3.6136  2.8897
  233MOL0     H30731   0.448  12.324   3.663 -1.1968 -2.9146  1.9927
  233MOL0     H30732   0.301  12.509   3.666  3.0137  1.7883 -0.8473
  233MOL0     H30733   0.204  12.450   3.532 -1.0355  4.3137  2.9401
  233MOL0     H30734   0.396  12.462   3.395  0.3757  0.3872  0.3930
  233MOL0     H30735   0.337  12.619   3.425  0.8953  0.3891 -0.0368
  233MOL0     H30736   0.567  12.637   3.441  0.5441 -1.3211  0.0483
  233MOL0     H30737   0.580  12.517   3.564 -3.1928 -2.0994  0.7197
  233MOL0     H30738  -0.202  12.041   4.103  1.8785  1.1177  0.5367
  233MOL0     H30739  -0.225  11.812   4.130  0.9229 -0.4872 -0.6102
  233MOL0     H30740  -0.413  11.319   3.896  0.8236 -0.3355 -1.6666
  233MOL0     H30741  -0.377  11.086   3.953  1.6027 -0.2280  0.7401
  233MOL0     H30742   0.828   9.989   3.402 -1.2175 -1.3219  1.0980
  233MOL0     H30743   0.940   9.935   3.190 -2.5309  1.9294  1.7989
  233MOL0     H30744   1.519   9.890   3.093 -3.7338  0.9604  1.0768
  233MOL0     H30745   1.672   9.782   2.918  0.6822 -0.2391  2.0190
  233MOL0     H30746   1.670   9.425   2.864  1.7133 -0.8595 -0.3090
  233MOL0     H30747   1.791   9.539   2.819  1.3679 -2.5016 -0.8358
  233MOL0     H30748   1.740   9.475   2.574 -4.1240 -2.1626 -2.3522
  233MOL0     H30749   1.831   9.370   2.683  0.8415 -1.1873 -1.8133
  233MOL0     H30750   1.533   9.363   2.586  0.6395  0.3925 -0.1020
  233MOL0     H30751   1.572   9.271   2.733  0.7215 -0.1020  0.1647
  233MOL0     H30752   1.742   9.150   2.609  0.1418 -0.0140  0.6909
  233MOL0     H30753   1.572   9.135   2.556  0.4593  1.5077  0.7016
  233MOL0     H30754   1.727   9.274   2.200  0.5696  0.1477  0.1748
  233MOL0     H30755   1.361   9.510   2.831 -0.1372 -1.0273  1.3153
  233MOL0     H30756   1.193   9.671   2.945  1.2783 -0.9197 -2.3789
  234MOL0     O30757  10.627   2.474   8.546 -0.7296  0.5484 -0.1087
  234MOL0     C30758  10.535   2.408   8.498 -0.1991  0.2286 -0.0668
  234MOL0     O30759  10.541   2.303   8.419 -0.1433  0.1460 -0.3596
  234MOL0     C30760  10.657   2.243   8.373  1.4985 -0.4213  0.1874
  234MOL0     C30761  10.791   2.287   8.395 -0.7242  0.2919  0.1870
  234MOL0     C30762  10.903   2.229   8.321 -0.0801 -0.4147 -0.7766
  234MOL0     C30763  10.880   2.121   8.237  0.3135  0.1008  0.5267
  234MOL0     O30764  10.988   2.071   8.168  0.1973 -0.2634 -0.1498
  234MOL0     C30765  10.981   1.940   8.114 -0.2007  1.2425 -0.0338
  234MOL0     C30766  11.128   1.897   8.080  0.5511  0.5478 -0.1223
  234MOL0     C30767  11.198   1.864   8.219 -0.4468  0.2471  0.0855
  234MOL0     C30768  11.337   1.796   8.201 -0.0579 -0.5288 -0.4375
  234MOL0     C30769  11.377   1.719   8.329 -0.8021  0.2983  0.6602
  234MOL0     C30770  11.525   1.704   8.334  0.7971  0.9885  0.4701
  234MOL0     C30771  11.565   1.590   8.441  0.4703 -0.1175  0.1898
  234MOL0     C30772  11.708   1.538   8.433 -0.4637  0.2260  0.8138
  234MOL0     N30773  11.729   1.437   8.529 -0.2790 -0.3780 -0.9829
  234MOL0     C30774  11.673   1.311   8.540  0.3072 -0.4037 -0.5005
  234MOL0     C30775  11.729   1.263   8.655  0.7074  0.0122 -1.4179
  234MOL0     C30776  11.712   1.122   8.710  1.0998  0.6335  1.2371
  234MOL0     C30777  11.698   1.120   8.866 -1.3548  0.0968  0.8056
  234MOL0     C30778  11.828   1.124   8.934  1.1655  0.1874 -0.2399
  234MOL0     C30779  11.806   1.087   9.081 -0.2125  0.5498 -0.0701
  234MOL0     O30780  11.918   1.014   9.133  0.3842  0.6030 -0.4447
  234MOL0     C30781  11.932   0.879   9.112  0.0833  0.9692 -0.4866
  234MOL0     C30782  12.038   0.814   9.173 -0.8978  1.3114 -0.3269
  234MOL0     C30783  12.074   0.682   9.154  0.0302 -0.0806  0.3628
  234MOL0     C30784  12.004   0.600   9.070  0.4104  0.1023 -0.1447
  234MOL0     C30785  12.048   0.472   9.035 -0.0376 -0.8589  0.3625
  234MOL0     O30786  12.153   0.428   9.097 -0.0249 -0.9957  0.2296
  234MOL0     C30787  12.197   0.299   9.078  0.4907 -0.2230 -0.0990
  234MOL0     C30788  12.302   0.274   9.005 -0.3880  1.1421 -0.6299
  234MOL0     C30789  12.373   0.150   9.017  0.4161  0.0288  0.1725
  234MOL0     C30790  12.312   0.039   9.075  0.5200 -0.0801  0.2596
  234MOL0     O30791  12.358  -0.093   9.079 -0.0160  0.6334  0.2878
  234MOL0     C30792  12.443  -0.143   8.975 -0.3471  0.8184  0.3733
  234MOL0     C30793  12.502  -0.276   9.022  0.0365 -0.0024 -0.8027
  234MOL0     C30794  12.615  -0.331   8.935 -0.0187  0.1418 -0.4095
  234MOL0     C30795  12.753  -0.282   8.965  0.3799 -0.2481 -0.7076
  234MOL0     C30796  12.868  -0.349   8.898  0.1406 -0.5492 -0.2310
  234MOL0     C30797  12.997  -0.280   8.938  0.0253  0.0830 -1.1888
  234MOL0     C30798  13.119  -0.359   8.908 -0.6344 -0.0390 -0.5665
  234MOL0     C30799  13.247  -0.272   8.907  0.1308  0.4831  0.0374
  234MOL0    Cl30800  13.396  -0.368   8.875 -0.2960 -0.2215  0.1505
  234MOL0     C30801  12.199   0.054   9.151  0.9590 -0.7569  0.4519
  234MOL0     C30802  12.133   0.187   9.150 -0.6037 -0.5841  0.0354
  234MOL0     O30803  11.994   0.410   8.944  0.0109  0.3209 -0.2482
  234MOL0     C30804  11.884   0.654   9.015  0.4107  0.0444 -0.2911
  234MOL0     C30805  11.846   0.793   9.039  0.1190  0.3755  0.8280
  234MOL0     N30806  11.824   1.354   8.702 -0.9224  0.7089 -0.1725
  234MOL0     N30807  11.821   1.457   8.630  0.5629  0.3777  0.5687
  234MOL0     C30808  10.744   2.078   8.207  0.0245 -0.7717 -0.0630
  234MOL0     C30809  10.639   2.136   8.289 -0.1318  0.8578 -0.3815
  234MOL0     C30810  10.399   2.458   8.537 -0.4148 -1.0348  0.2417
  234MOL0     C30811  10.279   2.383   8.525 -0.2304  0.0736  0.2369
  234MOL0     C30812  10.154   2.427   8.566 -0.5696 -0.8202  0.3130
  234MOL0     C30813  10.150   2.564   8.605  0.5446  0.3038  0.7751
  234MOL0     O30814  10.028   2.607   8.663 -0.3024 -0.5502 -0.4326
  234MOL0     C30815   9.919   2.635   8.575  0.9825  0.4550  0.4574
  234MOL0     C30816   9.791   2.583   8.631  0.6872  0.4470 -0.2231
  234MOL0     C30817   9.809   2.437   8.677 -1.1330  0.3846  0.1491
  234MOL0     C30818   9.672   2.390   8.730 -0.4561  0.6661 -0.9083
  234MOL0     C30819   9.622   2.457   8.855 -0.2138  0.7863  0.1264
  234MOL0     C30820   9.575   2.509   8.952  0.4617 -1.5987  0.5829
  234MOL0     C30821  10.266   2.643   8.618  0.4438 -0.6576  0.1968
  234MOL0     C30822  10.386   2.586   8.590 -0.8256 -0.7036 -0.4391
  234MOL0     H30823  10.819   2.365   8.465  0.0466  2.2140 -2.0834
  234MOL0     H30824  10.999   2.280   8.323 -0.8953  1.1961  1.0831
  234MOL0     H30825  10.920   1.939   8.023  0.4927  2.5478 -0.5345
  234MOL0     H30826  10.941   1.870   8.188 -1.1310 -1.7179 -3.1361
  234MOL0     H30827  11.180   1.977   8.028  0.5852  0.0084 -0.9286
  234MOL0     H30828  11.130   1.809   8.015  3.3458 -0.0962  0.6670
  234MOL0     H30829  11.133   1.794   8.273 -2.0456 -0.1502 -2.1889
  234MOL0     H30830  11.222   1.952   8.280  0.3562  1.3526 -1.7512
  234MOL0     H30831  11.344   1.727   8.117  1.1606 -0.2215 -0.6042
  234MOL0     H30832  11.412   1.875   8.190  0.7765 -1.1557  0.5743
  234MOL0     H30833  11.330   1.620   8.323 -2.2382  0.8456  2.0670
  234MOL0     H30834  11.334   1.764   8.419 -0.5629  0.9722  0.4449
  234MOL0     H30835  11.572   1.802   8.351  0.4824  1.4743 -1.2832
  234MOL0     H30836  11.547   1.662   8.236  0.5823  3.0612 -0.5301
  234MOL0     H30837  11.551   1.623   8.544  0.9670  1.3541 -0.1759
  234MOL0     H30838  11.502   1.506   8.410 -0.5717  0.9844 -0.7832
  234MOL0     H30839  11.788   1.612   8.442  1.7210 -1.9510  0.4613
  234MOL0     H30840  11.727   1.494   8.334  1.9623  0.5711  1.0583
  234MOL0     H30841  11.596   1.263   8.479  1.0288 -1.8480 -0.3250
  234MOL0     H30842  11.796   1.064   8.672 -0.6488 -0.6555 -0.9353
  234MOL0     H30843  11.617   1.084   8.672  1.5189  0.4870  0.3152
  234MOL0     H30844  11.645   1.026   8.883  1.7208 -1.5127  2.1153
  234MOL0     H30845  11.645   1.208   8.904 -0.7888  0.9547 -0.3313
  234MOL0     H30846  11.895   1.052   8.887  0.5162  0.4073 -1.5710
  234MOL0     H30847  11.872   1.224   8.930  3.4375 -0.7607  0.0066
  234MOL0     H30848  11.714   1.029   9.091 -0.3748  0.6145 -1.0890
  234MOL0     H30849  11.784   1.178   9.138 -1.6590  1.4567 -1.9601
  234MOL0     H30850  12.106   0.865   9.240  1.7237 -1.6567 -0.5141
  234MOL0     H30851  12.162   0.656   9.212 -0.9435 -1.6589  1.2185
  234MOL0     H30852  12.337   0.368   8.963 -2.5196  4.3688  3.8751
  234MOL0     H30853  12.462   0.150   8.955 -0.2985 -0.5675 -0.9022
  234MOL0     H30854  12.530  -0.087   8.940  0.4178 -1.3870 -1.5291
  234MOL0     H30855  12.393  -0.166   8.880  1.1273 -1.5844  0.0785
  234MOL0     H30856  12.418  -0.345   9.029  0.3874 -0.4078 -0.5906
  234MOL0     H30857  12.539  -0.275   9.124 -2.3226 -2.4380  0.1892
  234MOL0     H30858  12.594  -0.324   8.828 -0.6453  2.1719 -0.1955
  234MOL0     H30859  12.627  -0.439   8.948  1.1203  0.3197  0.1724
  234MOL0     H30860  12.747  -0.177   8.938  1.1603  0.1243  0.4895
  234MOL0     H30861  12.768  -0.285   9.074  1.7017 -0.3143 -0.8790
  234MOL0     H30862  12.855  -0.338   8.790 -0.5711  0.5673 -0.0598
  234MOL0     H30863  12.873  -0.456   8.919  0.4621 -0.0522  2.5176
  234MOL0     H30864  12.991  -0.265   9.046 -3.3269 -3.5076 -0.6369
  234MOL0     H30865  12.990  -0.185   8.885 -0.2656 -0.0434 -1.3817
  234MOL0     H30866  13.134  -0.447   8.972 -2.8243  0.0981  0.2015
  234MOL0     H30867  13.109  -0.401   8.807  3.7018 -1.0305 -0.7799
  234MOL0     H30868  13.251  -0.223   9.004 -1.0058 -0.3138  0.5146
  234MOL0     H30869  13.247  -0.197   8.828  1.3008 -0.1233 -0.5634
  234MOL0     H30870  12.137  -0.028   9.186 -2.0383  0.5678 -1.3989
  234MOL0     H30871  12.044   0.195   9.213  0.4794  1.8239  1.4084
  234MOL0     H30872  11.804   0.598   8.967 -0.6243  2.1870 -1.2301
  234MOL0     H30873  11.752   0.836   9.005 -1.4527 -2.3121  1.4134
  234MOL0     H30874  10.707   2.003   8.138 -2.4767  0.7775 -0.5266
  234MOL0     H30875  10.539   2.096   8.274  0.6178 -0.0121 -4.2792
  234MOL0     H30876  10.293   2.280   8.491 -0.6706  0.1242 -0.1035
  234MOL0     H30877  10.071   2.359   8.576  2.2445 -4.5448  0.2761
  234MOL0     H30878   9.935   2.581   8.482 -0.6598 -0.9799  0.9545
  234MOL0     H30879   9.910   2.740   8.544 -2.2124  0.6438  1.6068
  234MOL0     H30880   9.752   2.637   8.717 -1.4566 -3.4142  1.4772
  234MOL0     H30881   9.727   2.596   8.543  4.0295 -0.5040 -3.0318
  234MOL0     H30882   9.886   2.421   8.753 -1.2213 -2.1034 -0.1934
  234MOL0     H30883   9.850   2.374   8.598  0.9475  1.1154  0.5788
  234MOL0     H30884   9.613   2.409   8.639  1.3265  2.7594 -1.7194
  234MOL0     H30885   9.686   2.287   8.761  0.3148  1.4688  1.6375
  234MOL0     H30886   9.523   2.573   9.020 -0.7673  0.3809 -2.0419
  234MOL0     H30887  10.259   2.743   8.659  0.8325 -1.5269  2.5080
  234MOL0     H30888  10.469   2.649   8.620 -2.0174  0.6659  0.1053
  235MOL0     O30889   5.505   7.520  10.333 -0.2564  0.1895 -0.0894
  235MOL0     C30890   5.416   7.564  10.404  0.6978 -0.1082 -0.0096
  235MOL0     O30891   5.393   7.697  10.429  0.2191  0.1782  0.9390
  235MOL0     C30892   5.478   7.791  10.369  0.2113  0.1171 -0.0652
  235MOL0     C30893   5.405   7.894  10.311 -0.4375  0.6154 -0.4907
  235MOL0     C30894   5.479   7.992  10.229  0.2444 -0.9946 -1.2496
  235MOL0     C30895   5.617   7.991  10.228  0.0143  0.1024 -0.5153
  235MOL0     O30896   5.701   8.071  10.150 -0.7932 -0.5323 -0.2748
  235MOL0     C30897   5.762   8.036  10.033 -0.4222  0.2975 -0.1920
  235MOL0     C30898   5.881   8.122  10.017  0.4895 -0.1685 -0.2345
  235MOL0     C30899   5.952   8.106   9.885  0.7737 -0.6075  0.0244
  235MOL0     C30900   6.038   7.977   9.873 -0.5753  1.2551  0.4823
  235MOL0     C30901   6.093   7.950   9.735 -0.5498  0.5825 -0.5413
  235MOL0     C30902   6.244   7.949   9.733 -1.1680  0.5075  1.1817
  235MOL0     C30903   6.308   8.085   9.767  0.6955 -0.2508  0.3366
  235MOL0     C30904   6.458   8.104   9.737 -0.2472  0.9083 -0.5773
  235MOL0     N30905   6.552   8.007   9.799 -0.4277 -0.3280  0.2437
  235MOL0     C30906   6.561   7.963   9.928 -0.4683 -0.2502  0.3435
  235MOL0     C30907   6.655   7.863   9.931 -0.8141 -1.1010  0.7446
  235MOL0     C30908   6.699   7.800  10.070  1.5140  0.3091 -0.3104
  235MOL0     C30909   6.669   7.649  10.074 -0.3021 -0.0940  0.2787
  235MOL0     C30910   6.558   7.607  10.168 -1.1482 -0.9189  0.4797
  235MOL0     C30911   6.417   7.655  10.107 -0.4988 -1.2591 -0.3848
  235MOL0     O30912   6.336   7.658  10.231 -0.4109  0.7315 -0.0619
  235MOL0     C30913   6.278   7.776  10.279 -0.3793  0.8892 -0.1690
  235MOL0     C30914   6.288   7.903  10.217  0.2489 -1.0399  0.4911
  235MOL0     C30915   6.198   8.004  10.259 -0.0319  0.0462  0.0519
  235MOL0     C30916   6.102   7.989  10.364 -0.5581  1.2807  0.9339
  235MOL0     C30917   6.023   8.103  10.407 -0.0107  0.4292 -0.0696
  235MOL0     O30918   6.075   8.235  10.386  0.8356  0.2339 -0.9586
  235MOL0     C30919   5.985   8.334  10.422 -0.0242  0.9408  0.4564
  235MOL0     C30920   6.003   8.392  10.547 -0.3985 -0.1507 -0.3342
  235MOL0     C30921   5.914   8.490  10.589  1.8798 -0.2001 -0.4902
  235MOL0     C30922   5.792   8.526  10.516 -0.2781  0.4029 -0.0382
  235MOL0     O30923   5.717   8.633  10.559  0.0944 -0.3814  0.5200
  235MOL0     C30924   5.636   8.697  10.457 -0.1036 -1.0402 -0.2854
  235MOL0     C30925   5.592   8.832  10.529  0.0660  0.3246  0.4901
  235MOL0     C30926   5.478   8.880  10.440 -0.8252 -0.0506  0.3220
  235MOL0     C30927   5.412   9.011  10.487  0.7179 -0.2928 -0.8431
  235MOL0     C30928   5.290   9.043  10.401  0.0902 -0.3174 -0.5477
  235MOL0     C30929   5.220   9.167  10.463  0.7677 -0.6157  0.6288
  235MOL0     C30930   5.121   9.237  10.375 -0.4439  0.1730  0.7519
  235MOL0     C30931   5.112   9.385  10.412  0.2569  0.5926  0.0556
  235MOL0    Cl30932   5.119   9.416  10.591  0.4477 -0.4298 -0.3905
  235MOL0     C30933   5.776   8.452  10.391 -0.1241  0.6520  0.0575
  235MOL0     C30934   5.866   8.358  10.345 -0.5814  0.1047 -0.4408
  235MOL0     O30935   5.925   8.081  10.474 -0.2605  0.0774  0.5541
  235MOL0     C30936   6.116   7.873  10.439 -0.6356 -0.2691 -0.7402
  235MOL0     C30937   6.195   7.766  10.390  0.6319 -1.2719  0.2347
  235MOL0     N30938   6.705   7.848   9.805  0.1838 -0.5916  0.8011
  235MOL0     N30939   6.634   7.925   9.728  0.6862  0.1356 -0.0787
  235MOL0     C30940   5.683   7.890  10.296  0.6409 -0.2140 -0.2768
  235MOL0     C30941   5.620   7.797  10.378 -1.0996  0.1613  0.1805
  235MOL0     C30942   5.327   7.482  10.474  1.2128  0.6009 -0.3555
  235MOL0     C30943   5.200   7.535  10.517  0.4061 -0.2280  0.7143
  235MOL0     C30944   5.108   7.456  10.588 -0.1619  0.0926 -0.4621
  235MOL0     C30945   5.134   7.321  10.620  0.0410  0.3515 -0.1875
  235MOL0     O30946   5.040   7.246  10.678  0.1737 -0.1566  0.1372
  235MOL0     C30947   4.964   7.304  10.786 -0.3728  1.1742 -0.3996
  235MOL0     C30948   4.934   7.188  10.888  0.5148  0.0620 -0.1730
  235MOL0     C30949   4.844   7.237  11.005  0.2482 -0.7591 -0.1153
  235MOL0     C30950   4.690   7.224  10.974  0.1359  0.5217 -0.4349
  235MOL0     C30951   4.631   7.355  10.931 -0.6335 -0.8614  1.1246
  235MOL0     C30952   4.584   7.465  10.902  0.0048 -0.4030  0.4499
  235MOL0     C30953   5.252   7.273  10.576  0.1108 -0.4513 -0.8604
  235MOL0     C30954   5.343   7.347  10.504 -0.1870 -0.1975 -0.3384
  235MOL0     H30955   5.298   7.908  10.299  0.0308  2.9589 -2.9510
  235MOL0     H30956   5.429   8.071  10.174  0.9660  1.4198  1.3147
  235MOL0     H30957   5.693   8.043   9.948 -1.2702 -2.2846  0.1769
  235MOL0     H30958   5.797   7.932  10.028  4.5048  1.3987  3.7508
  235MOL0     H30959   5.961   8.101  10.089  1.7868 -0.2434 -1.6481
  235MOL0     H30960   5.857   8.228  10.032 -0.8365 -0.6390  1.2196
  235MOL0     H30961   6.030   8.183   9.884 -0.8058  1.0836  1.2218
  235MOL0     H30962   5.887   8.112   9.797  1.4119 -0.1961 -0.4309
  235MOL0     H30963   6.121   7.970   9.944  0.6823 -0.4046 -1.0345
  235MOL0     H30964   5.977   7.891   9.903 -1.7522  2.2396  0.9761
  235MOL0     H30965   6.052   8.016   9.658  1.4196 -0.6835 -2.7945
  235MOL0     H30966   6.063   7.848   9.710  0.5885  0.5566 -1.9764
  235MOL0     H30967   6.285   7.917   9.637 -0.7465 -2.5237  2.2532
  235MOL0     H30968   6.275   7.875   9.808 -0.4028 -0.4045  0.0089
  235MOL0     H30969   6.243   8.163   9.726  1.0732 -0.4301 -0.6435
  235MOL0     H30970   6.293   8.112   9.872 -1.1182 -1.2400  0.3643
  235MOL0     H30971   6.477   8.210   9.760 -0.9769  1.0169 -0.4331
  235MOL0     H30972   6.475   8.100   9.629  1.6722 -1.5266 -0.2658
  235MOL0     H30973   6.510   8.015  10.008  0.2205  0.4056  0.3693
  235MOL0     H30974   6.649   7.839  10.159  3.6078  0.6199  0.7777
  235MOL0     H30975   6.804   7.824  10.086  1.6786  1.3377 -2.5902
  235MOL0     H30976   6.763   7.596  10.090 -0.5144 -0.9733 -1.2128
  235MOL0     H30977   6.647   7.605   9.976 -1.0900 -1.1989  0.9171
  235MOL0     H30978   6.558   7.499  10.189 -1.6685 -1.4149 -1.7272
  235MOL0     H30979   6.577   7.653  10.265 -0.1451 -0.2138 -0.0395
  235MOL0     H30980   6.369   7.587  10.035  1.3918 -2.6600 -0.3927
  235MOL0     H30981   6.425   7.753  10.060  1.1103 -1.2815 -0.2089
  235MOL0     H30982   6.342   7.943  10.131 -0.0473  0.6924  1.0783
  235MOL0     H30983   6.190   8.097  10.204 -3.5105 -0.1151  0.0659
  235MOL0     H30984   6.082   8.374  10.619  0.4575 -1.0296 -1.4509
  235MOL0     H30985   5.932   8.535  10.686 -2.2350  0.1583  0.3005
  235MOL0     H30986   5.552   8.640  10.416 -0.0918 -1.3422  0.1027
  235MOL0     H30987   5.701   8.730  10.376  0.9958  3.6026  2.1220
  235MOL0     H30988   5.656   8.921  10.534 -0.3034  0.7562 -1.3750
  235MOL0     H30989   5.548   8.811  10.627  1.7569  3.0055  1.9437
  235MOL0     H30990   5.404   8.800  10.438  0.2021 -1.0715  1.3443
  235MOL0     H30991   5.517   8.885  10.338 -2.3599 -0.1602 -0.2913
  235MOL0     H30992   5.380   9.008  10.592 -0.0432 -2.5779 -1.0912
  235MOL0     H30993   5.489   9.088  10.494 -0.6876  0.9734  3.1244
  235MOL0     H30994   5.222   8.957  10.397 -1.8744  0.9088  2.6994
  235MOL0     H30995   5.320   9.057  10.297 -1.4842  0.6322 -0.9116
  235MOL0     H30996   5.290   9.242  10.501 -0.7224  1.7644 -1.0107
  235MOL0     H30997   5.159   9.141  10.549  1.9763 -1.2983  1.3106
  235MOL0     H30998   5.158   9.237  10.273  0.5680 -2.3201  1.0468
  235MOL0     H30999   5.032   9.173  10.367 -2.4673  3.0732 -3.2569
  235MOL0     H31000   5.029   9.431  10.357 -0.8281 -0.8490  0.4378
  235MOL0     H31001   5.200   9.434  10.368  0.6542 -2.1320 -2.4497
  235MOL0     H31002   5.685   8.461  10.333 -0.0198 -1.4547 -0.4922
  235MOL0     H31003   5.856   8.301  10.254  2.2157 -1.1029 -0.0945
  235MOL0     H31004   6.066   7.871  10.535 -0.9031 -0.1850 -0.8785
  235MOL0     H31005   6.201   7.680  10.455  2.5892 -3.5388 -2.6382
  235MOL0     H31006   5.792   7.889  10.287  0.9598  2.9055  1.7215
  235MOL0     H31007   5.686   7.723  10.421  2.1756  1.3727 -2.4085
  235MOL0     H31008   5.165   7.630  10.476  1.8596  0.1190  0.2413
  235MOL0     H31009   5.015   7.499  10.625  0.0041 -0.8635  1.1872
  235MOL0     H31010   4.871   7.339  10.741  0.7052  1.4110 -2.5534
  235MOL0     H31011   5.026   7.381  10.833  1.6803  1.3146 -3.0778
  235MOL0     H31012   4.880   7.114  10.829 -0.3994  0.5776 -0.0154
  235MOL0     H31013   5.021   7.134  10.925 -1.8922 -4.1836 -0.1213
  235MOL0     H31014   4.860   7.341  11.033 -2.2665  0.1823 -1.8088
  235MOL0     H31015   4.866   7.172  11.091  0.3205  1.5623  1.7312
  235MOL0     H31016   4.672   7.141  10.904  3.7551  0.5237 -1.5480
  235MOL0     H31017   4.639   7.197  11.067 -1.7047  6.2871  0.6376
  235MOL0     H31018   4.540   7.560  10.876 -1.2477 -0.5861  1.7587
  235MOL0     H31019   5.272   7.172  10.612  2.5467  0.6797  1.3400
  235MOL0     H31020   5.432   7.289  10.482  0.2971  0.5876 -0.4865
  236MOL0     O31021   7.276   8.244   5.473 -0.2702 -0.2580 -0.1725
  236MOL0     C31022   7.365   8.214   5.394  0.1472  0.1004 -0.9984
  236MOL0     O31023   7.427   8.296   5.301  0.1401 -0.1156 -0.2739
  236MOL0     C31024   7.416   8.430   5.287  0.8600 -0.4275  0.3723
  236MOL0     C31025   7.521   8.507   5.264  0.0844 -0.3857  0.8598
  236MOL0     C31026   7.508   8.643   5.245  0.9343 -1.0052  0.4093
  236MOL0     C31027   7.380   8.711   5.241 -0.5807 -0.1358  0.6620
  236MOL0     O31028   7.367   8.844   5.225 -0.7614  0.0798  0.1146
  236MOL0     C31029   7.258   8.923   5.250 -0.2473  0.7110  0.4165
  236MOL0     C31030   7.303   9.067   5.277 -0.1629 -0.1413  0.3727
  236MOL0     C31031   7.217   9.182   5.226 -0.1529 -0.0190  0.2467
  236MOL0     C31032   7.067   9.162   5.265 -1.4410 -0.0508 -0.2806
  236MOL0     C31033   6.998   9.285   5.210 -0.5312 -0.3840  0.5671
  236MOL0     C31034   6.837   9.280   5.226 -0.1559  0.3206 -0.0852
  236MOL0     C31035   6.770   9.249   5.352  0.1604  0.1860  0.1314
  236MOL0     C31036   6.617   9.267   5.319 -0.2223  0.0977  0.9918
  236MOL0     N31037   6.562   9.148   5.250  0.0382  0.5919  0.1318
  236MOL0     C31038   6.532   9.028   5.307  0.2584  0.4730 -0.0130
  236MOL0     C31039   6.464   8.947   5.213 -0.1548 -0.2432  0.7110
  236MOL0     C31040   6.407   8.805   5.226 -0.5441 -0.2740  0.1901
  236MOL0     C31041   6.261   8.796   5.182  0.5438 -1.7046 -0.1364
  236MOL0     C31042   6.228   8.653   5.141  0.7518  0.2676 -0.9607
  236MOL0     C31043   6.255   8.550   5.258  0.3029  0.6357  0.5917
  236MOL0     O31044   6.204   8.424   5.207  0.1661  0.1732  0.2692
  236MOL0     C31045   6.252   8.307   5.249 -0.0430 -0.2279 -0.5539
  236MOL0     C31046   6.222   8.199   5.161 -0.7681 -0.9945 -0.2195
  236MOL0     C31047   6.252   8.070   5.199  0.9698 -0.5791  0.3177
  236MOL0     C31048   6.318   8.038   5.326  0.7377  0.6538 -0.4553
  236MOL0     C31049   6.363   7.905   5.372  0.2934 -0.2701 -0.6633
  236MOL0     O31050   6.416   7.823   5.274 -0.4589 -0.3912 -0.2979
  236MOL0     C31051   6.461   7.706   5.327  0.1718 -0.0232  0.1464
  236MOL0     C31052   6.406   7.607   5.416 -0.4098 -0.3860 -0.0016
  236MOL0     C31053   6.471   7.482   5.438 -0.4328  0.1258 -0.3011
  236MOL0     C31054   6.580   7.442   5.360 -0.0201  0.4135 -1.0158
  236MOL0     O31055   6.646   7.311   5.365 -0.2100  0.5615 -0.1892
  236MOL0     C31056   6.591   7.213   5.450 -0.2802  0.1881  0.9096
  236MOL0     C31057   6.662   7.080   5.427 -0.3262 -0.3517 -0.0198
  236MOL0     C31058   6.667   7.010   5.564  0.2707 -0.2988 -0.0337
  236MOL0     C31059   6.529   6.987   5.624  0.6264  0.5644  1.2549
  236MOL0     C31060   6.551   6.905   5.753  0.3704  0.1594  0.1891
  236MOL0     C31061   6.423   6.879   5.836 -0.0709 -0.7665 -0.2825
  236MOL0     C31062   6.442   6.886   5.985  0.4751 -0.8258 -1.1113
  236MOL0     C31063   6.305   6.886   6.059  0.7459 -0.3498 -0.0544
  236MOL0    Cl31064   6.345   6.887   6.234 -0.0923 -0.0359 -0.2259
  236MOL0     C31065   6.639   7.537   5.282  0.0288 -0.1267 -0.1796
  236MOL0     C31066   6.576   7.661   5.263  0.0643 -0.5329 -0.2540
  236MOL0     O31067   6.376   7.886   5.495  0.1896  0.2706  0.0212
  236MOL0     C31068   6.330   8.149   5.418 -0.1012  0.2757 -0.1197
  236MOL0     C31069   6.294   8.282   5.376 -0.1774  0.1109 -0.0554
  236MOL0     N31070   6.474   9.019   5.091  0.0788 -0.5183 -0.3110
  236MOL0     N31071   6.534   9.137   5.111 -0.2672  0.2537  0.2532
  236MOL0     C31072   7.274   8.633   5.267  0.6571  0.1561 -0.0422
  236MOL0     C31073   7.290   8.497   5.288  0.2406  0.4886  0.0621
  236MOL0     C31074   7.396   8.071   5.406  0.1135 -0.2672 -0.7216
  236MOL0     C31075   7.333   7.978   5.494 -0.5443 -0.1767  0.6423
  236MOL0     C31076   7.371   7.844   5.496  0.3299  0.2095 -0.5327
  236MOL0     C31077   7.483   7.798   5.424  0.0938  0.5696  0.0931
  236MOL0     O31078   7.516   7.663   5.429 -0.5249  0.5030  0.3961
  236MOL0     C31079   7.654   7.618   5.409 -0.4539  0.0244  0.0651
  236MOL0     C31080   7.751   7.685   5.498  1.3877  0.1753  0.0765
  236MOL0     C31081   7.717   7.688   5.657  0.1026 -0.8694  1.1633
  236MOL0     C31082   7.696   7.826   5.714 -0.2077  0.0813 -0.5254
  236MOL0     C31083   7.820   7.901   5.701 -0.4170  0.3470  0.3558
  236MOL0     C31084   7.930   7.951   5.693  0.8627 -0.7964  0.7232
  236MOL0     C31085   7.554   7.890   5.342  0.0279  0.0892 -0.2707
  236MOL0     C31086   7.501   8.016   5.328 -0.6456 -0.7065  0.1599
  236MOL0     H31087   7.614   8.452   5.255  0.8137  0.7707  1.0912
  236MOL0     H31088   7.605   8.691   5.238  1.5459 -1.8241  2.4769
  236MOL0     H31089   7.194   8.889   5.332  0.0056  0.0024  0.3272
  236MOL0     H31090   7.199   8.935   5.158 -0.1441 -0.6914  0.1498
  236MOL0     H31091   7.398   9.081   5.225 -2.8262  3.3813 -4.2712
  236MOL0     H31092   7.304   9.075   5.386 -0.3509  1.3773  0.2753
  236MOL0     H31093   7.221   9.183   5.117  0.2512 -0.2997  0.2575
  236MOL0     H31094   7.247   9.277   5.270  0.7135 -0.1857  0.0415
  236MOL0     H31095   7.017   9.070   5.234 -0.3398  0.2101 -3.0527
  236MOL0     H31096   7.049   9.168   5.373  3.4714  4.0208  0.7296
  236MOL0     H31097   7.022   9.313   5.107 -2.1612 -2.2607 -0.3947
  236MOL0     H31098   7.036   9.369   5.269 -1.9766  1.3416 -0.8473
  236MOL0     H31099   6.793   9.207   5.158 -0.6795  0.5745 -0.0282
  236MOL0     H31100   6.810   9.381   5.191  1.5803  0.7972 -0.1477
  236MOL0     H31101   6.792   9.151   5.395  0.6367  0.6944  1.0959
  236MOL0     H31102   6.797   9.327   5.425 -0.6365  0.9201 -0.3422
  236MOL0     H31103   6.594   9.356   5.260  1.3537 -1.2457 -1.8112
  236MOL0     H31104   6.557   9.286   5.409 -1.3568  2.4116 -0.1615
  236MOL0     H31105   6.547   8.984   5.405 -1.3801 -1.3921 -0.5231
  236MOL0     H31106   6.411   8.771   5.330 -1.9252  0.0674  0.3769
  236MOL0     H31107   6.466   8.733   5.170 -1.5306 -3.0854  2.4927
  236MOL0     H31108   6.257   8.859   5.093  0.9889  1.7717  2.0978
  236MOL0     H31109   6.197   8.844   5.257  0.8863  0.4680 -1.1740
  236MOL0     H31110   6.125   8.653   5.104  1.1595 -1.8204 -2.2224
  236MOL0     H31111   6.288   8.600   5.066 -0.0086 -1.4283 -0.4125
  236MOL0     H31112   6.196   8.573   5.347 -1.1258  0.5176 -0.2989
  236MOL0     H31113   6.362   8.542   5.279  0.5408 -1.5322 -1.0934
  236MOL0     H31114   6.190   8.228   5.061 -0.9160  0.5612  0.2607
  236MOL0     H31115   6.227   7.985   5.137 -0.9093 -1.6070  2.3545
  236MOL0     H31116   6.305   7.626   5.453  0.1622  3.0010  0.1058
  236MOL0     H31117   6.413   7.406   5.489 -0.0352 -1.3674 -1.9654
  236MOL0     H31118   6.483   7.200   5.435 -0.1892 -0.7177  0.9651
  236MOL0     H31119   6.603   7.233   5.557  2.1293 -1.0859  0.9596
  236MOL0     H31120   6.762   7.087   5.383 -0.0352  0.3511  0.7347
  236MOL0     H31121   6.593   7.018   5.369  2.0793 -1.7260 -1.5659
  236MOL0     H31122   6.731   7.054   5.641  0.6037 -3.2793  1.5417
  236MOL0     H31123   6.713   6.914   5.538 -0.8736 -0.4646 -1.5415
  236MOL0     H31124   6.468   7.074   5.650 -2.4065 -1.1627  0.3554
  236MOL0     H31125   6.470   6.931   5.552  3.0284 -1.5302  0.7832
  236MOL0     H31126   6.625   6.956   5.815  0.4487  0.0600  0.1790
  236MOL0     H31127   6.591   6.805   5.731 -1.7632 -1.1246  1.6940
  236MOL0     H31128   6.381   6.779   5.818 -2.3209 -0.1974  1.4061
  236MOL0     H31129   6.340   6.947   5.815 -2.0158 -3.0202 -0.4330
  236MOL0     H31130   6.500   6.804   6.029  1.5224 -0.4421 -1.7274
  236MOL0     H31131   6.511   6.969   6.002  0.8003 -1.5858  1.8456
  236MOL0     H31132   6.253   6.790   6.051 -1.3972  0.3715  3.0831
  236MOL0     H31133   6.238   6.967   6.029  0.5290 -0.5875 -0.2109
  236MOL0     H31134   6.733   7.515   5.232  1.5708  2.8311  1.1259
  236MOL0     H31135   6.633   7.735   5.207 -3.4326  1.0233 -2.0451
  236MOL0     H31136   6.360   8.134   5.521 -0.3937 -0.4245 -0.1312
  236MOL0     H31137   6.295   8.359   5.452  0.3640  2.5794 -2.4265
  236MOL0     H31138   7.175   8.678   5.270 -0.1972 -1.6348 -0.0239
  236MOL0     H31139   7.209   8.427   5.300  0.2842 -0.3337 -3.4743
  236MOL0     H31140   7.256   8.007   5.564 -2.3149  3.8730 -2.5649
  236MOL0     H31141   7.313   7.778   5.560 -0.2338  1.1405 -0.0574
  236MOL0     H31142   7.693   7.613   5.306  1.3361  1.4582  0.6209
  236MOL0     H31143   7.654   7.515   5.446 -1.9931  0.8989  2.7599
  236MOL0     H31144   7.852   7.646   5.485  0.3090 -2.4102 -1.4307
  236MOL0     H31145   7.764   7.785   5.457  0.0613  2.6946  4.9794
  236MOL0     H31146   7.801   7.637   5.705  2.5686 -0.5377 -2.3630
  236MOL0     H31147   7.629   7.625   5.671  1.3470 -3.2099 -0.8688
  236MOL0     H31148   7.615   7.882   5.667  0.9904  3.1357  0.7646
  236MOL0     H31149   7.687   7.826   5.823  3.6550  2.5170 -0.0048
  236MOL0     H31150   8.023   7.998   5.668 -0.7885  1.6946 -1.2441
  236MOL0     H31151   7.635   7.862   5.275 -1.1566 -3.5064 -0.3958
  236MOL0     H31152   7.556   8.083   5.262 -4.0970 -0.0455 -2.3026
  237MOL0     O31153   8.388   5.447   6.278  0.1847 -0.0947 -0.8680
  237MOL0     C31154   8.277   5.400   6.315  0.0960  0.7531  1.0062
  237MOL0     O31155   8.253   5.344   6.442 -0.9202 -0.7904  0.2619
  237MOL0     C31156   8.342   5.333   6.542 -0.5071 -0.3619 -0.6508
  237MOL0     C31157   8.276   5.323   6.662 -0.2020  1.3190  0.6911
  237MOL0     C31158   8.341   5.300   6.779 -0.5608 -0.1502  0.2871
  237MOL0     C31159   8.485   5.291   6.778 -0.4100  0.0968 -1.0934
  237MOL0     O31160   8.565   5.296   6.891  0.3229  0.4768  0.3804
  237MOL0     C31161   8.535   5.212   7.007  0.5095 -0.6153  0.5502
  237MOL0     C31162   8.657   5.223   7.102  0.5955  0.1786  0.1635
  237MOL0     C31163   8.638   5.164   7.240  0.2464 -0.7937 -0.8331
  237MOL0     C31164   8.726   5.224   7.360  0.0272  0.4521 -0.2363
  237MOL0     C31165   8.785   5.125   7.465 -0.2341  0.4144  0.1939
  237MOL0     C31166   8.676   5.042   7.543 -0.0250  0.3240 -0.3155
  237MOL0     C31167   8.737   5.007   7.687  0.3315  0.3139 -0.0973
  237MOL0     C31168   8.633   4.947   7.782 -0.3462 -0.7907 -0.4003
  237MOL0     N31169   8.667   4.957   7.927 -0.0006 -0.0997 -0.1534
  237MOL0     C31170   8.781   4.996   7.990  0.2477 -0.7460  0.0702
  237MOL0     C31171   8.760   4.978   8.125 -0.7477 -0.5825  0.1439
  237MOL0     C31172   8.861   5.023   8.229 -0.4204  0.0734 -0.4643
  237MOL0     C31173   8.798   5.037   8.373  0.4455  0.5569  0.4319
  237MOL0     C31174   8.759   4.902   8.440  0.2977 -0.1057  0.4421
  237MOL0     C31175   8.890   4.837   8.518 -0.6057 -0.0047  1.0703
  237MOL0     O31176   8.907   4.923   8.627 -0.2838 -0.2730  0.2298
  237MOL0     C31177   8.979   4.874   8.731 -0.2420 -0.3765 -0.7915
  237MOL0     C31178   9.029   4.740   8.749  0.2877 -0.3688 -0.2503
  237MOL0     C31179   9.110   4.709   8.860  0.5640 -0.2246  0.4920
  237MOL0     C31180   9.140   4.804   8.957  0.4531 -0.0570  0.7225
  237MOL0     C31181   9.216   4.764   9.076 -0.5730  0.6863 -0.4716
  237MOL0     O31182   9.326   4.684   9.050 -0.2501 -0.2379  0.1504
  237MOL0     C31183   9.432   4.675   9.135  0.6292  0.2423  0.5304
  237MOL0     C31184   9.560   4.735   9.119 -0.0693 -0.3197  0.6251
  237MOL0     C31185   9.664   4.713   9.214 -1.2010  0.5713  0.1232
  237MOL0     C31186   9.645   4.632   9.324  0.1895 -1.3967  0.5861
  237MOL0     O31187   9.749   4.619   9.419  0.4480  0.8947  0.7690
  237MOL0     C31188   9.880   4.677   9.394  0.2180  0.6528 -0.3673
  237MOL0     C31189   9.896   4.817   9.446  0.4885  0.4877  0.1603
  237MOL0     C31190  10.019   4.889   9.383  0.5612  0.2651  0.6798
  237MOL0     C31191  10.042   5.027   9.437 -0.2389  0.3056 -0.3098
  237MOL0     C31192  10.171   5.083   9.376 -0.2704 -0.0387 -0.2245
  237MOL0     C31193  10.206   5.204   9.461  0.7005  0.7235  0.3704
  237MOL0     C31194  10.349   5.252   9.403 -0.3999 -0.2149  0.1112
  237MOL0     C31195  10.374   5.389   9.469 -0.2715 -0.0490 -0.0655
  237MOL0    Cl31196  10.317   5.514   9.353  0.0852 -0.1745  0.1107
  237MOL0     C31197   9.523   4.563   9.338 -0.6486 -1.0160  0.4212
  237MOL0     C31198   9.420   4.582   9.237 -0.3836  0.2508 -1.2496
  237MOL0     O31199   9.196   4.827   9.179  0.5403 -0.0990 -0.8069
  237MOL0     C31200   9.096   4.939   8.935  0.3706 -0.1461 -0.9179
  237MOL0     C31201   9.010   4.970   8.831 -0.6989 -0.0037  0.2314
  237MOL0     N31202   8.639   4.899   8.132  0.6926 -0.4096  0.7808
  237MOL0     N31203   8.584   4.882   8.015 -0.0254 -0.0519  0.2467
  237MOL0     C31204   8.552   5.317   6.655  0.9889  0.4926  0.5527
  237MOL0     C31205   8.484   5.334   6.536  0.2521  0.0378  0.5151
  237MOL0     C31206   8.173   5.380   6.206  0.0278  0.2897 -0.3734
  237MOL0     C31207   8.070   5.297   6.224  0.0098 -0.0276 -0.8731
  237MOL0     C31208   7.979   5.262   6.128  0.0211 -0.6835 -0.1883
  237MOL0     C31209   7.980   5.340   6.015  0.4682 -1.4965  1.0577
  237MOL0     O31210   7.896   5.314   5.908 -0.2207  0.0083  0.0602
  237MOL0     C31211   7.852   5.434   5.831 -0.2521 -0.4558  0.5550
  237MOL0     C31212   7.713   5.407   5.756 -0.0401  0.5277 -0.0018
  237MOL0     C31213   7.692   5.524   5.657 -0.2680 -0.1615  0.4726
  237MOL0     C31214   7.556   5.529   5.592  0.9915  0.6941  0.0867
  237MOL0     C31215   7.512   5.401   5.538 -0.3166  0.4127 -0.4408
  237MOL0     C31216   7.486   5.285   5.490  0.6463  0.0929 -0.0847
  237MOL0     C31217   8.090   5.423   5.992  0.2681  0.1337  0.3975
  237MOL0     C31218   8.183   5.449   6.090 -0.6453 -0.6540 -0.4688
  237MOL0     H31219   8.169   5.332   6.674 -0.3456 -1.8090  2.6823
  237MOL0     H31220   8.279   5.313   6.867  1.2379  3.0058  1.2203
  237MOL0     H31221   8.513   5.108   6.981 -0.1794 -0.5569  0.8968
  237MOL0     H31222   8.452   5.257   7.062 -0.4851 -1.5549 -0.1378
  237MOL0     H31223   8.682   5.330   7.107  0.4456  0.3538 -2.0510
  237MOL0     H31224   8.750   5.192   7.053  0.2581  2.8661 -2.4830
  237MOL0     H31225   8.659   5.057   7.224 -3.3629 -1.6164 -0.8176
  237MOL0     H31226   8.533   5.175   7.266  0.1522 -2.5332 -0.3286
  237MOL0     H31227   8.817   5.273   7.323  0.7380  3.1864  4.3112
  237MOL0     H31228   8.666   5.297   7.416 -1.4757 -2.3387  2.0914
  237MOL0     H31229   8.860   5.179   7.524  2.1151 -0.9734 -1.3495
  237MOL0     H31230   8.854   5.055   7.416  1.4036 -1.0122  4.1436
  237MOL0     H31231   8.631   4.957   7.492 -0.3138  0.1708  0.1906
  237MOL0     H31232   8.590   5.104   7.571 -2.6559 -4.5364  4.2375
  237MOL0     H31233   8.818   4.935   7.671 -0.2205  0.1437 -2.6307
  237MOL0     H31234   8.770   5.099   7.735 -0.2821 -1.1313  3.4202
  237MOL0     H31235   8.620   4.842   7.756  1.1479 -2.2221  3.6684
  237MOL0     H31236   8.543   5.007   7.765  0.7012  0.3704 -2.1557
  237MOL0     H31237   8.861   5.046   7.936 -1.6394  0.3622 -1.8931
  237MOL0     H31238   8.905   5.119   8.200  0.5722  0.1060  1.0551
  237MOL0     H31239   8.941   4.950   8.243 -0.6627 -0.0559  0.2871
  237MOL0     H31240   8.705   5.094   8.366 -1.6519 -2.7335 -0.5288
  237MOL0     H31241   8.864   5.099   8.435  0.8900 -0.8031  1.3488
  237MOL0     H31242   8.691   4.929   8.521  0.3249  2.1939 -0.2402
  237MOL0     H31243   8.711   4.834   8.368 -0.3440 -1.1842  1.8411
  237MOL0     H31244   8.981   4.842   8.459 -0.8265  0.9887  0.8018
  237MOL0     H31245   8.864   4.737   8.556  1.4918 -1.4996 -1.1521
  237MOL0     H31246   9.011   4.669   8.669  2.2829 -0.1275 -0.9771
  237MOL0     H31247   9.150   4.609   8.872  1.9098 -0.0057 -1.5549
  237MOL0     H31248   9.574   4.796   9.030  2.7725 -0.8835  0.5905
  237MOL0     H31249   9.766   4.744   9.195  1.2383 -5.7718  0.3443
  237MOL0     H31250   9.915   4.654   9.293 -1.1042 -0.0902 -0.6710
  237MOL0     H31251   9.945   4.615   9.456  0.4254  1.2107 -0.0116
  237MOL0     H31252   9.899   4.810   9.555 -2.0016  1.6139  0.3805
  237MOL0     H31253   9.804   4.872   9.421 -1.1793 -1.4739  1.6641
  237MOL0     H31254   9.988   4.901   9.279  0.7350 -2.2509  0.2787
  237MOL0     H31255  10.110   4.827   9.388  0.9409  0.9029  2.0094
  237MOL0     H31256   9.951   5.084   9.420 -0.7176  0.2014  1.6478
  237MOL0     H31257  10.047   5.021   9.546 -0.2444  1.1055 -0.2635
  237MOL0     H31258  10.150   5.123   9.276  0.1380  2.4770  0.6329
  237MOL0     H31259  10.248   5.007   9.362  1.2564  1.6185 -1.1743
  237MOL0     H31260  10.205   5.160   9.561  0.5296 -1.5446 -0.5597
  237MOL0     H31261  10.133   5.283   9.445  2.1611  2.1017  0.2053
  237MOL0     H31262  10.429   5.187   9.439 -1.5576 -2.1783 -0.6777
  237MOL0     H31263  10.356   5.252   9.294 -0.4293 -0.1251  0.1099
  237MOL0     H31264  10.480   5.412   9.482 -0.8093  1.4225  2.3444
  237MOL0     H31265  10.324   5.408   9.564 -1.2177  2.2599 -0.9641
  237MOL0     H31266   9.515   4.495   9.422 -0.8674 -3.1994 -1.3111
  237MOL0     H31267   9.333   4.519   9.222 -0.2050 -0.0699 -0.9619
  237MOL0     H31268   9.111   5.019   9.008 -1.6953  0.5311 -1.1583
  237MOL0     H31269   8.960   5.065   8.815 -1.7276 -0.9594 -2.8648
  237MOL0     H31270   8.660   5.313   6.640  0.5665  0.2565 -3.7080
  237MOL0     H31271   8.533   5.351   6.441  1.7585 -2.1587  0.8347
  237MOL0     H31272   8.055   5.242   6.317  0.0493 -1.3222 -1.6028
  237MOL0     H31273   7.897   5.193   6.140 -0.1948 -0.2023  1.3008
  237MOL0     H31274   7.922   5.476   5.758 -0.2640 -0.4097  0.5705
  237MOL0     H31275   7.857   5.525   5.891 -0.3554  0.1565 -0.3417
  237MOL0     H31276   7.727   5.312   5.704  1.5966  0.9367 -0.3925
  237MOL0     H31277   7.622   5.388   5.814 -1.1417  1.3337 -1.4105
  237MOL0     H31278   7.763   5.521   5.574 -1.0908 -1.9892 -0.2240
  237MOL0     H31279   7.714   5.621   5.700  1.2064 -1.4392  2.7609
  237MOL0     H31280   7.487   5.558   5.671  2.2214 -0.5711  1.6841
  237MOL0     H31281   7.553   5.602   5.510  1.6383 -0.1971 -0.7517
  237MOL0     H31282   7.455   5.193   5.443  0.9356  1.2695 -2.7959
  237MOL0     H31283   8.100   5.473   5.896 -1.7636  0.5983  0.3901
  237MOL0     H31284   8.259   5.524   6.069 -1.0837 -0.2735 -0.7207
  238MOL0     O31285   5.592   3.599   9.649 -0.3595 -0.1666 -0.2025
  238MOL0     C31286   5.716   3.605   9.662 -0.3849 -0.2530 -0.2944
  238MOL0     O31287   5.787   3.721   9.703  0.4910 -0.1388  0.9119
  238MOL0     C31288   5.716   3.841   9.723  0.2317 -0.3242 -0.0043
  238MOL0     C31289   5.753   3.924   9.825  0.1774  0.2722  0.2468
  238MOL0     C31290   5.686   4.050   9.838  0.1962 -0.0339  0.5447
  238MOL0     C31291   5.603   4.093   9.737 -0.4359 -0.3210 -0.0821
  238MOL0     O31292   5.563   4.229   9.744  0.7325  0.2664 -0.9399
  238MOL0     C31293   5.444   4.265   9.677 -0.4199 -0.7575 -0.4739
  238MOL0     C31294   5.416   4.408   9.713  0.5180 -0.1249 -0.5510
  238MOL0     C31295   5.334   4.409   9.838  1.1107 -0.0173 -0.1478
  238MOL0     C31296   5.327   4.553   9.888 -0.3090  0.6830 -0.2704
  238MOL0     C31297   5.217   4.563   9.992  0.0546 -0.4713 -0.3565
  238MOL0     C31298   5.194   4.704  10.056  0.1873  0.0742  0.1037
  238MOL0     C31299   5.094   4.696  10.176 -0.1341  0.1116 -0.0104
  238MOL0     C31300   5.079   4.812  10.266  0.0171 -0.6951  0.2949
  238MOL0     N31301   4.975   4.797  10.366 -0.2392 -0.4356 -0.6701
  238MOL0     C31302   5.006   4.764  10.501 -0.2863  0.2076  1.1894
  238MOL0     C31303   4.883   4.736  10.552 -0.5172 -0.1914  0.0730
  238MOL0     C31304   4.864   4.700  10.698  0.4693  0.4840  1.1955
  238MOL0     C31305   4.724   4.688  10.755  0.0684 -0.3080  0.3200
  238MOL0     C31306   4.644   4.824  10.745 -0.4677 -0.3612 -0.8150
  238MOL0     C31307   4.518   4.820  10.832  0.4363  0.5779 -0.0470
  238MOL0     O31308   4.463   4.946  10.825  0.9992 -0.7406  0.4940
  238MOL0     C31309   4.390   4.980  10.940 -0.4483  0.0748  0.5920
  238MOL0     C31310   4.270   4.917  10.972  0.0290  0.5929  1.0725
  238MOL0     C31311   4.193   4.953  11.078 -0.4763 -0.1507 -0.9187
  238MOL0     C31312   4.238   5.053  11.166 -1.2536 -0.1530 -0.6988
  238MOL0     C31313   4.152   5.096  11.280  0.9859 -0.9197 -0.6742
  238MOL0     O31314   4.027   5.039  11.300 -0.0305  0.2058 -0.3488
  238MOL0     C31315   3.948   5.053  11.415  0.4694  1.0750  0.3301
  238MOL0     C31316   3.817   4.999  11.411  0.0346  0.3616  0.2623
  238MOL0     C31317   3.724   5.014  11.513  0.2338 -0.4539 -0.3926
  238MOL0     C31318   3.764   5.054  11.640  0.5320  0.2234  0.1152
  238MOL0     O31319   3.680   5.047  11.747 -0.6804  0.0653 -0.3572
  238MOL0     C31320   3.551   5.097  11.744  0.7126 -1.0721  0.0173
  238MOL0     C31321   3.536   5.150  11.887 -0.2351  0.1200 -0.0274
  238MOL0     C31322   3.416   5.225  11.896  1.1128 -0.0302 -0.8851
  238MOL0     C31323   3.359   5.255  12.036 -0.1086 -0.4071  0.3764
  238MOL0     C31324   3.203   5.290  12.031 -1.1522  0.8199  0.5192
  238MOL0     C31325   3.130   5.279  12.177  0.0309  0.6341  0.8932
  238MOL0     C31326   2.982   5.306  12.167  0.2394  0.9837  0.0327
  238MOL0     C31327   2.908   5.175  12.122 -0.4967  0.0647  1.0718
  238MOL0    Cl31328   2.742   5.214  12.106 -0.1584 -0.5406  0.0357
  238MOL0     C31329   3.898   5.085  11.654  0.8470  0.2689 -0.4077
  238MOL0     C31330   3.988   5.092  11.545 -0.4512  0.6831 -0.3822
  238MOL0     O31331   4.199   5.179  11.356  0.1597  1.0156  0.2110
  238MOL0     C31332   4.367   5.114  11.135  0.0793  0.5961  0.0099
  238MOL0     C31333   4.446   5.074  11.024 -0.1848  0.6310  0.2552
  238MOL0     N31334   4.789   4.740  10.446 -0.3744  0.2105 -0.6608
  238MOL0     N31335   4.846   4.785  10.342  0.5221  0.0533  0.7919
  238MOL0     C31336   5.559   4.010   9.625  0.3674 -0.0438  0.7719
  238MOL0     C31337   5.613   3.883   9.631 -0.1074 -0.2114  0.0258
  238MOL0     C31338   5.791   3.477   9.626  0.0023 -0.7676 -0.5109
  238MOL0     C31339   5.931   3.475   9.641  1.1127  0.4912 -0.4943
  238MOL0     C31340   6.001   3.355   9.620 -0.4541  0.3280  0.7414
  238MOL0     C31341   5.937   3.240   9.564  0.1672 -0.5436  0.3862
  238MOL0     O31342   5.996   3.119   9.528  0.5601 -0.1722 -0.4027
  238MOL0     C31343   6.140   3.116   9.513  1.0785  0.3783 -0.2182
  238MOL0     C31344   6.184   3.199   9.393  0.0674  0.4835 -1.2631
  238MOL0     C31345   6.164   3.122   9.258  0.0124 -1.2572 -0.6975
  238MOL0     C31346   6.014   3.119   9.213 -0.5204  0.3524  0.0562
  238MOL0     C31347   5.996   3.019   9.110  0.6394  0.4872  0.2264
  238MOL0     C31348   5.996   2.949   9.016  0.7019  1.5636 -0.2266
  238MOL0     C31349   5.801   3.258   9.543  0.0726  0.1594  0.2825
  238MOL0     C31350   5.725   3.377   9.565  0.0842 -0.4162  0.7318
  238MOL0     H31351   5.817   3.878   9.900 -0.9531 -2.8238 -0.5344
  238MOL0     H31352   5.714   4.118   9.917 -1.3938  0.9093  0.3324
  238MOL0     H31353   5.365   4.195   9.704  1.1254 -2.7693 -0.9131
  238MOL0     H31354   5.474   4.270   9.572  2.1426  0.9783  0.2317
  238MOL0     H31355   5.359   4.463   9.638 -3.1770 -1.6531  0.8941
  238MOL0     H31356   5.507   4.467   9.726 -0.2059  1.0426 -0.5743
  238MOL0     H31357   5.386   4.352   9.915 -1.9098 -2.7641  0.0798
  238MOL0     H31358   5.232   4.377   9.813 -0.3210  2.5261  1.8660
  238MOL0     H31359   5.427   4.582   9.923 -0.6816 -2.5594  4.3410
  238MOL0     H31360   5.294   4.625   9.812  0.1201  4.9370  3.1685
  238MOL0     H31361   5.231   4.492  10.075 -1.0171 -1.8681 -1.3243
  238MOL0     H31362   5.122   4.530   9.949  0.3776 -2.4940  0.3497
  238MOL0     H31363   5.158   4.759   9.969 -1.3636 -3.2175 -1.5281
  238MOL0     H31364   5.292   4.737  10.092  1.2575 -1.9318 -0.7896
  238MOL0     H31365   4.996   4.675  10.134  0.3856  0.4349 -1.4400
  238MOL0     H31366   5.119   4.621  10.251 -0.9194 -0.3994 -0.2540
  238MOL0     H31367   5.057   4.905  10.212 -0.9579 -0.4020  1.1543
  238MOL0     H31368   5.174   4.819  10.320 -0.5102 -1.0813  1.2912
  238MOL0     H31369   5.106   4.759  10.544  0.6691  0.8335 -0.8317
  238MOL0     H31370   4.911   4.788  10.745  0.5653  1.2593 -0.2948
  238MOL0     H31371   4.916   4.606  10.717 -3.6678 -2.5835 -1.0976
  238MOL0     H31372   4.727   4.659  10.861 -1.5812 -2.7075 -0.1900
  238MOL0     H31373   4.670   4.603  10.712 -0.6717  0.1265  0.3725
  238MOL0     H31374   4.702   4.909  10.782 -0.1946  0.0566 -2.1417
  238MOL0     H31375   4.609   4.841  10.642 -2.1931  2.5788  0.1178
  238MOL0     H31376   4.523   4.785  10.936 -0.8459  0.5765  0.0402
  238MOL0     H31377   4.452   4.744  10.788 -1.2213  1.2106  1.2382
  238MOL0     H31378   4.225   4.848  10.901 -0.8680  1.7303  0.5120
  238MOL0     H31379   4.093   4.911  11.087 -1.9012  2.8354 -1.4549
  238MOL0     H31380   3.790   4.959  11.313  4.2198  2.4347 -2.0175
  238MOL0     H31381   3.620   4.998  11.487  0.4145 -0.0028 -1.4288
  238MOL0     H31382   3.476   5.020  11.722 -3.3336  2.2183  1.0607
  238MOL0     H31383   3.535   5.183  11.678 -2.5456 -1.0760  0.6292
  238MOL0     H31384   3.609   5.230  11.906 -1.0579  0.6061  1.2563
  238MOL0     H31385   3.550   5.081  11.971  1.5092  1.4930  0.8849
  238MOL0     H31386   3.342   5.168  11.838  1.6066 -0.9223 -0.6586
  238MOL0     H31387   3.416   5.325  11.853 -1.1258 -0.3397 -1.7813
  238MOL0     H31388   3.376   5.166  12.096  1.1646 -1.5315 -1.5331
  238MOL0     H31389   3.417   5.337  12.080  0.5920 -0.0492 -1.1316
  238MOL0     H31390   3.156   5.227  11.955 -1.6124  1.4740  0.2544
  238MOL0     H31391   3.185   5.391  11.993  0.5645  0.5834 -1.0220
  238MOL0     H31392   3.178   5.330  12.261  1.7632 -1.0105  0.9927
  238MOL0     H31393   3.151   5.175  12.203  1.0010  0.0835 -1.8010
  238MOL0     H31394   2.945   5.345  12.262 -2.5720  0.0191 -0.5671
  238MOL0     H31395   2.969   5.394  12.103 -0.0307  0.7125 -0.2849
  238MOL0     H31396   2.919   5.091  12.191  1.8197 -1.0340 -0.4852
  238MOL0     H31397   2.942   5.139  12.025  1.8990 -1.1309  2.2684
  238MOL0     H31398   3.942   5.092  11.752  1.7441 -1.8247 -0.6067
  238MOL0     H31399   4.088   5.129  11.569 -1.0142  1.2290  1.2965
  238MOL0     H31400   4.414   5.186  11.201  1.0734  2.4819 -2.5845
  238MOL0     H31401   4.544   5.113  10.999  0.9715 -2.4336 -0.3612
  238MOL0     H31402   5.492   4.036   9.543 -0.2000 -3.8675 -0.2057
  238MOL0     H31403   5.593   3.814   9.549  0.4618  1.5255 -1.6542
  238MOL0     H31404   5.988   3.562   9.672 -1.2315  1.8860  0.1266
  238MOL0     H31405   6.105   3.356   9.653 -0.9489  1.3444  2.3940
  238MOL0     H31406   6.175   3.015   9.489 -3.5684 -2.0888  2.0049
  238MOL0     H31407   6.182   3.143   9.610  0.3522  0.3872  0.1011
  238MOL0     H31408   6.146   3.301   9.394 -0.0747  0.4318 -0.4644
  238MOL0     H31409   6.294   3.204   9.395  0.1510 -0.9381 -0.2753
  238MOL0     H31410   6.195   3.018   9.273  1.1987 -0.7753  0.3596
  238MOL0     H31411   6.228   3.158   9.177 -2.0760 -0.7821 -2.2243
  238MOL0     H31412   5.945   3.099   9.296 -0.3764  1.3676  0.4345
  238MOL0     H31413   5.966   3.210   9.176 -0.4875  1.2836  2.1768
  238MOL0     H31414   6.010   2.871   8.943  3.3222 -0.1557  1.9047
  238MOL0     H31415   5.762   3.173   9.488  0.5948  0.8559 -1.2152
  238MOL0     H31416   5.619   3.392   9.553 -0.0479 -0.6875  1.5114
  239MOL0     O31417   2.990   8.978  11.217  0.2842 -0.5954 -0.0224
  239MOL0     C31418   2.988   8.925  11.108 -0.0708  0.4417 -0.1524
  239MOL0     O31419   2.895   8.835  11.065  0.1627  0.2992  0.1149
  239MOL0     C31420   2.778   8.818  11.136 -0.1985 -0.4188  0.1958
  239MOL0     C31421   2.669   8.905  11.124 -0.8001 -0.1425  0.0782
  239MOL0     C31422   2.567   8.894  11.219  0.0590 -0.9718 -0.5293
  239MOL0     C31423   2.552   8.785  11.302  0.6858  0.2801  0.0676
  239MOL0     O31424   2.444   8.776  11.386  0.1115  0.0064  0.2984
  239MOL0     C31425   2.415   8.883  11.472 -0.6726 -0.2528 -0.3946
  239MOL0     C31426   2.325   8.807  11.578  0.8334 -0.6512 -1.2883
  239MOL0     C31427   2.274   8.923  11.673  0.4031  0.7454  0.2665
  239MOL0     C31428   2.218   8.858  11.800 -0.3469 -0.5943  1.0170
  239MOL0     C31429   2.157   8.966  11.892 -0.2491 -0.8210  0.3246
  239MOL0     C31430   2.023   9.013  11.843 -0.4550  0.2109  0.7172
  239MOL0     C31431   1.955   9.119  11.935 -0.2492  0.0720  0.3949
  239MOL0     C31432   1.896   9.059  12.062  0.6247 -0.8699 -0.3702
  239MOL0     N31433   1.822   9.162  12.143  0.2436  0.4332 -0.3498
  239MOL0     C31434   1.870   9.282  12.184 -0.1225 -0.3152  0.2153
  239MOL0     C31435   1.758   9.347  12.225  0.3699 -0.3303 -0.9487
  239MOL0     C31436   1.742   9.494  12.290  0.3467 -0.2091  0.0458
  239MOL0     C31437   1.803   9.507  12.431  0.7478  0.1870 -0.4352
  239MOL0     C31438   1.767   9.625  12.508  0.1091  0.4239 -0.3001
  239MOL0     C31439   1.771   9.760  12.432 -0.0429 -0.3379 -0.6553
  239MOL0     O31440   1.811   9.860  12.530  0.1555 -0.0485  0.4880
  239MOL0     C31441   1.937   9.909  12.516 -0.5875 -0.2474  0.0487
  239MOL0     C31442   1.950  10.034  12.470  0.4496  0.0310  0.4640
  239MOL0     C31443   2.074  10.091  12.459 -0.1960  0.5971 -0.7612
  239MOL0     C31444   2.198  10.021  12.490  0.0420  0.3575 -0.3320
  239MOL0     C31445   2.330  10.089  12.490  0.8010  0.0336 -0.4418
  239MOL0     O31446   2.440  10.018  12.535 -0.0749 -0.6987 -0.1004
  239MOL0     C31447   2.567  10.070  12.511  0.3929 -0.1751 -0.3718
  239MOL0     C31448   2.602  10.200  12.528 -1.1772  0.5913 -0.6501
  239MOL0     C31449   2.734  10.239  12.496  0.0654 -0.4159 -0.2963
  239MOL0     C31450   2.831  10.153  12.446 -0.1625  0.0386  0.3578
  239MOL0     O31451   2.966  10.190  12.442  0.2082  0.5722  0.1529
  239MOL0     C31452   3.003  10.241  12.313 -0.2827 -0.1276 -0.3090
  239MOL0     C31453   3.139  10.315  12.325 -0.6096  1.3064 -0.2624
  239MOL0     C31454   3.255  10.219  12.306  0.0275 -0.2655  0.0187
  239MOL0     C31455   3.377  10.295  12.328  0.1734 -0.4420  0.7382
  239MOL0     C31456   3.490  10.212  12.390 -0.0496 -0.0828 -0.6888
  239MOL0     C31457   3.579  10.127  12.293  0.8475 -0.1782  0.0622
  239MOL0     C31458   3.653  10.200  12.181 -0.2578  0.7239  0.6458
  239MOL0     C31459   3.784  10.273  12.233  0.8149  0.0064  0.4691
  239MOL0    Cl31460   3.909  10.156  12.279 -0.3043 -0.4302  0.6407
  239MOL0     C31461   2.786  10.021  12.430 -0.4184  0.4117 -0.5848
  239MOL0     C31462   2.655   9.978  12.450  0.1990 -0.5266  0.1583
  239MOL0     O31463   2.328  10.200  12.436 -0.7382  0.1432 -0.0037
  239MOL0     C31464   2.181   9.885  12.525 -0.1615  0.5908  1.3253
  239MOL0     C31465   2.053   9.826  12.539  0.4078 -0.4753 -0.1976
  239MOL0     N31466   1.645   9.271  12.210 -0.0270  0.7339  0.3595
  239MOL0     N31467   1.686   9.154  12.172 -0.4348  0.0253 -0.6709
  239MOL0     C31468   2.650   8.687  11.297  0.8108 -0.2672 -0.9943
  239MOL0     C31469   2.769   8.709  11.224 -0.7090 -0.4345  0.0905
  239MOL0     C31470   3.120   8.929  11.049 -0.9379  0.8401  1.0195
  239MOL0     C31471   3.193   9.051  11.037  0.3228  0.1759 -0.5502
  239MOL0     C31472   3.325   9.044  10.999 -0.5376 -0.2236 -1.0119
  239MOL0     C31473   3.382   8.914  10.963 -0.6794  0.2401 -0.1608
  239MOL0     O31474   3.500   8.933  10.910 -0.2822  0.1052 -0.0641
  239MOL0     C31475   3.588   8.817  10.909  0.2671 -0.1248 -1.2417
  239MOL0     C31476   3.709   8.858  10.999  0.3026 -0.3636 -0.7705
  239MOL0     C31477   3.799   8.953  10.922 -0.5034 -0.4573  0.7410
  239MOL0     C31478   3.943   8.960  10.973  0.3683 -0.1696  0.4576
  239MOL0     C31479   4.016   9.030  10.863  0.1867  0.0125  0.0514
  239MOL0     C31480   4.068   9.089  10.772  0.7807  0.2834  0.5207
  239MOL0     C31481   3.310   8.801  10.953  0.6141  0.7662 -0.5471
  239MOL0     C31482   3.174   8.804  11.015 -0.1161  0.9946 -0.3302
  239MOL0     H31483   2.670   8.995  11.064  1.3681  0.8708  1.4937
  239MOL0     H31484   2.495   8.974  11.205  1.3726 -0.0825 -2.5869
  239MOL0     H31485   2.364   8.970  11.430  3.5349  1.2597 -2.9962
  239MOL0     H31486   2.500   8.929  11.523 -1.2521  0.7871 -0.3326
  239MOL0     H31487   2.390   8.745  11.640 -0.8503 -1.0017  0.2005
  239MOL0     H31488   2.243   8.746  11.539  1.6485 -0.9217 -2.6652
  239MOL0     H31489   2.204   8.974  11.606 -0.7062 -1.3273 -0.2362
  239MOL0     H31490   2.355   8.990  11.702  2.0562 -0.2475 -1.7869
  239MOL0     H31491   2.157   8.770  11.777  0.7134 -1.4805  1.5079
  239MOL0     H31492   2.299   8.811  11.856  0.8701 -2.3854 -1.9980
  239MOL0     H31493   2.214   9.059  11.888 -1.1226 -0.3108 -1.0608
  239MOL0     H31494   2.158   8.933  11.996 -0.1586 -2.9903 -0.2941
  239MOL0     H31495   1.976   8.915  11.830 -0.8076  0.0826  2.7435
  239MOL0     H31496   2.023   9.064  11.746 -1.0836  2.1133  1.6857
  239MOL0     H31497   2.020   9.201  11.966 -1.3325  1.0269  0.2143
  239MOL0     H31498   1.873   9.153  11.871  0.3971 -0.8421 -0.9777
  239MOL0     H31499   1.978   9.014  12.117 -0.9656  0.3315  3.3364
  239MOL0     H31500   1.831   8.973  12.044  0.8663 -0.6255 -2.7689
  239MOL0     H31501   1.972   9.319  12.182  0.5879 -2.0784  1.1786
  239MOL0     H31502   1.635   9.516  12.302 -0.2656 -1.4446 -2.3730
  239MOL0     H31503   1.793   9.563  12.222 -2.7391  0.3563 -1.8953
  239MOL0     H31504   1.912   9.499  12.433  0.9229  2.1840  0.5720
  239MOL0     H31505   1.767   9.426  12.495  0.1051  0.7117 -0.1316
  239MOL0     H31506   1.671   9.619  12.561  1.6542 -0.5097  2.6431
  239MOL0     H31507   1.835   9.629  12.594 -0.1328  0.3068 -0.1019
  239MOL0     H31508   1.670   9.779  12.393 -0.1244 -1.1639 -0.8692
  239MOL0     H31509   1.839   9.751  12.347  0.9434  1.8982 -0.1682
  239MOL0     H31510   1.871  10.098  12.431 -0.2638 -0.7046  0.6789
  239MOL0     H31511   2.078  10.195  12.428 -1.6338  0.4121 -1.6493
  239MOL0     H31512   2.529  10.268  12.570 -2.4263 -1.3394  0.5033
  239MOL0     H31513   2.764  10.341  12.520 -0.7171 -0.1719 -0.3528
  239MOL0     H31514   2.919  10.301  12.275 -0.6685 -1.0333 -0.9391
  239MOL0     H31515   3.016  10.150  12.252  0.9384 -1.2082  1.4672
  239MOL0     H31516   3.157  10.344  12.429  0.3059 -2.2964  0.7307
  239MOL0     H31517   3.135  10.406  12.265 -0.9743  0.1930 -2.0125
  239MOL0     H31518   3.261  10.173  12.207  0.1802  1.2484 -0.7109
  239MOL0     H31519   3.251  10.137  12.379  2.1927  1.6461  2.4638
  239MOL0     H31520   3.413  10.348  12.240  1.9816 -1.9690  0.5022
  239MOL0     H31521   3.366  10.370  12.407  2.8778 -0.0243  0.8113
  239MOL0     H31522   3.454  10.143  12.468  0.4041  0.9608  0.4754
  239MOL0     H31523   3.550  10.276  12.455 -2.3790 -1.3765  3.1193
  239MOL0     H31524   3.507  10.059  12.248  1.3669  0.3664 -1.6853
  239MOL0     H31525   3.655  10.064  12.340  0.4827  0.0152  0.9339
  239MOL0     H31526   3.682  10.128  12.103 -2.4591  0.1291  0.2987
  239MOL0     H31527   3.589  10.272  12.128 -0.5027 -0.9186 -1.4683
  239MOL0     H31528   3.749  10.334  12.317  0.9424  2.3411 -1.0858
  239MOL0     H31529   3.817  10.346  12.158 -0.2343 -0.1634 -0.1839
  239MOL0     H31530   2.864   9.957  12.391  0.0995  0.1175  0.8505
  239MOL0     H31531   2.627   9.873  12.445 -4.0659  0.2587  2.5765
  239MOL0     H31532   2.265   9.823  12.553 -0.8275  0.4833  3.2759
  239MOL0     H31533   2.039   9.722  12.567 -0.0514 -0.2360  0.4733
  239MOL0     H31534   2.657   8.605  11.368 -2.4010  0.2264  0.0566
  239MOL0     H31535   2.850   8.638  11.218 -1.9436 -1.8512 -0.6129
  239MOL0     H31536   3.148   9.145  11.068  3.1148  1.0351  1.3912
  239MOL0     H31537   3.380   9.138  11.002  1.7062 -1.4799  0.6453
  239MOL0     H31538   3.621   8.788  10.809  0.1023 -1.7587 -0.8495
  239MOL0     H31539   3.547   8.732  10.964  2.5291 -0.1840  0.4631
  239MOL0     H31540   3.671   8.911  11.086  1.2969 -0.0720 -0.5037
  239MOL0     H31541   3.764   8.773  11.041  0.9873  0.3453 -0.2140
  239MOL0     H31542   3.748   9.049  10.912 -0.2166 -0.1771  1.8372
  239MOL0     H31543   3.803   8.921  10.818 -0.1541 -0.5339  0.7762
  239MOL0     H31544   3.953   9.025  11.060  1.0394  0.6287 -0.2009
  239MOL0     H31545   3.979   8.858  10.990  1.1967 -0.3724 -2.1107
  239MOL0     H31546   4.122   9.132  10.690 -2.6339 -0.6338 -2.4481
  239MOL0     H31547   3.350   8.708  10.914  1.2729  1.7460 -2.3461
  239MOL0     H31548   3.106   8.720  11.019 -0.2790  1.1330 -0.2080
  240MOL0     O31549   3.481   3.829   6.748 -1.3302 -0.3118  0.0091
  240MOL0     C31550   3.587   3.764   6.732  0.1108 -0.3879 -1.8030
  240MOL0     O31551   3.715   3.819   6.746 -0.3839  0.4027 -0.1484
  240MOL0     C31552   3.734   3.950   6.741 -0.1119  1.0758 -0.1405
  240MOL0     C31553   3.799   4.004   6.628 -0.2970  0.8209 -0.8469
  240MOL0     C31554   3.812   4.143   6.620 -0.3451  0.0709 -0.7507
  240MOL0     C31555   3.787   4.216   6.737  0.0365  0.6242 -1.4808
  240MOL0     O31556   3.790   4.351   6.722 -0.0782  0.3432 -0.2660
  240MOL0     C31557   3.691   4.439   6.780  0.5046  0.6166 -0.3479
  240MOL0     C31558   3.715   4.587   6.743 -0.1543  0.2434 -0.1770
  240MOL0     C31559   3.649   4.616   6.600  0.2451  0.8780  0.4910
  240MOL0     C31560   3.699   4.526   6.495  0.3547  0.5847 -0.5711
  240MOL0     C31561   3.646   4.561   6.358  0.1747 -0.0362  0.8385
  240MOL0     C31562   3.667   4.445   6.254  0.0948 -0.1218  0.2851
  240MOL0     C31563   3.570   4.463   6.138 -0.3166  0.4022  0.8339
  240MOL0     C31564   3.559   4.351   6.023 -0.3721 -0.7288  0.4621
  240MOL0     N31565   3.682   4.326   5.943 -0.4035  0.2643  0.5430
  240MOL0     C31566   3.739   4.424   5.867  0.7060 -0.2188  0.7879
  240MOL0     C31567   3.824   4.365   5.780  0.8649 -0.4815 -0.4580
  240MOL0     C31568   3.920   4.451   5.706 -0.4376 -0.4485 -0.0404
  240MOL0     C31569   3.862   4.516   5.576 -0.2257 -0.6891 -0.4547
  240MOL0     C31570   3.823   4.401   5.471 -0.4343  0.5462  0.2204
  240MOL0     C31571   3.827   4.460   5.327  0.0221  0.4344  0.9976
  240MOL0     O31572   3.793   4.596   5.316 -0.6278 -0.5105 -0.0663
  240MOL0     C31573   3.849   4.669   5.215 -0.5797  0.7707  0.0179
  240MOL0     C31574   3.874   4.807   5.235  0.2663 -0.5214 -0.4497
  240MOL0     C31575   3.888   4.889   5.119  0.7347 -0.4825  0.2273
  240MOL0     C31576   3.910   4.839   4.991 -0.9285 -0.0271 -0.9894
  240MOL0     C31577   3.939   4.921   4.879  0.0589 -0.5408 -0.1914
  240MOL0     O31578   3.988   5.051   4.898  0.3771  0.0543 -0.1792
  240MOL0     C31579   3.990   5.124   4.782 -0.3005 -0.4924 -0.6444
  240MOL0     C31580   4.106   5.168   4.726  0.6398  0.6484 -0.2900
  240MOL0     C31581   4.102   5.245   4.608 -0.8589 -1.0929 -0.5645
  240MOL0     C31582   3.983   5.284   4.544 -0.5267  0.6141  0.2672
  240MOL0     O31583   3.975   5.369   4.431  0.7333  0.3975  0.2418
  240MOL0     C31584   4.081   5.376   4.341 -1.2562 -0.1703  0.1971
  240MOL0     C31585   4.043   5.444   4.210 -0.1450  0.2909  0.7662
  240MOL0     C31586   4.175   5.491   4.125  0.2399  0.6906 -0.8240
  240MOL0     C31587   4.235   5.615   4.200 -0.3277  0.4056  0.4662
  240MOL0     C31588   4.369   5.644   4.138 -1.1086 -0.8895  0.3606
  240MOL0     C31589   4.474   5.541   4.177 -0.2707  0.0037  0.4561
  240MOL0     C31590   4.596   5.573   4.086 -0.8517 -0.0670  0.4012
  240MOL0     C31591   4.709   5.467   4.073 -0.0134  0.0499 -0.3745
  240MOL0    Cl31592   4.651   5.313   3.991 -0.4496 -0.2173  0.4974
  240MOL0     C31593   3.864   5.234   4.599  0.5042 -0.1825  0.5419
  240MOL0     C31594   3.867   5.152   4.719 -0.0242  0.1705  0.0134
  240MOL0     O31595   3.927   4.867   4.770 -0.5098  0.1303 -0.1401
  240MOL0     C31596   3.896   4.693   4.975  0.5155  0.2166  0.1943
  240MOL0     C31597   3.860   4.615   5.085 -0.2688 -0.7797  0.0087
  240MOL0     N31598   3.837   4.241   5.828  1.0522 -0.2083 -0.4688
  240MOL0     N31599   3.745   4.212   5.917  1.0966  0.0757 -0.4021
  240MOL0     C31600   3.760   4.157   6.862  0.3685 -0.4012  0.8205
  240MOL0     C31601   3.731   4.023   6.859 -0.5843  0.0075  0.2847
  240MOL0     C31602   3.568   3.618   6.704 -0.4022 -0.1399  0.8390
  240MOL0     C31603   3.672   3.545   6.638 -0.0341 -0.2687  0.4888
  240MOL0     C31604   3.654   3.408   6.613  0.2397  0.4036  0.4981
  240MOL0     C31605   3.526   3.350   6.639  0.2859 -0.6815  1.1193
  240MOL0     O31606   3.493   3.222   6.597 -0.5901 -0.3831  0.4903
  240MOL0     C31607   3.595   3.119   6.594  0.1272 -0.3554 -0.7069
  240MOL0     C31608   3.528   2.997   6.656 -0.2051  0.6796 -0.3794
  240MOL0     C31609   3.442   2.927   6.552  0.9043  0.1621  0.1868
  240MOL0     C31610   3.386   2.794   6.615 -0.5165  0.5054 -0.3695
  240MOL0     C31611   3.325   2.709   6.502  0.2612  0.3564 -0.3958
  240MOL0     C31612   3.252   2.641   6.429  0.0044 -0.4047 -0.6610
  240MOL0     C31613   3.426   3.427   6.714  1.6103  1.6209  0.9286
  240MOL0     C31614   3.447   3.563   6.740  0.1041  1.2219  0.2636
  240MOL0     H31615   3.815   3.943   6.540  2.1659  1.6905 -1.0658
  240MOL0     H31616   3.830   4.191   6.525  0.5243 -3.2013 -2.4170
  240MOL0     H31617   3.694   4.418   6.888 -2.2933 -1.7192 -0.6167
  240MOL0     H31618   3.593   4.402   6.749  1.0844 -0.8509 -0.5148
  240MOL0     H31619   3.820   4.612   6.727  0.5901 -2.4081  0.0671
  240MOL0     H31620   3.681   4.649   6.826  3.5361  1.6766  0.4169
  240MOL0     H31621   3.676   4.720   6.580 -1.5927  2.1773  3.9325
  240MOL0     H31622   3.541   4.607   6.610  0.2464 -0.5379 -0.4787
  240MOL0     H31623   3.808   4.525   6.485  0.2503  3.6555 -4.2612
  240MOL0     H31624   3.666   4.425   6.520 -0.9470  0.7020 -1.7130
  240MOL0     H31625   3.695   4.654   6.329  0.9719 -1.4016 -2.6629
  240MOL0     H31626   3.540   4.585   6.364  0.8055  2.9057  2.1341
  240MOL0     H31627   3.636   4.347   6.293  1.4192 -1.5856 -2.0471
  240MOL0     H31628   3.773   4.436   6.230  0.0598 -2.9202  0.8358
  240MOL0     H31629   3.468   4.466   6.180 -0.7153  0.5636 -0.1223
  240MOL0     H31630   3.594   4.561   6.097 -3.4401  0.2721 -1.6414
  240MOL0     H31631   3.472   4.370   5.960  1.0056  0.9073 -1.0444
  240MOL0     H31632   3.550   4.260   6.084  3.0918 -0.9610  0.8698
  240MOL0     H31633   3.700   4.525   5.877 -0.5879 -0.7496  1.3244
  240MOL0     H31634   4.011   4.398   5.675 -0.6468 -0.7188 -0.1969
  240MOL0     H31635   3.955   4.526   5.777  1.2989 -1.4749  0.2534
  240MOL0     H31636   3.932   4.595   5.547 -0.8164 -0.0005 -0.0243
  240MOL0     H31637   3.771   4.571   5.601  0.8512  0.0139  2.2522
  240MOL0     H31638   3.901   4.325   5.476  0.4972  1.4132 -0.4830
  240MOL0     H31639   3.729   4.348   5.487 -0.6352  0.9363  0.3347
  240MOL0     H31640   3.762   4.401   5.261 -0.4103  2.4984 -0.5082
  240MOL0     H31641   3.930   4.442   5.296  1.1178  2.7173  2.9952
  240MOL0     H31642   3.840   4.847   5.330 -0.1073  1.9620 -1.5292
  240MOL0     H31643   3.881   4.997   5.134 -1.1336 -0.3197 -1.4426
  240MOL0     H31644   4.203   5.141   4.767  0.8456 -0.5558 -1.5261
  240MOL0     H31645   4.199   5.271   4.565  1.1229 -5.9352  0.2502
  240MOL0     H31646   4.119   5.275   4.322  1.0846  0.4455  1.2273
  240MOL0     H31647   4.160   5.431   4.393 -1.1440  0.1328 -0.2869
  240MOL0     H31648   3.977   5.530   4.228  0.6294  0.6435  2.1044
  240MOL0     H31649   3.980   5.375   4.154 -1.5680  1.6627  0.5922
  240MOL0     H31650   4.141   5.508   4.022 -1.2915  0.6490 -0.3533
  240MOL0     H31651   4.246   5.408   4.118 -0.2207  0.3668 -1.8334
  240MOL0     H31652   4.165   5.698   4.187 -3.0098 -1.6012  1.1294
  240MOL0     H31653   4.252   5.607   4.308 -0.9366 -2.7230  0.4473
  240MOL0     H31654   4.410   5.739   4.174  2.0083 -1.0066 -2.4153
  240MOL0     H31655   4.361   5.648   4.029 -0.8804 -2.0781  0.2855
  240MOL0     H31656   4.437   5.444   4.142 -2.6770  1.1979 -0.5461
  240MOL0     H31657   4.496   5.538   4.284 -0.5574 -4.2186  0.5714
  240MOL0     H31658   4.575   5.616   3.987  1.1730  3.1126  1.2080
  240MOL0     H31659   4.648   5.652   4.140  0.7991  0.5454 -1.9375
  240MOL0     H31660   4.752   5.441   4.170 -2.4029 -2.6157  0.0757
  240MOL0     H31661   4.789   5.517   4.017 -0.4127 -0.4093 -1.3793
  240MOL0     H31662   3.772   5.247   4.543 -0.2886  1.1630  2.0943
  240MOL0     H31663   3.774   5.110   4.755  0.2308 -2.5147 -2.1279
  240MOL0     H31664   3.920   4.647   4.880  0.0074  1.9450 -0.8179
  240MOL0     H31665   3.863   4.508   5.072  1.6226 -0.7091 -0.5499
  240MOL0     H31666   3.757   4.206   6.959 -2.1413  0.2725  0.4772
  240MOL0     H31667   3.723   3.963   6.949  0.4207 -2.0368 -0.9143
  240MOL0     H31668   3.763   3.595   6.608 -2.1780  4.5843  1.2214
  240MOL0     H31669   3.732   3.348   6.568 -1.0947 -1.4501  0.5427
  240MOL0     H31670   3.685   3.146   6.651 -1.1375  0.3019  1.0521
  240MOL0     H31671   3.627   3.089   6.493 -0.9639 -3.0015 -0.3556
  240MOL0     H31672   3.604   2.928   6.691 -0.7700 -0.1456 -0.7470
  240MOL0     H31673   3.474   3.028   6.747  0.7249  2.5299 -0.4086
  240MOL0     H31674   3.501   2.882   6.472  0.9634  1.2416 -0.3913
  240MOL0     H31675   3.365   2.987   6.503 -0.2657 -1.3501  0.0684
  240MOL0     H31676   3.468   2.728   6.644 -0.1138 -1.0012 -4.2502
  240MOL0     H31677   3.314   2.818   6.694  2.1124  0.1724  2.2924
  240MOL0     H31678   3.185   2.599   6.357 -1.8192  1.2590 -0.0409
  240MOL0     H31679   3.336   3.371   6.740  3.3467 -0.7945  2.1733
  240MOL0     H31680   3.363   3.619   6.780  1.7398  3.1362  1.1573
  241MOL0     O31681   6.887   4.884  10.845 -0.3844 -0.2815 -1.4696
  241MOL0     C31682   6.893   4.774  10.787 -0.4068  0.3372  0.5251
  241MOL0     O31683   6.994   4.689  10.778  0.7245  0.0654 -0.2940
  241MOL0     C31684   7.072   4.689  10.896 -0.4207  0.2927  0.4722
  241MOL0     C31685   7.191   4.762  10.908 -0.7095 -0.5740 -0.4637
  241MOL0     C31686   7.260   4.771  11.033 -0.2236 -1.1159  0.4447
  241MOL0     C31687   7.206   4.701  11.141 -0.6838  0.3082  0.5195
  241MOL0     O31688   7.261   4.704  11.266  0.7772 -0.4092 -0.4340
  241MOL0     C31689   7.335   4.814  11.318  0.2922 -0.4471 -0.1153
  241MOL0     C31690   7.242   4.938  11.355 -1.0526 -0.3268  0.3738
  241MOL0     C31691   7.321   5.067  11.376 -0.0271 -0.2355 -0.4216
  241MOL0     C31692   7.247   5.194  11.320 -0.0620 -0.3193 -0.0422
  241MOL0     C31693   7.317   5.331  11.367  1.1265 -0.2949  0.5682
  241MOL0     C31694   7.247   5.425  11.262  0.0911  1.0033  0.0396
  241MOL0     C31695   7.287   5.575  11.260 -0.1962  0.2870  0.1103
  241MOL0     C31696   7.434   5.601  11.213 -0.2478 -0.0857 -0.9847
  241MOL0     N31697   7.442   5.612  11.069  0.1460 -0.0733 -0.1682
  241MOL0     C31698   7.489   5.726  11.014 -0.6267 -0.2924 -0.3297
  241MOL0     C31699   7.527   5.694  10.888  0.0218  0.9560 -0.7937
  241MOL0     C31700   7.572   5.789  10.780  0.0075  0.1623 -0.3619
  241MOL0     C31701   7.454   5.874  10.731 -0.1037 -0.7091 -0.0038
  241MOL0     C31702   7.475   5.962  10.604  0.4342  0.0578 -0.5033
  241MOL0     C31703   7.340   6.046  10.575 -0.5557 -0.6228 -0.5560
  241MOL0     O31704   7.330   6.120  10.692 -0.0953 -1.0498  0.1558
  241MOL0     C31705   7.420   6.212  10.743 -0.9506  0.2563 -0.0066
  241MOL0     C31706   7.419   6.241  10.888 -0.2944  0.8343  0.3924
  241MOL0     C31707   7.484   6.350  10.946 -0.3628  1.0794 -0.4172
  241MOL0     C31708   7.577   6.415  10.872  0.5399 -0.3975 -0.4157
  241MOL0     C31709   7.627   6.549  10.929 -0.9145  0.2521 -0.2460
  241MOL0     O31710   7.644   6.643  10.838  0.4987  0.1500 -0.0466
  241MOL0     C31711   7.708   6.759  10.868 -0.4299 -0.6565  0.5279
  241MOL0     C31712   7.635   6.878  10.880  0.4252  0.3393 -0.0210
  241MOL0     C31713   7.698   6.997  10.925  0.3580  0.4583  0.1033
  241MOL0     C31714   7.833   6.999  10.946 -0.7417 -0.1033  0.9060
  241MOL0     O31715   7.907   7.113  10.974  1.3583  1.4121 -0.1102
  241MOL0     C31716   7.890   7.188  11.096 -0.2094  0.3674  0.4878
  241MOL0     C31717   7.964   7.327  11.090 -0.1800  0.6109 -0.3305
  241MOL0     C31718   7.986   7.364  11.239 -0.8844 -0.1278 -0.1369
  241MOL0     C31719   8.085   7.482  11.267  0.7284 -0.4162  0.8583
  241MOL0     C31720   8.128   7.504  11.416 -0.2433 -0.4465  0.1753
  241MOL0     C31721   8.020   7.545  11.512  0.0575 -0.4119  0.3197
  241MOL0     C31722   7.999   7.449  11.638 -0.6840 -0.5498 -0.6862
  241MOL0     C31723   7.886   7.512  11.724 -0.1775 -0.1430 -0.2987
  241MOL0    Cl31724   7.912   7.688  11.753  0.1009  0.1453 -0.1156
  241MOL0     C31725   7.905   6.884  10.938  0.1534 -0.1802  0.2755
  241MOL0     C31726   7.847   6.763  10.911  0.6410 -0.3623  0.1698
  241MOL0     O31727   7.662   6.558  11.049 -0.2040 -0.0414 -0.0712
  241MOL0     C31728   7.594   6.390  10.735  0.6602 -0.0848  0.4381
  241MOL0     C31729   7.518   6.291  10.682 -0.1179  0.2166  0.3729
  241MOL0     N31730   7.494   5.568  10.874 -0.6458 -0.4980 -0.4470
  241MOL0     N31731   7.434   5.512  10.980  0.2697 -0.4384 -0.0976
  241MOL0     C31732   7.088   4.627  11.127  0.4769 -0.2201 -0.1982
  241MOL0     C31733   7.018   4.626  11.008  0.3846 -0.2241  0.3989
  241MOL0     C31734   6.800   4.764  10.667  0.2634  0.4958  0.4867
  241MOL0     C31735   6.712   4.872  10.639 -0.1775  0.2657  0.8072
  241MOL0     C31736   6.629   4.854  10.534 -0.4184 -0.3437  0.2950
  241MOL0     C31737   6.633   4.749  10.443 -0.0555  0.2351 -0.1267
  241MOL0     O31738   6.549   4.766  10.335  0.2560  0.5139  0.8304
  241MOL0     C31739   6.541   4.654  10.247  1.0897  0.2633  0.0471
  241MOL0     C31740   6.445   4.553  10.307  0.8877 -0.9178  0.3460
  241MOL0     C31741   6.462   4.429  10.224 -0.1997  0.0399  0.9850
  241MOL0     C31742   6.349   4.328  10.264 -0.4151  0.5183 -0.3122
  241MOL0     C31743   6.370   4.277  10.393 -0.2433  0.2640  0.7033
  241MOL0     C31744   6.392   4.235  10.509 -0.3001  0.5619  0.7302
  241MOL0     C31745   6.721   4.649  10.465  0.5465  0.7806 -0.4276
  241MOL0     C31746   6.801   4.646  10.585  0.1119 -0.1728  0.3894
  241MOL0     H31747   7.235   4.811  10.822  2.9051 -1.5658  0.6524
  241MOL0     H31748   7.346   4.836  11.042 -0.6635 -0.2113 -1.4102
  241MOL0     H31749   7.403   4.846  11.239 -1.1378 -0.2212 -1.3014
  241MOL0     H31750   7.390   4.770  11.402 -1.0217 -0.7140  0.6373
  241MOL0     H31751   7.191   4.916  11.450 -2.9644 -2.3560 -1.0158
  241MOL0     H31752   7.159   4.958  11.286 -0.1714 -0.0588 -0.6242
  241MOL0     H31753   7.421   5.050  11.336 -0.7882 -0.9928 -2.0835
  241MOL0     H31754   7.339   5.083  11.483 -4.2798  1.3517  0.2445
  241MOL0     H31755   7.259   5.190  11.211 -0.2847 -2.0452 -0.0267
  241MOL0     H31756   7.142   5.203  11.349 -0.3186  0.6612 -1.2043
  241MOL0     H31757   7.423   5.320  11.342  0.0715 -3.8049 -3.5149
  241MOL0     H31758   7.299   5.363  11.470 -1.5085 -0.6589  0.2941
  241MOL0     H31759   7.139   5.418  11.275  0.1547  0.3063  0.2506
  241MOL0     H31760   7.271   5.397  11.159 -2.4723  1.1144 -0.6666
  241MOL0     H31761   7.212   5.628  11.200  1.2231  2.2874 -0.0066
  241MOL0     H31762   7.261   5.613  11.360 -0.2361 -0.3282  0.3400
  241MOL0     H31763   7.496   5.516  11.242 -2.6560 -1.3664  0.7562
  241MOL0     H31764   7.469   5.694  11.259 -0.2884  0.8298 -2.7106
  241MOL0     H31765   7.504   5.828  11.049 -4.0526  0.6898 -1.3559
  241MOL0     H31766   7.615   5.729  10.699 -4.6052 -0.9797 -2.2737
  241MOL0     H31767   7.645   5.839  10.845 -2.5019 -1.0853  3.7440
  241MOL0     H31768   7.400   5.928  10.809 -2.0163 -2.1343 -0.2624
  241MOL0     H31769   7.368   5.816  10.697 -1.4650  1.5256 -0.5689
  241MOL0     H31770   7.561   6.030  10.607 -1.8994  3.2178  1.2923
  241MOL0     H31771   7.491   5.905  10.512  0.1677 -3.2806  1.3921
  241MOL0     H31772   7.249   5.985  10.572 -2.5627  1.8352  2.6839
  241MOL0     H31773   7.344   6.112  10.487 -1.4760 -2.0350 -1.7098
  241MOL0     H31774   7.343   6.195  10.951 -1.2711  4.5585  2.2269
  241MOL0     H31775   7.468   6.384  11.048  0.8467 -3.2147  1.3823
  241MOL0     H31776   7.532   6.889  10.846 -0.5687  0.4829  2.7611
  241MOL0     H31777   7.626   7.078  10.920 -1.9935 -1.5020  0.5556
  241MOL0     H31778   7.924   7.118  11.173 -0.2012  0.2684  0.3930
  241MOL0     H31779   7.784   7.211  11.105 -0.4091  0.8140 -2.2553
  241MOL0     H31780   7.909   7.412  11.048  1.8160  2.4266  0.5554
  241MOL0     H31781   8.052   7.307  11.029 -1.6003 -1.9870 -1.7494
  241MOL0     H31782   8.031   7.276  11.287  0.5110  1.0560  0.7948
  241MOL0     H31783   7.892   7.379  11.292 -1.7695  2.5095 -2.2366
  241MOL0     H31784   8.176   7.469  11.208  1.9288  0.3342  2.4627
  241MOL0     H31785   8.031   7.570  11.232  1.0714  0.0033  1.3676
  241MOL0     H31786   8.209   7.577  11.414  1.6611 -2.1522  3.7707
  241MOL0     H31787   8.173   7.413  11.459  2.0210 -0.0762 -1.2250
  241MOL0     H31788   7.930   7.560  11.452  1.0885 -1.7379 -1.6649
  241MOL0     H31789   8.053   7.640  11.555 -1.0104  1.3194 -2.4081
  241MOL0     H31790   7.965   7.354  11.596  1.5680 -0.9146 -1.8027
  241MOL0     H31791   8.092   7.434  11.694 -0.6755  0.9697 -0.2455
  241MOL0     H31792   7.867   7.466  11.821 -0.9766  1.7277  0.4880
  241MOL0     H31793   7.793   7.482  11.675  0.4970 -2.8120 -0.1031
  241MOL0     H31794   8.006   6.872  10.977 -0.5138  0.0869  2.1996
  241MOL0     H31795   7.902   6.669  10.911  1.6575  0.2171 -0.2830
  241MOL0     H31796   7.656   6.460  10.679  0.1314  0.3962  0.4419
  241MOL0     H31797   7.538   6.271  10.577  1.6905 -0.9088  0.8923
  241MOL0     H31798   7.063   4.573  11.218  1.5910 -0.6346 -0.1127
  241MOL0     H31799   6.924   4.573  10.999  0.8334 -1.3728  1.9313
  241MOL0     H31800   6.695   4.957  10.704 -0.0668  2.9943 -2.4528
  241MOL0     H31801   6.559   4.932  10.508  0.8412  0.9113  0.5216
  241MOL0     H31802   6.639   4.617  10.216  0.6003 -2.3074  1.2786
  241MOL0     H31803   6.497   4.682  10.151  0.9436  0.5400  0.1905
  241MOL0     H31804   6.474   4.527  10.410 -1.8728 -0.6929  1.2596
  241MOL0     H31805   6.341   4.587  10.299  1.3582  0.6174  0.5055
  241MOL0     H31806   6.565   4.392  10.236  0.3828  1.9246  2.1717
  241MOL0     H31807   6.451   4.460  10.120 -0.6172  0.1497  1.0619
  241MOL0     H31808   6.251   4.375  10.270 -1.7029 -2.1796  2.2653
  241MOL0     H31809   6.340   4.241  10.198 -4.5828  0.9638 -0.6015
  241MOL0     H31810   6.419   4.194  10.604  1.5562 -2.0339 -0.7583
  241MOL0     H31811   6.733   4.573  10.389 -1.6587  0.6221 -0.6542
  241MOL0     H31812   6.875   4.569  10.604  0.8385  0.7830  1.6178
  242MOL0     O31813   6.474   0.566   0.453 -0.5045  0.1734 -0.4349
  242MOL0     C31814   6.361   0.590   0.497 -0.3069  0.1281  0.5335
  242MOL0     O31815   6.267   0.663   0.427 -1.0107  0.6427  0.4940
  242MOL0     C31816   6.314   0.765   0.343 -1.3124  0.5263 -1.0314
  242MOL0     C31817   6.409   0.863   0.391  0.1457 -0.1565 -0.9263
  242MOL0     C31818   6.432   0.968   0.293 -0.1473  0.1579  0.1204
  242MOL0     C31819   6.381   0.967   0.161 -0.4180  0.2245  0.1410
  242MOL0     O31820   6.386   1.079   0.082  0.0079  0.2834 -0.2073
  242MOL0     C31821   6.477   1.068  -0.031 -0.1459  0.1580  0.1994
  242MOL0     C31822   6.470   1.190  -0.126  0.9368 -0.7860 -0.4090
  242MOL0     C31823   6.527   1.322  -0.074  0.3804 -1.4095 -0.0499
  242MOL0     C31824   6.671   1.312  -0.043 -0.5663 -0.3844 -0.0683
  242MOL0     C31825   6.747   1.443  -0.072  0.4422 -0.7383 -0.2375
  242MOL0     C31826   6.713   1.574   0.004  0.1335 -0.4831  0.2087
  242MOL0     C31827   6.708   1.568   0.152  0.6215 -0.3783 -0.3156
  242MOL0     C31828   6.843   1.533   0.204 -0.5286 -0.2284 -0.5086
  242MOL0     N31829   6.932   1.648   0.215  0.6902  0.0794 -1.6205
  242MOL0     C31830   7.014   1.701   0.124  0.5240 -0.2397 -1.2791
  242MOL0     C31831   7.069   1.807   0.183  0.5198 -1.6459 -0.3689
  242MOL0     C31832   7.157   1.898   0.112  0.4029 -0.4606  0.0393
  242MOL0     C31833   7.073   2.011   0.046 -0.1436 -0.7510  0.1882
  242MOL0     C31834   7.152   2.106  -0.055 -0.2391 -0.5379 -0.1510
  242MOL0     C31835   7.265   2.190   0.010 -1.0249  0.9683  0.0800
  242MOL0     O31836   7.396   2.140  -0.028  0.6026  1.1539 -0.0839
  242MOL0     C31837   7.498   2.184   0.052 -0.5598  0.8930  0.8013
  242MOL0     C31838   7.506   2.156   0.192 -0.0094 -1.0199  0.0565
  242MOL0     C31839   7.610   2.217   0.265 -0.2873 -0.4119  0.2699
  242MOL0     C31840   7.725   2.277   0.199  0.4337  0.9419 -0.9217
  242MOL0     C31841   7.846   2.312   0.277  0.4887  0.2434  0.1040
  242MOL0     O31842   7.947   2.324   0.197 -0.5548 -0.1575 -0.0049
  242MOL0     C31843   8.072   2.312   0.248  0.4096  0.1347 -0.3198
  242MOL0     C31844   8.138   2.189   0.257 -0.7894  0.3418 -0.3112
  242MOL0     C31845   8.273   2.176   0.305 -0.6345 -0.8890 -0.5990
  242MOL0     C31846   8.351   2.283   0.331  0.2094  0.1142 -0.5112
  242MOL0     O31847   8.486   2.293   0.359 -0.2766  0.1848  1.3198
  242MOL0     C31848   8.570   2.179   0.364 -1.1305 -0.3644  0.5305
  242MOL0     C31849   8.631   2.145   0.223 -0.2471 -0.5107  0.2127
  242MOL0     C31850   8.755   2.053   0.221 -1.3178  0.1530  0.8154
  242MOL0     C31851   8.878   2.093   0.309 -0.8208 -0.2556  0.7145
  242MOL0     C31852   8.987   1.984   0.305 -0.1409  0.0140 -0.3338
  242MOL0     C31853   8.954   1.857   0.380 -0.8525  1.0213  0.1682
  242MOL0     C31854   9.090   1.770   0.388  0.1608 -0.3136 -0.2580
  242MOL0     C31855   9.103   1.663   0.269  0.0083  0.0944  0.9136
  242MOL0    Cl31856   9.054   1.717   0.102 -0.2241  0.0691 -0.1212
  242MOL0     C31857   8.284   2.410   0.338 -0.7462  0.2951 -0.2879
  242MOL0     C31858   8.154   2.420   0.300  0.8576 -0.5387 -0.1954
  242MOL0     O31859   7.837   2.327   0.396  0.2006 -0.1192  0.1178
  242MOL0     C31860   7.727   2.289   0.054  0.2419  0.4812  0.7739
  242MOL0     C31861   7.611   2.242  -0.019 -0.9502  0.5553 -0.2031
  242MOL0     N31862   7.039   1.801   0.319  0.1334 -0.3631 -0.0339
  242MOL0     N31863   6.958   1.706   0.340  0.4002  0.5802 -0.3263
  242MOL0     C31864   6.302   0.861   0.113 -0.4697  0.1138  0.2294
  242MOL0     C31865   6.275   0.755   0.206  0.8257 -0.2430  0.0926
  242MOL0     C31866   6.302   0.502   0.601 -0.3821 -0.0617 -0.2347
  242MOL0     C31867   6.166   0.504   0.621 -0.0626  0.1711  0.0273
  242MOL0     C31868   6.105   0.405   0.703 -0.0521  0.4165 -0.3498
  242MOL0     C31869   6.181   0.299   0.764 -0.0064  0.5313  0.3012
  242MOL0     O31870   6.109   0.205   0.823 -0.3730 -0.6659 -0.0055
  242MOL0     C31871   6.150   0.114   0.925 -0.0642 -0.4824  0.8190
  242MOL0     C31872   6.166  -0.034   0.879 -0.4524 -0.7984 -0.2653
  242MOL0     C31873   6.188  -0.147   0.983 -0.6708  0.0613 -0.7022
  242MOL0     C31874   6.316  -0.125   1.066 -0.0953 -0.1466  0.9766
  242MOL0     C31875   6.339  -0.221   1.178 -0.0635  0.5432  1.4149
  242MOL0     C31876   6.338  -0.294   1.279 -0.4904 -0.7472  0.3572
  242MOL0     C31877   6.315   0.293   0.740  0.2712  1.3121  0.1887
  242MOL0     C31878   6.371   0.402   0.664  0.0776  0.4966  0.4869
  242MOL0     H31879   6.465   0.869   0.484  0.6783 -2.5371 -1.0299
  242MOL0     H31880   6.496   1.052   0.320  0.6821 -0.5318  0.3329
  242MOL0     H31881   6.449   0.977  -0.084  1.6906 -0.1665 -0.3096
  242MOL0     H31882   6.582   1.053  -0.001  0.2034 -1.1431 -1.5058
  242MOL0     H31883   6.366   1.204  -0.159  0.7358 -2.8091 -0.7542
  242MOL0     H31884   6.530   1.165  -0.215  2.2179  0.5205  0.0498
  242MOL0     H31885   6.465   1.364   0.007  0.3168  0.2853 -0.9290
  242MOL0     H31886   6.519   1.386  -0.162  1.2914 -0.2539  0.6766
  242MOL0     H31887   6.676   1.278   0.061  0.8589  2.3074  0.8315
  242MOL0     H31888   6.694   1.226  -0.107 -3.2830 -2.4644  1.4835
  242MOL0     H31889   6.731   1.481  -0.173 -1.9254  3.0284  1.3171
  242MOL0     H31890   6.854   1.424  -0.066  1.8906  4.9113 -2.1410
  242MOL0     H31891   6.614   1.606  -0.030  1.6826  0.9681 -3.4365
  242MOL0     H31892   6.774   1.656  -0.036 -1.8353  1.7428  1.4762
  242MOL0     H31893   6.668   1.657   0.202 -1.8865 -2.6626  2.0144
  242MOL0     H31894   6.635   1.488   0.166  0.2443 -0.2176 -1.2660
  242MOL0     H31895   6.885   1.453   0.144 -2.2519 -0.2705 -1.7206
  242MOL0     H31896   6.832   1.494   0.306  0.8684 -0.2871 -0.3624
  242MOL0     H31897   7.032   1.672   0.020  3.9384  2.9839 -1.8238
  242MOL0     H31898   7.212   1.834   0.043 -2.2310 -2.2169 -0.5760
  242MOL0     H31899   7.222   1.950   0.183  0.2462 -0.6962  0.3601
  242MOL0     H31900   7.026   2.067   0.128  0.4778  0.0517  0.0148
  242MOL0     H31901   6.987   1.963  -0.002 -0.4128 -1.1353  1.0302
  242MOL0     H31902   7.185   2.041  -0.137 -4.3095 -3.3886  0.1988
  242MOL0     H31903   7.077   2.175  -0.095 -0.0342 -0.5890 -0.6302
  242MOL0     H31904   7.253   2.190   0.119  2.5729 -0.1192  0.6272
  242MOL0     H31905   7.258   2.288  -0.037  1.6529 -0.2812 -3.3391
  242MOL0     H31906   7.427   2.099   0.239  1.5166 -3.5043 -0.2207
  242MOL0     H31907   7.585   2.199   0.369 -0.6498  0.9164  0.4354
  242MOL0     H31908   8.081   2.099   0.233 -0.4298  0.3105 -1.0507
  242MOL0     H31909   8.309   2.074   0.311 -2.6884 -1.5863  0.9328
  242MOL0     H31910   8.532   2.086   0.408 -2.5610  0.0508  0.2002
  242MOL0     H31911   8.656   2.200   0.428 -1.6117  1.0772  0.7357
  242MOL0     H31912   8.668   2.228   0.162 -0.2241 -1.3310 -0.9226
  242MOL0     H31913   8.547   2.102   0.166 -0.4645 -1.6835  1.3800
  242MOL0     H31914   8.781   2.050   0.114 -2.3176 -0.0056  0.5677
  242MOL0     H31915   8.715   1.955   0.248 -2.0046  0.7618  2.0619
  242MOL0     H31916   8.931   2.177   0.262 -3.8116  0.9558 -0.7513
  242MOL0     H31917   8.851   2.126   0.410  1.7338 -0.0340  1.3996
  242MOL0     H31918   9.076   2.026   0.354  0.8250 -0.8695 -1.2681
  242MOL0     H31919   9.028   1.961   0.207  3.2104  2.7017  0.2556
  242MOL0     H31920   8.873   1.808   0.326  1.2179  0.2916 -2.5072
  242MOL0     H31921   8.922   1.880   0.482 -1.4407  0.9433  0.0023
  242MOL0     H31922   9.170   1.844   0.393  1.0126 -1.2771  2.7991
  242MOL0     H31923   9.091   1.717   0.484 -1.6302  1.1662  0.6301
  242MOL0     H31924   9.039   1.579   0.295  0.7554 -0.1803  1.9605
  242MOL0     H31925   9.207   1.629   0.272 -0.0681 -0.4485 -1.2428
  242MOL0     H31926   8.342   2.501   0.353  1.6682 -0.7815 -2.3859
  242MOL0     H31927   8.109   2.519   0.299  0.1725 -0.7863  1.7171
  242MOL0     H31928   7.801   2.349   0.001 -0.6262 -0.2274 -1.3506
  242MOL0     H31929   7.604   2.256  -0.127  1.1749  1.2999 -0.2997
  242MOL0     H31930   6.272   0.863   0.009  1.4312  0.1363 -0.3376
  242MOL0     H31931   6.236   0.657   0.180  1.2420  0.6935 -5.1620
  242MOL0     H31932   6.099   0.577   0.577 -0.1374  0.9707  1.3944
  242MOL0     H31933   5.997   0.413   0.716  0.0455  2.5220 -0.4387
  242MOL0     H31934   6.079   0.115   1.009 -0.9947 -5.5057  0.3714
  242MOL0     H31935   6.252   0.136   0.958  0.7373 -2.6545 -0.0313
  242MOL0     H31936   6.083  -0.053   0.810 -0.5834  5.9029 -2.6822
  242MOL0     H31937   6.257  -0.043   0.817 -0.6498  1.5616 -1.0057
  242MOL0     H31938   6.200  -0.243   0.932 -0.7252  0.7329 -1.9974
  242MOL0     H31939   6.108  -0.161   1.057  0.5311 -0.3630  0.5610
  242MOL0     H31940   6.399  -0.116   0.996 -2.6537  2.0861 -2.0881
  242MOL0     H31941   6.300  -0.028   1.113 -4.5205 -0.6106  0.8470
  242MOL0     H31942   6.353  -0.360   1.362  0.2042 -2.0505 -0.7537
  242MOL0     H31943   6.374   0.217   0.790 -0.5904  0.4633 -0.0526
  242MOL0     H31944   6.477   0.394   0.642  0.8496  1.4409  3.4552
  243MOL0     O31945   5.244   1.923   4.460 -0.3148  0.2124  0.0839
  243MOL0     C31946   5.260   1.799   4.454  0.3084 -0.7739 -0.4852
  243MOL0     O31947   5.205   1.702   4.547  0.1156 -0.1219  0.1097
  243MOL0     C31948   5.145   1.751   4.658 -0.3874 -0.0785  0.3709
  243MOL0     C31949   5.028   1.704   4.714  0.8965 -0.6827  0.0267
  243MOL0     C31950   4.975   1.754   4.832 -0.2208 -0.8684  0.6190
  243MOL0     C31951   5.059   1.841   4.911 -0.1964  0.2534 -0.0687
  243MOL0     O31952   5.042   1.887   5.041  0.2298  1.0042 -0.8906
  243MOL0     C31953   4.925   1.840   5.107  0.2302 -0.3002  0.0108
  243MOL0     C31954   4.879   1.948   5.220 -0.2081  0.0822  0.4229
  243MOL0     C31955   4.730   1.950   5.234  0.3998 -0.2012  0.6066
  243MOL0     C31956   4.671   1.817   5.264  0.6563 -0.1311 -0.1371
  243MOL0     C31957   4.517   1.840   5.268  0.1023  0.1576 -0.2242
  243MOL0     C31958   4.442   1.714   5.293 -0.3149  0.4246 -0.3865
  243MOL0     C31959   4.294   1.738   5.307  0.4836 -0.6816  0.5370
  243MOL0     C31960   4.228   1.611   5.360 -0.1689 -0.0298 -0.2344
  243MOL0     N31961   4.082   1.625   5.361 -0.2852 -0.1078 -0.1427
  243MOL0     C31962   3.992   1.622   5.467  1.3556 -0.0595 -1.0041
  243MOL0     C31963   3.868   1.636   5.415  0.0488 -0.2749  0.9214
  243MOL0     C31964   3.745   1.653   5.506 -0.8279  0.9308  0.1495
  243MOL0     C31965   3.628   1.589   5.423 -1.5018  0.0342 -0.1517
  243MOL0     C31966   3.488   1.612   5.485 -0.3855  0.4080 -0.5915
  243MOL0     C31967   3.382   1.524   5.418 -0.1694 -0.7117  0.0721
  243MOL0     O31968   3.260   1.532   5.492 -0.2786 -0.8487  0.3430
  243MOL0     C31969   3.146   1.457   5.466 -0.2659  0.1079 -0.3998
  243MOL0     C31970   3.146   1.385   5.350  0.6875  0.1235  0.3505
  243MOL0     C31971   3.031   1.305   5.322  0.0887 -0.6093 -0.7025
  243MOL0     C31972   2.920   1.310   5.403  0.5392  0.5593 -0.4066
  243MOL0     C31973   2.796   1.241   5.365  0.0242  0.7350 -0.1807
  243MOL0     O31974   2.691   1.236   5.454 -0.6787  0.2784  0.5245
  243MOL0     C31975   2.570   1.204   5.411  0.8537 -0.5682  0.1550
  243MOL0     C31976   2.493   1.099   5.468 -0.5777  0.4251 -0.0213
  243MOL0     C31977   2.365   1.075   5.418 -0.0404 -0.7707  0.1112
  243MOL0     C31978   2.311   1.169   5.325 -0.3539  1.0297  0.1646
  243MOL0     O31979   2.173   1.172   5.284 -0.5544 -0.0949  0.3098
  243MOL0     C31980   2.080   1.102   5.368 -0.5942  0.0302 -0.0031
  243MOL0     C31981   2.008   0.972   5.299  0.5597  0.7040  0.4041
  243MOL0     C31982   1.927   0.885   5.396  0.7980  0.1090  0.3497
  243MOL0     C31983   2.003   0.763   5.458  0.3165 -0.0991 -0.1061
  243MOL0     C31984   2.048   0.655   5.354 -0.6185  0.5233 -0.0493
  243MOL0     C31985   2.102   0.534   5.437 -0.9044 -0.1775  0.6941
  243MOL0     C31986   2.135   0.420   5.342  0.5080 -0.4091 -0.2400
  243MOL0     C31987   2.031   0.309   5.360 -0.1389 -0.4819  0.1428
  243MOL0    Cl31988   2.080   0.212   5.508  0.1904 -0.0257  0.7514
  243MOL0     C31989   2.383   1.264   5.267  0.5892  0.4626  0.1369
  243MOL0     C31990   2.511   1.275   5.300 -0.7475 -0.4621 -0.8741
  243MOL0     O31991   2.805   1.164   5.267  0.2931 -0.9028 -0.1654
  243MOL0     C31992   2.915   1.396   5.507 -0.6078 -0.3535  0.8435
  243MOL0     C31993   3.024   1.475   5.544  0.1195  0.7210 -0.0132
  243MOL0     N31994   3.880   1.657   5.278 -0.3040  0.1172  0.0710
  243MOL0     N31995   4.010   1.641   5.246 -0.9572 -0.4089  0.1634
  243MOL0     C31996   5.173   1.883   4.859  0.2379  0.2955  0.3100
  243MOL0     C31997   5.212   1.846   4.731 -0.2397 -0.9745  0.3977
  243MOL0     C31998   5.334   1.735   4.338 -0.2636 -0.2843  0.3691
  243MOL0     C31999   5.350   1.785   4.209 -0.7159 -0.2150  0.2629
  243MOL0     C32000   5.429   1.720   4.105 -0.8543 -0.0758 -0.4103
  243MOL0     C32001   5.481   1.591   4.136  0.9009 -0.5533 -0.0876
  243MOL0     O32002   5.551   1.542   4.029 -0.4642  0.1290 -0.2080
  243MOL0     C32003   5.603   1.407   4.042  0.1664  0.0150  0.3558
  243MOL0     C32004   5.503   1.314   3.976 -0.1487 -0.1647  0.1150
  243MOL0     C32005   5.488   1.324   3.822 -0.3888 -0.2255 -1.0277
  243MOL0     C32006   5.372   1.254   3.755  0.2758 -0.7302 -0.6171
  243MOL0     C32007   5.367   1.112   3.816 -0.2073  0.0917 -0.7521
  243MOL0     C32008   5.372   0.997   3.863 -0.5526 -0.2094  0.0053
  243MOL0     C32009   5.454   1.541   4.259  0.3127 -0.2446 -0.5446
  243MOL0     C32010   5.390   1.612   4.359  0.5480  0.6374 -0.3356
  243MOL0     H32011   4.982   1.635   4.644  3.1998 -0.0502 -2.2817
  243MOL0     H32012   4.873   1.722   4.850 -0.8723  1.1247  0.7993
  243MOL0     H32013   4.938   1.738   5.144 -1.9041 -0.9396 -0.8493
  243MOL0     H32014   4.843   1.839   5.034  2.0748 -0.3644 -2.1876
  243MOL0     H32015   4.911   2.049   5.196  0.4362  0.0126  0.9771
  243MOL0     H32016   4.936   1.923   5.310  0.6033  0.8208  0.1198
  243MOL0     H32017   4.699   1.991   5.138 -1.2136  0.5177  1.4023
  243MOL0     H32018   4.709   2.023   5.313  0.2735 -0.7042  1.0411
  243MOL0     H32019   4.680   1.739   5.188  1.6363 -3.2250  2.8846
  243MOL0     H32020   4.707   1.772   5.357 -0.7053  2.7898  1.9788
  243MOL0     H32021   4.484   1.902   5.184 -1.3872  0.1867  0.3651
  243MOL0     H32022   4.498   1.891   5.363 -1.7096 -3.4150  1.5003
  243MOL0     H32023   4.482   1.674   5.386  0.8868  0.1675 -0.9925
  243MOL0     H32024   4.464   1.640   5.215 -1.6617 -0.8431  0.3901
  243MOL0     H32025   4.278   1.816   5.382  2.7832  0.0271  0.3603
  243MOL0     H32026   4.246   1.763   5.212  0.6600 -0.4926  0.4960
  243MOL0     H32027   4.264   1.605   5.464 -3.1363  1.4273  1.0151
  243MOL0     H32028   4.262   1.537   5.288  2.4819  3.6950 -3.2723
  243MOL0     H32029   4.012   1.615   5.574 -1.4184 -0.9314 -0.4614
  243MOL0     H32030   3.746   1.761   5.521 -2.1034  1.2287 -1.4922
  243MOL0     H32031   3.755   1.612   5.607  0.7489  2.4606  0.6585
  243MOL0     H32032   3.642   1.480   5.427  2.6994  0.3271 -1.3838
  243MOL0     H32033   3.631   1.633   5.323  0.2326  2.0245  0.7116
  243MOL0     H32034   3.497   1.580   5.589  0.4795  1.5589 -0.2944
  243MOL0     H32035   3.468   1.719   5.473 -0.1629  0.2718 -2.5627
  243MOL0     H32036   3.426   1.423   5.426  0.4258 -0.4830 -0.2267
  243MOL0     H32037   3.365   1.533   5.310 -0.9489 -0.0786  0.2377
  243MOL0     H32038   3.230   1.379   5.282 -0.1667  1.4839 -0.8975
  243MOL0     H32039   3.034   1.243   5.234  0.0814  1.3585 -2.1614
  243MOL0     H32040   2.555   1.038   5.532 -1.3230 -2.9507 -2.2349
  243MOL0     H32041   2.308   0.987   5.448  0.0441 -1.4482 -1.6359
  243MOL0     H32042   2.003   1.175   5.396  2.8052  3.3563  1.5869
  243MOL0     H32043   2.128   1.075   5.462 -0.7432  0.5750  0.2356
  243MOL0     H32044   2.083   0.912   5.246  1.0961  1.4592  0.2985
  243MOL0     H32045   1.927   1.004   5.232 -0.9218 -0.0566  1.7604
  243MOL0     H32046   1.849   0.839   5.334  1.6276 -2.2555  0.9387
  243MOL0     H32047   1.875   0.955   5.462  0.2306 -0.5481  0.6127
  243MOL0     H32048   2.081   0.801   5.525 -2.4090  3.3605  1.4456
  243MOL0     H32049   1.921   0.721   5.517 -0.8579  0.3529 -1.3610
  243MOL0     H32050   2.138   0.685   5.299 -1.7508  3.8382 -0.3146
  243MOL0     H32051   1.966   0.618   5.292 -0.1740 -0.0806 -0.2865
  243MOL0     H32052   2.042   0.504   5.523 -0.5495 -0.7273  0.7536
  243MOL0     H32053   2.193   0.572   5.487  0.3263 -1.2959 -0.6203
  243MOL0     H32054   2.140   0.449   5.237 -0.8931 -0.1907 -0.2619
  243MOL0     H32055   2.230   0.374   5.374  1.1403  0.8930 -0.1886
  243MOL0     H32056   2.033   0.241   5.274 -1.5208 -0.2622 -0.0988
  243MOL0     H32057   1.934   0.355   5.380  0.1207  0.5440 -0.8400
  243MOL0     H32058   2.347   1.339   5.197 -1.4201 -1.3451 -0.8825
  243MOL0     H32059   2.562   1.358   5.253  2.0682  0.0154  2.5991
  243MOL0     H32060   2.830   1.394   5.574  0.0150 -1.2612  1.6385
  243MOL0     H32061   3.014   1.546   5.626 -0.0814  0.6664  0.0116
  243MOL0     H32062   5.220   1.965   4.912  0.8251 -0.0765  0.3684
  243MOL0     H32063   5.304   1.880   4.685  1.0469 -2.7149  1.5445
  243MOL0     H32064   5.302   1.881   4.189  0.0618  0.0880 -0.2578
  243MOL0     H32065   5.465   1.746   4.006  2.2244 -3.2810 -0.3703
  243MOL0     H32066   5.630   1.372   4.142  0.6898 -4.5011 -1.1480
  243MOL0     H32067   5.703   1.399   3.997  1.8959 -1.4311  4.0221
  243MOL0     H32068   5.528   1.210   3.997  2.4028  0.3637  0.0737
  243MOL0     H32069   5.411   1.342   4.027 -1.4697  1.2960 -2.8339
  243MOL0     H32070   5.576   1.280   3.774 -1.1883 -0.6825 -2.1409
  243MOL0     H32071   5.489   1.431   3.798  1.8173 -0.0919 -0.4843
  243MOL0     H32072   5.280   1.311   3.770  1.9454  2.7096 -2.4726
  243MOL0     H32073   5.382   1.241   3.647 -1.7167 -2.4197 -0.6660
  243MOL0     H32074   5.380   0.894   3.893  0.7415 -0.3941 -0.8859
  243MOL0     H32075   5.498   1.449   4.296  3.4194  1.8334  1.3791
  243MOL0     H32076   5.371   1.562   4.453  1.0495  2.7058  0.9239
  244MOL0     O32077   4.852   9.542   0.612 -0.8388 -0.1191 -0.1399
  244MOL0     C32078   4.863   9.664   0.638 -0.1558 -0.9229  0.6415
  244MOL0     O32079   4.958   9.752   0.577 -0.0391 -0.7458 -0.3847
  244MOL0     C32080   5.041   9.705   0.480  0.0271 -0.1462 -0.1449
  244MOL0     C32081   5.108   9.584   0.476 -1.3406  0.3037 -1.0283
  244MOL0     C32082   5.199   9.555   0.374 -0.1923 -0.0418  0.6565
  244MOL0     C32083   5.206   9.648   0.267  0.2409 -0.3924 -0.7893
  244MOL0     O32084   5.292   9.610   0.169  1.0977  0.0536  0.1873
  244MOL0     C32085   5.310   9.708   0.058  0.8037 -0.3763 -0.2773
  244MOL0     C32086   5.393   9.667  -0.061  0.5031 -0.3659 -1.0138
  244MOL0     C32087   5.320   9.544  -0.121  0.3860 -1.1282 -0.2438
  244MOL0     C32088   5.404   9.489  -0.244  0.3313  0.3068 -0.1033
  244MOL0     C32089   5.360   9.556  -0.365  1.0444 -0.0961 -0.6737
  244MOL0     C32090   5.430   9.483  -0.476 -0.7719 -0.0706 -0.1196
  244MOL0     C32091   5.569   9.550  -0.516 -0.3696  0.0364 -0.4275
  244MOL0     C32092   5.615   9.490  -0.644  0.4863  0.1196  0.3095
  244MOL0     N32093   5.731   9.572  -0.688  0.2435  0.3072 -0.8631
  244MOL0     C32094   5.713   9.708  -0.729  0.0445  0.2586  0.7587
  244MOL0     C32095   5.844   9.748  -0.736 -0.1886 -0.6150  0.3050
  244MOL0     C32096   5.897   9.891  -0.778 -0.7217  0.0322 -0.2654
  244MOL0     C32097   5.853   9.911  -0.924  0.3325 -0.7725 -0.3697
  244MOL0     C32098   5.916  10.037  -0.990 -0.5460  0.0762  0.7389
  244MOL0     C32099   5.879  10.172  -0.950  0.9145 -1.6816  0.4216
  244MOL0     O32100   5.785  10.195  -0.844  1.2961 -0.2996  0.0011
  244MOL0     C32101   5.653  10.199  -0.871  0.4457  0.0286  0.2792
  244MOL0     C32102   5.592  10.168  -0.992  1.0278  0.7183  0.2794
  244MOL0     C32103   5.455  10.161  -1.001  0.4864 -0.2148 -0.3038
  244MOL0     C32104   5.366  10.178  -0.889 -0.7988  0.0391  0.2859
  244MOL0     C32105   5.217  10.187  -0.916 -0.7191 -0.5447  0.7974
  244MOL0     O32106   5.175  10.108  -1.019  0.1997  0.2715  0.0316
  244MOL0     C32107   5.057  10.110  -1.084  0.9668  0.7936 -0.0352
  244MOL0     C32108   4.936  10.178  -1.054 -0.5812 -0.0061 -0.1716
  244MOL0     C32109   4.819  10.154  -1.126  0.7851 -0.0625 -0.0932
  244MOL0     C32110   4.822  10.061  -1.225  0.5350  0.2048  0.8726
  244MOL0     O32111   4.707  10.009  -1.286 -0.1849 -0.0571  0.0445
  244MOL0     C32112   4.592  10.096  -1.297  0.1619 -1.3470 -0.3315
  244MOL0     C32113   4.497  10.039  -1.389  0.7204  0.1545 -0.5087
  244MOL0     C32114   4.548  10.072  -1.533  1.2035  0.3318 -0.0952
  244MOL0     C32115   4.456  10.002  -1.633 -0.0119 -0.0356 -1.2075
  244MOL0     C32116   4.467  10.048  -1.777 -0.0536 -0.3153  0.1877
  244MOL0     C32117   4.340  10.019  -1.867 -0.4214 -0.3706 -0.7820
  244MOL0     C32118   4.318  10.118  -1.978  0.3947  0.3141 -0.1690
  244MOL0     C32119   4.173  10.093  -2.051  0.4797  0.1111 -0.2633
  244MOL0    Cl32120   4.148   9.931  -2.119  0.1492  0.2374  0.4781
  244MOL0     C32121   4.942  10.013  -1.269 -0.7174  0.0716 -0.4008
  244MOL0     C32122   5.059  10.027  -1.199 -0.0917  0.5976 -0.1238
  244MOL0     O32123   5.146  10.258  -0.845  0.2920 -0.1105 -0.0485
  244MOL0     C32124   5.428  10.211  -0.762 -0.0171  0.1092 -0.5602
  244MOL0     C32125   5.569  10.215  -0.749 -0.5516  0.5970 -0.4653
  244MOL0     N32126   5.930   9.649  -0.687 -0.3133 -0.7163 -0.1114
  244MOL0     N32127   5.860   9.547  -0.660 -0.7928  0.3622 -0.4387
  244MOL0     C32128   5.118   9.767   0.260 -0.3747  0.7520 -0.9195
  244MOL0     C32129   5.034   9.792   0.370 -0.3982 -0.5787 -0.6228
  244MOL0     C32130   4.748   9.726   0.718 -1.2605  0.1364  0.9716
  244MOL0     C32131   4.646   9.648   0.762 -0.4349  0.4861  0.4098
  244MOL0     C32132   4.544   9.707   0.841 -0.7744 -0.2767  0.1102
  244MOL0     C32133   4.536   9.839   0.873  0.3089 -0.4837 -0.4031
  244MOL0     O32134   4.417   9.887   0.937  0.7359 -0.1121 -0.0450
  244MOL0     C32135   4.425  10.016   1.004 -0.2242 -0.2301 -0.3341
  244MOL0     C32136   4.517  10.029   1.117 -0.5684  0.7691 -0.2381
  244MOL0     C32137   4.463   9.959   1.245 -0.7238  0.8137 -0.6925
  244MOL0     C32138   4.566   9.958   1.357  0.8782  0.4003 -0.3983
  244MOL0     C32139   4.691   9.900   1.315 -0.7372 -0.5700 -0.2187
  244MOL0     C32140   4.792   9.837   1.307 -0.1776 -0.8470  0.4735
  244MOL0     C32141   4.643   9.919   0.826  0.2015  0.5350 -0.0724
  244MOL0     C32142   4.746   9.861   0.741 -0.2371  0.0919 -0.7388
  244MOL0     H32143   5.116   9.513   0.558  2.1871  0.2792 -1.2522
  244MOL0     H32144   5.249   9.459   0.371 -1.3471 -0.6417 -0.4013
  244MOL0     H32145   5.367   9.795   0.093  1.2497 -0.2299 -1.3235
  244MOL0     H32146   5.213   9.733   0.014  0.3929  1.2511  1.4022
  244MOL0     H32147   5.496   9.662  -0.025  1.0930  1.6059 -2.2892
  244MOL0     H32148   5.393   9.745  -0.137 -4.4801 -2.0965 -3.2484
  244MOL0     H32149   5.219   9.573  -0.154  0.9487  0.5311 -0.5709
  244MOL0     H32150   5.306   9.468  -0.043  3.3472  2.3099  4.0608
  244MOL0     H32151   5.512   9.498  -0.235  0.6344 -0.6739 -2.1671
  244MOL0     H32152   5.376   9.383  -0.253  3.0984 -0.4824 -0.1045
  244MOL0     H32153   5.384   9.663  -0.368  0.4227  0.0600 -0.1186
  244MOL0     H32154   5.253   9.534  -0.370  1.6209 -3.9590  0.6019
  244MOL0     H32155   5.366   9.498  -0.563 -0.5252  0.5208 -0.2076
  244MOL0     H32156   5.440   9.376  -0.459 -3.6238 -1.1445 -3.7114
  244MOL0     H32157   5.558   9.658  -0.532 -1.2612 -0.1182 -0.8572
  244MOL0     H32158   5.634   9.535  -0.429 -0.4558  0.5680 -0.2635
  244MOL0     H32159   5.547   9.516  -0.726  0.6642  4.1904  1.2283
  244MOL0     H32160   5.645   9.385  -0.638  1.1080  0.3322  0.9817
  244MOL0     H32161   5.629   9.767  -0.762 -0.9120  0.6606  3.6376
  244MOL0     H32162   6.006   9.887  -0.765 -0.9532  2.4416  5.1046
  244MOL0     H32163   5.867   9.973  -0.712  1.7140 -0.3912  1.5382
  244MOL0     H32164   5.744   9.918  -0.930  0.3716 -1.2374 -2.2759
  244MOL0     H32165   5.867   9.820  -0.984 -0.8716 -1.3392  0.1687
  244MOL0     H32166   6.024  10.029  -0.974  0.2416  0.7709 -3.1639
  244MOL0     H32167   5.897  10.032  -1.098  0.6877 -2.2901  0.5669
  244MOL0     H32168   5.842  10.234  -1.032  0.7122 -1.7798  0.4387
  244MOL0     H32169   5.963  10.232  -0.914 -0.5979  2.2810 -2.0545
  244MOL0     H32170   5.664  10.147  -1.071  1.2206  3.6247 -0.4537
  244MOL0     H32171   5.412  10.125  -1.094 -3.2014 -2.5095  2.0229
  244MOL0     H32172   4.930  10.252  -0.975  0.9722  0.8254 -0.7852
  244MOL0     H32173   4.726  10.198  -1.091  0.8160 -1.7748  2.4174
  244MOL0     H32174   4.627  10.196  -1.325 -1.1031 -0.0506  2.3040
  244MOL0     H32175   4.541  10.111  -1.201 -1.7114 -5.3567 -0.4893
  244MOL0     H32176   4.408  10.100  -1.375  0.5880 -0.4411  1.6561
  244MOL0     H32177   4.468   9.934  -1.377 -1.7579  0.5440 -2.2595
  244MOL0     H32178   4.644  10.020  -1.534  0.8383 -0.5154  2.4695
  244MOL0     H32179   4.555  10.181  -1.541  0.3493  0.6577  2.7128
  244MOL0     H32180   4.457   9.892  -1.626 -0.7731 -0.3782 -4.6935
  244MOL0     H32181   4.351  10.028  -1.614  0.5938  2.4280 -1.0168
  244MOL0     H32182   4.553   9.998  -1.822 -0.2428 -1.5874  1.2139
  244MOL0     H32183   4.478  10.157  -1.778  1.1883 -0.4312 -0.0565
  244MOL0     H32184   4.248  10.015  -1.808 -1.5901 -2.8953 -2.5599
  244MOL0     H32185   4.355   9.923  -1.916 -1.6581 -0.0912 -1.7644
  244MOL0     H32186   4.331  10.220  -1.941  0.4797  0.4898 -0.6747
  244MOL0     H32187   4.399  10.105  -2.050  0.0926 -4.1349 -0.0253
  244MOL0     H32188   4.148  10.168  -2.126  1.1605  1.5544  0.8793
  244MOL0     H32189   4.091  10.103  -1.979 -1.2393 -2.0342 -1.8030
  244MOL0     H32190   4.940   9.935  -1.344 -2.6777  0.5462 -0.9145
  244MOL0     H32191   5.154   9.977  -1.218 -0.3236 -1.1682  2.8459
  244MOL0     H32192   5.368  10.233  -0.675 -1.2323  0.0211 -1.3583
  244MOL0     H32193   5.621  10.229  -0.655 -0.5685 -0.3979 -0.2989
  244MOL0     H32194   5.123   9.828   0.170  0.8347 -1.8702 -2.7804
  244MOL0     H32195   4.976   9.884   0.370  2.3749  1.2956 -0.6946
  244MOL0     H32196   4.619   9.546   0.736 -3.6731  0.6456  2.5788
  244MOL0     H32197   4.462   9.645   0.876 -1.6528  0.3919 -0.7318
  244MOL0     H32198   4.324  10.042   1.037  0.0449 -0.3783  0.6317
  244MOL0     H32199   4.455  10.092   0.932 -1.9830  1.1699  0.3289
  244MOL0     H32200   4.615   9.993   1.086  0.0839  0.8247  1.6487
  244MOL0     H32201   4.554  10.130   1.137  2.3394 -0.2535  0.0616
  244MOL0     H32202   4.421   9.868   1.202 -2.7247  1.7676 -0.8528
  244MOL0     H32203   4.382  10.024   1.277 -0.0447  1.4215 -0.1748
  244MOL0     H32204   4.587  10.059   1.392 -1.1521  0.4844  0.7609
  244MOL0     H32205   4.532   9.902   1.445 -0.6883  1.2442 -0.4241
  244MOL0     H32206   4.873   9.770   1.293 -0.0700 -0.2819 -1.9589
  244MOL0     H32207   4.661  10.025   0.840  0.6973  0.1895  2.3422
  244MOL0     H32208   4.819   9.929   0.700 -0.1686  1.2810  1.2369
  245MOL0     O32209   4.774   5.086   4.417  0.3794 -0.3867  0.5107
  245MOL0     C32210   4.766   5.167   4.510  0.8762  0.3032 -0.4179
  245MOL0     O32211   4.654   5.212   4.562  0.7028  0.3804  0.3806
  245MOL0     C32212   4.534   5.145   4.533  0.5240  0.2476  0.5565
  245MOL0     C32213   4.479   5.044   4.611  0.1930  0.2703  0.1491
  245MOL0     C32214   4.375   4.955   4.567  0.4177  0.2459  0.3993
  245MOL0     C32215   4.313   4.964   4.440 -0.8513  0.3865  0.7541
  245MOL0     O32216   4.228   4.873   4.387 -0.5033  0.2395  0.6428
  245MOL0     C32217   4.102   4.855   4.461 -0.4433  0.3997 -0.1660
  245MOL0     C32218   3.985   4.917   4.395  0.1352 -0.4626 -0.3408
  245MOL0     C32219   3.982   4.878   4.255 -0.6423 -0.6281 -0.7011
  245MOL0     C32220   3.858   4.948   4.196 -0.4242 -0.5028 -0.4529
  245MOL0     C32221   3.739   4.851   4.183  0.0775 -0.8079 -0.3132
  245MOL0     C32222   3.752   4.743   4.074  0.1299 -0.2537 -0.2207
  245MOL0     C32223   3.611   4.703   4.022  0.5418 -0.0003  0.4841
  245MOL0     C32224   3.629   4.587   3.925  0.1382 -0.3878 -0.5162
  245MOL0     N32225   3.498   4.535   3.880  0.8774 -0.9607 -0.2304
  245MOL0     C32226   3.416   4.576   3.781 -0.4857  0.2914 -1.4275
  245MOL0     C32227   3.299   4.519   3.800  1.0264  0.6365  0.6097
  245MOL0     C32228   3.161   4.522   3.720 -0.5552  0.7363  0.8969
  245MOL0     C32229   3.137   4.666   3.689 -0.2517 -0.6194 -0.4327
  245MOL0     C32230   2.995   4.685   3.668  1.0162  0.1808  0.2170
  245MOL0     C32231   2.972   4.815   3.576  0.0274  0.8399  0.3018
  245MOL0     O32232   2.840   4.881   3.582  0.2249  0.2365  0.0725
  245MOL0     C32233   2.730   4.845   3.497  0.1733 -0.7600  0.0685
  245MOL0     C32234   2.714   4.718   3.439 -0.1071 -0.3232  0.0113
  245MOL0     C32235   2.586   4.698   3.373  0.1449  0.3731 -0.1866
  245MOL0     C32236   2.479   4.783   3.374 -0.0341  0.3501  0.4132
  245MOL0     C32237   2.348   4.763   3.315 -0.8492  0.3989 -0.4470
  245MOL0     O32238   2.256   4.858   3.322 -0.2318 -0.5544  0.1567
  245MOL0     C32239   2.116   4.831   3.342 -0.1681  0.6384  0.9970
  245MOL0     C32240   2.027   4.938   3.327 -0.2818 -0.2251 -0.0415
  245MOL0     C32241   1.887   4.913   3.344 -0.6043 -0.8357 -0.0990
  245MOL0     C32242   1.847   4.794   3.394 -0.2450  0.1419 -1.3332
  245MOL0     O32243   1.715   4.778   3.420  0.1856  0.8746  0.0792
  245MOL0     C32244   1.645   4.684   3.341 -0.8583 -0.1094 -0.2834
  245MOL0     C32245   1.491   4.685   3.352 -0.2252  0.2473 -0.1216
  245MOL0     C32246   1.433   4.679   3.497 -0.5673 -0.0564  1.2348
  245MOL0     C32247   1.281   4.699   3.482  0.4164 -0.2375 -0.7030
  245MOL0     C32248   1.209   4.751   3.612 -0.9896 -0.6860  0.2283
  245MOL0     C32249   1.105   4.852   3.571 -0.1574  0.7579 -0.0500
  245MOL0     C32250   1.043   4.897   3.711  0.2485  0.0713  0.5024
  245MOL0     C32251   0.903   4.959   3.701 -0.7053  0.8714  1.1128
  245MOL0    Cl32252   0.857   5.000   3.867  0.1872 -0.1817  0.4451
  245MOL0     C32253   1.934   4.686   3.411 -0.2634 -0.1518 -0.3231
  245MOL0     C32254   2.067   4.708   3.385  0.6092 -0.0095 -1.0045
  245MOL0     O32255   2.328   4.657   3.251  0.3541 -0.6411  0.0904
  245MOL0     C32256   2.495   4.898   3.443 -0.5310 -0.5430 -0.3622
  245MOL0     C32257   2.614   4.929   3.510 -0.0637  0.3426  0.3700
  245MOL0     N32258   3.304   4.438   3.913 -0.8622  0.8374  0.0749
  245MOL0     N32259   3.428   4.441   3.955 -0.1522 -0.1060  0.0866
  245MOL0     C32260   4.361   5.078   4.365 -1.1816 -0.8615 -0.3369
  245MOL0     C32261   4.473   5.153   4.408 -0.1562 -0.0434  0.6098
  245MOL0     C32262   4.887   5.192   4.591  0.3288 -0.5131  0.1554
  245MOL0     C32263   5.017   5.154   4.555 -1.1211 -0.2033 -0.5818
  245MOL0     C32264   5.127   5.170   4.633  1.2239  0.6089  0.4383
  245MOL0     C32265   5.114   5.233   4.752  0.2201  0.9729 -0.2101
  245MOL0     O32266   5.221   5.242   4.839  0.7302 -1.2462 -0.8073
  245MOL0     C32267   5.347   5.216   4.792 -0.0020 -0.2748  1.0695
  245MOL0     C32268   5.464   5.284   4.873  0.4730  0.3180 -0.1740
  245MOL0     C32269   5.442   5.429   4.910  1.1534 -0.1776  0.0594
  245MOL0     C32270   5.464   5.517   4.787 -0.1885  0.6308  0.8790
  245MOL0     C32271   5.606   5.537   4.778  0.3744 -0.2747 -0.2657
  245MOL0     C32272   5.723   5.555   4.749 -0.0274 -0.2972 -0.4604
  245MOL0     C32273   4.994   5.292   4.786 -0.7191 -0.4197 -0.1120
  245MOL0     C32274   4.874   5.275   4.709  0.8656  1.0086  0.1676
  245MOL0     H32275   4.537   5.027   4.701 -0.7361 -0.7842  0.5771
  245MOL0     H32276   4.361   4.874   4.637  0.3365  0.8966  1.1532
  245MOL0     H32277   4.119   4.895   4.562  0.6582 -0.2401 -0.0911
  245MOL0     H32278   4.083   4.748   4.462  3.0802 -0.3517  1.7550
  245MOL0     H32279   4.009   5.022   4.417  1.5454 -1.0399  0.9961
  245MOL0     H32280   3.892   4.889   4.446  0.9467  0.5819  1.8300
  245MOL0     H32281   3.974   4.769   4.249  1.2858 -0.7950 -0.9572
  245MOL0     H32282   4.072   4.911   4.202  0.6803 -1.4593  0.9290
  245MOL0     H32283   3.837   5.034   4.260  6.3363  0.2966  1.4289
  245MOL0     H32284   3.879   4.992   4.098  1.8599  0.6033  0.4483
  245MOL0     H32285   3.649   4.910   4.163  2.0858  2.5122 -0.1795
  245MOL0     H32286   3.715   4.808   4.281 -1.6798 -4.1892 -2.0304
  245MOL0     H32287   3.816   4.666   4.119  0.4445  0.8837  1.3777
  245MOL0     H32288   3.804   4.795   3.993  0.9965  3.8621  2.6766
  245MOL0     H32289   3.559   4.657   4.106 -0.6722  0.0496 -0.2242
  245MOL0     H32290   3.556   4.789   3.982  2.9891  2.4894  2.1166
  245MOL0     H32291   3.683   4.507   3.977  0.0529 -0.4941 -0.5900
  245MOL0     H32292   3.682   4.622   3.835  1.0342  0.4658  0.3246
  245MOL0     H32293   3.452   4.647   3.706 -1.0832  0.1221 -1.8870
  245MOL0     H32294   3.090   4.466   3.781 -1.5076  1.3958  0.4169
  245MOL0     H32295   3.175   4.464   3.629  0.0971  1.7692  0.3199
  245MOL0     H32296   3.188   4.688   3.595  1.4577 -1.7515  0.1590
  245MOL0     H32297   3.171   4.727   3.774 -2.1755 -0.1954  0.0838
  245MOL0     H32298   2.946   4.597   3.625  3.4237 -1.1702  0.0715
  245MOL0     H32299   2.940   4.688   3.762 -3.7343 -2.9066 -2.0954
  245MOL0     H32300   3.007   4.799   3.474  0.0924 -0.0947  0.4588
  245MOL0     H32301   3.039   4.893   3.614 -0.4813  2.4584 -1.9058
  245MOL0     H32302   2.780   4.632   3.439 -3.3177 -2.9884 -0.2857
  245MOL0     H32303   2.567   4.598   3.335 -0.4734 -0.1531  1.4081
  245MOL0     H32304   2.065   5.034   3.293 -0.8285  0.6086  1.6096
  245MOL0     H32305   1.810   4.983   3.315  2.3281  2.8551  0.1884
  245MOL0     H32306   1.683   4.587   3.376 -2.6447 -0.3816  1.0237
  245MOL0     H32307   1.659   4.709   3.236 -2.9173  2.4391 -0.0343
  245MOL0     H32308   1.454   4.596   3.300 -4.6003  0.9039  1.4515
  245MOL0     H32309   1.457   4.775   3.301 -2.0629 -1.2441 -1.7156
  245MOL0     H32310   1.474   4.765   3.551  2.7928 -1.1504  0.6525
  245MOL0     H32311   1.461   4.586   3.547  0.4156  0.4373  1.6204
  245MOL0     H32312   1.275   4.771   3.399 -0.8730 -1.4152 -1.6794
  245MOL0     H32313   1.235   4.608   3.444 -2.0905  0.8342 -0.4220
  245MOL0     H32314   1.276   4.809   3.676 -2.1123  3.4714 -1.9494
  245MOL0     H32315   1.172   4.667   3.672 -0.0988 -1.4889 -0.3104
  245MOL0     H32316   1.026   4.799   3.517 -0.6306  1.2572  0.1469
  245MOL0     H32317   1.135   4.934   3.505 -3.0462  1.1013 -1.0862
  245MOL0     H32318   1.051   4.819   3.787  0.5050  1.2212  1.7201
  245MOL0     H32319   1.116   4.972   3.744  1.8760 -1.2377  0.0090
  245MOL0     H32320   0.837   4.887   3.654  2.2979 -0.7941 -0.9070
  245MOL0     H32321   0.903   5.045   3.634 -1.4498  2.1836  2.7169
  245MOL0     H32322   1.893   4.594   3.451  2.5330 -0.2220  2.7922
  245MOL0     H32323   2.142   4.633   3.406  0.9814  0.4047 -0.8642
  245MOL0     H32324   2.425   4.977   3.468 -1.1129  0.2638 -4.0469
  245MOL0     H32325   2.621   5.021   3.568  0.9907  1.4490 -1.4309
  245MOL0     H32326   4.326   5.103   4.265 -1.5937  1.2800  0.2822
  245MOL0     H32327   4.519   5.218   4.334 -2.0967 -0.8751 -1.4216
  245MOL0     H32328   5.027   5.105   4.459 -1.1754 -0.0966 -0.6432
  245MOL0     H32329   5.204   5.102   4.599 -0.8186 -2.1712  0.9789
  245MOL0     H32330   5.356   5.242   4.686  1.8182 -0.0074  1.2575
  245MOL0     H32331   5.365   5.108   4.801  2.0171  0.0726  1.6131
  245MOL0     H32332   5.461   5.225   4.965 -0.6971  0.1256 -0.3161
  245MOL0     H32333   5.560   5.271   4.823  0.7406 -1.7681  0.7721
  245MOL0     H32334   5.501   5.453   4.999 -0.4222  2.2180  0.5749
  245MOL0     H32335   5.338   5.440   4.944  1.0172  0.0187 -0.4170
  245MOL0     H32336   5.420   5.471   4.698  0.1884  0.7675  0.6197
  245MOL0     H32337   5.402   5.607   4.792  3.8346  3.7925 -0.3182
  245MOL0     H32338   5.830   5.561   4.743  0.2395 -0.2864  2.7297
  245MOL0     H32339   4.978   5.362   4.868  3.0569  0.7618 -0.2088
  245MOL0     H32340   4.778   5.318   4.736  0.6992  1.0936 -0.5370
  246MOL0     O32341   2.820   6.014   3.153 -0.1172  0.3229 -0.6424
  246MOL0     C32342   2.821   5.962   3.040 -0.4571 -0.3828  0.2209
  246MOL0     O32343   2.877   6.019   2.926 -0.3613 -0.5523 -0.6630
  246MOL0     C32344   2.925   6.146   2.951 -0.2260  0.1476 -0.1416
  246MOL0     C32345   2.854   6.256   2.896 -0.4945 -0.0107 -0.2449
  246MOL0     C32346   2.905   6.381   2.910  0.1903 -0.1405  0.4057
  246MOL0     C32347   3.022   6.404   2.985 -0.4109 -0.3867 -0.0937
  246MOL0     O32348   3.072   6.530   3.006  0.4545 -0.3889 -0.3931
  246MOL0     C32349   3.009   6.640   2.934  0.2345  0.8459 -0.1995
  246MOL0     C32350   3.093   6.761   2.953 -0.3346 -0.8013  0.2187
  246MOL0     C32351   3.010   6.886   2.910 -0.8379  0.0791 -0.0828
  246MOL0     C32352   3.094   7.002   2.888 -0.1117 -0.2808  0.2334
  246MOL0     C32353   3.010   7.134   2.898 -0.1983  0.3090 -0.9073
  246MOL0     C32354   2.917   7.170   2.783  0.6181 -0.8686 -0.1501
  246MOL0     C32355   2.794   7.253   2.810 -0.3138 -1.5799  0.6573
  246MOL0     C32356   2.830   7.397   2.868  0.1195  0.7260  0.4224
  246MOL0     N32357   2.788   7.405   3.010 -0.1274  0.4437 -0.2610
  246MOL0     C32358   2.663   7.427   3.072 -0.8663  0.4952 -0.0270
  246MOL0     C32359   2.700   7.445   3.202  0.5265 -0.8149 -0.9293
  246MOL0     C32360   2.589   7.468   3.304 -0.2895  0.3549  0.4810
  246MOL0     C32361   2.574   7.340   3.398 -0.0710  0.5683 -0.2110
  246MOL0     C32362   2.440   7.356   3.466  0.0814  0.0328 -0.3562
  246MOL0     C32363   2.417   7.258   3.576 -0.7487  0.0104 -0.6414
  246MOL0     O32364   2.325   7.303   3.678  0.2058 -0.2464 -0.0728
  246MOL0     C32365   2.201   7.346   3.639 -0.1450 -0.3701  0.0423
  246MOL0     C32366   2.152   7.473   3.672  0.3608  0.2762  0.0514
  246MOL0     C32367   2.027   7.519   3.632  0.0495  0.1213 -0.9138
  246MOL0     C32368   1.940   7.426   3.559  0.1806 -0.4111 -0.2694
  246MOL0     C32369   1.804   7.475   3.511 -0.7936  0.2766 -0.0472
  246MOL0     O32370   1.767   7.599   3.553 -0.0701  0.8904 -0.7069
  246MOL0     C32371   1.652   7.659   3.510 -0.6813  0.1668  1.2037
  246MOL0     C32372   1.579   7.723   3.617  0.1678 -0.6351  0.7689
  246MOL0     C32373   1.466   7.800   3.584 -0.5163  0.1673 -0.0417
  246MOL0     C32374   1.422   7.810   3.449 -0.6753 -0.6819  0.1748
  246MOL0     O32375   1.302   7.877   3.408 -1.0528  0.6248 -0.6250
  246MOL0     C32376   1.233   7.954   3.508 -0.0001 -0.4307 -0.1034
  246MOL0     C32377   1.102   8.011   3.441 -0.2944  0.3598 -0.9713
  246MOL0     C32378   1.022   7.908   3.368  0.6012  0.4455 -0.1284
  246MOL0     C32379   0.885   7.969   3.339 -0.4454 -1.0441  0.0773
  246MOL0     C32380   0.794   7.878   3.258 -0.3890 -0.4245 -0.2807
  246MOL0     C32381   0.644   7.904   3.265 -0.1021 -0.8966  0.1473
  246MOL0     C32382   0.554   7.815   3.191 -0.1942 -0.1631 -0.4181
  246MOL0     C32383   0.412   7.873   3.185  0.3793 -0.0261 -0.5159
  246MOL0    Cl32384   0.354   7.921   3.354  0.2170  0.1917 -0.0976
  246MOL0     C32385   1.497   7.749   3.355 -0.0320  0.0133  0.2087
  246MOL0     C32386   1.610   7.673   3.384 -0.4721  0.0649 -0.0680
  246MOL0     O32387   1.747   7.406   3.433  0.2903  0.2842  0.0985
  246MOL0     C32388   1.997   7.307   3.518 -0.4964  0.4165  0.9005
  246MOL0     C32389   2.121   7.264   3.565  0.9053  0.9024  0.8498
  246MOL0     N32390   2.838   7.432   3.221  0.3126  0.0642  0.4164
  246MOL0     N32391   2.880   7.416   3.108  0.0590 -0.8051  0.4948
  246MOL0     C32392   3.093   6.299   3.038 -0.0993  1.2239 -0.0117
  246MOL0     C32393   3.041   6.167   3.033  0.3296 -0.5697  0.2779
  246MOL0     C32394   2.755   5.830   3.014 -0.3294  0.6994  0.6341
  246MOL0     C32395   2.730   5.786   2.882 -0.6658  0.9096 -0.6119
  246MOL0     C32396   2.640   5.677   2.859 -0.0968  0.6760 -0.5237
  246MOL0     C32397   2.574   5.613   2.963 -0.4774 -0.0716 -0.3236
  246MOL0     O32398   2.502   5.505   2.931  0.2241  0.4883  0.3386
  246MOL0     C32399   2.393   5.463   3.019 -0.8744 -0.0689  0.0257
  246MOL0     C32400   2.444   5.352   3.120  0.4137  0.6443  0.4295
  246MOL0     C32401   2.331   5.305   3.203 -0.9623 -0.1716  0.3128
  246MOL0     C32402   2.379   5.200   3.307  0.3677 -0.1233 -0.2535
  246MOL0     C32403   2.315   5.223   3.444  0.6250 -0.2985 -0.3094
  246MOL0     C32404   2.297   5.239   3.564 -0.3215  0.3929 -1.2578
  246MOL0     C32405   2.605   5.651   3.093 -1.2942 -0.4532  0.0918
  246MOL0     C32406   2.694   5.761   3.118  0.2629 -0.3467  0.4066
  246MOL0     H32407   2.771   6.232   2.831  0.7583  0.3352 -2.0324
  246MOL0     H32408   2.861   6.463   2.855  0.3389  0.0964  0.6348
  246MOL0     H32409   2.910   6.650   2.980  1.1538 -1.2309  2.4495
  246MOL0     H32410   2.997   6.610   2.829 -3.1590  3.2492 -0.6601
  246MOL0     H32411   3.194   6.750   2.912 -0.8307  1.9872 -2.0569
  246MOL0     H32412   3.122   6.781   3.056  2.4547  0.5377 -0.7202
  246MOL0     H32413   2.951   6.909   2.999 -1.2325  3.2719 -1.0455
  246MOL0     H32414   2.955   6.868   2.817  1.3957  0.6551 -1.5899
  246MOL0     H32415   3.174   7.013   2.962 -0.9486 -1.8322  1.4226
  246MOL0     H32416   3.145   6.990   2.792 -0.0162  2.3593 -0.1282
  246MOL0     H32417   3.081   7.216   2.914  1.0300  0.0127 -3.9884
  246MOL0     H32418   2.946   7.125   2.985 -0.1511  0.3483 -0.8683
  246MOL0     H32419   2.878   7.076   2.742 -0.5511  0.1247 -1.3896
  246MOL0     H32420   2.974   7.214   2.701  1.4848  0.4819  1.1119
  246MOL0     H32421   2.757   7.279   2.711  0.7309  0.4024  0.7350
  246MOL0     H32422   2.715   7.202   2.866 -3.7104  1.8516 -0.5149
  246MOL0     H32423   2.775   7.471   2.808 -1.5518 -1.4431 -0.8743
  246MOL0     H32424   2.936   7.423   2.875  0.3276 -0.3710  1.6788
  246MOL0     H32425   2.561   7.434   3.035 -0.6355 -0.2507 -0.8409
  246MOL0     H32426   2.493   7.488   3.255  0.8721  1.4077 -1.5238
  246MOL0     H32427   2.615   7.557   3.363 -0.2970  0.9388 -0.3803
  246MOL0     H32428   2.651   7.344   3.475 -0.4220 -0.6542  0.2158
  246MOL0     H32429   2.577   7.240   3.353  0.7309  0.0567  0.9280
  246MOL0     H32430   2.432   7.458   3.503  2.4967  0.8119 -1.7539
  246MOL0     H32431   2.359   7.347   3.393  1.4163 -3.0122 -1.6629
  246MOL0     H32432   2.504   7.231   3.635 -1.4595 -0.7925  0.0742
  246MOL0     H32433   2.375   7.168   3.530 -1.6511  0.4172 -0.6454
  246MOL0     H32434   2.221   7.530   3.733 -0.0034  0.3771  0.3691
  246MOL0     H32435   1.992   7.619   3.658  0.0749 -0.6079  2.3098
  246MOL0     H32436   1.618   7.708   3.718 -1.7663 -2.0673  1.3474
  246MOL0     H32437   1.416   7.849   3.667  1.5462  4.5017 -1.0994
  246MOL0     H32438   1.297   8.034   3.547  0.6325  0.5213 -2.8192
  246MOL0     H32439   1.207   7.885   3.589  0.1175  0.2977  0.5667
  246MOL0     H32440   1.140   8.095   3.383  0.1992  0.2033 -0.8812
  246MOL0     H32441   1.047   8.052   3.527 -0.5588 -0.2968 -0.8204
  246MOL0     H32442   1.016   7.819   3.431  4.2063  0.4155  0.4245
  246MOL0     H32443   1.069   7.879   3.274  0.3728 -0.1885 -0.0471
  246MOL0     H32444   0.832   8.011   3.425  1.2865 -2.0561  1.7065
  246MOL0     H32445   0.909   8.051   3.270 -0.5105 -2.2620 -1.4316
  246MOL0     H32446   0.802   7.777   3.298 -0.3703 -0.1298  0.4638
  246MOL0     H32447   0.835   7.873   3.156  0.3330 -0.1213 -0.0089
  246MOL0     H32448   0.616   8.006   3.237 -0.8847 -0.9435  0.6981
  246MOL0     H32449   0.613   7.914   3.370 -2.0804  2.3723 -0.5961
  246MOL0     H32450   0.595   7.803   3.090 -0.2104  1.3434 -0.6212
  246MOL0     H32451   0.569   7.720   3.243  2.8187 -0.0585 -0.9264
  246MOL0     H32452   0.344   7.795   3.149 -3.7734  2.0974  1.9148
  246MOL0     H32453   0.415   7.965   3.126  1.2499  1.7125  2.0484
  246MOL0     H32454   1.462   7.761   3.253  0.6682  1.2552  0.0981
  246MOL0     H32455   1.645   7.623   3.294 -0.5756  0.3079 -0.2441
  246MOL0     H32456   1.949   7.257   3.435  0.6063  3.4502 -1.7618
  246MOL0     H32457   2.169   7.175   3.525 -0.0604  0.5440  0.4679
  246MOL0     H32458   3.187   6.309   3.092 -0.2067  0.5929  0.3006
  246MOL0     H32459   3.090   6.077   3.068  1.0375  0.5520  2.3607
  246MOL0     H32460   2.781   5.830   2.797  0.1473  0.5305 -0.3382
  246MOL0     H32461   2.596   5.650   2.764 -1.7333  2.2440 -0.2806
  246MOL0     H32462   2.314   5.413   2.962 -0.6440 -0.9352  0.4485
  246MOL0     H32463   2.352   5.549   3.073  0.8948 -0.9253  2.9465
  246MOL0     H32464   2.480   5.266   3.064  3.7769  2.9617 -1.3104
  246MOL0     H32465   2.532   5.376   3.180  1.3284 -1.6332  0.0953
  246MOL0     H32466   2.259   5.261   3.134  0.1025 -0.7259 -0.4517
  246MOL0     H32467   2.268   5.382   3.250 -2.7517 -0.0440 -2.1241
  246MOL0     H32468   2.356   5.100   3.269 -2.2492  0.9735 -1.8060
  246MOL0     H32469   2.488   5.209   3.310  0.7913 -2.9227 -2.4040
  246MOL0     H32470   2.279   5.237   3.670  3.9243 -2.8014 -0.3523
  246MOL0     H32471   2.561   5.601   3.179  2.3423 -4.4426 -0.0317
  246MOL0     H32472   2.707   5.798   3.219  2.1383 -0.8532  0.3852
  247MOL0     O32473   5.610  10.080   4.841  0.6533 -0.9749  0.2086
  247MOL0     C32474   5.687   9.999   4.795  0.5910  0.0366 -1.1704
  247MOL0     O32475   5.657   9.865   4.787  0.1239 -1.0849  0.2378
  247MOL0     C32476   5.538   9.827   4.842 -0.0924 -0.2692  0.2180
  247MOL0     C32477   5.413   9.880   4.804 -1.0642 -1.5188 -0.2848
  247MOL0     C32478   5.291   9.849   4.860 -0.5613  0.4577  0.6907
  247MOL0     C32479   5.284   9.749   4.959 -0.7399 -0.9034  0.0651
  247MOL0     O32480   5.173   9.704   5.024  0.1093  0.3827  0.1725
  247MOL0     C32481   5.048   9.764   4.996 -0.0228 -0.6820  1.6596
  247MOL0     C32482   4.939   9.728   5.103  0.1907 -0.2681 -0.2987
  247MOL0     C32483   4.883   9.599   5.077 -0.2442  0.5092  0.6958
  247MOL0     C32484   4.831   9.536   5.203  0.1730  0.3860  0.7238
  247MOL0     C32485   4.711   9.607   5.273  0.6645  0.0883 -0.0485
  247MOL0     C32486   4.584   9.613   5.190 -0.7419  0.2622  0.2483
  247MOL0     C32487   4.479   9.687   5.275 -0.9068  0.9195 -0.3514
  247MOL0     C32488   4.355   9.602   5.282  0.1151 -0.0650 -1.1435
  247MOL0     N32489   4.237   9.669   5.342  0.6300 -0.1384 -0.5638
  247MOL0     C32490   4.233   9.746   5.460  0.6720 -0.0016  0.4403
  247MOL0     C32491   4.109   9.799   5.447  1.3341  0.3276  0.6476
  247MOL0     C32492   4.054   9.876   5.566  0.3349 -0.5139 -0.4290
  247MOL0     C32493   4.021   9.785   5.686  0.2038 -0.2612 -0.5577
  247MOL0     C32494   3.889   9.715   5.683  0.3828 -0.0201 -1.4842
  247MOL0     C32495   3.764   9.803   5.679  0.2977  0.0324 -0.2307
  247MOL0     O32496   3.648   9.724   5.657  0.7312 -0.7030  0.1210
  247MOL0     C32497   3.613   9.688   5.526  0.8454  0.2355  0.2885
  247MOL0     C32498   3.692   9.697   5.412  1.0068 -0.7570  0.2351
  247MOL0     C32499   3.663   9.633   5.296  0.1749  0.3076  0.6902
  247MOL0     C32500   3.534   9.566   5.281 -0.7040  0.8608 -1.7382
  247MOL0     C32501   3.499   9.494   5.163  0.2662  0.4286 -0.4466
  247MOL0     O32502   3.570   9.525   5.050  0.6032  0.0183 -0.8588
  247MOL0     C32503   3.569   9.429   4.950  0.5441  0.4499 -0.3841
  247MOL0     C32504   3.625   9.295   4.965  0.5035 -0.2603 -0.4450
  247MOL0     C32505   3.644   9.207   4.858  0.4759 -0.1338 -0.0633
  247MOL0     C32506   3.611   9.251   4.731  0.4468 -0.1630  0.2232
  247MOL0     O32507   3.628   9.173   4.624  0.2065  0.9917  0.5485
  247MOL0     C32508   3.743   9.225   4.550  0.8586 -0.1241 -0.0113
  247MOL0     C32509   3.888   9.171   4.577  0.2830 -0.7028  0.1400
  247MOL0     C32510   3.892   9.031   4.537  0.8025 -0.5352 -0.7896
  247MOL0     C32511   4.031   8.978   4.576  0.5907 -0.2607  0.0426
  247MOL0     C32512   4.032   8.825   4.526 -0.0675  0.2420  0.3212
  247MOL0     C32513   4.160   8.748   4.586  0.0371  0.0870  0.2790
  247MOL0     C32514   4.293   8.774   4.505  0.0161  0.0352 -0.3187
  247MOL0     C32515   4.412   8.690   4.562  0.5331  0.2353  0.1875
  247MOL0    Cl32516   4.399   8.520   4.486 -0.1090  0.0202 -0.2664
  247MOL0     C32517   3.568   9.382   4.719 -0.7565  0.7461  0.3890
  247MOL0     C32518   3.538   9.476   4.824  0.5042 -0.3756 -0.0029
  247MOL0     O32519   3.416   9.409   5.178  0.7217 -0.0586 -0.0080
  247MOL0     C32520   3.447   9.575   5.390 -0.6262  0.7398  0.5965
  247MOL0     C32521   3.478   9.637   5.507  0.3174 -0.8485  0.6775
  247MOL0     N32522   4.048   9.755   5.331  0.5060  0.0690  0.2647
  247MOL0     N32523   4.123   9.675   5.266  0.1976 -0.2139  0.2172
  247MOL0     C32524   5.409   9.689   4.995  0.0648 -0.0547  0.5690
  247MOL0     C32525   5.534   9.729   4.938  0.7361 -0.4112  0.5171
  247MOL0     C32526   5.810  10.035   4.730 -0.3531  0.3153  0.0392
  247MOL0     C32527   5.843  10.168   4.714 -0.5633  0.0339 -0.0934
  247MOL0     C32528   5.969  10.209   4.666  0.1082 -0.3273  0.2087
  247MOL0     C32529   6.061  10.106   4.630  0.7113 -0.3556 -0.8100
  247MOL0     O32530   6.182  10.130   4.570  0.3770  0.5127  0.3531
  247MOL0     C32531   6.203  10.238   4.481 -1.2647  0.9877  0.4501
  247MOL0     C32532   6.301  10.182   4.374  0.1826  0.4760  0.3905
  247MOL0     C32533   6.228  10.062   4.303  0.1822 -0.0679  0.5374
  247MOL0     C32534   6.307  10.025   4.185  0.0384  0.3647 -0.5544
  247MOL0     C32535   6.254   9.914   4.099  0.5323 -0.2349 -0.6980
  247MOL0     C32536   6.209   9.811   4.049 -0.6154 -0.4147 -0.4088
  247MOL0     C32537   6.020   9.974   4.642  0.4749 -0.7858  0.4914
  247MOL0     C32538   5.899   9.936   4.690 -0.4960 -0.8016  0.9994
  247MOL0     H32539   5.425   9.968   4.742 -1.6549  0.2848  2.0201
  247MOL0     H32540   5.204   9.899   4.818 -1.4294 -0.3406  1.4741
  247MOL0     H32541   5.014   9.737   4.896  1.6101  2.5320  0.0768
  247MOL0     H32542   5.050   9.873   4.989 -0.4545 -0.6464  2.0448
  247MOL0     H32543   4.862   9.806   5.101 -1.0070 -1.2912  1.8855
  247MOL0     H32544   4.972   9.725   5.207 -5.3066 -2.0242  1.7571
  247MOL0     H32545   4.974   9.550   5.042 -0.1376  2.4330 -2.0473
  247MOL0     H32546   4.815   9.596   4.991 -3.3318 -2.0470  2.9455
  247MOL0     H32547   4.796   9.436   5.175 -1.0175  1.0395 -0.2040
  247MOL0     H32548   4.902   9.533   5.286  0.0288  3.4278  1.0757
  247MOL0     H32549   4.739   9.708   5.305  0.8709  0.1547 -0.4308
  247MOL0     H32550   4.696   9.544   5.361  2.2489 -0.5634 -0.2146
  247MOL0     H32551   4.553   9.517   5.149  0.0923  0.7273 -1.5907
  247MOL0     H32552   4.610   9.673   5.103  1.9848 -0.6042  0.3771
  247MOL0     H32553   4.522   9.713   5.372  0.1335 -1.1823 -0.2004
  247MOL0     H32554   4.444   9.780   5.230 -0.0400  0.1437 -2.7771
  247MOL0     H32555   4.378   9.511   5.339  1.1007  1.9127  1.8842
  247MOL0     H32556   4.327   9.572   5.181 -3.0819 -1.9164  0.1416
  247MOL0     H32557   4.305   9.771   5.538 -0.0818  0.9610  0.8593
  247MOL0     H32558   3.963   9.924   5.528  0.2265 -0.3469  0.0236
  247MOL0     H32559   4.121   9.960   5.589 -2.3668  2.1883 -1.6726
  247MOL0     H32560   4.032   9.833   5.783  0.1927 -2.4914  0.6072
  247MOL0     H32561   4.105   9.715   5.681  1.8487  1.6184 -0.2814
  247MOL0     H32562   3.875   9.657   5.592  3.7642 -1.6795 -1.1091
  247MOL0     H32563   3.875   9.642   5.763  2.4592 -1.4493 -2.3240
  247MOL0     H32564   3.760   9.885   5.607 -0.0922 -0.2016 -0.4824
  247MOL0     H32565   3.748   9.848   5.777  2.0395  1.8752 -0.7418
  247MOL0     H32566   3.784   9.753   5.422  0.2928  0.0932  3.3338
  247MOL0     H32567   3.734   9.656   5.217 -1.4814  0.0684 -0.9543
  247MOL0     H32568   3.660   9.276   5.066 -3.1787  2.5523  1.6303
  247MOL0     H32569   3.682   9.106   4.873 -1.1047 -0.4692  2.3425
  247MOL0     H32570   3.752   9.333   4.556  1.7983 -0.0884 -1.5972
  247MOL0     H32571   3.720   9.212   4.444 -2.3865 -2.5817  0.8139
  247MOL0     H32572   3.922   9.190   4.679  1.4561 -2.3345  0.0944
  247MOL0     H32573   3.959   9.223   4.513 -2.0083  1.8283 -0.5398
  247MOL0     H32574   3.874   9.015   4.431  0.2620 -1.6782 -0.5501
  247MOL0     H32575   3.826   8.965   4.595 -0.6296  0.0680 -1.7057
  247MOL0     H32576   4.117   9.041   4.549  0.8146 -2.0049 -4.0164
  247MOL0     H32577   4.038   8.975   4.686  0.0014  0.1971  0.0961
  247MOL0     H32578   4.035   8.812   4.417  0.0829  1.6032  0.1437
  247MOL0     H32579   3.945   8.776   4.570 -0.0579 -0.5558 -0.5147
  247MOL0     H32580   4.146   8.640   4.586  1.9593 -0.2239 -1.3589
  247MOL0     H32581   4.172   8.787   4.688  0.8697  1.6720 -0.3916
  247MOL0     H32582   4.269   8.732   4.407  1.2803 -1.2382 -0.1243
  247MOL0     H32583   4.317   8.880   4.517 -1.1991  0.2051  0.7774
  247MOL0     H32584   4.404   8.678   4.671 -0.9172 -1.2808 -0.0368
  247MOL0     H32585   4.510   8.722   4.527  1.0639  0.5824  1.8977
  247MOL0     H32586   3.565   9.423   4.618 -2.0195 -0.1563  0.0322
  247MOL0     H32587   3.515   9.576   4.788  1.0847  0.6746  2.3455
  247MOL0     H32588   3.353   9.521   5.389 -1.7819  2.5514 -2.2659
  247MOL0     H32589   3.415   9.623   5.594 -0.2999 -0.4713  0.3008
  247MOL0     H32590   5.397   9.612   5.071 -1.7017 -0.3004  0.0974
  247MOL0     H32591   5.627   9.684   4.972  2.0420  1.6169 -0.1420
  247MOL0     H32592   5.768  10.238   4.749  0.9940  1.3849  0.6809
  247MOL0     H32593   5.995  10.314   4.664 -1.1288  0.0328  1.1817
  247MOL0     H32594   6.259  10.311   4.541 -3.8047  1.9059  1.8391
  247MOL0     H32595   6.117  10.289   4.436 -0.6224  0.5238 -1.3793
  247MOL0     H32596   6.322  10.262   4.301  1.0260  1.8832  2.1170
  247MOL0     H32597   6.394  10.156   4.424  0.0237 -1.7405 -0.3870
  247MOL0     H32598   6.133  10.094   4.259 -0.5486 -0.9613  1.4241
  247MOL0     H32599   6.205   9.980   4.372  0.3721 -2.2163 -1.7779
  247MOL0     H32600   6.321  10.116   4.127  2.4274 -0.9701 -2.2473
  247MOL0     H32601   6.397   9.981   4.230 -0.6474  1.2684  1.8028
  247MOL0     H32602   6.158   9.726   4.008  0.3938 -1.1652 -0.1375
  247MOL0     H32603   6.084   9.888   4.628 -1.7267 -2.4224 -0.0604
  247MOL0     H32604   5.872   9.832   4.698 -1.8502 -0.5270  0.3103
  248MOL0     O32605   9.474   2.765   2.732  0.1181 -0.1598 -0.2539
  248MOL0     C32606   9.489   2.649   2.699 -0.4146  0.5238  0.2161
  248MOL0     O32607   9.592   2.604   2.628 -0.4426 -0.3227  0.4500
  248MOL0     C32608   9.671   2.705   2.573  0.8237  0.2868  0.4573
  248MOL0     C32609   9.764   2.770   2.658  0.4971 -0.7714  0.4456
  248MOL0     C32610   9.856   2.860   2.618 -0.8278  0.6154  0.9622
  248MOL0     C32611   9.846   2.900   2.481 -0.0136  0.1983 -0.4262
  248MOL0     O32612   9.944   2.975   2.427 -0.1019  0.1619  0.0423
  248MOL0     C32613  10.069   2.900   2.417  0.1267  0.0820  0.0938
  248MOL0     C32614  10.175   2.961   2.314  0.4891 -0.2524 -0.9578
  248MOL0     C32615  10.258   3.077   2.388 -0.6526  0.3693 -0.6022
  248MOL0     C32616  10.341   3.030   2.508  0.9256 -0.6215 -0.0330
  248MOL0     C32617  10.468   3.128   2.530  0.6518  0.4255 -0.4684
  248MOL0     C32618  10.398   3.264   2.563 -0.4074  0.0942  0.6772
  248MOL0     C32619  10.515   3.346   2.635 -0.1658  1.2310  0.1507
  248MOL0     C32620  10.451   3.461   2.705  0.3830 -0.0331 -0.0947
  248MOL0     N32621  10.548   3.568   2.717 -0.1896  0.4726 -0.0704
  248MOL0     C32622  10.593   3.645   2.611 -0.3060 -0.5644 -0.0612
  248MOL0     C32623  10.698   3.715   2.661  0.3116  0.1737  0.7886
  248MOL0     C32624  10.784   3.800   2.574 -0.4061  0.0503  0.2242
  248MOL0     C32625  10.885   3.710   2.500  0.2035 -1.3314 -0.8968
  248MOL0     C32626  10.957   3.592   2.551 -0.0731 -0.1007  0.5368
  248MOL0     C32627  11.058   3.625   2.663  0.8460  0.4342  0.0500
  248MOL0     O32628  11.133   3.731   2.632 -0.1986  0.1894  0.2203
  248MOL0     C32629  11.218   3.770   2.737 -0.4566  0.4171 -0.1783
  248MOL0     C32630  11.262   3.900   2.733  0.5513 -0.3770  0.2895
  248MOL0     C32631  11.321   3.954   2.842 -0.9734  0.2594  0.2872
  248MOL0     C32632  11.357   3.880   2.960 -0.5697 -0.0146 -0.8515
  248MOL0     C32633  11.444   3.933   3.058  0.6417 -0.1669  0.2101
  248MOL0     O32634  11.500   4.057   3.032 -0.4301  0.1189  0.2065
  248MOL0     C32635  11.572   4.115   3.132  0.8433  0.0388 -0.3816
  248MOL0     C32636  11.535   4.248   3.170 -0.3940  1.8177 -0.3224
  248MOL0     C32637  11.578   4.308   3.286  0.6537  0.0762  0.4517
  248MOL0     C32638  11.686   4.251   3.357  0.1268 -0.1956 -0.9274
  248MOL0     O32639  11.735   4.302   3.474 -0.1992 -0.3889  0.6550
  248MOL0     C32640  11.678   4.414   3.529  0.0276 -0.2347 -0.1287
  248MOL0     C32641  11.728   4.416   3.671  0.3020  0.6212 -0.0047
  248MOL0     C32642  11.672   4.542   3.743  0.1422  0.6962  0.9674
  248MOL0     C32643  11.530   4.514   3.785  0.3897  0.3208 -0.6998
  248MOL0     C32644  11.469   4.621   3.874 -0.9322 -0.7346 -0.0446
  248MOL0     C32645  11.342   4.563   3.945 -0.0479 -0.9873 -0.4990
  248MOL0     C32646  11.272   4.673   4.040  0.2795  1.0002  0.3795
  248MOL0     C32647  11.201   4.801   3.990 -0.0567  0.5472  0.4113
  248MOL0    Cl32648  11.205   4.923   4.120 -0.1526 -0.0833 -0.3387
  248MOL0     C32649  11.734   4.125   3.314 -0.3536 -0.5078 -0.0781
  248MOL0     C32650  11.666   4.050   3.212  0.8034  0.1742 -1.2937
  248MOL0     O32651  11.461   3.869   3.159  0.4598  0.6745  0.4107
  248MOL0     C32652  11.319   3.748   2.964 -1.3478  0.5239 -0.3299
  248MOL0     C32653  11.253   3.690   2.851 -0.5450 -0.3688  0.2018
  248MOL0     N32654  10.718   3.676   2.791  0.3518  0.1752 -0.2318
  248MOL0     N32655  10.623   3.597   2.825  0.5063 -0.2632  0.4535
  248MOL0     C32656   9.758   2.840   2.401  0.1785 -0.4785 -0.1432
  248MOL0     C32657   9.664   2.752   2.442 -0.1325 -0.4280  0.9008
  248MOL0     C32658   9.397   2.542   2.742 -0.3970 -0.0388 -0.3219
  248MOL0     C32659   9.333   2.555   2.869 -0.6240 -1.2237 -0.7974
  248MOL0     C32660   9.245   2.457   2.910 -0.9437  0.1979 -0.1014
  248MOL0     C32661   9.226   2.339   2.839  0.8085  0.8597  0.0789
  248MOL0     O32662   9.116   2.266   2.871 -0.4863  0.4826 -1.1449
  248MOL0     C32663   9.069   2.164   2.784  0.4510  0.5945 -0.3864
  248MOL0     C32664   8.952   2.084   2.833  0.5313 -0.1323 -0.1098
  248MOL0     C32665   8.834   2.178   2.853 -0.2557 -0.1159  0.5537
  248MOL0     C32666   8.731   2.111   2.938 -0.4598  0.5833  1.0682
  248MOL0     C32667   8.779   2.093   3.071 -0.4694  0.7435  0.0753
  248MOL0     C32668   8.790   2.061   3.188  0.7304  1.3870 -0.3300
  248MOL0     C32669   9.290   2.323   2.717  0.1379  0.5422 -0.2833
  248MOL0     C32670   9.378   2.420   2.669 -0.0555 -0.0737  0.5043
  248MOL0     H32671   9.765   2.747   2.764  3.7806 -0.9767  0.4592
  248MOL0     H32672   9.934   2.906   2.676 -2.3898  0.0214  3.7144
  248MOL0     H32673  10.042   2.799   2.386  1.5805 -0.9843  2.0945
  248MOL0     H32674  10.122   2.887   2.512  0.2324 -0.2093 -0.0052
  248MOL0     H32675  10.138   2.989   2.214  0.7321 -2.1431 -1.6073
  248MOL0     H32676  10.243   2.876   2.306  0.9430 -0.0098  0.1331
  248MOL0     H32677  10.194   3.156   2.428 -2.4873 -0.3698 -1.9272
  248MOL0     H32678  10.326   3.106   2.307  0.6435  0.1969  0.3913
  248MOL0     H32679  10.285   3.041   2.602 -0.2726  1.9565 -0.9294
  248MOL0     H32680  10.360   2.925   2.486  3.0068 -1.2835  4.0734
  248MOL0     H32681  10.526   3.131   2.437 -0.3942  0.7880 -1.1338
  248MOL0     H32682  10.527   3.093   2.614 -2.3217  0.1753  1.6733
  248MOL0     H32683  10.313   3.261   2.632 -0.5282 -0.0025  0.5244
  248MOL0     H32684  10.349   3.308   2.476 -0.1057 -0.7542  0.0693
  248MOL0     H32685  10.583   3.287   2.698 -4.3177 -1.6459  2.4679
  248MOL0     H32686  10.567   3.392   2.550 -1.6535 -0.9421 -2.0900
  248MOL0     H32687  10.414   3.429   2.802 -0.0701 -0.8671 -0.5344
  248MOL0     H32688  10.360   3.489   2.651  0.1371 -2.2754 -0.9291
  248MOL0     H32689  10.560   3.644   2.507  0.1632 -2.0777 -0.2294
  248MOL0     H32690  10.841   3.870   2.635  1.9718 -0.0554 -1.7275
  248MOL0     H32691  10.732   3.862   2.501  1.0599  1.0847  0.0121
  248MOL0     H32692  10.958   3.773   2.449 -3.0397  1.3711 -2.5742
  248MOL0     H32693  10.824   3.673   2.417 -1.7303 -1.4023  0.5112
  248MOL0     H32694  10.884   3.526   2.598  0.5024 -1.6190 -0.6266
  248MOL0     H32695  11.005   3.541   2.467 -2.1480 -1.9949  0.4232
  248MOL0     H32696  11.121   3.540   2.686  1.2259  0.6647 -0.1231
  248MOL0     H32697  11.004   3.643   2.757 -1.2862  3.0752 -1.5030
  248MOL0     H32698  11.237   3.958   2.645  1.7778  0.7068  0.6234
  248MOL0     H32699  11.345   4.060   2.831  3.8900 -0.5878  0.4618
  248MOL0     H32700  11.456   4.287   3.106 -2.0021 -0.7823 -0.0703
  248MOL0     H32701  11.546   4.410   3.305  1.2845  0.6212 -1.2309
  248MOL0     H32702  11.570   4.409   3.537 -0.1459  2.9675  0.8974
  248MOL0     H32703  11.705   4.506   3.477 -0.4836 -1.2630 -2.3369
  248MOL0     H32704  11.838   4.415   3.666  0.2542 -0.6196 -3.4082
  248MOL0     H32705  11.704   4.325   3.726 -0.0459  1.1194  0.6725
  248MOL0     H32706  11.675   4.637   3.689  1.8171  0.3240  0.3137
  248MOL0     H32707  11.723   4.556   3.839  0.8036 -0.5176  0.8142
  248MOL0     H32708  11.467   4.504   3.697  1.1028  1.7852 -1.4279
  248MOL0     H32709  11.541   4.421   3.842  1.6070  1.0468  0.3334
  248MOL0     H32710  11.441   4.703   3.807 -2.1364 -1.0390  0.0706
  248MOL0     H32711  11.540   4.663   3.946 -1.3330 -0.2936  0.1040
  248MOL0     H32712  11.371   4.474   4.002 -1.7599 -0.6324  1.0529
  248MOL0     H32713  11.261   4.542   3.875 -1.2892  3.5292 -0.7470
  248MOL0     H32714  11.208   4.618   4.111  1.5242 -1.5470 -0.3602
  248MOL0     H32715  11.357   4.705   4.101  2.8523  0.0181 -2.4519
  248MOL0     H32716  11.098   4.792   3.956  0.0832  1.6309 -0.3433
  248MOL0     H32717  11.248   4.845   3.902 -1.3184  0.2095 -0.4527
  248MOL0     H32718  11.799   4.083   3.389 -0.0063  0.7231  0.3316
  248MOL0     H32719  11.713   3.954   3.194  0.1695  0.0412 -2.2973
  248MOL0     H32720  11.329   3.677   3.046  0.4348 -1.5620 -2.2316
  248MOL0     H32721  11.219   3.589   2.869 -2.6172  0.4990  1.4759
  248MOL0     H32722   9.763   2.869   2.296  0.4396  0.4233  0.1063
  248MOL0     H32723   9.594   2.707   2.371 -2.0204 -0.5900  2.7752
  248MOL0     H32724   9.340   2.648   2.926 -1.9185 -1.9494  0.6240
  248MOL0     H32725   9.191   2.477   3.002  4.1789 -0.3608  3.4945
  248MOL0     H32726   9.148   2.092   2.761  0.4919  0.7123 -0.6206
  248MOL0     H32727   9.053   2.212   2.687 -1.3189 -3.2880 -2.2507
  248MOL0     H32728   8.938   2.001   2.764  2.3238 -1.5016  1.0500
  248MOL0     H32729   8.982   2.042   2.930 -0.6135  0.7238  0.6399
  248MOL0     H32730   8.792   2.203   2.755 -2.9186 -1.5538  1.2047
  248MOL0     H32731   8.857   2.269   2.907 -3.0081  0.4524  0.9225
  248MOL0     H32732   8.641   2.172   2.948 -0.5289  0.5826  0.4592
  248MOL0     H32733   8.696   2.020   2.890 -0.4051  0.1769  1.7806
  248MOL0     H32734   8.785   2.036   3.292  4.5794  2.6321  0.2820
  248MOL0     H32735   9.279   2.236   2.653  3.2858  0.5859 -1.0216
  248MOL0     H32736   9.430   2.397   2.576 -0.7712 -0.5705  0.2183
  249MOL0     O32737   2.050  10.402   4.085  0.2857 -0.7129  0.4647
  249MOL0     C32738   2.146  10.475   4.069  0.3671 -0.6566  0.9429
  249MOL0     O32739   2.262  10.470   4.146  0.1554 -0.2136 -0.4946
  249MOL0     C32740   2.279  10.367   4.246 -0.2178 -1.3201  0.9901
  249MOL0     C32741   2.363  10.403   4.353  0.2282 -0.0062  0.2614
  249MOL0     C32742   2.380  10.317   4.456 -0.3724 -0.2751 -0.1545
  249MOL0     C32743   2.341  10.188   4.452  0.3381  0.1002  0.2757
  249MOL0     O32744   2.376  10.109   4.565  0.5143 -0.0957 -0.7845
  249MOL0     C32745   2.281  10.130   4.670  0.5150  1.4944 -0.3026
  249MOL0     C32746   2.303  10.034   4.789  0.6101 -0.1509 -0.0823
  249MOL0     C32747   2.301   9.881   4.755 -0.3399 -0.8523  0.7232
  249MOL0     C32748   2.325   9.792   4.882 -0.1203 -0.6362  0.6929
  249MOL0     C32749   2.328   9.642   4.848  0.7094 -0.1695  0.4486
  249MOL0     C32750   2.189   9.604   4.795 -0.2009 -0.1211  0.5129
  249MOL0     C32751   2.155   9.466   4.842 -0.0641 -0.2163  0.0617
  249MOL0     C32752   2.044   9.415   4.747  0.4059 -0.5754 -0.1400
  249MOL0     N32753   1.997   9.283   4.788 -0.2131  0.3250  0.0891
  249MOL0     C32754   2.061   9.161   4.762  0.0197 -0.2862  0.2048
  249MOL0     C32755   2.011   9.070   4.843  0.1351  0.6362  0.0810
  249MOL0     C32756   2.055   8.920   4.856  0.3760 -0.4044 -1.0716
  249MOL0     C32757   2.005   8.842   4.728  0.7731  0.3646  1.0946
  249MOL0     C32758   1.853   8.809   4.741  0.1615  0.7102 -0.9501
  249MOL0     C32759   1.799   8.713   4.626 -0.5077  0.5921  0.2986
  249MOL0     O32760   1.655   8.698   4.647  0.0234  0.3026 -0.8523
  249MOL0     C32761   1.609   8.585   4.701  0.1821 -0.7595 -0.2614
  249MOL0     C32762   1.491   8.537   4.643  0.6047  0.1494  0.0822
  249MOL0     C32763   1.438   8.413   4.678  0.1792 -0.5105  0.1822
  249MOL0     C32764   1.500   8.346   4.781 -0.2334  0.4911  0.4502
  249MOL0     C32765   1.422   8.233   4.826  1.5244  0.8747 -0.3425
  249MOL0     O32766   1.455   8.198   4.957 -0.1555  0.0715 -0.1399
  249MOL0     C32767   1.405   8.084   5.012  0.3434  0.2879  0.7951
  249MOL0     C32768   1.283   8.096   5.084 -0.3702 -0.1895  0.0096
  249MOL0     C32769   1.227   7.980   5.138  0.7955 -0.6131  0.5286
  249MOL0     C32770   1.278   7.857   5.117 -0.0687  0.8121  0.8748
  249MOL0     O32771   1.230   7.740   5.173 -0.3706  1.2281  0.6445
  249MOL0     C32772   1.096   7.750   5.223  0.1292  0.4845 -0.3075
  249MOL0     C32773   1.047   7.605   5.258 -0.2024 -0.8253  0.1724
  249MOL0     C32774   1.090   7.566   5.400  0.3945 -0.8311  0.3710
  249MOL0     C32775   1.000   7.469   5.459  0.6349  0.6235 -1.0124
  249MOL0     C32776   1.049   7.427   5.597  0.3497 -1.5576 -0.2699
  249MOL0     C32777   0.947   7.322   5.641  0.1116 -0.5825  0.2232
  249MOL0     C32778   0.948   7.302   5.790 -0.1423 -0.4919  0.6510
  249MOL0     C32779   0.865   7.184   5.836 -0.3700 -0.4503  0.4996
  249MOL0    Cl32780   0.690   7.191   5.773 -0.2143 -0.1550  0.0956
  249MOL0     C32781   1.396   7.846   5.044 -0.2884 -0.3953  0.2364
  249MOL0     C32782   1.455   7.959   4.995 -0.5791 -1.0038  0.6961
  249MOL0     O32783   1.323   8.186   4.773 -0.5587  0.1603  0.5668
  249MOL0     C32784   1.618   8.392   4.837  0.8329 -0.0050 -0.0127
  249MOL0     C32785   1.672   8.509   4.795  0.1176  0.5089  0.8495
  249MOL0     N32786   1.906   9.135   4.904 -0.2570  0.2919  0.4390
  249MOL0     N32787   1.904   9.261   4.876  0.2520  0.1019  0.3213
  249MOL0     C32788   2.275  10.143   4.338  1.2069  0.1656 -0.8826
  249MOL0     C32789   2.242  10.233   4.242 -0.0966 -0.3572  0.5988
  249MOL0     C32790   2.135  10.567   3.952 -0.5468 -0.5539  0.5085
  249MOL0     C32791   2.245  10.640   3.921 -0.6272 -0.2093 -0.3013
  249MOL0     C32792   2.241  10.719   3.803  0.5233 -0.2286 -0.5883
  249MOL0     C32793   2.126  10.735   3.728 -0.0416  0.8783  0.5692
  249MOL0     O32794   2.127  10.801   3.610 -0.1133 -0.7672  0.2516
  249MOL0     C32795   2.252  10.832   3.545 -0.5453 -0.7018 -0.4599
  249MOL0     C32796   2.217  10.917   3.417 -0.7885 -0.1757  0.4851
  249MOL0     C32797   2.134  10.861   3.305  1.0337  0.0675  0.5997
  249MOL0     C32798   2.202  10.752   3.231  0.3131 -0.1672 -0.3628
  249MOL0     C32799   2.225  10.631   3.313  0.5421 -0.8928 -1.0175
  249MOL0     C32800   2.248  10.529   3.368  0.0429 -0.5092  0.9988
  249MOL0     C32801   2.012  10.674   3.776 -0.7888  0.1845  0.2156
  249MOL0     C32802   2.015  10.588   3.876  0.3244  0.1193  0.5054
  249MOL0     H32803   2.389  10.508   4.362  1.1931 -0.2780  0.6936
  249MOL0     H32804   2.432  10.353   4.544  0.2669 -1.6862  0.0751
  249MOL0     H32805   2.181  10.099   4.640  1.0103 -2.0921  1.2496
  249MOL0     H32806   2.278  10.237   4.695  0.7760  1.6596 -0.9463
  249MOL0     H32807   2.235  10.062   4.869  2.8391  2.1912  1.1364
  249MOL0     H32808   2.401  10.042   4.837 -0.1155 -2.1780  1.9008
  249MOL0     H32809   2.371   9.860   4.673  0.0722  1.0639  0.5312
  249MOL0     H32810   2.200   9.855   4.723  0.0516 -2.3981  0.6840
  249MOL0     H32811   2.415   9.809   4.940 -0.2550 -1.0841  1.0338
  249MOL0     H32812   2.240   9.808   4.948 -3.1459  0.1981 -3.0055
  249MOL0     H32813   2.364   9.600   4.942 -0.1100 -0.1454  0.7746
  249MOL0     H32814   2.408   9.615   4.777  1.0089 -0.2584  0.8170
  249MOL0     H32815   2.214   9.595   4.689 -1.5729 -1.7792  0.2982
  249MOL0     H32816   2.115   9.672   4.838  0.9724  1.7950 -0.3250
  249MOL0     H32817   2.245   9.403   4.833  1.6781  1.9623  1.2877
  249MOL0     H32818   2.130   9.459   4.948  2.3089 -1.8851  0.5853
  249MOL0     H32819   2.097   9.408   4.651  0.2850 -1.4976 -0.1485
  249MOL0     H32820   1.964   9.489   4.742  2.0750  1.2423 -1.6349
  249MOL0     H32821   2.138   9.147   4.686 -2.6251 -0.1646 -2.7169
  249MOL0     H32822   2.009   8.868   4.940  1.4562 -0.8895 -0.7585
  249MOL0     H32823   2.162   8.928   4.880  0.7200 -2.1099 -1.9337
  249MOL0     H32824   2.060   8.747   4.719  0.0855  0.0636 -0.2398
  249MOL0     H32825   2.016   8.907   4.641  1.0447 -0.9162  0.1306
  249MOL0     H32826   1.836   8.764   4.839  2.3165  1.4837 -0.1678
  249MOL0     H32827   1.794   8.901   4.733 -0.5010  0.6248  1.9023
  249MOL0     H32828   1.849   8.616   4.624  0.1463  0.8148  2.8757
  249MOL0     H32829   1.816   8.765   4.531  0.3362  2.9833  1.6849
  249MOL0     H32830   1.435   8.598   4.573  1.6064 -0.3288 -1.1622
  249MOL0     H32831   1.350   8.384   4.621 -0.0138 -2.1912  1.2856
  249MOL0     H32832   1.227   8.188   5.090 -2.8221 -1.6818  2.3136
  249MOL0     H32833   1.135   7.985   5.194 -0.1087 -0.4376 -0.9121
  249MOL0     H32834   1.022   7.790   5.153  1.8628 -0.1665 -2.6431
  249MOL0     H32835   1.099   7.817   5.310 -0.8319  1.6020 -1.0983
  249MOL0     H32836   1.093   7.526   5.197  1.6464 -1.5009  2.3150
  249MOL0     H32837   0.937   7.606   5.259 -0.2663  1.5036  2.4464
  249MOL0     H32838   1.090   7.654   5.465  0.8680 -0.4137 -0.1800
  249MOL0     H32839   1.190   7.522   5.399  0.8850  0.0727  2.7776
  249MOL0     H32840   0.900   7.510   5.479  2.0113  2.6232  2.6853
  249MOL0     H32841   0.997   7.379   5.397  3.5172  0.1840 -0.6536
  249MOL0     H32842   1.055   7.518   5.658 -1.0221 -2.1900  0.8741
  249MOL0     H32843   1.153   7.393   5.590  0.4174 -1.0560 -2.4516
  249MOL0     H32844   0.975   7.233   5.584  3.5297  1.1406 -1.1066
  249MOL0     H32845   0.844   7.350   5.618  0.4332  1.5644  1.1653
  249MOL0     H32846   1.050   7.289   5.827 -0.5837 -2.4980  1.2782
  249MOL0     H32847   0.934   7.398   5.839  0.5655  0.9802 -1.8259
  249MOL0     H32848   0.872   7.196   5.944  0.3187  0.0045  0.4157
  249MOL0     H32849   0.916   7.091   5.810  1.2707  0.4280  0.4220
  249MOL0     H32850   1.443   7.748   5.040 -0.9998 -0.7423  0.3556
  249MOL0     H32851   1.552   7.940   4.949  0.0754  2.3880  0.3964
  249MOL0     H32852   1.664   8.348   4.924  1.0416  1.0969  0.4528
  249MOL0     H32853   1.772   8.540   4.821  0.3515  0.9431 -0.4801
  249MOL0     H32854   2.229  10.046   4.335  0.7375  0.2467  1.6395
  249MOL0     H32855   2.179  10.199   4.161  0.5149 -0.7157  0.2742
  249MOL0     H32856   2.334  10.630   3.982 -1.1247  0.4091  0.5478
  249MOL0     H32857   2.327  10.777   3.771 -0.6446  0.6416 -2.3179
  249MOL0     H32858   2.316  10.748   3.519  0.5578 -0.6458  1.8335
  249MOL0     H32859   2.306  10.894   3.617 -2.1720  0.3321 -0.0754
  249MOL0     H32860   2.166  11.009   3.445  1.5671  0.9094  1.5308
  249MOL0     H32861   2.315  10.950   3.380 -2.2588  0.7631 -2.9198
  249MOL0     H32862   2.102  10.943   3.240 -2.7566 -1.4423  0.2873
  249MOL0     H32863   2.043  10.824   3.353  0.2409 -1.5715 -1.9505
  249MOL0     H32864   2.138  10.717   3.149  3.1021 -2.3505 -1.8170
  249MOL0     H32865   2.304  10.776   3.198  0.3445  0.8784  0.4578
  249MOL0     H32866   2.267  10.432   3.410  0.2153 -3.0715 -4.0824
  249MOL0     H32867   1.922  10.708   3.726 -0.8541  1.8681  1.3666
  249MOL0     H32868   1.921  10.542   3.902 -1.3207 -0.0687 -4.6592
  250MOL0     O32869   4.563   6.631   6.791  0.5162 -0.9590  0.7378
  250MOL0     C32870   4.457   6.639   6.855  0.0573 -0.4723  0.7102
  250MOL0     O32871   4.400   6.756   6.889 -0.3563 -0.4176 -0.2976
  250MOL0     C32872   4.440   6.869   6.830 -0.3451  0.4710  0.5697
  250MOL0     C32873   4.425   6.889   6.692 -0.0425 -0.4996 -0.2383
  250MOL0     C32874   4.460   7.007   6.626  0.9529 -1.0169 -0.2299
  250MOL0     C32875   4.509   7.110   6.705  0.3482  0.1543 -0.5261
  250MOL0     O32876   4.540   7.223   6.634  0.3391  0.3700  0.2960
  250MOL0     C32877   4.599   7.331   6.705  0.3278 -0.1322 -1.2788
  250MOL0     C32878   4.650   7.419   6.584 -0.3788 -0.3597 -0.3209
  250MOL0     C32879   4.664   7.559   6.628 -0.0083 -0.0175 -0.9420
  250MOL0     C32880   4.682   7.651   6.512 -0.5902 -1.0036  0.7801
  250MOL0     C32881   4.705   7.794   6.559 -0.6652 -0.4605  0.4645
  250MOL0     C32882   4.773   7.875   6.445 -0.5154  0.1274  1.0657
  250MOL0     C32883   4.701   7.848   6.306  0.7776 -0.0390  0.5743
  250MOL0     C32884   4.740   7.932   6.184  0.3574  0.2582  0.5508
  250MOL0     N32885   4.699   8.068   6.183  0.4310 -1.0522 -0.0098
  250MOL0     C32886   4.585   8.129   6.210 -0.1546  0.1295 -0.6327
  250MOL0     C32887   4.605   8.258   6.243 -0.5843 -0.9645 -0.2047
  250MOL0     C32888   4.512   8.365   6.296 -0.7476  0.1032  0.0820
  250MOL0     C32889   4.539   8.411   6.438 -0.1409 -0.1064  0.4532
  250MOL0     C32890   4.473   8.309   6.530 -0.6178 -0.8497 -0.3860
  250MOL0     C32891   4.470   8.357   6.677  0.1753 -0.5221  0.0919
  250MOL0     O32892   4.392   8.283   6.769  0.6607 -0.3572  0.2399
  250MOL0     C32893   4.446   8.172   6.825  0.6409 -0.6658 -0.4375
  250MOL0     C32894   4.551   8.094   6.777 -0.1363 -0.4004  0.1540
  250MOL0     C32895   4.602   7.986   6.842  0.3984  0.2640  0.5094
  250MOL0     C32896   4.543   7.941   6.962 -0.6393  0.0558  0.0712
  250MOL0     C32897   4.580   7.813   7.016  0.1393 -0.4528 -0.5422
  250MOL0     O32898   4.670   7.730   6.952 -0.1358 -0.6246  0.4480
  250MOL0     C32899   4.681   7.600   6.994 -0.0284  0.2286 -1.1451
  250MOL0     C32900   4.799   7.531   7.026  0.4787  0.4099 -0.2308
  250MOL0     C32901   4.794   7.403   7.080  0.0121  0.1598  0.1913
  250MOL0     C32902   4.674   7.341   7.100 -0.2242  0.3350 -0.7465
  250MOL0     O32903   4.668   7.217   7.161  0.3266  0.0900  0.3544
  250MOL0     C32904   4.785   7.137   7.185  1.0709  0.5153  0.0274
  250MOL0     C32905   4.843   7.177   7.321  0.3298 -0.5920  0.2951
  250MOL0     C32906   4.785   7.104   7.448  0.2072 -0.9435  0.6785
  250MOL0     C32907   4.833   6.966   7.466 -0.2948  0.2157  1.2085
  250MOL0     C32908   4.771   6.905   7.594  0.7928 -0.4046  0.0360
  250MOL0     C32909   4.846   6.782   7.638  0.7794 -0.6454 -0.2239
  250MOL0     C32910   4.770   6.702   7.756 -0.0251 -0.3674  0.7077
  250MOL0     C32911   4.806   6.558   7.764  0.1179 -0.5207 -0.0558
  250MOL0    Cl32912   4.746   6.505   7.929  0.5087 -0.1509  0.3049
  250MOL0     C32913   4.554   7.401   7.066  0.2452  0.2908  0.0409
  250MOL0     C32914   4.566   7.529   7.015  0.2541  0.1879  1.1964
  250MOL0     O32915   4.530   7.783   7.123 -0.0175 -0.3214 -0.2251
  250MOL0     C32916   4.429   8.011   7.006  0.1147 -0.1619  0.4486
  250MOL0     C32917   4.381   8.127   6.939  0.8224  0.1932 -0.3948
  250MOL0     N32918   4.742   8.279   6.221  0.6296 -0.1698  0.0142
  250MOL0     N32919   4.792   8.168   6.191 -0.7891  0.7747 -0.1540
  250MOL0     C32920   4.515   7.099   6.843 -0.5818 -1.0642 -0.1422
  250MOL0     C32921   4.484   6.978   6.911  1.0621 -0.3645  0.3079
  250MOL0     C32922   4.373   6.515   6.874 -0.2761 -0.6463  0.7540
  250MOL0     C32923   4.236   6.530   6.901  0.9287  0.5111  0.5184
  250MOL0     C32924   4.161   6.418   6.922 -0.2297  0.5438 -0.5069
  250MOL0     C32925   4.206   6.290   6.911 -0.1034 -0.2168 -0.2327
  250MOL0     O32926   4.112   6.195   6.933 -0.2725  0.2502  0.3559
  250MOL0     C32927   4.140   6.057   6.928  0.4262 -0.2959 -0.5903
  250MOL0     C32928   4.024   5.962   6.969 -0.2276  0.1695  0.1348
  250MOL0     C32929   4.057   5.819   6.920  0.0003  0.4092 -0.3328
  250MOL0     C32930   3.946   5.719   6.962  0.9872  0.6777  0.0245
  250MOL0     C32931   3.987   5.578   6.924 -0.3209  0.3733  0.2573
  250MOL0     C32932   4.023   5.475   6.875 -0.8224 -0.6807 -0.2354
  250MOL0     C32933   4.341   6.269   6.877 -0.6243 -0.8452  0.9715
  250MOL0     C32934   4.420   6.378   6.859  0.9616  0.3426  0.5153
  250MOL0     H32935   4.394   6.799   6.640 -2.2474  0.0905 -0.0397
  250MOL0     H32936   4.454   7.024   6.519  2.6614  0.8848 -0.0937
  250MOL0     H32937   4.681   7.305   6.772 -0.6182 -1.7180 -0.6902
  250MOL0     H32938   4.528   7.394   6.758  1.9362 -0.0242  0.8851
  250MOL0     H32939   4.581   7.418   6.500  0.6322 -3.4023 -1.2314
  250MOL0     H32940   4.746   7.386   6.545  0.5914  0.0754  1.5603
  250MOL0     H32941   4.748   7.572   6.696  0.8237  1.2059 -2.1528
  250MOL0     H32942   4.577   7.586   6.687  0.3001 -1.7326  0.3922
  250MOL0     H32943   4.774   7.621   6.462  1.3269  4.3653  0.4279
  250MOL0     H32944   4.601   7.655   6.439  0.2740 -2.3571 -0.3023
  250MOL0     H32945   4.773   7.801   6.644  1.2959  1.0675 -1.1176
  250MOL0     H32946   4.606   7.838   6.576 -0.1997  0.8900 -0.1799
  250MOL0     H32947   4.875   7.834   6.445  0.3611  2.1258 -0.0423
  250MOL0     H32948   4.766   7.984   6.457  0.6348  0.8167 -3.1424
  250MOL0     H32949   4.704   7.742   6.281 -3.1241  0.0970 -1.2153
  250MOL0     H32950   4.595   7.869   6.323  1.1115 -0.4330  3.7553
  250MOL0     H32951   4.698   7.885   6.094  1.5684  2.4101 -1.2547
  250MOL0     H32952   4.848   7.927   6.168 -0.0416 -0.0774 -2.7311
  250MOL0     H32953   4.501   8.075   6.253  2.2667 -2.5675  1.1221
  250MOL0     H32954   4.409   8.332   6.282  0.3887 -3.5824 -0.5432
  250MOL0     H32955   4.519   8.450   6.226  1.0594 -2.3460 -2.9603
  250MOL0     H32956   4.478   8.502   6.450 -0.4510 -0.2466 -0.0172
  250MOL0     H32957   4.642   8.444   6.459  0.2406 -0.4920 -0.7370
  250MOL0     H32958   4.371   8.287   6.496 -1.4361  1.6133  0.2660
  250MOL0     H32959   4.536   8.221   6.514  0.6266  0.2248 -1.6516
  250MOL0     H32960   4.422   8.454   6.664  2.9558  0.9824  0.2448
  250MOL0     H32961   4.573   8.370   6.713 -0.5916 -0.1434  2.2577
  250MOL0     H32962   4.592   8.109   6.677 -2.3908  2.4097 -0.4879
  250MOL0     H32963   4.680   7.937   6.784  0.1310 -0.6490  0.8980
  250MOL0     H32964   4.890   7.585   7.002 -1.3542  2.2376 -3.9935
  250MOL0     H32965   4.894   7.376   7.110  0.8149  1.4543 -1.2000
  250MOL0     H32966   4.853   7.140   7.099  1.2694 -0.9709  0.1109
  250MOL0     H32967   4.756   7.032   7.194 -2.1161  1.2322 -0.5838
  250MOL0     H32968   4.825   7.285   7.325 -1.9842 -0.9236  0.2155
  250MOL0     H32969   4.950   7.155   7.331  0.4822 -0.6070 -1.1154
  250MOL0     H32970   4.677   7.121   7.444  0.8053  5.7577  1.6814
  250MOL0     H32971   4.826   7.161   7.532  2.1129 -1.6270  0.2649
  250MOL0     H32972   4.793   6.915   7.378 -0.5197 -2.2113  2.6401
  250MOL0     H32973   4.942   6.967   7.461 -0.2239 -2.7439  0.0952
  250MOL0     H32974   4.669   6.879   7.561  1.5294 -0.9935 -1.9450
  250MOL0     H32975   4.766   6.978   7.675  0.3465 -1.9408  1.4442
  250MOL0     H32976   4.942   6.810   7.682 -0.2965  1.2272  1.0810
  250MOL0     H32977   4.842   6.714   7.552  0.2907 -0.7548 -0.1196
  250MOL0     H32978   4.785   6.750   7.853 -0.1760  1.7598 -0.2702
  250MOL0     H32979   4.667   6.707   7.720  0.6287  2.6590 -1.1363
  250MOL0     H32980   4.915   6.548   7.761  0.1968  0.5574 -2.0500
  250MOL0     H32981   4.765   6.498   7.682 -1.6801  1.2853 -0.5498
  250MOL0     H32982   4.452   7.364   7.061  1.2059 -2.5907  0.1338
  250MOL0     H32983   4.480   7.593   7.000  2.1060  2.5946  0.1052
  250MOL0     H32984   4.379   7.984   7.099  2.2853  3.2317  2.8410
  250MOL0     H32985   4.294   8.186   6.966  0.4077  0.3433 -1.9570
  250MOL0     H32986   4.542   7.180   6.910  2.8237 -1.9616 -0.2535
  250MOL0     H32987   4.488   6.967   7.018  2.2851 -0.9997  0.2215
  250MOL0     H32988   4.187   6.626   6.906 -0.6999 -0.3551  2.1590
  250MOL0     H32989   4.055   6.429   6.939  0.1849  0.3977  2.9708
  250MOL0     H32990   4.225   6.031   6.992 -0.1086 -3.4774 -0.9867
  250MOL0     H32991   4.149   6.023   6.824 -4.8953 -2.4780 -0.6663
  250MOL0     H32992   4.027   5.969   7.078 -0.2299  2.8543  0.0449
  250MOL0     H32993   3.927   5.989   6.926 -0.2674  1.0012  0.7226
  250MOL0     H32994   4.155   5.783   6.953 -1.9463 -0.8277  4.9885
  250MOL0     H32995   4.058   5.826   6.811  1.5785  2.4386 -0.2399
  250MOL0     H32996   3.923   5.722   7.069 -3.1662  4.9857 -0.6524
  250MOL0     H32997   3.848   5.742   6.918  0.9629  0.0799 -0.2479
  250MOL0     H32998   4.064   5.387   6.830 -0.8972 -0.5471 -0.5717
  250MOL0     H32999   4.383   6.173   6.853  0.2299  0.4019 -3.3920
  250MOL0     H33000   4.526   6.370   6.837  0.7788 -1.1231  0.0741
  251MOL0     O33001   8.459   3.548   8.614  0.5176  0.3452 -0.0765
  251MOL0     C33002   8.552   3.484   8.654 -0.5784  1.0439  0.5595
  251MOL0     O33003   8.639   3.416   8.574 -0.3050 -0.2477  0.1964
  251MOL0     C33004   8.629   3.420   8.437 -0.7306  0.3201 -0.5067
  251MOL0     C33005   8.718   3.500   8.369 -0.3559  0.2972 -0.2555
  251MOL0     C33006   8.717   3.503   8.223 -1.0318  0.2228 -0.4077
  251MOL0     C33007   8.636   3.418   8.155  0.2321 -0.1133 -0.5963
  251MOL0     O33008   8.642   3.420   8.012  0.7019  0.4981  0.4251
  251MOL0     C33009   8.556   3.317   7.950  0.7434 -0.1715 -0.9652
  251MOL0     C33010   8.563   3.333   7.795  0.3922  0.3407 -0.7917
  251MOL0     C33011   8.453   3.245   7.722 -0.1791  0.3170 -0.1677
  251MOL0     C33012   8.441   3.272   7.572 -0.8402  0.8688  0.1719
  251MOL0     C33013   8.372   3.393   7.515  0.3588  0.3938  0.4924
  251MOL0     C33014   8.313   3.367   7.376  0.3526 -0.2489  0.1885
  251MOL0     C33015   8.392   3.283   7.269 -0.1123  0.0963 -0.1429
  251MOL0     C33016   8.507   3.373   7.214  0.1912  0.2056 -1.0137
  251MOL0     N33017   8.626   3.296   7.197  0.7999  1.1507  0.5630
  251MOL0     C33018   8.660   3.226   7.078 -0.7058 -0.3161 -0.1640
  251MOL0     C33019   8.771   3.152   7.111 -0.0371  0.4989  0.8943
  251MOL0     C33020   8.859   3.063   7.016  0.5980 -0.2729 -0.4028
  251MOL0     C33021   8.962   3.135   6.922 -0.4870  0.1826  0.2030
  251MOL0     C33022   8.894   3.155   6.784 -0.4305 -1.2101 -0.0085
  251MOL0     C33023   8.980   3.253   6.705  0.3278 -0.7691 -0.8985
  251MOL0     O33024   8.945   3.258   6.563  0.6249 -0.7154  0.5738
  251MOL0     C33025   8.818   3.305   6.529 -0.6319  0.3754  0.2308
  251MOL0     C33026   8.746   3.234   6.428  0.2623 -0.9415 -0.5513
  251MOL0     C33027   8.623   3.273   6.376 -0.9135 -0.2260 -0.2417
  251MOL0     C33028   8.557   3.380   6.436 -0.9494 -0.0347  0.5520
  251MOL0     C33029   8.418   3.424   6.389  1.5371  0.6320 -0.4109
  251MOL0     O33030   8.343   3.326   6.319 -0.1419 -0.2037 -0.7505
  251MOL0     C33031   8.251   3.372   6.227  0.4154  0.0392 -0.1739
  251MOL0     C33032   8.258   3.346   6.092  0.1975  1.0681 -0.2520
  251MOL0     C33033   8.158   3.388   5.994  0.3233 -0.0030  0.4112
  251MOL0     C33034   8.052   3.466   6.039  0.7669  1.0966  0.8845
  251MOL0     O33035   7.961   3.515   5.955 -0.3810  0.0225  0.6398
  251MOL0     C33036   7.844   3.439   5.958 -0.4342  0.2449 -0.6287
  251MOL0     C33037   7.739   3.502   5.856  0.9958 -0.4800  0.2653
  251MOL0     C33038   7.682   3.632   5.914  0.3224  1.5977 -0.3865
  251MOL0     C33039   7.559   3.670   5.830 -0.4015  0.6041  0.9017
  251MOL0     C33040   7.450   3.757   5.904 -0.6545 -0.9231 -0.1229
  251MOL0     C33041   7.345   3.813   5.816  0.3121  0.8700  0.0636
  251MOL0     C33042   7.256   3.911   5.881  0.2001 -1.7107 -0.4975
  251MOL0     C33043   7.140   3.930   5.783  0.1881  0.3307 -0.1240
  251MOL0    Cl33044   7.035   4.075   5.815  0.5136 -0.3162  0.2727
  251MOL0     C33045   8.057   3.508   6.170 -0.1126 -0.3908  0.0869
  251MOL0     C33046   8.146   3.452   6.258  0.3415 -0.4177 -1.1960
  251MOL0     O33047   8.388   3.541   6.410 -0.5503  1.2156  1.1740
  251MOL0     C33048   8.630   3.445   6.537  0.6469  0.0877 -0.6737
  251MOL0     C33049   8.758   3.417   6.583 -0.1156  0.7715  1.3163
  251MOL0     N33050   8.802   3.178   7.237 -0.3328 -0.6053 -0.6564
  251MOL0     N33051   8.710   3.246   7.293 -0.3807  0.4012  0.1815
  251MOL0     C33052   8.544   3.347   8.229 -0.3433 -0.1212  0.9856
  251MOL0     C33053   8.531   3.350   8.369  0.0692 -0.7065 -0.4037
  251MOL0     C33054   8.593   3.495   8.797  0.5518 -0.4093  0.9276
  251MOL0     C33055   8.640   3.385   8.865 -0.4314 -0.5247  0.0878
  251MOL0     C33056   8.666   3.385   8.999 -0.0563 -0.7131 -0.3695
  251MOL0     C33057   8.671   3.513   9.061 -0.3043 -0.5616  1.1462
  251MOL0     O33058   8.717   3.522   9.190 -0.2235 -0.4128 -0.4834
  251MOL0     C33059   8.705   3.648   9.255  0.5849 -0.9003  0.8919
  251MOL0     C33060   8.752   3.637   9.401  0.0124 -0.7577 -0.4781
  251MOL0     C33061   8.741   3.777   9.482 -0.5585  0.0052 -1.0661
  251MOL0     C33062   8.829   3.894   9.425 -0.2521 -0.8593  0.1604
  251MOL0     C33063   8.973   3.847   9.403 -0.0671 -0.5432 -0.4807
  251MOL0     C33064   9.076   3.793   9.380  0.2496  0.6613  0.6290
  251MOL0     C33065   8.630   3.629   8.986  0.1712  0.1508  0.0604
  251MOL0     C33066   8.587   3.616   8.859  0.0080  0.0528 -0.8854
  251MOL0     H33067   8.779   3.570   8.425 -0.1373  0.2526 -0.4330
  251MOL0     H33068   8.781   3.572   8.168 -0.2118  0.4013  0.7225
  251MOL0     H33069   8.456   3.331   7.990  2.1026 -1.3895  3.4069
  251MOL0     H33070   8.576   3.219   7.993 -1.1800 -0.8306 -1.5083
  251MOL0     H33071   8.665   3.314   7.759  1.7592  4.1853  0.4586
  251MOL0     H33072   8.534   3.435   7.768 -1.5667 -0.2898 -1.1623
  251MOL0     H33073   8.355   3.263   7.766  0.3845 -1.1912  1.8497
  251MOL0     H33074   8.477   3.139   7.727 -0.3937  0.2183 -1.0404
  251MOL0     H33075   8.542   3.282   7.530 -0.2715 -2.2920  0.5186
  251MOL0     H33076   8.393   3.179   7.539  0.3156  0.0047  0.8270
  251MOL0     H33077   8.440   3.479   7.508 -0.8898  1.4629  0.9415
  251MOL0     H33078   8.281   3.419   7.570 -0.1959 -0.9509  0.2458
  251MOL0     H33079   8.288   3.467   7.338  1.8513  0.0009 -0.2268
  251MOL0     H33080   8.215   3.320   7.384  0.5343 -0.8303 -0.7933
  251MOL0     H33081   8.422   3.190   7.317 -0.6921  1.0986  2.3183
  251MOL0     H33082   8.329   3.255   7.185 -1.3113 -1.0767  1.1056
  251MOL0     H33083   8.512   3.457   7.283 -2.1778 -1.7560  1.7969
  251MOL0     H33084   8.493   3.403   7.110  1.6526 -0.6406 -1.4922
  251MOL0     H33085   8.610   3.219   6.982 -0.3758 -0.0525 -0.3558
  251MOL0     H33086   8.787   3.009   6.953  1.2310 -0.7073 -0.7579
  251MOL0     H33087   8.926   3.001   7.076  1.5706  0.2822 -0.8970
  251MOL0     H33088   9.055   3.078   6.911 -1.2362 -1.0047 -0.1942
  251MOL0     H33089   8.972   3.235   6.966  1.3501 -0.0718  0.4278
  251MOL0     H33090   8.915   3.062   6.731 -0.3849 -1.3610  0.2734
  251MOL0     H33091   8.788   3.182   6.776  0.4510  2.4744 -1.2700
  251MOL0     H33092   9.086   3.228   6.715  0.1024 -2.0323 -1.4388
  251MOL0     H33093   8.973   3.346   6.762  1.3404 -1.4435  0.3807
  251MOL0     H33094   8.790   3.147   6.380  1.1534  0.0192 -1.5566
  251MOL0     H33095   8.575   3.214   6.298  0.5941 -3.1442  0.8993
  251MOL0     H33096   8.335   3.279   6.054  0.8276  3.4806 -3.6919
  251MOL0     H33097   8.160   3.367   5.888  0.9585 -2.1777  0.7866
  251MOL0     H33098   7.810   3.452   6.061 -0.5948 -0.0467 -0.6421
  251MOL0     H33099   7.847   3.331   5.942 -3.4531 -0.3269  1.6218
  251MOL0     H33100   7.653   3.436   5.846 -0.2432  0.5932  2.9531
  251MOL0     H33101   7.790   3.516   5.760  3.2979 -2.2019  1.1226
  251MOL0     H33102   7.750   3.716   5.903  1.0976  1.3380  1.8663
  251MOL0     H33103   7.650   3.618   6.018 -2.1476  2.5735 -0.9504
  251MOL0     H33104   7.584   3.715   5.733  2.1153 -1.8491  0.2739
  251MOL0     H33105   7.505   3.581   5.795 -2.0150  1.6563  0.6226
  251MOL0     H33106   7.509   3.838   5.948 -1.2829 -1.9561  2.8116
  251MOL0     H33107   7.413   3.710   5.995 -1.2923  0.4844  0.3704
  251MOL0     H33108   7.286   3.735   5.766 -4.3750  4.6382 -0.9963
  251MOL0     H33109   7.403   3.860   5.737 -2.2528 -1.1746 -3.3734
  251MOL0     H33110   7.219   3.885   5.981  2.3030 -2.6349  0.1002
  251MOL0     H33111   7.303   4.008   5.897 -2.3020 -0.7473  1.8537
  251MOL0     H33112   7.089   3.833   5.779  3.6830 -1.6664 -3.7677
  251MOL0     H33113   7.187   3.951   5.687  0.2296  0.4717 -0.0734
  251MOL0     H33114   7.982   3.584   6.191 -0.1579  0.7791 -3.4840
  251MOL0     H33115   8.124   3.467   6.363 -5.2207 -0.1414 -2.0473
  251MOL0     H33116   8.587   3.521   6.602  0.2048  0.4895 -1.4279
  251MOL0     H33117   8.806   3.474   6.662  0.6589  1.6536  0.2345
  251MOL0     H33118   8.474   3.282   8.177  2.6135 -1.0628 -2.2236
  251MOL0     H33119   8.448   3.294   8.411 -0.3385  1.5649  2.0531
  251MOL0     H33120   8.639   3.287   8.818  1.6381 -0.2395 -0.6301
  251MOL0     H33121   8.689   3.303   9.065 -2.1670  1.0923  2.8813
  251MOL0     H33122   8.599   3.670   9.243  0.8043 -0.3222 -0.0353
  251MOL0     H33123   8.751   3.732   9.203 -2.5756  0.6179  0.2874
  251MOL0     H33124   8.699   3.556   9.452  3.4453 -3.1160 -0.3003
  251MOL0     H33125   8.854   3.596   9.406 -0.5495 -2.0058  2.7243
  251MOL0     H33126   8.767   3.759   9.587 -1.9830 -2.2280 -1.0253
  251MOL0     H33127   8.638   3.813   9.472 -0.7830 -0.5887 -0.8734
  251MOL0     H33128   8.806   3.922   9.322  3.6518  0.6093 -0.4738
  251MOL0     H33129   8.823   3.982   9.489  0.2157  0.1701 -1.1661
  251MOL0     H33130   9.161   3.730   9.365 -1.8294 -1.8397 -2.2371
  251MOL0     H33131   8.635   3.727   9.034  0.4368  1.3728 -2.3426
  251MOL0     H33132   8.547   3.709   8.821 -2.0333  0.4211  1.8675
  252MOL0     O33133   1.738   5.116   3.843  0.0151  0.1289  0.3292
  252MOL0     C33134   1.798   5.206   3.896  0.3157 -0.1377 -0.0708
  252MOL0     O33135   1.929   5.199   3.928 -0.2098  0.3085  0.5523
  252MOL0     C33136   2.010   5.098   3.869  0.0727  1.0606 -0.3048
  252MOL0     C33137   2.112   5.056   3.956  1.2504  1.0009 -0.9422
  252MOL0     C33138   2.209   4.964   3.906 -1.0343 -1.0244  0.8961
  252MOL0     C33139   2.203   4.924   3.775  0.7337  0.7550 -0.7170
  252MOL0     O33140   2.301   4.845   3.735 -0.0377  0.6563 -0.2159
  252MOL0     C33141   2.277   4.696   3.748  0.4963 -1.0964 -1.2574
  252MOL0     C33142   2.403   4.619   3.698  0.2447 -0.1643  0.4779
  252MOL0     C33143   2.539   4.676   3.763 -1.1546  0.0345  0.1684
  252MOL0     C33144   2.525   4.658   3.916  0.8725  0.4007  1.5417
  252MOL0     C33145   2.663   4.652   3.979  0.1902  0.0970  1.0278
  252MOL0     C33146   2.730   4.787   4.014 -0.4803  0.1394  0.7199
  252MOL0     C33147   2.871   4.754   4.076  0.3587 -0.8931 -0.8085
  252MOL0     C33148   2.912   4.869   4.160 -0.2377 -0.0755  0.2001
  252MOL0     N33149   3.031   4.851   4.241  0.2068  0.5343  0.2253
  252MOL0     C33150   3.136   4.756   4.211 -0.3015 -0.2455  0.5286
  252MOL0     C33151   3.217   4.753   4.324 -0.1178  0.0857 -0.7501
  252MOL0     C33152   3.344   4.670   4.352  0.3480  0.2242  0.2846
  252MOL0     C33153   3.302   4.534   4.393 -0.0993 -0.3698 -0.2699
  252MOL0     C33154   3.250   4.444   4.281 -1.3881  0.9153  0.1849
  252MOL0     C33155   3.199   4.311   4.330  0.2549  0.6155 -0.9174
  252MOL0     O33156   3.155   4.219   4.220 -0.2875 -0.2972 -0.7388
  252MOL0     C33157   3.048   4.259   4.141 -0.3990 -0.1631  0.1939
  252MOL0     C33158   3.054   4.246   4.004  0.5106  0.9770  0.0570
  252MOL0     C33159   2.936   4.245   3.928 -0.6913  1.0315 -0.4299
  252MOL0     C33160   2.815   4.293   3.985  0.1663  0.1938  0.1597
  252MOL0     C33161   2.692   4.307   3.902 -0.3592 -0.3258  0.2301
  252MOL0     O33162   2.711   4.280   3.761 -0.0580  0.3590 -0.4143
  252MOL0     C33163   2.603   4.262   3.682  0.4381 -0.2817 -0.5438
  252MOL0     C33164   2.573   4.336   3.572  0.1896 -0.2499  0.6571
  252MOL0     C33165   2.447   4.332   3.503  0.0994 -0.0173 -0.8234
  252MOL0     C33166   2.353   4.234   3.557  0.5669  0.5910 -0.2438
  252MOL0     O33167   2.223   4.224   3.523  0.3052 -0.0275  0.0940
  252MOL0     C33168   2.177   4.316   3.424 -0.7038  0.2384  1.4080
  252MOL0     C33169   2.024   4.314   3.435  0.2097  1.1705 -0.4445
  252MOL0     C33170   1.985   4.350   3.580  0.7021  0.9377 -0.6823
  252MOL0     C33171   1.836   4.354   3.589  0.6734  0.5530  0.3739
  252MOL0     C33172   1.791   4.423   3.722  0.5788 -0.2619  0.0068
  252MOL0     C33173   1.797   4.583   3.706  0.2877  0.1019 -0.2085
  252MOL0     C33174   1.698   4.640   3.813  0.2456  0.5787  0.1885
  252MOL0     C33175   1.728   4.792   3.819  0.0242 -0.1445 -0.6313
  252MOL0    Cl33176   1.624   4.824   3.971 -0.0108  0.3752  0.3643
  252MOL0     C33177   2.401   4.146   3.655 -0.4056  0.3710 -0.8078
  252MOL0     C33178   2.525   4.148   3.710 -1.0491  0.0476  0.6229
  252MOL0     O33179   2.578   4.324   3.953 -0.3524 -0.5663  1.0529
  252MOL0     C33180   2.809   4.314   4.118  0.7023 -1.8102 -0.1625
  252MOL0     C33181   2.928   4.288   4.197 -0.1700  0.7145 -0.4313
  252MOL0     N33182   3.168   4.852   4.407 -0.5054 -0.2114 -0.5281
  252MOL0     N33183   3.057   4.905   4.366  0.0183  0.7248 -0.1832
  252MOL0     C33184   2.095   4.951   3.693  0.7695 -0.4276  0.6231
  252MOL0     C33185   1.987   5.038   3.735 -0.5744 -0.1655 -0.0491
  252MOL0     C33186   1.727   5.324   3.936 -0.1284 -1.2192  0.3345
  252MOL0     C33187   1.802   5.444   3.948  0.1691 -0.7985 -0.2808
  252MOL0     C33188   1.734   5.552   4.008  0.4860  0.6161  0.4384
  252MOL0     C33189   1.599   5.554   4.042 -0.6781 -0.6613  0.7387
  252MOL0     O33190   1.543   5.673   4.082  0.2272  0.6407  0.4856
  252MOL0     C33191   1.409   5.693   4.023 -0.4127 -0.9267  0.2851
  252MOL0     C33192   1.309   5.641   4.122 -0.1445 -0.5154  0.3230
  252MOL0     C33193   1.288   5.751   4.221  0.2960 -0.2175 -0.7831
  252MOL0     C33194   1.154   5.740   4.290 -0.3582 -0.5246 -1.0403
  252MOL0     C33195   1.105   5.854   4.373  0.1690 -0.9205  0.5835
  252MOL0     C33196   1.073   5.945   4.451 -0.3705  0.5170  0.0580
  252MOL0     C33197   1.528   5.438   4.005 -0.7029  0.3830 -0.5872
  252MOL0     C33198   1.594   5.327   3.957  0.9233 -0.5366 -0.4239
  252MOL0     H33199   2.130   5.100   4.053 -1.9440  2.5953 -0.9104
  252MOL0     H33200   2.291   4.946   3.975  0.5799  2.9132  0.2773
  252MOL0     H33201   2.188   4.662   3.695  0.6502 -1.8070 -1.0673
  252MOL0     H33202   2.268   4.680   3.856 -0.2125  3.7841 -0.3733
  252MOL0     H33203   2.426   4.618   3.591  2.6919  4.1505  0.7261
  252MOL0     H33204   2.384   4.516   3.728  0.3972 -0.3762 -0.1312
  252MOL0     H33205   2.556   4.780   3.731 -1.8443  0.5741  1.4991
  252MOL0     H33206   2.623   4.620   3.721 -1.7948 -0.4195 -0.5323
  252MOL0     H33207   2.459   4.731   3.963  0.6595  0.7902  0.6512
  252MOL0     H33208   2.474   4.565   3.943 -0.1238  0.8305  1.2091
  252MOL0     H33209   2.733   4.581   3.935 -0.1615 -0.0547  0.7025
  252MOL0     H33210   2.644   4.608   4.077 -3.2232  0.3223  0.5866
  252MOL0     H33211   2.666   4.837   4.087  1.0787  1.2951  1.3461
  252MOL0     H33212   2.735   4.857   3.930  2.6230  1.1560  1.6284
  252MOL0     H33213   2.860   4.666   4.139  1.5136 -1.4467 -1.3515
  252MOL0     H33214   2.935   4.729   3.991 -1.4575  0.9764 -2.8895
  252MOL0     H33215   2.838   4.886   4.240 -0.2139 -0.6416  0.3453
  252MOL0     H33216   2.929   4.957   4.097  0.4839 -1.6884 -1.9663
  252MOL0     H33217   3.151   4.697   4.121  0.3263  0.0320  0.4422
  252MOL0     H33218   3.396   4.722   4.433 -0.2829  2.2457 -0.5499
  252MOL0     H33219   3.411   4.666   4.266 -0.1668  1.5725 -0.1948
  252MOL0     H33220   3.226   4.552   4.469  1.4383  3.7140  0.5507
  252MOL0     H33221   3.371   4.472   4.450 -1.5047 -1.0218  0.7787
  252MOL0     H33222   3.168   4.492   4.227 -1.4318  1.0386  0.3593
  252MOL0     H33223   3.326   4.413   4.209 -0.8586 -1.6903  1.7200
  252MOL0     H33224   3.124   4.327   4.408  0.7520 -0.5952 -0.1517
  252MOL0     H33225   3.279   4.255   4.379 -0.2567  0.8223  0.1935
  252MOL0     H33226   3.145   4.211   3.957 -0.0166 -1.5123  0.7396
  252MOL0     H33227   2.947   4.226   3.821  0.2805 -0.8669 -0.0221
  252MOL0     H33228   2.649   4.408   3.541  0.6941 -0.6061  1.0540
  252MOL0     H33229   2.424   4.401   3.423  1.2627  0.2248 -0.9663
  252MOL0     H33230   2.203   4.287   3.322 -0.9458  0.1430  1.3731
  252MOL0     H33231   2.203   4.421   3.443  0.7769 -0.2133  1.9881
  252MOL0     H33232   1.996   4.216   3.394  2.0617  1.5560 -2.8770
  252MOL0     H33233   1.982   4.383   3.362 -1.4986 -1.0441 -1.7143
  252MOL0     H33234   2.022   4.450   3.606  1.8802  0.2104  0.5771
  252MOL0     H33235   2.018   4.275   3.653  0.6181 -2.5299 -3.9208
  252MOL0     H33236   1.793   4.391   3.495  1.9950 -1.5738 -1.1420
  252MOL0     H33237   1.801   4.251   3.597  0.0100  0.9114  2.4828
  252MOL0     H33238   1.862   4.399   3.801  0.3563 -1.5945 -0.1838
  252MOL0     H33239   1.693   4.390   3.757 -1.2566  4.6897  0.3096
  252MOL0     H33240   1.768   4.613   3.605  2.4221 -0.9992 -1.2234
  252MOL0     H33241   1.901   4.613   3.722  0.1839  0.7137 -0.6394
  252MOL0     H33242   1.594   4.612   3.795 -0.4367 -0.7895  4.9763
  252MOL0     H33243   1.718   4.599   3.913  1.0175  0.4448 -0.0102
  252MOL0     H33244   1.689   4.848   3.734  2.5049  2.6632 -0.0562
  252MOL0     H33245   1.833   4.819   3.831  0.4349 -2.2812  1.5596
  252MOL0     H33246   2.334   4.064   3.678 -0.1363 -0.1933 -1.9285
  252MOL0     H33247   2.544   4.075   3.788  0.3681  0.8656  1.0763
  252MOL0     H33248   2.716   4.342   4.166  1.6091  0.6955  0.2609
  252MOL0     H33249   2.920   4.282   4.305  0.6598 -4.7074 -0.3692
  252MOL0     H33250   2.098   4.908   3.593 -1.5157  2.4911 -0.8801
  252MOL0     H33251   1.906   5.067   3.669 -0.5223  3.2546  1.2369
  252MOL0     H33252   1.908   5.457   3.926 -0.3237  0.3620 -2.2237
  252MOL0     H33253   1.782   5.649   4.019 -1.2597  2.0154 -2.7699
  252MOL0     H33254   1.384   5.640   3.930  0.4884  0.4428 -0.7800
  252MOL0     H33255   1.405   5.800   3.999  2.3857 -0.7304  0.3289
  252MOL0     H33256   1.216   5.614   4.071  1.0082 -1.0006 -1.6548
  252MOL0     H33257   1.341   5.551   4.174 -0.5635 -0.7635  0.1568
  252MOL0     H33258   1.286   5.849   4.173 -4.3542  1.2254  1.6968
  252MOL0     H33259   1.367   5.747   4.297 -3.2155 -1.9371  3.2117
  252MOL0     H33260   1.077   5.732   4.212 -1.0109  1.9976 -0.7456
  252MOL0     H33261   1.153   5.653   4.356 -0.8250  1.0626  1.1351
  252MOL0     H33262   1.043   6.027   4.512 -0.2231 -0.8738  2.0983
  252MOL0     H33263   1.424   5.428   4.031  0.0346  0.0235  2.6808
  252MOL0     H33264   1.540   5.234   3.944  1.1495 -0.5575 -1.2670
  253MOL0     O33265   1.338   8.861   5.809  0.1329  1.1951  0.4217
  253MOL0     C33266   1.328   8.742   5.836  0.0602  0.1720 -0.3264
  253MOL0     O33267   1.432   8.650   5.829  0.5651 -0.1524 -0.2974
  253MOL0     C33268   1.563   8.684   5.790 -0.5972  0.1656 -0.5556
  253MOL0     C33269   1.645   8.583   5.746  0.3379 -0.5738 -0.4363
  253MOL0     C33270   1.777   8.594   5.702  0.6827 -0.1313 -0.1578
  253MOL0     C33271   1.833   8.717   5.700 -0.2327 -0.1124 -0.2979
  253MOL0     O33272   1.971   8.728   5.682 -0.2224  0.3769  0.4717
  253MOL0     C33273   2.039   8.850   5.649  0.2281 -0.5850  0.0488
  253MOL0     C33274   1.985   8.927   5.524  0.9184  0.5822 -0.0864
  253MOL0     C33275   2.047   9.061   5.535  0.2255  0.2480 -0.6058
  253MOL0     C33276   2.017   9.144   5.415 -0.1215  0.5288 -0.3030
  253MOL0     C33277   2.064   9.288   5.429 -0.4481 -1.0930  0.1889
  253MOL0     C33278   2.076   9.370   5.292 -0.0650 -0.9822 -0.4499
  253MOL0     C33279   1.948   9.418   5.234  0.3383  0.0503 -0.1708
  253MOL0     C33280   1.908   9.547   5.298  0.2525  0.3333 -0.3300
  253MOL0     N33281   1.758   9.568   5.268 -0.6697  0.3590 -0.1808
  253MOL0     C33282   1.705   9.567   5.139 -0.5355 -0.4443 -0.3219
  253MOL0     C33283   1.574   9.581   5.154 -0.4153  0.0865  1.7399
  253MOL0     C33284   1.466   9.550   5.050 -0.5078  0.2640 -0.4078
  253MOL0     C33285   1.359   9.449   5.090  0.0291 -0.4759 -0.1750
  253MOL0     C33286   1.258   9.446   4.984  0.7024  0.8477  0.2959
  253MOL0     C33287   1.148   9.345   5.037 -0.2995  0.5339 -0.0592
  253MOL0     O33288   1.177   9.207   5.054 -0.0083 -0.1368  0.6014
  253MOL0     C33289   1.085   9.103   5.060  0.4631  0.4018 -0.9192
  253MOL0     C33290   0.947   9.109   5.063  0.8161  0.1559  0.0788
  253MOL0     C33291   0.870   8.995   5.080  0.4415  0.7495  0.2525
  253MOL0     C33292   0.923   8.866   5.093  0.1237 -0.0282 -0.7399
  253MOL0     C33293   0.840   8.749   5.094 -0.3400  0.9275  0.0081
  253MOL0     O33294   0.702   8.762   5.099 -0.4542  0.5996 -0.4071
  253MOL0     C33295   0.645   8.642   5.071 -0.0192  0.3083 -0.7939
  253MOL0     C33296   0.623   8.587   4.946 -0.7660 -0.6115  0.3299
  253MOL0     C33297   0.555   8.476   4.916  0.3804  0.0788  0.9065
  253MOL0     C33298   0.497   8.398   5.019 -0.4219  0.3780  0.7629
  253MOL0     O33299   0.425   8.282   5.008  0.2086  0.0955  0.3263
  253MOL0     C33300   0.475   8.179   4.916 -0.4091 -0.8639 -0.6571
  253MOL0     C33301   0.369   8.064   4.922 -0.5004 -0.0612  0.1744
  253MOL0     C33302   0.246   8.093   4.857  1.6356  0.8247  0.7647
  253MOL0     C33303   0.151   7.982   4.859 -0.1276  0.4660 -0.2852
  253MOL0     C33304  -0.000   8.020   4.814  0.7343  0.1021 -0.3145
  253MOL0     C33305  -0.076   8.077   4.934  0.0838  0.1166  0.5051
  253MOL0     C33306  -0.213   8.125   4.882  0.6859 -0.1943 -0.8427
  253MOL0     C33307  -0.328   8.105   4.988 -0.5960  0.1680 -0.6239
  253MOL0    Cl33308  -0.273   8.189   5.143  0.4809  0.0127 -0.5734
  253MOL0     C33309   0.515   8.450   5.150  0.1438 -0.0038  0.0642
  253MOL0     C33310   0.594   8.563   5.177 -0.1760 -0.4056  0.0832
  253MOL0     O33311   0.897   8.639   5.091 -0.8235  0.4284  1.2653
  253MOL0     C33312   1.070   8.855   5.098  0.5910 -0.2402 -0.1578
  253MOL0     C33313   1.147   8.969   5.082  0.3290 -0.0116  0.8969
  253MOL0     N33314   1.543   9.614   5.280 -0.3881  0.0012  0.5797
  253MOL0     N33315   1.652   9.604   5.344  0.1531 -0.2317 -1.5789
  253MOL0     C33316   1.756   8.823   5.745 -0.3442  0.4068  0.0451
  253MOL0     C33317   1.620   8.815   5.777 -0.2808 -0.1749 -0.6540
  253MOL0     C33318   1.186   8.699   5.873  0.3221 -0.1395  0.3884
  253MOL0     C33319   1.075   8.788   5.864 -0.7479  1.5543 -0.1935
  253MOL0     C33320   0.942   8.741   5.888  0.3128 -0.4101  0.7538
  253MOL0     C33321   0.926   8.609   5.944 -0.4725  0.5575 -0.4564
  253MOL0     O33322   0.812   8.542   5.987  0.1614  0.0336  0.4652
  253MOL0     C33323   0.711   8.615   6.042  0.5672  0.4076  0.9484
  253MOL0     C33324   0.723   8.655   6.178 -0.3105  1.1689 -1.3589
  253MOL0     C33325   0.758   8.522   6.251  0.2513 -0.0246  0.5355
  253MOL0     C33326   0.735   8.540   6.405  0.4438 -0.0272  0.0362
  253MOL0     C33327   0.771   8.409   6.462  0.8366 -0.5199  0.1759
  253MOL0     C33328   0.783   8.289   6.486  0.4004  0.8067 -0.5280
  253MOL0     C33329   1.042   8.534   5.952  0.0717  0.9319 -0.9098
  253MOL0     C33330   1.165   8.566   5.916  0.3803  0.4424  0.0092
  253MOL0     H33331   1.608   8.481   5.749  0.9012 -0.7604  2.5255
  253MOL0     H33332   1.808   8.504   5.650 -2.4384 -1.3091 -0.2276
  253MOL0     H33333   2.142   8.824   5.625  0.6926  0.3653  0.9368
  253MOL0     H33334   2.039   8.915   5.737 -1.4683  0.9261 -0.9868
  253MOL0     H33335   1.876   8.937   5.517  0.7859 -0.3965  0.4079
  253MOL0     H33336   2.026   8.876   5.437  0.4346  3.6033 -2.2532
  253MOL0     H33337   2.154   9.058   5.557  0.2781 -0.0710 -0.8950
  253MOL0     H33338   2.001   9.103   5.625 -1.1719 -3.4643  0.5945
  253MOL0     H33339   2.048   9.100   5.320  0.6099 -0.0578  0.1984
  253MOL0     H33340   1.908   9.147   5.408 -0.1839  1.2662  0.6794
  253MOL0     H33341   2.165   9.283   5.471  0.2535 -0.3381 -1.3232
  253MOL0     H33342   1.993   9.347   5.489 -1.0809 -0.4832 -1.1225
  253MOL0     H33343   2.148   9.315   5.231  4.3291 -3.2037  5.6551
  253MOL0     H33344   2.133   9.456   5.329 -1.7637 -0.4233  1.0076
  253MOL0     H33345   1.972   9.450   5.132  1.4397  0.3118  0.1496
  253MOL0     H33346   1.869   9.343   5.238  0.7323 -0.3496  0.2941
  253MOL0     H33347   1.966   9.634   5.267  0.9819  0.6357  1.6885
  253MOL0     H33348   1.925   9.540   5.406 -0.3992 -1.9307 -0.3248
  253MOL0     H33349   1.750   9.536   5.045  0.4735 -1.3164  0.4192
  253MOL0     H33350   1.509   9.508   4.959 -3.1976 -3.4007 -0.1856
  253MOL0     H33351   1.426   9.649   5.024  0.9640  1.7297  2.4020
  253MOL0     H33352   1.310   9.493   5.178 -1.6602  0.1962 -1.4038
  253MOL0     H33353   1.401   9.349   5.103  0.4826 -0.7096 -2.9006
  253MOL0     H33354   1.201   9.538   4.969 -1.7111 -0.5690  0.2520
  253MOL0     H33355   1.292   9.413   4.885  2.8758  1.1227  0.8872
  253MOL0     H33356   1.066   9.341   4.965  1.0828  0.2632 -1.6823
  253MOL0     H33357   1.117   9.387   5.133 -2.2926  1.0632 -0.8901
  253MOL0     H33358   0.904   9.208   5.052 -1.7506 -0.8137  0.7617
  253MOL0     H33359   0.763   9.007   5.065 -0.1934 -1.5428  2.2001
  253MOL0     H33360   0.681   8.636   4.869 -0.3041 -2.0494 -0.2690
  253MOL0     H33361   0.542   8.446   4.812  0.2310 -1.7871  1.4311
  253MOL0     H33362   0.576   8.140   4.932  0.4717  1.1782 -0.8919
  253MOL0     H33363   0.493   8.212   4.813 -1.0528  1.4612 -0.0804
  253MOL0     H33364   0.350   8.033   5.025 -0.4845 -1.8847 -0.3361
  253MOL0     H33365   0.409   7.982   4.863 -0.7839 -1.1028  1.3864
  253MOL0     H33366   0.264   8.130   4.755  2.3018  2.0537  1.3058
  253MOL0     H33367   0.195   8.175   4.908  0.7381  0.7835 -0.0424
  253MOL0     H33368   0.180   7.905   4.786 -0.1531  2.2188 -2.2433
  253MOL0     H33369   0.140   7.945   4.961  1.5204 -2.8530 -1.1748
  253MOL0     H33370  -0.043   7.923   4.787 -0.2918  1.1003 -2.4991
  253MOL0     H33371  -0.007   8.090   4.731  2.4613  1.9707  1.0516
  253MOL0     H33372  -0.016   8.165   4.958  1.8120  0.5135 -4.0933
  253MOL0     H33373  -0.079   8.011   5.021  0.4798 -0.7240 -0.0981
  253MOL0     H33374  -0.216   8.228   4.847 -2.3997  0.6644  1.4629
  253MOL0     H33375  -0.243   8.056   4.803  0.3344 -3.7622  2.1100
  253MOL0     H33376  -0.343   8.002   5.024 -3.5104  0.5297 -0.5949
  253MOL0     H33377  -0.421   8.146   4.948 -0.9695 -1.8011 -1.9499
  253MOL0     H33378   0.480   8.399   5.239 -1.0754 -0.0804 -0.4378
  253MOL0     H33379   0.614   8.592   5.279 -1.3328 -0.8158  0.4408
  253MOL0     H33380   1.112   8.756   5.111  2.2691  0.4924  0.1950
  253MOL0     H33381   1.255   8.972   5.084  0.3239  0.3946  0.6706
  253MOL0     H33382   1.805   8.919   5.761  0.6703  0.2737 -1.9772
  253MOL0     H33383   1.570   8.907   5.807  0.0466 -0.0173 -0.5903
  253MOL0     H33384   1.091   8.891   5.833  2.2377  1.5903  1.0669
  253MOL0     H33385   0.857   8.808   5.879  1.0935  0.3406 -2.5555
  253MOL0     H33386   0.620   8.555   6.031 -0.4725  2.2325 -1.1751
  253MOL0     H33387   0.690   8.705   5.984  4.6262  0.4395 -0.8297
  253MOL0     H33388   0.806   8.723   6.200 -1.7844  2.6199  0.0007
  253MOL0     H33389   0.628   8.693   6.217 -0.2510  1.1970 -1.2416
  253MOL0     H33390   0.861   8.489   6.237 -0.0927 -0.7484 -0.4538
  253MOL0     H33391   0.693   8.442   6.213  1.4674 -1.3484  1.1693
  253MOL0     H33392   0.811   8.608   6.446  1.4576 -2.0870  1.7717
  253MOL0     H33393   0.636   8.570   6.439  1.0430  0.6072  1.3041
  253MOL0     H33394   0.798   8.184   6.504 -1.0983  1.0525  2.9877
  253MOL0     H33395   1.037   8.435   5.995  2.3784 -0.0485 -2.6478
  253MOL0     H33396   1.241   8.491   5.936 -1.4766 -1.5462  0.0357
  254MOL0     O33397   4.889   4.640   5.837  0.0629  0.1463 -0.0148
  254MOL0     C33398   4.868   4.536   5.764  0.2525 -0.0094 -0.9490
  254MOL0     O33399   4.882   4.405   5.796  0.3640 -0.6063 -0.4925
  254MOL0     C33400   4.939   4.394   5.928  0.8263 -0.0785  0.5466
  254MOL0     C33401   4.858   4.414   6.044  0.2270  0.3956 -0.5435
  254MOL0     C33402   4.907   4.388   6.164  0.8231  0.2600 -1.0317
  254MOL0     C33403   5.032   4.335   6.182  0.2164 -0.2918  0.2702
  254MOL0     O33404   5.081   4.336   6.311  0.5008 -0.5496 -0.3326
  254MOL0     C33405   5.126   4.470   6.357  0.1573  0.0467 -0.3916
  254MOL0     C33406   5.249   4.449   6.436 -0.8441 -0.0464  0.4529
  254MOL0     C33407   5.286   4.587   6.502  0.3135 -1.4585  1.2457
  254MOL0     C33408   5.435   4.575   6.550  0.1265  0.4932 -0.6151
  254MOL0     C33409   5.455   4.677   6.667  0.1675  0.0579  0.7502
  254MOL0     C33410   5.592   4.646   6.731 -0.6369 -0.2071 -0.4133
  254MOL0     C33411   5.635   4.771   6.822 -0.3480  0.3343 -0.2351
  254MOL0     C33412   5.779   4.748   6.870  0.5016  0.4337  0.5410
  254MOL0     N33413   5.790   4.622   6.959 -0.4416 -0.0190  0.1849
  254MOL0     C33414   5.714   4.604   7.068  0.2037 -0.6691  0.2194
  254MOL0     C33415   5.714   4.467   7.080 -0.2473 -0.6857  0.3268
  254MOL0     C33416   5.640   4.379   7.167  0.2562 -0.0915 -0.4659
  254MOL0     C33417   5.489   4.417   7.159 -0.6446 -0.1241 -0.4060
  254MOL0     C33418   5.416   4.335   7.274  0.3759 -0.8635  0.1769
  254MOL0     C33419   5.452   4.186   7.276  0.2520 -0.0245  0.3165
  254MOL0     O33420   5.353   4.098   7.344 -0.3696 -0.4446 -0.4393
  254MOL0     C33421   5.390   3.965   7.346  0.2799 -0.7855  0.4081
  254MOL0     C33422   5.326   3.891   7.446  0.1571 -0.9344 -0.4030
  254MOL0     C33423   5.350   3.757   7.462 -0.0959 -0.2381 -0.7783
  254MOL0     C33424   5.422   3.682   7.372 -0.1140 -0.5516 -0.8524
  254MOL0     C33425   5.436   3.543   7.392 -0.0504 -0.5422 -1.0476
  254MOL0     O33426   5.527   3.469   7.305 -0.2951 -0.2173 -0.1601
  254MOL0     C33427   5.521   3.334   7.327 -0.4583 -0.7378 -0.3571
  254MOL0     C33428   5.558   3.263   7.437  0.0835 -0.2651  0.9274
  254MOL0     C33429   5.550   3.118   7.449 -1.4110 -0.3560 -0.0851
  254MOL0     C33430   5.514   3.043   7.337 -0.2872 -0.6631 -0.5205
  254MOL0     O33431   5.510   2.907   7.352 -0.4846 -0.0076 -0.4486
  254MOL0     C33432   5.404   2.836   7.302  0.1665  0.8471 -0.3149
  254MOL0     C33433   5.338   2.769   7.422  0.3584 -0.4318  0.9544
  254MOL0     C33434   5.229   2.679   7.379  0.0356 -0.0772 -0.3753
  254MOL0     C33435   5.104   2.688   7.483 -0.1307 -0.1032  0.0249
  254MOL0     C33436   5.017   2.561   7.484  0.3396 -0.2374 -0.3588
  254MOL0     C33437   4.912   2.574   7.600 -0.0514 -0.4779 -0.3212
  254MOL0     C33438   4.840   2.442   7.622  0.1337  0.1662  0.8233
  254MOL0     C33439   4.756   2.429   7.742 -0.9150  0.1107  0.6517
  254MOL0    Cl33440   4.638   2.555   7.778 -0.1880 -0.2398 -0.1669
  254MOL0     C33441   5.474   3.117   7.223  0.4753 -1.0293  1.0612
  254MOL0     C33442   5.482   3.255   7.222 -0.1128 -0.9502  1.0686
  254MOL0     O33443   5.358   3.487   7.468  0.3570 -0.7516  0.2679
  254MOL0     C33444   5.484   3.750   7.261 -0.1318 -0.9796  0.3567
  254MOL0     C33445   5.467   3.891   7.246  0.8886  0.1287 -0.4560
  254MOL0     N33446   5.812   4.412   6.991  0.0111  0.1102  0.5507
  254MOL0     N33447   5.853   4.511   6.918  0.0945  0.1217 -1.0537
  254MOL0     C33448   5.118   4.313   6.073 -0.3354  0.2194  0.3065
  254MOL0     C33449   5.072   4.351   5.945  0.2175  1.0077 -0.3858
  254MOL0     C33450   4.829   4.574   5.629 -0.3421  0.5487  0.2327
  254MOL0     C33451   4.779   4.470   5.547  0.2815  0.4731  0.1065
  254MOL0     C33452   4.743   4.503   5.414  0.2818  0.8468 -0.5222
  254MOL0     C33453   4.756   4.635   5.371  0.2513  0.8629  0.1102
  254MOL0     O33454   4.704   4.659   5.253 -0.5200  0.1696  0.4397
  254MOL0     C33455   4.793   4.658   5.144  0.4851  0.3946  0.3450
  254MOL0     C33456   4.761   4.754   5.034  0.3801  0.2580  0.1691
  254MOL0     C33457   4.754   4.889   5.083  1.0533 -0.0288  0.1401
  254MOL0     C33458   4.749   4.994   4.967  0.5852  0.2452 -1.0405
  254MOL0     C33459   4.671   5.119   5.006  0.0151  0.4647  0.3455
  254MOL0     C33460   4.599   5.216   5.021  0.0257 -0.1927  0.1516
  254MOL0     C33461   4.799   4.736   5.455  0.3209  0.0368  0.1143
  254MOL0     C33462   4.837   4.703   5.583  0.1868 -0.5082 -0.2671
  254MOL0     H33463   4.764   4.464   6.024  1.7054  2.6747 -2.2813
  254MOL0     H33464   4.858   4.419   6.256  2.3501  0.2245 -0.1824
  254MOL0     H33465   5.053   4.521   6.421 -0.1961 -0.1273 -0.6477
  254MOL0     H33466   5.148   4.528   6.267  2.3030  0.1750  0.1709
  254MOL0     H33467   5.331   4.410   6.376  0.2105  2.5271  0.0698
  254MOL0     H33468   5.235   4.376   6.516  0.1677  0.4671  1.1173
  254MOL0     H33469   5.223   4.614   6.587 -0.6633 -3.6056  1.2657
  254MOL0     H33470   5.280   4.672   6.433  0.2997 -0.8283  2.0192
  254MOL0     H33471   5.475   4.476   6.578  1.6656  1.2688  0.0840
  254MOL0     H33472   5.497   4.598   6.463  1.1688 -3.1551 -1.0050
  254MOL0     H33473   5.381   4.651   6.743  0.6776 -1.7500  0.6623
  254MOL0     H33474   5.441   4.779   6.630 -0.7729  0.5146  2.2580
  254MOL0     H33475   5.667   4.623   6.656 -2.8233 -3.3818 -1.8541
  254MOL0     H33476   5.578   4.557   6.793  2.1386 -0.5976 -0.2336
  254MOL0     H33477   5.619   4.860   6.761  0.8734  0.8125  0.1166
  254MOL0     H33478   5.568   4.787   6.906 -2.0893 -0.4445 -1.4052
  254MOL0     H33479   5.821   4.833   6.924  2.3284  1.1710 -1.8584
  254MOL0     H33480   5.848   4.741   6.785  2.0731  5.0662  1.1449
  254MOL0     H33481   5.645   4.675   7.112 -2.3876 -2.5478 -0.5644
  254MOL0     H33482   5.674   4.386   7.271  3.4391 -3.3521 -1.0661
  254MOL0     H33483   5.637   4.279   7.122 -0.1518 -2.2660  3.9080
  254MOL0     H33484   5.442   4.392   7.064 -0.3902  0.2151 -0.6233
  254MOL0     H33485   5.470   4.525   7.170 -1.0378 -0.0686 -1.5057
  254MOL0     H33486   5.434   4.377   7.373  0.0893 -1.2607  0.4021
  254MOL0     H33487   5.308   4.351   7.279  0.5587  0.1530  2.8089
  254MOL0     H33488   5.546   4.175   7.332  0.2850 -3.6137 -0.1532
  254MOL0     H33489   5.471   4.158   7.172  1.3385 -0.2408  0.5556
  254MOL0     H33490   5.282   3.957   7.520 -0.0855 -1.1370 -0.3683
  254MOL0     H33491   5.303   3.722   7.553  3.1176  0.0704  1.1845
  254MOL0     H33492   5.580   3.315   7.529 -1.1210  0.6514  0.7248
  254MOL0     H33493   5.579   3.075   7.544  1.5076 -3.3022 -2.1160
  254MOL0     H33494   5.425   2.745   7.246 -1.5267 -1.3144  2.3152
  254MOL0     H33495   5.335   2.889   7.235 -1.0347 -1.4764 -1.0202
  254MOL0     H33496   5.297   2.847   7.487  0.2283  1.1251 -0.9041
  254MOL0     H33497   5.419   2.722   7.479 -0.0650 -0.6851  1.3497
  254MOL0     H33498   5.272   2.579   7.383  0.2597  0.0512  1.0563
  254MOL0     H33499   5.182   2.692   7.281 -2.0890 -0.2045  0.5675
  254MOL0     H33500   5.144   2.700   7.584 -1.5172 -2.7844  0.9804
  254MOL0     H33501   5.029   2.766   7.463  0.0989  0.6246  1.7833
  254MOL0     H33502   5.079   2.474   7.511 -1.9809 -2.2311 -1.0275
  254MOL0     H33503   4.960   2.542   7.392 -1.8308  3.5360 -0.0069
  254MOL0     H33504   4.830   2.646   7.589 -1.1889 -1.9601 -2.2547
  254MOL0     H33505   4.956   2.595   7.698 -1.8773  1.0198  0.2297
  254MOL0     H33506   4.774   2.424   7.537  1.5237 -0.7730 -0.1058
  254MOL0     H33507   4.899   2.351   7.629 -4.6085 -3.1950  1.6303
  254MOL0     H33508   4.825   2.443   7.826  0.5756  1.8408 -0.7839
  254MOL0     H33509   4.701   2.334   7.741  0.5143 -0.7393 -0.6495
  254MOL0     H33510   5.427   3.068   7.138 -0.2355 -0.0809  0.8944
  254MOL0     H33511   5.463   3.308   7.129 -0.1529  1.4043  2.3281
  254MOL0     H33512   5.532   3.705   7.175  1.3227  2.6385 -0.9612
  254MOL0     H33513   5.487   3.952   7.158 -2.7416  0.7495 -0.9929
  254MOL0     H33514   5.218   4.270   6.073 -0.2770  0.3512  0.6655
  254MOL0     H33515   5.118   4.331   5.849 -2.5522 -0.8767 -1.4557
  254MOL0     H33516   4.769   4.370   5.588 -0.6513  0.5703  0.1469
  254MOL0     H33517   4.715   4.434   5.335  1.6900 -1.9259  1.2243
  254MOL0     H33518   4.799   4.558   5.099 -2.4037  1.6542 -3.3147
  254MOL0     H33519   4.891   4.697   5.173 -0.7885  1.6972  3.2990
  254MOL0     H33520   4.842   4.743   4.961 -0.0484  0.0412 -0.2775
  254MOL0     H33521   4.668   4.721   4.988 -1.2718  4.5029  0.0845
  254MOL0     H33522   4.848   4.901   5.137  1.2612  1.3522 -0.4695
  254MOL0     H33523   4.662   4.902   5.140  1.1617 -0.5478  0.4325
  254MOL0     H33524   4.852   5.026   4.946  0.8966  1.8290  2.2795
  254MOL0     H33525   4.694   4.945   4.887  0.1233 -3.5151  1.3228
  254MOL0     H33526   4.534   5.296   5.049 -0.2039 -0.0560 -0.7495
  254MOL0     H33527   4.812   4.842   5.435 -0.4635  0.0160 -0.5460
  254MOL0     H33528   4.872   4.785   5.646  3.1652 -1.1393 -0.9395
  255MOL0     O33529   6.049   9.598   3.824 -0.6583  0.0696  0.1713
  255MOL0     C33530   5.925   9.593   3.833 -1.2671 -0.3503  0.7788
  255MOL0     O33531   5.831   9.692   3.820  0.8338  0.4139 -0.3993
  255MOL0     C33532   5.854   9.822   3.782 -0.2437 -0.9179  0.4328
  255MOL0     C33533   5.747   9.901   3.733 -0.2635  0.2938 -0.5102
  255MOL0     C33534   5.763  10.030   3.685  0.0207 -0.5136  0.1449
  255MOL0     C33535   5.882  10.105   3.698 -0.7349  0.4812 -0.6499
  255MOL0     O33536   5.891  10.230   3.657  0.1746 -0.3365 -0.6131
  255MOL0     C33537   5.794  10.319   3.717  0.0460 -0.8453  0.1912
  255MOL0     C33538   5.842  10.456   3.686 -0.2333  0.0229  0.1708
  255MOL0     C33539   5.975  10.493   3.747 -0.3985  0.6910  0.1133
  255MOL0     C33540   6.007  10.636   3.686 -0.2849 -0.5178  0.1655
  255MOL0     C33541   6.146  10.672   3.745 -0.2919  0.3432  0.0319
  255MOL0     C33542   6.212  10.795   3.694  0.6873 -0.0115  0.2000
  255MOL0     C33543   6.115  10.910   3.673  0.6895 -0.5284  0.5096
  255MOL0     C33544   6.188  11.040   3.621 -0.4023 -0.6038 -0.0211
  255MOL0     N33545   6.240  11.118   3.738  0.2476  0.6845 -0.7331
  255MOL0     C33546   6.232  11.255   3.755 -1.2150  0.2202 -0.2553
  255MOL0     C33547   6.292  11.279   3.878 -0.2735 -0.5308  0.1999
  255MOL0     C33548   6.305  11.407   3.961 -0.4306  0.2779  0.0047
  255MOL0     C33549   6.197  11.510   3.899 -0.6518  0.0940  0.5092
  255MOL0     C33550   6.231  11.582   3.768 -0.0214  1.1598  0.3879
  255MOL0     C33551   6.187  11.728   3.795 -0.2598 -0.5022  0.2078
  255MOL0     O33552   6.183  11.796   3.671 -0.2915  0.0455  0.0786
  255MOL0     C33553   6.299  11.848   3.600 -0.4166 -0.0548 -0.2203
  255MOL0     C33554   6.277  11.891   3.472  0.0519 -0.2868 -0.2967
  255MOL0     C33555   6.386  11.939   3.397  0.4646 -0.1846  0.2920
  255MOL0     C33556   6.514  11.964   3.452 -0.4666  0.5151  0.6153
  255MOL0     C33557   6.619  12.021   3.365  0.2825  0.9495 -0.1448
  255MOL0     O33558   6.568  12.109   3.280  0.1016  0.0197 -0.8392
  255MOL0     C33559   6.654  12.152   3.177 -0.1736  0.4302  0.1671
  255MOL0     C33560   6.738  12.263   3.183 -0.4726  0.1922  0.4831
  255MOL0     C33561   6.811  12.306   3.066 -0.0225 -0.4457  0.0048
  255MOL0     C33562   6.819  12.222   2.953  1.0872 -0.0139 -0.6138
  255MOL0     O33563   6.900  12.249   2.845  0.2816  0.1762 -0.5327
  255MOL0     C33564   6.988  12.359   2.821  0.2342 -0.6779 -0.0284
  255MOL0     C33565   7.053  12.367   2.690  0.1660 -0.9643  1.0640
  255MOL0     C33566   7.141  12.489   2.696  0.6664 -0.2415 -0.1644
  255MOL0     C33567   7.166  12.539   2.553  0.6784  0.0162  0.6209
  255MOL0     C33568   7.263  12.652   2.543 -0.3460  0.4893 -1.3128
  255MOL0     C33569   7.198  12.791   2.579 -0.7040 -0.1393  0.5676
  255MOL0     C33570   7.315  12.877   2.614  0.8063 -0.6971  0.2527
  255MOL0     C33571   7.250  13.007   2.658 -0.0955 -0.7649  0.3264
  255MOL0    Cl33572   7.155  12.997   2.819  0.2671  0.1468 -0.1682
  255MOL0     C33573   6.740  12.108   2.950  0.5278  0.5246 -0.3726
  255MOL0     C33574   6.652  12.080   3.062  0.9697 -0.1115  0.0381
  255MOL0     O33575   6.731  11.987   3.377  0.1905 -1.0104  0.2919
  255MOL0     C33576   6.528  11.910   3.583 -0.4131  1.7918 -0.7902
  255MOL0     C33577   6.425  11.850   3.654 -0.5597 -0.2315 -0.8247
  255MOL0     N33578   6.344  11.159   3.925  0.1065  0.6715  0.1055
  255MOL0     N33579   6.310  11.064   3.843 -0.3673  1.7811  0.2399
  255MOL0     C33580   5.992  10.032   3.747  0.0241  0.8492 -0.9603
  255MOL0     C33581   5.981   9.891   3.781 -0.0691  0.6533 -0.9312
  255MOL0     C33582   5.869   9.463   3.875  0.8149  1.0159  0.0469
  255MOL0     C33583   5.734   9.419   3.843  0.1785 -0.0100  0.8643
  255MOL0     C33584   5.693   9.290   3.866 -0.4602 -1.3378 -0.5065
  255MOL0     C33585   5.778   9.205   3.935 -0.1164  0.1492 -0.0435
  255MOL0     O33586   5.749   9.069   3.957  0.2435  0.0718  0.9510
  255MOL0     C33587   5.671   8.993   3.869 -0.4897  1.0879 -0.4789
  255MOL0     C33588   5.751   8.899   3.788  0.5609  0.3706 -0.4326
  255MOL0     C33589   5.666   8.781   3.724  0.2372 -0.8811  0.5884
  255MOL0     C33590   5.753   8.692   3.630 -0.3486 -0.0995 -0.0921
  255MOL0     C33591   5.799   8.763   3.515 -0.4411 -0.1485  0.1583
  255MOL0     C33592   5.849   8.805   3.414  0.0951  0.4025  0.1943
  255MOL0     C33593   5.905   9.240   3.978 -0.2090  0.8607  0.5871
  255MOL0     C33594   5.953   9.365   3.939 -0.0593  0.2778 -0.3649
  255MOL0     H33595   5.655   9.848   3.712  1.1637 -2.3101 -0.6093
  255MOL0     H33596   5.682  10.088   3.643 -1.1204 -0.0951  2.7693
  255MOL0     H33597   5.794  10.297   3.824 -0.8311 -1.0725  0.1494
  255MOL0     H33598   5.691  10.309   3.681  0.6490 -2.2890 -1.2270
  255MOL0     H33599   5.760  10.513   3.730 -2.9909 -3.9871  0.8045
  255MOL0     H33600   5.842  10.467   3.578 -0.5058 -1.3397  0.0160
  255MOL0     H33601   6.059  10.431   3.716 -1.6952 -0.7534 -0.6405
  255MOL0     H33602   5.969  10.487   3.856 -3.3043 -0.3208 -0.0192
  255MOL0     H33603   6.026  10.612   3.581  1.9205 -0.1136  0.4246
  255MOL0     H33604   5.928  10.709   3.703 -0.5172 -1.2504  2.6691
  255MOL0     H33605   6.217  10.590   3.733 -0.3861 -0.0384  1.7418
  255MOL0     H33606   6.121  10.688   3.851 -0.2434  0.0650  0.0870
  255MOL0     H33607   6.272  10.770   3.606  2.4230  3.0195  0.3884
  255MOL0     H33608   6.285  10.826   3.769  4.3487 -0.3015 -2.9553
  255MOL0     H33609   6.034  10.891   3.601  1.6799 -0.8012 -0.5738
  255MOL0     H33610   6.065  10.949   3.762 -1.0200  2.8405 -1.6980
  255MOL0     H33611   6.125  11.096   3.551 -0.9680 -3.4037 -1.9424
  255MOL0     H33612   6.263  11.008   3.548 -2.0385 -3.6305 -0.5479
  255MOL0     H33613   6.199  11.325   3.679  1.0045  0.5595 -0.9798
  255MOL0     H33614   6.408  11.442   3.954  0.2265 -1.8708 -4.3231
  255MOL0     H33615   6.291  11.389   4.068  1.4813  3.0300  0.8354
  255MOL0     H33616   6.179  11.583   3.979 -1.2906 -0.9957  1.3772
  255MOL0     H33617   6.103  11.455   3.892 -0.2485 -0.8436  1.9529
  255MOL0     H33618   6.337  11.570   3.741  0.1726 -1.1166  1.8213
  255MOL0     H33619   6.176  11.547   3.681  2.1306  1.9504 -1.3828
  255MOL0     H33620   6.262  11.759   3.868  0.1678  2.0941 -1.2300
  255MOL0     H33621   6.090  11.737   3.845 -0.2495  2.6639 -0.1795
  255MOL0     H33622   6.182  11.896   3.420  1.3596 -0.3852 -2.8799
  255MOL0     H33623   6.372  11.968   3.294  1.3711  0.7284  0.4165
  255MOL0     H33624   6.761  12.306   3.280  2.7533 -0.8636  0.3259
  255MOL0     H33625   6.844  12.409   3.074 -0.6244 -0.3811  2.4147
  255MOL0     H33626   7.063  12.361   2.901 -0.2637  1.7059  0.4711
  255MOL0     H33627   6.927  12.450   2.831  0.6613 -0.5710  2.1918
  255MOL0     H33628   6.980  12.372   2.608  0.8685 -0.2685  0.4586
  255MOL0     H33629   7.123  12.286   2.669  3.0584  1.1928  1.7961
  255MOL0     H33630   7.236  12.466   2.744  2.3237  0.3588 -2.9100
  255MOL0     H33631   7.089  12.567   2.753 -2.0849 -0.9808 -1.4491
  255MOL0     H33632   7.210  12.457   2.495 -3.7189 -1.0044 -1.7110
  255MOL0     H33633   7.068  12.569   2.514  1.1916  0.4645 -0.3928
  255MOL0     H33634   7.307  12.666   2.444  2.4210  3.7179  0.1658
  255MOL0     H33635   7.349  12.622   2.604  0.2664 -0.2664 -2.5250
  255MOL0     H33636   7.119  12.795   2.655  1.5166  1.1818  2.9423
  255MOL0     H33637   7.159  12.830   2.485 -0.7317  1.3183  1.1516
  255MOL0     H33638   7.384  12.827   2.682  0.5861  1.2743  2.0161
  255MOL0     H33639   7.371  12.895   2.522 -1.3040  0.9293 -0.8224
  255MOL0     H33640   7.182  13.033   2.576  0.2838 -0.8106 -0.0072
  255MOL0     H33641   7.330  13.083   2.663  0.1356 -0.8939 -0.9786
  255MOL0     H33642   6.734  12.054   2.856 -1.0300 -2.1526  1.1527
  255MOL0     H33643   6.573  12.006   3.055  0.3146  0.6848 -1.6747
  255MOL0     H33644   6.627  11.929   3.624  0.2514  1.6318 -2.2369
  255MOL0     H33645   6.433  11.827   3.760 -1.8165 -0.6097 -0.7934
  255MOL0     H33646   6.083  10.090   3.750 -0.6894  2.0183  1.7848
  255MOL0     H33647   6.072   9.849   3.822 -1.0876 -0.6607  0.0935
  255MOL0     H33648   5.664   9.484   3.792 -0.5670 -1.8776 -0.6004
  255MOL0     H33649   5.599   9.249   3.830 -0.3738 -0.9088 -1.2541
  255MOL0     H33650   5.609   9.043   3.794 -1.6345  0.5270  0.0607
  255MOL0     H33651   5.605   8.924   3.924 -0.1130 -0.6873 -2.1482
  255MOL0     H33652   5.787   8.964   3.708  0.7336  2.1843  1.0562
  255MOL0     H33653   5.833   8.854   3.845 -1.5147 -2.3460  0.6607
  255MOL0     H33654   5.583   8.825   3.669 -0.4502 -0.6894  1.7374
  255MOL0     H33655   5.610   8.728   3.801 -1.5219  0.2601  0.1303
  255MOL0     H33656   5.838   8.650   3.686  1.8083  1.3339 -2.1138
  255MOL0     H33657   5.681   8.619   3.593 -2.2860  1.3864  0.6086
  255MOL0     H33658   5.890   8.853   3.328 -2.9166 -0.4201 -1.8602
  255MOL0     H33659   5.967   9.172   4.036 -0.0192  1.4241  1.0539
  255MOL0     H33660   6.048   9.402   3.977 -0.1797 -0.4554  0.6804
  256MOL0     O33661   3.146   0.721   7.452 -1.3015  0.5211 -0.3955
  256MOL0     C33662   3.190   0.649   7.364  0.0683 -0.7461  0.1069
  256MOL0     O33663   3.118   0.602   7.260 -0.3657  0.5423 -0.2042
  256MOL0     C33664   2.990   0.644   7.261 -0.4142  0.3592 -0.1433
  256MOL0     C33665   2.961   0.726   7.150  0.8824  0.0992  0.8189
  256MOL0     C33666   2.828   0.756   7.126 -0.1784 -0.7454  0.2453
  256MOL0     C33667   2.722   0.714   7.212  0.5224 -0.4660 -0.1623
  256MOL0     O33668   2.590   0.736   7.184 -0.5831  1.1197 -0.7522
  256MOL0     C33669   2.551   0.678   7.065 -0.7209 -0.6632 -0.2553
  256MOL0     C33670   2.400   0.687   7.063  0.9760  0.6883 -0.5865
  256MOL0     C33671   2.340   0.596   7.175 -0.5294  0.2104 -0.1354
  256MOL0     C33672   2.189   0.578   7.163  0.7433  0.0402 -1.1354
  256MOL0     C33673   2.115   0.710   7.202  0.7708 -0.0447  0.0552
  256MOL0     C33674   1.966   0.698   7.181 -0.4195 -0.0557  0.7358
  256MOL0     C33675   1.877   0.757   7.288  1.2922 -0.3351  0.0878
  256MOL0     C33676   1.830   0.658   7.398  0.4806 -0.6220 -0.3775
  256MOL0     N33677   1.691   0.604   7.376  0.5681 -0.2349  0.6800
  256MOL0     C33678   1.583   0.624   7.448 -0.8484  0.1425 -0.7638
  256MOL0     C33679   1.493   0.530   7.405 -0.2761 -0.2150  0.2895
  256MOL0     C33680   1.353   0.525   7.469 -0.5314 -0.9224  0.0900
  256MOL0     C33681   1.247   0.613   7.400  0.3174 -0.1431  0.4176
  256MOL0     C33682   1.273   0.763   7.396 -0.0553  0.3306 -0.0759
  256MOL0     C33683   1.160   0.830   7.314 -0.0039 -0.3087  0.5481
  256MOL0     O33684   1.183   0.966   7.302 -0.0689  0.3161 -0.1349
  256MOL0     C33685   1.101   1.034   7.221  0.2361 -0.7005  0.3038
  256MOL0     C33686   1.119   1.167   7.219 -0.4103 -0.7286  0.3868
  256MOL0     C33687   1.052   1.262   7.131 -0.0237 -0.1872  0.2523
  256MOL0     C33688   0.957   1.203   7.034  0.5035  1.1298 -1.2349
  256MOL0     C33689   0.872   1.296   6.953  0.3568  0.0347  0.6548
  256MOL0     O33690   0.867   1.427   7.004 -0.0881  0.4945  0.5613
  256MOL0     C33691   0.820   1.533   6.937 -0.8949 -0.1420 -0.6545
  256MOL0     C33692   0.846   1.655   6.999 -0.6909  0.3589 -0.4760
  256MOL0     C33693   0.784   1.768   6.947  0.1429  0.1941  0.2357
  256MOL0     C33694   0.711   1.775   6.824 -0.2878  2.1123  0.3015
  256MOL0     O33695   0.654   1.888   6.784 -0.1917  0.2710  0.3819
  256MOL0     C33696   0.655   1.894   6.635 -0.2508  0.3557 -0.0460
  256MOL0     C33697   0.654   2.044   6.587 -0.9997  0.6608  0.0577
  256MOL0     C33698   0.783   2.124   6.627 -1.4408  0.3099  1.5561
  256MOL0     C33699   0.790   2.265   6.559 -0.3426 -0.6862  0.3422
  256MOL0     C33700   0.883   2.355   6.647  0.1644 -0.5989  0.3605
  256MOL0     C33701   0.852   2.500   6.606 -0.3811 -0.0546  0.1807
  256MOL0     C33702   0.932   2.609   6.683 -0.2451  0.0015  0.2760
  256MOL0     C33703   0.902   2.745   6.616  0.0070  0.2658 -0.5314
  256MOL0    Cl33704   0.943   2.750   6.447 -0.0485 -0.1621  0.2847
  256MOL0     C33705   0.699   1.650   6.755  0.3691 -0.3128 -0.1715
  256MOL0     C33706   0.757   1.537   6.802  0.1023  0.2152  0.2464
  256MOL0     O33707   0.835   1.256   6.841 -1.1393  0.6645  0.4975
  256MOL0     C33708   0.925   1.067   7.053  0.1261 -1.2964  1.0482
  256MOL0     C33709   0.997   0.984   7.140 -0.3844  0.2904 -0.6844
  256MOL0     N33710   1.552   0.453   7.305  0.8728 -0.2029 -0.9980
  256MOL0     N33711   1.667   0.509   7.282 -0.4007  0.3434 -0.2261
  256MOL0     C33712   2.748   0.634   7.328 -0.2910  0.2501 -0.4589
  256MOL0     C33713   2.880   0.594   7.341 -0.3161  0.0312  0.7200
  256MOL0     C33714   3.334   0.604   7.361  0.2647 -0.3650 -0.9505
  256MOL0     C33715   3.422   0.676   7.448 -0.0787 -0.0433 -0.0838
  256MOL0     C33716   3.562   0.653   7.450  0.7196  0.4325 -1.1195
  256MOL0     C33717   3.623   0.563   7.365  0.4287 -0.9560  0.2048
  256MOL0     O33718   3.751   0.540   7.355 -0.7802  0.2482  0.4370
  256MOL0     C33719   3.808   0.505   7.475  0.0279 -0.3322  0.0664
  256MOL0     C33720   3.814   0.357   7.490 -0.2787 -0.0988  0.0165
  256MOL0     C33721   3.878   0.282   7.373  0.5125 -0.1449  0.3844
  256MOL0     C33722   3.853   0.132   7.393  0.4091 -0.6792 -0.1094
  256MOL0     C33723   3.827   0.080   7.260 -0.0567  0.4729  0.8761
  256MOL0     C33724   3.814   0.030   7.149 -0.3431  0.4635 -0.1190
  256MOL0     C33725   3.542   0.488   7.278  0.0426  0.1294 -0.1167
  256MOL0     C33726   3.399   0.513   7.270  0.9899  0.9283  0.4243
  256MOL0     H33727   3.039   0.763   7.083  1.3971 -0.4857  1.0837
  256MOL0     H33728   2.789   0.820   7.047  2.2402  2.4296  1.4006
  256MOL0     H33729   2.596   0.583   7.034 -0.9830 -0.7355 -0.4195
  256MOL0     H33730   2.567   0.746   6.981 -2.1026 -1.9517 -1.6467
  256MOL0     H33731   2.372   0.633   6.971 -1.4325 -1.2923  1.1336
  256MOL0     H33732   2.362   0.789   7.060  0.7653  0.5973 -3.5344
  256MOL0     H33733   2.374   0.631   7.274  0.8840  3.0574 -1.5011
  256MOL0     H33734   2.383   0.497   7.157 -1.4946  0.1681 -2.4492
  256MOL0     H33735   2.151   0.545   7.067  0.2561 -3.4550  0.1317
  256MOL0     H33736   2.142   0.503   7.228 -2.9112  4.0320  1.4138
  256MOL0     H33737   2.150   0.789   7.134 -1.4180 -0.7597 -2.0269
  256MOL0     H33738   2.146   0.725   7.306  0.9188  0.3919 -0.0514
  256MOL0     H33739   1.944   0.591   7.186  1.1943 -0.3721  2.2935
  256MOL0     H33740   1.947   0.733   7.079 -1.4805 -1.0323  0.5856
  256MOL0     H33741   1.925   0.845   7.331 -1.7061  0.1053  2.9952
  256MOL0     H33742   1.789   0.797   7.237  0.3940  2.6755  3.5501
  256MOL0     H33743   1.829   0.713   7.493  2.0426 -1.3628  0.0996
  256MOL0     H33744   1.895   0.571   7.408 -1.8093 -2.4134 -0.2491
  256MOL0     H33745   1.563   0.686   7.534 -2.4110 -1.5638  0.1600
  256MOL0     H33746   1.358   0.561   7.572  0.2686  3.0237 -1.1683
  256MOL0     H33747   1.309   0.425   7.464 -0.9565 -0.8066  1.2295
  256MOL0     H33748   1.154   0.595   7.455  0.8306  0.1838  1.4343
  256MOL0     H33749   1.233   0.583   7.296 -1.7951  0.5235  0.4492
  256MOL0     H33750   1.277   0.809   7.496  0.2818 -0.0322  0.0814
  256MOL0     H33751   1.369   0.792   7.352 -0.3802  0.7112 -0.5460
  256MOL0     H33752   1.058   0.831   7.353 -0.0228  0.6276  0.5000
  256MOL0     H33753   1.153   0.785   7.214 -2.9674  0.3497  0.3511
  256MOL0     H33754   1.186   1.225   7.283 -1.6299  3.7154 -1.9207
  256MOL0     H33755   1.077   1.367   7.118 -1.0927 -0.1096 -1.4335
  256MOL0     H33756   0.919   1.663   7.079 -0.2011 -1.1233 -0.7433
  256MOL0     H33757   0.803   1.860   7.001  2.1406  0.3646 -0.7030
  256MOL0     H33758   0.564   1.853   6.592  1.1279 -1.2312 -1.5787
  256MOL0     H33759   0.742   1.846   6.589 -0.0336 -0.2178  0.9416
  256MOL0     H33760   0.560   2.094   6.614 -1.3474  0.4892 -0.8147
  256MOL0     H33761   0.654   2.042   6.478 -1.8053 -0.9808  0.0605
  256MOL0     H33762   0.869   2.058   6.611 -0.8807  0.9362  1.9348
  256MOL0     H33763   0.773   2.148   6.733 -3.1837 -1.2456  1.7915
  256MOL0     H33764   0.827   2.265   6.456 -2.4040 -1.0275 -0.4497
  256MOL0     H33765   0.688   2.306   6.556  0.1379  0.5475 -1.4965
  256MOL0     H33766   0.988   2.345   6.621 -0.2124 -1.0033 -1.0767
  256MOL0     H33767   0.869   2.343   6.755 -0.4525 -1.8827  0.1649
  256MOL0     H33768   0.747   2.508   6.636 -0.0806  2.5269  0.7761
  256MOL0     H33769   0.861   2.515   6.498 -0.6895 -0.9816  0.0177
  256MOL0     H33770   0.907   2.608   6.789 -1.4192 -0.6201  0.0094
  256MOL0     H33771   1.038   2.583   6.690 -0.3595 -0.1742  1.5605
  256MOL0     H33772   0.957   2.825   6.666 -0.8671 -1.0823  2.8457
  256MOL0     H33773   0.795   2.768   6.626 -0.1965  0.1947 -2.2476
  256MOL0     H33774   0.648   1.642   6.659 -1.8428  1.4877  0.7657
  256MOL0     H33775   0.746   1.456   6.730  0.2957  1.7601 -1.5962
  256MOL0     H33776   0.844   1.033   6.989  0.3051  3.4601 -2.1773
  256MOL0     H33777   0.966   0.880   7.143 -1.5756  0.6135  2.3097
  256MOL0     H33778   2.673   0.612   7.403 -0.7800 -2.9464 -1.6942
  256MOL0     H33779   2.896   0.520   7.418 -0.1010  0.1488  0.7902
  256MOL0     H33780   3.376   0.753   7.509  1.4082 -1.0449  2.4639
  256MOL0     H33781   3.612   0.726   7.513 -0.0333  0.1894 -0.2165
  256MOL0     H33782   3.751   0.539   7.562 -0.6443  1.8496 -1.1506
  256MOL0     H33783   3.915   0.528   7.484  0.1301  0.1194 -1.9159
  256MOL0     H33784   3.866   0.339   7.585 -2.2783 -3.0817  0.6827
  256MOL0     H33785   3.719   0.307   7.513  0.2125 -1.5561 -1.0184
  256MOL0     H33786   3.984   0.307   7.372  0.1192  1.7568 -1.0309
  256MOL0     H33787   3.840   0.301   7.272 -0.2319 -2.3880  0.1813
  256MOL0     H33788   3.942   0.092   7.442  0.0175 -2.7367 -0.9944
  256MOL0     H33789   3.771   0.118   7.464  1.1358  1.6072  1.3107
  256MOL0     H33790   3.810   0.003   7.045 -0.3291  0.8636 -0.2281
  256MOL0     H33791   3.600   0.427   7.210 -0.8108 -1.4313  0.5137
  256MOL0     H33792   3.347   0.444   7.204  0.8946 -1.1253  2.4820
  257MOL0     O33793  10.802   5.583   8.359  0.1952  0.2069 -0.4156
  257MOL0     C33794  10.764   5.497   8.437  0.0642  0.7345  0.6404
  257MOL0     O33795  10.741   5.370   8.400 -0.1925  0.2356 -0.1439
  257MOL0     C33796  10.733   5.346   8.265  0.9771 -0.5686 -0.4149
  257MOL0     C33797  10.603   5.339   8.194 -0.2386 -0.2265  1.4639
  257MOL0     C33798  10.590   5.302   8.058  0.6069 -0.3710  1.0462
  257MOL0     C33799  10.708   5.272   7.984 -0.3191  0.4664 -1.2784
  257MOL0     O33800  10.713   5.242   7.853 -0.1925 -0.1574 -0.2747
  257MOL0     C33801  10.606   5.285   7.765  0.1440  0.5469  0.1765
  257MOL0     C33802  10.642   5.225   7.631 -1.3889  0.9018 -0.5078
  257MOL0     C33803  10.621   5.066   7.627 -0.2614 -0.0293  0.6175
  257MOL0     C33804  10.640   5.020   7.483  0.3233 -0.5560  1.1992
  257MOL0     C33805  10.711   4.885   7.467  0.9200 -1.3051 -0.6479
  257MOL0     C33806  10.628   4.788   7.552  0.5719  0.2744  1.1747
  257MOL0     C33807  10.642   4.650   7.490  0.6764 -0.7308  0.0982
  257MOL0     C33808  10.545   4.544   7.541  0.5720  0.5507 -0.2410
  257MOL0     N33809  10.579   4.513   7.685 -0.4067 -0.3583  0.3688
  257MOL0     C33810  10.684   4.435   7.708  1.4041 -0.0826  0.1480
  257MOL0     C33811  10.693   4.427   7.842 -0.3201  0.5710  0.4351
  257MOL0     C33812  10.788   4.348   7.921 -0.4475  0.5616 -0.9962
  257MOL0     C33813  10.925   4.393   7.885 -0.3535 -0.1883 -0.8425
  257MOL0     C33814  11.035   4.308   7.946 -0.6812 -0.4253 -0.6492
  257MOL0     C33815  11.094   4.189   7.860 -0.4822 -1.0883  0.5472
  257MOL0     O33816  11.012   4.083   7.895 -0.1762 -0.2780 -1.2073
  257MOL0     C33817  11.020   3.975   7.813  0.0502  0.3091  0.2470
  257MOL0     C33818  11.132   3.947   7.737 -0.3293  0.8735 -0.0840
  257MOL0     C33819  11.136   3.836   7.657  0.4950  0.5158  0.0853
  257MOL0     C33820  11.015   3.750   7.650 -0.1607 -0.4425 -0.5766
  257MOL0     C33821  11.007   3.631   7.569  2.1843 -0.1081  0.9210
  257MOL0     O33822  10.895   3.549   7.588 -0.1762  0.7497  0.4421
  257MOL0     C33823  10.889   3.423   7.532  0.4493 -0.8814 -0.4497
  257MOL0     C33824  10.912   3.314   7.608  0.0317  0.5672 -1.1551
  257MOL0     C33825  10.922   3.186   7.550  0.6935  0.0493  0.3437
  257MOL0     C33826  10.930   3.177   7.410 -0.5402  0.2852  0.5017
  257MOL0     O33827  10.946   3.059   7.342 -0.1190  0.1272  0.0795
  257MOL0     C33828  11.051   2.956   7.370 -0.1566 -0.4472  0.1915
  257MOL0     C33829  11.032   2.855   7.254  0.4033 -0.3734  0.3596
  257MOL0     C33830  11.072   2.716   7.293 -0.1943  0.8229  1.2156
  257MOL0     C33831  11.095   2.633   7.160  0.3568  0.3161 -0.2966
  257MOL0     C33832  11.163   2.502   7.163 -0.2059 -0.3920 -0.1867
  257MOL0     C33833  11.171   2.415   7.038  0.3819 -0.7786 -0.2350
  257MOL0     C33834  11.250   2.293   7.078 -1.0000 -0.3057 -0.4633
  257MOL0     C33835  11.170   2.170   7.111 -0.3870  1.1168 -0.3861
  257MOL0    Cl33836  11.272   2.031   7.164  0.1008 -0.4551 -0.0274
  257MOL0     C33837  10.902   3.292   7.334 -0.3654 -0.1691  0.4020
  257MOL0     C33838  10.886   3.410   7.399 -0.6298  0.5770  0.1632
  257MOL0     O33839  11.088   3.600   7.485  0.1087 -0.0051  0.7712
  257MOL0     C33840  10.906   3.786   7.733 -0.0779  0.2172 -0.5604
  257MOL0     C33841  10.916   3.896   7.814  0.2873  0.2670  0.2160
  257MOL0     N33842  10.606   4.515   7.899  0.6623  1.0593 -0.2099
  257MOL0     N33843  10.543   4.579   7.796  0.3112 -0.5663  0.0510
  257MOL0     C33844  10.833   5.271   8.055 -0.8081 -0.0282 -0.1067
  257MOL0     C33845  10.845   5.299   8.193  0.1264 -0.1289 -0.6191
  257MOL0     C33846  10.771   5.520   8.584 -0.4058 -0.2768 -0.9003
  257MOL0     C33847  10.741   5.425   8.683  0.3595 -0.3095 -1.0383
  257MOL0     C33848  10.743   5.464   8.816  0.4252 -0.4712  0.2093
  257MOL0     C33849  10.789   5.586   8.863  1.0387  0.0830 -0.4842
  257MOL0     O33850  10.803   5.619   8.993  0.0165 -0.1309  0.1669
  257MOL0     C33851  10.786   5.514   9.094  0.6096  0.7252  0.1119
  257MOL0     C33852  10.667   5.543   9.184 -0.0082 -0.4724  0.3332
  257MOL0     C33853  10.662   5.676   9.257  0.8185  0.7885 -0.6225
  257MOL0     C33854  10.752   5.686   9.389 -0.0531  0.1386 -0.1574
  257MOL0     C33855  10.744   5.823   9.443 -0.0170  0.0129 -0.4643
  257MOL0     C33856  10.733   5.915   9.516  0.1757 -0.1658 -0.1018
  257MOL0     C33857  10.839   5.673   8.766  0.4402  0.3216  0.5537
  257MOL0     C33858  10.829   5.643   8.631 -0.0062  0.3550  0.2258
  257MOL0     H33859  10.510   5.366   8.242 -0.4515  1.0420  0.3908
  257MOL0     H33860  10.496   5.289   8.007  1.5754 -0.8380 -0.7012
  257MOL0     H33861  10.609   5.394   7.773 -1.6808  0.6507 -0.1391
  257MOL0     H33862  10.504   5.253   7.789 -0.1576  3.0501  2.8726
  257MOL0     H33863  10.749   5.245   7.615 -0.4119 -2.3479  1.0421
  257MOL0     H33864  10.589   5.276   7.551 -2.7933 -0.5426 -0.5383
  257MOL0     H33865  10.519   5.052   7.665 -0.3270 -0.7119  0.2031
  257MOL0     H33866  10.690   5.018   7.698  1.0539  1.3565  0.3270
  257MOL0     H33867  10.545   5.020   7.430  0.4911 -2.9182  0.8046
  257MOL0     H33868  10.708   5.088   7.432  0.1446 -0.0259  1.6522
  257MOL0     H33869  10.815   4.887   7.503  1.6062 -1.3196 -2.5303
  257MOL0     H33870  10.699   4.874   7.359 -1.5149 -0.9854 -0.4641
  257MOL0     H33871  10.525   4.824   7.546  0.4574 -0.1214  0.6683
  257MOL0     H33872  10.671   4.782   7.652 -0.2825  1.1746  1.6121
  257MOL0     H33873  10.620   4.663   7.384 -0.3913 -1.8350  0.1511
  257MOL0     H33874  10.747   4.624   7.507  0.7587 -1.4937 -1.4194
  257MOL0     H33875  10.554   4.455   7.478  1.1863  1.5810 -1.6669
  257MOL0     H33876  10.442   4.581   7.532 -0.3778 -0.9844  2.8244
  257MOL0     H33877  10.743   4.388   7.630 -1.3045 -2.8592 -0.4228
  257MOL0     H33878  10.779   4.247   7.879 -0.0067 -1.2553  2.8269
  257MOL0     H33879  10.765   4.348   8.028 -1.7126  2.2607 -1.2319
  257MOL0     H33880  10.930   4.500   7.910  0.6189 -0.3616 -0.2843
  257MOL0     H33881  10.943   4.404   7.777  0.9115  2.0669 -0.4617
  257MOL0     H33882  11.121   4.374   7.933  0.7907 -1.2200  3.6497
  257MOL0     H33883  11.037   4.293   8.054  1.1816  0.7603 -0.4766
  257MOL0     H33884  11.196   4.166   7.892 -0.4961 -0.3455  1.1742
  257MOL0     H33885  11.099   4.218   7.755 -0.0640 -2.9324  0.0322
  257MOL0     H33886  11.215   4.016   7.741  0.2968  0.1277  4.4059
  257MOL0     H33887  11.212   3.794   7.592 -1.4276 -0.0664 -1.9193
  257MOL0     H33888  10.902   3.327   7.715  0.4709  2.0251 -1.2713
  257MOL0     H33889  10.943   3.098   7.611 -2.2606 -0.2204  1.1266
  257MOL0     H33890  11.021   2.909   7.465 -1.8352 -2.2340 -1.1224
  257MOL0     H33891  11.157   2.978   7.383  0.9523 -4.2073 -1.1487
  257MOL0     H33892  11.088   2.887   7.166 -0.7417 -0.8073 -0.5400
  257MOL0     H33893  10.929   2.860   7.218  0.8346  2.5824 -0.7214
  257MOL0     H33894  11.006   2.669   7.365  0.3751 -0.6256  0.8208
  257MOL0     H33895  11.172   2.715   7.338  0.0518 -4.5221  1.1663
  257MOL0     H33896  10.995   2.610   7.122  1.4729 -1.3251 -2.4556
  257MOL0     H33897  11.161   2.685   7.090  0.4613 -1.2505 -1.4039
  257MOL0     H33898  11.098   2.456   7.238 -4.1642 -0.6471 -3.4242
  257MOL0     H33899  11.265   2.514   7.202  0.1886  1.3552 -1.6200
  257MOL0     H33900  11.227   2.469   6.961 -1.6579 -0.1298 -1.3490
  257MOL0     H33901  11.069   2.393   7.007 -0.0453  1.6254 -0.7577
  257MOL0     H33902  11.336   2.271   7.014 -0.7248  0.4447 -0.3570
  257MOL0     H33903  11.304   2.321   7.169  0.6116 -0.2715 -1.3906
  257MOL0     H33904  11.111   2.129   7.028 -0.7879  1.0270 -0.0601
  257MOL0     H33905  11.094   2.196   7.185  0.4981 -1.4862  1.6073
  257MOL0     H33906  10.916   3.292   7.227 -1.4500  1.0840  0.2405
  257MOL0     H33907  10.872   3.504   7.347  0.0922  2.3221  2.8980
  257MOL0     H33908  10.812   3.731   7.731 -0.9752  1.6997 -0.9181
  257MOL0     H33909  10.830   3.930   7.871 -0.2413  0.6853 -0.8067
  257MOL0     H33910  10.915   5.240   7.991  1.1812 -0.7058  2.5949
  257MOL0     H33911  10.944   5.301   8.237 -0.4627  1.4575  0.7502
  257MOL0     H33912  10.705   5.327   8.652 -0.1288  0.4057 -2.8597
  257MOL0     H33913  10.683   5.397   8.876 -0.0031 -0.4463 -0.1805
  257MOL0     H33914  10.884   5.502   9.141  1.0212 -0.8924 -1.0665
  257MOL0     H33915  10.774   5.413   9.054  0.9855  0.3914  0.8203
  257MOL0     H33916  10.577   5.530   9.124  0.4074 -0.2875 -0.3526
  257MOL0     H33917  10.677   5.477   9.270  3.0663 -0.6237 -0.0026
  257MOL0     H33918  10.560   5.693   9.293  1.3399 -1.9564  2.7740
  257MOL0     H33919  10.684   5.752   9.182 -2.8405  1.0397 -1.6055
  257MOL0     H33920  10.726   5.616   9.468 -0.9120 -0.6202 -1.0858
  257MOL0     H33921  10.855   5.674   9.355 -0.0707  2.0980 -1.0499
  257MOL0     H33922  10.716   6.000   9.579  0.6313  1.2774 -1.8499
  257MOL0     H33923  10.884   5.766   8.802  0.9094  1.0707 -1.7856
  257MOL0     H33924  10.860   5.714   8.555  2.2332 -0.3597  0.3741
  258MOL0     O33925   2.098   8.648   9.200 -0.4996 -0.0458 -0.1546
  258MOL0     C33926   2.167   8.607   9.288 -0.0903 -0.0431 -0.2848
  258MOL0     O33927   2.161   8.633   9.423 -0.3163  0.7094  0.0887
  258MOL0     C33928   2.069   8.705   9.482 -0.7772 -0.2822  0.3198
  258MOL0     C33929   2.033   8.661   9.608 -0.1416  0.1185  0.1976
  258MOL0     C33930   1.911   8.702   9.670 -0.5293 -0.4046  0.7737
  258MOL0     C33931   1.839   8.807   9.620 -0.2281 -1.3424  0.0621
  258MOL0     O33932   1.747   8.881   9.690  0.4929  0.5582 -0.2861
  258MOL0     C33933   1.690   8.822   9.814 -0.8821  0.3602  0.4577
  258MOL0     C33934   1.553   8.887   9.838 -1.1068  0.1737 -0.4714
  258MOL0     C33935   1.492   8.860   9.984  0.3661  0.9140 -0.0564
  258MOL0     C33936   1.352   8.919   9.986 -0.2746 -0.4756 -0.1777
  258MOL0     C33937   1.260   8.858  10.102 -0.8237  0.4567  0.6912
  258MOL0     C33938   1.116   8.888  10.087  0.6786  0.1815 -0.5904
  258MOL0     C33939   1.070   8.848   9.944 -0.4154  0.1623 -1.1117
  258MOL0     C33940   0.929   8.817   9.939  0.3851  1.5480  0.6953
  258MOL0     N33941   0.889   8.777   9.797  1.6697  0.2528  0.1609
  258MOL0     C33942   0.924   8.840   9.682  0.7257 -0.5501  0.9963
  258MOL0     C33943   0.812   8.812   9.603 -0.2198  1.0755 -0.5479
  258MOL0     C33944   0.802   8.895   9.480 -0.3488 -0.1265 -0.0580
  258MOL0     C33945   0.915   8.885   9.390  0.0010 -0.1598 -0.1340
  258MOL0     C33946   0.877   8.913   9.245 -0.2043 -0.1112 -0.6542
  258MOL0     C33947   0.982   8.876   9.141 -0.9629  0.1188  0.1500
  258MOL0     O33948   0.914   8.898   9.017  0.2629 -0.5690 -0.3877
  258MOL0     C33949   0.960   8.876   8.895 -0.5426 -0.1030  0.3850
  258MOL0     C33950   0.905   8.942   8.792 -0.3268 -0.0877 -1.0885
  258MOL0     C33951   0.970   8.944   8.665 -0.5176  0.5135 -0.3526
  258MOL0     C33952   1.087   8.865   8.639  0.5253  0.0282 -1.1060
  258MOL0     C33953   1.144   8.845   8.501 -0.1406 -0.5276 -0.2108
  258MOL0     O33954   1.105   8.948   8.405 -0.0906 -0.1380 -0.1371
  258MOL0     C33955   1.193   8.968   8.297  0.8045  0.1384 -0.5809
  258MOL0     C33956   1.319   9.007   8.325 -0.5749 -0.1776  0.3819
  258MOL0     C33957   1.408   9.036   8.212  0.4635 -0.5348  0.3425
  258MOL0     C33958   1.365   9.032   8.070  0.2469 -0.2986 -1.1520
  258MOL0     O33959   1.453   9.069   7.966 -0.5843  0.0575 -0.7714
  258MOL0     C33960   1.417   9.055   7.827 -0.1044  0.3144 -0.2707
  258MOL0     C33961   1.527   9.133   7.741 -0.0192 -0.6207  0.7880
  258MOL0     C33962   1.662   9.057   7.735 -0.8115 -0.8399 -0.0278
  258MOL0     C33963   1.773   9.160   7.685  1.9421  0.0779  0.3005
  258MOL0     C33964   1.912   9.103   7.709  1.6950 -0.6579  0.1765
  258MOL0     C33965   1.992   9.216   7.659  0.3577  0.4846 -0.1479
  258MOL0     C33966   2.142   9.171   7.648 -0.9936 -0.3944 -0.0203
  258MOL0     C33967   2.222   9.271   7.568  0.0221 -1.5142  0.8743
  258MOL0    Cl33968   2.185   9.239   7.400 -0.1997  0.3461 -0.1350
  258MOL0     C33969   1.228   9.008   8.053 -0.1260  0.2041 -0.2946
  258MOL0     C33970   1.144   8.970   8.163 -0.7906  0.4371  0.1330
  258MOL0     O33971   1.232   8.759   8.483  1.2605 -0.6505  0.1600
  258MOL0     C33972   1.141   8.808   8.758 -1.0732  0.2011  0.5797
  258MOL0     C33973   1.082   8.810   8.877 -0.0458 -0.0958  0.0658
  258MOL0     N33974   0.728   8.717   9.661 -0.5790 -0.3641 -0.0410
  258MOL0     N33975   0.776   8.706   9.774 -0.4179 -0.1801  0.4510
  258MOL0     C33976   1.888   8.863   9.502  0.2940  0.2466 -0.5210
  258MOL0     C33977   2.001   8.812   9.430  0.8664 -0.1826  0.1777
  258MOL0     C33978   2.271   8.505   9.240 -0.3755 -0.4653  0.4346
  258MOL0     C33979   2.358   8.442   9.329 -0.6493  0.8384 -0.1134
  258MOL0     C33980   2.458   8.351   9.291  0.2784  0.1956 -0.2702
  258MOL0     C33981   2.461   8.312   9.160  0.1467 -0.0938  0.4359
  258MOL0     O33982   2.556   8.222   9.119 -0.2011 -0.2441  0.7816
  258MOL0     C33983   2.500   8.092   9.089  0.2626  0.2389  0.0376
  258MOL0     C33984   2.458   8.069   8.943  0.4236 -0.4714  0.3831
  258MOL0     C33985   2.516   7.955   8.874 -0.0156  0.5423  0.4651
  258MOL0     C33986   2.466   7.951   8.727 -0.2979 -0.6088  0.1545
  258MOL0     C33987   2.579   7.928   8.639 -0.0362 -0.2357 -0.7165
  258MOL0     C33988   2.677   7.888   8.578 -0.7414  0.5747 -0.6347
  258MOL0     C33989   2.373   8.371   9.067 -0.8890 -0.8685 -1.0884
  258MOL0     C33990   2.283   8.472   9.102  0.1898  0.1486  0.3237
  258MOL0     H33991   2.089   8.581   9.657  1.2000  0.1760 -1.1701
  258MOL0     H33992   1.893   8.643   9.759  1.2586 -4.0114 -1.0715
  258MOL0     H33993   1.759   8.843   9.897  0.3420 -2.0186  0.1217
  258MOL0     H33994   1.680   8.713   9.807  0.7245 -0.0856  3.2700
  258MOL0     H33995   1.475   8.859   9.766 -1.1559 -0.0386 -0.3361
  258MOL0     H33996   1.566   8.994   9.825 -2.6686  0.4830  0.2138
  258MOL0     H33997   1.558   8.892  10.065  0.6921  2.4424 -0.8919
  258MOL0     H33998   1.477   8.753   9.999  0.0003  0.8284 -0.9696
  258MOL0     H33999   1.358   9.027   9.999  2.1744 -0.7445  1.5465
  258MOL0     H34000   1.318   8.895   9.885  4.7872 -4.8161 -1.3363
  258MOL0     H34001   1.304   8.876  10.200 -0.4439 -3.1766  1.3311
  258MOL0     H34002   1.285   8.753  10.082 -1.1990  1.1842 -5.6331
  258MOL0     H34003   1.099   8.995  10.104  5.2337  0.8071  1.5162
  258MOL0     H34004   1.058   8.829  10.158  0.4351  0.5031 -0.5215
  258MOL0     H34005   1.084   8.940   9.886 -1.1938 -0.2786 -2.0192
  258MOL0     H34006   1.134   8.765   9.914 -0.0005  0.6566 -1.6312
  258MOL0     H34007   0.868   8.896   9.983 -4.4397  0.3958 -3.1150
  258MOL0     H34008   0.920   8.726   9.999 -0.4936  1.7554  0.8891
  258MOL0     H34009   0.997   8.916   9.659  0.4015 -0.8548 -1.2051
  258MOL0     H34010   0.782   9.001   9.497 -3.3055 -0.3011 -1.7666
  258MOL0     H34011   0.711   8.861   9.429  0.8284 -2.9630 -0.4618
  258MOL0     H34012   0.934   8.777   9.390 -0.5325 -0.2540 -0.5439
  258MOL0     H34013   0.996   8.950   9.423  0.4866 -1.8066  2.2121
  258MOL0     H34014   0.784   8.856   9.243 -1.1605  0.7461  4.4306
  258MOL0     H34015   0.869   9.022   9.235  0.5728 -0.0083 -0.2372
  258MOL0     H34016   1.003   8.770   9.156 -0.6706  0.2028  0.3248
  258MOL0     H34017   1.072   8.938   9.135 -1.5589  0.8850 -2.9080
  258MOL0     H34018   0.817   9.006   8.798  0.7331  1.3966 -0.7728
  258MOL0     H34019   0.916   8.994   8.585  1.3286 -0.3975 -2.2856
  258MOL0     H34020   1.371   9.010   8.420  0.5478  0.6520 -0.2233
  258MOL0     H34021   1.513   9.053   8.232  0.3758 -0.4501  0.7378
  258MOL0     H34022   1.325   9.105   7.798  0.2353  1.3558  0.3914
  258MOL0     H34023   1.412   8.951   7.793  3.1695  0.6332 -2.1796
  258MOL0     H34024   1.536   9.226   7.797 -0.4670 -0.5304  0.7151
  258MOL0     H34025   1.503   9.157   7.637  5.4219 -0.5970 -0.7564
  258MOL0     H34026   1.670   8.970   7.668  3.4988  0.1331 -1.1108
  258MOL0     H34027   1.689   9.023   7.835  1.6283 -0.4308 -0.4861
  258MOL0     H34028   1.756   9.182   7.579 -0.0585 -0.9452  0.3646
  258MOL0     H34029   1.770   9.251   7.745  0.3617 -0.1994  0.6804
  258MOL0     H34030   1.930   9.016   7.645 -0.2043 -1.3862  0.5623
  258MOL0     H34031   1.915   9.069   7.813 -0.7346  1.6462  1.1252
  258MOL0     H34032   1.983   9.304   7.723  2.8285  0.3428  0.5042
  258MOL0     H34033   1.946   9.235   7.561  1.5332  0.6096 -0.6960
  258MOL0     H34034   2.187   9.163   7.747 -1.0915  0.6342  0.1223
  258MOL0     H34035   2.151   9.075   7.598  1.1476 -0.5370  0.5535
  258MOL0     H34036   2.331   9.265   7.578  0.1865  0.7040  0.9488
  258MOL0     H34037   2.197   9.371   7.605  0.8705 -1.0053  0.1018
  258MOL0     H34038   1.191   8.999   7.952 -0.6000 -0.4940 -0.0703
  258MOL0     H34039   1.038   8.947   8.162 -0.7147  0.0826 -0.1406
  258MOL0     H34040   1.233   8.752   8.743 -1.2062 -0.3517  1.7331
  258MOL0     H34041   1.134   8.750   8.951  0.6794 -1.9276 -1.8109
  258MOL0     H34042   1.839   8.955   9.472 -1.6757  0.4325  2.7819
  258MOL0     H34043   2.031   8.849   9.332  0.4874  0.9796  0.4810
  258MOL0     H34044   2.348   8.482   9.429 -2.3573  0.8665 -0.2498
  258MOL0     H34045   2.512   8.295   9.365  2.4164  0.5093 -1.5138
  258MOL0     H34046   2.415   8.075   9.155  1.0362  0.6661  1.1897
  258MOL0     H34047   2.582   8.020   9.096 -0.0118 -0.5285 -3.1311
  258MOL0     H34048   2.349   8.061   8.933  0.6452 -2.9349 -0.5758
  258MOL0     H34049   2.496   8.155   8.886  0.1868 -0.5893  0.0469
  258MOL0     H34050   2.487   7.860   8.919  2.6320 -0.3009  0.5848
  258MOL0     H34051   2.624   7.948   8.889  0.4541  2.2712 -1.6112
  258MOL0     H34052   2.386   7.882   8.701 -1.4544  0.4201  0.9042
  258MOL0     H34053   2.431   8.049   8.692 -1.6196  0.0503  3.0874
  258MOL0     H34054   2.769   7.874   8.526 -1.5949  0.2440 -2.1309
  258MOL0     H34055   2.386   8.343   8.963  2.6516 -1.7627 -0.5057
  258MOL0     H34056   2.226   8.518   9.023  2.4066  2.1656 -0.2089
  259MOL0     O34057   0.124   4.211   5.437 -0.3733  0.1929 -0.5518
  259MOL0     C34058   0.020   4.274   5.432  0.1508  0.0629  0.4045
  259MOL0     O34059  -0.009   4.369   5.345 -0.3007  0.1493  0.5097
  259MOL0     C34060   0.082   4.425   5.254  1.0775  0.0795  0.4088
  259MOL0     C34061   0.020   4.500   5.153  0.8365  0.6278 -0.5503
  259MOL0     C34062   0.087   4.556   5.052 -0.1792 -1.3069 -0.2754
  259MOL0     C34063   0.227   4.546   5.035 -1.0152  0.4220  0.9791
  259MOL0     O34064   0.296   4.587   4.921 -0.3623 -0.2103  0.2714
  259MOL0     C34065   0.218   4.639   4.810  1.2732 -0.0161  0.1891
  259MOL0     C34066   0.290   4.682   4.687  0.1316  0.1004  0.5363
  259MOL0     C34067   0.382   4.573   4.637  0.5895 -0.0136  0.1004
  259MOL0     C34068   0.319   4.458   4.567 -0.8344  0.1402 -0.1233
  259MOL0     C34069   0.423   4.355   4.513 -0.5156  0.2625  0.2064
  259MOL0     C34070   0.345   4.232   4.469  1.2285  0.8870  0.0700
  259MOL0     C34071   0.443   4.120   4.415  1.1160 -1.3745  0.5562
  259MOL0     C34072   0.358   3.998   4.368 -0.5813  0.2285  0.3921
  259MOL0     N34073   0.298   4.013   4.229 -0.1153 -0.0965  0.2642
  259MOL0     C34074   0.324   3.923   4.124 -0.2208 -0.6180 -0.4842
  259MOL0     C34075   0.220   3.963   4.032  0.1540 -0.1884 -0.4849
  259MOL0     C34076   0.219   3.900   3.894  1.3707 -0.0776  1.0855
  259MOL0     C34077   0.361   3.919   3.828  0.0626  0.6156  0.0767
  259MOL0     C34078   0.409   3.776   3.778 -0.0427 -0.3786 -0.0234
  259MOL0     C34079   0.505   3.792   3.666  0.1384  0.4853 -0.1393
  259MOL0     O34080   0.617   3.878   3.698 -0.4499 -0.8204  0.2910
  259MOL0     C34081   0.641   3.966   3.591  0.4357  0.3320 -0.7988
  259MOL0     C34082   0.619   4.099   3.611  0.0124 -0.3885  0.7617
  259MOL0     C34083   0.625   4.193   3.508 -0.8358 -0.2097 -0.8206
  259MOL0     C34084   0.661   4.156   3.381 -1.2616 -0.0524  0.9609
  259MOL0     C34085   0.643   4.252   3.270 -0.1363 -0.6968 -0.9634
  259MOL0     O34086   0.654   4.205   3.146  0.5644 -0.0821 -0.6371
  259MOL0     C34087   0.619   4.290   3.054  0.2309 -0.0668 -0.2978
  259MOL0     C34088   0.487   4.317   3.039  0.1583  0.3173 -0.0635
  259MOL0     C34089   0.438   4.410   2.946  0.8976 -0.4589 -0.7957
  259MOL0     C34090   0.535   4.480   2.875  0.8035  0.6582  0.2461
  259MOL0     O34091   0.507   4.573   2.783  0.8623  0.7829 -0.2047
  259MOL0     C34092   0.585   4.684   2.789  0.4962 -0.6646 -0.3244
  259MOL0     C34093   0.510   4.817   2.763 -0.2698 -1.0232  0.8688
  259MOL0     C34094   0.599   4.955   2.773  1.0103  0.7805  0.7928
  259MOL0     C34095   0.649   5.005   2.630 -0.1936 -0.1373  0.8621
  259MOL0     C34096   0.691   5.147   2.624  0.0829 -0.4724  0.5187
  259MOL0     C34097   0.579   5.239   2.602  0.0698  0.1988 -1.1058
  259MOL0     C34098   0.639   5.384   2.604 -0.6286 -0.8352 -0.2631
  259MOL0     C34099   0.542   5.482   2.540  0.9035 -0.3052 -0.5407
  259MOL0    Cl34100   0.610   5.648   2.534  0.5779  0.3530  0.5520
  259MOL0     C34101   0.671   4.445   2.882  0.0557 -0.4482 -0.0721
  259MOL0     C34102   0.714   4.350   2.976  0.1245 -0.7026 -0.8839
  259MOL0     O34103   0.599   4.358   3.308 -0.3011 -0.0210 -0.2851
  259MOL0     C34104   0.689   4.019   3.360  0.2169 -1.0361  0.7501
  259MOL0     C34105   0.676   3.927   3.458  0.7953 -0.1009 -0.2335
  259MOL0     N34106   0.153   4.082   4.075  0.3554  0.4838  0.5488
  259MOL0     N34107   0.193   4.094   4.194  0.2365  0.4385 -0.6760
  259MOL0     C34108   0.298   4.466   5.124 -0.1791  0.8402  0.2433
  259MOL0     C34109   0.230   4.408   5.233  0.2744  0.8131 -0.6615
  259MOL0     C34110  -0.088   4.218   5.523 -0.7968  0.8077 -0.0583
  259MOL0     C34111  -0.056   4.106   5.606  0.8321 -0.1752 -0.2273
  259MOL0     C34112  -0.163   4.060   5.690 -0.6164 -0.4285  1.0062
  259MOL0     C34113  -0.294   4.112   5.689  0.6432 -0.5820  0.2153
  259MOL0     O34114  -0.400   4.075   5.765  0.0488  0.9608 -0.3240
  259MOL0     C34115  -0.381   3.944   5.832 -1.1081 -0.5673  0.6413
  259MOL0     C34116  -0.500   3.883   5.907 -0.9111 -0.2215 -0.5993
  259MOL0     C34117  -0.635   3.838   5.853 -0.1219 -0.3419  0.9453
  259MOL0     C34118  -0.706   3.755   5.966 -1.5393  0.4723  0.1871
  259MOL0     C34119  -0.799   3.648   5.919 -0.4037  0.5583  0.2794
  259MOL0     C34120  -0.865   3.557   5.863  0.5211 -0.4233 -0.0910
  259MOL0     C34121  -0.324   4.210   5.600  0.3169  0.4402  0.3697
  259MOL0     C34122  -0.224   4.264   5.521 -0.6093  0.4045 -0.5877
  259MOL0     H34123  -0.089   4.503   5.149  0.4701 -1.7861  2.7517
  259MOL0     H34124   0.023   4.600   4.977 -1.6864 -1.3266  0.9516
  259MOL0     H34125   0.143   4.711   4.843 -0.5728 -1.5416 -0.5056
  259MOL0     H34126   0.147   4.567   4.768 -2.5648  2.6422  1.5693
  259MOL0     H34127   0.352   4.770   4.707  1.1288 -0.7015  1.1023
  259MOL0     H34128   0.217   4.708   4.610 -0.5824 -2.1290  0.3875
  259MOL0     H34129   0.439   4.532   4.721 -0.6243 -0.8511  0.5378
  259MOL0     H34130   0.464   4.619   4.581  1.6439 -1.7616  0.1530
  259MOL0     H34131   0.251   4.409   4.637 -1.7389  0.0776 -1.0226
  259MOL0     H34132   0.252   4.499   4.491 -0.4924 -0.2676 -0.6552
  259MOL0     H34133   0.499   4.331   4.589  0.3195 -2.3149 -1.3153
  259MOL0     H34134   0.487   4.398   4.435 -2.9927  2.3523 -0.8138
  259MOL0     H34135   0.282   4.257   4.383 -1.2650 -0.1199  1.4951
  259MOL0     H34136   0.278   4.187   4.543  0.5866  0.3722 -0.8095
  259MOL0     H34137   0.484   4.162   4.323  0.3895 -1.9994 -0.0681
  259MOL0     H34138   0.512   4.099   4.498  0.9401  3.0903  2.0915
  259MOL0     H34139   0.298   3.970   4.455  0.0914  1.1646  1.1758
  259MOL0     H34140   0.423   3.911   4.352 -2.6825 -0.9639 -2.7303
  259MOL0     H34141   0.392   3.839   4.106  1.2173  0.3998  0.0047
  259MOL0     H34142   0.138   3.938   3.831  2.4899 -0.6868 -0.7854
  259MOL0     H34143   0.207   3.793   3.909 -0.7197 -0.1591 -0.6830
  259MOL0     H34144   0.439   3.954   3.896  0.2998 -2.6235  1.6733
  259MOL0     H34145   0.354   3.986   3.742  1.1968 -2.0556 -2.2762
  259MOL0     H34146   0.464   3.711   3.846 -0.6413 -2.1025 -1.1246
  259MOL0     H34147   0.316   3.728   3.747 -1.4110  0.4394  2.5443
  259MOL0     H34148   0.446   3.807   3.575 -0.7678  0.2420  0.3937
  259MOL0     H34149   0.555   3.696   3.647 -2.3905 -1.2879  1.4981
  259MOL0     H34150   0.600   4.134   3.712  1.2085  0.2931  0.7653
  259MOL0     H34151   0.603   4.296   3.532 -0.8419  0.0317 -1.8122
  259MOL0     H34152   0.409   4.271   3.098 -0.1080 -2.6096 -2.4239
  259MOL0     H34153   0.336   4.430   2.915  1.2420  0.5583 -1.3383
  259MOL0     H34154   0.666   4.680   2.715 -0.3411  0.1277 -1.3102
  259MOL0     H34155   0.643   4.687   2.882 -0.5711  1.9400  0.3447
  259MOL0     H34156   0.459   4.820   2.860  1.7322  1.1518  1.9787
  259MOL0     H34157   0.453   4.816   2.670 -2.6160  3.6882  1.9056
  259MOL0     H34158   0.687   4.951   2.839 -1.0623  3.1761  3.9959
  259MOL0     H34159   0.536   5.032   2.818 -0.1681  0.9856 -1.0878
  259MOL0     H34160   0.734   4.942   2.602 -0.8909 -1.6863  2.1390
  259MOL0     H34161   0.569   4.984   2.558 -0.5244 -0.7847  1.4095
  259MOL0     H34162   0.767   5.165   2.548  0.3268 -1.7912  0.4186
  259MOL0     H34163   0.736   5.160   2.723  0.2991 -2.0980  0.6546
  259MOL0     H34164   0.511   5.236   2.688  2.9326 -0.8672  1.2822
  259MOL0     H34165   0.525   5.227   2.507  4.2083  1.2211 -3.8686
  259MOL0     H34166   0.654   5.412   2.708 -2.3470 -1.5957  0.2297
  259MOL0     H34167   0.736   5.387   2.555  1.9423 -0.6372  4.3569
  259MOL0     H34168   0.458   5.488   2.610 -0.0022 -2.2598 -1.3832
  259MOL0     H34169   0.499   5.454   2.443  0.6009  0.4527 -0.6333
  259MOL0     H34170   0.741   4.498   2.819  1.5213 -1.3383  0.7451
  259MOL0     H34171   0.817   4.318   2.982  0.1783 -0.3718  0.2912
  259MOL0     H34172   0.722   3.976   3.267 -0.6833  1.9334 -1.0725
  259MOL0     H34173   0.691   3.819   3.453  1.0810 -0.0178 -1.6458
  259MOL0     H34174   0.403   4.438   5.111 -1.2890 -3.5162 -1.1927
  259MOL0     H34175   0.288   4.346   5.301 -0.2280  1.2380  0.1728
  259MOL0     H34176   0.043   4.061   5.603  1.1856  0.2971  2.2354
  259MOL0     H34177  -0.139   3.968   5.743  2.0847  0.7315  1.9717
  259MOL0     H34178  -0.309   3.967   5.911  2.3578  0.4643 -2.5090
  259MOL0     H34179  -0.329   3.870   5.771 -0.5226  0.1526  0.2501
  259MOL0     H34180  -0.466   3.798   5.968 -0.4729 -0.1677 -0.7648
  259MOL0     H34181  -0.532   3.960   5.978 -1.8002  0.7887 -2.0648
  259MOL0     H34182  -0.630   3.784   5.758 -2.0314  0.6083  0.2586
  259MOL0     H34183  -0.693   3.928   5.833  0.4364 -0.5904 -2.2897
  259MOL0     H34184  -0.628   3.694   6.012 -2.5103 -3.7062 -3.0578
  259MOL0     H34185  -0.753   3.825   6.035 -0.4755  0.3771  1.0383
  259MOL0     H34186  -0.932   3.489   5.815 -0.6286  1.1829 -0.8604
  259MOL0     H34187  -0.421   4.259   5.606 -0.3283 -0.6176 -0.9077
  259MOL0     H34188  -0.247   4.350   5.459 -0.0373  0.9754 -0.0313
  260MOL0     O34189   9.505   0.695   2.554  0.4364 -0.3594 -0.2636
  260MOL0     C34190   9.539   0.659   2.667 -0.4910 -0.0602  1.0688
  260MOL0     O34191   9.472   0.692   2.787  0.4136  0.4811 -0.8927
  260MOL0     C34192   9.365   0.779   2.774  0.2725  0.6381 -0.5252
  260MOL0     C34193   9.383   0.906   2.727 -0.8034 -0.3717 -0.2244
  260MOL0     C34194   9.277   1.005   2.754  0.7374 -0.1888  0.3735
  260MOL0     C34195   9.162   0.969   2.822  0.6609 -0.2217 -0.0192
  260MOL0     O34196   9.062   1.054   2.863 -0.3824  0.0642 -0.2412
  260MOL0     C34197   9.086   1.194   2.873  0.1314  0.7286  0.1201
  260MOL0     C34198   8.978   1.279   2.961  0.6745 -0.1885 -1.0932
  260MOL0     C34199   8.972   1.218   3.098  0.0342  0.7074  0.1506
  260MOL0     C34200   9.087   1.229   3.197 -0.2955  0.7712 -0.9907
  260MOL0     C34201   9.061   1.166   3.335  0.4480  0.0580 -0.7514
  260MOL0     C34202   8.997   1.260   3.440  0.1112 -0.0278  0.4014
  260MOL0     C34203   8.988   1.191   3.575  0.5094 -0.5978  0.1421
  260MOL0     C34204   8.933   1.280   3.687 -0.5090  0.2055  0.7695
  260MOL0     N34205   8.787   1.277   3.671  0.3137  0.5866  0.9907
  260MOL0     C34206   8.725   1.398   3.628 -0.6423  0.0939 -0.1340
  260MOL0     C34207   8.591   1.374   3.650  0.1722  0.1397 -0.6527
  260MOL0     C34208   8.465   1.454   3.629  0.9846 -0.7695  0.3977
  260MOL0     C34209   8.393   1.420   3.493 -0.9567  0.5446  0.0404
  260MOL0     C34210   8.307   1.304   3.501  1.5310  0.0393  0.9664
  260MOL0     C34211   8.163   1.322   3.436 -0.1845  0.2238  0.2465
  260MOL0     O34212   8.102   1.193   3.443 -0.2421  0.2663  0.6190
  260MOL0     C34213   8.132   1.102   3.337  0.7469  0.2625 -0.2177
  260MOL0     C34214   8.118   1.123   3.197  0.1141 -0.6977 -0.0244
  260MOL0     C34215   8.122   1.003   3.117 -0.4800 -0.1348 -0.5926
  260MOL0     C34216   8.156   0.877   3.163  0.0958 -0.3904 -0.2206
  260MOL0     C34217   8.183   0.762   3.077 -1.1075 -0.1860  0.5204
  260MOL0     O34218   8.174   0.774   2.946  0.6795 -0.7350  0.7973
  260MOL0     C34219   8.114   0.663   2.894  0.4142 -0.0605  0.5228
  260MOL0     C34220   7.977   0.656   2.887  0.5982 -0.0726 -0.2856
  260MOL0     C34221   7.903   0.548   2.829  0.9099 -0.1432  0.4744
  260MOL0     C34222   7.984   0.448   2.773  0.4424  1.6229  0.3174
  260MOL0     O34223   7.932   0.336   2.711  0.2189 -0.0739 -0.5687
  260MOL0     C34224   7.792   0.328   2.696  0.9013 -0.5684 -0.5233
  260MOL0     C34225   7.753   0.199   2.622 -0.7310  0.5273  0.1815
  260MOL0     C34226   7.794   0.208   2.472 -0.0187  0.2161 -0.8660
  260MOL0     C34227   7.767   0.082   2.396 -0.1425 -0.3386 -0.4611
  260MOL0     C34228   7.798   0.088   2.249 -0.0441  0.2723 -0.3229
  260MOL0     C34229   7.945   0.127   2.228  0.4965 -0.8379  0.1291
  260MOL0     C34230   7.959   0.155   2.076  0.2154  0.1447 -0.0137
  260MOL0     C34231   8.002   0.047   1.982 -0.7202  0.5443  0.4941
  260MOL0    Cl34232   7.946   0.083   1.827 -0.1647  0.3564 -0.3344
  260MOL0     C34233   8.128   0.458   2.771  0.4734 -1.1097  0.3988
  260MOL0     C34234   8.190   0.570   2.826 -0.1162  0.8166  0.2017
  260MOL0     O34235   8.198   0.651   3.136  0.1677 -0.2263 -0.6520
  260MOL0     C34236   8.171   0.868   3.304  0.6489  0.1511 -0.3382
  260MOL0     C34237   8.139   0.976   3.386  0.2177 -0.7707  1.0252
  260MOL0     N34238   8.585   1.246   3.710 -0.5481  0.9375 -0.4056
  260MOL0     N34239   8.701   1.185   3.730  0.2319 -0.0153  0.3541
  260MOL0     C34240   9.144   0.840   2.863  0.0749 -0.0398  0.3952
  260MOL0     C34241   9.242   0.743   2.846 -0.3031  0.4000 -0.7362
  260MOL0     C34242   9.662   0.576   2.684  0.8025 -0.4117  0.1312
  260MOL0     C34243   9.760   0.579   2.576  1.0294 -0.3475  0.0025
  260MOL0     C34244   9.863   0.485   2.583  0.0169  0.0411 -0.3600
  260MOL0     C34245   9.884   0.398   2.690  0.9530 -0.4415 -0.7985
  260MOL0     O34246   9.993   0.322   2.696 -0.4365 -0.0145 -0.7919
  260MOL0     C34247  10.026   0.217   2.603  0.5483 -0.0469 -0.3936
  260MOL0     C34248   9.906   0.116   2.575  0.1190 -0.0764 -0.1189
  260MOL0     C34249   9.821   0.154   2.458  0.3154 -0.5161 -0.5061
  260MOL0     C34250   9.700   0.058   2.435 -0.5669 -0.5800 -0.0701
  260MOL0     C34251   9.749  -0.075   2.379  0.4550  0.1954 -0.3979
  260MOL0     C34252   9.774  -0.183   2.326 -0.0975  0.0346 -0.3597
  260MOL0     C34253   9.794   0.399   2.797  0.9707 -0.6742  0.5499
  260MOL0     C34254   9.682   0.492   2.800 -0.1042  0.3164 -0.3939
  260MOL0     H34255   9.476   0.931   2.678 -0.5178  0.5420  0.7263
  260MOL0     H34256   9.288   1.108   2.723  1.5902 -0.5324 -0.5094
  260MOL0     H34257   9.104   1.242   2.776 -1.8313  2.8962  0.7367
  260MOL0     H34258   9.169   1.203   2.944 -1.1231  2.7654  1.4445
  260MOL0     H34259   8.879   1.282   2.915  0.1401 -0.2976  0.0289
  260MOL0     H34260   8.999   1.386   2.970 -0.1449 -0.2061  2.0463
  260MOL0     H34261   8.942   1.113   3.097  2.5491 -0.0820  1.0019
  260MOL0     H34262   8.889   1.276   3.139 -0.4994 -0.8323  1.3508
  260MOL0     H34263   9.171   1.168   3.163 -0.5007 -0.4310  0.5262
  260MOL0     H34264   9.125   1.331   3.191  1.4484  0.2637  0.2664
  260MOL0     H34265   9.160   1.147   3.377  0.4793  0.0088 -0.8477
  260MOL0     H34266   8.996   1.081   3.314 -1.1631 -0.1320  3.8872
  260MOL0     H34267   8.899   1.283   3.397 -0.1081 -0.3757  0.7044
  260MOL0     H34268   9.043   1.359   3.447 -0.3514  0.0925  2.8985
  260MOL0     H34269   8.927   1.103   3.553 -2.7152  1.5532 -0.1785
  260MOL0     H34270   9.086   1.154   3.609  0.2867 -1.8655 -0.5461
  260MOL0     H34271   8.991   1.372   3.670 -0.6830 -0.0020 -1.2032
  260MOL0     H34272   8.962   1.237   3.783 -0.3990 -3.3692 -0.7344
  260MOL0     H34273   8.769   1.482   3.575  3.9904 -3.0176 -1.8903
  260MOL0     H34274   8.490   1.559   3.649 -2.2560 -0.3392  3.2795
  260MOL0     H34275   8.397   1.433   3.712 -0.1732  2.3051  0.3708
  260MOL0     H34276   8.463   1.413   3.409 -1.5831 -0.5431 -0.4038
  260MOL0     H34277   8.341   1.513   3.472 -0.0926  0.9763 -0.2431
  260MOL0     H34278   8.358   1.217   3.458 -0.4550 -1.6988  1.9361
  260MOL0     H34279   8.284   1.278   3.605  0.9466 -0.6351  0.6766
  260MOL0     H34280   8.175   1.359   3.334 -2.8074 -1.2884 -0.6914
  260MOL0     H34281   8.097   1.392   3.489 -0.0871  0.8858 -0.4965
  260MOL0     H34282   8.114   1.226   3.165  0.7150  0.3136  2.8553
  260MOL0     H34283   8.129   1.011   3.009  0.9615  0.9755 -0.4553
  260MOL0     H34284   7.912   0.735   2.923  0.8741 -0.5468  1.3367
  260MOL0     H34285   7.796   0.560   2.813  1.1892  2.7772  0.2124
  260MOL0     H34286   7.754   0.414   2.641 -1.3086 -0.9834  0.2638
  260MOL0     H34287   7.739   0.332   2.791 -0.3890  3.5223 -1.2379
  260MOL0     H34288   7.648   0.168   2.626 -0.1164 -2.1928 -1.7344
  260MOL0     H34289   7.799   0.121   2.683  0.1030  0.9860  0.1554
  260MOL0     H34290   7.898   0.239   2.485 -0.0328 -0.9205  2.7869
  260MOL0     H34291   7.743   0.288   2.416  0.1118  0.3024 -0.8626
  260MOL0     H34292   7.829   0.004   2.442 -0.7849 -0.1998  0.6848
  260MOL0     H34293   7.665   0.043   2.400 -0.1121 -0.4078 -0.3227
  260MOL0     H34294   7.738   0.170   2.210  0.8220  0.7410 -0.7017
  260MOL0     H34295   7.766  -0.005   2.202  0.7503  0.8568 -2.1050
  260MOL0     H34296   8.009   0.040   2.251 -0.9366 -1.6719  1.1355
  260MOL0     H34297   7.960   0.222   2.280 -0.2346  0.5158 -2.0021
  260MOL0     H34298   7.865   0.193   2.036  0.1915 -2.3845 -2.7554
  260MOL0     H34299   8.043   0.222   2.058 -0.5927  1.0225 -0.5989
  260MOL0     H34300   7.966  -0.050   2.015  0.0657  0.1369  0.1733
  260MOL0     H34301   8.110   0.055   1.973 -1.0033  3.1430 -2.6809
  260MOL0     H34302   8.183   0.378   2.722  1.2080 -1.0496  1.1019
  260MOL0     H34303   8.298   0.566   2.837 -0.1296 -3.1993  0.5891
  260MOL0     H34304   8.200   0.774   3.350  1.3226  0.6108  0.2142
  260MOL0     H34305   8.125   0.956   3.492 -1.6953 -1.0384  0.7482
  260MOL0     H34306   9.052   0.803   2.908 -0.4368 -1.7175 -1.8679
  260MOL0     H34307   9.228   0.653   2.905  0.9403  0.7369  0.1085
  260MOL0     H34308   9.752   0.633   2.482 -0.0844 -0.4972  0.0014
  260MOL0     H34309   9.942   0.480   2.509  1.7704 -1.1855  1.4939
  260MOL0     H34310  10.105   0.170   2.662 -0.4160  0.3437  1.2751
  260MOL0     H34311  10.071   0.264   2.515 -0.2416  1.0957 -0.2075
  260MOL0     H34312   9.936   0.012   2.562 -1.1815 -0.7319  1.5826
  260MOL0     H34313   9.848   0.109   2.668  0.2445 -0.2828 -0.0545
  260MOL0     H34314   9.885   0.152   2.369  1.1794 -1.2378  0.1118
  260MOL0     H34315   9.779   0.255   2.465 -0.7564 -0.9001 -1.1920
  260MOL0     H34316   9.660   0.031   2.533  0.4044 -2.3218 -0.1049
  260MOL0     H34317   9.619   0.101   2.375  0.4178  0.5057 -0.6537
  260MOL0     H34318   9.809  -0.281   2.304 -0.1350  0.3127 -1.7442
  260MOL0     H34319   9.806   0.323   2.874  0.0454 -1.1793  0.2158
  260MOL0     H34320   9.610   0.487   2.881 -1.7050  0.2473 -1.7693
  261MOL0     O34321   0.362  10.456   9.723 -0.5211  0.0537  0.4383
  261MOL0     C34322   0.248  10.466   9.677 -0.4096  0.2085  0.4494
  261MOL0     O34323   0.124  10.456   9.738 -0.9602 -0.2512  0.6723
  261MOL0     C34324   0.137  10.425   9.868  0.9098 -0.1601 -0.1113
  261MOL0     C34325   0.188  10.513   9.961 -0.3553 -0.0487 -0.9647
  261MOL0     C34326   0.193  10.484  10.093 -0.1333  1.0820 -0.8203
  261MOL0     C34327   0.161  10.354  10.144  0.6946  0.1327  0.2660
  261MOL0     O34328   0.160  10.301  10.275  0.1583  0.2570  0.2586
  261MOL0     C34329   0.243  10.372  10.358 -0.6670 -0.3033 -0.2822
  261MOL0     C34330   0.222  10.311  10.496 -0.1860 -0.0610 -0.3112
  261MOL0     C34331   0.338  10.361  10.585  0.4467 -0.2128 -0.1817
  261MOL0     C34332   0.322  10.319  10.735 -0.7368  0.8798  0.3261
  261MOL0     C34333   0.454  10.331  10.808  0.1880 -0.7267 -0.5672
  261MOL0     C34334   0.439  10.313  10.961  0.7288 -0.7876 -0.5496
  261MOL0     C34335   0.346  10.204  11.007 -0.1042 -0.5112  0.0658
  261MOL0     C34336   0.361  10.186  11.157 -0.1604 -0.8360 -0.1733
  261MOL0     N34337   0.278  10.077  11.220 -0.2370 -0.6382 -0.2403
  261MOL0     C34338   0.145  10.058  11.196 -0.1845 -0.3659 -0.1072
  261MOL0     C34339   0.103   9.959  11.283 -0.6824  0.5010 -0.5951
  261MOL0     C34340  -0.037   9.913  11.302  0.0320 -0.3324  0.0192
  261MOL0     C34341  -0.085   9.836  11.185  0.3182  0.2085  0.3396
  261MOL0     C34342   0.009   9.709  11.169  0.0013 -0.4621  0.3934
  261MOL0     C34343  -0.035   9.584  11.104 -0.3217 -0.0206 -0.5397
  261MOL0     O34344  -0.061   9.622  10.971 -0.1258 -0.5095  0.2620
  261MOL0     C34345  -0.118   9.534  10.884  0.2169  1.1651 -1.2351
  261MOL0     C34346  -0.121   9.583  10.755 -0.6984 -0.2524  0.1849
  261MOL0     C34347  -0.173   9.516  10.652 -0.3752 -0.3058  0.9521
  261MOL0     C34348  -0.221   9.381  10.671  0.5535 -0.0114 -0.3357
  261MOL0     C34349  -0.270   9.306  10.557  0.0692  0.1886  0.3527
  261MOL0     O34350  -0.305   9.181  10.584  0.0371 -0.2698 -1.0319
  261MOL0     C34351  -0.339   9.077  10.506  0.3656 -0.7636  0.9986
  261MOL0     C34352  -0.330   8.947  10.552  0.3024 -0.1804 -1.1966
  261MOL0     C34353  -0.357   8.836  10.478 -0.0353  0.1783  0.0885
  261MOL0     C34354  -0.392   8.849  10.344 -0.5374  0.1857 -0.8410
  261MOL0     O34355  -0.414   8.723  10.287 -0.5814  0.4995  0.1546
  261MOL0     C34356  -0.414   8.702  10.143 -0.0336 -0.7496  1.4515
  261MOL0     C34357  -0.529   8.606  10.111  0.0444 -0.5643  0.1114
  261MOL0     C34358  -0.662   8.679  10.112  0.5158  0.2041 -0.4173
  261MOL0     C34359  -0.708   8.742  10.243 -0.8674 -0.9176 -0.0962
  261MOL0     C34360  -0.856   8.775  10.246  0.2068 -0.2678 -0.0962
  261MOL0     C34361  -0.903   8.779  10.393  0.1294 -0.2680  0.5926
  261MOL0     C34362  -1.047   8.812  10.405  0.2292 -0.0273 -0.1525
  261MOL0     C34363  -1.109   8.777  10.546  0.2585  0.1535 -0.6970
  261MOL0    Cl34364  -1.291   8.827  10.524 -0.1364 -0.1531 -0.0029
  261MOL0     C34365  -0.397   8.974  10.274 -0.5460  0.0278  0.4312
  261MOL0     C34366  -0.371   9.088  10.358 -0.4145 -0.2216  0.1050
  261MOL0     O34367  -0.284   9.363  10.447  0.0649  0.8501  0.3844
  261MOL0     C34368  -0.215   9.328  10.804  0.3672 -0.1563  0.5674
  261MOL0     C34369  -0.156   9.396  10.912  0.5913  0.6239  0.3762
  261MOL0     N34370   0.212   9.917  11.356  0.2481  1.0635  0.5695
  261MOL0     N34371   0.315   9.992  11.328  0.1051  0.4222 -0.1320
  261MOL0     C34372   0.100  10.261  10.052  0.1830 -0.9014  1.0384
  261MOL0     C34373   0.091  10.302   9.920 -0.7520  0.3466 -0.4892
  261MOL0     C34374   0.244  10.466   9.530 -0.3727 -0.4256 -0.0136
  261MOL0     C34375   0.119  10.455   9.470  0.7753  0.5832  0.2882
  261MOL0     C34376   0.104  10.425   9.331  1.5069 -0.0062  0.5519
  261MOL0     C34377   0.221  10.394   9.260 -0.4913  0.4796  0.5695
  261MOL0     O34378   0.232  10.334   9.133  0.1908 -0.4008  0.0114
  261MOL0     C34379   0.101  10.307   9.074 -1.1215 -0.0484  0.8836
  261MOL0     C34380   0.117  10.229   8.956 -0.1540 -0.2783 -0.7811
  261MOL0     C34381   0.211  10.292   8.857  0.0964  0.3680 -1.2817
  261MOL0     C34382   0.219  10.230   8.722  0.2891  0.6595  0.2565
  261MOL0     C34383   0.089  10.210   8.651 -0.2558  0.2854 -0.1709
  261MOL0     C34384  -0.011  10.169   8.593 -0.4171  0.3499 -0.1599
  261MOL0     C34385   0.347  10.413   9.313 -0.0146  0.2170  0.3951
  261MOL0     C34386   0.354  10.447   9.450  0.5023  0.1468  0.2327
  261MOL0     H34387   0.228  10.611   9.939 -4.3858  1.8655 -0.7658
  261MOL0     H34388   0.212  10.561  10.167 -0.7500  1.8591 -1.4554
  261MOL0     H34389   0.217  10.478  10.361 -1.8510 -0.5712 -0.5862
  261MOL0     H34390   0.350  10.364  10.339 -0.8083  0.2980 -1.3906
  261MOL0     H34391   0.223  10.205  10.470  0.5217  0.4165 -2.5239
  261MOL0     H34392   0.122  10.324  10.536  0.0594 -0.3834  0.4166
  261MOL0     H34393   0.352  10.468  10.573 -2.2032  0.1981 -0.3027
  261MOL0     H34394   0.426  10.314  10.540  1.6558  1.1132  0.7255
  261MOL0     H34395   0.246  10.375  10.790 -1.1968  0.3453  0.2493
  261MOL0     H34396   0.286  10.216  10.750  3.0600 -0.5437  0.6230
  261MOL0     H34397   0.490  10.434  10.797 -0.2628 -0.6303 -1.1823
  261MOL0     H34398   0.530  10.266  10.763  0.2554  0.8850 -2.9534
  261MOL0     H34399   0.399  10.407  11.001 -2.3746 -0.9558 -2.8462
  261MOL0     H34400   0.539  10.295  11.002  1.2712 -2.0077 -2.2921
  261MOL0     H34401   0.240  10.224  10.988 -0.3462 -1.7098  0.0505
  261MOL0     H34402   0.375  10.112  10.955  2.4768  0.3482 -0.1364
  261MOL0     H34403   0.331  10.277  11.209 -0.0688  0.3761 -2.1426
  261MOL0     H34404   0.466  10.170  11.184 -0.0052  0.5350  0.1435
  261MOL0     H34405   0.086  10.122  11.132 -2.0485 -3.6568 -1.9829
  261MOL0     H34406  -0.099  10.000  11.322  0.6990  0.3262 -0.6951
  261MOL0     H34407  -0.008   9.853  11.388  4.0526  2.3888  0.8310
  261MOL0     H34408  -0.083   9.903  11.099 -1.1141  1.1631  1.0235
  261MOL0     H34409  -0.186   9.804  11.210  1.7236 -4.3145  1.2323
  261MOL0     H34410   0.100   9.739  11.116  0.5808 -3.3202 -0.3969
  261MOL0     H34411   0.035   9.668  11.267 -0.7001  1.1993  1.3089
  261MOL0     H34412  -0.123   9.536  11.149  1.2293 -1.1264  1.4577
  261MOL0     H34413   0.053   9.521  11.116 -0.5008 -0.0150  1.0271
  261MOL0     H34414  -0.087   9.685  10.740 -1.5230 -0.0051 -0.0550
  261MOL0     H34415  -0.167   9.568  10.557 -0.3267  0.3371  1.3050
  261MOL0     H34416  -0.294   8.939  10.654 -1.0745  1.5101 -0.5304
  261MOL0     H34417  -0.341   8.736  10.516  0.5140  0.8052  1.5827
  261MOL0     H34418  -0.325   8.646  10.112 -2.4646 -2.6689 -2.8888
  261MOL0     H34419  -0.420   8.795  10.084  4.4715  0.6293  2.7286
  261MOL0     H34420  -0.536   8.524  10.183 -0.8062 -0.9050 -0.3573
  261MOL0     H34421  -0.521   8.562  10.012 -2.7343  1.6441 -1.2310
  261MOL0     H34422  -0.744   8.610  10.088 -0.1911  1.1077 -0.6258
  261MOL0     H34423  -0.665   8.744  10.025  1.1187 -0.4064 -0.9104
  261MOL0     H34424  -0.670   8.670  10.317 -0.3631 -0.0112  0.5367
  261MOL0     H34425  -0.659   8.837  10.267 -2.5818  1.0076 -3.5062
  261MOL0     H34426  -0.916   8.701  10.192 -0.7067 -0.1891  0.7800
  261MOL0     H34427  -0.870   8.875  10.203 -1.1424 -0.5284 -0.2958
  261MOL0     H34428  -0.849   8.857  10.447  2.0933 -0.1909 -1.3316
  261MOL0     H34429  -0.888   8.677  10.432  0.3667 -0.1928  0.6995
  261MOL0     H34430  -1.058   8.916  10.373 -0.8542  1.1260  3.5197
  261MOL0     H34431  -1.106   8.759  10.329 -0.3638  0.4253 -0.0157
  261MOL0     H34432  -1.061   8.842  10.620  2.9542 -2.4346  0.0308
  261MOL0     H34433  -1.089   8.679  10.590  0.4802 -0.0884 -1.3176
  261MOL0     H34434  -0.414   8.984  10.167  0.8927 -0.3557  0.1509
  261MOL0     H34435  -0.374   9.187  10.313  0.8752  1.0027  2.4986
  261MOL0     H34436  -0.237   9.223  10.816  0.5616 -0.1931  0.6053
  261MOL0     H34437  -0.164   9.361  11.015  1.3878 -2.0309 -0.3717
  261MOL0     H34438   0.057  10.166  10.081 -0.3946 -0.7611  0.6637
  261MOL0     H34439   0.050  10.227   9.853  0.1669 -1.2793  0.7338
  261MOL0     H34440   0.028  10.434   9.525 -0.2025 -0.5337 -1.6646
  261MOL0     H34441   0.006  10.417   9.284  2.4186  1.0013 -1.6433
  261MOL0     H34442   0.051  10.401   9.051 -1.0807 -0.6435 -1.8952
  261MOL0     H34443   0.034  10.241   9.130  0.9572 -3.2841 -0.1149
  261MOL0     H34444   0.149  10.126   8.972  1.3884 -0.3639 -3.6710
  261MOL0     H34445   0.016  10.212   8.916  0.3290 -5.1386 -0.4944
  261MOL0     H34446   0.307  10.290   8.909 -0.8822  1.9824  0.7261
  261MOL0     H34447   0.180  10.396   8.841 -0.0682  0.6132  0.4819
  261MOL0     H34448   0.285  10.289   8.658  1.4372 -1.1894 -0.3589
  261MOL0     H34449   0.256  10.129   8.740 -2.0990 -0.2231  0.6316
  261MOL0     H34450  -0.096  10.132   8.539  0.1801 -1.1416 -0.1072
  261MOL0     H34451   0.434  10.400   9.250  1.6280  4.5338  1.4117
  261MOL0     H34452   0.452  10.437   9.496  0.3742 -0.4608  0.3857
  262MOL0     O34453   6.478   7.315   8.140 -0.6587  0.0516 -1.4433
  262MOL0     C34454   6.489   7.386   8.046  0.8567  0.6270 -0.0908
  262MOL0     O34455   6.612   7.414   7.981 -0.1617 -0.7262  0.4997
  262MOL0     C34456   6.707   7.316   7.957  0.5140 -0.1003  0.7769
  262MOL0     C34457   6.839   7.367   7.929  0.4372 -0.2599  0.2804
  262MOL0     C34458   6.932   7.276   7.903  0.0788  0.1012  0.0128
  262MOL0     C34459   6.913   7.139   7.902  0.1548  0.1173  0.0712
  262MOL0     O34460   7.003   7.041   7.870 -0.3199  0.4787 -0.6323
  262MOL0     C34461   7.139   7.054   7.909 -0.6448  0.1089 -0.2730
  262MOL0     C34462   7.200   6.910   7.884 -0.9260  0.2793 -0.0827
  262MOL0     C34463   7.229   6.877   7.733  0.6394 -0.0175 -0.4454
  262MOL0     C34464   7.345   6.775   7.721  0.7603 -0.7054 -0.9295
  262MOL0     C34465   7.395   6.734   7.578  0.5689  0.3743 -0.7538
  262MOL0     C34466   7.528   6.644   7.575  0.5084  0.0817  0.3776
  262MOL0     C34467   7.649   6.708   7.644  0.9156  0.4826  0.8390
  262MOL0     C34468   7.668   6.667   7.792 -0.5085  0.2799  0.4460
  262MOL0     N34469   7.774   6.740   7.860 -0.1304 -0.1134  0.4799
  262MOL0     C34470   7.739   6.867   7.908 -0.2837 -0.1918  0.1141
  262MOL0     C34471   7.860   6.918   7.940  0.8795 -0.2701  0.6303
  262MOL0     C34472   7.881   7.062   7.978 -0.8443 -0.5941 -0.4802
  262MOL0     C34473   7.942   7.139   7.876  0.2971  0.2855  0.4211
  262MOL0     C34474   8.019   7.264   7.934  0.4266  0.1763  0.3425
  262MOL0     C34475   7.918   7.395   7.933 -0.0860 -0.3758  0.6980
  262MOL0     O34476   7.787   7.376   7.989 -0.2268 -0.2019  0.6204
  262MOL0     C34477   7.751   7.464   8.086 -1.4681 -0.5422  0.7225
  262MOL0     C34478   7.650   7.566   8.056 -0.2180 -0.1210 -0.4402
  262MOL0     C34479   7.618   7.664   8.141  0.7551  0.4334 -1.1756
  262MOL0     C34480   7.689   7.675   8.263  0.5027 -0.4733  0.9799
  262MOL0     C34481   7.663   7.798   8.349 -0.4087 -0.4393 -0.6180
  262MOL0     O34482   7.550   7.878   8.329 -0.2168 -0.5921 -0.7206
  262MOL0     C34483   7.509   7.992   8.407 -0.6896 -0.0596 -0.2465
  262MOL0     C34484   7.373   8.006   8.405 -0.1862 -0.3335 -0.6108
  262MOL0     C34485   7.309   8.107   8.474 -0.0354  1.2723  0.0930
  262MOL0     C34486   7.390   8.197   8.556  0.8840  0.5058  0.3499
  262MOL0     O34487   7.343   8.297   8.630 -0.8843  0.4175 -0.3763
  262MOL0     C34488   7.201   8.318   8.639 -0.2943  1.2963 -0.5333
  262MOL0     C34489   7.176   8.448   8.712 -0.6491  1.4292 -0.1251
  262MOL0     C34490   7.252   8.559   8.655  0.0523 -0.1766  0.4307
  262MOL0     C34491   7.225   8.686   8.732  0.2567 -1.2398 -0.6204
  262MOL0     C34492   7.307   8.804   8.677  0.3814 -0.8428 -0.6737
  262MOL0     C34493   7.375   8.876   8.794  0.7163 -0.7526  0.5925
  262MOL0     C34494   7.414   9.015   8.758 -0.3520 -0.4976  0.5908
  262MOL0     C34495   7.510   9.079   8.856 -0.1005 -0.2565 -0.3328
  262MOL0    Cl34496   7.468   9.056   9.024 -0.0220 -0.4286  0.2939
  262MOL0     C34497   7.526   8.183   8.556  0.2171 -0.5574  0.7400
  262MOL0     C34498   7.587   8.074   8.492  0.6849  0.0804  0.7151
  262MOL0     O34499   7.739   7.824   8.437 -0.2126 -0.7018  0.3278
  262MOL0     C34500   7.791   7.587   8.298 -0.5707 -0.6117 -0.2235
  262MOL0     C34501   7.817   7.479   8.218  1.1923  0.8080  0.1997
  262MOL0     N34502   7.965   6.836   7.905 -0.5239 -0.9828 -0.9220
  262MOL0     N34503   7.910   6.729   7.861  0.8354  0.0131 -0.1601
  262MOL0     C34504   6.785   7.102   7.923  0.4840 -0.3765  0.3391
  262MOL0     C34505   6.680   7.180   7.948 -0.8591  0.0350 -0.2649
  262MOL0     C34506   6.365   7.448   7.984 -0.9753  0.7231  1.1211
  262MOL0     C34507   6.392   7.533   7.872  0.4333 -0.0085 -0.8871
  262MOL0     C34508   6.287   7.591   7.803  0.3969  0.1827 -0.7214
  262MOL0     C34509   6.153   7.563   7.849 -1.0589  0.0236 -0.3967
  262MOL0     O34510   6.060   7.628   7.775 -0.2557  0.3187 -0.4060
  262MOL0     C34511   5.927   7.573   7.762  0.5304  0.4988 -0.2235
  262MOL0     C34512   5.922   7.448   7.666 -0.2415  0.3775 -1.2180
  262MOL0     C34513   5.789   7.367   7.669 -0.6793 -1.0097  0.2102
  262MOL0     C34514   5.802   7.221   7.646  0.0205  0.5624 -0.7502
  262MOL0     C34515   5.861   7.142   7.758  0.3461 -0.0927 -0.5785
  262MOL0     C34516   5.909   7.105   7.860 -0.2840 -0.8725  0.3325
  262MOL0     C34517   6.133   7.478   7.954  0.1481  1.0167 -1.0818
  262MOL0     C34518   6.240   7.418   8.025  0.4811  0.5742  0.6575
  262MOL0     H34519   6.868   7.472   7.925 -1.9790  0.5724  1.7008
  262MOL0     H34520   7.028   7.316   7.871 -0.3777  2.0452  0.9565
  262MOL0     H34521   7.140   7.081   8.015 -2.9229  1.2969 -0.4924
  262MOL0     H34522   7.187   7.136   7.855 -1.6854  1.5318  0.8750
  262MOL0     H34523   7.128   6.837   7.922 -1.4326  0.9236  0.1916
  262MOL0     H34524   7.298   6.908   7.933  0.6933 -0.3227 -3.0660
  262MOL0     H34525   7.265   6.965   7.679 -1.5818 -0.1524 -2.2819
  262MOL0     H34526   7.146   6.836   7.674  3.4238 -1.0640 -4.0574
  262MOL0     H34527   7.432   6.819   7.772 -0.7040 -0.6677  1.7346
  262MOL0     H34528   7.319   6.690   7.785  1.7170  1.0012  1.9029
  262MOL0     H34529   7.416   6.829   7.528  0.5219  0.6108 -0.3200
  262MOL0     H34530   7.314   6.686   7.523 -0.5304  0.0219  1.0972
  262MOL0     H34531   7.552   6.624   7.470 -0.2939 -0.1411  0.2278
  262MOL0     H34532   7.511   6.545   7.620 -3.0160 -0.8580 -2.5150
  262MOL0     H34533   7.734   6.675   7.584 -1.4537 -2.6038 -1.1182
  262MOL0     H34534   7.636   6.817   7.651 -0.4946  0.3056  1.2267
  262MOL0     H34535   7.684   6.560   7.780 -0.0544  0.5924 -2.5723
  262MOL0     H34536   7.577   6.683   7.851 -1.1818  0.1932 -0.5266
  262MOL0     H34537   7.643   6.916   7.918 -0.1629  0.8644 -2.8744
  262MOL0     H34538   7.947   7.052   8.065  1.2045  0.5270 -1.8155
  262MOL0     H34539   7.782   7.100   8.003 -0.8780 -0.8272 -0.2502
  262MOL0     H34540   7.876   7.177   7.797 -1.2571  1.4583  2.1957
  262MOL0     H34541   8.020   7.082   7.824 -1.5056 -2.0528  0.1478
  262MOL0     H34542   8.051   7.236   8.035  1.7902  0.2981 -0.0470
  262MOL0     H34543   8.107   7.286   7.874  0.7313 -0.0290  0.7098
  262MOL0     H34544   7.911   7.425   7.828 -0.7921  0.3806  0.9504
  262MOL0     H34545   7.967   7.478   7.984  0.2332  1.7751 -2.7984
  262MOL0     H34546   7.601   7.550   7.960 -1.6510 -0.1936  0.2738
  262MOL0     H34547   7.544   7.741   8.122 -0.5630  0.3024  2.6849
  262MOL0     H34548   7.308   7.932   8.359  0.9595 -2.3022  0.7413
  262MOL0     H34549   7.202   8.115   8.462  0.0819  1.9515 -0.5742
  262MOL0     H34550   7.163   8.224   8.682  0.7264  2.4444  3.1600
  262MOL0     H34551   7.162   8.328   8.537 -1.5489 -1.8360 -0.5076
  262MOL0     H34552   7.207   8.437   8.816 -1.8598  2.1897  0.3388
  262MOL0     H34553   7.070   8.475   8.716 -0.3269  2.6311  2.9246
  262MOL0     H34554   7.217   8.579   8.554  0.1614 -0.2271  0.3811
  262MOL0     H34555   7.360   8.541   8.665  0.4780  0.1828 -2.6392
  262MOL0     H34556   7.119   8.710   8.720  0.3020 -1.3484 -1.2757
  262MOL0     H34557   7.240   8.676   8.839 -1.9308  1.1109  0.0089
  262MOL0     H34558   7.233   8.867   8.626  0.4210 -1.7441 -1.8697
  262MOL0     H34559   7.375   8.788   8.594 -0.0432  2.2014 -1.7489
  262MOL0     H34560   7.461   8.814   8.821  1.0046 -1.3398 -1.5283
  262MOL0     H34561   7.306   8.890   8.878  0.7998 -1.3163  0.7620
  262MOL0     H34562   7.456   9.010   8.657  1.2278 -1.5708  1.2653
  262MOL0     H34563   7.323   9.075   8.766 -1.0286 -1.3684 -0.4436
  262MOL0     H34564   7.536   9.184   8.838 -0.2810 -0.0873  0.3443
  262MOL0     H34565   7.610   9.034   8.859  0.5435  1.0457  2.8274
  262MOL0     H34566   7.575   8.249   8.626 -1.0196 -0.6022  1.6800
  262MOL0     H34567   7.691   8.065   8.518  0.5313 -0.2907  1.2150
  262MOL0     H34568   7.834   7.604   8.397 -0.4329 -0.5880 -0.2871
  262MOL0     H34569   7.912   7.427   8.221 -0.8352 -3.3150  2.1642
  262MOL0     H34570   6.762   6.996   7.933 -1.6796  0.2496  3.3497
  262MOL0     H34571   6.586   7.134   7.975 -0.6246  0.0346  0.5682
  262MOL0     H34572   6.486   7.582   7.851  0.0914  1.2425  0.3029
  262MOL0     H34573   6.302   7.668   7.727 -0.9086  2.3481  1.0934
  262MOL0     H34574   5.861   7.649   7.717  1.9296  1.0495 -1.4221
  262MOL0     H34575   5.889   7.558   7.863  1.0522  1.7365  0.1834
  262MOL0     H34576   5.935   7.491   7.566 -2.5658  0.7439 -1.4259
  262MOL0     H34577   6.007   7.386   7.695 -0.3086  1.1095  0.6979
  262MOL0     H34578   5.725   7.407   7.590  2.0411  1.6714 -0.8717
  262MOL0     H34579   5.738   7.393   7.762 -0.7821  1.3838 -0.4251
  262MOL0     H34580   5.700   7.184   7.631 -0.7347  1.4894  1.6498
  262MOL0     H34581   5.859   7.199   7.556 -1.3839  0.2230 -1.5854
  262MOL0     H34582   5.956   7.047   7.937  1.6042 -0.0380 -0.1331
  262MOL0     H34583   6.033   7.449   7.987  1.0366 -3.1453 -1.5125
  262MOL0     H34584   6.225   7.362   8.117  1.5660  1.7552  1.5957
  263MOL0     O34585   5.186   6.373  10.953  0.0655 -0.2616  0.6060
  263MOL0     C34586   5.101   6.297  10.900 -0.5064  0.0871 -0.0464
  263MOL0     O34587   5.041   6.315  10.771 -0.0416 -0.4621  0.2076
  263MOL0     C34588   5.085   6.419  10.691 -0.1031  0.3923  1.2768
  263MOL0     C34589   5.206   6.416  10.628  0.2288  0.5101  0.8881
  263MOL0     C34590   5.245   6.529  10.553 -0.4208 -0.1655  0.7752
  263MOL0     C34591   5.153   6.629  10.519  0.5319  0.5170  0.0993
  263MOL0     O34592   5.177   6.745  10.438  0.4320  0.0354  0.9283
  263MOL0     C34593   5.299   6.746  10.354 -0.4219 -0.3127  0.3959
  263MOL0     C34594   5.329   6.877  10.285 -0.0070 -0.0040  0.6942
  263MOL0     C34595   5.402   6.849  10.151 -0.9566  0.9112 -0.4729
  263MOL0     C34596   5.439   6.970  10.071  0.5709 -0.3484 -0.4179
  263MOL0     C34597   5.540   7.060  10.149  1.5139  0.2294  0.4511
  263MOL0     C34598   5.604   7.169  10.055 -0.0779  0.5150 -0.0997
  263MOL0     C34599   5.504   7.281  10.026 -0.0030 -0.5565  0.6173
  263MOL0     C34600   5.553   7.362   9.904  0.4688 -0.1369 -0.8410
  263MOL0     N34601   5.680   7.432   9.921 -0.6179 -0.7804  0.2561
  263MOL0     C34602   5.734   7.469  10.037 -0.9780 -0.4759 -0.1440
  263MOL0     C34603   5.869   7.496  10.008 -0.7921 -0.0171 -0.4849
  263MOL0     C34604   5.976   7.556  10.107  0.5239  0.9871  0.3498
  263MOL0     C34605   5.977   7.506  10.249  0.6122  0.4010  0.4688
  263MOL0     C34606   6.052   7.376  10.255 -0.7206 -0.2720 -0.1379
  263MOL0     C34607   5.979   7.253  10.197  0.0747  0.6763 -0.9031
  263MOL0     O34608   6.060   7.131  10.207 -0.1652  0.1261 -0.0727
  263MOL0     C34609   6.107   7.068  10.320  0.0061 -0.0355  0.7593
  263MOL0     C34610   6.038   7.081  10.442  0.2295  0.6127  0.3094
  263MOL0     C34611   6.057   6.998  10.549  0.1117  0.0018  0.1123
  263MOL0     C34612   6.156   6.892  10.540 -0.6121 -0.1335  0.4360
  263MOL0     C34613   6.173   6.787  10.643  0.5317 -0.1047  0.1012
  263MOL0     O34614   6.277   6.707  10.627  0.0622 -0.3786  0.0088
  263MOL0     C34615   6.316   6.644  10.738 -0.1351  0.3066 -0.2364
  263MOL0     C34616   6.272   6.502  10.757  0.1845  1.0188  0.2892
  263MOL0     C34617   6.297   6.440  10.884  1.4169 -0.6194  0.6195
  263MOL0     C34618   6.355   6.513  10.990 -0.6335  0.7022  0.7827
  263MOL0     O34619   6.398   6.456  11.106  0.3503  0.1682 -0.4903
  263MOL0     C34620   6.372   6.319  11.143 -0.2391  0.2567 -0.4874
  263MOL0     C34621   6.236   6.295  11.202  0.2421 -0.0961  0.4476
  263MOL0     C34622   6.191   6.402  11.304  0.6891  0.0378 -0.6926
  263MOL0     C34623   6.084   6.364  11.407  0.6442  0.4704 -2.0409
  263MOL0     C34624   5.950   6.293  11.358  0.3454 -0.3197  0.0915
  263MOL0     C34625   5.865   6.262  11.477  0.4278  0.4877  0.2711
  263MOL0     C34626   5.720   6.193  11.460 -0.5619  0.8650 -0.2145
  263MOL0     C34627   5.650   6.179  11.591  0.1255  0.2191  0.8200
  263MOL0    Cl34628   5.749   6.156  11.733 -0.3343 -0.4679  0.0929
  263MOL0     C34629   6.385   6.646  10.970 -0.7572  1.0482 -0.3806
  263MOL0     C34630   6.369   6.709  10.844 -0.5427 -1.1699 -0.4368
  263MOL0     O34631   6.104   6.800  10.743 -0.6778 -0.2946  0.2226
  263MOL0     C34632   6.225   6.882  10.420 -0.6312 -0.5798  0.5145
  263MOL0     C34633   6.197   6.956  10.313  0.2435 -0.3357  0.5484
  263MOL0     N34634   5.882   7.483   9.863 -0.1077  0.4233 -0.3154
  263MOL0     N34635   5.768   7.438   9.816  0.9134  0.4571  0.0763
  263MOL0     C34636   5.026   6.617  10.568 -0.1173  0.3101 -0.2361
  263MOL0     C34637   4.986   6.509  10.648  0.5253  0.2296 -0.2945
  263MOL0     C34638   5.068   6.179  10.984 -0.1978 -0.1345 -0.4220
  263MOL0     C34639   4.999   6.073  10.916 -0.2368 -0.4350  0.4168
  263MOL0     C34640   4.967   5.966  10.996 -0.0155 -0.7701 -0.0145
  263MOL0     C34641   5.010   5.952  11.130  0.3503  0.9612  0.1155
  263MOL0     O34642   5.003   5.835  11.207  0.8442  0.9396 -0.6863
  263MOL0     C34643   4.956   5.709  11.147 -0.5911 -0.7988 -0.0559
  263MOL0     C34644   5.012   5.591  11.227 -0.4953  0.4376  0.1124
  263MOL0     C34645   4.982   5.587  11.378  0.0692 -0.3205  0.3455
  263MOL0     C34646   5.046   5.470  11.449  0.2475 -0.3327 -0.0676
  263MOL0     C34647   5.198   5.474  11.464 -0.0551  0.3845 -1.0059
  263MOL0     C34648   5.319   5.460  11.474 -0.1026  0.0659 -0.4768
  263MOL0     C34649   5.065   6.057  11.192  0.6079 -0.3274 -0.1311
  263MOL0     C34650   5.097   6.173  11.124 -0.8956  0.2441 -0.1757
  263MOL0     H34651   5.284   6.343  10.646  1.0088  1.6053  2.1372
  263MOL0     H34652   5.352   6.541  10.535 -0.2173 -1.0965  1.3162
  263MOL0     H34653   5.273   6.676  10.274  0.0832  1.7162 -1.6393
  263MOL0     H34654   5.382   6.729  10.423 -0.5975  1.9539  1.2423
  263MOL0     H34655   5.386   6.930  10.361 -1.2162  1.2090  0.7881
  263MOL0     H34656   5.236   6.928  10.258 -0.9533 -3.1325 -2.8813
  263MOL0     H34657   5.340   6.782  10.090 -0.7323  0.0494  0.2204
  263MOL0     H34658   5.497   6.797  10.170 -1.0574  1.0114  0.3167
  263MOL0     H34659   5.477   6.923   9.980 -1.7292 -1.2687 -0.9566
  263MOL0     H34660   5.352   7.029  10.042  1.6910  1.3293 -0.5112
  263MOL0     H34661   5.611   6.985  10.185  0.6193  0.7552  3.6841
  263MOL0     H34662   5.494   7.120  10.229 -0.6620 -1.2555  0.3934
  263MOL0     H34663   5.637   7.104   9.973 -0.0116 -3.0018  2.4798
  263MOL0     H34664   5.692   7.217  10.099 -0.2521  1.3990 -0.7123
  263MOL0     H34665   5.416   7.226   9.992  1.5573 -1.9524 -1.3671
  263MOL0     H34666   5.480   7.340  10.115  0.4095  1.5719 -0.6211
  263MOL0     H34667   5.468   7.429   9.889 -1.2214 -1.5151  1.6981
  263MOL0     H34668   5.566   7.304   9.813 -0.6773  2.2550 -2.6281
  263MOL0     H34669   5.673   7.501  10.121 -1.1833 -0.9748 -0.0991
  263MOL0     H34670   5.969   7.666  10.106  1.7687  1.1266 -2.6138
  263MOL0     H34671   6.067   7.529  10.054 -0.8578  0.9131 -2.1520
  263MOL0     H34672   5.878   7.489  10.290 -0.6514 -0.0400 -2.5111
  263MOL0     H34673   6.024   7.581  10.314 -1.7244 -0.0970  2.9068
  263MOL0     H34674   6.154   7.388  10.219 -0.6940  2.4113  0.6017
  263MOL0     H34675   6.069   7.351  10.360  1.3814 -4.6542 -1.3108
  263MOL0     H34676   5.949   7.264  10.092  1.3990 -0.0391 -1.3879
  263MOL0     H34677   5.896   7.236  10.267  0.1767 -2.0572 -1.3196
  263MOL0     H34678   5.974   7.166  10.461 -0.3329  0.3019 -0.1861
  263MOL0     H34679   5.992   7.018  10.633 -1.5111 -0.2859 -1.0284
  263MOL0     H34680   6.218   6.440  10.686 -0.1268 -1.0516  2.2323
  263MOL0     H34681   6.267   6.335  10.891 -1.3357 -0.1013 -1.6733
  263MOL0     H34682   6.441   6.296  11.225  1.6537  2.3765 -1.3604
  263MOL0     H34683   6.382   6.250  11.059 -4.1114 -0.2406 -0.7104
  263MOL0     H34684   6.228   6.191  11.236 -0.9839 -0.7617 -1.6253
  263MOL0     H34685   6.168   6.290  11.116  0.6683  1.8211 -0.0312
  263MOL0     H34686   6.169   6.499  11.257 -0.3638  1.3420  2.2636
  263MOL0     H34687   6.282   6.422  11.361 -0.3109  2.9189  0.0735
  263MOL0     H34688   6.136   6.303  11.482  1.5128 -0.1573 -3.1338
  263MOL0     H34689   6.048   6.452  11.461 -1.3470  0.0688 -2.6243
  263MOL0     H34690   5.973   6.199  11.306  0.3358  1.2641 -3.0094
  263MOL0     H34691   5.900   6.362  11.290  1.8279 -0.6708 -1.4160
  263MOL0     H34692   5.840   6.353  11.533 -0.5409  0.7535 -0.5675
  263MOL0     H34693   5.930   6.199  11.539 -1.1442 -0.3230  1.1587
  263MOL0     H34694   5.653   6.251  11.394 -2.7292  0.1185  1.2073
  263MOL0     H34695   5.739   6.092  11.424 -2.6489  0.4148 -0.1910
  263MOL0     H34696   5.566   6.110  11.582  1.2152 -0.8697 -3.4244
  263MOL0     H34697   5.608   6.275  11.621 -0.0446  0.5608 -0.4633
  263MOL0     H34698   6.435   6.691  11.055  0.3654  0.5787 -0.7675
  263MOL0     H34699   6.391   6.813  10.825 -2.0684 -0.8173 -0.3449
  263MOL0     H34700   6.288   6.795  10.406 -1.6689 -1.1058 -1.2673
  263MOL0     H34701   6.251   6.936  10.222  0.2965  0.7472  0.3329
  263MOL0     H34702   4.961   6.699  10.541  0.9814  1.2864  0.0451
  263MOL0     H34703   4.884   6.490  10.681 -0.1831  1.1565 -1.8449
  263MOL0     H34704   5.005   6.073  10.807 -1.2557  0.1814  0.3476
  263MOL0     H34705   4.932   5.880  10.941  2.4976 -1.4494 -0.6610
  263MOL0     H34706   5.000   5.693  11.048  1.5458 -0.3858  0.7713
  263MOL0     H34707   4.848   5.718  11.137 -0.2554  1.8545 -2.3473
  263MOL0     H34708   4.963   5.506  11.180 -0.3941  2.0964 -3.2609
  263MOL0     H34709   5.120   5.587  11.207 -0.2258  1.5583  1.2425
  263MOL0     H34710   4.874   5.583  11.396  0.2892  0.5449  2.1282
  263MOL0     H34711   5.018   5.681  11.423 -1.2444  1.2858 -1.7477
  263MOL0     H34712   4.999   5.476  11.548 -2.1867  1.0471 -1.2231
  263MOL0     H34713   5.018   5.375  11.402 -2.9202 -1.0606  2.8378
  263MOL0     H34714   5.425   5.475  11.471 -0.3747  2.2138 -0.9346
  263MOL0     H34715   5.094   6.025  11.292 -0.4996 -1.9762 -0.3038
  263MOL0     H34716   5.160   6.250  11.167  0.4445 -1.4006  0.9058
  264MOL0     O34717   9.910   3.183   5.528 -0.6499  0.2012 -0.2370
  264MOL0     C34718   9.850   3.232   5.432  0.0614 -0.2594 -0.2044
  264MOL0     O34719   9.864   3.211   5.305 -0.9086  0.8418  0.1308
  264MOL0     C34720   9.940   3.113   5.271 -0.4897  0.9720 -0.2861
  264MOL0     C34721   9.943   2.983   5.337 -0.8857 -0.2910 -0.2764
  264MOL0     C34722  10.035   2.893   5.295  0.8240  0.9771 -0.1254
  264MOL0     C34723  10.137   2.908   5.197 -0.4101  0.3496  0.3896
  264MOL0     O34724  10.228   2.815   5.158  0.6008  0.7567 -0.4032
  264MOL0     C34725  10.317   2.766   5.256 -1.0400  1.2030 -1.0358
  264MOL0     C34726  10.430   2.676   5.197 -1.1904  0.4902  0.4972
  264MOL0     C34727  10.492   2.743   5.059 -0.3602  0.4017 -0.6279
  264MOL0     C34728  10.644   2.704   5.040  0.0387  0.6404 -0.9016
  264MOL0     C34729  10.728   2.789   4.942  0.5210  0.5026  0.4514
  264MOL0     C34730  10.876   2.807   4.996  0.6308  0.1378  0.9289
  264MOL0     C34731  10.974   2.871   4.894  0.2665 -0.3164 -0.2602
  264MOL0     C34732  10.952   3.032   4.878  0.0224 -0.1684 -0.0385
  264MOL0     N34733  11.009   3.106   4.990 -1.0254 -0.1791 -0.2898
  264MOL0     C34734  10.963   3.129   5.117  0.1586  0.6761  0.0497
  264MOL0     C34735  11.063   3.182   5.187 -0.5363 -0.2844  0.4761
  264MOL0     C34736  11.066   3.211   5.332  0.0897  0.2985 -0.0688
  264MOL0     C34737  11.073   3.364   5.352  0.2163  0.0266  0.5604
  264MOL0     C34738  10.955   3.408   5.440  0.5222  0.3940  0.3196
  264MOL0     C34739  10.928   3.557   5.445  0.7962 -0.3667  0.1501
  264MOL0     O34740  10.919   3.608   5.308  0.0415  0.0386  0.3061
  264MOL0     C34741  10.896   3.748   5.311 -0.1311  0.0775  1.0348
  264MOL0     C34742  10.907   3.811   5.187  1.3668  0.4354  0.7951
  264MOL0     C34743  10.882   3.948   5.178  0.0219  0.7037 -0.0648
  264MOL0     C34744  10.857   4.031   5.289 -0.3511 -1.3755 -0.8243
  264MOL0     C34745  10.831   4.169   5.268 -0.0397  0.4693  0.1004
  264MOL0     O34746  10.845   4.224   5.144  0.5273  0.3316 -0.5606
  264MOL0     C34747  10.877   4.358   5.134  1.8551  0.0023  0.0239
  264MOL0     C34748  10.991   4.411   5.203 -0.1323  1.0204 -0.0575
  264MOL0     C34749  11.018   4.539   5.174 -0.0216 -0.0319 -0.2095
  264MOL0     C34750  10.942   4.628   5.097 -1.1664  0.9643 -0.2963
  264MOL0     O34751  10.971   4.758   5.056 -0.4345 -0.2868  0.5391
  264MOL0     C34752  11.103   4.799   5.037 -0.0775  0.4514 -0.0390
  264MOL0     C34753  11.114   4.918   4.954  0.4538  0.9361  0.6926
  264MOL0     C34754  11.057   4.907   4.808  0.1875 -0.1082 -0.6301
  264MOL0     C34755  10.904   4.925   4.794 -0.5475 -0.4321  0.0218
  264MOL0     C34756  10.816   4.879   4.670  1.0617  0.7065 -1.0363
  264MOL0     C34757  10.886   4.921   4.539 -0.3124 -0.4929 -0.1922
  264MOL0     C34758  10.831   4.849   4.420  0.4319 -0.4534 -0.0439
  264MOL0     C34759  10.918   4.869   4.288  0.2026  0.3389 -0.0461
  264MOL0    Cl34760  10.861   4.793   4.127  0.0282  0.2622  0.2433
  264MOL0     C34761  10.828   4.570   5.033 -0.3672  0.4416  0.1633
  264MOL0     C34762  10.798   4.443   5.060  0.2793  0.0363 -1.4391
  264MOL0     O34763  10.802   4.236   5.371 -0.5555  0.4192  0.2073
  264MOL0     C34764  10.860   3.970   5.417  0.7863  0.0531 -1.1887
  264MOL0     C34765  10.871   3.827   5.424  1.2459 -0.5239  0.4285
  264MOL0     N34766  11.168   3.206   5.099  0.6662  0.2587 -0.3716
  264MOL0     N34767  11.132   3.163   4.984  1.1307 -0.2323  1.2059
  264MOL0     C34768  10.139   3.038   5.140  0.2288  0.8435 -0.1286
  264MOL0     C34769  10.042   3.135   5.178 -0.0864 -0.2335 -0.9649
  264MOL0     C34770   9.762   3.347   5.459  0.4891 -0.8559  1.0436
  264MOL0     C34771   9.699   3.428   5.354  0.3751  0.0756  0.1335
  264MOL0     C34772   9.616   3.534   5.392 -0.4574 -0.4811 -0.4415
  264MOL0     C34773   9.611   3.578   5.526  0.5249  0.1150  0.4551
  264MOL0     O34774   9.550   3.696   5.554  0.4560 -0.0289  0.8436
  264MOL0     C34775   9.456   3.750   5.458 -0.3837 -0.9390  1.0336
  264MOL0     C34776   9.383   3.869   5.504  0.9926  0.0017  0.6357
  264MOL0     C34777   9.469   4.000   5.486  0.0146 -0.9133 -0.6565
  264MOL0     C34778   9.411   4.116   5.566 -0.4844  0.0505 -0.1219
  264MOL0     C34779   9.270   4.135   5.534 -0.1485 -1.2677 -0.5314
  264MOL0     C34780   9.154   4.147   5.482 -0.4894 -0.4400 -0.4311
  264MOL0     C34781   9.669   3.498   5.623  0.3138  0.3711  0.0768
  264MOL0     C34782   9.738   3.381   5.589 -0.5321 -0.4381 -0.9987
  264MOL0     H34783   9.865   2.962   5.409 -0.4033  1.8490  0.9677
  264MOL0     H34784  10.047   2.802   5.353  2.7293  2.0836  1.3646
  264MOL0     H34785  10.266   2.712   5.336  0.4606 -1.0216 -1.4872
  264MOL0     H34786  10.362   2.853   5.305 -1.0324  0.6158  0.0393
  264MOL0     H34787  10.387   2.581   5.165 -1.6405  0.0992  2.1851
  264MOL0     H34788  10.511   2.670   5.270 -0.6127 -0.9661 -0.2248
  264MOL0     H34789  10.484   2.852   5.070 -0.8033  0.2058  1.4319
  264MOL0     H34790  10.431   2.722   4.970 -3.5025 -0.6282  1.5882
  264MOL0     H34791  10.684   2.715   5.141 -1.3068 -3.4262  0.2659
  264MOL0     H34792  10.651   2.596   5.024 -4.4372 -0.1063  0.7838
  264MOL0     H34793  10.680   2.887   4.932 -1.4390 -0.4060  0.4008
  264MOL0     H34794  10.737   2.746   4.842  2.6197 -1.6804  1.4737
  264MOL0     H34795  10.909   2.711   5.035 -1.4680  0.4157  3.7132
  264MOL0     H34796  10.862   2.862   5.090 -0.3004 -1.5099  1.8020
  264MOL0     H34797  11.072   2.843   4.933  0.9233  0.4630 -1.3138
  264MOL0     H34798  10.965   2.822   4.797 -2.1121  1.1646 -0.8794
  264MOL0     H34799  10.844   3.048   4.882  0.4577  3.0575  1.6110
  264MOL0     H34800  10.996   3.078   4.788  0.0283  4.4810  2.0686
  264MOL0     H34801  10.862   3.108   5.151 -0.1685 -2.0390 -2.2111
  264MOL0     H34802  11.159   3.169   5.373 -0.3578 -0.8603 -0.2149
  264MOL0     H34803  10.985   3.157   5.382  1.8299 -0.5568  2.0334
  264MOL0     H34804  11.065   3.418   5.257  0.6673 -1.9907 -0.6788
  264MOL0     H34805  11.163   3.401   5.403  1.4080 -0.1275 -1.3066
  264MOL0     H34806  10.859   3.363   5.411  0.5206  0.3778  0.3512
  264MOL0     H34807  10.969   3.367   5.541 -0.2824  2.3895  1.2801
  264MOL0     H34808  11.004   3.599   5.512 -0.6287 -2.4108  3.2249
  264MOL0     H34809  10.831   3.568   5.493  0.1620  0.7620 -1.2919
  264MOL0     H34810  10.925   3.746   5.101 -0.4463  1.2608 -0.2685
  264MOL0     H34811  10.899   3.993   5.080 -0.9382 -0.2445 -0.6830
  264MOL0     H34812  11.054   4.347   5.265  1.1959  2.6980  0.4198
  264MOL0     H34813  11.091   4.587   5.238 -1.6749 -0.2362  1.9588
  264MOL0     H34814  11.154   4.719   4.984  1.2167  0.9681  0.3642
  264MOL0     H34815  11.158   4.810   5.131  3.6309  1.2632 -2.1267
  264MOL0     H34816  11.221   4.940   4.946  1.5443 -3.6912 -0.4447
  264MOL0     H34817  11.076   5.014   4.990  0.3489  1.7536 -1.4701
  264MOL0     H34818  11.084   4.810   4.764  0.4009 -0.2794 -0.1240
  264MOL0     H34819  11.109   4.991   4.760  0.7801  0.0116  0.2037
  264MOL0     H34820  10.863   4.878   4.885  3.5473 -1.6757  1.4333
  264MOL0     H34821  10.873   5.029   4.808 -0.0278 -0.4638  1.5748
  264MOL0     H34822  10.718   4.928   4.668  0.8175  0.4241  1.1077
  264MOL0     H34823  10.803   4.770   4.665  4.2378  0.2811 -1.8841
  264MOL0     H34824  10.995   4.912   4.540 -0.0032  1.3699 -3.1841
  264MOL0     H34825  10.863   5.025   4.513 -0.1230 -0.6873 -1.2087
  264MOL0     H34826  10.828   4.743   4.450  0.4835  0.0183  1.7314
  264MOL0     H34827  10.729   4.880   4.395 -0.2466 -0.1474  2.7462
  264MOL0     H34828  11.014   4.823   4.313  0.3115  0.4379 -0.2823
  264MOL0     H34829  10.928   4.976   4.269 -0.4794  0.6179  1.0123
  264MOL0     H34830  10.752   4.623   4.977 -1.9127 -0.7376  1.0708
  264MOL0     H34831  10.708   4.388   5.035 -1.8824  1.3089  2.5899
  264MOL0     H34832  10.843   4.031   5.505 -1.8679 -1.3306 -0.6293
  264MOL0     H34833  10.870   3.785   5.524 -2.6351 -2.0166 -0.0502
  264MOL0     H34834  10.225   3.061   5.079  2.0950 -1.8494  1.2766
  264MOL0     H34835  10.051   3.235   5.136 -3.9961  0.9135  0.5201
  264MOL0     H34836   9.684   3.397   5.251 -0.9771 -0.3195  0.4244
  264MOL0     H34837   9.560   3.580   5.311 -3.4512 -1.8474  0.7106
  264MOL0     H34838   9.373   3.682   5.436 -1.0121  0.1973 -0.1959
  264MOL0     H34839   9.503   3.773   5.362 -2.9297 -0.6059 -0.2162
  264MOL0     H34840   9.292   3.858   5.446  0.4583 -3.3592  1.8727
  264MOL0     H34841   9.350   3.847   5.606 -2.0189  2.2363  0.2804
  264MOL0     H34842   9.485   4.031   5.382  5.3921  1.9490  0.6905
  264MOL0     H34843   9.568   3.976   5.525  0.1079  1.4071  0.6972
  264MOL0     H34844   9.423   4.101   5.673  0.4581  0.9507 -0.0880
  264MOL0     H34845   9.464   4.208   5.540 -3.9688  1.8180 -1.6304
  264MOL0     H34846   9.052   4.148   5.448 -1.6153  2.6281  2.4133
  264MOL0     H34847   9.663   3.531   5.726  1.5058  2.1744 -0.3890
  264MOL0     H34848   9.786   3.330   5.671 -0.3050  1.9689  0.4581
  265MOL0     O34849   5.949   5.643   0.284  0.2348 -0.3185  0.0075
  265MOL0     C34850   5.867   5.734   0.250 -1.3265 -0.5058  0.2707
  265MOL0     O34851   5.896   5.847   0.182  0.0232 -0.4028 -0.0456
  265MOL0     C34852   6.025   5.873   0.138 -0.8142  0.4811 -0.5276
  265MOL0     C34853   6.086   5.804   0.030  0.0030  0.2938 -0.5416
  265MOL0     C34854   6.224   5.829  -0.011  1.2408  0.1331 -0.1195
  265MOL0     C34855   6.295   5.938   0.039 -0.2218  0.0888 -0.4132
  265MOL0     O34856   6.423   5.962  -0.005 -0.2043  0.9180  0.3467
  265MOL0     C34857   6.507   6.016   0.092  0.5154 -0.1690 -0.1087
  265MOL0     C34858   6.654   5.999   0.031  0.9876 -0.1272 -0.4823
  265MOL0     C34859   6.771   6.067   0.107  0.4935  0.6423  0.6343
  265MOL0     C34860   6.756   6.055   0.261 -0.2111 -1.0680  0.0488
  265MOL0     C34861   6.875   6.120   0.335 -0.8326 -0.3461 -0.2252
  265MOL0     C34862   7.018   6.053   0.295 -0.0653  0.3279 -0.7601
  265MOL0     C34863   7.140   6.107   0.374 -0.2966 -0.0976  0.4789
  265MOL0     C34864   7.205   6.221   0.300 -0.7014 -0.8385 -0.3922
  265MOL0     N34865   7.114   6.324   0.268 -0.0863 -0.0694  0.7689
  265MOL0     C34866   7.083   6.370   0.140  0.8391  1.2235  0.3170
  265MOL0     C34867   7.023   6.489   0.154  0.2748 -0.8133 -0.4544
  265MOL0     C34868   6.966   6.572   0.045 -0.1043  0.7922  1.2964
  265MOL0     C34869   6.910   6.492  -0.080 -0.9685 -0.7421 -0.3935
  265MOL0     C34870   6.771   6.420  -0.065  0.2350  1.3081  0.4575
  265MOL0     C34871   6.648   6.515  -0.068 -0.1099 -0.5427 -0.4506
  265MOL0     O34872   6.652   6.611   0.037  0.3094  0.2402 -0.4801
  265MOL0     C34873   6.581   6.574   0.144  0.4180  0.4556 -0.8173
  265MOL0     C34874   6.445   6.603   0.166 -0.8322 -0.7359 -0.5073
  265MOL0     C34875   6.366   6.542   0.268  1.5527  0.5442 -0.3246
  265MOL0     C34876   6.419   6.449   0.361 -0.6014 -0.0461  0.3795
  265MOL0     C34877   6.335   6.379   0.458 -0.5481 -0.7153 -0.0843
  265MOL0     O34878   6.194   6.397   0.448  0.1209 -0.9406  0.0632
  265MOL0     C34879   6.128   6.349   0.552 -0.3477  0.2854 -1.0160
  265MOL0     C34880   6.119   6.393   0.688  0.0146  0.2154 -1.3493
  265MOL0     C34881   6.036   6.328   0.779 -0.2961  1.0082  0.0074
  265MOL0     C34882   5.940   6.228   0.739  0.0181 -0.7719  0.4685
  265MOL0     O34883   5.844   6.172   0.826  0.2765  0.1113  0.5235
  265MOL0     C34884   5.829   6.209   0.971  0.7335  0.1368  0.3507
  265MOL0     C34885   5.711   6.131   1.035  0.1880  0.1711 -0.1137
  265MOL0     C34886   5.722   6.155   1.187  0.5371  0.7134 -0.4543
  265MOL0     C34887   5.632   6.073   1.277 -0.3568  0.2503 -0.5480
  265MOL0     C34888   5.635   5.920   1.271  0.1388  0.3225 -0.5937
  265MOL0     C34889   5.770   5.856   1.280  0.1958 -0.4201 -0.5908
  265MOL0     C34890   5.775   5.712   1.255  0.4812  0.3533  1.3037
  265MOL0     C34891   5.824   5.624   1.369 -0.1891 -0.6889 -1.0938
  265MOL0    Cl34892   6.001   5.614   1.364  0.4331  0.1027 -0.3499
  265MOL0     C34893   5.957   6.175   0.605 -0.6344  0.2149  0.2145
  265MOL0     C34894   6.045   6.242   0.525  0.3736 -0.8836 -0.3311
  265MOL0     O34895   6.397   6.315   0.550 -0.5886  1.0525  0.1375
  265MOL0     C34896   6.553   6.414   0.335  0.1546 -0.5895 -0.1386
  265MOL0     C34897   6.624   6.476   0.239 -0.8513 -0.3985  0.2183
  265MOL0     N34898   7.030   6.528   0.280 -0.4877  0.9260 -0.4428
  265MOL0     N34899   7.088   6.429   0.345 -0.2362 -0.3300  0.2941
  265MOL0     C34900   6.231   6.005   0.148  0.0938  0.0631 -0.7183
  265MOL0     C34901   6.099   5.972   0.195  0.9550 -0.4516 -1.3575
  265MOL0     C34902   5.721   5.712   0.263 -0.3412 -0.1649  0.3918
  265MOL0     C34903   5.687   5.585   0.327  0.1815  0.0719  0.3231
  265MOL0     C34904   5.557   5.560   0.368  0.4237  0.4434  0.4846
  265MOL0     C34905   5.454   5.654   0.352 -0.2131  0.0811  0.5292
  265MOL0     O34906   5.330   5.653   0.413 -0.5652  0.2626  0.4314
  265MOL0     C34907   5.281   5.526   0.444  0.6699 -1.2095  0.6430
  265MOL0     C34908   5.127   5.549   0.438  0.0293  0.1765 -0.2556
  265MOL0     C34909   5.057   5.654   0.528 -0.5566 -0.0448  0.0153
  265MOL0     C34910   4.993   5.595   0.642  0.1943 -0.6795 -0.3080
  265MOL0     C34911   5.095   5.533   0.725 -0.0433  0.4883 -0.0866
  265MOL0     C34912   5.166   5.463   0.803  0.0185 -1.4926  0.1612
  265MOL0     C34913   5.476   5.766   0.281 -0.9892  0.9568 -0.5684
  265MOL0     C34914   5.613   5.784   0.230 -0.2684 -0.0629  0.3010
  265MOL0     H34915   6.037   5.716  -0.011  0.9571  0.1546 -1.4338
  265MOL0     H34916   6.279   5.768  -0.083 -0.3579 -4.1484  1.9636
  265MOL0     H34917   6.501   5.953   0.181  1.1727 -1.4708 -0.9674
  265MOL0     H34918   6.486   6.123   0.108  3.0742  0.2724  0.8135
  265MOL0     H34919   6.655   6.050  -0.065  0.6113 -1.4046 -1.1895
  265MOL0     H34920   6.676   5.893   0.015  0.5105 -1.0480  3.7275
  265MOL0     H34921   6.783   6.174   0.087 -0.4470  0.8125  0.9642
  265MOL0     H34922   6.860   6.021   0.062 -0.0243 -0.2078  0.4658
  265MOL0     H34923   6.669   6.114   0.293 -0.9296 -0.6287 -2.5290
  265MOL0     H34924   6.733   5.951   0.284 -0.4062 -1.0632 -0.1141
  265MOL0     H34925   6.859   6.104   0.442  0.9868 -1.0459 -0.0136
  265MOL0     H34926   6.876   6.229   0.320 -2.1765  0.5390  4.5963
  265MOL0     H34927   7.039   6.066   0.188  0.0478  2.3892 -0.5265
  265MOL0     H34928   7.007   5.946   0.312 -0.6346  0.5296  0.2349
  265MOL0     H34929   7.113   6.157   0.468  0.1825  0.4820  0.3134
  265MOL0     H34930   7.211   6.030   0.404  1.7330  1.7642  0.7295
  265MOL0     H34931   7.243   6.194   0.201 -2.6129  2.5011 -2.2022
  265MOL0     H34932   7.286   6.255   0.366 -1.3163 -2.3285  1.2279
  265MOL0     H34933   7.103   6.317   0.047 -1.4883 -1.1792  1.0666
  265MOL0     H34934   7.043   6.642   0.012 -0.0594 -1.6134 -5.0464
  265MOL0     H34935   6.886   6.638   0.080 -1.8211 -1.2191  1.3485
  265MOL0     H34936   6.968   6.401  -0.099  1.1099  0.6623 -1.1510
  265MOL0     H34937   6.896   6.562  -0.163 -1.0146 -0.2883 -0.0077
  265MOL0     H34938   6.757   6.347  -0.146  0.9228 -1.5542  2.7217
  265MOL0     H34939   6.774   6.377   0.035  0.8281  0.3994  0.0758
  265MOL0     H34940   6.558   6.454  -0.055 -0.0297 -0.9088 -1.4764
  265MOL0     H34941   6.637   6.571  -0.161 -1.2990 -1.9269 -1.1975
  265MOL0     H34942   6.401   6.653   0.080 -1.0916 -1.6647 -0.9309
  265MOL0     H34943   6.258   6.547   0.268  1.5836  2.4080 -1.7453
  265MOL0     H34944   6.170   6.485   0.715  1.8826 -1.7311  2.5174
  265MOL0     H34945   6.019   6.380   0.873  0.2188  1.0412  0.0853
  265MOL0     H34946   5.810   6.317   0.964  0.1451  0.1339  1.6992
  265MOL0     H34947   5.923   6.189   1.024 -1.3618 -1.3785  3.7827
  265MOL0     H34948   5.714   6.024   1.011 -0.0396 -0.2930  1.7954
  265MOL0     H34949   5.617   6.169   0.994  0.7652  0.1613 -1.4969
  265MOL0     H34950   5.713   6.263   1.200 -0.1682  0.8830 -2.1157
  265MOL0     H34951   5.820   6.118   1.217  0.4815 -0.3040 -1.4796
  265MOL0     H34952   5.641   6.107   1.381  1.8248  2.8468 -1.5001
  265MOL0     H34953   5.526   6.089   1.253 -0.5812 -1.6645 -1.0236
  265MOL0     H34954   5.579   5.880   1.186 -1.2843 -2.8699  1.6138
  265MOL0     H34955   5.590   5.890   1.366  1.4656 -1.9580 -0.6188
  265MOL0     H34956   5.803   5.875   1.383  1.2046 -1.1818 -0.7618
  265MOL0     H34957   5.838   5.893   1.203 -2.1460 -2.1743 -3.7174
  265MOL0     H34958   5.675   5.673   1.236  1.5907 -1.8299 -0.4929
  265MOL0     H34959   5.832   5.694   1.163 -1.8490 -3.3364  0.3570
  265MOL0     H34960   5.776   5.526   1.362 -1.6605  0.0516 -1.9472
  265MOL0     H34961   5.800   5.654   1.471  1.7948 -1.4965 -0.3610
  265MOL0     H34962   5.893   6.094   0.572  1.4275 -1.1750 -0.5410
  265MOL0     H34963   6.046   6.206   0.423 -0.3079 -1.5096 -0.1260
  265MOL0     H34964   6.603   6.345   0.404 -2.5811 -0.5070  2.1163
  265MOL0     H34965   6.727   6.442   0.243 -1.1738 -1.6323 -0.9407
  265MOL0     H34966   6.268   6.091   0.202  2.6691 -0.4861 -1.4765
  265MOL0     H34967   6.050   6.038   0.267  1.7213 -1.3443  0.0305
  265MOL0     H34968   5.767   5.520   0.358  1.3668  1.1745 -0.3297
  265MOL0     H34969   5.537   5.461   0.409 -1.1181  0.6977  0.4037
  265MOL0     H34970   5.318   5.494   0.542  3.0162 -1.8842 -0.3753
  265MOL0     H34971   5.306   5.458   0.363 -1.0163  2.5705 -3.4509
  265MOL0     H34972   5.107   5.576   0.334  1.0366  1.7595 -0.0689
  265MOL0     H34973   5.088   5.448   0.453  2.0748 -0.9245 -1.8165
  265MOL0     H34974   4.982   5.702   0.464 -2.0991 -0.3547  1.5099
  265MOL0     H34975   5.128   5.735   0.551  0.8348 -0.7790 -1.5027
  265MOL0     H34976   4.949   5.684   0.689 -3.0000 -2.3218  0.0923
  265MOL0     H34977   4.922   5.520   0.607  2.0175 -1.1680 -3.3225
  265MOL0     H34978   5.207   5.399   0.878  1.2783  1.5756  2.2845
  265MOL0     H34979   5.400   5.840   0.261  0.0668  1.8589 -1.4122
  265MOL0     H34980   5.637   5.881   0.187  1.1357  0.5243  2.2403
  266MOL0     O34981   4.551   7.367   5.723  0.3115  0.0901  0.5959
  266MOL0     C34982   4.539   7.278   5.635 -0.3711 -0.2285  0.3292
  266MOL0     O34983   4.461   7.165   5.642 -0.4720 -0.0118 -1.0529
  266MOL0     C34984   4.378   7.148   5.754  0.3566  0.1462 -0.1962
  266MOL0     C34985   4.234   7.165   5.747 -0.2392  0.3277 -0.2794
  266MOL0     C34986   4.162   7.168   5.870  0.0860 -1.0787 -0.0208
  266MOL0     C34987   4.226   7.135   5.996 -0.0743  0.0038  0.2746
  266MOL0     O34988   4.153   7.126   6.111 -0.2045 -0.1328  0.9864
  266MOL0     C34989   4.162   7.000   6.180 -0.4758  0.0626 -0.1803
  266MOL0     C34990   4.051   7.004   6.286 -0.4254  0.3100 -0.1464
  266MOL0     C34991   3.908   6.990   6.239  1.3768 -0.0449  0.6390
  266MOL0     C34992   3.878   6.847   6.164 -0.6914 -0.5299 -1.1419
  266MOL0     C34993   3.780   6.864   6.044  0.0572  0.1273  0.6465
  266MOL0     C34994   3.706   6.739   6.000 -0.3770 -0.7165  0.0150
  266MOL0     C34995   3.564   6.775   5.933 -0.0575  0.3892 -0.0900
  266MOL0     C34996   3.512   6.655   5.849 -0.5562  0.8142 -0.5659
  266MOL0     N34997   3.393   6.685   5.768  0.9187  0.2190 -0.6886
  266MOL0     C34998   3.361   6.643   5.644  0.5613  0.6221 -0.3066
  266MOL0     C34999   3.246   6.704   5.606  0.3027 -0.4390  0.1528
  266MOL0     C35000   3.176   6.687   5.476  0.0405  0.1270  0.1711
  266MOL0     C35001   3.132   6.538   5.462 -0.2202  0.4280 -0.6310
  266MOL0     C35002   3.002   6.522   5.385  0.0534 -0.6722 -1.0960
  266MOL0     C35003   2.962   6.364   5.374 -0.5037 -0.3519  0.1702
  266MOL0     O35004   2.933   6.301   5.504  0.1354 -0.7459 -0.6596
  266MOL0     C35005   2.895   6.170   5.504  0.3633 -0.3410  0.4057
  266MOL0     C35006   2.867   6.128   5.628  0.5303  0.0643 -0.1229
  266MOL0     C35007   2.812   6.004   5.650  0.6661  0.5986  0.3356
  266MOL0     C35008   2.788   5.910   5.551 -0.3892  0.5394  0.6534
  266MOL0     C35009   2.732   5.773   5.555 -1.1390 -0.3804 -0.7752
  266MOL0     O35010   2.709   5.710   5.442 -0.1446  0.2886 -0.6771
  266MOL0     C35011   2.659   5.585   5.441 -0.0089  0.1249  0.2612
  266MOL0     C35012   2.583   5.528   5.550 -0.2876 -0.0957  0.7310
  266MOL0     C35013   2.521   5.394   5.541 -0.0996 -0.1124 -0.1022
  266MOL0     C35014   2.546   5.314   5.425 -0.5479 -0.0652 -0.4804
  266MOL0     O35015   2.490   5.188   5.430  0.0340  0.4545  0.0977
  266MOL0     C35016   2.548   5.089   5.350 -0.6182 -0.4891  0.4255
  266MOL0     C35017   2.486   4.952   5.370 -0.1087  0.5923  0.0730
  266MOL0     C35018   2.523   4.847   5.275 -0.2326 -1.1453  0.7006
  266MOL0     C35019   2.672   4.813   5.288  0.1321 -0.2349  0.7683
  266MOL0     C35020   2.709   4.683   5.216 -0.1337  0.4749 -0.6225
  266MOL0     C35021   2.868   4.672   5.223  0.1062  0.1772  0.4006
  266MOL0     C35022   2.907   4.574   5.106 -0.7710 -1.0745  0.1330
  266MOL0     C35023   3.056   4.541   5.099  0.3002  0.2259 -0.1500
  266MOL0    Cl35024   3.154   4.688   5.111 -0.1314 -0.3335 -0.2637
  266MOL0     C35025   2.622   5.376   5.320 -0.1817  0.5530  0.1966
  266MOL0     C35026   2.677   5.503   5.329  0.7833 -0.1174  0.0608
  266MOL0     O35027   2.723   5.731   5.673 -0.1945 -0.3152 -0.1069
  266MOL0     C35028   2.815   5.959   5.422 -0.4217  0.5596  0.1988
  266MOL0     C35029   2.870   6.082   5.394  0.0068 -0.3426 -1.1325
  266MOL0     N35030   3.210   6.793   5.706 -0.7423 -0.4347 -0.4100
  266MOL0     N35031   3.297   6.781   5.802  0.5018  0.5917  0.2061
  266MOL0     C35032   4.357   7.111   5.997  0.1353  0.1268 -0.3597
  266MOL0     C35033   4.432   7.131   5.881 -0.4390  1.1214  1.3883
  266MOL0     C35034   4.610   7.301   5.506  0.6120  0.4586 -0.1848
  266MOL0     C35035   4.706   7.405   5.486 -0.5419 -0.2529 -0.2240
  266MOL0     C35036   4.764   7.428   5.358 -0.6021 -0.2106 -0.2121
  266MOL0     C35037   4.737   7.339   5.259 -0.2157 -0.2231  0.6416
  266MOL0     O35038   4.814   7.357   5.149 -0.6460 -0.3573 -0.1328
  266MOL0     C35039   4.736   7.360   5.024 -0.6453 -0.3422 -0.1786
  266MOL0     C35040   4.713   7.509   4.985 -0.0390  0.2238  1.0594
  266MOL0     C35041   4.843   7.571   4.940 -0.3675 -0.1182  0.1228
  266MOL0     C35042   4.842   7.643   4.805 -0.3427 -0.3482  0.6580
  266MOL0     C35043   4.796   7.541   4.708 -0.3627 -0.1909  0.6662
  266MOL0     C35044   4.763   7.458   4.624 -0.7031 -0.5049  0.8862
  266MOL0     C35045   4.637   7.248   5.267  0.1982  0.4638 -0.0963
  266MOL0     C35046   4.572   7.224   5.393 -0.3163 -0.0517  0.0441
  266MOL0     H35047   4.188   7.187   5.651  1.3314  3.3677 -0.4320
  266MOL0     H35048   4.059   7.202   5.865  0.9113  1.4607 -2.8454
  266MOL0     H35049   4.251   6.977   6.239 -1.0003  0.1659  0.6683
  266MOL0     H35050   4.131   6.920   6.111 -1.3636 -2.8543  3.3198
  266MOL0     H35051   4.057   7.097   6.343 -3.8375  0.8175 -0.4049
  266MOL0     H35052   4.073   6.915   6.346 -0.5262 -0.4997 -1.2757
  266MOL0     H35053   3.877   7.074   6.176 -1.4330 -2.2169 -1.1497
  266MOL0     H35054   3.844   6.988   6.327 -2.0632 -2.9932 -1.6587
  266MOL0     H35055   3.971   6.797   6.137 -0.6867 -2.7367  2.2970
  266MOL0     H35056   3.833   6.785   6.243 -1.9748  0.4146 -1.0971
  266MOL0     H35057   3.833   6.895   5.954  0.0194 -1.9130 -0.1214
  266MOL0     H35058   3.707   6.941   6.075 -0.8026  0.1712 -1.3465
  266MOL0     H35059   3.686   6.681   6.090 -0.7374 -0.0003  0.4029
  266MOL0     H35060   3.767   6.678   5.932 -0.6989 -1.8458  0.7109
  266MOL0     H35061   3.489   6.798   6.010 -1.2601 -0.7013 -0.8918
  266MOL0     H35062   3.586   6.853   5.860  3.2769 -2.1793 -2.1330
  266MOL0     H35063   3.496   6.565   5.909  2.1190 -0.9536 -2.2907
  266MOL0     H35064   3.574   6.622   5.765 -0.8236 -0.6528 -0.2192
  266MOL0     H35065   3.426   6.567   5.602  1.7573  1.5976 -0.2929
  266MOL0     H35066   3.248   6.716   5.399 -0.0359 -0.9549 -0.3256
  266MOL0     H35067   3.084   6.742   5.457 -1.7753 -2.9714 -0.8420
  266MOL0     H35068   3.127   6.483   5.557  2.1311  1.0533 -0.0821
  266MOL0     H35069   3.213   6.485   5.411  1.7367  0.2494  2.4351
  266MOL0     H35070   2.920   6.575   5.433  0.4930 -1.7814  0.9513
  266MOL0     H35071   3.013   6.566   5.285 -1.5391  0.8914 -0.6382
  266MOL0     H35072   3.034   6.302   5.318  0.1124 -0.7435  1.3737
  266MOL0     H35073   2.873   6.363   5.311 -0.8564  0.7700  0.6255
  266MOL0     H35074   2.878   6.200   5.708  4.0825  2.3473 -2.3717
  266MOL0     H35075   2.788   5.994   5.755  1.2242  3.6532  0.8378
  266MOL0     H35076   2.556   5.596   5.630 -0.3183  3.9115 -2.3423
  266MOL0     H35077   2.454   5.358   5.618 -1.4455  1.0295 -0.6938
  266MOL0     H35078   2.657   5.086   5.363 -0.4376  0.2125 -0.7470
  266MOL0     H35079   2.516   5.115   5.248 -0.6917  0.6476  0.7237
  266MOL0     H35080   2.379   4.964   5.351 -0.4567 -1.4925  0.5350
  266MOL0     H35081   2.493   4.919   5.474 -0.3402 -3.5072 -1.0353
  266MOL0     H35082   2.503   4.872   5.170 -1.3429  0.0538  1.1739
  266MOL0     H35083   2.476   4.755   5.309 -0.3806 -0.9716  0.9702
  266MOL0     H35084   2.725   4.900   5.247 -0.8908  0.1858  0.3135
  266MOL0     H35085   2.697   4.808   5.394  2.3917 -0.6008  0.2689
  266MOL0     H35086   2.679   4.685   5.111  0.5739  0.1572 -0.8419
  266MOL0     H35087   2.660   4.594   5.257 -0.8741  1.6391  1.1623
  266MOL0     H35088   2.897   4.629   5.319  1.7546  0.0658 -0.1186
  266MOL0     H35089   2.907   4.773   5.209  0.4553  0.0411  0.3998
  266MOL0     H35090   2.849   4.481   5.111  1.3574 -2.6287 -2.1691
  266MOL0     H35091   2.882   4.606   5.005  0.6113 -0.2097  0.0421
  266MOL0     H35092   3.076   4.477   5.013 -0.6482 -1.6596  0.9590
  266MOL0     H35093   3.085   4.482   5.187 -3.1058  0.6753  1.4599
  266MOL0     H35094   2.646   5.316   5.233  1.1332  0.7494  0.3913
  266MOL0     H35095   2.736   5.543   5.247 -2.4811 -3.0554 -4.1913
  266MOL0     H35096   2.801   5.893   5.336  1.8964 -1.0807  0.9626
  266MOL0     H35097   2.888   6.106   5.290  0.4520  0.0955 -0.9538
  266MOL0     H35098   4.399   7.082   6.093 -0.2522 -0.3782 -0.3392
  266MOL0     H35099   4.539   7.114   5.889 -0.5828  0.0985  1.2462
  266MOL0     H35100   4.736   7.479   5.559  3.0516 -0.7087 -1.0259
  266MOL0     H35101   4.824   7.516   5.337 -2.7701  1.3172 -0.2740
  266MOL0     H35102   4.645   7.300   5.028  0.0413 -1.3897  0.0605
  266MOL0     H35103   4.793   7.316   4.942  0.7381  1.1563 -0.0671
  266MOL0     H35104   4.636   7.531   4.911  2.6838  2.7031 -1.2824
  266MOL0     H35105   4.687   7.568   5.073  2.2134  0.4160  1.6426
  266MOL0     H35106   4.924   7.497   4.939  1.1387  1.4856 -0.8852
  266MOL0     H35107   4.864   7.638   5.023 -1.7352 -1.8204  1.9440
  266MOL0     H35108   4.777   7.730   4.793  3.1208  2.4926  0.8303
  266MOL0     H35109   4.942   7.678   4.779 -0.2967  0.1839  1.5052
  266MOL0     H35110   4.731   7.387   4.550  1.8102 -0.6804 -0.1280
  266MOL0     H35111   4.617   7.174   5.191  0.8147 -0.7627  0.8801
  266MOL0     H35112   4.486   7.159   5.402  0.6520 -1.3598  0.0968
  267MOL0     O35113   2.095   2.807   9.897 -0.4049  0.7471  0.4986
  267MOL0     C35114   2.114   2.683   9.913  0.2318 -0.9221 -0.0573
  267MOL0     O35115   2.055   2.588   9.835 -0.3261 -0.3027 -1.0145
  267MOL0     C35116   1.991   2.625   9.724  0.0213  0.3171  0.6357
  267MOL0     C35117   2.023   2.588   9.593 -0.2310 -0.3978 -0.1415
  267MOL0     C35118   1.942   2.628   9.481 -0.2317  0.7235  0.3736
  267MOL0     C35119   1.819   2.693   9.501  0.0206 -0.1076  0.9511
  267MOL0     O35120   1.738   2.744   9.405 -0.4477  0.3663 -0.1792
  267MOL0     C35121   1.721   2.666   9.285  0.1672  0.1116  1.0191
  267MOL0     C35122   1.617   2.724   9.189 -0.1620 -0.2864  0.8235
  267MOL0     C35123   1.597   2.628   9.069 -0.2731 -0.7332  0.3730
  267MOL0     C35124   1.727   2.587   9.007  0.6235  0.1340 -0.3519
  267MOL0     C35125   1.708   2.555   8.860  0.8742 -0.2819  0.4525
  267MOL0     C35126   1.810   2.456   8.804 -1.2216  0.4018  0.3394
  267MOL0     C35127   1.817   2.437   8.648  0.4626  0.0232  0.0171
  267MOL0     C35128   1.895   2.310   8.616 -0.1486  0.1225  0.9635
  267MOL0     N35129   1.816   2.192   8.653  0.0060  1.0936 -0.1574
  267MOL0     C35130   1.698   2.150   8.597 -0.2958 -0.3208  0.5855
  267MOL0     C35131   1.685   2.021   8.654 -0.1819  0.1288 -0.1199
  267MOL0     C35132   1.570   1.928   8.631  0.1344  0.6534 -0.2253
  267MOL0     C35133   1.568   1.886   8.486 -0.0695 -0.7081  0.0200
  267MOL0     C35134   1.433   1.826   8.459 -0.0587  0.0770 -0.1067
  267MOL0     C35135   1.413   1.759   8.323  0.5556 -0.3810 -0.2026
  267MOL0     O35136   1.447   1.841   8.207  0.2880  0.2043  0.1453
  267MOL0     C35137   1.369   1.950   8.172  0.1039  0.1269  0.2637
  267MOL0     C35138   1.418   2.017   8.058  0.2674  0.0420 -0.0479
  267MOL0     C35139   1.357   2.141   8.012 -0.0588 -0.3928 -0.5187
  267MOL0     C35140   1.249   2.200   8.082 -0.9474  1.4130  0.2769
  267MOL0     C35141   1.193   2.331   8.037 -0.9123 -0.0668 -0.2704
  267MOL0     O35142   1.090   2.375   8.120  0.5732 -0.0927 -0.8137
  267MOL0     C35143   1.021   2.482   8.076  0.1138  0.3333 -0.3481
  267MOL0     C35144   0.981   2.496   7.943  0.8891  0.5306 -0.5471
  267MOL0     C35145   0.905   2.614   7.907 -0.0750 -0.0871 -0.0798
  267MOL0     C35146   0.888   2.715   8.004  0.6532  0.6450 -0.8084
  267MOL0     O35147   0.811   2.826   7.990  0.2033  1.0744 -0.2108
  267MOL0     C35148   0.738   2.854   7.870 -0.6526  0.2587  0.6429
  267MOL0     C35149   0.710   3.008   7.838  0.0012  0.2812 -0.3076
  267MOL0     C35150   0.642   3.067   7.965 -0.1019 -0.5809  0.4210
  267MOL0     C35151   0.506   3.015   8.011  0.0234 -0.2351  0.0426
  267MOL0     C35152   0.457   3.079   8.140 -0.5891 -0.6781 -0.0675
  267MOL0     C35153   0.532   3.024   8.259 -0.1126  0.2457  0.2175
  267MOL0     C35154   0.610   3.140   8.324  0.3534  0.1314  0.1805
  267MOL0     C35155   0.712   3.083   8.427 -0.4806 -0.6630 -1.4162
  267MOL0    Cl35156   0.613   2.984   8.548  0.2286 -0.1061 -0.0552
  267MOL0     C35157   0.943   2.699   8.134  0.1734 -0.5085 -0.5699
  267MOL0     C35158   1.003   2.582   8.174  1.1415  0.7603  0.4452
  267MOL0     O35159   1.250   2.391   7.944  0.3783 -0.1153  0.5828
  267MOL0     C35160   1.197   2.133   8.193 -0.6471 -0.4932 -0.2370
  267MOL0     C35161   1.265   2.016   8.243  0.8734 -0.4618  0.2051
  267MOL0     N35162   1.789   1.999   8.742  0.1571 -0.1718 -0.2568
  267MOL0     N35163   1.864   2.096   8.735  0.4600  0.3543 -0.2260
  267MOL0     C35164   1.790   2.740   9.630  0.3052  0.2874  0.4357
  267MOL0     C35165   1.878   2.707   9.734 -0.4269 -0.4124 -0.8274
  267MOL0     C35166   2.194   2.652  10.035  0.5747 -0.3681 -0.5671
  267MOL0     C35167   2.256   2.522  10.034 -0.9245 -0.0411 -0.9495
  267MOL0     C35168   2.321   2.480  10.151  0.1318  0.0036  0.3375
  267MOL0     C35169   2.344   2.567  10.260 -0.1388  0.0075 -0.6226
  267MOL0     O35170   2.410   2.523  10.373 -0.8853 -0.1857  0.3623
  267MOL0     C35171   2.523   2.437  10.366 -0.0315 -0.0071 -0.3397
  267MOL0     C35172   2.582   2.421  10.508 -0.0613 -1.0349 -0.0219
  267MOL0     C35173   2.642   2.553  10.557 -0.4925 -0.3833 -0.6461
  267MOL0     C35174   2.737   2.530  10.675 -0.5412 -1.5967  0.1650
  267MOL0     C35175   2.656   2.500  10.790  0.1497  0.4944 -1.3837
  267MOL0     C35176   2.596   2.479  10.900 -0.3210  0.2147  0.5447
  267MOL0     C35177   2.302   2.698  10.250 -0.2538 -0.7094 -0.5082
  267MOL0     C35178   2.216   2.743  10.145 -0.1168  0.9037 -0.5354
  267MOL0     H35179   2.112   2.527   9.581 -2.1013 -3.5109  0.4290
  267MOL0     H35180   1.968   2.597   9.381  0.4369  2.5650 -0.0585
  267MOL0     H35181   1.700   2.562   9.313 -1.4310 -0.4334 -1.8574
  267MOL0     H35182   1.817   2.671   9.232 -1.7401  0.4478 -2.6836
  267MOL0     H35183   1.637   2.824   9.149 -1.8427 -0.2449 -0.0339
  267MOL0     H35184   1.518   2.724   9.236 -0.4094 -1.4378  0.3398
  267MOL0     H35185   1.529   2.669   8.993 -1.4747  0.4716  2.0112
  267MOL0     H35186   1.534   2.541   9.094 -2.1098  1.2717  3.4699
  267MOL0     H35187   1.793   2.674   9.017 -2.3412  2.5165 -0.0018
  267MOL0     H35188   1.768   2.507   9.069  0.0360  1.5377  1.9931
  267MOL0     H35189   1.704   2.653   8.812 -2.4764  1.8220  4.3541
  267MOL0     H35190   1.609   2.509   8.848  0.5390  0.3826  0.6681
  267MOL0     H35191   1.789   2.355   8.838 -3.2229  0.0592 -1.6873
  267MOL0     H35192   1.902   2.486   8.854 -0.8360 -1.6189  0.8985
  267MOL0     H35193   1.714   2.427   8.615 -0.1481  2.6101  0.9082
  267MOL0     H35194   1.860   2.521   8.594 -0.3022  0.4118  0.0067
  267MOL0     H35195   1.984   2.301   8.679 -0.7830 -1.1060  1.7380
  267MOL0     H35196   1.918   2.311   8.509 -2.6843  2.1946  0.3398
  267MOL0     H35197   1.648   2.208   8.520  2.0344  1.7156  0.4541
  267MOL0     H35198   1.477   1.980   8.654 -0.6887 -0.5572 -0.6701
  267MOL0     H35199   1.567   1.846   8.703 -0.5358  1.7628  1.0571
  267MOL0     H35200   1.644   1.808   8.486  0.8208  0.1448  0.6318
  267MOL0     H35201   1.594   1.968   8.419 -1.2455 -2.9366 -3.4272
  267MOL0     H35202   1.421   1.748   8.535 -0.8529 -1.3752 -1.6372
  267MOL0     H35203   1.355   1.901   8.472  1.2786  1.6767 -1.0043
  267MOL0     H35204   1.310   1.723   8.316  0.9598 -1.3686 -1.6553
  267MOL0     H35205   1.484   1.676   8.318 -0.4573 -1.2818 -0.1608
  267MOL0     H35206   1.501   1.974   8.003 -2.5987  0.8144 -5.6425
  267MOL0     H35207   1.399   2.195   7.928  0.9557  0.0324  0.2398
  267MOL0     H35208   1.018   2.420   7.874  5.1069  1.4700  0.4462
  267MOL0     H35209   0.862   2.616   7.808 -0.5339  5.2873 -0.0395
  267MOL0     H35210   0.632   2.828   7.882  0.1097 -2.7259  1.8293
  267MOL0     H35211   0.787   2.814   7.781 -1.2444  0.9758 -0.0211
  267MOL0     H35212   0.652   3.019   7.746 -1.2312  3.3790  0.6745
  267MOL0     H35213   0.804   3.058   7.815  0.5028 -1.6041 -2.7282
  267MOL0     H35214   0.623   3.174   7.951  0.2215 -0.0595  3.3031
  267MOL0     H35215   0.719   3.067   8.043  3.6788 -1.2298 -3.0160
  267MOL0     H35216   0.430   3.027   7.933 -0.5404 -1.5212  0.3633
  267MOL0     H35217   0.503   2.907   8.024  1.5498 -0.3746 -0.5848
  267MOL0     H35218   0.352   3.056   8.158 -0.1650 -2.4578  0.3134
  267MOL0     H35219   0.472   3.187   8.128  1.5824 -1.1158 -2.2704
  267MOL0     H35220   0.606   2.948   8.232 -0.2747 -0.2318  1.0658
  267MOL0     H35221   0.471   2.975   8.335  1.3206 -2.3904 -0.2184
  267MOL0     H35222   0.669   3.185   8.244  1.8501 -2.8827 -0.5460
  267MOL0     H35223   0.533   3.203   8.369 -1.8721 -2.0563 -0.3809
  267MOL0     H35224   0.776   3.161   8.470  0.8529 -3.1052  1.3931
  267MOL0     H35225   0.780   3.010   8.383  0.3343  0.1243 -1.4852
  267MOL0     H35226   0.913   2.768   8.213 -2.2672  0.4863 -2.2194
  267MOL0     H35227   1.043   2.578   8.275  2.6675  0.0325 -0.1522
  267MOL0     H35228   1.119   2.169   8.259 -0.2491  0.0575 -0.0517
  267MOL0     H35229   1.229   1.977   8.338  0.9027  2.1712  1.4066
  267MOL0     H35230   1.697   2.790   9.657 -0.3519 -1.8940  2.5841
  267MOL0     H35231   1.852   2.743   9.832  0.7492 -1.4596 -0.0973
  267MOL0     H35232   2.272   2.454   9.950  4.1748  0.1706 -0.4819
  267MOL0     H35233   2.363   2.379  10.153  0.7502  0.1128 -2.4922
  267MOL0     H35234   2.594   2.482  10.297 -1.5023  2.7062 -0.1954
  267MOL0     H35235   2.496   2.338  10.328  3.9912 -0.6010 -2.1141
  267MOL0     H35236   2.503   2.389  10.577  1.6536  2.4417  4.0049
  267MOL0     H35237   2.665   2.351  10.500  2.0944  0.8853  3.1073
  267MOL0     H35238   2.569   2.633  10.574  1.1869  1.3298 -1.1246
  267MOL0     H35239   2.694   2.590  10.469 -0.6094 -1.8626 -1.3570
  267MOL0     H35240   2.814   2.453  10.667  2.2920  0.9743  0.7349
  267MOL0     H35241   2.797   2.618  10.700 -1.1016 -0.6614 -1.5976
  267MOL0     H35242   2.546   2.435  10.983 -1.3489 -0.1249 -0.2281
  267MOL0     H35243   2.325   2.760  10.336 -1.6933  0.9318 -1.2465
  267MOL0     H35244   2.171   2.841  10.131 -1.1783  0.8927  2.2066
  268MOL0     O35245   4.353   3.519   5.867  0.0015  1.0355 -0.0307
  268MOL0     C35246   4.347   3.399   5.886  0.2251 -0.4234 -0.2028
  268MOL0     O35247   4.448   3.321   5.939  0.2438 -0.2351  0.8570
  268MOL0     C35248   4.564   3.380   5.987 -0.4493 -0.0170  0.4791
  268MOL0     C35249   4.564   3.424   6.121 -0.3944 -0.0512  0.0588
  268MOL0     C35250   4.684   3.459   6.176 -0.1054 -0.3789 -0.8556
  268MOL0     C35251   4.802   3.465   6.094  0.1223 -0.0154 -0.2611
  268MOL0     O35252   4.927   3.507   6.133  0.4558 -0.1515 -0.7323
  268MOL0     C35253   4.961   3.530   6.269  0.4418  0.2803 -0.1148
  268MOL0     C35254   5.103   3.581   6.272 -0.3481  0.5303  0.3255
  268MOL0     C35255   5.196   3.472   6.214 -0.6159  0.3589  0.7499
  268MOL0     C35256   5.339   3.492   6.220  0.1935  0.4737 -0.6532
  268MOL0     C35257   5.428   3.390   6.147 -0.0000 -0.7494  0.3875
  268MOL0     C35258   5.421   3.249   6.206  0.2823 -0.1926  0.4593
  268MOL0     C35259   5.533   3.152   6.154 -0.0045  0.1892 -1.2879
  268MOL0     C35260   5.593   3.061   6.255  0.2379  0.0705 -1.0542
  268MOL0     N35261   5.495   2.977   6.319  0.1258 -0.2434 -1.0033
  268MOL0     C35262   5.376   2.935   6.263  0.2278 -0.9153  0.4314
  268MOL0     C35263   5.319   2.849   6.349 -1.4819 -0.4910 -0.1240
  268MOL0     C35264   5.185   2.789   6.333  0.4408  0.9133 -0.2836
  268MOL0     C35265   5.182   2.646   6.283 -0.0420  0.5826  0.2421
  268MOL0     C35266   5.226   2.545   6.384  0.3064 -0.0618 -0.2679
  268MOL0     C35267   5.139   2.511   6.501  0.0427 -1.1618  0.3020
  268MOL0     O35268   5.022   2.436   6.455 -0.1318 -0.1862  0.6885
  268MOL0     C35269   4.941   2.372   6.551 -1.0390 -0.5564 -1.0588
  268MOL0     C35270   4.859   2.273   6.507  0.8660 -0.3846 -0.7042
  268MOL0     C35271   4.761   2.208   6.588 -0.2000 -0.1313 -0.4850
  268MOL0     C35272   4.745   2.253   6.720  0.1296  0.5259  1.4523
  268MOL0     C35273   4.648   2.181   6.798  0.9156  0.1180  0.0242
  268MOL0     O35274   4.556   2.101   6.736  0.2439 -0.4016 -0.0651
  268MOL0     C35275   4.455   2.033   6.800  0.7148  0.3174 -0.0617
  268MOL0     C35276   4.419   2.034   6.926  0.7947 -0.9501  0.3173
  268MOL0     C35277   4.304   1.967   6.975  0.0658 -1.0665 -0.5451
  268MOL0     C35278   4.215   1.903   6.897  0.8415 -0.0250  0.2273
  268MOL0     O35279   4.094   1.846   6.942 -0.0106 -1.0924 -0.5094
  268MOL0     C35280   4.023   1.925   7.037  1.3074 -1.3752  0.0564
  268MOL0     C35281   3.978   1.859   7.165  0.1661  0.0887  0.0639
  268MOL0     C35282   4.086   1.832   7.267  0.6522 -0.6375 -0.1711
  268MOL0     C35283   4.061   1.713   7.362 -0.4586  0.3330 -0.1855
  268MOL0     C35284   4.175   1.692   7.457  0.1070  1.2066 -0.2569
  268MOL0     C35285   4.174   1.546   7.514  1.6840  0.1225  0.2348
  268MOL0     C35286   4.279   1.528   7.620 -0.7156 -0.2139  0.3104
  268MOL0     C35287   4.281   1.383   7.672 -0.2823 -0.5027  0.5663
  268MOL0    Cl35288   4.392   1.368   7.801 -0.3151  0.4862  0.1198
  268MOL0     C35289   4.256   1.897   6.770 -0.0658 -0.1500  0.1406
  268MOL0     C35290   4.368   1.969   6.718 -0.1212  0.2380 -0.4658
  268MOL0     O35291   4.658   2.202   6.917  0.6365  0.4927 -0.2035
  268MOL0     C35292   4.834   2.359   6.774  2.0274  0.4578  0.4424
  268MOL0     C35293   4.925   2.411   6.689  0.2989  0.9156  0.2852
  268MOL0     N35294   5.412   2.835   6.456  0.1681  0.1045 -0.4815
  268MOL0     N35295   5.506   2.921   6.439 -0.1351  0.9015 -0.6600
  268MOL0     C35296   4.788   3.452   5.953  0.1039  0.1753  0.4376
  268MOL0     C35297   4.673   3.412   5.902  1.1146 -0.7515 -0.4395
  268MOL0     C35298   4.237   3.323   5.821 -0.0227  0.0924  0.3586
  268MOL0     C35299   4.192   3.195   5.861 -0.5965 -1.0351  1.0877
  268MOL0     C35300   4.102   3.126   5.784 -0.2590  0.3609  0.3618
  268MOL0     C35301   4.039   3.182   5.669 -0.2866 -0.0236 -0.2679
  268MOL0     O35302   3.946   3.098   5.603 -0.2875  0.0848 -0.6681
  268MOL0     C35303   3.834   3.166   5.547  0.2104  0.2339 -0.3586
  268MOL0     C35304   3.867   3.170   5.399 -0.0251  0.2027 -0.8325
  268MOL0     C35305   3.758   3.207   5.298 -0.8300  0.3077  0.0934
  268MOL0     C35306   3.712   3.355   5.308 -0.0638  0.3529  0.1536
  268MOL0     C35307   3.814   3.461   5.332  0.0865  1.0466  0.2500
  268MOL0     C35308   3.912   3.525   5.367  0.2796 -0.5700 -0.1889
  268MOL0     C35309   4.065   3.323   5.645  0.9850  0.5931  0.3142
  268MOL0     C35310   4.174   3.382   5.708 -0.0513 -0.1364 -0.4551
  268MOL0     H35311   4.477   3.412   6.185  0.6022 -1.4777  1.2204
  268MOL0     H35312   4.691   3.487   6.281  2.5991  0.2708 -1.1345
  268MOL0     H35313   4.940   3.441   6.330 -2.6565 -1.0415 -2.7546
  268MOL0     H35314   4.890   3.605   6.305  2.0350  2.3516 -1.1369
  268MOL0     H35315   5.136   3.590   6.376  4.2151  0.8873 -0.9239
  268MOL0     H35316   5.107   3.678   6.222 -0.6517 -0.6778 -2.1601
  268MOL0     H35317   5.162   3.477   6.111  1.4355  0.6744  0.0285
  268MOL0     H35318   5.179   3.376   6.264 -0.1393  0.4355  1.0725
  268MOL0     H35319   5.357   3.593   6.180  1.0707  1.4209  1.9649
  268MOL0     H35320   5.389   3.500   6.317  0.2515 -0.5038 -0.5993
  268MOL0     H35321   5.526   3.437   6.153 -0.4126  0.3600 -1.0557
  268MOL0     H35322   5.398   3.382   6.042  0.1544  0.5030  0.2407
  268MOL0     H35323   5.322   3.210   6.183 -0.0680  1.0613 -0.2509
  268MOL0     H35324   5.426   3.251   6.315  0.2307  0.5473  0.4572
  268MOL0     H35325   5.500   3.098   6.065 -1.6963  0.8085 -1.0831
  268MOL0     H35326   5.615   3.218   6.125  0.3467 -0.5827 -2.1049
  268MOL0     H35327   5.648   3.116   6.331 -1.9393 -0.2047  0.8231
  268MOL0     H35328   5.663   2.992   6.207  3.2741  1.8438  0.5378
  268MOL0     H35329   5.339   2.984   6.173  3.1382  1.6080  0.4245
  268MOL0     H35330   5.117   2.846   6.269 -0.9134  0.1238  0.3955
  268MOL0     H35331   5.132   2.790   6.429  0.1620  1.8496 -0.4329
  268MOL0     H35332   5.236   2.635   6.188 -3.2666  1.4481 -1.8727
  268MOL0     H35333   5.081   2.610   6.262  0.2078 -0.3538  0.5758
  268MOL0     H35334   5.229   2.454   6.324 -2.6421 -1.2779  1.2143
  268MOL0     H35335   5.329   2.570   6.413 -0.1780  0.7605  0.8296
  268MOL0     H35336   5.106   2.604   6.547 -3.6245 -0.8480 -2.5450
  268MOL0     H35337   5.203   2.447   6.563 -1.3274 -3.0941 -0.1739
  268MOL0     H35338   4.861   2.249   6.401  1.7386 -0.9282 -0.5642
  268MOL0     H35339   4.692   2.141   6.538  1.7499 -0.6943 -2.6025
  268MOL0     H35340   4.492   2.071   6.997  0.9776  1.5231 -1.0642
  268MOL0     H35341   4.281   1.972   7.081  1.5193 -1.2362 -0.1915
  268MOL0     H35342   3.931   1.941   6.980 -0.0223 -4.1851  1.1922
  268MOL0     H35343   4.056   2.023   7.072 -1.1306 -0.8088  0.9600
  268MOL0     H35344   3.926   1.765   7.143 -0.0928 -0.0131  1.0937
  268MOL0     H35345   3.902   1.924   7.209 -2.4897 -1.0143 -2.5473
  268MOL0     H35346   4.091   1.925   7.324  1.1180 -2.0219  2.1974
  268MOL0     H35347   4.177   1.820   7.207  1.9034  0.8542  1.3395
  268MOL0     H35348   3.968   1.724   7.419  1.0045 -0.0903  2.3898
  268MOL0     H35349   4.047   1.618   7.310  0.6876 -0.0367  0.1534
  268MOL0     H35350   4.164   1.762   7.541 -0.6347  0.9053 -0.0978
  268MOL0     H35351   4.271   1.714   7.409  0.8053 -0.2205  0.4293
  268MOL0     H35352   4.198   1.486   7.425 -2.3490 -0.8654 -0.3532
  268MOL0     H35353   4.080   1.513   7.559  2.6582 -1.9945  0.8821
  268MOL0     H35354   4.378   1.549   7.578 -0.7604 -0.9332 -0.1679
  268MOL0     H35355   4.250   1.598   7.699 -3.1707 -0.9749  0.1511
  268MOL0     H35356   4.326   1.317   7.597 -0.7670 -0.8598  0.5874
  268MOL0     H35357   4.179   1.347   7.690 -1.3128 -2.2659 -5.9763
  268MOL0     H35358   4.199   1.840   6.698  0.0874  0.5874 -0.5844
  268MOL0     H35359   4.384   1.963   6.611  0.4731  3.4014 -0.6364
  268MOL0     H35360   4.814   2.395   6.874 -1.1779 -1.8415  0.8206
  268MOL0     H35361   4.969   2.504   6.724 -0.9989  1.5413  0.2955
  268MOL0     H35362   4.864   3.481   5.882  2.7442 -1.9421  2.1964
  268MOL0     H35363   4.643   3.390   5.800 -2.2291 -1.2446  0.5273
  268MOL0     H35364   4.233   3.150   5.951  1.8177  2.5740  2.0575
  268MOL0     H35365   4.075   3.023   5.804  1.5589 -0.2774 -0.2277
  268MOL0     H35366   3.815   3.262   5.597  0.0558 -1.0614  2.2360
  268MOL0     H35367   3.742   3.107   5.546  0.3237  0.0598 -1.4634
  268MOL0     H35368   3.940   3.252   5.396  0.3601  0.6126  5.5365
  268MOL0     H35369   3.915   3.082   5.356 -1.8976  0.1327 -2.9630
  268MOL0     H35370   3.676   3.140   5.327  0.3935 -1.9588 -1.4705
  268MOL0     H35371   3.793   3.179   5.199  1.6340  1.2213  0.6524
  268MOL0     H35372   3.659   3.381   5.216  1.0385 -1.8157 -1.1665
  268MOL0     H35373   3.643   3.370   5.392  2.0644  0.7689  1.9094
  268MOL0     H35374   4.000   3.586   5.377  1.1341 -1.4289 -2.0072
  268MOL0     H35375   4.019   3.363   5.555  1.3912 -1.6230 -0.9506
  268MOL0     H35376   4.213   3.477   5.673  0.9594  0.3428  1.7626
  269MOL0     O35377   7.691   8.819   0.015  0.5216 -0.0860 -0.0238
  269MOL0     C35378   7.725   8.828   0.131  0.4394  0.4310  0.2531
  269MOL0     O35379   7.661   8.769   0.237  0.1203 -1.2275 -0.0646
  269MOL0     C35380   7.570   8.662   0.210 -0.7196 -0.7256  1.5993
  269MOL0     C35381   7.462   8.633   0.292 -0.3797 -0.8693  0.0029
  269MOL0     C35382   7.363   8.536   0.253 -0.4750  0.8407 -0.7406
  269MOL0     C35383   7.391   8.445   0.140 -0.7944 -1.4303 -1.3739
  269MOL0     O35384   7.301   8.337   0.127  0.1709 -0.1684 -0.1868
  269MOL0     C35385   7.313   8.250   0.016 -0.3262  0.2438  0.2394
  269MOL0     C35386   7.213   8.129   0.018 -0.4385 -0.4704  0.3773
  269MOL0     C35387   7.064   8.174   0.009  0.6094  0.1953 -0.7426
  269MOL0     C35388   7.014   8.195   0.150  0.6952 -1.3704  0.3504
  269MOL0     C35389   6.873   8.142   0.144  0.8908  0.5955 -0.7865
  269MOL0     C35390   6.777   8.165   0.269  0.3198 -0.0597 -0.6902
  269MOL0     C35391   6.642   8.107   0.243  0.3735  0.2264  0.5135
  269MOL0     C35392   6.535   8.180   0.326 -1.1131  0.1129 -0.2026
  269MOL0     N35393   6.409   8.102   0.322  0.5296  0.6189  0.1197
  269MOL0     C35394   6.334   8.082   0.209  0.6027  0.8286 -1.1640
  269MOL0     C35395   6.239   7.992   0.242  1.1265  0.2700 -0.1553
  269MOL0     C35396   6.152   7.936   0.138  0.0222 -0.7977 -0.6401
  269MOL0     C35397   6.199   7.800   0.090 -0.7412  0.4852  1.1507
  269MOL0     C35398   6.211   7.691   0.190 -0.0819  0.1434 -0.1763
  269MOL0     C35399   6.091   7.670   0.276  0.1069  0.3086  0.3479
  269MOL0     O35400   6.107   7.551   0.367 -0.7806  0.6570 -0.2919
  269MOL0     C35401   6.015   7.519   0.458 -0.1463  0.3618  0.8417
  269MOL0     C35402   6.046   7.406   0.535 -0.0933 -0.6314  0.8050
  269MOL0     C35403   5.952   7.357   0.628  0.2195 -0.2068  0.7121
  269MOL0     C35404   5.819   7.408   0.637 -0.2056 -0.0815 -0.1943
  269MOL0     C35405   5.721   7.353   0.726  0.4037  0.0695  0.4199
  269MOL0     O35406   5.757   7.238   0.795  0.4338  0.2871  0.4056
  269MOL0     C35407   5.670   7.197   0.892  0.0599 -0.9620 -0.2747
  269MOL0     C35408   5.663   7.266   1.014  0.1295  0.0981  0.6998
  269MOL0     C35409   5.563   7.221   1.114  0.6863  0.8823 -0.6749
  269MOL0     C35410   5.454   7.137   1.078  0.7403  0.2201  0.9095
  269MOL0     O35411   5.351   7.112   1.163  0.0886  0.3607  0.9621
  269MOL0     C35412   5.386   7.133   1.303  0.3092  0.1687 -0.2829
  269MOL0     C35413   5.266   7.081   1.391 -0.3983 -0.8171  0.5279
  269MOL0     C35414   5.269   6.926   1.414  0.8609 -0.0191 -0.2305
  269MOL0     C35415   5.361   6.885   1.527 -0.9725 -0.2977 -0.4756
  269MOL0     C35416   5.314   6.759   1.607 -0.0338  0.0872 -0.4512
  269MOL0     C35417   5.414   6.727   1.723 -0.6808 -0.3588  0.3808
  269MOL0     C35418   5.561   6.679   1.674  0.2133  0.6639  0.3383
  269MOL0     C35419   5.567   6.562   1.575  0.2506 -0.2460  0.8219
  269MOL0    Cl35420   5.512   6.410   1.656  0.3259 -0.2027 -0.0689
  269MOL0     C35421   5.468   7.080   0.954  0.5501  0.1956 -0.1762
  269MOL0     C35422   5.582   7.093   0.873 -0.1959  0.3085 -0.1479
  269MOL0     O35423   5.611   7.406   0.730 -0.6137  0.6871 -0.6845
  269MOL0     C35424   5.788   7.519   0.556  0.7559  0.6317 -0.4149
  269MOL0     C35425   5.876   7.570   0.455  0.4078 -0.2140 -0.0540
  269MOL0     N35426   6.249   7.969   0.374  0.4325 -0.7758  0.0230
  269MOL0     N35427   6.353   8.031   0.426 -0.5087  0.6526  0.1518
  269MOL0     C35428   7.504   8.467   0.073 -0.2502 -0.1248 -0.4779
  269MOL0     C35429   7.592   8.570   0.105 -0.9316 -0.4656  0.2276
  269MOL0     C35430   7.859   8.892   0.153 -0.8671  0.0461  0.0081
  269MOL0     C35431   7.929   8.900   0.266  0.1393 -0.0876 -0.8596
  269MOL0     C35432   8.048   8.967   0.284  0.4622 -0.6181 -0.0511
  269MOL0     C35433   8.112   9.029   0.164 -0.1790 -0.1702 -0.6150
  269MOL0     O35434   8.223   9.109   0.165  0.0081 -0.5418 -0.8317
  269MOL0     C35435   8.276   9.145   0.296  0.6497  1.0336 -0.7538
  269MOL0     C35436   8.375   9.259   0.257 -1.2627  0.1508  0.4441
  269MOL0     C35437   8.406   9.329   0.389 -0.3277  1.0018  0.1533
  269MOL0     C35438   8.525   9.420   0.367  0.5647  0.4457  0.3580
  269MOL0     C35439   8.562   9.486   0.491  0.3764  0.6912 -0.0936
  269MOL0     C35440   8.599   9.544   0.593  0.1743  0.6255 -0.2934
  269MOL0     C35441   8.047   9.014   0.043  0.2150  0.0270 -0.6735
  269MOL0     C35442   7.921   8.953   0.033 -0.3456  0.6273 -0.3126
  269MOL0     H35443   7.437   8.694   0.378  1.8804 -1.6176  1.2982
  269MOL0     H35444   7.276   8.521   0.316 -1.2643 -0.0665 -2.0119
  269MOL0     H35445   7.413   8.204   0.014 -1.3596 -2.4104 -4.6741
  269MOL0     H35446   7.305   8.307  -0.076  1.7278 -1.8022 -1.3393
  269MOL0     H35447   7.234   8.066   0.105 -2.3910  0.8413  1.8916
  269MOL0     H35448   7.229   8.070  -0.073 -2.2408  0.2607 -0.4484
  269MOL0     H35449   7.010   8.097  -0.047 -0.3598  0.7189 -0.5536
  269MOL0     H35450   7.057   8.273  -0.037 -1.9803  0.0897 -0.6974
  269MOL0     H35451   7.065   8.137   0.227  1.3377 -0.0230  0.9681
  269MOL0     H35452   7.021   8.302   0.172  1.7950 -0.8071 -2.3755
  269MOL0     H35453   6.881   8.033   0.131 -1.8462 -0.1318  2.1845
  269MOL0     H35454   6.823   8.184   0.057 -1.4455 -0.9691 -0.3112
  269MOL0     H35455   6.764   8.271   0.292  2.2004  0.9694 -3.7382
  269MOL0     H35456   6.822   8.109   0.351 -0.8990 -3.5120 -2.2073
  269MOL0     H35457   6.616   8.136   0.140 -3.5901  0.3092  1.3819
  269MOL0     H35458   6.639   7.998   0.245 -3.8630  0.1687 -0.2063
  269MOL0     H35459   6.509   8.279   0.289 -0.8095 -0.5907 -2.4735
  269MOL0     H35460   6.577   8.186   0.426 -0.5299 -3.0669 -0.1432
  269MOL0     H35461   6.360   8.124   0.112  2.7709  3.8925  0.5443
  269MOL0     H35462   6.147   7.996   0.046 -0.5924  0.0433 -0.0720
  269MOL0     H35463   6.049   7.944   0.173  0.7810  3.8284  1.3971
  269MOL0     H35464   6.301   7.812   0.054 -1.7728 -0.0770 -2.4213
  269MOL0     H35465   6.138   7.768   0.004 -2.5415 -1.5361  3.0257
  269MOL0     H35466   6.233   7.594   0.144  0.1490 -1.0692  2.3251
  269MOL0     H35467   6.303   7.705   0.248  1.4855  1.1485 -2.7037
  269MOL0     H35468   6.003   7.665   0.212 -0.8069 -0.6925  1.6306
  269MOL0     H35469   6.073   7.764   0.330  3.9496  2.2675 -1.4148
  269MOL0     H35470   6.149   7.375   0.545  1.7299  3.5044 -2.3589
  269MOL0     H35471   5.984   7.277   0.694  1.0329  1.2366  2.1305
  269MOL0     H35472   5.730   7.350   1.030 -0.3817  0.4164  1.2037
  269MOL0     H35473   5.566   7.266   1.213 -0.5820  0.2389 -0.3219
  269MOL0     H35474   5.405   7.235   1.336  1.1980 -0.4285  1.1574
  269MOL0     H35475   5.474   7.071   1.323 -0.2966 -0.2607  1.1360
  269MOL0     H35476   5.177   7.123   1.344  0.4370 -0.7474 -1.0819
  269MOL0     H35477   5.254   7.133   1.486 -1.4111  2.0286 -1.0275
  269MOL0     H35478   5.290   6.861   1.328 -1.1136 -3.0688  1.3915
  269MOL0     H35479   5.163   6.904   1.431  0.7337  1.3270  0.8525
  269MOL0     H35480   5.459   6.850   1.494 -0.9759  0.4312 -1.2721
  269MOL0     H35481   5.367   6.968   1.598  1.6041 -0.3681 -0.5058
  269MOL0     H35482   5.309   6.677   1.535  5.2809 -0.6666 -0.4076
  269MOL0     H35483   5.215   6.781   1.647 -1.4207 -2.1395 -2.3589
  269MOL0     H35484   5.375   6.646   1.784  0.3357 -1.6692 -0.6467
  269MOL0     H35485   5.423   6.817   1.785 -0.7560 -0.5960  0.7391
  269MOL0     H35486   5.612   6.768   1.635  0.9417  0.0620 -0.1007
  269MOL0     H35487   5.622   6.652   1.761  0.6287 -0.2011 -0.2052
  269MOL0     H35488   5.673   6.559   1.548  0.0072 -1.4883 -0.0928
  269MOL0     H35489   5.506   6.582   1.486  2.5463  2.6083 -0.2773
  269MOL0     H35490   5.403   7.005   0.910  2.0965 -0.0646 -2.1915
  269MOL0     H35491   5.599   7.029   0.787  0.9916  2.9554 -2.0315
  269MOL0     H35492   5.682   7.542   0.561  0.5066 -0.6813  2.1818
  269MOL0     H35493   5.836   7.645   0.388  0.6206 -0.5480 -0.5584
  269MOL0     H35494   7.530   8.409  -0.015  0.0388  0.1038 -0.5465
  269MOL0     H35495   7.675   8.583   0.036  0.8357 -2.4578  1.8049
  269MOL0     H35496   7.888   8.852   0.354 -0.4791 -1.8573 -2.0611
  269MOL0     H35497   8.100   8.965   0.379  0.3253 -0.5926  0.0243
  269MOL0     H35498   8.314   9.060   0.352 -0.6378  0.2544 -1.0459
  269MOL0     H35499   8.191   9.179   0.355  0.7662 -1.1259  0.7567
  269MOL0     H35500   8.468   9.213   0.220 -2.0095  0.7402 -2.3311
  269MOL0     H35501   8.350   9.332   0.180  0.6219 -0.5535 -0.9218
  269MOL0     H35502   8.431   9.252   0.463 -2.0778 -1.0803 -1.3066
  269MOL0     H35503   8.316   9.388   0.408 -1.6261 -0.4225 -1.2890
  269MOL0     H35504   8.620   9.378   0.336  1.2671  0.9629  1.7195
  269MOL0     H35505   8.494   9.499   0.297 -0.1200 -0.1217  0.0053
  269MOL0     H35506   8.634   9.591   0.683 -0.2589 -1.1688  0.8498
  269MOL0     H35507   8.087   9.060  -0.047  1.3741  1.2425  0.4479
  269MOL0     H35508   7.873   8.965  -0.064 -1.4287  1.5197  0.2974
  270MOL0     O35509   6.498  10.486   1.435 -0.0304  0.5488 -0.1029
  270MOL0     C35510   6.493  10.532   1.551  0.6794  0.4336 -0.0087
  270MOL0     O35511   6.529  10.662   1.584  0.2985  0.4993 -0.2107
  270MOL0     C35512   6.575  10.753   1.494  0.5753 -1.0779 -1.0794
  270MOL0     C35513   6.498  10.790   1.388  0.1696 -0.0636 -0.5808
  270MOL0     C35514   6.556  10.870   1.291 -0.3199 -0.7766  0.3563
  270MOL0     C35515   6.684  10.933   1.307  0.6979  0.2095 -0.7911
  270MOL0     O35516   6.743  11.026   1.225  0.3201  0.0344  0.7056
  270MOL0     C35517   6.700  11.037   1.095  0.2590 -0.1385  0.7049
  270MOL0     C35518   6.805  11.122   1.021  0.6418  0.7448 -0.3420
  270MOL0     C35519   6.749  11.171   0.884  0.2357  0.3287  0.1063
  270MOL0     C35520   6.679  11.070   0.794 -0.3327 -0.7243 -0.0137
  270MOL0     C35521   6.615  11.126   0.667  0.3018 -0.2799 -0.7087
  270MOL0     C35522   6.491  11.211   0.707  0.3126  0.3824  0.7481
  270MOL0     C35523   6.408  11.256   0.579 -0.1748 -0.5810 -0.5965
  270MOL0     C35524   6.307  11.163   0.518  0.3226 -0.1414 -0.1242
  270MOL0     N35525   6.202  11.113   0.611  0.3888  0.2990  0.0356
  270MOL0     C35526   6.066  11.153   0.622 -0.0394  0.3226 -0.2361
  270MOL0     C35527   6.023  11.063   0.718  0.6806 -0.2674  0.7022
  270MOL0     C35528   5.883  11.077   0.781  0.2904 -0.6596 -0.3292
  270MOL0     C35529   5.827  10.945   0.810 -0.1560 -0.9327 -0.4081
  270MOL0     C35530   5.821  10.843   0.705 -0.3384  1.0568  0.1029
  270MOL0     C35531   5.798  10.701   0.760  0.0524 -0.5573 -0.4969
  270MOL0     O35532   5.670  10.677   0.830 -0.4070 -0.6169 -0.2449
  270MOL0     C35533   5.652  10.599   0.942  0.3160 -0.9088  0.3943
  270MOL0     C35534   5.538  10.623   1.019  0.5081 -0.1728  0.3631
  270MOL0     C35535   5.511  10.535   1.128  0.3878 -0.3951  0.4662
  270MOL0     C35536   5.596  10.432   1.164 -0.1297 -0.1160 -1.4419
  270MOL0     C35537   5.561  10.339   1.273  0.8808  0.1653 -0.3060
  270MOL0     O35538   5.642  10.234   1.295  0.0621  0.1433 -0.3114
  270MOL0     C35539   5.623  10.147   1.403 -0.0187  0.0035 -0.7095
  270MOL0     C35540   5.548  10.169   1.526  0.5351 -0.9784 -0.3645
  270MOL0     C35541   5.543  10.065   1.621  0.5079  0.3138  0.1936
  270MOL0     C35542   5.619   9.953   1.602  0.1543 -0.0452 -0.8000
  270MOL0     O35543   5.601   9.865   1.709 -0.2515 -0.1583 -0.3063
  270MOL0     C35544   5.663   9.738   1.704 -0.4500  0.2595  0.8910
  270MOL0     C35545   5.657   9.667   1.838  0.3792  0.5563  0.1387
  270MOL0     C35546   5.729   9.533   1.848 -0.7946 -0.1174  1.5732
  270MOL0     C35547   5.762   9.496   1.986 -1.0741  0.4546  0.0792
  270MOL0     C35548   5.643   9.476   2.086 -0.3558  0.0269 -0.7165
  270MOL0     C35549   5.550   9.365   2.046  0.6853 -0.0945 -0.1464
  270MOL0     C35550   5.451   9.329   2.153 -0.6239  0.6851  0.2225
  270MOL0     C35551   5.318   9.268   2.105 -0.1278  0.5526  0.4402
  270MOL0    Cl35552   5.184   9.384   2.114 -0.2931  0.2993  0.0873
  270MOL0     C35553   5.697   9.939   1.484 -0.7377  0.8027 -0.8899
  270MOL0     C35554   5.701  10.037   1.390 -0.4706  0.7680 -0.2347
  270MOL0     O35555   5.442  10.348   1.319  0.5310 -0.6032 -0.3238
  270MOL0     C35556   5.714  10.424   1.095  0.0165 -0.1674 -1.5758
  270MOL0     C35557   5.741  10.500   0.985  0.0914 -0.0452 -0.0548
  270MOL0     N35558   6.122  10.976   0.761  0.3998  0.3489 -0.5562
  270MOL0     N35559   6.219  11.011   0.699  0.4986  0.2266  0.3263
  270MOL0     C35560   6.755  10.893   1.423 -0.8743  0.0699  0.1193
  270MOL0     C35561   6.702  10.794   1.504  0.1266 -0.3942  0.2750
  270MOL0     C35562   6.457  10.433   1.660  0.4486  0.2131  0.3196
  270MOL0     C35563   6.523  10.433   1.785  0.1205 -0.3502 -0.1101
  270MOL0     C35564   6.479  10.336   1.876 -0.3258 -0.5837 -0.1051
  270MOL0     C35565   6.377  10.240   1.840  0.3515  0.2146 -0.7389
  270MOL0     O35566   6.348  10.135   1.935  0.0673  0.1368  0.8881
  270MOL0     C35567   6.208  10.082   1.939 -0.3860 -0.6403  0.4288
  270MOL0     C35568   6.183  10.000   2.073 -0.0313  0.7639 -0.6950
  270MOL0     C35569   6.070   9.886   2.066  0.6376  0.0203  0.0174
  270MOL0     C35570   6.019   9.853   2.211  0.2519  0.5965  0.2963
  270MOL0     C35571   6.042   9.713   2.230  0.1324  0.4878 -0.3159
  270MOL0     C35572   6.066   9.596   2.220  1.1639  0.4160 -0.6044
  270MOL0     C35573   6.316  10.237   1.720  0.6173 -0.2998  1.1835
  270MOL0     C35574   6.351  10.340   1.628  0.1845  0.5543  0.1737
  270MOL0     H35575   6.399  10.746   1.375 -0.8333  2.3257 -1.4964
  270MOL0     H35576   6.501  10.881   1.197 -1.4201 -2.7465  0.7134
  270MOL0     H35577   6.605  11.092   1.089 -0.4632 -1.5244 -2.6177
  270MOL0     H35578   6.675  10.947   1.039  1.6371  0.2387 -0.5882
  270MOL0     H35579   6.893  11.057   1.017 -0.4069 -1.0079  2.2819
  270MOL0     H35580   6.840  11.202   1.088 -0.9762  1.7824 -0.6657
  270MOL0     H35581   6.832  11.208   0.822  2.1376 -1.5848  1.3546
  270MOL0     H35582   6.679  11.254   0.895 -1.6449 -1.3914  1.8022
  270MOL0     H35583   6.754  10.997   0.759 -0.8616 -1.1458 -0.2838
  270MOL0     H35584   6.599  11.024   0.853  1.2461  0.8276  3.6843
  270MOL0     H35585   6.564  11.045   0.614  0.0811 -0.8748  0.3999
  270MOL0     H35586   6.672  11.180   0.590 -0.8800  1.0588 -0.6740
  270MOL0     H35587   6.538  11.301   0.747  1.2375  1.5527 -2.5841
  270MOL0     H35588   6.429  11.166   0.785 -0.1739 -1.3895 -0.5758
  270MOL0     H35589   6.346  11.341   0.606  2.0454  1.3478 -1.2235
  270MOL0     H35590   6.467  11.289   0.493  0.3790 -2.7961 -1.1382
  270MOL0     H35591   6.348  11.064   0.498 -1.7272 -1.9253  3.5415
  270MOL0     H35592   6.278  11.210   0.423 -0.8617 -0.3500  0.1200
  270MOL0     H35593   6.025  11.241   0.573  1.3752  2.8453  2.7843
  270MOL0     H35594   5.821  11.144   0.721  0.5287 -2.6595 -2.9637
  270MOL0     H35595   5.904  11.132   0.874  0.9903 -0.3757 -0.6449
  270MOL0     H35596   5.726  10.951   0.851 -1.1955 -3.4152 -2.3211
  270MOL0     H35597   5.893  10.907   0.888 -0.1358 -0.3414 -0.1315
  270MOL0     H35598   5.731  10.864   0.646  0.6450  1.0506 -1.4572
  270MOL0     H35599   5.905  10.840   0.634 -0.0126  1.3257  0.4759
  270MOL0     H35600   5.880  10.684   0.830 -1.0140  2.2901  1.6244
  270MOL0     H35601   5.788  10.632   0.675  1.0677 -1.7059  0.2886
  270MOL0     H35602   5.460  10.692   0.987  0.7860  0.6782  1.4527
  270MOL0     H35603   5.419  10.542   1.186 -0.6213  1.2790 -1.2307
  270MOL0     H35604   5.483  10.253   1.546  1.5387 -0.5421  1.1773
  270MOL0     H35605   5.474  10.083   1.703 -0.4833  2.6698 -1.0662
  270MOL0     H35606   5.771   9.743   1.688 -0.3618 -2.7532 -0.2011
  270MOL0     H35607   5.635   9.672   1.622 -1.7802  2.3673 -0.4356
  270MOL0     H35608   5.555   9.644   1.869  1.1260 -2.1862  0.8919
  270MOL0     H35609   5.697   9.723   1.923 -0.0127 -0.9495  1.3618
  270MOL0     H35610   5.815   9.556   1.785 -0.8491  0.2093  1.6178
  270MOL0     H35611   5.676   9.452   1.798  1.6291  0.4573 -2.2893
  270MOL0     H35612   5.816   9.401   1.988 -3.2581 -1.0042 -3.0911
  270MOL0     H35613   5.829   9.575   2.024 -1.0604  0.6362 -0.3196
  270MOL0     H35614   5.580   9.565   2.080  1.1693  1.2164  0.0471
  270MOL0     H35615   5.678   9.472   2.190 -0.9791  1.5164 -0.4307
  270MOL0     H35616   5.600   9.273   2.014 -0.8532 -1.0980  0.2329
  270MOL0     H35617   5.487   9.397   1.963  0.4186  0.3949  0.2413
  270MOL0     H35618   5.502   9.248   2.206 -1.1557 -0.3090 -0.7720
  270MOL0     H35619   5.424   9.412   2.220 -3.2697 -0.5061  0.7381
  270MOL0     H35620   5.294   9.175   2.158  3.7740 -2.7177 -2.7676
  270MOL0     H35621   5.334   9.232   2.003  0.8929 -0.3058  0.8745
  270MOL0     H35622   5.758   9.851   1.466  2.2863  2.6218 -0.2399
  270MOL0     H35623   5.751  10.026   1.294  0.6870 -0.0214  0.4266
  270MOL0     H35624   5.770  10.336   1.126 -2.7058 -1.1020  1.1704
  270MOL0     H35625   5.830  10.496   0.924  0.2887 -0.4281  0.2557
  270MOL0     H35626   6.845  10.946   1.453 -1.0965  0.4249  0.1680
  270MOL0     H35627   6.769  10.752   1.578 -0.2923 -1.1129  0.2533
  270MOL0     H35628   6.602  10.505   1.805  0.1892 -0.9703  2.0573
  270MOL0     H35629   6.496  10.338   1.984 -0.7833 -0.1534 -0.0415
  270MOL0     H35630   6.197  10.014   1.854  1.0006  0.0476 -0.3358
  270MOL0     H35631   6.151  10.174   1.927 -0.0409 -0.7312 -2.3880
  270MOL0     H35632   6.279   9.956   2.100 -0.3149  0.2141 -0.5838
  270MOL0     H35633   6.161  10.080   2.145 -0.4666  1.6577 -1.7908
  270MOL0     H35634   6.112   9.799   2.014 -2.0297  0.5884 -3.4816
  270MOL0     H35635   5.983   9.919   2.008 -0.0694 -1.8281 -0.0503
  270MOL0     H35636   6.067   9.907   2.293 -1.5398  4.5625 -0.9919
  270MOL0     H35637   5.914   9.880   2.226 -0.0783 -2.4480  5.4099
  270MOL0     H35638   6.082   9.491   2.209  1.0418 -0.0059  2.4571
  270MOL0     H35639   6.234  10.170   1.696 -2.1067  2.6507  1.4230
  270MOL0     H35640   6.305  10.352   1.531  1.3764  1.4445 -0.3008
  271MOL0     O35641   9.195   7.705  11.344 -0.8084 -0.4445  0.6869
  271MOL0     C35642   9.215   7.680  11.458 -0.3320  0.6892  0.0309
  271MOL0     O35643   9.145   7.736  11.561  0.5532  0.2102 -0.2527
  271MOL0     C35644   9.067   7.836  11.541 -0.8584 -0.2625  0.4426
  271MOL0     C35645   9.126   7.953  11.591  0.5203 -0.1507  0.4453
  271MOL0     C35646   9.037   8.063  11.607  1.0347  0.3340 -0.1797
  271MOL0     C35647   8.909   8.069  11.537  0.9994 -0.6028  0.0457
  271MOL0     O35648   8.848   8.196  11.526  0.1494  0.5078 -0.2256
  271MOL0     C35649   8.929   8.304  11.508 -0.5984 -0.7070 -0.8453
  271MOL0     C35650   8.843   8.433  11.488  0.0161  0.4756  0.5920
  271MOL0     C35651   8.804   8.437  11.340  0.4610 -0.7684 -0.1368
  271MOL0     C35652   8.741   8.575  11.303  0.7338 -1.4766  0.9182
  271MOL0     C35653   8.589   8.583  11.358 -1.0112 -0.6728 -0.2514
  271MOL0     C35654   8.519   8.715  11.334 -0.2491 -0.2505 -0.3391
  271MOL0     C35655   8.376   8.713  11.316  0.5072 -0.3843  0.0719
  271MOL0     C35656   8.313   8.846  11.265 -0.2454 -0.2306 -0.7452
  271MOL0     N35657   8.179   8.830  11.224 -0.5443 -0.0492  0.6173
  271MOL0     C35658   8.095   8.720  11.252 -1.2529  0.3612 -0.3848
  271MOL0     C35659   7.983   8.756  11.189 -0.2566 -0.0697 -0.7987
  271MOL0     C35660   7.859   8.677  11.198  0.2358 -0.2959 -0.0663
  271MOL0     C35661   7.870   8.574  11.086  0.9101  0.5449 -0.4108
  271MOL0     C35662   7.968   8.466  11.115 -0.3431  0.8593 -0.1694
  271MOL0     C35663   7.976   8.350  11.002  0.5256 -0.0949 -0.8877
  271MOL0     O35664   7.847   8.290  10.973 -0.6854 -0.1721 -1.1595
  271MOL0     C35665   7.797   8.198  11.061 -0.7958 -0.0585 -0.2995
  271MOL0     C35666   7.658   8.206  11.065 -1.2344  0.4499 -0.6463
  271MOL0     C35667   7.591   8.132  11.171 -0.0683 -0.0409  0.0867
  271MOL0     C35668   7.673   8.063  11.261 -0.9240 -0.2265  0.2087
  271MOL0     C35669   7.618   7.974  11.364  0.1287 -0.3132  0.6175
  271MOL0     O35670   7.687   7.880  11.436 -0.3197  0.9146 -0.1352
  271MOL0     C35671   7.618   7.770  11.478  0.2898  0.5592  0.7805
  271MOL0     C35672   7.556   7.767  11.595 -0.8005  0.5423 -0.1290
  271MOL0     C35673   7.489   7.648  11.624  0.0861  0.2740 -0.4421
  271MOL0     C35674   7.507   7.534  11.556 -0.9364  0.5620  0.0742
  271MOL0     O35675   7.439   7.415  11.582  0.0473  0.8264  0.7621
  271MOL0     C35676   7.471   7.355  11.705  0.2982  0.3707 -0.0040
  271MOL0     C35677   7.527   7.203  11.695  1.3549  0.5670  0.2211
  271MOL0     C35678   7.668   7.192  11.631  0.1675 -0.5503 -0.3668
  271MOL0     C35679   7.708   7.057  11.584 -0.3970 -0.4452  0.3203
  271MOL0     C35680   7.839   7.077  11.507 -0.9519 -0.6630 -0.5204
  271MOL0     C35681   7.908   6.953  11.467 -0.1215 -0.0063  0.8166
  271MOL0     C35682   7.834   6.886  11.348 -0.7759 -0.1190  0.4171
  271MOL0     C35683   7.911   6.760  11.292 -0.4379  0.0561 -0.1534
  271MOL0    Cl35684   8.073   6.825  11.261 -0.0038  0.3120 -0.2793
  271MOL0     C35685   7.581   7.540  11.435  1.0783  0.8445 -0.4234
  271MOL0     C35686   7.630   7.664  11.389  0.3854  0.3864  0.5745
  271MOL0     O35687   7.493   7.977  11.361 -0.3694 -1.0298 -0.3007
  271MOL0     C35688   7.810   8.064  11.251 -0.7260 -0.1354 -0.6653
  271MOL0     C35689   7.881   8.140  11.155 -0.4059 -0.0265  0.4343
  271MOL0     N35690   7.998   8.889  11.146  0.2393 -0.5800  0.6513
  271MOL0     N35691   8.120   8.918  11.146 -0.0560 -0.4735  0.3276
  271MOL0     C35692   8.862   7.945  11.485 -0.1003 -0.4783  0.3578
  271MOL0     C35693   8.942   7.830  11.484  0.4440  1.0137 -0.0136
  271MOL0     C35694   9.305   7.575  11.489  0.2874 -0.8122  0.7593
  271MOL0     C35695   9.330   7.546  11.626 -0.9971 -0.6056  0.1620
  271MOL0     C35696   9.397   7.434  11.671  0.1949  0.2172 -0.8454
  271MOL0     C35697   9.447   7.352  11.576 -0.1755  0.0191  0.6039
  271MOL0     O35698   9.518   7.248  11.635  0.5685 -0.3012  0.0560
  271MOL0     C35699   9.511   7.124  11.560 -0.5863 -0.4388 -0.8255
  271MOL0     C35700   9.583   7.009  11.639  0.8448 -0.0114  0.8580
  271MOL0     C35701   9.734   7.041  11.685  0.4820 -0.3287 -0.3711
  271MOL0     C35702   9.820   6.922  11.722 -0.5211  0.1069  0.0510
  271MOL0     C35703   9.792   6.873  11.850  0.2741  0.4270 -0.3543
  271MOL0     C35704   9.745   6.826  11.953 -0.0454 -1.0437 -0.3239
  271MOL0     C35705   9.421   7.376  11.439  0.1946  0.8434 -0.6414
  271MOL0     C35706   9.360   7.485  11.394 -0.2173  0.1162  0.0080
  271MOL0     H35707   9.222   7.960  11.643  1.3500 -0.2440 -1.0165
  271MOL0     H35708   9.062   8.147  11.671 -0.1204  0.5399  0.0246
  271MOL0     H35709   8.968   8.284  11.408 -0.9342  2.6306 -1.7847
  271MOL0     H35710   9.011   8.330  11.576  0.8722  0.4564 -2.9438
  271MOL0     H35711   8.915   8.512  11.512 -2.8759  2.5794  3.1034
  271MOL0     H35712   8.754   8.429  11.551 -0.7646  1.9083 -0.3627
  271MOL0     H35713   8.733   8.355  11.330  2.4715 -2.5759 -0.1645
  271MOL0     H35714   8.891   8.418  11.277  1.6885  0.7376  1.0331
  271MOL0     H35715   8.805   8.658  11.336 -0.5966 -1.1777  2.9366
  271MOL0     H35716   8.737   8.587  11.195  1.1524  2.1477  1.1848
  271MOL0     H35717   8.587   8.572  11.467 -1.4746 -0.0302 -0.1845
  271MOL0     H35718   8.539   8.495  11.317 -0.7453 -1.0779  0.2888
  271MOL0     H35719   8.565   8.757  11.245  3.6720 -0.2387  1.5023
  271MOL0     H35720   8.537   8.785  11.416  3.6486  0.7926 -1.8803
  271MOL0     H35721   8.353   8.634  11.244 -0.6392 -1.4816  1.5607
  271MOL0     H35722   8.323   8.702  11.411 -0.7699  0.5023 -0.5149
  271MOL0     H35723   8.387   8.892  11.198  1.4935  0.0741  1.2816
  271MOL0     H35724   8.317   8.924  11.342  0.5396 -3.7832  3.1744
  271MOL0     H35725   8.110   8.637  11.320  1.2120  2.7785  2.2373
  271MOL0     H35726   7.778   8.749  11.184  0.3659 -0.1470 -0.0623
  271MOL0     H35727   7.843   8.641  11.300 -0.5996  1.7560  0.5939
  271MOL0     H35728   7.880   8.620  10.987  0.4015 -2.1277 -1.7992
  271MOL0     H35729   7.767   8.537  11.082  1.1534 -0.2654  0.4364
  271MOL0     H35730   8.070   8.505  11.127  0.5283 -1.1181 -0.7880
  271MOL0     H35731   7.937   8.418  11.209  1.8132 -0.8276 -0.2357
  271MOL0     H35732   8.051   8.277  11.033  0.6474  0.2576 -0.3375
  271MOL0     H35733   8.013   8.394  10.908  1.3063 -1.3283 -1.1721
  271MOL0     H35734   7.607   8.268  10.991 -2.8669  1.7915  1.4995
  271MOL0     H35735   7.482   8.133  11.168 -0.0853 -1.1985 -1.8636
  271MOL0     H35736   7.550   7.845  11.670 -4.6969 -1.2782  1.7656
  271MOL0     H35737   7.416   7.656  11.703 -0.6189 -0.0627 -1.0475
  271MOL0     H35738   7.386   7.369  11.773  0.5761  0.1928  0.3898
  271MOL0     H35739   7.552   7.413  11.750  3.0787  0.7481 -4.8195
  271MOL0     H35740   7.455   7.134  11.650  0.4095  0.0987  2.3309
  271MOL0     H35741   7.521   7.160  11.796 -1.8611  1.6724  0.6010
  271MOL0     H35742   7.743   7.227  11.703 -2.1569  1.6127  1.1470
  271MOL0     H35743   7.673   7.258  11.544  6.0761 -2.3374 -1.8533
  271MOL0     H35744   7.703   6.994  11.673 -0.9879 -1.1638 -0.2128
  271MOL0     H35745   7.632   7.016  11.517  0.2451 -0.9196 -0.1289
  271MOL0     H35746   7.908   7.136  11.568 -1.6012  0.3047 -0.6977
  271MOL0     H35747   7.837   7.150  11.425  2.3507 -0.2998 -0.4070
  271MOL0     H35748   7.930   6.881  11.547  1.7213 -0.1303  0.2566
  271MOL0     H35749   8.006   6.999  11.449 -1.2794  3.2740  2.1430
  271MOL0     H35750   7.731   6.861  11.376 -2.1348  1.2149 -2.8029
  271MOL0     H35751   7.827   6.955  11.263 -1.0951  0.5569  0.9750
  271MOL0     H35752   7.874   6.717  11.199  2.2244 -1.4989 -0.5948
  271MOL0     H35753   7.919   6.680  11.366  2.8029  0.0840 -0.3221
  271MOL0     H35754   7.589   7.449  11.376  1.3779  2.7909 -3.6436
  271MOL0     H35755   7.686   7.667  11.297  1.0082 -0.6326  0.9055
  271MOL0     H35756   7.876   8.007  11.315 -3.0709 -1.6964  0.4637
  271MOL0     H35757   7.989   8.141  11.165 -0.2769  3.6872 -0.1050
  271MOL0     H35758   8.766   7.938  11.435  0.4973  0.7001 -0.9971
  271MOL0     H35759   8.913   7.733  11.442 -0.2953  0.1208  2.4049
  271MOL0     H35760   9.306   7.620  11.701  0.3581 -0.5102  0.5283
  271MOL0     H35761   9.393   7.413  11.777  0.1164 -0.8294 -1.0426
  271MOL0     H35762   9.571   7.134  11.469  0.6208 -2.9236 -0.3753
  271MOL0     H35763   9.408   7.092  11.541 -0.3863 -1.0363 -0.9139
  271MOL0     H35764   9.526   6.994  11.731 -0.7956  2.6069  0.3804
  271MOL0     H35765   9.585   6.920  11.576  3.5739  1.6876 -1.7492
  271MOL0     H35766   9.739   7.122  11.759 -0.6086  1.3090 -2.0027
  271MOL0     H35767   9.776   7.084  11.593  0.8315 -1.5755 -0.8129
  271MOL0     H35768   9.828   6.842  11.649  4.2207 -0.4143  0.8482
  271MOL0     H35769   9.925   6.949  11.728 -0.1719 -1.1597 -0.1419
  271MOL0     H35770   9.694   6.775  12.032  1.5152 -3.3495 -0.6741
  271MOL0     H35771   9.473   7.309  11.371 -1.5201 -0.4340 -0.7793
  271MOL0     H35772   9.371   7.521  11.292 -1.1251 -1.4258 -0.6535
  272MOL0     O35773   3.389   2.915   3.099  0.6376 -0.7203  0.7445
  272MOL0     C35774   3.424   3.026   3.127 -0.0064 -0.2017  0.1063
  272MOL0     O35775   3.410   3.137   3.059 -1.1218 -1.3920  0.7755
  272MOL0     C35776   3.341   3.141   2.942 -0.3583  0.5150  0.4353
  272MOL0     C35777   3.210   3.188   2.922  0.6189  0.6022 -0.4959
  272MOL0     C35778   3.170   3.188   2.788 -0.4945 -0.6954 -0.3689
  272MOL0     C35779   3.241   3.130   2.682 -0.2022  0.1731 -1.1106
  272MOL0     O35780   3.193   3.143   2.555  0.1079 -0.8728 -0.2684
  272MOL0     C35781   3.165   3.269   2.492  0.6977 -0.6814 -0.5189
  272MOL0     C35782   3.284   3.320   2.413  0.0423 -0.8334 -0.2646
  272MOL0     C35783   3.264   3.455   2.350  0.4549 -0.1114 -0.3048
  272MOL0     C35784   3.383   3.511   2.265  1.2251  0.0397  0.1591
  272MOL0     C35785   3.350   3.659   2.253 -0.1045 -0.1712  0.9332
  272MOL0     C35786   3.466   3.746   2.223  0.4072 -0.3824 -0.0763
  272MOL0     C35787   3.511   3.706   2.093 -0.2557  0.6935 -0.5254
  272MOL0     C35788   3.596   3.813   2.029 -0.4167  0.5039 -0.4360
  272MOL0     N35789   3.528   3.947   2.022 -0.4746 -0.1925  0.7482
  272MOL0     C35790   3.454   3.986   1.921  0.0700  1.1349  0.4672
  272MOL0     C35791   3.442   4.115   1.930  1.0713 -0.0940  0.5124
  272MOL0     C35792   3.359   4.205   1.831  0.8494 -0.5737 -0.6428
  272MOL0     C35793   3.248   4.130   1.741  0.2755  0.3115 -1.3917
  272MOL0     C35794   3.172   4.226   1.647 -0.2796  0.6946  0.4656
  272MOL0     C35795   3.099   4.340   1.720 -0.4719  0.4771 -0.6853
  272MOL0     O35796   3.020   4.281   1.824 -0.2298 -0.1378 -0.1729
  272MOL0     C35797   2.918   4.372   1.860 -0.2989 -1.2333 -0.2344
  272MOL0     C35798   2.786   4.330   1.852 -0.2051 -0.3395 -0.3144
  272MOL0     C35799   2.677   4.420   1.866  0.1360 -0.6912 -0.0107
  272MOL0     C35800   2.691   4.544   1.923  1.2898  0.9026 -0.7120
  272MOL0     C35801   2.571   4.624   1.955 -1.0233 -0.4155 -0.2226
  272MOL0     O35802   2.445   4.572   1.924  0.2725 -0.3055  0.2883
  272MOL0     C35803   2.351   4.636   1.990  0.1938 -0.1293 -0.2196
  272MOL0     C35804   2.300   4.597   2.114  0.3591  0.5749  0.4253
  272MOL0     C35805   2.211   4.671   2.195 -0.0927  0.2004  0.5886
  272MOL0     C35806   2.156   4.787   2.144 -0.3484 -0.6567  0.4445
  272MOL0     O35807   2.060   4.837   2.237  0.0278 -1.0066  0.6055
  272MOL0     C35808   2.020   4.977   2.225 -0.0050 -1.1444  0.7360
  272MOL0     C35809   2.036   5.067   2.353  0.2908  0.8095  0.2416
  272MOL0     C35810   1.926   5.174   2.340 -0.5681  0.3199  0.0207
  272MOL0     C35811   1.934   5.293   2.440  0.5247 -0.2204 -0.1524
  272MOL0     C35812   1.805   5.376   2.446  0.5361 -0.6109  0.5238
  272MOL0     C35813   1.804   5.477   2.331  0.2175  0.0294  0.3823
  272MOL0     C35814   1.691   5.583   2.355 -0.1819 -0.1906  0.2386
  272MOL0     C35815   1.682   5.694   2.249 -0.4484  0.2583 -0.6313
  272MOL0    Cl35816   1.541   5.794   2.285 -0.0625  0.0934 -0.0560
  272MOL0     C35817   2.212   4.839   2.030 -0.3461  0.6965  0.4747
  272MOL0     C35818   2.302   4.759   1.943 -0.3035  0.4886 -0.4668
  272MOL0     O35819   2.596   4.719   2.033  0.1380 -0.3027 -0.0499
  272MOL0     C35820   2.826   4.584   1.940 -1.0034  0.5705 -0.6771
  272MOL0     C35821   2.938   4.502   1.908  0.1272 -0.0343  0.1157
  272MOL0     N35822   3.513   4.163   2.045 -0.1096 -1.1548 -0.1703
  272MOL0     N35823   3.571   4.054   2.091 -0.4356 -0.8027 -0.4237
  272MOL0     C35824   3.377   3.090   2.705 -0.4549 -0.3414  0.5593
  272MOL0     C35825   3.423   3.095   2.832 -0.1501  0.3087  0.1539
  272MOL0     C35826   3.494   3.039   3.254  0.5363 -0.7108 -0.2718
  272MOL0     C35827   3.576   2.939   3.310  0.5540 -0.8610  0.9267
  272MOL0     C35828   3.644   2.953   3.423  0.1329  0.5162 -0.4799
  272MOL0     C35829   3.637   3.070   3.498 -0.0215 -0.7385 -0.9584
  272MOL0     O35830   3.703   3.116   3.611 -0.2021  0.2388 -0.2867
  272MOL0     C35831   3.803   3.029   3.662 -0.8880 -0.4717 -0.0482
  272MOL0     C35832   3.833   3.082   3.800 -0.6734  0.4543 -0.0865
  272MOL0     C35833   3.716   3.041   3.902 -0.9008  0.1926 -0.6340
  272MOL0     C35834   3.704   3.132   4.023  0.1848  0.2565 -0.2082
  272MOL0     C35835   3.821   3.126   4.114  0.6218 -0.8929 -0.5167
  272MOL0     C35836   3.910   3.134   4.187 -0.7980 -0.3859  0.0825
  272MOL0     C35837   3.559   3.169   3.452 -0.1128  0.1032  0.1193
  272MOL0     C35838   3.476   3.149   3.336  0.5645 -0.0379  0.2420
  272MOL0     H35839   3.146   3.224   3.002  4.0989  4.1732  1.0643
  272MOL0     H35840   3.077   3.243   2.776 -0.4492  0.1106  2.2742
  272MOL0     H35841   3.129   3.335   2.571  3.7651  0.3258  0.1708
  272MOL0     H35842   3.076   3.271   2.428  0.9817 -0.1776 -0.9029
  272MOL0     H35843   3.321   3.249   2.338 -2.1158 -1.8919 -0.4101
  272MOL0     H35844   3.368   3.339   2.481 -0.5888 -0.6343  0.4655
  272MOL0     H35845   3.235   3.528   2.425  3.0157  2.3356 -1.5052
  272MOL0     H35846   3.173   3.459   2.289  1.3458  1.9894 -1.6253
  272MOL0     H35847   3.482   3.498   2.310  1.2270 -2.8710 -0.5207
  272MOL0     H35848   3.369   3.474   2.163  0.6915  3.0443 -0.9644
  272MOL0     H35849   3.324   3.688   2.355 -1.6588 -0.8264  0.7528
  272MOL0     H35850   3.270   3.687   2.184  0.2231 -0.1903  0.5373
  272MOL0     H35851   3.552   3.728   2.288 -0.9451  2.3936  2.6914
  272MOL0     H35852   3.433   3.850   2.232 -4.5875 -1.7411 -0.0090
  272MOL0     H35853   3.574   3.616   2.102  0.2052  1.1624  1.5049
  272MOL0     H35854   3.430   3.695   2.020  1.1360 -1.0352 -1.9161
  272MOL0     H35855   3.619   3.776   1.929  1.9387 -1.1981  0.6519
  272MOL0     H35856   3.686   3.821   2.090 -0.8022 -0.1385  0.2327
  272MOL0     H35857   3.405   3.918   1.852 -0.9260 -0.4784  2.6453
  272MOL0     H35858   3.423   4.265   1.765  0.9663 -0.3340 -0.3173
  272MOL0     H35859   3.303   4.279   1.890  0.1145 -0.7010 -1.1734
  272MOL0     H35860   3.175   4.079   1.805  1.4538  1.9070  1.4581
  272MOL0     H35861   3.296   4.053   1.680  1.6276 -1.7554  1.9415
  272MOL0     H35862   3.242   4.269   1.574 -3.3305 -0.9194 -3.8815
  272MOL0     H35863   3.101   4.164   1.592 -0.4511 -1.4904  2.9881
  272MOL0     H35864   3.030   4.379   1.644 -1.9853 -1.0347 -0.1507
  272MOL0     H35865   3.155   4.421   1.766 -0.0208 -1.0840  1.6612
  272MOL0     H35866   2.767   4.228   1.819  1.0596  0.0173 -2.2902
  272MOL0     H35867   2.577   4.384   1.844 -0.7631  2.1157 -0.8859
  272MOL0     H35868   2.337   4.503   2.152  0.5211 -0.4136 -2.0164
  272MOL0     H35869   2.199   4.630   2.295 -1.4508 -2.7555 -0.6754
  272MOL0     H35870   1.913   4.981   2.204 -0.1385 -2.4494  1.0498
  272MOL0     H35871   2.072   5.030   2.145  2.7201 -2.3746  1.5694
  272MOL0     H35872   2.138   5.107   2.353 -0.5747  3.1637 -0.8379
  272MOL0     H35873   2.023   5.006   2.443  2.0987  0.1783  0.1309
  272MOL0     H35874   1.828   5.125   2.338 -0.4200 -0.1076  1.8722
  272MOL0     H35875   1.947   5.214   2.240  1.5303 -0.5059  0.0730
  272MOL0     H35876   1.959   5.266   2.543 -0.0378  0.7392  0.2515
  272MOL0     H35877   2.018   5.353   2.405  2.1682 -1.7813  0.9491
  272MOL0     H35878   1.801   5.434   2.538  0.7960  1.0457 -0.4806
  272MOL0     H35879   1.712   5.319   2.439 -1.7798  3.0763 -1.4736
  272MOL0     H35880   1.769   5.415   2.249  0.3515 -0.7298  0.8880
  272MOL0     H35881   1.900   5.523   2.307 -0.2064  0.3960 -0.6459
  272MOL0     H35882   1.598   5.526   2.367 -0.4988  0.0310 -1.0256
  272MOL0     H35883   1.705   5.620   2.457  1.3399  0.6837 -0.2564
  272MOL0     H35884   1.678   5.643   2.152 -2.0152 -3.1380  1.0390
  272MOL0     H35885   1.769   5.759   2.256 -0.8531  0.6231  2.5905
  272MOL0     H35886   2.190   4.935   1.985  1.5892  2.6576  3.3533
  272MOL0     H35887   2.342   4.802   1.852 -0.0156 -1.2514 -1.1976
  272MOL0     H35888   2.832   4.686   1.977  0.9632  1.1463 -2.3668
  272MOL0     H35889   3.035   4.547   1.925 -0.4834  0.6046  2.3552
  272MOL0     H35890   3.427   3.049   2.617 -2.4302  1.2320 -1.4356
  272MOL0     H35891   3.525   3.061   2.847  0.2346  0.4916 -1.7366
  272MOL0     H35892   3.592   2.845   3.259 -2.3643  0.3896 -2.8507
  272MOL0     H35893   3.700   2.863   3.447 -1.4225  0.1021  1.9824
  272MOL0     H35894   3.886   3.028   3.590 -0.1493 -1.4639  0.7919
  272MOL0     H35895   3.764   2.929   3.680  1.9364 -2.5087 -3.8479
  272MOL0     H35896   3.922   3.029   3.835 -0.7000 -1.8147 -3.0578
  272MOL0     H35897   3.852   3.189   3.813 -1.7876  0.5831  0.6139
  272MOL0     H35898   3.749   2.943   3.938  4.2084  2.3429  1.5141
  272MOL0     H35899   3.619   3.032   3.851 -0.8344 -0.3007 -0.6813
  272MOL0     H35900   3.697   3.230   3.976  2.2982 -0.1116 -1.4080
  272MOL0     H35901   3.610   3.116   4.076  0.0237  1.6059 -0.0411
  272MOL0     H35902   3.990   3.162   4.253 -1.1359  0.0095  0.3310
  272MOL0     H35903   3.564   3.267   3.497  0.6340  0.9200 -1.6578
  272MOL0     H35904   3.404   3.227   3.310 -0.0287 -0.6318  0.0920
  273MOL0     O35905   1.833   6.580   4.751 -0.4640 -0.1856 -0.2061
  273MOL0     C35906   1.824   6.496   4.664  0.4073 -0.3107  1.0245
  273MOL0     O35907   1.741   6.503   4.558 -0.5691  0.0830  0.2749
  273MOL0     C35908   1.705   6.618   4.493  0.9581  1.0154 -1.1740
  273MOL0     C35909   1.594   6.610   4.413  0.1940 -0.8289 -0.0823
  273MOL0     C35910   1.554   6.716   4.334 -0.0471  1.0491 -0.5682
  273MOL0     C35911   1.620   6.841   4.348  0.0204 -0.2476 -0.2351
  273MOL0     O35912   1.590   6.959   4.281  0.4003  0.3222  0.3867
  273MOL0     C35913   1.477   6.974   4.187  0.0244  0.3309 -0.4013
  273MOL0     C35914   1.459   7.121   4.151  0.2157 -0.2533 -0.1244
  273MOL0     C35915   1.319   7.129   4.085  0.2778  1.2443 -0.7431
  273MOL0     C35916   1.215   7.167   4.198  0.5654 -0.4183  0.1001
  273MOL0     C35917   1.070   7.172   4.136  0.3034  0.0718  0.1565
  273MOL0     C35918   0.984   7.260   4.228  0.8104  0.4988  0.0116
  273MOL0     C35919   0.849   7.302   4.162  0.5349 -0.1219  0.5526
  273MOL0     C35920   0.765   7.177   4.116  0.4482 -0.2375 -0.6057
  273MOL0     N35921   0.630   7.221   4.062  0.1770 -0.5312  0.1227
  273MOL0     C35922   0.591   7.348   4.007 -0.1608  0.7005  0.0747
  273MOL0     C35923   0.455   7.346   4.008  0.9616 -0.4144  0.9209
  273MOL0     C35924   0.361   7.460   3.979 -0.7517 -0.4018  0.1457
  273MOL0     C35925   0.351   7.552   4.102 -0.3429  0.4944 -0.0642
  273MOL0     C35926   0.309   7.696   4.063  0.5743  0.6679  0.3209
  273MOL0     C35927   0.292   7.784   4.187 -1.1367  0.5568  0.2259
  273MOL0     O35928   0.231   7.906   4.137  0.5181 -0.7742 -0.4238
  273MOL0     C35929   0.301   8.027   4.126 -0.4625  0.4033 -0.5210
  273MOL0     C35930   0.413   8.065   4.200 -0.7901 -0.2353  0.6966
  273MOL0     C35931   0.478   8.193   4.174  0.9539  0.3846  1.0432
  273MOL0     C35932   0.425   8.283   4.082 -0.6401  0.0573  0.1713
  273MOL0     C35933   0.486   8.421   4.064 -0.7978  0.2581  0.5884
  273MOL0     O35934   0.416   8.504   3.992  0.0424  0.6980  0.9583
  273MOL0     C35935   0.480   8.617   3.947 -0.1975 -0.4572  1.1005
  273MOL0     C35936   0.450   8.745   3.992 -0.5515 -0.3275  0.3687
  273MOL0     C35937   0.505   8.857   3.931  0.3757 -0.5220 -0.3577
  273MOL0     C35938   0.598   8.844   3.827 -1.1678 -0.5410 -0.5072
  273MOL0     O35939   0.668   8.951   3.795 -0.0877  0.5565 -0.5232
  273MOL0     C35940   0.813   8.931   3.785 -0.3713  0.3133  0.0209
  273MOL0     C35941   0.891   9.059   3.751 -0.0456 -0.2878 -0.2217
  273MOL0     C35942   0.879   9.156   3.864  0.6260 -0.3830 -0.0648
  273MOL0     C35943   0.947   9.286   3.834  0.2302 -0.2031  0.8611
  273MOL0     C35944   0.892   9.404   3.898  0.7554 -0.5066 -1.1229
  273MOL0     C35945   1.006   9.500   3.906 -0.4376 -0.3397 -0.4843
  273MOL0     C35946   0.963   9.620   3.993  0.2448 -0.7153 -0.0630
  273MOL0     C35947   1.084   9.703   4.057  0.6712  0.6514 -0.2377
  273MOL0    Cl35948   1.172   9.775   3.913 -0.2998 -0.0730  0.0559
  273MOL0     C35949   0.626   8.715   3.769  0.1300 -0.0925  0.2937
  273MOL0     C35950   0.560   8.609   3.835 -0.0046  0.0275 -0.1732
  273MOL0     O35951   0.611   8.438   4.109  0.2242  0.3486  0.7955
  273MOL0     C35952   0.318   8.236   4.010 -0.3632  0.1069 -0.1524
  273MOL0     C35953   0.258   8.120   4.028  0.1116  0.0507 -0.1557
  273MOL0     N35954   0.412   7.223   4.047 -1.5206  0.4561 -0.1160
  273MOL0     N35955   0.516   7.146   4.072 -0.4657 -0.1034  0.3390
  273MOL0     C35956   1.733   6.845   4.427  0.2894 -0.9573  0.6190
  273MOL0     C35957   1.774   6.736   4.496 -0.2666 -0.4311  0.1174
  273MOL0     C35958   1.889   6.355   4.684  0.3551 -0.4800  0.4471
  273MOL0     C35959   1.842   6.241   4.606  0.1258  0.2385  0.0350
  273MOL0     C35960   1.899   6.116   4.635  0.8592  0.0909 -0.8960
  273MOL0     C35961   2.000   6.105   4.738 -0.4616  0.1334  0.3917
  273MOL0     O35962   2.062   5.991   4.784  0.1939  0.7692  0.0957
  273MOL0     C35963   1.998   5.865   4.756 -0.1730  0.6073  0.2795
  273MOL0     C35964   2.074   5.756   4.833 -0.1863 -0.6726 -0.2209
  273MOL0     C35965   2.025   5.608   4.802  0.2054  0.4593 -0.6761
  273MOL0     C35966   1.879   5.581   4.827  1.0107 -0.1903 -0.0515
  273MOL0     C35967   1.835   5.602   4.963  0.3053 -0.5913 -0.9576
  273MOL0     C35968   1.828   5.617   5.083  0.7988  0.8667  0.0101
  273MOL0     C35969   2.053   6.218   4.799  0.5633  0.1274 -1.1183
  273MOL0     C35970   2.004   6.344   4.767  0.1577 -0.7708  0.5446
  273MOL0     H35971   1.554   6.511   4.390 -3.9377  0.3880  1.0016
  273MOL0     H35972   1.474   6.691   4.265  0.9387  1.7012 -1.9852
  273MOL0     H35973   1.391   6.933   4.241 -0.6572 -0.2641 -1.8806
  273MOL0     H35974   1.493   6.911   4.099  1.4258 -1.3476  0.9764
  273MOL0     H35975   1.538   7.147   4.080  3.0754 -0.3689  2.8205
  273MOL0     H35976   1.458   7.190   4.236  1.1690 -0.1406 -0.1931
  273MOL0     H35977   1.297   7.034   4.037  3.6730  1.4056 -2.9581
  273MOL0     H35978   1.309   7.208   4.010 -1.6638  0.3745 -1.4683
  273MOL0     H35979   1.229   7.094   4.278  1.7402 -0.4403 -0.1084
  273MOL0     H35980   1.238   7.264   4.245  1.6713 -0.8399  0.4511
  273MOL0     H35981   1.037   7.068   4.134  1.2723 -0.2384 -0.0463
  273MOL0     H35982   1.073   7.209   4.033  1.1451 -2.7060 -0.8975
  273MOL0     H35983   1.036   7.350   4.263  2.9544 -1.3989  2.0991
  273MOL0     H35984   0.957   7.203   4.318 -2.2215  1.6929 -0.0378
  273MOL0     H35985   0.785   7.369   4.220 -0.1753  0.1887 -0.5426
  273MOL0     H35986   0.870   7.364   4.075 -0.7855  0.0500  0.3358
  273MOL0     H35987   0.756   7.117   4.208 -1.9726  0.7225 -0.1278
  273MOL0     H35988   0.816   7.114   4.043 -0.9787 -1.8181 -0.3144
  273MOL0     H35989   0.656   7.435   4.006  1.5243 -0.4806  1.6228
  273MOL0     H35990   0.263   7.425   3.946 -1.9805  4.0079 -1.6600
  273MOL0     H35991   0.400   7.519   3.896 -0.1532  2.4551  2.2829
  273MOL0     H35992   0.447   7.572   4.150 -0.1076  2.4364 -1.2207
  273MOL0     H35993   0.276   7.499   4.162  0.4644  1.3208  1.7293
  273MOL0     H35994   0.381   7.742   3.995 -1.6706  0.5566 -2.3051
  273MOL0     H35995   0.217   7.675   4.008  2.5528 -1.9727 -2.3222
  273MOL0     H35996   0.388   7.802   4.236 -0.9997  0.5177 -0.0294
  273MOL0     H35997   0.228   7.727   4.256 -0.6813 -1.9435 -1.2787
  273MOL0     H35998   0.446   8.012   4.289 -2.0559 -1.5880  0.3985
  273MOL0     H35999   0.558   8.222   4.242  0.8404 -0.4348  1.5445
  273MOL0     H36000   0.386   8.755   4.080 -0.8148 -2.1363  0.4204
  273MOL0     H36001   0.483   8.953   3.977  2.2903  0.3138 -1.0644
  273MOL0     H36002   0.816   8.859   3.703 -5.7649  1.2342 -1.4351
  273MOL0     H36003   0.849   8.913   3.886  1.2556  2.3306 -0.1397
  273MOL0     H36004   0.841   9.112   3.669  2.3943 -2.9487 -3.6982
  273MOL0     H36005   0.994   9.036   3.724  0.8008  2.3591  0.4723
  273MOL0     H36006   0.917   9.113   3.957 -0.2552 -1.0612 -0.0021
  273MOL0     H36007   0.774   9.180   3.881  0.9472  0.9709  0.1507
  273MOL0     H36008   1.050   9.268   3.867  0.6501 -0.4625 -0.5282
  273MOL0     H36009   0.962   9.299   3.726 -0.9310 -5.0291 -0.1012
  273MOL0     H36010   0.856   9.375   3.997  2.5498 -1.0633 -0.6001
  273MOL0     H36011   0.800   9.436   3.847 -2.1013 -3.1576  1.9229
  273MOL0     H36012   1.038   9.537   3.808 -0.4505 -0.8497 -0.6842
  273MOL0     H36013   1.097   9.462   3.953 -0.7564  1.7912  2.0817
  273MOL0     H36014   0.907   9.693   3.934 -0.6463  1.8735  3.5656
  273MOL0     H36015   0.885   9.592   4.065  1.1506 -0.1449  1.1863
  273MOL0     H36016   1.152   9.647   4.122 -0.0056  0.8109  0.6273
  273MOL0     H36017   1.037   9.787   4.109 -0.3564 -0.0700  0.0449
  273MOL0     H36018   0.686   8.693   3.681  1.4862  0.8847  0.9191
  273MOL0     H36019   0.598   8.518   3.789  3.0001  2.3347 -2.7794
  273MOL0     H36020   0.273   8.305   3.939 -1.2285  2.5325  2.5091
  273MOL0     H36021   0.176   8.096   3.962  1.7539 -1.3725 -1.7757
  273MOL0     H36022   1.783   6.939   4.445  1.9393 -1.3831 -1.4424
  273MOL0     H36023   1.855   6.752   4.567 -0.8689  0.0883  0.6949
  273MOL0     H36024   1.763   6.241   4.531  1.5141 -0.8462 -1.4854
  273MOL0     H36025   1.869   6.022   4.588 -1.5132 -0.1219  0.8572
  273MOL0     H36026   2.012   5.843   4.650 -1.3416  0.0812  0.2209
  273MOL0     H36027   1.892   5.869   4.783 -0.0376  0.8150  0.7944
  273MOL0     H36028   2.177   5.775   4.803 -0.3692 -1.8258 -1.6504
  273MOL0     H36029   2.059   5.778   4.940 -0.9061  1.4800 -0.6993
  273MOL0     H36030   2.075   5.537   4.868  1.6665  0.0776 -2.1280
  273MOL0     H36031   2.055   5.575   4.702 -0.2047  0.2597 -0.7335
  273MOL0     H36032   1.827   5.647   4.756 -0.9446 -0.9912  0.5797
  273MOL0     H36033   1.867   5.476   4.800  0.1769  0.6423 -3.5328
  273MOL0     H36034   1.815   5.625   5.189 -0.7911 -5.2537  0.6212
  273MOL0     H36035   2.116   6.200   4.886 -5.8734  0.4277  4.4290
  273MOL0     H36036   2.051   6.426   4.821 -0.8586 -1.9313  3.3514
  274MOL0     O36037   0.036   0.729   2.516 -0.0371 -0.5381  0.0041
  274MOL0     C36038   0.055   0.838   2.454 -0.1745  0.3415 -0.9217
  274MOL0     O36039   0.173   0.895   2.428  0.1052 -0.5171 -0.2290
  274MOL0     C36040   0.274   0.842   2.498  0.8315 -0.5123  1.6415
  274MOL0     C36041   0.377   0.761   2.433  0.2263 -0.3681 -0.4066
  274MOL0     C36042   0.473   0.701   2.512 -0.6342 -0.2845 -0.2070
  274MOL0     C36043   0.480   0.723   2.651 -0.3474  0.0773  0.8096
  274MOL0     O36044   0.585   0.686   2.729  0.0986 -0.4495  0.0392
  274MOL0     C36045   0.682   0.791   2.765 -0.3746  0.1683 -0.2390
  274MOL0     C36046   0.774   0.734   2.879 -0.0446  0.4057 -0.1387
  274MOL0     C36047   0.686   0.711   3.011 -0.1895 -0.5024  0.4936
  274MOL0     C36048   0.607   0.835   3.075 -0.2883  0.1039  1.1739
  274MOL0     C36049   0.609   0.836   3.231 -0.0056 -0.7112  0.8413
  274MOL0     C36050   0.744   0.898   3.287  0.0959 -0.4425 -0.0379
  274MOL0     C36051   0.767   0.909   3.434 -0.6926  0.5355 -0.4877
  274MOL0     C36052   0.898   0.970   3.485 -0.0078 -0.2448  0.2232
  274MOL0     N36053   0.916   0.996   3.630  0.1423  0.6084  0.7050
  274MOL0     C36054   0.927   1.119   3.695  0.4757 -0.7923 -0.6400
  274MOL0     C36055   0.905   1.096   3.827  0.4833  0.6716  0.5836
  274MOL0     C36056   0.888   1.197   3.933  0.3752  0.4275 -0.1355
  274MOL0     C36057   0.744   1.248   3.936  0.4619 -0.0325 -0.9234
  274MOL0     C36058   0.656   1.147   4.007  0.7354 -0.7640  0.6992
  274MOL0     C36059   0.512   1.195   4.006  0.3034 -1.2638 -1.1310
  274MOL0     O36060   0.442   1.118   4.104  0.1129 -0.0738 -0.0444
  274MOL0     C36061   0.346   1.191   4.173  0.1392 -0.7804  0.0033
  274MOL0     C36062   0.364   1.224   4.309 -0.6464  1.0648 -0.6230
  274MOL0     C36063   0.262   1.285   4.390 -0.3307  0.2326  0.1927
  274MOL0     C36064   0.156   1.342   4.313  0.0489 -0.4690  0.0288
  274MOL0     C36065   0.051   1.422   4.386 -0.1006  0.1497  0.4527
  274MOL0     O36066   0.065   1.429   4.526  0.1271  0.1479  0.3090
  274MOL0     C36067  -0.001   1.538   4.580  0.4045  0.5359 -0.2657
  274MOL0     C36068  -0.123   1.515   4.644 -1.0394 -0.0880 -0.6085
  274MOL0     C36069  -0.196   1.625   4.686  0.4556  0.0464  0.7157
  274MOL0     C36070  -0.150   1.759   4.675  1.2958  0.1787 -0.4811
  274MOL0     O36071  -0.220   1.860   4.727  0.3408  0.6895 -1.0343
  274MOL0     C36072  -0.152   1.946   4.818 -0.8943  0.1502 -0.1226
  274MOL0     C36073  -0.238   1.976   4.944  0.1624  0.4295  0.2021
  274MOL0     C36074  -0.151   2.021   5.072  1.2820  0.2363  0.0648
  274MOL0     C36075  -0.061   1.914   5.138 -0.0040  0.3303  0.0576
  274MOL0     C36076  -0.031   1.939   5.282 -0.6005 -0.2448 -0.0954
  274MOL0     C36077   0.104   2.018   5.280  1.2986 -0.1233  0.4027
  274MOL0     C36078   0.167   2.057   5.421  0.5595  0.2596 -0.1511
  274MOL0     C36079   0.074   2.148   5.511  0.3223  0.2662  0.3075
  274MOL0    Cl36080   0.121   2.143   5.681  0.0289 -0.2132  0.2532
  274MOL0     C36081  -0.025   1.777   4.622 -1.4310  0.2304  0.1830
  274MOL0     C36082   0.044   1.669   4.573 -0.5986 -0.0968  0.7539
  274MOL0     O36083  -0.042   1.474   4.322  0.1674 -0.7038 -0.5874
  274MOL0     C36084   0.137   1.319   4.175 -0.5849 -0.3924 -0.1044
  274MOL0     C36085   0.223   1.237   4.115  0.3583  0.1097 -0.0219
  274MOL0     N36086   0.897   0.959   3.836  0.2662  0.0418 -1.4370
  274MOL0     N36087   0.918   0.897   3.724 -0.6845 -0.2083  0.9474
  274MOL0     C36088   0.389   0.806   2.712  0.1087 -1.3227 -0.3562
  274MOL0     C36089   0.286   0.862   2.638  0.4587 -0.5380  0.2218
  274MOL0     C36090  -0.066   0.896   2.401  1.0041  0.3644 -0.7900
  274MOL0     C36091  -0.188   0.826   2.393 -0.8256  0.3171 -0.2527
  274MOL0     C36092  -0.310   0.891   2.363  0.4841  0.4715 -0.1702
  274MOL0     C36093  -0.301   1.030   2.320 -0.4036  1.0173  0.8043
  274MOL0     O36094  -0.421   1.083   2.266  0.1512  0.0615  0.4453
  274MOL0     C36095  -0.435   1.232   2.257 -0.0749  0.8873 -0.8659
  274MOL0     C36096  -0.579   1.270   2.243 -0.4793  0.3408  0.0546
  274MOL0     C36097  -0.638   1.244   2.102  0.2677 -0.0767 -0.5466
  274MOL0     C36098  -0.683   1.110   2.076  0.2739 -0.2961 -0.3353
  274MOL0     C36099  -0.743   1.102   1.947 -0.1743 -0.1002 -0.3649
  274MOL0     C36100  -0.780   1.077   1.839 -0.6686 -0.6523 -0.5230
  274MOL0     C36101  -0.177   1.096   2.321 -0.3060 -0.2120 -0.2688
  274MOL0     C36102  -0.069   1.030   2.379 -1.0421 -0.5117  0.3842
  274MOL0     H36103   0.369   0.751   2.325 -3.4201 -0.0445 -0.3077
  274MOL0     H36104   0.564   0.653   2.478 -0.2550 -0.6260  1.2333
  274MOL0     H36105   0.640   0.883   2.807 -3.0419 -0.9840 -0.2377
  274MOL0     H36106   0.744   0.820   2.679 -1.5237 -1.7219 -1.7868
  274MOL0     H36107   0.862   0.792   2.907 -0.4516  0.3201  1.4524
  274MOL0     H36108   0.818   0.639   2.850  1.2047  1.2758 -1.1544
  274MOL0     H36109   0.763   0.680   3.083  0.9567  0.0997 -0.4303
  274MOL0     H36110   0.610   0.633   3.003  1.1594 -1.7789 -0.5644
  274MOL0     H36111   0.637   0.935   3.042 -1.3464 -0.0360 -0.2647
  274MOL0     H36112   0.502   0.847   3.048 -0.2067  1.5143  1.3927
  274MOL0     H36113   0.597   0.733   3.265  1.3877 -1.5356 -1.0054
  274MOL0     H36114   0.525   0.901   3.257 -0.4324 -1.8356  2.4069
  274MOL0     H36115   0.767   0.999   3.251  2.9132 -0.5240  1.2970
  274MOL0     H36116   0.826   0.843   3.240 -0.1616 -2.3200  1.5872
  274MOL0     H36117   0.685   0.979   3.455 -0.0525  2.1368 -2.9482
  274MOL0     H36118   0.754   0.814   3.487  1.9364  0.9206  1.0097
  274MOL0     H36119   0.917   1.065   3.433  0.6117  0.0029  0.8898
  274MOL0     H36120   0.978   0.903   3.452 -1.0117 -0.8340 -1.1414
  274MOL0     H36121   0.939   1.217   3.649  2.9414 -0.5988  0.2527
  274MOL0     H36122   0.957   1.280   3.917 -0.7782  1.5428  0.4988
  274MOL0     H36123   0.917   1.153   4.029 -0.9626  1.1061  0.6229
  274MOL0     H36124   0.718   1.266   3.831 -0.2444 -3.8737 -1.5621
  274MOL0     H36125   0.744   1.342   3.990 -3.3557 -0.7040  0.5396
  274MOL0     H36126   0.663   1.056   3.947 -2.1562  0.9468 -2.5919
  274MOL0     H36127   0.695   1.124   4.107 -0.7619 -2.3962  0.9510
  274MOL0     H36128   0.457   1.188   3.911 -1.6423  1.5043 -0.3580
  274MOL0     H36129   0.514   1.302   4.030  1.4581 -1.1754 -1.5444
  274MOL0     H36130   0.453   1.185   4.355 -2.0908 -0.1545  1.2709
  274MOL0     H36131   0.286   1.315   4.491  4.9760  0.0862 -0.7373
  274MOL0     H36132  -0.159   1.415   4.663 -4.1249  1.0034 -0.1997
  274MOL0     H36133  -0.298   1.628   4.723  0.3205  3.5620  0.4464
  274MOL0     H36134  -0.136   2.041   4.766 -0.6088  0.1981  0.0520
  274MOL0     H36135  -0.060   1.900   4.853 -1.5147 -1.5475 -0.5950
  274MOL0     H36136  -0.276   1.876   4.970  3.0846 -0.7700  0.2417
  274MOL0     H36137  -0.321   2.039   4.913  1.1733  1.9953  0.5425
  274MOL0     H36138  -0.228   2.043   5.146  2.7682  1.2399  1.3874
  274MOL0     H36139  -0.096   2.114   5.051  1.2003  0.2609 -0.0425
  274MOL0     H36140  -0.124   1.826   5.147  2.4673 -1.2946  3.8857
  274MOL0     H36141   0.023   1.884   5.076  0.3465  0.1572  0.6062
  274MOL0     H36142  -0.004   1.843   5.328  0.2529 -1.7972 -3.5137
  274MOL0     H36143  -0.106   1.990   5.343  1.4302  1.7892  0.8745
  274MOL0     H36144   0.090   2.107   5.217  1.4158 -0.0313  0.5058
  274MOL0     H36145   0.170   1.943   5.236  3.7034  0.4986  2.7403
  274MOL0     H36146   0.178   1.958   5.465 -2.9926 -0.8362 -1.3929
  274MOL0     H36147   0.269   2.097   5.415  1.0089 -0.9079 -0.5556
  274MOL0     H36148  -0.028   2.107   5.501  1.1156 -3.0368  3.4546
  274MOL0     H36149   0.078   2.252   5.478 -2.3294  0.0351 -1.0170
  274MOL0     H36150   0.015   1.877   4.612  0.9324 -0.7036 -0.3983
  274MOL0     H36151   0.137   1.690   4.520 -0.6076  0.0769  0.8053
  274MOL0     H36152   0.054   1.368   4.125  1.7762  0.6369 -3.2896
  274MOL0     H36153   0.206   1.218   4.010 -0.0418  1.4692 -0.2170
  274MOL0     H36154   0.399   0.840   2.815  1.8920  3.4490 -1.8187
  274MOL0     H36155   0.210   0.921   2.689  1.5012 -0.8690  2.2516
  274MOL0     H36156  -0.197   0.718   2.401  0.4284  0.2993  1.6955
  274MOL0     H36157  -0.411   0.851   2.363  0.6662 -0.0277  0.8948
  274MOL0     H36158  -0.380   1.263   2.168 -1.0564 -1.5524 -2.4410
  274MOL0     H36159  -0.385   1.277   2.343  1.7913  1.1471 -2.0255
  274MOL0     H36160  -0.625   1.223   2.331  0.5972 -2.0233 -0.5734
  274MOL0     H36161  -0.589   1.377   2.266  0.3580  0.4153  0.1167
  274MOL0     H36162  -0.571   1.280   2.023  0.6255 -0.1237 -0.2693
  274MOL0     H36163  -0.738   1.289   2.099 -0.6844 -1.9179  0.9317
  274MOL0     H36164  -0.593   1.048   2.082  1.3604  1.1771 -0.9028
  274MOL0     H36165  -0.762   1.070   2.140 -0.2522 -0.3160 -0.9866
  274MOL0     H36166  -0.814   1.073   1.737  0.2798 -1.7042 -0.8200
  274MOL0     H36167  -0.183   1.201   2.293 -1.3712  0.1646  1.1894
  274MOL0     H36168   0.026   1.077   2.402  1.6846 -5.8464  1.8954
  275MOL0     O36169   0.830   3.660  10.862 -0.4417  0.0252  0.1526
  275MOL0     C36170   0.900   3.568  10.822 -1.1574  1.2938  0.2885
  275MOL0     O36171   1.023   3.524  10.877  0.0626 -0.4661 -0.2770
  275MOL0     C36172   1.072   3.591  10.978  0.6744 -1.1795  0.7839
  275MOL0     C36173   1.015   3.621  11.101  0.5575 -0.3361  0.3960
  275MOL0     C36174   1.095   3.684  11.199  0.2839 -0.1633  0.1587
  275MOL0     C36175   1.225   3.718  11.181  0.8363 -0.8175 -0.0888
  275MOL0     O36176   1.289   3.786  11.280  0.0625  0.3655  0.5104
  275MOL0     C36177   1.262   3.757  11.419 -0.1812  0.0081  0.6278
  275MOL0     C36178   1.354   3.838  11.507 -0.0999 -0.1786 -0.6181
  275MOL0     C36179   1.349   3.791  11.651 -1.0141 -0.6067  0.4264
  275MOL0     C36180   1.238   3.867  11.728 -0.0337  0.5795  0.9239
  275MOL0     C36181   1.220   3.825  11.873 -0.4154  0.6184  0.8199
  275MOL0     C36182   1.098   3.879  11.944 -0.4498  0.7964  0.6125
  275MOL0     C36183   1.095   4.028  11.939 -1.2249  0.3534 -0.6312
  275MOL0     C36184   1.218   4.109  12.006 -0.6141  0.9408 -0.7529
  275MOL0     N36185   1.222   4.118  12.156  0.4804  0.2682  0.4168
  275MOL0     C36186   1.339   4.156  12.215 -0.1099 -0.3269  0.8259
  275MOL0     C36187   1.306   4.135  12.347 -0.1175 -0.5519  0.4309
  275MOL0     C36188   1.392   4.137  12.474  0.6284 -0.0894  0.0890
  275MOL0     C36189   1.404   4.286  12.521  0.7340  1.3137 -0.6092
  275MOL0     C36190   1.470   4.379  12.418 -0.4985  0.0335 -0.9744
  275MOL0     C36191   1.454   4.524  12.464  0.2312 -0.3792  0.5195
  275MOL0     O36192   1.317   4.569  12.469  0.2889  0.5506  0.7843
  275MOL0     C36193   1.251   4.563  12.351 -0.0806  0.2119  0.1423
  275MOL0     C36194   1.156   4.454  12.319  0.1118 -1.4277  0.2424
  275MOL0     C36195   1.108   4.451  12.188 -0.9040 -0.4354 -0.0671
  275MOL0     C36196   1.154   4.540  12.089  0.3668  0.4684 -1.3163
  275MOL0     C36197   1.082   4.530  11.963  1.1222 -0.0556 -0.1063
  275MOL0     O36198   0.990   4.435  11.947 -0.4926 -0.3001  0.6606
  275MOL0     C36199   0.901   4.435  11.839 -0.2721  0.1152  0.4315
  275MOL0     C36200   0.877   4.312  11.777  1.2948  0.6423  0.1685
  275MOL0     C36201   0.767   4.291  11.685  0.0605  0.5061  0.7624
  275MOL0     C36202   0.679   4.399  11.647  0.5578  0.1778 -0.4153
  275MOL0     O36203   0.590   4.391  11.549  0.2202 -0.0815 -0.1620
  275MOL0     C36204   0.453   4.365  11.586  0.4674 -0.1099 -0.7949
  275MOL0     C36205   0.420   4.218  11.589  0.0070  0.7188 -0.5305
  275MOL0     C36206   0.290   4.177  11.639  0.4459 -0.2829  0.0206
  275MOL0     C36207   0.293   4.030  11.676  1.1313 -1.0508 -1.0941
  275MOL0     C36208   0.150   3.975  11.713 -0.3146 -0.0400  0.4172
  275MOL0     C36209   0.076   3.924  11.587  0.8998  0.5341  0.4334
  275MOL0     C36210  -0.067   3.969  11.578  0.2160 -0.3143  0.3469
  275MOL0     C36211  -0.121   3.973  11.436  0.5307  0.6239  0.0865
  275MOL0    Cl36212  -0.108   3.814  11.356  0.3796 -0.2673  0.5066
  275MOL0     C36213   0.712   4.523  11.701 -0.1624  1.6566 -0.0184
  275MOL0     C36214   0.816   4.539  11.793  0.3532 -0.0787  0.2616
  275MOL0     O36215   1.120   4.613  11.880 -0.2416 -0.2409 -0.0397
  275MOL0     C36216   1.229   4.645  12.130  0.2106  0.1578 -0.0456
  275MOL0     C36217   1.281   4.654  12.252 -0.6669 -0.2929 -1.2164
  275MOL0     N36218   1.170   4.092  12.369 -0.5058 -0.6827 -0.2797
  275MOL0     N36219   1.125   4.084  12.247 -0.2811  0.4109  0.3038
  275MOL0     C36220   1.282   3.682  11.059  0.1677 -0.4344  0.3410
  275MOL0     C36221   1.204   3.617  10.956  0.5918 -0.7261 -0.3506
  275MOL0     C36222   0.854   3.486  10.713  0.2096 -0.1983 -0.5453
  275MOL0     C36223   0.918   3.368  10.688 -0.4340 -0.3031  0.5412
  275MOL0     C36224   0.870   3.283  10.588  0.1263  0.2271  0.2111
  275MOL0     C36225   0.746   3.311  10.521 -0.2073 -0.5689  0.0270
  275MOL0     O36226   0.696   3.217  10.430 -0.6046  0.4437  0.3577
  275MOL0     C36227   0.594   3.269  10.344 -0.3826  0.7206  0.0742
  275MOL0     C36228   0.563   3.168  10.235  0.3832  0.4394 -0.9259
  275MOL0     C36229   0.474   3.225  10.127  0.7568  0.3034  0.4631
  275MOL0     C36230   0.518   3.233   9.986 -1.0319  0.2288 -0.2216
  275MOL0     C36231   0.663   3.260   9.969 -1.0871 -0.2390  0.1076
  275MOL0     C36232   0.782   3.280   9.945  0.7446 -0.2644  0.9223
  275MOL0     C36233   0.685   3.439  10.540 -0.0534  0.6155 -0.5066
  275MOL0     C36234   0.733   3.525  10.640  0.7523 -0.4607 -0.0018
  275MOL0     H36235   0.911   3.609  11.127  0.5525 -0.6032  0.2531
  275MOL0     H36236   1.043   3.716  11.289  1.2584  2.1303 -0.0347
  275MOL0     H36237   1.284   3.651  11.437 -0.3647 -0.1859 -0.2570
  275MOL0     H36238   1.160   3.778  11.454 -0.7740 -0.3205 -0.8168
  275MOL0     H36239   1.322   3.943  11.501  0.8726  0.1020 -1.1649
  275MOL0     H36240   1.459   3.835  11.477 -0.0939 -0.1698 -0.5978
  275MOL0     H36241   1.450   3.806  11.690 -1.0868  3.5080 -0.4952
  275MOL0     H36242   1.335   3.682  11.647 -0.3387 -0.6828 -0.2551
  275MOL0     H36243   1.281   3.967  11.734 -0.1659  0.6420  0.8360
  275MOL0     H36244   1.154   3.850  11.660  0.7496  0.6053 -0.0636
  275MOL0     H36245   1.306   3.844  11.938 -0.0906 -1.7509  1.2004
  275MOL0     H36246   1.199   3.717  11.880  2.0918 -0.0038 -0.2062
  275MOL0     H36247   1.099   3.851  12.049 -1.9860  0.0333  0.4448
  275MOL0     H36248   1.001   3.845  11.906 -0.4766  1.2822  0.2238
  275MOL0     H36249   1.076   4.069  11.839 -0.9027 -3.1553 -2.2556
  275MOL0     H36250   1.010   4.059  12.001  0.5739  0.7524  1.7925
  275MOL0     H36251   1.221   4.207  11.959 -0.9477  0.3844 -1.9556
  275MOL0     H36252   1.309   4.063  11.966 -0.3260  0.4917  0.3573
  275MOL0     H36253   1.431   4.204  12.185 -1.0916 -0.3094 -2.5625
  275MOL0     H36254   1.491   4.092  12.460  1.0189  0.3546  1.2991
  275MOL0     H36255   1.336   4.087  12.553  0.8405  2.7677  2.2375
  275MOL0     H36256   1.469   4.290  12.610  0.7022 -1.1574 -0.3892
  275MOL0     H36257   1.302   4.318  12.544  0.5354  0.5516 -0.3899
  275MOL0     H36258   1.577   4.356  12.418 -0.4911 -0.1607  0.9732
  275MOL0     H36259   1.444   4.386  12.312  1.7751  1.6595 -1.5070
  275MOL0     H36260   1.512   4.583  12.392  0.3993  1.0179  1.7428
  275MOL0     H36261   1.504   4.535  12.561  3.5880 -3.7234 -0.5784
  275MOL0     H36262   1.136   4.385  12.401 -2.4909  1.0739  1.9358
  275MOL0     H36263   1.044   4.370  12.154  1.7315 -2.6812 -0.0171
  275MOL0     H36264   0.928   4.223  11.812  1.5930  1.5270  2.1474
  275MOL0     H36265   0.744   4.199  11.631 -2.9697  2.3312 -1.3175
  275MOL0     H36266   0.381   4.401  11.512 -0.7279  0.0243  0.4019
  275MOL0     H36267   0.420   4.409  11.680 -3.9642  0.4356 -2.3333
  275MOL0     H36268   0.499   4.174  11.651  0.5254  1.4584 -0.6559
  275MOL0     H36269   0.436   4.178  11.488  1.1017  1.1924 -0.5565
  275MOL0     H36270   0.205   4.187  11.572 -0.4056  4.0908  1.4145
  275MOL0     H36271   0.276   4.232  11.733  1.0240  1.7437 -1.0248
  275MOL0     H36272   0.337   3.967  11.599 -0.8220 -4.2666  0.2190
  275MOL0     H36273   0.357   4.020  11.765 -1.5904  0.1645  1.1678
  275MOL0     H36274   0.092   4.052  11.766 -3.1157  1.4135 -4.1719
  275MOL0     H36275   0.147   3.893  11.785 -1.6947  1.1620  1.8208
  275MOL0     H36276   0.067   3.815  11.589 -3.9942  0.6413 -0.9067
  275MOL0     H36277   0.123   3.962  11.496  1.2878  0.1799  0.4848
  275MOL0     H36278  -0.131   3.916  11.649 -2.4739  1.6869 -0.3963
  275MOL0     H36279  -0.058   4.071  11.618  1.0574  0.7815 -2.3881
  275MOL0     H36280  -0.055   4.050  11.395  1.7054 -1.0775 -1.3825
  275MOL0     H36281  -0.221   4.016  11.427  0.1543 -0.6220 -2.8726
  275MOL0     H36282   0.641   4.602  11.677 -2.6898 -0.2989  0.5679
  275MOL0     H36283   0.824   4.628  11.855  2.6875  1.5926 -2.2231
  275MOL0     H36284   1.254   4.728  12.065 -0.9685  0.2682 -0.3896
  275MOL0     H36285   1.340   4.741  12.278 -0.5138 -1.0937  1.3960
  275MOL0     H36286   1.384   3.709  11.033 -0.9408  1.3206 -2.7153
  275MOL0     H36287   1.249   3.576  10.867 -2.2669  0.7562 -2.6317
  275MOL0     H36288   1.008   3.341  10.743 -0.0551  1.6281  0.9280
  275MOL0     H36289   0.937   3.198  10.577 -0.3905 -0.0751 -0.7570
  275MOL0     H36290   0.627   3.360  10.293 -1.8846 -0.0072 -2.3575
  275MOL0     H36291   0.506   3.310  10.396 -1.3739  0.5538 -1.4073
  275MOL0     H36292   0.644   3.125  10.175 -0.8602 -2.6148 -0.6266
  275MOL0     H36293   0.511   3.094  10.297 -0.2805  1.6958  0.0399
  275MOL0     H36294   0.432   3.325  10.146  1.3844  1.1826 -2.2537
  275MOL0     H36295   0.383   3.165  10.122  0.9070  0.1611 -1.1086
  275MOL0     H36296   0.513   3.134   9.940  1.1941 -0.6118  1.1359
  275MOL0     H36297   0.454   3.306   9.935 -0.7293  1.4929  1.1321
  275MOL0     H36298   0.881   3.300   9.909  0.3345  0.1352 -0.0216
  275MOL0     H36299   0.583   3.462  10.512 -0.7794  0.8405  2.0364
  275MOL0     H36300   0.681   3.617  10.666  1.1964  0.2558 -1.5135
  276MOL0     O36301  11.153   5.915   5.724  0.0347 -0.5281  0.2419
  276MOL0     C36302  11.242   5.946   5.645 -0.2350 -0.3631  0.0080
  276MOL0     O36303  11.349   5.866   5.600 -0.7286  0.0980  0.3515
  276MOL0     C36304  11.324   5.729   5.626  0.4727  0.3381  0.0816
  276MOL0     C36305  11.391   5.657   5.727  0.6506 -0.4307  0.5346
  276MOL0     C36306  11.357   5.524   5.760  0.5635  1.3237  0.5823
  276MOL0     C36307  11.266   5.451   5.689  0.0705 -0.1232  0.1546
  276MOL0     O36308  11.256   5.320   5.715  0.3415 -0.4454 -0.5214
  276MOL0     C36309  11.372   5.255   5.670 -0.3188  0.0833 -0.1249
  276MOL0     C36310  11.419   5.155   5.773 -0.2064 -0.8310  0.1058
  276MOL0     C36311  11.562   5.104   5.769 -0.6728 -0.4006  0.1282
  276MOL0     C36312  11.587   4.997   5.884 -0.7379 -0.0999 -0.6690
  276MOL0     C36313  11.692   4.895   5.835 -0.3658 -0.4873  0.4862
  276MOL0     C36314  11.728   4.806   5.948 -0.5460 -0.3569  0.1331
  276MOL0     C36315  11.851   4.711   5.928 -0.6559 -0.2293  0.0098
  276MOL0     C36316  11.904   4.648   6.056 -0.0873 -0.4238 -0.0476
  276MOL0     N36317  11.806   4.556   6.109 -0.7252  0.3439 -0.2580
  276MOL0     C36318  11.742   4.575   6.226 -0.4974  0.7600 -0.1204
  276MOL0     C36319  11.680   4.457   6.234  0.9638 -0.1238  0.2039
  276MOL0     C36320  11.602   4.406   6.363  0.4145 -0.2546 -0.5397
  276MOL0     C36321  11.531   4.273   6.354  0.1928 -0.2736  0.4332
  276MOL0     C36322  11.487   4.211   6.490 -0.0700 -1.0235 -0.2037
  276MOL0     C36323  11.421   4.088   6.460 -0.5578  0.1193 -0.3104
  276MOL0     O36324  11.306   4.095   6.377 -0.3323 -0.6655  0.1636
  276MOL0     C36325  11.214   3.994   6.372 -0.5737  0.2056 -0.4486
  276MOL0     C36326  11.225   3.878   6.440 -0.5116  0.0126  0.1247
  276MOL0     C36327  11.116   3.787   6.455 -0.1298 -0.8933  0.0436
  276MOL0     C36328  11.007   3.793   6.371 -0.2886 -0.9178  0.8215
  276MOL0     C36329  10.899   3.683   6.381 -0.8210 -0.1891  0.1395
  276MOL0     O36330  10.795   3.704   6.299 -0.1417 -0.1052 -0.4196
  276MOL0     C36331  10.703   3.604   6.284  0.3663 -0.3501  0.3236
  276MOL0     C36332  10.733   3.469   6.290 -0.0403  0.1053 -0.9791
  276MOL0     C36333  10.647   3.359   6.278  0.3564 -0.3046  0.6987
  276MOL0     C36334  10.520   3.383   6.257 -0.0921  0.2793 -0.2761
  276MOL0     O36335  10.433   3.276   6.266 -0.0257 -0.3750 -0.2257
  276MOL0     C36336  10.392   3.245   6.402 -1.1581 -0.1186 -0.4519
  276MOL0     C36337  10.324   3.109   6.415 -0.6992 -0.8659  1.4388
  276MOL0     C36338  10.409   3.003   6.343 -0.1253  0.1906 -0.0037
  276MOL0     C36339  10.362   2.866   6.400  0.0155  0.2935 -1.7724
  276MOL0     C36340  10.401   2.745   6.308  0.8961 -0.5918 -0.0249
  276MOL0     C36341  10.310   2.744   6.177 -0.7661 -0.2745 -0.6303
  276MOL0     C36342  10.290   2.603   6.108  0.7165  0.0038 -0.0921
  276MOL0     C36343  10.403   2.584   6.002 -0.2383 -0.2841  0.6225
  276MOL0    Cl36344  10.550   2.531   6.086 -0.3915  0.0612 -0.4435
  276MOL0     C36345  10.470   3.516   6.262 -1.0025  0.8141  0.1942
  276MOL0     C36346  10.562   3.623   6.283  0.2258  0.4318 -0.0299
  276MOL0     O36347  10.915   3.594   6.461 -0.8290 -0.9378 -0.2943
  276MOL0     C36348  10.995   3.912   6.293 -0.2067  0.4589 -0.6321
  276MOL0     C36349  11.103   4.011   6.291  0.1953  0.0221  0.5348
  276MOL0     N36350  11.686   4.379   6.124  0.4061 -0.7236 -0.0536
  276MOL0     N36351  11.772   4.437   6.047  0.2650 -0.2199  0.0455
  276MOL0     C36352  11.200   5.530   5.584 -0.0312  0.4245 -1.0820
  276MOL0     C36353  11.220   5.661   5.561 -0.3215  0.1787 -0.1745
  276MOL0     C36354  11.246   6.086   5.594  0.5282  0.2971 -0.0248
  276MOL0     C36355  11.348   6.130   5.505  0.1581 -0.1699 -0.1289
  276MOL0     C36356  11.353   6.260   5.459 -0.4933 -0.0916  0.0170
  276MOL0     C36357  11.258   6.358   5.501 -0.1492 -0.7340  0.2758
  276MOL0     O36358  11.250   6.485   5.446 -0.2200  0.5994 -0.0453
  276MOL0     C36359  11.356   6.535   5.359 -0.5483 -0.1213  0.7560
  276MOL0     C36360  11.296   6.579   5.228  1.1287 -0.0261 -0.0488
  276MOL0     C36361  11.366   6.693   5.162  0.8458 -0.0929  0.5072
  276MOL0     C36362  11.305   6.835   5.153  0.9065 -0.0538  0.5298
  276MOL0     C36363  11.171   6.837   5.085  0.8479  0.4959  0.5512
  276MOL0     C36364  11.069   6.803   5.030  0.0332 -0.3751  0.9791
  276MOL0     C36365  11.171   6.323   5.607  0.3178  1.0843  0.1520
  276MOL0     C36366  11.167   6.190   5.661 -0.2678 -0.2515 -0.2136
  276MOL0     H36367  11.486   5.691   5.767 -0.2067  0.3546  2.0124
  276MOL0     H36368  11.416   5.472   5.835 -0.6517 -1.6348 -0.3358
  276MOL0     H36369  11.458   5.315   5.640 -2.0749  1.4431 -2.8111
  276MOL0     H36370  11.331   5.205   5.581 -1.0694  1.7722 -0.7650
  276MOL0     H36371  11.356   5.066   5.760  0.6136 -1.5182  0.6787
  276MOL0     H36372  11.402   5.192   5.875  0.2685  1.3433 -0.5579
  276MOL0     H36373  11.618   5.194   5.794 -0.3559 -0.8677  1.1630
  276MOL0     H36374  11.585   5.076   5.666 -0.1634  1.3845 -0.2817
  276MOL0     H36375  11.618   5.043   5.979 -0.3029  1.6353 -1.6245
  276MOL0     H36376  11.494   4.941   5.900  0.3161 -1.4658  1.2083
  276MOL0     H36377  11.780   4.956   5.810 -0.8759 -0.1006 -0.4025
  276MOL0     H36378  11.676   4.844   5.739 -0.6227  2.2111 -1.0092
  276MOL0     H36379  11.640   4.747   5.975  1.2054 -2.4172  1.6953
  276MOL0     H36380  11.759   4.871   6.030  0.4314 -1.2993  0.5196
  276MOL0     H36381  11.818   4.635   5.858  0.9668 -1.7147  0.7847
  276MOL0     H36382  11.938   4.761   5.885 -1.3843  1.4940  0.4130
  276MOL0     H36383  11.923   4.729   6.127  3.0581 -0.9767 -0.1200
  276MOL0     H36384  11.993   4.587   6.038 -0.6381 -1.5592  0.9325
  276MOL0     H36385  11.736   4.660   6.293  0.9148  2.0128 -1.4966
  276MOL0     H36386  11.540   4.486   6.404  1.4859  1.9876 -3.0204
  276MOL0     H36387  11.680   4.400   6.440  0.0443  0.6397 -0.0796
  276MOL0     H36388  11.605   4.203   6.315  0.1270 -0.0300 -0.1316
  276MOL0     H36389  11.450   4.284   6.281  2.9773 -0.9046 -2.9947
  276MOL0     H36390  11.577   4.191   6.548 -0.9726  0.1299  1.7064
  276MOL0     H36391  11.425   4.290   6.534  1.5610 -0.0796  0.4940
  276MOL0     H36392  11.384   4.040   6.551 -0.7584  2.1003  0.7051
  276MOL0     H36393  11.497   4.020   6.418  1.3632  3.6955 -3.1631
  276MOL0     H36394  11.318   3.860   6.494 -0.6018  1.9552  1.0056
  276MOL0     H36395  11.133   3.715   6.535 -0.1232 -0.9614 -0.0185
  276MOL0     H36396  10.835   3.432   6.294  0.4291  1.4709  1.1954
  276MOL0     H36397  10.690   3.259   6.289 -0.2142 -0.8144 -1.3459
  276MOL0     H36398  10.332   3.332   6.428  0.5491  0.9726 -0.0485
  276MOL0     H36399  10.479   3.243   6.468 -0.3653  1.3323 -1.4216
  276MOL0     H36400  10.224   3.121   6.373 -0.0962  1.4749  0.5197
  276MOL0     H36401  10.315   3.084   6.521  0.1452 -3.9223  0.8804
  276MOL0     H36402  10.515   3.018   6.364  0.1883 -1.3850 -0.3280
  276MOL0     H36403  10.407   3.017   6.234  1.6856  0.0254 -0.0901
  276MOL0     H36404  10.404   2.848   6.500 -0.2567 -0.5393 -1.7966
  276MOL0     H36405  10.257   2.859   6.429  0.8296 -2.9249  1.2466
  276MOL0     H36406  10.390   2.656   6.370  1.0549  0.4138  1.5113
  276MOL0     H36407  10.503   2.741   6.269  0.2973 -1.5563 -1.5828
  276MOL0     H36408  10.353   2.825   6.118  0.0908  1.2157  1.8968
  276MOL0     H36409  10.212   2.784   6.204  0.5771  1.8886  1.4034
  276MOL0     H36410  10.283   2.520   6.179  2.6976 -0.5401 -0.4837
  276MOL0     H36411  10.205   2.620   6.041  0.5608  2.1748  0.5522
  276MOL0     H36412  10.426   2.680   5.955  3.3330 -2.7360 -3.3324
  276MOL0     H36413  10.375   2.504   5.932 -0.2818 -0.9845  1.4252
  276MOL0     H36414  10.366   3.545   6.247 -0.7425  0.9973 -1.4065
  276MOL0     H36415  10.520   3.723   6.279  0.2206  0.4742  0.9333
  276MOL0     H36416  10.916   3.930   6.221 -0.0263 -1.3664 -1.3327
  276MOL0     H36417  11.085   4.099   6.230  1.4818 -0.9488 -1.3534
  276MOL0     H36418  11.109   5.484   5.544 -0.7750  2.2973 -1.6343
  276MOL0     H36419  11.169   5.723   5.488  0.5556  0.9323 -0.1766
  276MOL0     H36420  11.421   6.058   5.470 -1.5222 -3.2583  2.1866
  276MOL0     H36421  11.421   6.265   5.375 -2.6460 -0.9893 -1.8954
  276MOL0     H36422  11.439   6.467   5.340 -3.2746 -2.6770 -3.9876
  276MOL0     H36423  11.378   6.623   5.419 -1.3153  0.2569  0.5016
  276MOL0     H36424  11.296   6.498   5.154  1.9000 -1.8879  1.9001
  276MOL0     H36425  11.193   6.610   5.246  0.6752 -0.2791 -1.9597
  276MOL0     H36426  11.372   6.665   5.057 -0.4591 -1.5216  0.7793
  276MOL0     H36427  11.463   6.694   5.212  1.3579  0.4366 -0.4626
  276MOL0     H36428  11.291   6.888   5.248 -2.2159 -0.8807  0.6438
  276MOL0     H36429  11.361   6.898   5.083 -3.0792  2.1704 -0.9351
  276MOL0     H36430  10.985   6.764   4.977 -2.5792  2.5889  2.6388
  276MOL0     H36431  11.112   6.402   5.651 -1.8025 -1.5937  2.4934
  276MOL0     H36432  11.104   6.163   5.745 -3.8241  0.5450 -2.4018
  277MOL0     O36433   5.484   7.535   6.963  0.0226 -0.4073 -0.5212
  277MOL0     C36434   5.488   7.637   7.036  0.2059 -0.3135 -0.4392
  277MOL0     O36435   5.478   7.767   6.994 -0.4508  0.5643 -0.3180
  277MOL0     C36436   5.507   7.796   6.863  0.1037  0.6472 -1.0311
  277MOL0     C36437   5.600   7.724   6.778  0.0101 -0.1986  0.4912
  277MOL0     C36438   5.632   7.781   6.653 -0.0777 -0.2339 -0.1875
  277MOL0     C36439   5.563   7.899   6.606  0.4343  0.4176 -0.7245
  277MOL0     O36440   5.585   7.957   6.485  0.4887 -0.0268  0.3648
  277MOL0     C36441   5.691   7.908   6.403 -0.7758 -0.6399  0.8544
  277MOL0     C36442   5.827   7.976   6.451 -0.6341  0.1671  0.3226
  277MOL0     C36443   5.812   8.125   6.485  0.1956 -0.4027 -0.6645
  277MOL0     C36444   5.771   8.214   6.359 -0.1286  1.5353 -1.0940
  277MOL0     C36445   5.776   8.369   6.394  0.8988  0.0700 -0.3008
  277MOL0     C36446   5.657   8.408   6.484  0.8826  0.3372  0.4659
  277MOL0     C36447   5.631   8.570   6.489 -0.8258 -0.0359 -0.1601
  277MOL0     C36448   5.761   8.642   6.505 -1.0296  0.1366  0.6517
  277MOL0     N36449   5.793   8.648   6.653  0.2017  0.1003 -0.3207
  277MOL0     C36450   5.802   8.542   6.748  0.1971  0.7515 -0.4922
  277MOL0     C36451   5.825   8.603   6.869 -0.0631 -0.2756  0.0422
  277MOL0     C36452   5.862   8.527   6.995  1.1181  0.3820  0.7475
  277MOL0     C36453   6.020   8.561   7.031  0.3509  0.3902 -0.0475
  277MOL0     C36454   6.072   8.481   7.155  0.2704  0.2021 -0.7574
  277MOL0     C36455   6.011   8.544   7.277  0.2077 -0.8106 -0.1463
  277MOL0     O36456   6.090   8.498   7.388  0.1309  0.7101 -0.5461
  277MOL0     C36457   6.041   8.504   7.521 -0.0279  0.9322  0.1506
  277MOL0     C36458   6.116   8.432   7.615  0.6574 -1.0856  0.1960
  277MOL0     C36459   6.057   8.422   7.740 -0.0865  0.0991  0.1265
  277MOL0     C36460   5.934   8.483   7.781 -0.9281  0.1371 -0.4194
  277MOL0     C36461   5.878   8.477   7.914 -0.1224 -0.6403 -1.1206
  277MOL0     O36462   5.976   8.456   8.015  0.5083 -0.3687 -0.0319
  277MOL0     C36463   5.933   8.457   8.141  1.4365 -0.0321 -0.3947
  277MOL0     C36464   5.890   8.336   8.192 -0.6127 -0.9839 -0.6154
  277MOL0     C36465   5.848   8.329   8.328 -0.2700 -0.8501  0.3415
  277MOL0     C36466   5.845   8.446   8.406  0.1869 -0.1539 -0.8670
  277MOL0     O36467   5.780   8.434   8.527 -0.2297 -1.2764 -0.1456
  277MOL0     C36468   5.857   8.401   8.647 -0.3178  0.4591 -0.3121
  277MOL0     C36469   5.771   8.405   8.769  0.3004  0.0846 -0.3667
  277MOL0     C36470   5.868   8.384   8.881  0.1050  0.9919  0.0012
  277MOL0     C36471   5.798   8.380   9.011  0.1806  0.3175 -0.2997
  277MOL0     C36472   5.891   8.370   9.129 -0.1463 -0.1603 -0.4297
  277MOL0     C36473   5.945   8.226   9.153  0.2379 -0.4777 -0.8365
  277MOL0     C36474   6.063   8.224   9.256 -0.6447  0.2341 -0.1721
  277MOL0     C36475   6.029   8.293   9.393 -0.6638  0.8824  0.0629
  277MOL0    Cl36476   5.887   8.224   9.464  0.3278  0.5488  0.1312
  277MOL0     C36477   5.883   8.567   8.346 -0.8464  0.5084  0.3071
  277MOL0     C36478   5.923   8.575   8.217  0.0266  0.3957 -0.5150
  277MOL0     O36479   5.759   8.497   7.939 -0.0688  0.4546  0.8080
  277MOL0     C36480   5.862   8.557   7.680 -0.2293  0.1913  0.7670
  277MOL0     C36481   5.923   8.575   7.547  0.4343 -0.3436 -1.1590
  277MOL0     N36482   5.817   8.742   6.846  0.0876  0.6574 -0.8838
  277MOL0     N36483   5.813   8.769   6.723 -0.5189 -0.1298  0.1509
  277MOL0     C36484   5.467   7.956   6.689 -0.7935  0.2822 -0.7131
  277MOL0     C36485   5.434   7.901   6.811  0.6120 -0.3448 -0.0753
  277MOL0     C36486   5.494   7.624   7.184  0.6717  0.0734  0.1342
  277MOL0     C36487   5.514   7.729   7.269  0.0061 -0.3976 -0.8035
  277MOL0     C36488   5.512   7.715   7.409 -1.0025  0.5486 -0.4462
  277MOL0     C36489   5.483   7.589   7.473  0.9158 -0.1462 -1.1945
  277MOL0     O36490   5.482   7.566   7.614  0.0157 -0.1790  0.3401
  277MOL0     C36491   5.474   7.676   7.696 -0.2065 -0.3603  0.8103
  277MOL0     C36492   5.397   7.642   7.822 -0.1370  0.4402 -0.7087
  277MOL0     C36493   5.468   7.532   7.909 -0.3552  0.1273  0.1584
  277MOL0     C36494   5.575   7.590   8.005 -1.1523 -0.2922 -0.0425
  277MOL0     C36495   5.616   7.487   8.104  0.6717  0.2429 -0.6436
  277MOL0     C36496   5.653   7.407   8.188  0.4963  0.2109  0.9067
  277MOL0     C36497   5.463   7.486   7.384  1.0109  0.6840 -0.1974
  277MOL0     C36498   5.468   7.501   7.250 -0.0934 -0.7722 -0.2496
  277MOL0     H36499   5.646   7.629   6.802 -2.3377 -1.1939  1.2929
  277MOL0     H36500   5.705   7.735   6.588  0.6898 -0.8471  1.0565
  277MOL0     H36501   5.657   7.937   6.304 -1.8365  0.8490  1.6247
  277MOL0     H36502   5.707   7.799   6.404  1.8736 -0.3667  3.3123
  277MOL0     H36503   5.906   7.964   6.376  1.9653  1.8583  2.5915
  277MOL0     H36504   5.873   7.916   6.531 -1.6144 -1.5144 -0.3135
  277MOL0     H36505   5.904   8.172   6.522  0.1783 -1.4035  0.7269
  277MOL0     H36506   5.741   8.131   6.568 -0.3326  0.3732 -1.1569
  277MOL0     H36507   5.842   8.195   6.277 -0.0711  1.2057 -0.9698
  277MOL0     H36508   5.667   8.192   6.335  0.0027 -1.2414  0.4004
  277MOL0     H36509   5.772   8.440   6.311  1.8025  3.7971  2.5541
  277MOL0     H36510   5.870   8.395   6.445  1.9338  1.4552 -2.7685
  277MOL0     H36511   5.677   8.366   6.584  0.6596  0.4780  0.5697
  277MOL0     H36512   5.570   8.348   6.457  1.5491 -0.4395 -0.0080
  277MOL0     H36513   5.577   8.610   6.402 -1.0541 -0.6683 -0.3171
  277MOL0     H36514   5.565   8.597   6.572  0.2630 -2.8268  1.7816
  277MOL0     H36515   5.751   8.746   6.473 -0.1240 -0.3604 -1.3910
  277MOL0     H36516   5.849   8.609   6.451 -0.1821 -1.9224  3.1032
  277MOL0     H36517   5.799   8.434   6.741  0.0681  0.6108  1.3203
  277MOL0     H36518   5.867   8.418   6.985 -1.7464  0.1606  1.0536
  277MOL0     H36519   5.796   8.536   7.082  0.7146  0.8152  0.3961
  277MOL0     H36520   6.021   8.669   7.050  2.9563  0.3608  0.2543
  277MOL0     H36521   6.092   8.548   6.950 -2.3408  1.5637 -2.8380
  277MOL0     H36522   6.048   8.374   7.160 -0.1555  0.3232 -0.0786
  277MOL0     H36523   6.180   8.475   7.171 -0.0303  1.5609  2.6883
  277MOL0     H36524   5.911   8.502   7.290 -0.0082 -0.2390  0.0908
  277MOL0     H36525   6.011   8.653   7.274  0.5770 -0.7971  0.1672
  277MOL0     H36526   6.206   8.382   7.582 -0.0779 -0.0766 -3.8679
  277MOL0     H36527   6.110   8.363   7.815 -2.4328 -1.6545  0.4998
  277MOL0     H36528   5.904   8.243   8.138  1.0601 -0.8580 -0.4492
  277MOL0     H36529   5.822   8.237   8.379 -0.8933 -2.0264 -1.9639
  277MOL0     H36530   5.942   8.467   8.663  3.5281 -3.8184 -1.0827
  277MOL0     H36531   5.897   8.300   8.632 -2.4772 -0.4313 -0.5436
  277MOL0     H36532   5.690   8.332   8.764  1.0694 -0.7548 -0.8015
  277MOL0     H36533   5.713   8.498   8.772  0.5832  0.2642 -0.4941
  277MOL0     H36534   5.936   8.470   8.887 -1.0384  1.8643  1.2358
  277MOL0     H36535   5.924   8.295   8.850 -3.2698 -1.2360 -0.2164
  277MOL0     H36536   5.747   8.476   9.024 -0.6775 -0.2220  0.4452
  277MOL0     H36537   5.718   8.306   9.024  0.9696 -0.8351 -1.6944
  277MOL0     H36538   5.836   8.411   9.214 -0.6513  0.0842 -0.8701
  277MOL0     H36539   5.975   8.437   9.107  1.0252 -2.0471 -2.1643
  277MOL0     H36540   5.987   8.199   9.055 -1.3502  2.1705 -2.3413
  277MOL0     H36541   5.863   8.163   9.189 -0.3763  0.1425 -1.1368
  277MOL0     H36542   6.097   8.122   9.273  0.1295  0.5776  0.3682
  277MOL0     H36543   6.152   8.270   9.213  1.3958  0.6175  3.9636
  277MOL0     H36544   6.025   8.402   9.383  3.3485  1.1210 -0.4781
  277MOL0     H36545   6.100   8.281   9.475 -2.6221 -0.5524  1.6665
  277MOL0     H36546   5.870   8.655   8.408 -1.2083 -1.2952  2.9903
  277MOL0     H36547   5.939   8.673   8.173 -0.4750 -0.2241 -2.1725
  277MOL0     H36548   5.764   8.593   7.711 -2.0387 -3.3432 -0.1987
  277MOL0     H36549   5.876   8.640   7.475 -0.2541 -0.0476 -0.4594
  277MOL0     H36550   5.401   8.033   6.650 -2.7247 -1.2529 -0.6639
  277MOL0     H36551   5.365   7.951   6.877 -0.6723 -1.7146 -0.3278
  277MOL0     H36552   5.535   7.824   7.219  1.9602 -2.0515 -3.4096
  277MOL0     H36553   5.535   7.804   7.467  2.0685  0.6815 -1.6483
  277MOL0     H36554   5.427   7.763   7.649 -1.2666 -1.3296  0.0126
  277MOL0     H36555   5.574   7.714   7.719 -0.0445  1.0829 -1.7855
  277MOL0     H36556   5.370   7.727   7.885 -3.9054  1.9046 -3.8238
  277MOL0     H36557   5.304   7.590   7.795  0.9414 -2.1689  0.2613
  277MOL0     H36558   5.521   7.462   7.844  0.6542  1.3274 -0.3400
  277MOL0     H36559   5.399   7.462   7.958 -1.9600 -1.2097 -3.6129
  277MOL0     H36560   5.662   7.606   7.940 -2.4923 -1.6084 -2.2813
  277MOL0     H36561   5.525   7.674   8.054  1.7180  1.9160 -0.6039
  277MOL0     H36562   5.687   7.343   8.267  0.9607 -1.2442 -0.4167
  277MOL0     H36563   5.461   7.385   7.422  0.3963  0.0660 -1.7583
  277MOL0     H36564   5.450   7.410   7.192 -2.2502  1.2965 -3.0993
  278MOL0     O36565   2.679   1.451  10.659  0.6024  0.9193  0.9831
  278MOL0     C36566   2.658   1.476  10.542  0.2618 -0.9817  0.7621
  278MOL0     O36567   2.755   1.495  10.431 -0.4188  0.8501  0.0417
  278MOL0     C36568   2.885   1.451  10.444 -0.7430  0.3225 -0.8696
  278MOL0     C36569   2.986   1.530  10.388  0.3199 -0.2820 -1.0131
  278MOL0     C36570   3.123   1.503  10.411 -0.1339  0.0815  0.0177
  278MOL0     C36571   3.161   1.380  10.483  0.5264  0.3837  0.3251
  278MOL0     O36572   3.285   1.325  10.516  0.5816 -0.1499 -0.3116
  278MOL0     C36573   3.408   1.377  10.483 -0.2258 -0.7316  0.8568
  278MOL0     C36574   3.444   1.463  10.605 -0.6695 -0.3180 -0.2267
  278MOL0     C36575   3.568   1.552  10.571 -0.0147 -0.1632 -0.2450
  278MOL0     C36576   3.622   1.630  10.696  0.8898 -0.0029  0.5427
  278MOL0     C36577   3.752   1.692  10.649 -0.6729  0.0997 -0.7280
  278MOL0     C36578   3.824   1.775  10.750 -0.1510 -0.0243  0.9991
  278MOL0     C36579   3.925   1.878  10.681 -0.1092  0.2749  0.0909
  278MOL0     C36580   4.014   1.956  10.773  0.7664 -0.1870 -0.5921
  278MOL0     N36581   4.111   1.866  10.847 -0.4635  0.5679  0.9178
  278MOL0     C36582   4.182   1.755  10.800 -0.2636 -0.7459 -0.0533
  278MOL0     C36583   4.264   1.734  10.905  0.0411  1.5700 -0.4966
  278MOL0     C36584   4.370   1.625  10.904  0.0237  0.2636  0.8116
  278MOL0     C36585   4.459   1.639  11.032  0.1535  0.3888  0.4997
  278MOL0     C36586   4.542   1.516  11.048  0.2858  0.8466 -0.1280
  278MOL0     C36587   4.499   1.434  11.181 -0.4096 -0.2083 -0.4317
  278MOL0     O36588   4.590   1.324  11.193 -0.4545 -0.1335 -0.1860
  278MOL0     C36589   4.616   1.297  11.325 -0.1837  0.4337  0.6877
  278MOL0     C36590   4.715   1.365  11.389 -0.7166  0.7003  0.7575
  278MOL0     C36591   4.736   1.349  11.527 -0.6951  0.3560  0.4287
  278MOL0     C36592   4.668   1.258  11.607  0.8825 -0.0235 -0.3978
  278MOL0     C36593   4.677   1.250  11.756 -0.2488  0.1445  0.1319
  278MOL0     O36594   4.767   1.334  11.813 -0.3140 -0.2022  0.3616
  278MOL0     C36595   4.773   1.342  11.952  1.3131 -0.3188  0.5621
  278MOL0     C36596   4.887   1.313  12.009  0.0291  1.2231 -0.2425
  278MOL0     C36597   4.898   1.309  12.148  0.4615 -0.3417  0.5278
  278MOL0     C36598   4.795   1.353  12.229 -0.0030 -0.3080 -0.6384
  278MOL0     O36599   4.810   1.370  12.366  0.8810  0.0139 -0.8381
  278MOL0     C36600   4.767   1.504  12.411  0.2573  0.5945 -0.1345
  278MOL0     C36601   4.863   1.563  12.507 -0.0914 -0.2563 -1.1307
  278MOL0     C36602   4.845   1.704  12.548  0.5695  0.3918 -0.2651
  278MOL0     C36603   4.907   1.722  12.690  0.8112  0.9229  0.1729
  278MOL0     C36604   4.898   1.858  12.732  0.0526 -0.1151 -1.2060
  278MOL0     C36605   5.014   1.942  12.693  0.4029  0.0464 -0.5256
  278MOL0     C36606   5.023   2.086  12.766 -0.4330 -0.0198 -0.5805
  278MOL0     C36607   5.150   2.096  12.854 -0.8008 -0.2842  0.3386
  278MOL0    Cl36608   5.277   2.094  12.729  0.2475  0.0772  0.2170
  278MOL0     C36609   4.674   1.381  12.167 -0.1654 -0.3408  0.6974
  278MOL0     C36610   4.660   1.375  12.027 -0.2747  0.9794 -0.1963
  278MOL0     O36611   4.610   1.168  11.817 -0.0278 -0.4412 -0.8468
  278MOL0     C36612   4.579   1.173  11.537 -1.2108 -0.7421 -0.3232
  278MOL0     C36613   4.548   1.199  11.396 -1.2311 -0.5493  0.5842
  278MOL0     N36614   4.249   1.836  10.997  0.6714 -0.0852  0.3385
  278MOL0     N36615   4.163   1.920  10.959 -0.0571  0.2335 -1.2334
  278MOL0     C36616   3.056   1.292  10.517 -0.2747 -0.1131 -0.0362
  278MOL0     C36617   2.923   1.317  10.487 -0.2006 -0.6969 -0.0576
  278MOL0     C36618   2.525   1.518  10.504  0.2826 -0.4354  0.4370
  278MOL0     C36619   2.508   1.588  10.381  0.5241 -0.1806  0.8674
  278MOL0     C36620   2.389   1.653  10.348 -0.2511 -0.2480  0.1860
  278MOL0     C36621   2.285   1.643  10.444 -0.3565 -0.6425 -0.1507
  278MOL0     O36622   2.170   1.709  10.428  0.0407 -0.9259 -0.6502
  278MOL0     C36623   2.062   1.634  10.375  0.4096 -0.1870 -0.5848
  278MOL0     C36624   1.956   1.729  10.347  0.4812 -0.5287  0.3325
  278MOL0     C36625   1.858   1.738  10.468  0.1883  0.0982  0.0921
  278MOL0     C36626   1.747   1.849  10.438  0.2798  1.2392 -0.2460
  278MOL0     C36627   1.647   1.805  10.340  0.0753 -0.1524 -0.7863
  278MOL0     C36628   1.571   1.775  10.254 -0.3575  0.3266  0.7028
  278MOL0     C36629   2.301   1.584  10.563  0.0873  0.2450 -0.5796
  278MOL0     C36630   2.417   1.518  10.594  0.0205 -0.6477 -0.6384
  278MOL0     H36631   2.956   1.628  10.353  1.1884  0.0409 -0.8534
  278MOL0     H36632   3.207   1.568  10.389 -2.0916  2.5627 -0.5911
  278MOL0     H36633   3.396   1.441  10.395  0.4025  0.5423  1.6726
  278MOL0     H36634   3.483   1.298  10.472 -0.0188 -0.1977 -2.6870
  278MOL0     H36635   3.448   1.393  10.689 -1.1141 -1.3420 -1.0372
  278MOL0     H36636   3.374   1.542  10.634  0.5045  0.8107 -0.3748
  278MOL0     H36637   3.546   1.619  10.487 -0.6783  1.1066  0.9119
  278MOL0     H36638   3.642   1.482  10.531 -0.3622 -0.5487 -0.2126
  278MOL0     H36639   3.558   1.713  10.729 -0.7885 -1.8576  2.2093
  278MOL0     H36640   3.629   1.562  10.782 -2.1281  0.0285  0.9239
  278MOL0     H36641   3.724   1.758  10.566 -1.6663 -1.5994 -1.8301
  278MOL0     H36642   3.820   1.614  10.612 -0.5907 -1.0344  1.6460
  278MOL0     H36643   3.878   1.709  10.819  1.0860  1.0461  1.0791
  278MOL0     H36644   3.744   1.829  10.802  0.6059  1.1136  1.0182
  278MOL0     H36645   4.001   1.827  10.622  2.2573 -2.5188  4.9564
  278MOL0     H36646   3.867   1.941  10.613  2.1557  2.3439 -0.0499
  278MOL0     H36647   3.951   2.007  10.847  0.2619  1.8386 -2.3167
  278MOL0     H36648   4.079   2.029  10.722 -2.1729  1.6900 -1.9563
  278MOL0     H36649   4.174   1.695  10.709  2.6940  0.3610 -1.1714
  278MOL0     H36650   4.435   1.622  10.816  2.0941  0.7993  2.2237
  278MOL0     H36651   4.335   1.522  10.915  1.7600 -0.2048  2.6537
  278MOL0     H36652   4.390   1.656  11.115 -1.9133  0.1076 -1.0755
  278MOL0     H36653   4.524   1.724  11.013 -2.2577  1.9394 -1.6199
  278MOL0     H36654   4.542   1.442  10.967  2.6214  0.3668  0.2180
  278MOL0     H36655   4.645   1.551  11.063  0.0265  1.8328 -0.6014
  278MOL0     H36656   4.393   1.406  11.176 -1.3014  2.9265 -2.0551
  278MOL0     H36657   4.499   1.505  11.264 -2.1497 -1.9928  1.1842
  278MOL0     H36658   4.761   1.440  11.326  0.4612 -0.0278  0.7160
  278MOL0     H36659   4.805   1.425  11.564 -1.2699  0.7650  0.6812
  278MOL0     H36660   4.972   1.293  11.944  0.0168 -0.9545  0.3157
  278MOL0     H36661   4.997   1.293  12.189  1.1227  1.2943 -0.3321
  278MOL0     H36662   4.671   1.491  12.461 -2.3550  1.3366 -4.4602
  278MOL0     H36663   4.758   1.564  12.320  0.6851 -0.2324 -0.7364
  278MOL0     H36664   4.964   1.566  12.464  0.2597  1.1322 -0.2502
  278MOL0     H36665   4.866   1.503  12.598  1.2181  2.2130  0.5752
  278MOL0     H36666   4.740   1.733  12.551  0.2800 -0.7345  1.5710
  278MOL0     H36667   4.901   1.770  12.481 -0.7563  0.2492 -1.5731
  278MOL0     H36668   4.837   1.663  12.750 -1.6879  0.9007 -2.5188
  278MOL0     H36669   5.004   1.672  12.692  0.1224 -0.4619  1.8416
  278MOL0     H36670   4.885   1.858  12.841  2.5434 -0.0413 -0.8472
  278MOL0     H36671   4.813   1.907  12.685  0.8968  2.6647 -0.0561
  278MOL0     H36672   5.017   1.966  12.587 -0.3176 -1.2534 -0.8575
  278MOL0     H36673   5.110   1.897  12.721 -0.0777 -0.0565  1.0832
  278MOL0     H36674   5.030   2.163  12.689 -1.7066 -1.4853 -2.2265
  278MOL0     H36675   4.939   2.106  12.832 -0.9959  0.0798 -1.3201
  278MOL0     H36676   5.168   2.008  12.916  1.3975  0.3600  0.6827
  278MOL0     H36677   5.133   2.183  12.919  0.6920 -2.0932  3.3819
  278MOL0     H36678   4.584   1.393  12.228 -0.6350  3.8087 -0.4720
  278MOL0     H36679   4.565   1.381  11.975 -0.2996 -0.4397 -0.3717
  278MOL0     H36680   4.526   1.092  11.586 -0.8066 -1.6083 -1.2528
  278MOL0     H36681   4.464   1.144  11.354 -1.6160 -3.3521  4.4454
  278MOL0     H36682   3.085   1.199  10.566 -1.1787 -0.9892 -1.1032
  278MOL0     H36683   2.852   1.236  10.502 -0.6021 -0.5252 -0.9542
  278MOL0     H36684   2.594   1.603  10.316 -1.4556  0.4077 -1.7822
  278MOL0     H36685   2.374   1.698  10.251 -2.2935 -3.7342 -1.3111
  278MOL0     H36686   2.030   1.561  10.450  0.2033 -0.6975 -1.1672
  278MOL0     H36687   2.100   1.567  10.298  3.1085 -0.2631  0.6949
  278MOL0     H36688   1.996   1.827  10.319 -0.5442 -1.1003 -3.6044
  278MOL0     H36689   1.906   1.703  10.253 -1.0524 -1.0822  1.2542
  278MOL0     H36690   1.914   1.765  10.558 -0.2614  1.3375  0.0279
  278MOL0     H36691   1.814   1.639  10.481  1.1077 -0.2422  0.7276
  278MOL0     H36692   1.697   1.871  10.533  1.0855  0.8615  0.2769
  278MOL0     H36693   1.778   1.949  10.408 -3.5950  2.5916 -0.2284
  278MOL0     H36694   1.511   1.739  10.173  0.8448 -0.4601  0.1438
  278MOL0     H36695   2.220   1.578  10.635  1.6429  3.9747  1.8274
  278MOL0     H36696   2.426   1.464  10.688 -3.0569 -3.0995 -1.5865
  279MOL0     O36697   1.892   2.891   0.202  0.8740  0.8636 -0.1068
  279MOL0     C36698   1.918   2.976   0.121  0.1793  1.3689 -0.0903
  279MOL0     O36699   2.035   3.048   0.099  0.3345 -0.8313  0.1115
  279MOL0     C36700   2.140   3.040   0.184 -1.0954 -0.0559  0.8689
  279MOL0     C36701   2.188   3.165   0.237 -0.2000  0.5565  1.1501
  279MOL0     C36702   2.281   3.160   0.343  0.7469  0.6571  0.3744
  279MOL0     C36703   2.327   3.041   0.390 -1.3552  0.3791  0.4305
  279MOL0     O36704   2.422   3.047   0.494 -0.4585  0.2159  0.0796
  279MOL0     C36705   2.364   3.073   0.621 -0.3624  0.1055 -0.1396
  279MOL0     C36706   2.448   3.018   0.737 -0.0290 -0.4194  0.4998
  279MOL0     C36707   2.389   3.073   0.871  1.1859 -0.0890 -0.9241
  279MOL0     C36708   2.496   3.121   0.970  0.1503  0.2797 -0.2176
  279MOL0     C36709   2.614   3.026   0.993  0.1958 -1.1335  0.2506
  279MOL0     C36710   2.598   2.943   1.119  0.7948  0.2784 -0.9678
  279MOL0     C36711   2.480   2.849   1.137  0.4986 -0.5396 -0.2659
  279MOL0     C36712   2.459   2.733   1.045 -0.4033  0.6671  0.4344
  279MOL0     N36713   2.570   2.643   1.027  0.3891  0.2578  0.0740
  279MOL0     C36714   2.620   2.550   1.122 -0.1221 -0.6391 -0.4319
  279MOL0     C36715   2.741   2.515   1.064 -0.5462  1.0758  0.0500
  279MOL0     C36716   2.811   2.379   1.089 -0.1895 -0.8354  0.0211
  279MOL0     C36717   2.911   2.381   1.193 -0.1934  0.5885 -0.2168
  279MOL0     C36718   2.831   2.378   1.328  0.5966  0.4476  0.6507
  279MOL0     C36719   2.921   2.387   1.451  0.6988 -0.3592  0.0422
  279MOL0     O36720   2.986   2.509   1.453  0.5599  0.6555 -0.6915
  279MOL0     C36721   2.929   2.619   1.517  0.1869 -0.8633  0.3018
  279MOL0     C36722   2.940   2.640   1.649 -0.5042  0.7170 -0.3642
  279MOL0     C36723   2.903   2.756   1.711  1.1627 -0.2122 -0.2988
  279MOL0     C36724   2.836   2.854   1.651  0.2505 -0.6388  0.6220
  279MOL0     C36725   2.772   2.965   1.728  0.2779 -0.3687  0.0271
  279MOL0     O36726   2.771   2.945   1.865 -1.0064 -0.2885 -0.1036
  279MOL0     C36727   2.801   3.057   1.930  0.4153 -0.3139 -0.8776
  279MOL0     C36728   2.704   3.162   1.956 -0.3480 -0.1800  0.7903
  279MOL0     C36729   2.736   3.266   2.045 -0.3225 -0.0979  0.6730
  279MOL0     C36730   2.865   3.280   2.099  0.6591  0.0456 -0.3212
  279MOL0     O36731   2.908   3.391   2.160 -0.4972  0.0148  0.6163
  279MOL0     C36732   2.887   3.518   2.100  0.9774  0.3354  0.0173
  279MOL0     C36733   2.923   3.643   2.182  0.1031 -0.8487 -0.9322
  279MOL0     C36734   2.941   3.756   2.096  0.2049  1.0991 -0.0924
  279MOL0     C36735   2.996   3.882   2.155 -0.9441  0.5216 -0.4928
  279MOL0     C36736   2.963   3.992   2.068 -0.0613 -0.1915  0.6922
  279MOL0     C36737   2.979   4.124   2.143  0.0810  0.2001 -0.5062
  279MOL0     C36738   3.129   4.146   2.178  0.0424  0.3131  0.6113
  279MOL0     C36739   3.128   4.279   2.262 -0.8005  0.3915 -0.0188
  279MOL0    Cl36740   3.158   4.420   2.151  0.5824  0.2036 -0.7034
  279MOL0     C36741   2.959   3.176   2.084 -0.5934  0.6423 -0.4777
  279MOL0     C36742   2.920   3.062   2.004 -0.6985  0.8036  0.6095
  279MOL0     O36743   2.720   3.060   1.669 -0.3628  0.1749  0.0346
  279MOL0     C36744   2.813   2.839   1.510 -1.0338 -0.8510 -0.0251
  279MOL0     C36745   2.870   2.721   1.446  0.4385 -0.1426 -0.0257
  279MOL0     N36746   2.759   2.593   0.945  0.1327 -0.2841 -1.0414
  279MOL0     N36747   2.657   2.661   0.922  0.2831  0.0853 -0.9892
  279MOL0     C36748   2.294   2.922   0.326  0.0245 -0.9583 -0.6024
  279MOL0     C36749   2.201   2.923   0.224  0.3461 -0.2837 -0.2864
  279MOL0     C36750   1.800   2.986   0.030  0.2087 -0.0107 -0.4347
  279MOL0     C36751   1.794   3.088  -0.057 -0.1013  0.2468  0.3899
  279MOL0     C36752   1.703   3.107  -0.154  0.3638  0.2176 -0.5459
  279MOL0     C36753   1.602   3.007  -0.173 -0.0766 -0.0063 -0.3603
  279MOL0     O36754   1.511   3.006  -0.272 -0.2529 -0.2392  0.1969
  279MOL0     C36755   1.506   3.115  -0.370  0.2638  0.2364 -0.1547
  279MOL0     C36756   1.380   3.131  -0.452 -0.3246 -0.0176 -0.7556
  279MOL0     C36757   1.408   3.215  -0.574  0.3565 -0.6371  0.9204
  279MOL0     C36758   1.280   3.234  -0.652 -0.1693 -0.9434  0.4250
  279MOL0     C36759   1.220   3.110  -0.709 -0.2841 -0.2131  0.7573
  279MOL0     C36760   1.192   3.002  -0.766 -0.2057 -0.0953 -0.8048
  279MOL0     C36761   1.604   2.901  -0.087 -1.2609  0.8707  0.2143
  279MOL0     C36762   1.700   2.887   0.015  0.2252 -0.1884  0.1704
  279MOL0     H36763   2.145   3.262   0.212  0.4964  0.7149  0.5256
  279MOL0     H36764   2.320   3.245   0.398 -1.5095  0.0917  3.1142
  279MOL0     H36765   2.268   3.022   0.637 -2.6785  3.9985 -0.3096
  279MOL0     H36766   2.359   3.182   0.632  2.7296  0.4486 -1.1962
  279MOL0     H36767   2.552   3.046   0.719 -0.9575  3.3420  0.1450
  279MOL0     H36768   2.442   2.909   0.742  4.1699 -0.7534  2.4353
  279MOL0     H36769   2.315   3.005   0.914 -0.1911  0.7277 -1.9488
  279MOL0     H36770   2.322   3.158   0.856 -0.9110 -0.8915  2.5788
  279MOL0     H36771   2.542   3.214   0.936  4.0014 -0.8305  1.3761
  279MOL0     H36772   2.432   3.143   1.056  1.6445  1.9263  0.5211
  279MOL0     H36773   2.709   3.077   1.011  0.3303 -1.5576  0.7701
  279MOL0     H36774   2.620   2.951   0.914  1.0139 -0.0260 -0.7691
  279MOL0     H36775   2.590   3.011   1.204 -4.7824 -1.2250  0.1283
  279MOL0     H36776   2.689   2.888   1.140  0.2518 -0.4907 -0.5809
  279MOL0     H36777   2.486   2.793   1.230 -0.0805  0.2713  0.2757
  279MOL0     H36778   2.387   2.906   1.143  1.0323  0.2401  0.9857
  279MOL0     H36779   2.436   2.764   0.943  2.9360  0.4078 -0.5207
  279MOL0     H36780   2.382   2.665   1.082 -0.7749  0.0967 -1.2833
  279MOL0     H36781   2.552   2.517   1.200  0.5435 -0.7894  0.0893
  279MOL0     H36782   2.868   2.347   1.001  1.8351 -0.4667  1.1202
  279MOL0     H36783   2.733   2.302   1.093  0.9588 -2.1594 -1.5361
  279MOL0     H36784   2.983   2.462   1.175 -2.3030  2.8025  0.6666
  279MOL0     H36785   2.982   2.298   1.193  2.3752  2.6420 -0.5916
  279MOL0     H36786   2.776   2.472   1.323  0.7175  0.6862  2.8322
  279MOL0     H36787   2.757   2.298   1.325 -2.7043  3.2717 -1.7674
  279MOL0     H36788   3.001   2.314   1.439  2.2724  0.8600  2.3636
  279MOL0     H36789   2.872   2.368   1.547  2.0783 -2.4004  0.4105
  279MOL0     H36790   2.979   2.556   1.706  1.2666 -0.2012 -2.7799
  279MOL0     H36791   2.926   2.748   1.817  2.6596  0.3858 -0.5509
  279MOL0     H36792   2.609   3.166   1.902 -1.6491  1.9646  3.0419
  279MOL0     H36793   2.664   3.346   2.050 -0.4223 -0.0756 -0.7972
  279MOL0     H36794   2.782   3.522   2.068  0.1011 -1.3242  2.3698
  279MOL0     H36795   2.935   3.515   2.002  1.6526  0.8072  0.3321
  279MOL0     H36796   3.016   3.633   2.239 -0.4986  1.5830  0.6053
  279MOL0     H36797   2.830   3.663   2.235 -0.2549 -0.5726 -1.6525
  279MOL0     H36798   2.841   3.770   2.053 -0.5769  2.0221  1.8782
  279MOL0     H36799   2.998   3.722   2.010 -1.7755 -0.5522 -0.8286
  279MOL0     H36800   2.961   3.900   2.257 -2.0430  2.9745 -1.2418
  279MOL0     H36801   3.105   3.873   2.157 -0.8027  1.9568  1.1818
  279MOL0     H36802   2.856   3.993   2.046  0.2038  0.5735 -0.6689
  279MOL0     H36803   3.024   3.996   1.977 -0.6622  0.1104  0.2978
  279MOL0     H36804   2.925   4.123   2.238  1.6063  0.6461  0.3854
  279MOL0     H36805   2.939   4.207   2.083 -0.0244  0.5589  0.0545
  279MOL0     H36806   3.194   4.069   2.220  1.5158  1.6425  0.8866
  279MOL0     H36807   3.178   4.171   2.083  0.2450 -0.9777  0.3604
  279MOL0     H36808   3.212   4.266   2.330 -3.0970 -2.7833  2.5080
  279MOL0     H36809   3.042   4.294   2.328  0.2775 -0.2028  1.5863
  279MOL0     H36810   3.040   3.186   2.154  0.4120  2.0691 -1.7681
  279MOL0     H36811   2.991   2.981   1.995  0.0961  1.4632  0.8905
  279MOL0     H36812   2.766   2.914   1.447  0.8118 -0.0712 -0.5577
  279MOL0     H36813   2.851   2.718   1.339  2.9955 -0.2561 -0.5335
  279MOL0     H36814   2.348   2.833   0.358  4.1953  1.8142  0.9530
  279MOL0     H36815   2.189   2.823   0.185  3.2635 -0.6166 -0.5079
  279MOL0     H36816   1.873   3.162  -0.047 -0.8032  1.2158 -0.9937
  279MOL0     H36817   1.714   3.192  -0.221  2.1833  0.0383 -0.5093
  279MOL0     H36818   1.592   3.087  -0.432  0.9856  0.6598  0.6281
  279MOL0     H36819   1.519   3.207  -0.312 -0.9362  0.0990  0.3536
  279MOL0     H36820   1.335   3.034  -0.475  0.7994 -1.0332  1.0561
  279MOL0     H36821   1.307   3.186  -0.391 -0.4119  0.3004 -1.1445
  279MOL0     H36822   1.479   3.160  -0.636 -0.4625  0.6212 -1.2656
  279MOL0     H36823   1.454   3.310  -0.547  1.0970 -0.7448  0.0619
  279MOL0     H36824   1.202   3.277  -0.589  0.0606  2.4057 -1.3603
  279MOL0     H36825   1.284   3.312  -0.729  4.0186  1.0215  2.3395
  279MOL0     H36826   1.159   2.921  -0.827 -0.8997 -0.9260  0.6034
  279MOL0     H36827   1.531   2.823  -0.104  1.5232 -1.6731 -1.0644
  279MOL0     H36828   1.694   2.803   0.084 -1.8069  0.5938  1.0141
  280MOL0     O36829   7.627   5.854   2.166  0.3518  0.3226  0.1209
  280MOL0     C36830   7.621   5.922   2.267 -0.4170 -0.0253 -0.2071
  280MOL0     O36831   7.598   6.059   2.267  0.4367  0.5807  0.3376
  280MOL0     C36832   7.602   6.129   2.141  0.1365 -0.0289 -0.7435
  280MOL0     C36833   7.679   6.095   2.027 -0.6566 -0.7604  0.8884
  280MOL0     C36834   7.677   6.170   1.908 -0.5293 -0.1821 -0.0819
  280MOL0     C36835   7.581   6.269   1.891 -0.2496  0.1052  0.1156
  280MOL0     O36836   7.592   6.342   1.774  0.5713  0.7386  0.2267
  280MOL0     C36837   7.461   6.345   1.706 -0.3709 -0.2207 -0.3572
  280MOL0     C36838   7.474   6.445   1.597  0.1185  0.8467 -0.3097
  280MOL0     C36839   7.333   6.471   1.545  0.4483 -0.0583 -0.9092
  280MOL0     C36840   7.330   6.534   1.405  0.3458 -0.2819 -0.4570
  280MOL0     C36841   7.183   6.552   1.358 -0.1671 -0.2300  0.4107
  280MOL0     C36842   7.131   6.424   1.276  0.1515 -0.2918 -0.7267
  280MOL0     C36843   6.979   6.416   1.256 -0.0621  0.4676  1.0018
  280MOL0     C36844   6.907   6.537   1.198  0.3306 -0.1462 -0.2251
  280MOL0     N36845   6.952   6.543   1.062  0.3134 -0.0303 -0.0562
  280MOL0     C36846   6.933   6.451   0.966  0.0936  0.8132  0.4970
  280MOL0     C36847   6.966   6.503   0.845 -0.3961  0.3279 -0.0144
  280MOL0     C36848   6.955   6.454   0.700  0.5468  0.3808 -0.2799
  280MOL0     C36849   6.813   6.444   0.646  0.7316 -0.1272  0.0139
  280MOL0     C36850   6.719   6.343   0.716 -0.3749 -0.5655 -0.8707
  280MOL0     C36851   6.598   6.407   0.785 -0.2798 -0.0403  0.7298
  280MOL0     O36852   6.650   6.489   0.891  0.0823  0.7280  0.2106
  280MOL0     C36853   6.610   6.614   0.890  0.2645  0.0285 -0.1488
  280MOL0     C36854   6.476   6.634   0.936  0.0061 -0.1720 -0.0365
  280MOL0     C36855   6.425   6.768   0.945  0.3996 -0.2814 -0.2115
  280MOL0     C36856   6.502   6.878   0.902  0.0767  0.0785 -0.7549
  280MOL0     C36857   6.451   7.017   0.904 -0.0028  1.2540 -0.1905
  280MOL0     O36858   6.520   7.105   0.834 -0.2835 -0.1405 -0.0351
  280MOL0     C36859   6.501   7.236   0.842  0.4898  0.6257 -0.5820
  280MOL0     C36860   6.406   7.292   0.760 -0.3124 -0.2254  0.9505
  280MOL0     C36861   6.374   7.426   0.773  0.5244 -0.7137  0.8375
  280MOL0     C36862   6.444   7.510   0.862  0.6057 -0.7423 -1.0214
  280MOL0     O36863   6.407   7.647   0.871 -0.3922 -0.0179 -0.2600
  280MOL0     C36864   6.478   7.732   0.958 -0.7625 -0.4147 -0.3729
  280MOL0     C36865   6.415   7.871   0.965 -0.4408  0.3004  0.2828
  280MOL0     C36866   6.293   7.871   1.052  0.1003  0.9808  0.8897
  280MOL0     C36867   6.323   7.877   1.203  0.6046 -0.1736  0.7079
  280MOL0     C36868   6.241   7.779   1.270  0.9503  0.5682  1.0059
  280MOL0     C36869   6.248   7.791   1.430 -0.1583 -0.3112 -0.5196
  280MOL0     C36870   6.212   7.661   1.502 -0.7834  1.0227 -0.6367
  280MOL0     C36871   6.071   7.665   1.553  0.3281  0.3262 -0.2009
  280MOL0    Cl36872   6.024   7.489   1.589  0.0659 -0.3287 -0.5361
  280MOL0     C36873   6.533   7.453   0.945 -0.5879  0.5751  0.1907
  280MOL0     C36874   6.572   7.318   0.929 -0.0867  0.2087 -0.1448
  280MOL0     O36875   6.353   7.041   0.978 -0.1067 -0.2909  0.5366
  280MOL0     C36876   6.629   6.854   0.855  0.4381  0.5374 -0.4870
  280MOL0     C36877   6.683   6.726   0.834 -1.5347 -0.2612 -0.3726
  280MOL0     N36878   7.005   6.636   0.864 -0.1777 -0.1313  0.5104
  280MOL0     N36879   6.991   6.652   0.991  0.5330 -0.4499  0.3570
  280MOL0     C36880   7.492   6.300   2.003 -0.2448  0.3325 -0.0493
  280MOL0     C36881   7.511   6.233   2.127  0.5347 -0.1398 -0.2257
  280MOL0     C36882   7.656   5.849   2.392  0.0066  0.0359 -0.5467
  280MOL0     C36883   7.603   5.720   2.418 -0.0236  1.1411 -0.5505
  280MOL0     C36884   7.648   5.652   2.537  0.6292  1.0979 -0.2601
  280MOL0     C36885   7.736   5.705   2.631  0.4533 -0.5132 -0.2189
  280MOL0     O36886   7.778   5.652   2.757 -0.4363 -0.1166  0.2922
  280MOL0     C36887   7.748   5.518   2.802  1.1162  0.2727  0.5782
  280MOL0     C36888   7.872   5.438   2.799  0.2291 -0.2334 -0.8579
  280MOL0     C36889   8.002   5.517   2.755  0.2031 -0.3710  0.4484
  280MOL0     C36890   8.130   5.464   2.814 -0.4936 -0.3526  0.7468
  280MOL0     C36891   8.156   5.513   2.945 -1.4891  0.7744 -0.8959
  280MOL0     C36892   8.160   5.549   3.065 -1.0654 -0.0110  0.3670
  280MOL0     C36893   7.790   5.830   2.602  0.6217 -0.8778  0.2901
  280MOL0     C36894   7.748   5.901   2.483 -0.1755  0.0005  0.6931
  280MOL0     H36895   7.751   6.013   2.022 -1.6524 -1.6370  0.5826
  280MOL0     H36896   7.743   6.155   1.823 -0.6173  0.6144 -0.3001
  280MOL0     H36897   7.379   6.380   1.769  0.2946  2.3531 -0.7863
  280MOL0     H36898   7.435   6.241   1.687 -0.4186 -0.8460  2.7164
  280MOL0     H36899   7.544   6.393   1.530  2.4452 -2.3234  4.0978
  280MOL0     H36900   7.527   6.532   1.637 -0.4458 -0.1602  2.9175
  280MOL0     H36901   7.277   6.535   1.614  2.0562 -1.6429  2.0827
  280MOL0     H36902   7.288   6.371   1.537  0.1657 -0.2649  2.0050
  280MOL0     H36903   7.367   6.637   1.410 -2.3542  0.7126  2.6863
  280MOL0     H36904   7.382   6.465   1.338  0.9129  1.1192 -1.5068
  280MOL0     H36905   7.173   6.639   1.293 -3.9816 -0.2736  0.7017
  280MOL0     H36906   7.112   6.559   1.440  0.7631 -4.1748  1.8094
  280MOL0     H36907   7.158   6.348   1.350  1.1159  1.2747  0.6057
  280MOL0     H36908   7.183   6.401   1.183  0.8382  0.1379 -0.4605
  280MOL0     H36909   6.960   6.337   1.182 -2.6230  3.8081 -2.2643
  280MOL0     H36910   6.930   6.384   1.348 -2.1619 -1.8911 -0.7719
  280MOL0     H36911   6.918   6.632   1.251  1.0299 -0.9348  1.1056
  280MOL0     H36912   6.799   6.518   1.189 -0.4499  2.9561  1.0938
  280MOL0     H36913   6.894   6.350   0.972  1.2774  0.1968 -1.3485
  280MOL0     H36914   7.009   6.359   0.711  0.1809  0.2431  0.4157
  280MOL0     H36915   6.993   6.529   0.631 -0.6860  1.5011  0.2223
  280MOL0     H36916   6.802   6.413   0.542 -2.3109  2.0766 -0.4344
  280MOL0     H36917   6.775   6.547   0.644 -3.2444 -1.4266 -0.1077
  280MOL0     H36918   6.674   6.268   0.650  1.2535 -1.9061 -0.4964
  280MOL0     H36919   6.782   6.285   0.784 -4.1886 -1.2671  2.4198
  280MOL0     H36920   6.534   6.332   0.834  2.3514 -1.2732  2.5080
  280MOL0     H36921   6.545   6.466   0.710 -0.4170  0.8932  1.5374
  280MOL0     H36922   6.419   6.562   0.994  1.4850 -1.6421 -0.3552
  280MOL0     H36923   6.331   6.802   0.988  0.5661  2.2212 -1.6386
  280MOL0     H36924   6.355   7.224   0.693  0.7104  0.9212 -1.0957
  280MOL0     H36925   6.293   7.465   0.712 -0.3899  1.1746  3.0954
  280MOL0     H36926   6.581   7.734   0.921 -0.1564 -1.4379  1.1630
  280MOL0     H36927   6.489   7.693   1.059  1.3496 -0.6607 -0.6568
  280MOL0     H36928   6.387   7.895   0.863 -0.4243  1.8063  0.6072
  280MOL0     H36929   6.486   7.952   0.986  2.0949 -1.5414 -0.6246
  280MOL0     H36930   6.216   7.797   1.029  0.1059  1.3741 -0.4981
  280MOL0     H36931   6.244   7.963   1.017  0.3050  0.0420 -2.1252
  280MOL0     H36932   6.427   7.852   1.224  0.1607 -1.3717  1.6034
  280MOL0     H36933   6.279   7.964   1.253 -3.9336 -1.6866 -0.1254
  280MOL0     H36934   6.275   7.683   1.229  1.5797  2.4832 -3.4191
  280MOL0     H36935   6.137   7.791   1.238  1.3168 -0.0779 -0.5255
  280MOL0     H36936   6.196   7.879   1.470  0.7846  0.0511 -0.0372
  280MOL0     H36937   6.357   7.804   1.435  0.7977 -6.0087 -0.6824
  280MOL0     H36938   6.219   7.583   1.425  0.7232  1.0534 -0.5566
  280MOL0     H36939   6.283   7.641   1.583  0.3006 -0.0004 -1.7943
  280MOL0     H36940   6.012   7.691   1.464  0.2086 -2.5051 -1.0376
  280MOL0     H36941   6.043   7.727   1.639 -2.2737 -1.1044  0.1026
  280MOL0     H36942   6.600   7.503   1.014  1.9377  0.3006 -1.8781
  280MOL0     H36943   6.650   7.275   0.992  2.7914  2.0996 -2.2031
  280MOL0     H36944   6.695   6.930   0.813  0.7852 -1.1179 -3.1961
  280MOL0     H36945   6.784   6.716   0.796 -2.7092 -4.6343 -3.1335
  280MOL0     H36946   7.425   6.386   2.005  2.0628  2.2329 -0.0197
  280MOL0     H36947   7.444   6.275   2.201  1.0960 -1.1383  0.8739
  280MOL0     H36948   7.532   5.679   2.348  0.6543 -0.6355 -0.2520
  280MOL0     H36949   7.617   5.549   2.553  1.9452  0.9324  1.5303
  280MOL0     H36950   7.675   5.463   2.741 -0.5678 -1.4931  3.9058
  280MOL0     H36951   7.703   5.529   2.901  0.6021  0.8015  0.3001
  280MOL0     H36952   7.885   5.396   2.899 -0.6018  0.6839 -0.3480
  280MOL0     H36953   7.860   5.359   2.724 -1.3715 -1.4811  0.6249
  280MOL0     H36954   7.997   5.617   2.800  3.8017  0.3186 -0.3161
  280MOL0     H36955   8.011   5.526   2.647  3.8189 -0.6757  0.6034
  280MOL0     H36956   8.113   5.357   2.821 -1.7392 -0.1013  1.8894
  280MOL0     H36957   8.207   5.484   2.739 -0.4848 -0.3962  0.7446
  280MOL0     H36958   8.170   5.585   3.166  2.5859 -1.4468  0.6337
  280MOL0     H36959   7.837   5.884   2.684 -0.6610  2.1992 -0.8495
  280MOL0     H36960   7.782   6.002   2.465  2.4691 -0.8056  0.6340
  281MOL0     O36961   1.568  11.134   0.983  0.6541 -0.5562 -0.6779
  281MOL0     C36962   1.464  11.169   1.038  0.8882  0.3813  0.0768
  281MOL0     O36963   1.397  11.094   1.120 -0.7179  0.5399 -0.5446
  281MOL0     C36964   1.456  10.982   1.170 -1.7946  0.5122  0.3856
  281MOL0     C36965   1.407  10.854   1.130  0.9103 -0.4656  0.2820
  281MOL0     C36966   1.448  10.741   1.185  0.2116 -0.3231  0.0125
  281MOL0     C36967   1.558  10.746   1.277 -1.1125 -0.4022 -0.0671
  281MOL0     O36968   1.596  10.634   1.350 -1.1120 -0.0750 -0.2656
  281MOL0     C36969   1.587  10.497   1.305 -0.1049 -0.7966  0.0591
  281MOL0     C36970   1.636  10.393   1.408 -0.1910 -0.2010  0.6403
  281MOL0     C36971   1.659  10.260   1.340  0.0824  0.5074 -0.1655
  281MOL0     C36972   1.675  10.152   1.453  1.0067  0.8981  0.3160
  281MOL0     C36973   1.759  10.031   1.413  0.4213  1.3507  0.2044
  281MOL0     C36974   1.707   9.894   1.468  0.8982 -0.0549 -0.9980
  281MOL0     C36975   1.763   9.885   1.613  0.2550 -0.7241 -0.5285
  281MOL0     C36976   1.688   9.813   1.712 -1.0605  0.0286  0.2490
  281MOL0     N36977   1.664   9.671   1.672  0.2469 -0.0122 -0.1886
  281MOL0     C36978   1.711   9.565   1.739  0.2231  0.2823 -0.0887
  281MOL0     C36979   1.665   9.464   1.670 -0.4975  0.0390 -0.4048
  281MOL0     C36980   1.688   9.316   1.702  0.3921  0.0145  0.5232
  281MOL0     C36981   1.568   9.243   1.763 -0.2951 -0.4243 -1.1428
  281MOL0     C36982   1.553   9.279   1.916 -0.3192 -0.8555 -0.5693
  281MOL0     C36983   1.435   9.359   1.974 -0.0635  0.4024  0.5360
  281MOL0     O36984   1.469   9.381   2.115  0.7950 -0.5617  0.0078
  281MOL0     C36985   1.394   9.469   2.195 -0.7654  0.3585 -0.1061
  281MOL0     C36986   1.268   9.518   2.157 -0.4208 -0.0639  0.6850
  281MOL0     C36987   1.216   9.624   2.235 -0.6832  0.3611 -1.2766
  281MOL0     C36988   1.275   9.651   2.362  0.3884 -0.4351  0.0595
  281MOL0     C36989   1.234   9.760   2.446 -0.3123 -0.1108  0.6115
  281MOL0     O36990   1.296   9.778   2.571  0.1761 -0.4081 -0.5325
  281MOL0     C36991   1.237   9.874   2.650  0.4595  0.1901  0.7649
  281MOL0     C36992   1.126   9.832   2.720  0.6768 -0.9839 -0.0317
  281MOL0     C36993   1.071   9.922   2.816 -0.4496  0.2253 -0.0431
  281MOL0     C36994   1.140  10.051   2.835  0.2089  1.1714 -0.2078
  281MOL0     O36995   1.094  10.128   2.932  0.0094 -0.6595  0.3227
  281MOL0     C36996   1.131  10.264   2.937  0.3089  0.6451  0.3169
  281MOL0     C36997   1.038  10.332   3.041 -0.5542  0.2915 -1.0263
  281MOL0     C36998   1.038  10.262   3.184  0.2230  0.0492  0.3638
  281MOL0     C36999   0.966  10.333   3.294 -0.0726 -0.6395 -0.4976
  281MOL0     C37000   1.018  10.305   3.439 -1.1181  0.3057 -0.7433
  281MOL0     C37001   0.946  10.382   3.552 -0.1403 -0.6008  0.5999
  281MOL0     C37002   1.018  10.385   3.689 -0.2444 -0.2018 -0.1842
  281MOL0     C37003   0.949  10.474   3.788  0.0239  0.4572 -0.4838
  281MOL0    Cl37004   1.033  10.474   3.945  0.0069  0.3786  0.0746
  281MOL0     C37005   1.244  10.083   2.764 -0.0011  0.2379  0.5311
  281MOL0     C37006   1.298   9.991   2.673  0.0055 -0.3959  0.4524
  281MOL0     O37007   1.142   9.824   2.402  0.3363 -0.6032 -0.0864
  281MOL0     C37008   1.396   9.592   2.392  0.7542 -0.8479 -0.7119
  281MOL0     C37009   1.450   9.500   2.313  0.0646  0.0005  0.2032
  281MOL0     N37010   1.589   9.504   1.568  0.4671 -0.2667  0.4459
  281MOL0     N37011   1.594   9.627   1.565 -0.0943  0.8782 -0.4637
  281MOL0     C37012   1.616  10.865   1.312 -0.9153 -0.9266  0.5490
  281MOL0     C37013   1.566  10.981   1.253 -0.0283 -0.1031  0.4941
  281MOL0     C37014   1.411  11.305   0.999 -0.1287 -0.2670 -0.5142
  281MOL0     C37015   1.294  11.357   1.057 -0.2136 -0.0397 -0.2337
  281MOL0     C37016   1.256  11.486   1.023 -0.3536  0.3361  0.2825
  281MOL0     C37017   1.327  11.567   0.933 -0.6920 -0.4995  1.4718
  281MOL0     O37018   1.298  11.700   0.917 -0.1451 -0.5714 -0.0530
  281MOL0     C37019   1.354  11.784   0.810 -0.0809  0.3216  0.6291
  281MOL0     C37020   1.500  11.813   0.834 -0.2099  0.4575 -1.0499
  281MOL0     C37021   1.550  11.957   0.812 -0.2179  0.4887  1.1540
  281MOL0     C37022   1.544  12.002   0.662  1.3451  0.2508  0.2394
  281MOL0     C37023   1.407  12.023   0.604  0.1339  0.2128 -0.4570
  281MOL0     C37024   1.292  12.046   0.575 -0.2538 -0.3535  0.0166
  281MOL0     C37025   1.434  11.506   0.869  0.1103  0.3888 -0.5102
  281MOL0     C37026   1.481  11.375   0.904  0.3401 -0.2508 -0.7385
  281MOL0     H37027   1.319  10.855   1.066 -0.4500  2.0980  2.0035
  281MOL0     H37028   1.379  10.659   1.172 -0.3146  0.5572 -4.1237
  281MOL0     H37029   1.663  10.496   1.227 -2.6297  4.4251 -2.9850
  281MOL0     H37030   1.483  10.477   1.277  0.3464 -1.9975 -0.8596
  281MOL0     H37031   1.559  10.386   1.486  0.5770  1.5103  1.6140
  281MOL0     H37032   1.727  10.424   1.460  0.0339 -0.1311  0.2090
  281MOL0     H37033   1.759  10.261   1.297  0.7933 -0.8262  1.3524
  281MOL0     H37034   1.577  10.231   1.274 -1.6383  2.8708  0.8077
  281MOL0     H37035   1.714  10.193   1.547  1.1989 -0.8733  1.0643
  281MOL0     H37036   1.573  10.122   1.481  1.9018  0.5348  3.7129
  281MOL0     H37037   1.866  10.047   1.431  0.2151 -0.3650  3.9220
  281MOL0     H37038   1.742  10.021   1.305  0.3713 -0.4124  0.3371
  281MOL0     H37039   1.744   9.818   1.399  0.9246  0.2623 -1.3405
  281MOL0     H37040   1.598   9.899   1.472  0.9439  4.2227  0.3915
  281MOL0     H37041   1.866   9.848   1.617  0.6689  0.4578  1.7655
  281MOL0     H37042   1.765   9.984   1.660  0.3586 -1.8549  2.0112
  281MOL0     H37043   1.585   9.850   1.715  0.0554  3.4169  0.6568
  281MOL0     H37044   1.729   9.833   1.811 -0.2456  1.7125 -0.3890
  281MOL0     H37045   1.763   9.553   1.833 -2.3869  3.2450  1.9348
  281MOL0     H37046   1.779   9.295   1.759  0.7007  1.3482  0.5703
  281MOL0     H37047   1.695   9.273   1.601 -1.2360  5.3922 -2.2928
  281MOL0     H37048   1.576   9.135   1.752  3.9377 -0.5338  0.8740
  281MOL0     H37049   1.482   9.276   1.704 -2.1693 -2.0280  0.5352
  281MOL0     H37050   1.550   9.183   1.970 -2.6034 -1.3852 -1.5091
  281MOL0     H37051   1.648   9.322   1.950 -0.0778 -1.8221  0.0466
  281MOL0     H37052   1.341   9.303   1.970  0.0937  0.0465  1.4357
  281MOL0     H37053   1.428   9.452   1.917 -0.9484 -2.2168 -4.0547
  281MOL0     H37054   1.202   9.485   2.077 -3.2577  1.1469  2.3756
  281MOL0     H37055   1.126   9.678   2.206  1.5583  3.9384 -2.1653
  281MOL0     H37056   1.082   9.734   2.706 -1.1088 -0.6532  2.6540
  281MOL0     H37057   0.995   9.899   2.890  2.0654 -1.2327  2.2655
  281MOL0     H37058   1.119  10.310   2.839 -0.0292  0.6345  0.3513
  281MOL0     H37059   1.236  10.272   2.967  0.5275 -0.5195 -0.0899
  281MOL0     H37060   0.939  10.335   2.993 -0.4641  3.8871 -1.2929
  281MOL0     H37061   1.066  10.436   3.060 -1.9639  0.3606  0.8895
  281MOL0     H37062   1.139  10.262   3.227  0.4001  3.0246  0.1977
  281MOL0     H37063   1.014  10.156   3.171 -0.6978  0.5859 -3.3447
  281MOL0     H37064   0.984  10.441   3.287  0.7007 -0.7788 -0.8197
  281MOL0     H37065   0.861  10.317   3.269 -0.0572  1.2652 -2.0935
  281MOL0     H37066   1.123  10.333   3.443 -0.7994 -0.6761  4.0939
  281MOL0     H37067   1.006  10.199   3.465 -2.1865  0.9646  1.7543
  281MOL0     H37068   0.846  10.340   3.563  0.7525 -3.1432 -0.1842
  281MOL0     H37069   0.924  10.485   3.522  1.9605  0.4848  2.4366
  281MOL0     H37070   1.024  10.289   3.740  1.4598  0.2573  0.5390
  281MOL0     H37071   1.121  10.416   3.673  1.3767 -1.9526  4.8858
  281MOL0     H37072   0.855  10.423   3.813 -0.4929  0.8172 -1.6236
  281MOL0     H37073   0.925  10.574   3.751  0.5474  1.3486  1.4770
  281MOL0     H37074   1.292  10.180   2.758 -1.7981  1.0918 -2.2100
  281MOL0     H37075   1.390  10.022   2.625  1.8783 -4.5095  1.0135
  281MOL0     H37076   1.453   9.616   2.482 -1.1090 -0.5783  0.4552
  281MOL0     H37077   1.549   9.459   2.330 -0.6274 -1.2185  1.5448
  281MOL0     H37078   1.703  10.873   1.375  0.3363 -0.9516 -1.0965
  281MOL0     H37079   1.621  11.073   1.269 -1.5952  1.4614 -2.2264
  281MOL0     H37080   1.246  11.302   1.137  0.7670 -1.8299 -0.8297
  281MOL0     H37081   1.173  11.537   1.071  0.6843  0.8421  1.5837
  281MOL0     H37082   1.291  11.873   0.807  0.2940  0.6309  1.6495
  281MOL0     H37083   1.348  11.733   0.713  0.2033 -1.0415  1.2931
  281MOL0     H37084   1.527  11.778   0.934 -0.7666  0.5267 -0.8703
  281MOL0     H37085   1.559  11.740   0.778 -1.5683 -1.7366  0.2169
  281MOL0     H37086   1.644  11.988   0.858 -1.1586  2.4458  1.8628
  281MOL0     H37087   1.471  12.020   0.853 -3.3664 -0.7394 -2.3900
  281MOL0     H37088   1.594  12.099   0.656  0.0998  0.8340 -2.1189
  281MOL0     H37089   1.601  11.932   0.599 -1.0335 -0.9427 -0.7359
  281MOL0     H37090   1.191  12.082   0.569  0.5890  1.8574 -2.2182
  281MOL0     H37091   1.490  11.549   0.788  0.6842 -3.0245 -2.0890
  281MOL0     H37092   1.574  11.342   0.860 -0.2245 -0.2339 -1.9961
  282MOL0     O37093   0.680   8.790   5.524  0.1497  0.3885  0.7173
  282MOL0     C37094   0.697   8.906   5.480  0.4853 -0.0559  0.1076
  282MOL0     O37095   0.592   8.987   5.438 -0.1373  0.2125  0.7867
  282MOL0     C37096   0.468   8.938   5.413  0.0384  0.4949  0.9879
  282MOL0     C37097   0.448   8.828   5.328 -0.1499  0.3395 -0.1661
  282MOL0     C37098   0.319   8.780   5.292  0.1617 -0.1355  0.3406
  282MOL0     C37099   0.205   8.849   5.341  0.0091 -0.2034 -0.1961
  282MOL0     O37100   0.074   8.824   5.304  0.7297 -0.2354 -0.5120
  282MOL0     C37101   0.038   8.733   5.201 -0.3562  0.9962  0.4825
  282MOL0     C37102  -0.113   8.703   5.217 -0.3809 -0.3093  0.1508
  282MOL0     C37103  -0.157   8.616   5.110 -0.5327 -0.5812 -0.8701
  282MOL0     C37104  -0.311   8.579   5.115 -0.7435  0.5295 -0.3618
  282MOL0     C37105  -0.363   8.498   4.990  0.5479 -0.4151  0.1864
  282MOL0     C37106  -0.516   8.495   4.974  0.7902 -0.3125  0.1611
  282MOL0     C37107  -0.592   8.432   5.076 -0.2821  0.5004  0.2556
  282MOL0     C37108  -0.739   8.422   5.026 -0.1982 -0.1451  0.0106
  282MOL0     N37109  -0.754   8.335   4.912 -0.0812  0.5969 -0.0711
  282MOL0     C37110  -0.809   8.371   4.790  0.5213  0.1186  0.6491
  282MOL0     C37111  -0.792   8.254   4.717 -0.1656  0.0760 -0.5940
  282MOL0     C37112  -0.864   8.215   4.587  0.0581  0.3627 -0.5049
  282MOL0     C37113  -1.007   8.183   4.617  0.6141  1.2781 -1.2008
  282MOL0     C37114  -1.043   8.040   4.667  0.1706  0.3667  0.0008
  282MOL0     C37115  -0.964   7.917   4.617  0.5684  0.1273 -0.3539
  282MOL0     O37116  -0.831   7.916   4.654 -0.1881  0.0562 -0.6651
  282MOL0     C37117  -0.766   7.797   4.649 -1.1988 -0.1654 -0.2322
  282MOL0     C37118  -0.630   7.790   4.677  0.9060  0.2190 -0.2918
  282MOL0     C37119  -0.553   7.672   4.682 -0.1101  0.4432  0.2228
  282MOL0     C37120  -0.612   7.550   4.640 -0.6947  0.4328  0.7847
  282MOL0     C37121  -0.540   7.416   4.649 -0.2005  0.0757  0.0717
  282MOL0     O37122  -0.442   7.406   4.736  0.4858  0.9356 -0.5005
  282MOL0     C37123  -0.358   7.304   4.712 -0.4280 -0.4928 -0.4928
  282MOL0     C37124  -0.262   7.306   4.608 -1.0609  0.0944  1.0853
  282MOL0     C37125  -0.165   7.206   4.593 -0.1837 -0.5526 -1.4896
  282MOL0     C37126  -0.149   7.110   4.694 -0.1360 -0.2694  0.0533
  282MOL0     O37127  -0.059   7.011   4.691  0.0261 -0.2183  0.0798
  282MOL0     C37128   0.073   7.057   4.687 -0.6698  0.3742 -0.0178
  282MOL0     C37129   0.170   6.932   4.679 -0.0210 -0.7919 -0.0418
  282MOL0     C37130   0.160   6.863   4.805  0.9112  1.0522  0.7324
  282MOL0     C37131   0.255   6.733   4.796 -1.0338  0.2111 -0.2868
  282MOL0     C37132   0.237   6.644   4.916  0.7589  0.4220  0.1497
  282MOL0     C37133   0.315   6.514   4.900  0.6611  0.6747  0.2368
  282MOL0     C37134   0.324   6.442   5.040 -1.3948  0.0547  0.3495
  282MOL0     C37135   0.426   6.326   5.046  0.9939 -0.4583 -0.6772
  282MOL0    Cl37136   0.573   6.389   5.123 -0.1408  0.0199 -0.0450
  282MOL0     C37137  -0.251   7.102   4.794  0.7679  0.1333 -0.7804
  282MOL0     C37138  -0.357   7.195   4.810 -0.4050  0.1231  1.0198
  282MOL0     O37139  -0.568   7.332   4.561  0.1827  0.1883  0.0201
  282MOL0     C37140  -0.747   7.557   4.603  0.0606 -0.3896  0.6840
  282MOL0     C37141  -0.818   7.673   4.598  0.7431 -0.8074 -0.5800
  282MOL0     N37142  -0.720   8.162   4.799  0.1129  0.0163 -0.1383
  282MOL0     N37143  -0.705   8.207   4.916 -0.4128 -0.1389 -0.0850
  282MOL0     C37144   0.227   8.948   5.440  0.0213 -0.8867  0.4813
  282MOL0     C37145   0.354   8.994   5.470  0.0551 -0.3508  0.2108
  282MOL0     C37146   0.832   8.962   5.478  0.3812  0.6421 -0.2599
  282MOL0     C37147   0.858   9.090   5.442  0.2360 -1.0590  0.6629
  282MOL0     C37148   0.992   9.141   5.438 -0.0001  0.1458 -0.6526
  282MOL0     C37149   1.097   9.064   5.494  0.4026  0.1744 -0.4513
  282MOL0     O37150   1.233   9.090   5.497 -0.2020  0.4045  0.1963
  282MOL0     C37151   1.275   9.200   5.416 -0.5891  0.0794  0.2217
  282MOL0     C37152   1.428   9.221   5.424 -0.0453 -0.2450 -0.3782
  282MOL0     C37153   1.498   9.129   5.330  0.2394  0.0379 -0.7982
  282MOL0     C37154   1.639   9.180   5.291  0.2925  0.1879 -0.4245
  282MOL0     C37155   1.694   9.071   5.207  0.5978 -0.9385  0.0127
  282MOL0     C37156   1.725   8.985   5.126  0.0777  0.3308  0.8910
  282MOL0     C37157   1.067   8.933   5.532 -0.2174  0.4113 -0.7996
  282MOL0     C37158   0.937   8.882   5.526 -0.2669  0.5147 -0.6363
  282MOL0     H37159   0.528   8.754   5.324 -0.1697  0.1962  1.3053
  282MOL0     H37160   0.301   8.694   5.229 -1.1097  0.2865  0.1057
  282MOL0     H37161   0.079   8.633   5.215 -1.8699  0.4755  1.4849
  282MOL0     H37162   0.058   8.777   5.103 -1.4802 -0.7235 -0.5799
  282MOL0     H37163  -0.163   8.800   5.220  0.2385 -0.0047  1.0819
  282MOL0     H37164  -0.119   8.650   5.312 -0.3342  1.4029  1.1642
  282MOL0     H37165  -0.101   8.523   5.096 -1.0507 -0.9642 -0.4798
  282MOL0     H37166  -0.150   8.669   5.015  0.0567  0.9891  0.0101
  282MOL0     H37167  -0.331   8.544   5.217  1.7481  0.2652  0.1169
  282MOL0     H37168  -0.356   8.678   5.099  0.8496  1.0902 -1.6298
  282MOL0     H37169  -0.332   8.393   4.997  1.3480 -0.1776  0.2472
  282MOL0     H37170  -0.322   8.538   4.896  0.2771 -4.7016 -2.0261
  282MOL0     H37171  -0.530   8.445   4.878 -1.5977 -0.3922  0.4948
  282MOL0     H37172  -0.559   8.596   4.977 -4.6971 -2.3410  2.7233
  282MOL0     H37173  -0.550   8.335   5.105 -4.0397 -1.1642  0.7417
  282MOL0     H37174  -0.596   8.503   5.159 -0.2615  3.9303 -2.4483
  282MOL0     H37175  -0.780   8.520   4.999 -0.9961 -0.6146 -0.4990
  282MOL0     H37176  -0.806   8.387   5.104 -1.1421 -0.0578 -0.7433
  282MOL0     H37177  -0.865   8.459   4.759  0.7096  0.5233  1.4138
  282MOL0     H37178  -0.824   8.124   4.541  0.0197 -0.0058  0.1611
  282MOL0     H37179  -0.856   8.300   4.520 -2.8763 -0.5714 -2.2281
  282MOL0     H37180  -1.054   8.199   4.520  2.4896 -3.8276 -3.3292
  282MOL0     H37181  -1.044   8.244   4.699 -1.0739  1.0754 -1.7671
  282MOL0     H37182  -1.036   8.030   4.775 -0.4065 -2.7067 -0.1643
  282MOL0     H37183  -1.145   8.016   4.634 -0.2507  0.4440  1.2174
  282MOL0     H37184  -0.978   7.889   4.512  2.6431 -0.3502 -0.5503
  282MOL0     H37185  -1.018   7.835   4.665 -0.1191 -0.0213 -1.3524
  282MOL0     H37186  -0.589   7.883   4.716 -2.0410  0.0731  3.9294
  282MOL0     H37187  -0.449   7.679   4.715  0.3508 -3.2564 -0.0539
  282MOL0     H37188  -0.280   7.386   4.535 -2.6539 -3.5327 -2.9558
  282MOL0     H37189  -0.099   7.206   4.507  1.4252  0.4096 -0.3103
  282MOL0     H37190   0.098   7.115   4.776 -0.4152 -2.3771  1.8564
  282MOL0     H37191   0.087   7.113   4.594  0.5680 -1.1069 -0.7602
  282MOL0     H37192   0.272   6.965   4.658 -0.8357  0.9413 -1.5547
  282MOL0     H37193   0.138   6.877   4.590 -0.8721  1.1341 -0.9814
  282MOL0     H37194   0.056   6.830   4.812  1.3331 -0.5918 -0.2237
  282MOL0     H37195   0.175   6.935   4.886  1.7327  3.2907 -1.2920
  282MOL0     H37196   0.225   6.669   4.713 -1.8918  0.2810 -0.0364
  282MOL0     H37197   0.360   6.762   4.792 -0.6274 -0.7998  1.5379
  282MOL0     H37198   0.133   6.614   4.929  0.4394  1.9757  1.5177
  282MOL0     H37199   0.277   6.691   5.006  0.2160  0.2694  0.4755
  282MOL0     H37200   0.416   6.540   4.867  0.5249  0.9819  0.0583
  282MOL0     H37201   0.269   6.446   4.828  1.1261 -1.0750  1.5407
  282MOL0     H37202   0.345   6.517   5.116 -1.6542  0.8434 -0.3436
  282MOL0     H37203   0.228   6.395   5.064 -0.1887 -4.0679 -1.9536
  282MOL0     H37204   0.453   6.297   4.944  0.7934 -0.4795 -0.7239
  282MOL0     H37205   0.372   6.240   5.086 -1.0798  2.0841  2.4086
  282MOL0     H37206  -0.243   7.019   4.863  1.3470  0.7908 -0.0426
  282MOL0     H37207  -0.427   7.184   4.892 -1.7798 -3.8465 -0.4220
  282MOL0     H37208  -0.799   7.464   4.581  2.0122 -1.0048 -1.9667
  282MOL0     H37209  -0.913   7.650   4.551  1.0139 -5.8038  0.7726
  282MOL0     H37210   0.138   8.997   5.479  0.5929  0.0265  0.6900
  282MOL0     H37211   0.373   9.064   5.551  1.4007  1.4128 -1.5582
  282MOL0     H37212   0.771   9.146   5.410  1.4055 -1.1355 -3.0746
  282MOL0     H37213   1.000   9.244   5.405 -1.6148  0.5540  0.1048
  282MOL0     H37214   1.222   9.292   5.442 -2.2663 -0.8467  0.2517
  282MOL0     H37215   1.236   9.190   5.314  0.4322  5.6274 -1.0448
  282MOL0     H37216   1.446   9.325   5.393 -1.1238 -0.6453 -2.5568
  282MOL0     H37217   1.461   9.208   5.527 -1.6707 -2.3260 -0.0532
  282MOL0     H37218   1.438   9.126   5.239 -1.5344 -0.7863  0.3473
  282MOL0     H37219   1.504   9.034   5.386  1.0666  1.2198  1.2480
  282MOL0     H37220   1.622   9.273   5.235 -0.0942 -1.1589 -2.6443
  282MOL0     H37221   1.702   9.203   5.378  0.4969 -0.1225 -0.4894
  282MOL0     H37222   1.755   8.918   5.048 -4.4781  0.7358 -1.6283
  282MOL0     H37223   1.147   8.876   5.578  1.3591  3.4618  0.5538
  282MOL0     H37224   0.927   8.780   5.560  3.4888  0.1587 -0.1440
  283MOL0     O37225   9.565  10.910   2.253  0.3666 -0.2900  0.4325
  283MOL0     C37226   9.489  10.849   2.176 -0.0055  0.0675  0.3114
  283MOL0     O37227   9.385  10.911   2.095  0.0914  0.4408  0.0144
  283MOL0     C37228   9.357  11.041   2.091 -0.2111 -0.9284 -0.6908
  283MOL0     C37229   9.222  11.081   2.072  0.1287  0.2114 -0.1318
  283MOL0     C37230   9.192  11.214   2.059  0.2131  0.4137  0.4071
  283MOL0     C37231   9.294  11.305   2.075 -0.3028  0.1576 -0.0513
  283MOL0     O37232   9.256  11.436   2.065 -0.4038  0.5808 -0.3290
  283MOL0     C37233   9.318  11.537   2.151 -0.1744  0.7174 -0.1244
  283MOL0     C37234   9.401  11.635   2.073 -0.9448  0.0990  0.3595
  283MOL0     C37235   9.446  11.764   2.156  0.5088  0.9647  0.6021
  283MOL0     C37236   9.331  11.865   2.147  0.2456 -0.1100  0.2177
  283MOL0     C37237   9.379  12.004   2.206  0.2519  0.5169  0.3922
  283MOL0     C37238   9.260  12.106   2.213  0.5912  0.3949  0.0434
  283MOL0     C37239   9.304  12.239   2.264  0.7963  0.3328 -0.3864
  283MOL0     C37240   9.200  12.348   2.307 -0.5752  0.0221  0.4392
  283MOL0     N37241   9.097  12.283   2.390  0.0399 -1.2894  0.1787
  283MOL0     C37242   9.128  12.199   2.495  0.6744  0.5244 -1.2831
  283MOL0     C37243   8.999  12.148   2.530 -1.2309 -0.8980  0.2552
  283MOL0     C37244   8.958  12.048   2.632 -0.7939  0.0171  0.6457
  283MOL0     C37245   9.044  11.926   2.625 -1.1346  0.7293  0.1436
  283MOL0     C37246   9.000  11.860   2.497 -1.0740 -0.2016  0.5543
  283MOL0     C37247   9.006  11.707   2.511 -0.7906  1.1419  0.4777
  283MOL0     O37248   9.007  11.635   2.384  0.3120  0.4399  1.0249
  283MOL0     C37249   8.993  11.498   2.381  1.1680  0.8757 -0.6822
  283MOL0     C37250   9.039  11.414   2.484  0.6038 -0.1152 -0.4733
  283MOL0     C37251   9.032  11.273   2.469  0.7929  0.0611 -0.9902
  283MOL0     C37252   8.980  11.213   2.355  0.2702  0.1856 -0.7293
  283MOL0     C37253   8.990  11.065   2.329 -0.1356  0.0520 -0.3935
  283MOL0     O37254   9.034  10.987   2.432 -1.2484  0.5033 -0.5705
  283MOL0     C37255   9.042  10.845   2.433 -0.1605 -0.3837  0.4644
  283MOL0     C37256   9.160  10.773   2.391 -0.3828  0.2857  0.1064
  283MOL0     C37257   9.161  10.631   2.373  0.7683 -0.4745 -0.6022
  283MOL0     C37258   9.042  10.557   2.395 -0.4504 -0.1848  0.1228
  283MOL0     O37259   9.036  10.424   2.383  0.6139  0.5706 -0.0776
  283MOL0     C37260   9.145  10.349   2.422 -0.2208  0.1439  0.1010
  283MOL0     C37261   9.119  10.199   2.423  0.2372 -0.5685  0.4770
  283MOL0     C37262   9.246  10.117   2.430 -0.9937  1.4487 -0.2629
  283MOL0     C37263   9.319  10.154   2.553 -0.4520 -0.7017  0.1353
  283MOL0     C37264   9.414  10.046   2.606 -0.3810 -0.2883  0.1883
  283MOL0     C37265   9.512   9.973   2.501  0.6224  0.0007  0.2422
  283MOL0     C37266   9.612  10.064   2.415 -0.0881 -1.0929 -0.3718
  283MOL0     C37267   9.705  10.149   2.508 -0.3470 -0.3874  0.4247
  283MOL0    Cl37268   9.790  10.284   2.413 -0.4018 -0.4279  0.2885
  283MOL0     C37269   8.933  10.624   2.446 -0.1851  0.2314 -0.4708
  283MOL0     C37270   8.933  10.768   2.465 -0.3417  0.4808  0.3724
  283MOL0     O37271   8.944  11.022   2.218  0.3420 -0.7993  1.1685
  283MOL0     C37272   8.927  11.306   2.258 -0.6047 -0.5961  1.2383
  283MOL0     C37273   8.925  11.444   2.273  0.5814  0.4969  0.7410
  283MOL0     N37274   8.902  12.221   2.457 -0.9900  0.2331  0.2283
  283MOL0     N37275   8.963  12.298   2.377  0.6481  1.3915 -1.1575
  283MOL0     C37276   9.435  11.269   2.102  0.5245 -0.0797  0.0720
  283MOL0     C37277   9.466  11.139   2.099 -0.2033  1.4632 -0.2201
  283MOL0     C37278   9.493  10.702   2.166 -1.1393  0.1570 -0.5442
  283MOL0     C37279   9.431  10.639   2.063 -0.0139  0.0795  0.1934
  283MOL0     C37280   9.445  10.500   2.042 -0.1544 -0.6901  0.4091
  283MOL0     C37281   9.502  10.418   2.136 -0.2983  0.0804  0.4215
  283MOL0     O37282   9.519  10.287   2.109  0.2566  0.9632  0.1427
  283MOL0     C37283   9.448  10.220   2.007  1.2723 -0.5671 -0.1325
  283MOL0     C37284   9.528  10.241   1.876 -0.4468 -0.4810  0.5837
  283MOL0     C37285   9.440  10.231   1.755  0.0699 -0.3923  0.0673
  283MOL0     C37286   9.414  10.080   1.725 -0.5256  0.8879  0.6410
  283MOL0     C37287   9.307  10.079   1.623 -0.5802  0.2419  0.1843
  283MOL0     C37288   9.232  10.069   1.530  0.1058  0.4364 -0.1685
  283MOL0     C37289   9.552  10.480   2.248  1.2889 -0.2845 -0.4012
  283MOL0     C37290   9.556  10.616   2.262  0.6477 -0.2709  0.2714
  283MOL0     H37291   9.147  11.003   2.060  0.3024 -0.0308  0.3319
  283MOL0     H37292   9.089  11.239   2.038  0.6269  0.4015 -1.7961
  283MOL0     H37293   9.385  11.492   2.225  0.3534 -1.8756 -2.0577
  283MOL0     H37294   9.228  11.583   2.194 -0.7348 -0.6644  0.2521
  283MOL0     H37295   9.343  11.665   1.985  0.1757 -0.2512 -0.5415
  283MOL0     H37296   9.495  11.588   2.041 -0.3420  1.8818 -0.6795
  283MOL0     H37297   9.535  11.800   2.104  1.5618 -3.4477 -1.0948
  283MOL0     H37298   9.469  11.729   2.257  4.4902 -1.8957 -1.0423
  283MOL0     H37299   9.289  11.877   2.046  2.8691  0.9827 -0.8337
  283MOL0     H37300   9.259  11.824   2.219  0.0839  3.9449  2.6694
  283MOL0     H37301   9.457  12.043   2.140 -0.8447  0.1290 -1.1918
  283MOL0     H37302   9.422  11.995   2.306 -3.3781  1.1840  2.1644
  283MOL0     H37303   9.184  12.067   2.281  1.8591 -2.3227  0.0515
  283MOL0     H37304   9.226  12.117   2.109  4.1465 -2.3959 -1.6515
  283MOL0     H37305   9.370  12.217   2.348  0.9395 -2.5116 -1.1374
  283MOL0     H37306   9.360  12.294   2.188  1.5288 -1.1175 -0.9287
  283MOL0     H37307   9.153  12.396   2.221 -0.2715 -2.3408 -1.1438
  283MOL0     H37308   9.248  12.429   2.363  0.9370 -0.8644  0.4897
  283MOL0     H37309   9.216  12.163   2.548  0.2970  1.8855  0.3530
  283MOL0     H37310   8.849  12.038   2.638 -0.6451 -0.9261  3.5571
  283MOL0     H37311   8.976  12.100   2.727 -0.8359  0.6258  0.3274
  283MOL0     H37312   9.014  11.866   2.711 -1.0626 -2.5461 -1.9495
  283MOL0     H37313   9.150  11.949   2.639 -0.0546 -3.1777 -0.4613
  283MOL0     H37314   8.901  11.890   2.461 -1.4957 -0.0136  1.8282
  283MOL0     H37315   9.077  11.880   2.422 -1.4793  0.5854  0.3398
  283MOL0     H37316   8.930  11.671   2.581 -0.7563 -0.6521 -0.3371
  283MOL0     H37317   9.102  11.684   2.557 -0.0907  3.1147  0.0955
  283MOL0     H37318   9.068  11.460   2.577  0.6075  2.3859 -1.6368
  283MOL0     H37319   9.066  11.218   2.556  1.0528  4.1172  1.7600
  283MOL0     H37320   9.248  10.835   2.375 -0.9198  1.1186  0.3186
  283MOL0     H37321   9.243  10.567   2.344  1.2795 -1.5901  2.8512
  283MOL0     H37322   9.186  10.381   2.519  2.4971  0.0099 -0.9052
  283MOL0     H37323   9.222  10.361   2.345 -1.2590  1.2825 -0.7908
  283MOL0     H37324   9.077  10.169   2.327 -1.6987  0.7051  0.8805
  283MOL0     H37325   9.049  10.157   2.495 -0.3041  0.4738  0.5798
  283MOL0     H37326   9.298  10.128   2.335 -1.3012 -0.4591 -0.6826
  283MOL0     H37327   9.220  10.011   2.424  0.5949  1.0562 -0.6982
  283MOL0     H37328   9.380  10.242   2.531 -0.7782 -1.4514 -5.0498
  283MOL0     H37329   9.243  10.182   2.625 -0.1014 -2.3309  1.2069
  283MOL0     H37330   9.354   9.966   2.648 -0.1838 -1.2619 -1.3344
  283MOL0     H37331   9.477  10.086   2.687 -0.8801 -2.6393  1.8438
  283MOL0     H37332   9.458   9.917   2.424  0.9414 -0.3211  0.2517
  283MOL0     H37333   9.565   9.894   2.554 -2.4820 -2.4616 -0.0035
  283MOL0     H37334   9.675  10.006   2.347  1.2216  0.6858 -0.7425
  283MOL0     H37335   9.558  10.138   2.355  1.3789  1.2330  1.0136
  283MOL0     H37336   9.777  10.086   2.559  1.8693 -0.5604 -2.6499
  283MOL0     H37337   9.642  10.196   2.585 -2.2829  0.0426 -1.3418
  283MOL0     H37338   8.835  10.583   2.467  1.6800 -4.3769  0.4436
  283MOL0     H37339   8.844  10.818   2.503 -1.5239 -2.3002  1.5947
  283MOL0     H37340   8.894  11.264   2.163 -0.0585  0.3242  0.6217
  283MOL0     H37341   8.864  11.505   2.207 -3.3569 -1.3477  2.3572
  283MOL0     H37342   9.510  11.345   2.124  0.8162  0.3472 -2.1041
  283MOL0     H37343   9.570  11.108   2.111 -0.0947  0.7238 -2.6600
  283MOL0     H37344   9.380  10.701   1.990 -1.7136  1.8253  2.6628
  283MOL0     H37345   9.399  10.457   1.953  1.3209  0.0865 -0.7807
  283MOL0     H37346   9.347  10.257   1.983  1.0109  0.3810  2.1864
  283MOL0     H37347   9.445  10.113   2.029  1.0768 -0.0986  2.3064
  283MOL0     H37348   9.585  10.335   1.876 -1.4771  0.1719 -0.1838
  283MOL0     H37349   9.601  10.160   1.879 -0.4895 -0.5636 -0.2401
  283MOL0     H37350   9.486  10.294   1.678 -1.2150 -0.4798 -0.8005
  283MOL0     H37351   9.346  10.284   1.774  1.2442  1.7176  0.3781
  283MOL0     H37352   9.510  10.045   1.688 -0.7135  1.9587 -0.9718
  283MOL0     H37353   9.401  10.008   1.807  2.5192 -1.3055 -0.6546
  283MOL0     H37354   9.147  10.050   1.467  1.2938 -1.3269 -1.3686
  283MOL0     H37355   9.598  10.414   2.321  0.1575 -0.7625 -0.1081
  283MOL0     H37356   9.595  10.664   2.351 -2.5465  1.3961  0.9557
  284MOL0     O37357   4.617   4.168   5.577 -0.3060  0.2281  0.0751
  284MOL0     C37358   4.637   4.069   5.498  0.6919 -1.4781 -0.3403
  284MOL0     O37359   4.692   3.951   5.529  0.4281  0.1783  0.3881
  284MOL0     C37360   4.741   3.934   5.650  0.3603  0.5265  0.0838
  284MOL0     C37361   4.850   4.015   5.701  0.2499  0.6415 -1.6695
  284MOL0     C37362   4.904   3.995   5.831  0.6504 -0.4759 -1.0779
  284MOL0     C37363   4.857   3.886   5.902 -0.1897  0.3153  0.0078
  284MOL0     O37364   4.911   3.851   6.023 -0.6522 -0.0450 -0.7550
  284MOL0     C37365   4.966   3.945   6.112 -0.4185 -0.8306  0.0469
  284MOL0     C37366   4.842   4.012   6.173  0.3334  0.4151  1.4498
  284MOL0     C37367   4.757   3.918   6.271 -0.2106  0.1616 -0.3331
  284MOL0     C37368   4.641   3.999   6.327 -0.0603  0.2645  0.1638
  284MOL0     C37369   4.536   3.924   6.409  0.3009 -0.3469 -0.1281
  284MOL0     C37370   4.464   3.804   6.339 -0.1750 -0.0986  0.0155
  284MOL0     C37371   4.426   3.835   6.189  0.4264 -0.8613 -0.4163
  284MOL0     C37372   4.375   3.715   6.105 -0.4303 -0.0559  0.1393
  284MOL0     N37373   4.234   3.689   6.127 -0.2385  0.1383 -0.2861
  284MOL0     C37374   4.144   3.680   6.025  0.6251  0.7525  0.8864
  284MOL0     C37375   4.034   3.631   6.083 -0.1367  0.4183 -0.2564
  284MOL0     C37376   3.905   3.597   6.018 -0.2870  1.1812  0.6906
  284MOL0     C37377   3.925   3.502   5.900 -0.1979 -1.2385 -0.0610
  284MOL0     C37378   3.798   3.452   5.839  0.0268  0.0933  0.2861
  284MOL0     C37379   3.744   3.531   5.724  0.3510 -0.8290 -0.2496
  284MOL0     O37380   3.750   3.671   5.745 -0.6023 -0.1538 -0.3052
  284MOL0     C37381   3.712   3.762   5.647 -1.0415 -1.0528 -0.4983
  284MOL0     C37382   3.632   3.736   5.533 -0.4200 -0.6700 -0.7958
  284MOL0     C37383   3.619   3.846   5.441 -0.2650  0.1494  0.0044
  284MOL0     C37384   3.681   3.968   5.452  0.9844  0.6478  0.1811
  284MOL0     C37385   3.669   4.068   5.349 -0.2680  0.8261  0.6712
  284MOL0     O37386   3.556   4.064   5.267  0.4649 -0.5219  0.3724
  284MOL0     C37387   3.581   4.120   5.140  0.0830  0.5047  0.2982
  284MOL0     C37388   3.460   4.168   5.082 -0.5383  0.0858  0.3583
  284MOL0     C37389   3.462   4.230   4.950  0.1547  0.0430 -0.2479
  284MOL0     C37390   3.586   4.248   4.886  0.9173 -0.1009  0.1139
  284MOL0     O37391   3.583   4.317   4.769 -0.4109 -0.0370  0.3188
  284MOL0     C37392   3.686   4.420   4.741  0.4336  0.2259 -0.0414
  284MOL0     C37393   3.783   4.374   4.635 -1.1130  0.2133  1.0476
  284MOL0     C37394   3.731   4.395   4.484  0.4908 -1.3704 -0.3675
  284MOL0     C37395   3.811   4.323   4.372 -0.4785 -0.3804 -1.1070
  284MOL0     C37396   3.882   4.403   4.265  0.2849 -0.0701  0.2368
  284MOL0     C37397   3.948   4.304   4.162  0.6952 -0.4877  0.2892
  284MOL0     C37398   4.051   4.204   4.208 -0.3078  0.0130 -0.0566
  284MOL0     C37399   4.087   4.108   4.093 -0.3767  0.0643 -0.0240
  284MOL0    Cl37400   3.976   3.990   4.022 -0.1059  0.2413  0.3739
  284MOL0     C37401   3.704   4.193   4.942 -0.1727  0.2313  0.0413
  284MOL0     C37402   3.697   4.132   5.063 -0.8212 -0.3131  0.5246
  284MOL0     O37403   3.760   4.142   5.344  0.0019 -0.9942 -1.1634
  284MOL0     C37404   3.730   3.998   5.577  0.0294  0.2334 -0.7587
  284MOL0     C37405   3.751   3.895   5.670 -0.4499  0.2878 -0.1794
  284MOL0     N37406   4.063   3.596   6.212  0.1365  0.3897 -0.1411
  284MOL0     N37407   4.180   3.635   6.240 -0.0294 -0.3481 -0.0457
  284MOL0     C37408   4.764   3.794   5.850 -0.1925  1.0945  0.0803
  284MOL0     C37409   4.705   3.822   5.724 -0.0461 -0.2270 -0.0556
  284MOL0     C37410   4.590   4.080   5.355 -0.2528 -0.4396  0.4899
  284MOL0     C37411   4.585   3.975   5.269 -0.5398  0.0295 -0.5469
  284MOL0     C37412   4.531   3.989   5.140 -0.0668 -0.2001 -0.2642
  284MOL0     C37413   4.478   4.112   5.091 -0.2722 -0.2249  1.1087
  284MOL0     O37414   4.422   4.143   4.967  0.1884 -0.5161 -0.4175
  284MOL0     C37415   4.402   4.038   4.874  0.1376 -0.1353 -0.1641
  284MOL0     C37416   4.327   4.097   4.752  0.5214  0.5593 -0.2380
  284MOL0     C37417   4.329   4.005   4.627 -0.3403 -0.2215  0.6334
  284MOL0     C37418   4.258   4.062   4.505  0.1045 -0.1158 -0.3700
  284MOL0     C37419   4.114   4.042   4.507 -0.6343 -0.2069  0.0675
  284MOL0     C37420   3.994   4.015   4.503 -0.6551 -0.4917 -0.0935
  284MOL0     C37421   4.488   4.217   5.178 -0.3486 -0.5258  0.0901
  284MOL0     C37422   4.535   4.201   5.312  0.2617  0.6073  0.9510
  284MOL0     H37423   4.883   4.103   5.647  2.9294  0.8411  0.0864
  284MOL0     H37424   4.982   4.055   5.877  1.6125 -1.1718 -1.7657
  284MOL0     H37425   5.034   4.015   6.063  0.5537  0.3162  2.8592
  284MOL0     H37426   5.024   3.884   6.182  1.4945  0.4202 -0.3765
  284MOL0     H37427   4.770   4.051   6.101  0.9712 -2.3479 -0.8090
  284MOL0     H37428   4.878   4.098   6.232  1.5051  0.2383  1.0283
  284MOL0     H37429   4.818   3.876   6.350 -0.0614 -3.7029 -2.2621
  284MOL0     H37430   4.722   3.826   6.224  1.6513 -0.1782 -1.1440
  284MOL0     H37431   4.690   4.085   6.374 -1.5733  0.7761  0.8451
  284MOL0     H37432   4.585   4.031   6.239  0.1975  3.2543  0.9806
  284MOL0     H37433   4.459   3.999   6.429  1.5773  0.3396  2.8249
  284MOL0     H37434   4.584   3.902   6.505  3.0393 -0.5267 -1.4322
  284MOL0     H37435   4.373   3.792   6.399 -0.7877  0.8384 -0.6917
  284MOL0     H37436   4.517   3.709   6.352 -4.0533 -2.1207  3.1665
  284MOL0     H37437   4.353   3.917   6.190  1.6331  0.3194 -2.4338
  284MOL0     H37438   4.512   3.871   6.132 -1.4954  2.8305 -1.3161
  284MOL0     H37439   4.441   3.629   6.121 -2.9854 -2.0648  0.6330
  284MOL0     H37440   4.383   3.745   6.000 -2.0622 -0.1548 -0.0390
  284MOL0     H37441   4.165   3.730   5.931  1.9588  0.0302  0.7762
  284MOL0     H37442   3.862   3.687   5.973  1.2342  1.4216 -0.3597
  284MOL0     H37443   3.834   3.567   6.096  0.5122  1.3331  1.4923
  284MOL0     H37444   3.985   3.422   5.944  0.6473  0.4694  2.0900
  284MOL0     H37445   3.977   3.549   5.815 -0.1033 -0.5055  0.3933
  284MOL0     H37446   3.820   3.351   5.804 -3.6646  0.2906 -3.3780
  284MOL0     H37447   3.725   3.458   5.920  0.2134  0.4696  0.4290
  284MOL0     H37448   3.645   3.504   5.685  1.5275 -0.1388 -4.1679
  284MOL0     H37449   3.807   3.518   5.636 -2.0773  2.5065 -2.7157
  284MOL0     H37450   3.580   3.641   5.523  1.8527 -1.9920 -0.6255
  284MOL0     H37451   3.547   3.825   5.362 -0.3842 -0.8183  0.3490
  284MOL0     H37452   3.371   4.162   5.144 -2.0605  1.8508 -1.4838
  284MOL0     H37453   3.373   4.265   4.900  0.4181  0.3989 -0.4730
  284MOL0     H37454   3.746   4.442   4.829 -1.6710  0.8949  1.2929
  284MOL0     H37455   3.649   4.521   4.722  1.2093  0.7554  1.1821
  284MOL0     H37456   3.792   4.266   4.647  3.2868  0.4850  1.5637
  284MOL0     H37457   3.881   4.420   4.646  0.3156 -1.6579 -2.4541
  284MOL0     H37458   3.738   4.503   4.474  0.8131 -1.2160  1.2235
  284MOL0     H37459   3.625   4.369   4.473  0.0774  0.6207 -1.4250
  284MOL0     H37460   3.895   4.275   4.422 -0.0547  1.3709 -0.0376
  284MOL0     H37461   3.745   4.247   4.329 -1.3264 -0.3141  0.0048
  284MOL0     H37462   3.965   4.462   4.304 -0.5597  1.2787  0.0567
  284MOL0     H37463   3.810   4.469   4.215 -0.3657  0.6294  2.0384
  284MOL0     H37464   3.991   4.373   4.089 -0.7417 -0.7894 -0.8879
  284MOL0     H37465   3.865   4.240   4.131  1.6538 -2.2469  1.1668
  284MOL0     H37466   4.134   4.256   4.255 -1.1403 -0.7486  2.3839
  284MOL0     H37467   4.006   4.134   4.279 -0.4722 -2.2766 -2.2815
  284MOL0     H37468   4.168   4.044   4.130  0.1798  0.7581 -0.0145
  284MOL0     H37469   4.132   4.161   4.008 -0.0778 -1.8708 -1.1383
  284MOL0     H37470   3.799   4.208   4.891 -1.3417  1.2961 -1.9510
  284MOL0     H37471   3.794   4.089   5.090 -0.8094 -0.5614  0.0964
  284MOL0     H37472   3.748   4.104   5.593 -1.0647  0.6183 -1.8380
  284MOL0     H37473   3.795   3.909   5.768 -1.4266  1.2392  0.1358
  284MOL0     H37474   4.733   3.713   5.916 -1.9810 -0.2958 -2.2858
  284MOL0     H37475   4.625   3.764   5.677  1.0094 -2.3315  0.6258
  284MOL0     H37476   4.620   3.878   5.303 -3.6463 -0.0777  2.9990
  284MOL0     H37477   4.536   3.899   5.079  3.1201 -0.7078  0.5294
  284MOL0     H37478   4.331   3.968   4.920  0.0830  0.1328  0.1601
  284MOL0     H37479   4.486   3.972   4.850 -1.6306 -2.3603 -0.6018
  284MOL0     H37480   4.221   4.099   4.778  0.5091 -1.8977  0.1190
  284MOL0     H37481   4.362   4.198   4.729 -0.8583  0.9325 -0.7941
  284MOL0     H37482   4.275   3.915   4.659 -2.3146 -0.1384 -2.0688
  284MOL0     H37483   4.426   3.962   4.602 -0.5317  0.1017 -0.7521
  284MOL0     H37484   4.271   4.170   4.496  2.5396 -0.1972  1.1691
  284MOL0     H37485   4.297   4.006   4.419  1.2780  0.5090 -0.2685
  284MOL0     H37486   3.887   4.015   4.491 -0.6481  1.0905 -0.3492
  284MOL0     H37487   4.457   4.318   5.153  1.3392 -0.0554 -0.2327
  284MOL0     H37488   4.533   4.286   5.379 -1.3230  3.6036 -2.5129
  285MOL0     O37489   5.737   3.104   0.774  0.3188 -0.4308  0.8107
  285MOL0     C37490   5.717   3.175   0.874 -0.4863 -0.0557 -0.5162
  285MOL0     O37491   5.684   3.309   0.874 -0.3091  1.1002  0.3539
  285MOL0     C37492   5.677   3.380   0.754  0.4884  0.0366  0.0957
  285MOL0     C37493   5.783   3.386   0.661  0.6643 -0.7423 -0.1039
  285MOL0     C37494   5.771   3.446   0.540  0.7266  0.0713 -0.3345
  285MOL0     C37495   5.646   3.496   0.506  0.1201  0.0719  0.3562
  285MOL0     O37496   5.624   3.565   0.387  0.3152  0.1217 -0.6969
  285MOL0     C37497   5.686   3.491   0.278 -0.4067 -0.2050 -0.0567
  285MOL0     C37498   5.630   3.562   0.159 -0.4121  0.4644 -0.3423
  285MOL0     C37499   5.686   3.705   0.145  0.2124  0.6800 -0.5970
  285MOL0     C37500   5.622   3.752   0.014  0.3249 -0.0915 -1.1451
  285MOL0     C37501   5.684   3.881  -0.028  0.3187 -0.0773  0.5501
  285MOL0     C37502   5.613   3.931  -0.155 -0.4332 -1.0424  0.0339
  285MOL0     C37503   5.671   4.071  -0.185 -0.2357  0.9362 -0.1083
  285MOL0     C37504   5.561   4.143  -0.257 -1.0654  0.6667  0.2575
  285MOL0     N37505   5.611   4.248  -0.347 -0.2491  1.1646 -0.9229
  285MOL0     C37506   5.655   4.367  -0.306 -0.4430  0.1617 -0.4640
  285MOL0     C37507   5.659   4.451  -0.420  0.8936  0.3378 -0.0082
  285MOL0     C37508   5.723   4.586  -0.412 -1.3065 -0.2085 -0.5266
  285MOL0     C37509   5.799   4.627  -0.544  0.3803  0.1492  0.5386
  285MOL0     C37510   5.867   4.765  -0.529  0.3763  0.4705  0.4338
  285MOL0     C37511   5.766   4.877  -0.483 -1.1928  0.3151 -0.2666
  285MOL0     O37512   5.752   4.876  -0.342  0.0936  0.2350  0.1883
  285MOL0     C37513   5.847   4.930  -0.255  0.7400 -0.4980  0.0715
  285MOL0     C37514   5.800   4.941  -0.121  0.7581 -0.1306  0.6690
  285MOL0     C37515   5.875   5.012  -0.025 -0.0549 -0.1336  0.4638
  285MOL0     C37516   6.005   5.050  -0.050 -0.3817 -0.4088 -0.5514
  285MOL0     C37517   6.093   5.109   0.056 -0.3900 -0.0324  0.4269
  285MOL0     O37518   6.194   5.186   0.014 -0.7616  0.3538  0.2714
  285MOL0     C37519   6.259   5.258   0.112 -0.2919  0.7514  0.5227
  285MOL0     C37520   6.394   5.242   0.128 -0.3804 -0.1467 -0.6129
  285MOL0     C37521   6.468   5.316   0.221  0.4768 -0.8060  0.1229
  285MOL0     C37522   6.403   5.410   0.304  0.5756  0.1889  0.4346
  285MOL0     O37523   6.468   5.475   0.411 -0.8408 -0.1091 -0.3091
  285MOL0     C37524   6.569   5.415   0.488  0.1764 -0.4899  0.2106
  285MOL0     C37525   6.523   5.422   0.631 -0.1950 -0.2307  0.3379
  285MOL0     C37526   6.623   5.357   0.725  0.9300 -0.7698  0.9651
  285MOL0     C37527   6.579   5.210   0.761 -0.0861  0.1917 -0.5719
  285MOL0     C37528   6.705   5.146   0.828  0.1404  0.1633 -0.9881
  285MOL0     C37529   6.673   5.021   0.901 -0.7923  0.2622 -0.9791
  285MOL0     C37530   6.799   4.943   0.939  0.2189  0.5937 -0.3957
  285MOL0     C37531   6.782   4.851   1.058 -0.3272  0.4289  0.4952
  285MOL0    Cl37532   6.931   4.821   1.141 -0.1797 -0.5421 -0.2212
  285MOL0     C37533   6.270   5.429   0.276 -0.6943  0.6865  0.1396
  285MOL0     C37534   6.196   5.354   0.182  0.1993  0.3300 -0.5093
  285MOL0     O37535   6.056   5.090   0.172 -0.5690 -0.2492 -0.6523
  285MOL0     C37536   6.054   5.031  -0.183  0.7848  0.1134 -0.9887
  285MOL0     C37537   5.976   4.980  -0.286 -0.8370 -0.8066  0.5646
  285MOL0     N37538   5.608   4.370  -0.522 -1.1934 -0.1965  0.5749
  285MOL0     N37539   5.597   4.252  -0.482  0.0816  0.2420  0.0831
  285MOL0     C37540   5.547   3.492   0.594  0.3580  0.7922  0.6417
  285MOL0     C37541   5.557   3.435   0.720  0.6731 -0.0946 -0.5371
  285MOL0     C37542   5.729   3.109   1.001 -0.0642  0.2521 -0.1401
  285MOL0     C37543   5.764   2.974   1.012 -0.2549  0.3211 -0.8021
  285MOL0     C37544   5.756   2.906   1.138 -0.0189 -0.3525 -0.0614
  285MOL0     C37545   5.702   2.976   1.252  0.5144  0.5191 -0.4097
  285MOL0     O37546   5.693   2.902   1.367  0.2629  0.3101  0.4484
  285MOL0     C37547   5.678   2.967   1.499  0.9451 -0.5853  0.0421
  285MOL0     C37548   5.536   2.966   1.533  0.6176  0.2963 -0.8454
  285MOL0     C37549   5.472   2.824   1.548 -0.9655 -0.7599  0.4460
  285MOL0     C37550   5.325   2.823   1.499  0.8862  0.1000 -0.1997
  285MOL0     C37551   5.247   2.924   1.571 -0.3900  0.0650 -0.5054
  285MOL0     C37552   5.180   3.007   1.627  0.4878  0.0608 -0.1779
  285MOL0     C37553   5.671   3.113   1.240  1.4697  1.0322 -1.1252
  285MOL0     C37554   5.680   3.175   1.115 -0.1756 -0.0188 -0.1849
  285MOL0     H37555   5.873   3.335   0.694  1.4325  0.9747  0.6069
  285MOL0     H37556   5.858   3.453   0.475 -0.0063  1.4852 -1.2255
  285MOL0     H37557   5.666   3.383   0.283 -1.9800 -0.0282 -1.6925
  285MOL0     H37558   5.795   3.503   0.274 -0.4605  0.7111  0.8303
  285MOL0     H37559   5.521   3.555   0.164 -0.2867 -1.9378  0.6711
  285MOL0     H37560   5.661   3.503   0.072  0.5787 -1.7745  1.4071
  285MOL0     H37561   5.792   3.693   0.119  0.6811  1.3835  0.9367
  285MOL0     H37562   5.681   3.777   0.227 -0.5495 -0.5940  0.5170
  285MOL0     H37563   5.640   3.677  -0.064 -0.8331 -2.2762  0.5765
  285MOL0     H37564   5.513   3.757   0.023  0.2029 -1.9453 -1.1574
  285MOL0     H37565   5.792   3.868  -0.043  0.5674  3.2025 -1.7544
  285MOL0     H37566   5.665   3.959   0.046  0.8481  0.4739  0.1149
  285MOL0     H37567   5.509   3.945  -0.125  0.2785  1.4045  1.6634
  285MOL0     H37568   5.623   3.859  -0.236  3.2059  0.9167 -1.5403
  285MOL0     H37569   5.692   4.117  -0.089 -0.4249  0.3840  0.2043
  285MOL0     H37570   5.760   4.072  -0.249 -1.7589 -0.8821 -2.4794
  285MOL0     H37571   5.497   4.193  -0.184 -3.5129  0.1001 -1.3912
  285MOL0     H37572   5.494   4.080  -0.316 -1.1878 -2.0920  3.0835
  285MOL0     H37573   5.685   4.397  -0.206 -2.6031 -1.3540  0.7053
  285MOL0     H37574   5.802   4.587  -0.336  0.7212 -1.5570 -2.4922
  285MOL0     H37575   5.648   4.658  -0.379 -2.8767 -2.2435  0.5471
  285MOL0     H37576   5.721   4.635  -0.621  0.1728  0.3930  0.7754
  285MOL0     H37577   5.874   4.556  -0.578  0.2784 -0.1161  0.8648
  285MOL0     H37578   5.962   4.750  -0.478  0.9237  0.6952 -0.4932
  285MOL0     H37579   5.893   4.785  -0.634  0.2996 -3.9581 -0.6206
  285MOL0     H37580   5.666   4.875  -0.528 -1.5980  0.0215  0.6297
  285MOL0     H37581   5.828   4.962  -0.515 -0.2469 -0.0947  0.4050
  285MOL0     H37582   5.706   4.893  -0.096  0.0886  0.5943 -0.3931
  285MOL0     H37583   5.824   5.029   0.069  2.5503  1.5024  1.6831
  285MOL0     H37584   6.447   5.177   0.059 -0.1367 -1.8186  1.0818
  285MOL0     H37585   6.574   5.292   0.223  0.4373 -1.2714 -1.7677
  285MOL0     H37586   6.658   5.473   0.463 -1.7922  2.1970 -1.0937
  285MOL0     H37587   6.594   5.310   0.470  2.0707 -0.0057 -0.1525
  285MOL0     H37588   6.426   5.375   0.649  0.0559  0.1806  3.3232
  285MOL0     H37589   6.509   5.528   0.654  0.9615 -0.1569  0.7912
  285MOL0     H37590   6.616   5.414   0.818  1.0378 -2.5264  2.0998
  285MOL0     H37591   6.728   5.356   0.696  0.5426 -0.3615 -0.5095
  285MOL0     H37592   6.487   5.211   0.820  0.4486  2.8576  0.3377
  285MOL0     H37593   6.555   5.155   0.670  0.4243  3.4477 -2.8450
  285MOL0     H37594   6.743   5.215   0.904 -1.0671  0.2653 -0.4566
  285MOL0     H37595   6.778   5.131   0.748  0.0977  0.9720 -1.1807
  285MOL0     H37596   6.612   4.961   0.832  1.9731 -0.5727 -2.8634
  285MOL0     H37597   6.624   5.052   0.994 -0.0194 -0.7805 -0.1944
  285MOL0     H37598   6.821   4.891   0.845  1.4470  0.4628 -0.0540
  285MOL0     H37599   6.887   5.005   0.962  2.6892 -2.6986 -0.2227
  285MOL0     H37600   6.732   4.755   1.040 -0.4231 -0.0460  2.9627
  285MOL0     H37601   6.716   4.904   1.126  0.5295 -1.1444  2.6630
  285MOL0     H37602   6.218   5.504   0.334  1.3233  3.7568 -1.7275
  285MOL0     H37603   6.091   5.380   0.179 -0.0044 -0.4029 -0.1171
  285MOL0     H37604   6.158   5.058  -0.197  0.7889 -0.1192 -1.4638
  285MOL0     H37605   6.016   4.979  -0.387 -0.9714 -2.1147  0.5170
  285MOL0     H37606   5.448   3.526   0.564  0.6601  0.5182 -0.7319
  285MOL0     H37607   5.482   3.440   0.799  1.4437  1.7951  0.1386
  285MOL0     H37608   5.779   2.907   0.928 -1.7725 -1.9852  0.6404
  285MOL0     H37609   5.783   2.802   1.145  2.7871  0.0110 -3.1481
  285MOL0     H37610   5.714   3.070   1.508  1.0388 -0.6366  0.2529
  285MOL0     H37611   5.747   2.917   1.567  2.2138  1.3715  0.2706
  285MOL0     H37612   5.521   3.018   1.628  2.3413 -1.7564  0.6472
  285MOL0     H37613   5.487   3.018   1.450 -1.7143  0.0673  0.3179
  285MOL0     H37614   5.477   2.797   1.654  0.4605 -1.6787  0.1808
  285MOL0     H37615   5.518   2.742   1.492 -1.6916  0.7844 -2.5988
  285MOL0     H37616   5.314   2.840   1.391  1.3059  3.3113  0.1592
  285MOL0     H37617   5.282   2.726   1.525  0.5908  0.4174  0.5179
  285MOL0     H37618   5.119   3.073   1.686  1.5776  0.1862  0.8575
  285MOL0     H37619   5.629   3.173   1.320  1.0837 -0.5741 -0.0812
  285MOL0     H37620   5.661   3.282   1.121 -0.8832 -0.2074  4.2025
  286MOL0     O37621   4.343   3.954  10.676  0.3451  0.0334 -0.1777
  286MOL0     C37622   4.232   3.983  10.636 -0.8207 -0.5888 -0.4962
  286MOL0     O37623   4.195   3.995  10.508  0.0992 -0.0603 -1.1438
  286MOL0     C37624   4.285   3.962  10.406  0.5771  0.0255 -0.5119
  286MOL0     C37625   4.426   3.960  10.406  0.4293 -0.2345 -0.0173
  286MOL0     C37626   4.491   3.880  10.309 -0.2062 -0.3346  0.7490
  286MOL0     C37627   4.426   3.821  10.206 -0.1268  0.2959 -0.1096
  286MOL0     O37628   4.510   3.734  10.131  0.5356 -0.0918  0.8563
  286MOL0     C37629   4.451   3.637  10.041 -0.2618  0.4550  1.0206
  286MOL0     C37630   4.553   3.522  10.027  0.9613 -0.3234  0.7285
  286MOL0     C37631   4.521   3.436   9.899 -0.3017  0.2111  0.2004
  286MOL0     C37632   4.571   3.480   9.761 -0.7179  0.5501  0.5034
  286MOL0     C37633   4.725   3.494   9.762  0.5370 -0.1431 -0.2704
  286MOL0     C37634   4.804   3.505   9.635  0.4705 -0.0987  1.3509
  286MOL0     C37635   4.925   3.605   9.651  0.1268  0.8803  0.3391
  286MOL0     C37636   4.893   3.745   9.682 -0.4585 -0.4117 -0.4006
  286MOL0     N37637   4.784   3.795   9.599  0.2858  0.5499  0.2840
  286MOL0     C37638   4.809   3.831   9.467  0.5777 -0.1012  0.0580
  286MOL0     C37639   4.688   3.873   9.424 -0.1912  0.2838 -0.6357
  286MOL0     C37640   4.647   3.936   9.291 -0.0017  0.0557 -0.4304
  286MOL0     C37641   4.687   3.843   9.166  0.2134 -0.4048  0.0583
  286MOL0     C37642   4.582   3.736   9.126 -0.3963 -0.3510 -0.1407
  286MOL0     C37643   4.565   3.628   9.238 -0.3812  0.0066 -0.1967
  286MOL0     O37644   4.456   3.531   9.207 -1.0066  0.0862  0.2686
  286MOL0     C37645   4.330   3.557   9.259 -0.2471  0.3591  0.3199
  286MOL0     C37646   4.287   3.664   9.328 -0.0491 -0.1306 -0.2791
  286MOL0     C37647   4.158   3.680   9.383 -1.0504  0.8047  0.5525
  286MOL0     C37648   4.060   3.589   9.360 -0.9179 -0.4599  0.1426
  286MOL0     C37649   3.925   3.618   9.421  0.7711  0.0204  0.0992
  286MOL0     O37650   3.831   3.543   9.357 -0.9387 -0.1050 -0.3388
  286MOL0     C37651   3.698   3.565   9.377  0.4295  0.4129  0.2950
  286MOL0     C37652   3.632   3.673   9.448 -0.0009  0.1696  0.8142
  286MOL0     C37653   3.494   3.687   9.455  0.3256 -0.4353 -0.2000
  286MOL0     C37654   3.410   3.598   9.389  0.0326  0.3378 -0.8502
  286MOL0     O37655   3.270   3.600   9.380  0.0841  0.0603  0.5949
  286MOL0     C37656   3.199   3.736   9.384 -0.4229  0.4570 -0.1648
  286MOL0     C37657   3.053   3.718   9.390  0.1236 -0.4237  0.4138
  286MOL0     C37658   3.015   3.688   9.541  0.2284 -0.5649  0.1985
  286MOL0     C37659   3.076   3.572   9.613 -0.1280  0.3039 -0.0715
  286MOL0     C37660   2.999   3.546   9.752 -0.3191  0.5706  0.0815
  286MOL0     C37661   2.991   3.397   9.784 -0.3075 -1.0281  0.7556
  286MOL0     C37662   3.123   3.332   9.814  0.3869  0.4116 -0.6399
  286MOL0     C37663   3.210   3.391   9.931 -0.5134 -0.4429 -0.5227
  286MOL0    Cl37664   3.123   3.379  10.084  0.0269 -0.1124 -0.3109
  286MOL0     C37665   3.478   3.480   9.335 -0.2573  0.5409 -0.0784
  286MOL0     C37666   3.617   3.463   9.335 -0.7282  0.1919 -0.6844
  286MOL0     O37667   3.909   3.691   9.522 -0.0692  0.9922  0.6177
  286MOL0     C37668   4.087   3.474   9.278 -0.8079 -0.2530 -0.3053
  286MOL0     C37669   4.231   3.467   9.230 -0.1647  1.0923 -0.5233
  286MOL0     N37670   4.594   3.865   9.532  0.3803  0.3276  0.2367
  286MOL0     N37671   4.655   3.806   9.625  0.0009 -0.7690  0.4098
  286MOL0     C37672   4.291   3.840  10.190 -0.2263 -0.3774 -0.4924
  286MOL0     C37673   4.225   3.911  10.297  0.3296 -0.4463  0.0270
  286MOL0     C37674   4.131   4.011  10.738 -0.8675 -0.5647  0.0219
  286MOL0     C37675   4.146   3.990  10.871 -0.0152 -0.5567 -1.1882
  286MOL0     C37676   4.042   3.994  10.967  0.8237 -0.1928  0.5963
  286MOL0     C37677   3.910   4.037  10.928 -0.2335 -0.0205  0.2609
  286MOL0     O37678   3.800   4.063  11.010  0.0327  0.4146  0.2727
  286MOL0     C37679   3.821   4.032  11.144 -1.0112 -0.5223  0.2171
  286MOL0     C37680   3.702   4.058  11.237  0.4041 -0.5408 -0.8893
  286MOL0     C37681   3.578   3.995  11.174 -0.6130 -0.5414  0.0191
  286MOL0     C37682   3.447   4.002  11.248  0.5519 -0.0418 -0.1518
  286MOL0     C37683   3.390   4.132  11.205  0.0532  0.8404 -0.0386
  286MOL0     C37684   3.371   4.240  11.171  1.4007 -0.6350 -0.1157
  286MOL0     C37685   3.893   4.056  10.788  0.7677  1.2171 -0.5226
  286MOL0     C37686   4.003   4.048  10.697 -0.2807 -0.0680  0.0214
  286MOL0     H37687   4.481   3.999  10.491 -0.2677 -0.9944  0.8140
  286MOL0     H37688   4.600   3.880  10.301 -0.2043  2.0754  0.1393
  286MOL0     H37689   4.443   3.687   9.944  2.2465 -1.6454 -0.3948
  286MOL0     H37690   4.355   3.606  10.084  0.2110 -1.5538  0.7272
  286MOL0     H37691   4.553   3.469  10.122  4.1694 -1.1315  0.3792
  286MOL0     H37692   4.655   3.562  10.024  1.3375 -1.2620 -1.7106
  286MOL0     H37693   4.413   3.421   9.889 -0.6870  1.4873  1.9028
  286MOL0     H37694   4.561   3.338   9.924  0.3300  0.3293 -0.3075
  286MOL0     H37695   4.532   3.415   9.681 -0.7591 -0.2220  1.1387
  286MOL0     H37696   4.536   3.582   9.741  2.9802  2.2473  1.8305
  286MOL0     H37697   4.767   3.406   9.813 -0.0457 -1.0725 -1.3295
  286MOL0     H37698   4.736   3.586   9.819 -0.0792 -2.0608  3.2484
  286MOL0     H37699   4.745   3.534   9.548  1.5301 -1.9758 -0.0587
  286MOL0     H37700   4.851   3.410   9.606  0.6066  0.3640 -0.0008
  286MOL0     H37701   4.981   3.555   9.730 -1.2171 -1.2615  0.0150
  286MOL0     H37702   4.987   3.597   9.561  2.2912  0.7082  1.7773
  286MOL0     H37703   4.987   3.802   9.674 -1.3424  1.5174  1.7315
  286MOL0     H37704   4.869   3.740   9.789  0.1590  2.1345 -0.0606
  286MOL0     H37705   4.900   3.834   9.408  0.7823  2.5983  0.3782
  286MOL0     H37706   4.707   4.026   9.277  1.9165 -0.6828  2.1655
  286MOL0     H37707   4.539   3.950   9.286  0.0728  0.2852 -2.1884
  286MOL0     H37708   4.783   3.797   9.190  1.6215  1.7569 -1.0205
  286MOL0     H37709   4.708   3.899   9.074 -3.9815  0.5739 -0.5139
  286MOL0     H37710   4.488   3.790   9.112 -0.2190 -0.5156 -2.4143
  286MOL0     H37711   4.618   3.677   9.041 -1.3285 -2.2688  0.7224
  286MOL0     H37712   4.547   3.664   9.340 -1.4373 -2.3858  0.5129
  286MOL0     H37713   4.661   3.576   9.245 -0.5907 -1.0897 -3.6055
  286MOL0     H37714   4.343   3.752   9.357  0.1392 -0.8355  1.6081
  286MOL0     H37715   4.146   3.770   9.442  0.6924  0.7618  1.0341
  286MOL0     H37716   3.685   3.760   9.485 -2.0962  2.3483 -0.9719
  286MOL0     H37717   3.442   3.769   9.504 -1.0093 -0.6223 -1.2423
  286MOL0     H37718   3.225   3.785   9.290  2.1579 -0.3764  0.0390
  286MOL0     H37719   3.236   3.793   9.469  2.8781 -1.4242 -0.1936
  286MOL0     H37720   3.037   3.637   9.318  0.6684  0.2618 -0.5085
  286MOL0     H37721   2.993   3.807   9.369 -0.6395 -0.7654  1.1238
  286MOL0     H37722   2.906   3.680   9.528 -0.0806  1.2356  1.2317
  286MOL0     H37723   3.046   3.780   9.591  0.3719 -0.8104  0.5593
  286MOL0     H37724   3.051   3.483   9.554 -0.0773  0.6258 -0.5847
  286MOL0     H37725   3.182   3.588   9.631  0.6645 -1.2109 -2.9128
  286MOL0     H37726   2.900   3.592   9.743  0.4058  2.0997 -0.4670
  286MOL0     H37727   3.050   3.604   9.829 -0.8052  1.2589 -0.1048
  286MOL0     H37728   2.925   3.341   9.717  0.0529 -2.7660  1.7922
  286MOL0     H37729   2.940   3.384   9.880 -1.0100  2.4462  0.9762
  286MOL0     H37730   3.100   3.230   9.847 -1.9685  0.7967 -0.8838
  286MOL0     H37731   3.175   3.339   9.718 -2.0655  3.0956 -1.9226
  286MOL0     H37732   3.230   3.496   9.908 -2.1818 -0.0240 -0.2021
  286MOL0     H37733   3.303   3.334   9.930  0.2489  0.7401  0.5291
  286MOL0     H37734   3.419   3.415   9.272  0.9150 -1.5476  0.8746
  286MOL0     H37735   3.673   3.377   9.300  1.9857  1.7619 -0.4837
  286MOL0     H37736   4.020   3.392   9.254  1.6697 -1.5789 -3.5160
  286MOL0     H37737   4.259   3.380   9.172 -3.2579 -0.6714  0.4271
  286MOL0     H37738   4.244   3.794  10.104 -1.0914  1.3537 -0.9957
  286MOL0     H37739   4.117   3.910  10.288  0.1603 -1.3774  1.8473
  286MOL0     H37740   4.243   3.969  10.914 -0.2233  1.1248  0.2256
  286MOL0     H37741   4.045   3.954  11.067 -0.6179 -1.1467  0.2955
  286MOL0     H37742   3.901   4.098  11.179  0.4354 -1.6883 -0.7896
  286MOL0     H37743   3.847   3.926  11.147  3.1370  0.1657 -3.2107
  286MOL0     H37744   3.723   3.998  11.326  0.8772 -2.1657 -2.0484
  286MOL0     H37745   3.689   4.166  11.247  2.6841 -0.2378 -0.7427
  286MOL0     H37746   3.594   3.887  11.172 -4.1482 -1.2452  1.1019
  286MOL0     H37747   3.566   4.039  11.074  0.5491  0.1245  0.1528
  286MOL0     H37748   3.378   3.923  11.217  1.3308 -1.3356  1.2610
  286MOL0     H37749   3.459   3.993  11.356 -1.2525 -3.9602 -0.0736
  286MOL0     H37750   3.361   4.343  11.145  0.8565 -0.1453  1.8654
  286MOL0     H37751   3.792   4.076  10.755  1.1178  0.7412 -1.9284
  286MOL0     H37752   3.974   4.066  10.594 -2.1425  1.2390  0.7082
  287MOL0     O37753  11.022   9.373   9.653  1.0216 -0.3830 -0.5549
  287MOL0     C37754  11.091   9.468   9.670 -1.0720 -0.4816 -0.4885
  287MOL0     O37755  11.218   9.468   9.716  0.5944  0.0540 -0.1288
  287MOL0     C37756  11.294   9.354   9.701  1.0640 -0.6868  0.2662
  287MOL0     C37757  11.287   9.243   9.609  0.5475 -1.1479  0.4575
  287MOL0     C37758  11.371   9.133   9.613 -0.1550 -0.0996 -0.1239
  287MOL0     C37759  11.473   9.120   9.712  0.6992 -0.0400 -0.0248
  287MOL0     O37760  11.563   9.017   9.731  0.4224 -0.6720  0.1231
  287MOL0     C37761  11.703   9.060   9.729  0.7767 -1.1706  0.5516
  287MOL0     C37762  11.767   8.937   9.663 -0.4233 -0.2436 -0.7980
  287MOL0     C37763  11.734   8.936   9.509 -1.0947  1.1947  0.1866
  287MOL0     C37764  11.806   9.047   9.440  0.3727  0.0533 -0.3984
  287MOL0     C37765  11.804   9.051   9.289  0.6903  0.0126  0.0053
  287MOL0     C37766  11.940   9.071   9.220  0.0439 -0.7594 -1.0241
  287MOL0     C37767  11.933   9.065   9.064 -0.0813 -0.6370 -0.4774
  287MOL0     C37768  11.924   8.923   9.002 -0.2577 -0.2425 -0.3714
  287MOL0     N37769  11.937   8.934   8.854  0.3977 -0.5724 -0.3785
  287MOL0     C37770  11.976   8.839   8.768  0.6958 -0.4388  1.0016
  287MOL0     C37771  11.999   8.899   8.648 -0.0483 -0.0503 -0.5035
  287MOL0     C37772  12.043   8.846   8.518  0.7664  0.0399 -0.5275
  287MOL0     C37773  12.081   8.948   8.413 -0.3692  0.4807  0.5160
  287MOL0     C37774  12.140   8.860   8.292  0.4124 -0.7586 -0.8139
  287MOL0     C37775  12.178   8.937   8.170  0.2744  0.3940 -0.6350
  287MOL0     O37776  12.066   9.011   8.113 -0.7303  0.3757 -0.1350
  287MOL0     C37777  12.095   9.096   8.005  0.0454  0.2140  0.2952
  287MOL0     C37778  12.172   9.062   7.894  0.5525 -0.0255 -0.5411
  287MOL0     C37779  12.194   9.148   7.791 -0.7527 -0.3875  0.8610
  287MOL0     C37780  12.140   9.273   7.788 -0.0045  0.0058  0.2712
  287MOL0     C37781  12.172   9.379   7.679  0.3865  1.6910 -0.5288
  287MOL0     O37782  12.124   9.509   7.692 -0.5307  1.0484 -0.3676
  287MOL0     C37783  12.147   9.583   7.577 -0.1326 -0.2414 -0.4246
  287MOL0     C37784  12.247   9.673   7.584 -0.5231  0.1819  0.3372
  287MOL0     C37785  12.306   9.731   7.474 -0.3040 -0.2341 -0.0929
  287MOL0     C37786  12.238   9.716   7.347  0.2846 -0.0379  0.9808
  287MOL0     O37787  12.267   9.759   7.220  0.2572  0.2241 -0.1744
  287MOL0     C37788  12.385   9.839   7.214 -0.7501 -0.0205  0.1214
  287MOL0     C37789  12.369   9.988   7.248  0.6933 -0.0582 -0.7547
  287MOL0     C37790  12.505  10.068   7.253  0.1900  0.2099 -0.5157
  287MOL0     C37791  12.495  10.220   7.243  0.3262 -0.5926 -0.2515
  287MOL0     C37792  12.433  10.263   7.380  1.2868 -0.3879 -0.9096
  287MOL0     C37793  12.461  10.405   7.412  0.5690 -0.4020 -0.2412
  287MOL0     C37794  12.402  10.430   7.564 -0.9188  0.4664  0.8330
  287MOL0     C37795  12.247  10.418   7.575 -1.0014 -0.1861 -0.5376
  287MOL0    Cl37796  12.208  10.459   7.743  0.0051 -0.2624  0.0013
  287MOL0     C37797  12.121   9.630   7.350 -0.4607  0.0351  0.8512
  287MOL0     C37798  12.078   9.562   7.459  0.7920 -0.4948 -0.0173
  287MOL0     O37799  12.232   9.333   7.587 -1.1178  0.0099  0.1414
  287MOL0     C37800  12.062   9.315   7.906  1.1438  0.1695  0.3884
  287MOL0     C37801  12.037   9.225   8.009  0.1699 -0.0567 -0.8877
  287MOL0     N37802  11.953   9.032   8.662  0.5044 -0.0091 -0.3476
  287MOL0     N37803  11.920   9.054   8.782 -0.0152 -0.2276  0.3211
  287MOL0     C37804  11.480   9.234   9.803 -0.7424  0.5451  0.7256
  287MOL0     C37805  11.390   9.335   9.800 -0.0906 -0.8883 -1.1788
  287MOL0     C37806  11.023   9.602   9.682 -0.4408 -0.7597  0.0427
  287MOL0     C37807  11.084   9.730   9.708 -0.3836 -0.4794 -1.0066
  287MOL0     C37808  11.004   9.848   9.732  0.0013 -0.7520 -0.6669
  287MOL0     C37809  10.867   9.846   9.719 -0.1029 -0.6078 -0.5550
  287MOL0     O37810  10.805   9.970   9.726 -0.0826  0.5219  0.1615
  287MOL0     C37811  10.661   9.978   9.762 -0.6726 -0.7004  0.0640
  287MOL0     C37812  10.664   9.966   9.920 -0.5665 -0.4738 -0.1868
  287MOL0     C37813  10.517   9.998   9.972 -0.9417 -0.4507 -0.8750
  287MOL0     C37814  10.494   9.927  10.104 -0.6901  0.2070  0.6217
  287MOL0     C37815  10.363   9.966  10.153 -0.0138  0.4609 -0.6882
  287MOL0     C37816  10.253   9.955  10.199 -0.1273 -0.3544  0.1152
  287MOL0     C37817  10.807   9.728   9.682 -0.2344 -0.2744  0.0650
  287MOL0     C37818  10.889   9.613   9.668  0.6877  0.2305 -0.8294
  287MOL0     H37819  11.197   9.243   9.549  0.0618  3.3372  0.7928
  287MOL0     H37820  11.341   9.042   9.562  0.2218  0.2271 -0.9326
  287MOL0     H37821  11.742   9.058   9.832  0.6021 -3.4130  0.6359
  287MOL0     H37822  11.732   9.152   9.678  1.2081 -1.4898  0.2068
  287MOL0     H37823  11.729   8.852   9.720 -0.9190  2.0746  2.5730
  287MOL0     H37824  11.876   8.943   9.670 -0.4859  4.0825 -0.5978
  287MOL0     H37825  11.626   8.933   9.492 -1.2585 -1.1155  1.2259
  287MOL0     H37826  11.771   8.844   9.463  2.3909  2.8361 -0.6143
  287MOL0     H37827  11.761   9.143   9.469  0.4649  1.2666 -3.7918
  287MOL0     H37828  11.907   9.049   9.483 -0.7683 -2.0411  2.8344
  287MOL0     H37829  11.730   9.120   9.247  2.0298  0.6037 -1.4677
  287MOL0     H37830  11.763   8.954   9.262  0.6659 -0.3593  1.2956
  287MOL0     H37831  12.006   8.998   9.268  2.6527  1.7196 -0.5663
  287MOL0     H37832  11.967   9.174   9.245 -3.1457  0.2267 -1.1431
  287MOL0     H37833  11.848   9.128   9.035 -3.2553 -1.3659  5.5442
  287MOL0     H37834  12.024   9.114   9.026  0.4249 -1.7788 -0.7604
  287MOL0     H37835  11.832   8.872   9.034  0.2818 -1.6740 -1.0356
  287MOL0     H37836  12.013   8.871   9.036  0.1283  0.7912  0.2563
  287MOL0     H37837  11.998   8.734   8.787  0.5347 -0.8867 -1.0426
  287MOL0     H37838  11.958   8.787   8.482  1.1450 -2.2101  1.9493
  287MOL0     H37839  12.116   8.765   8.525  1.3351  0.5647 -0.3794
  287MOL0     H37840  12.154   9.019   8.453 -1.8063  2.5154 -0.2768
  287MOL0     H37841  12.001   9.009   8.371 -0.4782 -1.2842 -2.0669
  287MOL0     H37842  12.220   8.800   8.335  2.4966  3.4936  1.9608
  287MOL0     H37843  12.059   8.796   8.257 -1.0809  1.2197 -1.1698
  287MOL0     H37844  12.231   8.870   8.102 -2.2190 -0.6415 -1.6860
  287MOL0     H37845  12.256   9.008   8.199  0.9005 -0.0520 -1.1792
  287MOL0     H37846  12.212   8.962   7.879  1.1765 -0.0973  1.3810
  287MOL0     H37847  12.260   9.123   7.709  1.2754  3.1660  1.2218
  287MOL0     H37848  12.308   9.689   7.673  0.1110 -0.0222 -0.0547
  287MOL0     H37849  12.402   9.780   7.482  0.5640 -2.0779  1.3599
  287MOL0     H37850  12.411   9.821   7.109 -0.8736 -0.5912  0.1844
  287MOL0     H37851  12.470   9.796   7.268 -0.0755 -1.3119 -1.8503
  287MOL0     H37852  12.329  10.003   7.349  1.2970 -1.2614 -0.3284
  287MOL0     H37853  12.299  10.032   7.176 -0.9104  0.4326  1.0058
  287MOL0     H37854  12.570  10.033   7.172  1.9972 -0.1671  1.0171
  287MOL0     H37855  12.559  10.039   7.344 -0.5483  0.9143  0.1642
  287MOL0     H37856  12.592  10.270   7.240 -1.3615  2.8635 -2.2210
  287MOL0     H37857  12.445  10.260   7.155  1.2200 -3.3451 -2.1257
  287MOL0     H37858  12.452  10.190   7.459 -0.0054  0.3989  0.1766
  287MOL0     H37859  12.327  10.259   7.353  1.4078 -1.7011 -1.2425
  287MOL0     H37860  12.415  10.477   7.344 -1.0538  0.3129  1.5439
  287MOL0     H37861  12.569  10.416   7.422  0.2745  2.0807  1.0109
  287MOL0     H37862  12.442  10.349   7.625  0.2947 -0.4359 -1.0679
  287MOL0     H37863  12.449  10.516   7.611 -0.5320  0.2045  0.9332
  287MOL0     H37864  12.203  10.320   7.553 -3.6503  0.3302  1.7141
  287MOL0     H37865  12.208  10.496   7.509  2.6478  1.2240 -1.2691
  287MOL0     H37866  12.073   9.610   7.255 -0.3494  0.4594  0.7028
  287MOL0     H37867  11.986   9.504   7.459  0.7354 -0.4039  0.1058
  287MOL0     H37868  12.033   9.419   7.911 -1.8069 -0.5034 -0.5097
  287MOL0     H37869  11.990   9.260   8.100  2.5155  1.4031 -0.1548
  287MOL0     H37870  11.551   9.214   9.883  0.4817 -0.3834 -0.5468
  287MOL0     H37871  11.404   9.410   9.877 -1.7717  1.6094 -3.1455
  287MOL0     H37872  11.189   9.728   9.736 -0.9834  1.0831  1.6536
  287MOL0     H37873  11.054   9.937   9.771  0.2512 -0.5726 -1.3759
  287MOL0     H37874  10.601   9.899   9.716  0.5972 -0.0309 -2.9664
  287MOL0     H37875  10.632  10.078   9.731 -1.3051 -0.4738  1.3007
  287MOL0     H37876  10.682   9.862   9.948  0.4390  0.5230  3.4432
  287MOL0     H37877  10.740  10.025   9.971 -2.9173 -1.3438  4.9604
  287MOL0     H37878  10.450   9.953   9.898  2.2525 -1.0863 -3.6068
  287MOL0     H37879  10.501  10.106   9.977 -1.7926 -0.4176 -3.1395
  287MOL0     H37880  10.477   9.819  10.097  0.2528  0.1726 -2.5652
  287MOL0     H37881  10.573   9.950  10.177  1.9778 -0.8410 -1.7604
  287MOL0     H37882  10.158   9.968  10.248 -1.1095  1.2301 -2.0171
  287MOL0     H37883  10.702   9.722   9.654 -0.6867 -0.2875  1.6939
  287MOL0     H37884  10.828   9.527   9.641 -1.5238  0.9507  1.3566
  288MOL0     O37885   0.673   8.365   0.771 -0.4265  0.7867 -1.4233
  288MOL0     C37886   0.716   8.298   0.680  0.2038 -0.0475 -0.2122
  288MOL0     O37887   0.775   8.345   0.563  0.2821  0.1563  0.1958
  288MOL0     C37888   0.731   8.462   0.505  0.4728  0.5365  0.6123
  288MOL0     C37889   0.823   8.546   0.443  0.2666 -0.5548  0.1264
  288MOL0     C37890   0.779   8.672   0.408 -0.3820  0.8875  0.3754
  288MOL0     C37891   0.649   8.714   0.415 -0.4473 -0.8081 -0.0460
  288MOL0     O37892   0.618   8.851   0.398 -0.2669 -0.5797  0.6606
  288MOL0     C37893   0.705   8.963   0.346  0.6139 -0.5451 -0.0729
  288MOL0     C37894   0.709   8.960   0.204 -1.1898  0.3039  0.6575
  288MOL0     C37895   0.759   9.088   0.116 -0.1492 -0.0221  0.2555
  288MOL0     C37896   0.703   9.089  -0.042 -0.4687  0.3537 -1.3435
  288MOL0     C37897   0.797   9.178  -0.124 -0.0704 -0.6051 -0.0574
  288MOL0     C37898   0.775   9.325  -0.091  0.2448  1.3127  0.2171
  288MOL0     C37899   0.852   9.412  -0.196  0.1713 -1.3080 -0.1224
  288MOL0     C37900   0.858   9.565  -0.166 -0.4183 -0.0375  0.0603
  288MOL0     N37901   0.954   9.625  -0.255  0.2895  0.2641 -0.2178
  288MOL0     C37902   0.947   9.646  -0.384  0.1310 -0.3164  0.0632
  288MOL0     C37903   1.075   9.672  -0.431 -0.5751  0.4675  0.5651
  288MOL0     C37904   1.115   9.684  -0.579 -0.8174  0.8960  0.8158
  288MOL0     C37905   1.148   9.551  -0.645  1.3324  1.0582  0.8238
  288MOL0     C37906   1.258   9.470  -0.573 -0.0241 -0.1147  0.0990
  288MOL0     C37907   1.350   9.383  -0.660 -0.9633 -0.7407 -0.5418
  288MOL0     O37908   1.467   9.350  -0.575  0.2018  0.0155 -0.4222
  288MOL0     C37909   1.574   9.290  -0.624 -0.4330 -0.1010  0.1103
  288MOL0     C37910   1.605   9.251  -0.759 -0.6733  1.4049 -0.3319
  288MOL0     C37911   1.728   9.181  -0.783  0.5673 -0.4770  0.0279
  288MOL0     C37912   1.837   9.169  -0.693  0.8366  0.1028  0.6842
  288MOL0     C37913   1.952   9.093  -0.727 -0.8584  0.1930  0.3078
  288MOL0     O37914   1.945   9.026  -0.845  0.3813 -0.2881  0.5201
  288MOL0     C37915   2.065   8.969  -0.892 -0.0698 -0.1157 -0.5241
  288MOL0     C37916   2.187   9.034  -0.923  0.4419 -0.1172 -0.0084
  288MOL0     C37917   2.303   8.974  -0.974 -0.1250  0.1550  0.0604
  288MOL0     C37918   2.295   8.843  -1.001 -0.6441 -0.0982 -0.6778
  288MOL0     O37919   2.414   8.790  -1.044  0.2274  0.0679  0.2491
  288MOL0     C37920   2.423   8.747  -1.186 -0.6138  0.1722 -0.1290
  288MOL0     C37921   2.499   8.843  -1.259 -0.1109  0.3618  0.8754
  288MOL0     C37922   2.631   8.887  -1.197  0.0396 -0.5908  1.2475
  288MOL0     C37923   2.751   8.881  -1.304  0.2163  0.4686 -0.6753
  288MOL0     C37924   2.877   8.948  -1.245 -1.1692 -0.1194  0.7595
  288MOL0     C37925   2.990   8.965  -1.347  0.1589 -0.0407 -0.8114
  288MOL0     C37926   3.108   9.026  -1.276 -0.0234  0.0591  0.0216
  288MOL0     C37927   3.219   9.071  -1.360  0.2611 -0.4734 -0.1444
  288MOL0    Cl37928   3.332   9.176  -1.272  0.1972  0.1076  0.1971
  288MOL0     C37929   2.176   8.776  -0.986  0.5589 -0.3961 -0.7880
  288MOL0     C37930   2.062   8.830  -0.929 -1.1671  0.8014  0.0254
  288MOL0     O37931   2.043   9.080  -0.650  0.0048  0.2861 -0.2339
  288MOL0     C37932   1.810   9.221  -0.566  0.0510 -0.6515  0.2590
  288MOL0     C37933   1.685   9.272  -0.536  0.3772 -0.0979 -0.5453
  288MOL0     N37934   1.163   9.676  -0.331 -0.4208 -0.6728 -0.1301
  288MOL0     N37935   1.084   9.655  -0.229 -0.1021  0.4502 -0.7501
  288MOL0     C37936   0.548   8.627   0.461 -0.0447 -0.2219 -0.2326
  288MOL0     C37937   0.590   8.503   0.507  0.0985  0.3828 -0.2381
  288MOL0     C37938   0.691   8.154   0.698 -0.5655 -0.9493  1.6773
  288MOL0     C37939   0.764   8.074   0.610 -0.0226  1.5116 -0.4788
  288MOL0     C37940   0.743   7.932   0.607  0.3448  0.2466 -0.2821
  288MOL0     C37941   0.648   7.877   0.694  0.2314  0.4333  0.5237
  288MOL0     O37942   0.608   7.751   0.691 -0.1930  0.0299 -0.5909
  288MOL0     C37943   0.698   7.641   0.662 -0.4244 -0.0277 -1.0181
  288MOL0     C37944   0.793   7.623   0.774 -0.3214  0.7072 -0.7186
  288MOL0     C37945   0.847   7.473   0.774 -0.1730  0.9814 -0.5314
  288MOL0     C37946   0.989   7.452   0.703  0.1945  1.3882 -0.2682
  288MOL0     C37947   1.098   7.480   0.799 -0.1560 -0.4677 -0.0795
  288MOL0     C37948   1.172   7.495   0.892 -0.5717  0.3490 -0.4567
  288MOL0     C37949   0.574   7.961   0.775 -0.3323 -0.0226 -0.1480
  288MOL0     C37950   0.601   8.096   0.785 -0.5792  1.2500  0.1598
  288MOL0     H37951   0.929   8.522   0.435  0.6046 -0.9440  4.0069
  288MOL0     H37952   0.860   8.740   0.384  1.4685 -1.8734 -1.9670
  288MOL0     H37953   0.804   8.957   0.392  0.9598 -0.1102 -0.7507
  288MOL0     H37954   0.678   9.064   0.377  1.7344 -0.9861  2.6846
  288MOL0     H37955   0.608   8.932   0.172 -0.2582 -1.7041 -0.7962
  288MOL0     H37956   0.768   8.872   0.178 -3.8595 -0.6587 -3.1244
  288MOL0     H37957   0.867   9.074   0.124 -0.4886 -4.3271 -0.6423
  288MOL0     H37958   0.723   9.179   0.167  1.6222 -0.0405  1.6567
  288MOL0     H37959   0.707   8.984  -0.073  0.0576 -0.4350  1.1927
  288MOL0     H37960   0.605   9.138  -0.039 -1.9900 -2.4782  1.9917
  288MOL0     H37961   0.778   9.170  -0.231  3.0865  0.4117 -0.8037
  288MOL0     H37962   0.899   9.140  -0.111 -0.9294 -3.6044 -1.3503
  288MOL0     H37963   0.821   9.337   0.007  1.9893 -1.4835 -0.1641
  288MOL0     H37964   0.668   9.349  -0.097  0.4858  2.0608 -2.9539
  288MOL0     H37965   0.953   9.371  -0.209  0.9912 -1.5685  4.9626
  288MOL0     H37966   0.795   9.393  -0.287  0.7161 -0.6951 -0.6038
  288MOL0     H37967   0.894   9.586  -0.065 -1.3791  3.3398 -0.1817
  288MOL0     H37968   0.759   9.607  -0.183 -0.2753 -0.5822 -2.5310
  288MOL0     H37969   0.860   9.625  -0.445  0.0086  0.0741  0.0996
  288MOL0     H37970   1.203   9.749  -0.587 -1.5635  1.8163 -0.2927
  288MOL0     H37971   1.028   9.730  -0.628 -1.3918 -1.7582 -0.8318
  288MOL0     H37972   1.185   9.584  -0.742  0.4247  0.5228  0.2778
  288MOL0     H37973   1.053   9.499  -0.664  1.9094  0.4600 -0.5239
  288MOL0     H37974   1.320   9.546  -0.524  0.7202 -2.0668  2.4143
  288MOL0     H37975   1.209   9.416  -0.492  3.0351 -2.6364  0.4729
  288MOL0     H37976   1.385   9.444  -0.743  1.0868  2.6751  2.5304
  288MOL0     H37977   1.310   9.288  -0.697  0.7721 -1.6054 -0.3096
  288MOL0     H37978   1.526   9.252  -0.833 -2.1259 -1.1403  1.0646
  288MOL0     H37979   1.739   9.140  -0.883 -2.1864 -0.6737 -0.2820
  288MOL0     H37980   2.220   9.130  -0.884 -0.2146  0.4364 -0.7916
  288MOL0     H37981   2.400   9.021  -0.981  0.7949 -1.4456  1.4271
  288MOL0     H37982   2.322   8.746  -1.229 -0.9374  0.0347  0.6042
  288MOL0     H37983   2.477   8.653  -1.178 -0.2422  0.2310 -1.6685
  288MOL0     H37984   2.432   8.930  -1.265 -2.1981 -1.0455  2.4659
  288MOL0     H37985   2.517   8.804  -1.359 -0.6743  0.5563  0.6929
  288MOL0     H37986   2.667   8.824  -1.115 -0.8395  0.7124  2.6851
  288MOL0     H37987   2.619   8.989  -1.160 -0.9084 -1.5257  3.7321
  288MOL0     H37988   2.774   8.779  -1.335 -0.5358  0.2516 -0.5473
  288MOL0     H37989   2.723   8.940  -1.392 -0.1931 -0.0164 -0.8757
  288MOL0     H37990   2.908   8.876  -1.169  1.1360 -0.1554 -0.1402
  288MOL0     H37991   2.858   9.041  -1.192  2.6496 -0.2820  2.7623
  288MOL0     H37992   2.949   9.029  -1.426 -2.3089 -0.6106 -0.0945
  288MOL0     H37993   3.013   8.867  -1.391  1.5183  0.3123 -0.9258
  288MOL0     H37994   3.074   9.117  -1.225  0.6782 -0.1741  0.9244
  288MOL0     H37995   3.145   8.952  -1.205 -1.6945  0.0398  0.9268
  288MOL0     H37996   3.178   9.123  -1.447  0.0281 -2.5391 -1.3351
  288MOL0     H37997   3.279   8.998  -1.416 -0.6211  0.6635 -2.7255
  288MOL0     H37998   2.190   8.672  -1.012  0.7285 -0.2721 -1.1991
  288MOL0     H37999   1.979   8.769  -0.894  0.8824 -0.0898  3.8302
  288MOL0     H38000   1.880   9.219  -0.482  0.4363 -0.9168 -0.0634
  288MOL0     H38001   1.665   9.309  -0.436  1.5739  2.1041 -1.0552
  288MOL0     H38002   0.441   8.644   0.471  0.2927  2.1243  0.1679
  288MOL0     H38003   0.516   8.428   0.532  1.5121 -2.3008 -3.4235
  288MOL0     H38004   0.840   8.101   0.537  2.5145 -2.5071  0.2996
  288MOL0     H38005   0.813   7.879   0.544 -0.2345  1.0366 -1.6433
  288MOL0     H38006   0.764   7.651   0.575  1.5112 -1.0685  0.2477
  288MOL0     H38007   0.640   7.553   0.634 -1.9035  1.0147 -1.3109
  288MOL0     H38008   0.875   7.695   0.761 -0.0330  0.3271 -1.0087
  288MOL0     H38009   0.741   7.649   0.866  0.1579 -1.3910  0.2064
  288MOL0     H38010   0.776   7.408   0.721 -0.3139  0.4745  0.2762
  288MOL0     H38011   0.841   7.450   0.880 -4.1707  5.4201  0.5356
  288MOL0     H38012   1.001   7.344   0.692 -3.0469  0.4662  3.1710
  288MOL0     H38013   1.009   7.504   0.609  0.1729 -1.0161 -1.6945
  288MOL0     H38014   1.236   7.519   0.975  0.7253  1.1879 -1.6569
  288MOL0     H38015   0.491   7.925   0.836  1.0419 -0.0601  1.7838
  288MOL0     H38016   0.525   8.149   0.841 -1.5410 -1.7050  1.8907
  289MOL0     O38017   7.575   4.580   8.671  0.1038 -0.0464 -0.4583
  289MOL0     C38018   7.534   4.470   8.723 -0.7936 -1.0566  0.6406
  289MOL0     O38019   7.548   4.431   8.853 -0.6285  0.1008 -0.5690
  289MOL0     C38020   7.630   4.503   8.936 -0.3963  0.2498 -0.5571
  289MOL0     C38021   7.632   4.647   8.954 -0.0585 -0.2586  0.9940
  289MOL0     C38022   7.726   4.720   9.026 -0.4380  1.1472  0.0481
  289MOL0     C38023   7.820   4.653   9.108  0.0663  0.0469  1.2307
  289MOL0     O38024   7.914   4.730   9.167  0.2908  0.4652 -0.2728
  289MOL0     C38025   8.007   4.671   9.250  0.1653  0.2946 -0.1746
  289MOL0     C38026   8.109   4.766   9.304 -0.3551  0.2130  0.0794
  289MOL0     C38027   8.181   4.701   9.431 -0.3968 -0.2110 -0.0728
  289MOL0     C38028   8.256   4.810   9.512  0.7932 -0.2736 -0.1591
  289MOL0     C38029   8.305   4.764   9.648  0.3776 -0.4316  0.3076
  289MOL0     C38030   8.419   4.682   9.632 -0.7386 -0.5242 -0.1445
  289MOL0     C38031   8.513   4.685   9.763  0.0222  0.3360 -0.7500
  289MOL0     C38032   8.597   4.807   9.779 -0.0206 -0.4072  0.1274
  289MOL0     N38033   8.729   4.788   9.717 -0.3528  0.0569  0.2665
  289MOL0     C38034   8.752   4.745   9.589  0.0515  0.2784  0.7164
  289MOL0     C38035   8.883   4.747   9.573  0.2758  0.7348 -0.4754
  289MOL0     C38036   8.950   4.706   9.455  0.6409 -0.0983  0.9973
  289MOL0     C38037   8.856   4.616   9.366  0.0929  0.8569 -0.4637
  289MOL0     C38038   8.930   4.563   9.242  0.2524 -0.0019 -0.8143
  289MOL0     C38039   8.855   4.583   9.105 -0.1689 -1.0267 -0.4694
  289MOL0     O38040   8.917   4.497   9.010  0.2059 -0.4789  1.0207
  289MOL0     C38041   8.842   4.497   8.888  0.0353 -0.2750 -0.6040
  289MOL0     C38042   8.741   4.589   8.848  0.9987 -0.0337 -0.3740
  289MOL0     C38043   8.697   4.581   8.722  0.2821  0.2876  0.6410
  289MOL0     C38044   8.723   4.470   8.632 -0.1964  0.6268  0.1564
  289MOL0     C38045   8.654   4.459   8.492 -0.0876 -0.3673 -0.4066
  289MOL0     O38046   8.558   4.555   8.455 -1.2472  0.1588 -0.0393
  289MOL0     C38047   8.467   4.518   8.361 -0.2499  0.5686 -0.1051
  289MOL0     C38048   8.352   4.447   8.391  0.0220  0.5928 -0.0240
  289MOL0     C38049   8.261   4.413   8.299 -0.1818  0.2890  0.0361
  289MOL0     C38050   8.274   4.451   8.161 -0.7230 -0.5351  1.1694
  289MOL0     O38051   8.180   4.410   8.065 -0.3319  0.4723  0.1427
  289MOL0     C38052   8.224   4.372   7.934 -0.5377  0.2878  0.3522
  289MOL0     C38053   8.146   4.258   7.878 -0.2878  0.5841 -0.4822
  289MOL0     C38054   8.018   4.289   7.813 -0.5888  0.4534  0.7142
  289MOL0     C38055   7.945   4.174   7.736  0.1990 -0.2917 -0.1409
  289MOL0     C38056   7.834   4.203   7.635  0.4619 -0.3534  0.0052
  289MOL0     C38057   7.694   4.228   7.703 -0.0384  0.0880 -0.5060
  289MOL0     C38058   7.582   4.220   7.604 -0.1643  0.1598  1.0782
  289MOL0     C38059   7.575   4.351   7.523 -1.1230 -1.1008  1.0308
  289MOL0    Cl38060   7.472   4.307   7.377 -0.3074  0.2260  0.1118
  289MOL0     C38061   8.393   4.514   8.122  0.6960 -1.4741 -0.7080
  289MOL0     C38062   8.485   4.553   8.218 -0.5168  0.2900 -0.1068
  289MOL0     O38063   8.670   4.351   8.428  0.1193  0.5794  0.1021
  289MOL0     C38064   8.820   4.373   8.673  0.4472 -0.1187  0.3545
  289MOL0     C38065   8.881   4.399   8.800  0.1858  0.5407 -0.2741
  289MOL0     N38066   8.937   4.784   9.695  0.5071  0.2324  0.3323
  289MOL0     N38067   8.846   4.791   9.788  0.6656  0.5148 -0.3031
  289MOL0     C38068   7.817   4.505   9.099 -0.3682 -0.2473  0.0297
  289MOL0     C38069   7.724   4.438   9.012 -0.3292  0.4238  0.4192
  289MOL0     C38070   7.479   4.369   8.628 -0.1984  0.3140  0.1979
  289MOL0     C38071   7.441   4.242   8.679  0.5026  0.4463  1.1252
  289MOL0     C38072   7.381   4.143   8.594 -0.8517  0.5892 -0.0032
  289MOL0     C38073   7.355   4.159   8.457 -0.5655  0.0243  0.0527
  289MOL0     O38074   7.276   4.077   8.389 -0.3224  0.5162  0.0979
  289MOL0     C38075   7.177   4.127   8.297 -0.7612  0.0522  0.6225
  289MOL0     C38076   7.232   4.115   8.149  0.6441 -1.2860 -0.1571
  289MOL0     C38077   7.167   3.997   8.072 -0.1471  0.3911 -1.1491
  289MOL0     C38078   7.235   3.935   7.952 -0.2659  0.7588 -0.3224
  289MOL0     C38079   7.147   3.824   7.903 -0.1324  0.1502 -0.7175
  289MOL0     C38080   7.060   3.743   7.865 -1.0610 -0.5046 -0.1975
  289MOL0     C38081   7.398   4.282   8.408 -0.1266  0.4859  0.6482
  289MOL0     C38082   7.454   4.387   8.487 -0.1449 -0.0636 -0.6682
  289MOL0     H38083   7.556   4.702   8.899 -0.0063 -0.9809  0.1624
  289MOL0     H38084   7.728   4.828   9.035  1.1197  1.0376  1.5759
  289MOL0     H38085   8.068   4.591   9.207 -1.3091 -0.6897 -0.4869
  289MOL0     H38086   7.954   4.618   9.330  1.2730  3.1143  2.6781
  289MOL0     H38087   8.065   4.864   9.322  0.2491  0.6436 -0.7301
  289MOL0     H38088   8.179   4.789   9.223 -0.8591 -2.9766 -1.4143
  289MOL0     H38089   8.250   4.621   9.404  0.1954 -0.9599  3.3338
  289MOL0     H38090   8.104   4.671   9.503  0.3474  0.1592  0.8897
  289MOL0     H38091   8.341   4.846   9.453  0.0351  0.7522 -0.6560
  289MOL0     H38092   8.185   4.892   9.525  0.5427 -0.6188  0.6943
  289MOL0     H38093   8.228   4.712   9.706  0.1609  0.6965  1.0541
  289MOL0     H38094   8.334   4.857   9.698  2.4591  0.2364 -1.9678
  289MOL0     H38095   8.474   4.711   9.542 -2.5811  2.1394 -0.5136
  289MOL0     H38096   8.396   4.577   9.610 -1.5740 -0.9077  2.2811
  289MOL0     H38097   8.445   4.679   9.848  2.2187  1.5940  1.1904
  289MOL0     H38098   8.580   4.598   9.764 -0.4657 -0.1806  3.6152
  289MOL0     H38099   8.597   4.831   9.886 -3.4023  1.8331 -0.2343
  289MOL0     H38100   8.558   4.898   9.731  3.1252 -0.2719 -2.4866
  289MOL0     H38101   8.680   4.707   9.518  1.0122  0.0874 -0.1844
  289MOL0     H38102   9.047   4.659   9.477  1.6320  1.9069  1.1813
  289MOL0     H38103   8.982   4.798   9.404  1.8543 -1.6652 -1.2248
  289MOL0     H38104   8.772   4.682   9.342 -0.9554 -0.0938  0.4858
  289MOL0     H38105   8.806   4.534   9.419 -2.5224  1.4307 -1.8803
  289MOL0     H38106   9.032   4.601   9.239  0.7778 -1.4095 -2.6776
  289MOL0     H38107   8.933   4.455   9.256  0.3141 -0.1649 -1.9979
  289MOL0     H38108   8.889   4.683   9.077  3.2502 -2.3044 -1.4588
  289MOL0     H38109   8.748   4.567   9.117 -0.2533  0.1041  0.4792
  289MOL0     H38110   8.717   4.679   8.904 -3.2779  0.6162 -2.8199
  289MOL0     H38111   8.634   4.664   8.692  1.8369  1.5462  0.7223
  289MOL0     H38112   8.342   4.412   8.494  2.0357  2.4109  0.8674
  289MOL0     H38113   8.174   4.358   8.330  0.4948 -2.1821 -2.0864
  289MOL0     H38114   8.330   4.344   7.944  0.2723  3.1295  0.3892
  289MOL0     H38115   8.228   4.464   7.875  1.9912  1.3928  2.0680
  289MOL0     H38116   8.127   4.172   7.943  0.9274  0.6769  0.0138
  289MOL0     H38117   8.203   4.218   7.794  0.1633  1.2950 -0.5166
  289MOL0     H38118   8.035   4.378   7.752 -0.4945  2.6700  3.7398
  289MOL0     H38119   7.954   4.325   7.894 -3.0514  1.2385 -1.4228
  289MOL0     H38120   8.016   4.136   7.662 -1.8613 -1.2864 -1.7141
  289MOL0     H38121   7.918   4.088   7.799  0.1540 -1.5427 -1.7870
  289MOL0     H38122   7.832   4.111   7.577 -2.1591 -0.8928  0.7843
  289MOL0     H38123   7.855   4.290   7.573 -1.0658  0.9075  1.1678
  289MOL0     H38124   7.694   4.324   7.756  0.8996 -0.0372 -0.2618
  289MOL0     H38125   7.684   4.137   7.764 -1.6156 -2.0173 -3.6142
  289MOL0     H38126   7.602   4.133   7.541  0.0644  1.2525 -0.4202
  289MOL0     H38127   7.492   4.199   7.663 -1.4325 -0.4130 -0.9770
  289MOL0     H38128   7.672   4.376   7.478 -2.7801 -0.9613 -2.8246
  289MOL0     H38129   7.520   4.432   7.572 -2.1204 -2.8328  2.9312
  289MOL0     H38130   8.424   4.550   8.024  0.4713  2.0824  0.3622
  289MOL0     H38131   8.574   4.605   8.184 -0.5122  0.0641 -0.4403
  289MOL0     H38132   8.857   4.294   8.608 -0.7336  2.6016 -4.0385
  289MOL0     H38133   8.963   4.338   8.837 -1.7687 -0.1127  3.4881
  289MOL0     H38134   7.880   4.442   9.161  1.9059  2.3758  0.6342
  289MOL0     H38135   7.731   4.330   9.002 -0.8009  0.5375 -1.5123
  289MOL0     H38136   7.453   4.212   8.782 -1.1952 -1.2367  0.8745
  289MOL0     H38137   7.345   4.055   8.646 -0.3592 -0.3482 -1.2077
  289MOL0     H38138   7.160   4.230   8.330  0.3204 -0.1014  1.7386
  289MOL0     H38139   7.079   4.082   8.313 -0.4082 -1.1492 -0.4368
  289MOL0     H38140   7.219   4.210   8.095  0.9064  0.6611  2.9554
  289MOL0     H38141   7.340   4.098   8.154  0.6420 -1.7504 -1.2911
  289MOL0     H38142   7.070   4.042   8.048 -0.3511  1.8644  1.8886
  289MOL0     H38143   7.162   3.915   8.144 -1.4998  0.7530 -0.7943
  289MOL0     H38144   7.265   4.009   7.878  0.2843  0.8072 -0.0618
  289MOL0     H38145   7.324   3.880   7.985 -0.9860 -1.2184 -1.5117
  289MOL0     H38146   6.987   3.688   7.809 -1.6915  1.2624 -1.1825
  289MOL0     H38147   7.399   4.294   8.300 -0.2736 -1.5030  0.3951
  289MOL0     H38148   7.487   4.482   8.446 -0.6086 -0.3189 -1.6764
  290MOL0     O38149   6.927   1.660   8.331 -0.0714 -1.0390  0.3809
  290MOL0     C38150   7.013   1.744   8.293 -0.0761  0.0219 -0.1035
  290MOL0     O38151   7.142   1.757   8.347 -0.5182  0.4890 -0.3585
  290MOL0     C38152   7.180   1.653   8.425  1.0791 -0.1381 -0.3214
  290MOL0     C38153   7.217   1.675   8.565 -0.1257 -0.3743  0.5382
  290MOL0     C38154   7.264   1.573   8.637 -0.4415  0.2352 -0.4366
  290MOL0     C38155   7.278   1.447   8.577 -0.2095  0.7565 -0.1505
  290MOL0     O38156   7.323   1.343   8.655 -1.1457 -0.4469  0.2099
  290MOL0     C38157   7.221   1.246   8.685 -0.5780 -0.1625  0.6357
  290MOL0     C38158   7.277   1.130   8.761 -0.2269 -0.4076  0.8190
  290MOL0     C38159   7.384   1.053   8.689  1.4114 -0.6080 -1.0244
  290MOL0     C38160   7.423   0.934   8.778 -0.4820  0.1574 -0.1365
  290MOL0     C38161   7.323   0.837   8.845 -0.7396  0.5168  0.9019
  290MOL0     C38162   7.395   0.768   8.967 -0.0694 -0.6842 -0.5289
  290MOL0     C38163   7.337   0.632   8.996  0.0202 -0.8962 -0.7186
  290MOL0     C38164   7.194   0.629   9.051  0.3509  0.3497  0.2151
  290MOL0     N38165   7.123   0.516   8.993 -0.3170 -0.4019  0.0353
  290MOL0     C38166   7.120   0.490   8.855 -0.7975  0.8419  0.3035
  290MOL0     C38167   7.051   0.372   8.856 -0.1424  0.2415  0.2313
  290MOL0     C38168   6.995   0.326   8.723 -0.0951  1.1220 -0.4268
  290MOL0     C38169   6.847   0.359   8.696 -0.2589  0.1881  0.2121
  290MOL0     C38170   6.760   0.286   8.796  0.5956 -0.4590  0.1545
  290MOL0     C38171   6.613   0.304   8.756 -0.5413 -0.1703  0.2406
  290MOL0     O38172   6.525   0.337   8.873 -0.2304 -0.6494  0.8698
  290MOL0     C38173   6.544   0.466   8.923  0.3969  0.2572 -1.2603
  290MOL0     C38174   6.617   0.565   8.869 -0.7103 -0.5346 -0.4616
  290MOL0     C38175   6.629   0.687   8.932 -1.5213  0.1001 -0.2591
  290MOL0     C38176   6.551   0.728   9.030 -0.3946  0.2332 -0.6547
  290MOL0     C38177   6.555   0.864   9.078  0.1708 -0.6232 -0.3560
  290MOL0     O38178   6.657   0.948   9.040  0.3234  0.1690 -0.0080
  290MOL0     C38179   6.646   1.082   9.087 -0.0286 -0.1403  0.5677
  290MOL0     C38180   6.599   1.198   9.022  0.0476 -0.2224  0.0945
  290MOL0     C38181   6.600   1.322   9.071  0.7095  0.7587  0.2096
  290MOL0     C38182   6.638   1.345   9.201  0.1945 -0.6352 -0.3885
  290MOL0     O38183   6.636   1.468   9.267 -0.1323 -0.3863  0.5589
  290MOL0     C38184   6.617   1.585   9.180 -0.9287  0.1526 -0.7208
  290MOL0     C38185   6.610   1.707   9.273  0.9955  0.0835  0.5074
  290MOL0     C38186   6.522   1.685   9.393 -0.3926 -0.0825  0.2286
  290MOL0     C38187   6.507   1.809   9.482 -1.1222  0.6053 -0.3886
  290MOL0     C38188   6.614   1.809   9.587  0.2620 -1.2583  0.5010
  290MOL0     C38189   6.595   1.943   9.673 -0.3028 -0.0874 -0.0376
  290MOL0     C38190   6.709   1.940   9.769 -0.4887 -0.6128  0.3025
  290MOL0     C38191   6.718   2.053   9.871  0.1247 -0.5651  0.1843
  290MOL0    Cl38192   6.726   2.206   9.777 -0.0736 -0.1557 -0.3745
  290MOL0     C38193   6.688   1.228   9.270  0.2709  0.1776 -0.7500
  290MOL0     C38194   6.710   1.102   9.207 -0.3917 -0.4775 -0.6726
  290MOL0     O38195   6.465   0.899   9.153 -0.5326  1.4595  0.1235
  290MOL0     C38196   6.474   0.632   9.097  0.3700 -0.1553 -0.2039
  290MOL0     C38197   6.465   0.501   9.038 -0.6671  0.2823  1.0476
  290MOL0     N38198   7.048   0.323   8.985 -0.2663  0.4773  0.1170
  290MOL0     N38199   7.100   0.411   9.069  0.8426  0.0714  0.6308
  290MOL0     C38200   7.260   1.422   8.441  0.8658 -0.0973  1.0134
  290MOL0     C38201   7.194   1.527   8.370 -0.4294 -0.3146  0.4635
  290MOL0     C38202   6.962   1.833   8.188 -0.2975 -0.4672  0.3461
  290MOL0     C38203   6.846   1.811   8.113  1.0180 -0.0143  1.0210
  290MOL0     C38204   6.789   1.907   8.018  0.9473 -0.8132 -0.2197
  290MOL0     C38205   6.859   2.029   7.992 -0.2305  0.3180 -0.7978
  290MOL0     O38206   6.803   2.122   7.907 -0.2246 -0.4711 -0.3580
  290MOL0     C38207   6.899   2.207   7.835  0.1518 -0.0438  1.0394
  290MOL0     C38208   6.955   2.129   7.710 -0.3103 -0.2953 -0.5477
  290MOL0     C38209   7.042   2.214   7.613  0.3148 -0.1095 -0.8317
  290MOL0     C38210   6.999   2.211   7.469 -0.1627 -0.6749 -0.5831
  290MOL0     C38211   6.893   2.308   7.436  0.5949  0.2315  0.7683
  290MOL0     C38212   6.810   2.397   7.415 -0.6042  0.2577 -0.4729
  290MOL0     C38213   6.977   2.048   8.066 -0.1471 -0.0666  0.5631
  290MOL0     C38214   7.025   1.955   8.159 -0.4750 -0.2013 -0.0379
  290MOL0     H38215   7.202   1.776   8.600  2.5056 -0.2385  1.5214
  290MOL0     H38216   7.284   1.580   8.743 -0.3346  2.4581 -0.5436
  290MOL0     H38217   7.168   1.217   8.594 -2.3020 -1.9887  2.1110
  290MOL0     H38218   7.150   1.300   8.750 -0.1639  0.6650  0.4129
  290MOL0     H38219   7.189   1.066   8.773 -0.8318  0.5844  1.9178
  290MOL0     H38220   7.320   1.175   8.851 -0.1270  2.6940 -0.6514
  290MOL0     H38221   7.470   1.116   8.663  0.3335  0.8015 -1.2648
  290MOL0     H38222   7.341   1.017   8.595 -2.3898 -1.4104  0.8300
  290MOL0     H38223   7.477   0.874   8.705 -2.4473 -0.9798 -0.7301
  290MOL0     H38224   7.495   0.966   8.854  0.6958 -1.0721 -0.6992
  290MOL0     H38225   7.292   0.762   8.772  0.9855 -0.7077  1.3515
  290MOL0     H38226   7.241   0.894   8.888 -0.0808  1.2791  1.1681
  290MOL0     H38227   7.391   0.839   9.050 -0.4612 -0.6243 -0.5938
  290MOL0     H38228   7.503   0.764   8.951 -0.2110  0.8855 -2.2173
  290MOL0     H38229   7.344   0.588   8.896  1.4108  0.6112 -1.3266
  290MOL0     H38230   7.406   0.581   9.063  2.3440  1.2329 -1.3268
  290MOL0     H38231   7.148   0.727   9.032 -0.3762 -0.0766 -0.2435
  290MOL0     H38232   7.204   0.629   9.160 -0.9751 -0.3883  0.3523
  290MOL0     H38233   7.148   0.554   8.772 -2.3317  1.5399  0.2897
  290MOL0     H38234   7.020   0.221   8.709 -1.7503  0.7869 -1.1242
  290MOL0     H38235   7.042   0.386   8.644  1.6074  1.3736  0.7270
  290MOL0     H38236   6.831   0.327   8.592  1.5121  0.8120 -0.2933
  290MOL0     H38237   6.855   0.469   8.697  1.6291  0.1103  2.7160
  290MOL0     H38238   6.798   0.183   8.798  3.2019  0.4119 -0.1219
  290MOL0     H38239   6.764   0.319   8.900 -1.2311 -0.8806  0.3873
  290MOL0     H38240   6.581   0.206   8.719 -0.2900 -0.7711  1.5511
  290MOL0     H38241   6.609   0.373   8.671  0.2172 -1.2090 -0.6725
  290MOL0     H38242   6.697   0.550   8.798 -0.3909 -2.9034  0.2907
  290MOL0     H38243   6.712   0.748   8.898  1.6740 -2.4053  2.4204
  290MOL0     H38244   6.557   1.180   8.924 -1.1018 -4.2203  1.1383
  290MOL0     H38245   6.551   1.400   9.015  4.3060  1.7981 -1.7376
  290MOL0     H38246   6.524   1.578   9.123 -1.9859  3.6579  0.3627
  290MOL0     H38247   6.696   1.588   9.104 -1.3139 -2.2482 -1.3133
  290MOL0     H38248   6.571   1.780   9.201 -1.0413 -3.2221 -2.0524
  290MOL0     H38249   6.714   1.723   9.302  0.7729  0.2713  1.2298
  290MOL0     H38250   6.566   1.600   9.447 -1.7237 -3.0876 -3.0341
  290MOL0     H38251   6.428   1.637   9.365 -0.9773  0.0818  1.8074
  290MOL0     H38252   6.524   1.895   9.417 -0.0889 -0.6437 -1.8540
  290MOL0     H38253   6.410   1.831   9.528 -0.4531  2.4202  0.2234
  290MOL0     H38254   6.717   1.809   9.549  0.9433 -0.0684  2.2335
  290MOL0     H38255   6.596   1.720   9.648 -4.2136 -0.3500  0.7851
  290MOL0     H38256   6.500   1.940   9.728 -0.3090 -1.4113 -0.0810
  290MOL0     H38257   6.595   2.034   9.612  0.5474 -0.8828 -1.2689
  290MOL0     H38258   6.712   1.841   9.815  1.2065 -1.3017 -1.1855
  290MOL0     H38259   6.804   1.958   9.718 -0.9495  0.5422 -0.1922
  290MOL0     H38260   6.812   2.036   9.925  1.6086  1.3532 -1.6316
  290MOL0     H38261   6.626   2.054   9.929 -2.0013  0.3317 -2.9457
  290MOL0     H38262   6.713   1.230   9.376  0.0678 -1.4427 -0.6540
  290MOL0     H38263   6.764   1.026   9.262  1.2781 -0.5106 -2.2700
  290MOL0     H38264   6.418   0.661   9.185  1.6407  5.9112 -0.9482
  290MOL0     H38265   6.393   0.425   9.068 -1.4317  0.4306 -0.3348
  290MOL0     H38266   7.268   1.325   8.393  1.3127  0.7090 -0.6179
  290MOL0     H38267   7.158   1.534   8.269 -2.3139  0.7510  1.1763
  290MOL0     H38268   6.785   1.722   8.128  1.3996 -0.6548 -0.9009
  290MOL0     H38269   6.692   1.884   7.974  0.3706  0.2461  0.4637
  290MOL0     H38270   6.986   2.240   7.893  1.4517  4.0233 -2.6480
  290MOL0     H38271   6.851   2.298   7.798 -0.1629 -1.8426 -3.6016
  290MOL0     H38272   7.013   2.049   7.756 -0.5507 -0.0474  0.2082
  290MOL0     H38273   6.867   2.095   7.653 -0.7990 -1.7306  0.9850
  290MOL0     H38274   7.148   2.189   7.623  0.6750  1.7890  0.6702
  290MOL0     H38275   7.024   2.313   7.654 -0.2903 -0.3965 -0.3801
  290MOL0     H38276   7.087   2.244   7.414 -0.1728  2.1761  0.9778
  290MOL0     H38277   6.983   2.106   7.441 -0.0378 -0.4293 -1.6247
  290MOL0     H38278   6.750   2.484   7.395  1.0174  1.2527 -1.2096
  290MOL0     H38279   7.033   2.141   8.065  2.5388 -1.3393  4.8716
  290MOL0     H38280   7.120   1.980   8.205 -0.6032 -1.5335  1.0189
  291MOL0     O38281   5.742   5.959   5.664  0.3729  0.0681 -0.6104
  291MOL0     C38282   5.806   5.875   5.599  0.3545  0.0971 -0.2776
  291MOL0     O38283   5.835   5.745   5.643  0.0764  0.5945  0.1423
  291MOL0     C38284   5.782   5.680   5.750 -0.0726  0.5909  0.1275
  291MOL0     C38285   5.806   5.546   5.761 -0.2969  0.3448 -0.5062
  291MOL0     C38286   5.753   5.457   5.862  0.0231  0.6091  0.4651
  291MOL0     C38287   5.678   5.515   5.964  0.1768  0.4497  0.0246
  291MOL0     O38288   5.626   5.437   6.071  0.1569  0.1751  0.2758
  291MOL0     C38289   5.515   5.490   6.149 -0.9029 -0.2772 -0.6201
  291MOL0     C38290   5.570   5.570   6.271  0.2581 -0.0871 -0.9262
  291MOL0     C38291   5.482   5.547   6.379 -0.3597  0.6706 -0.9756
  291MOL0     C38292   5.500   5.656   6.491 -0.4219 -0.3272 -0.9080
  291MOL0     C38293   5.407   5.643   6.616 -0.1508  0.4383 -0.1111
  291MOL0     C38294   5.385   5.776   6.682  0.8292 -0.0218  0.4034
  291MOL0     C38295   5.313   5.882   6.597  0.8203 -0.0407  0.9719
  291MOL0     C38296   5.164   5.846   6.587  0.3455 -0.2378 -0.5953
  291MOL0     N38297   5.089   5.830   6.712  0.0168  0.4665 -0.1012
  291MOL0     C38298   5.008   5.726   6.744 -0.1961  0.3632 -0.2511
  291MOL0     C38299   4.988   5.741   6.884  0.2200  0.7929  0.1329
  291MOL0     C38300   4.922   5.637   6.979 -1.0417 -0.7627  0.6840
  291MOL0     C38301   4.971   5.496   6.953  0.4338  0.6205  0.7716
  291MOL0     C38302   5.129   5.475   6.951  0.3232  0.4326  0.4791
  291MOL0     C38303   5.214   5.552   7.047  0.4361  0.1940 -0.5120
  291MOL0     O38304   5.347   5.494   7.065  0.4175 -0.2553 -0.6404
  291MOL0     C38305   5.362   5.379   7.146 -0.7756 -0.6768 -0.2611
  291MOL0     C38306   5.279   5.325   7.243 -0.9400  0.0814  0.0330
  291MOL0     C38307   5.307   5.206   7.314  0.1062 -0.9489  0.0897
  291MOL0     C38308   5.424   5.131   7.289  0.5090 -0.0126  0.6183
  291MOL0     C38309   5.482   5.011   7.358  1.1758  0.1283  0.5207
  291MOL0     O38310   5.553   4.924   7.279  0.0148 -0.7046 -0.7563
  291MOL0     C38311   5.618   4.829   7.348 -0.1503  0.1370 -0.8713
  291MOL0     C38312   5.559   4.716   7.405 -0.1689  0.9580 -0.2445
  291MOL0     C38313   5.634   4.614   7.482  1.1414 -0.4174  0.5314
  291MOL0     C38314   5.774   4.636   7.507  0.6962 -0.2293  0.3663
  291MOL0     O38315   5.848   4.554   7.581  0.0522  0.2765 -0.9257
  291MOL0     C38316   5.801   4.542   7.719 -0.2881  0.2166 -0.6674
  291MOL0     C38317   5.909   4.487   7.809 -0.0641  0.0083  1.0743
  291MOL0     C38318   5.849   4.406   7.936 -0.0067 -0.0855  0.1257
  291MOL0     C38319   5.970   4.348   8.003  0.7286 -1.1738  0.2397
  291MOL0     C38320   5.922   4.272   8.131 -0.0337 -0.5361 -0.5517
  291MOL0     C38321   6.041   4.213   8.212 -1.0517  0.3825 -0.3794
  291MOL0     C38322   5.987   4.106   8.311  0.5804 -0.4124  0.3049
  291MOL0     C38323   6.109   4.058   8.397  1.1023  0.2420 -0.6449
  291MOL0    Cl38324   6.135   4.162   8.544  0.5600 -0.0035 -0.1472
  291MOL0     C38325   5.828   4.746   7.437 -0.1055  0.7563  0.1178
  291MOL0     C38326   5.759   4.833   7.355  0.0901 -0.6566 -1.6193
  291MOL0     O38327   5.456   4.993   7.477  1.0022 -0.2473  0.1163
  291MOL0     C38328   5.505   5.181   7.183  0.7189 -1.5803 -1.1932
  291MOL0     C38329   5.481   5.305   7.106 -0.4033 -0.9423 -0.7148
  291MOL0     N38330   5.044   5.863   6.918 -0.7461  0.4250  0.1619
  291MOL0     N38331   5.106   5.915   6.810 -0.4527 -0.2927  0.2481
  291MOL0     C38332   5.651   5.656   5.960 -0.1272  0.1451  0.6506
  291MOL0     C38333   5.699   5.734   5.849 -0.3781  0.7452 -0.2979
  291MOL0     C38334   5.873   5.920   5.481 -0.0867 -0.6597 -0.2515
  291MOL0     C38335   5.877   6.065   5.444 -0.1451  1.1052 -0.5701
  291MOL0     C38336   5.957   6.105   5.331  1.1990  0.2038 -0.6192
  291MOL0     C38337   6.023   6.009   5.256 -0.6343  0.1899  0.0530
  291MOL0     O38338   6.105   6.068   5.155 -0.3444 -0.1035  0.2368
  291MOL0     C38339   6.204   5.987   5.101 -0.4307  1.0701 -0.0556
  291MOL0     C38340   6.189   5.934   4.958 -0.7686 -0.3603  0.8809
  291MOL0     C38341   6.292   5.836   4.914 -0.2971  1.2554  0.2701
  291MOL0     C38342   6.259   5.699   4.954 -0.0341 -0.0378 -0.3104
  291MOL0     C38343   6.343   5.658   5.070 -0.3284  0.7041  0.9769
  291MOL0     C38344   6.409   5.618   5.162  0.1334 -0.3522  0.1454
  291MOL0     C38345   6.014   5.874   5.283 -0.6527  0.9347 -0.9180
  291MOL0     C38346   5.944   5.833   5.388  0.3529  0.6947 -0.5744
  291MOL0     H38347   5.883   5.512   5.692 -1.2161 -3.2803  0.0817
  291MOL0     H38348   5.784   5.353   5.863 -0.8788  0.2645 -1.6706
  291MOL0     H38349   5.462   5.404   6.191  2.0480 -1.2542  1.4451
  291MOL0     H38350   5.450   5.549   6.084  2.6668  1.3341 -3.0217
  291MOL0     H38351   5.569   5.676   6.242  0.8412  0.1488 -0.1048
  291MOL0     H38352   5.669   5.542   6.307 -0.6563  0.8462  2.7894
  291MOL0     H38353   5.495   5.448   6.423 -0.1457  1.0796 -0.1026
  291MOL0     H38354   5.375   5.552   6.357 -0.7704  0.7569  0.8780
  291MOL0     H38355   5.597   5.634   6.537 -1.6951  2.8115  4.0345
  291MOL0     H38356   5.510   5.755   6.446 -2.2262  1.0261  1.4344
  291MOL0     H38357   5.448   5.577   6.693 -0.4085  2.0195  1.4399
  291MOL0     H38358   5.315   5.596   6.578 -0.2044  0.7415 -0.3623
  291MOL0     H38359   5.488   5.812   6.693 -0.2848  3.9433 -0.6196
  291MOL0     H38360   5.346   5.772   6.784 -2.6016  2.3690 -0.6424
  291MOL0     H38361   5.327   5.981   6.640 -1.7210  0.2052  1.3538
  291MOL0     H38362   5.353   5.879   6.495 -0.2377 -0.7609  0.5605
  291MOL0     H38363   5.156   5.754   6.528 -0.3845 -0.1243 -0.6771
  291MOL0     H38364   5.112   5.925   6.533  1.0449  1.1359  0.6793
  291MOL0     H38365   4.981   5.641   6.683  3.5985 -1.6995  0.6494
  291MOL0     H38366   4.818   5.631   6.945 -0.9095  2.8216 -0.8323
  291MOL0     H38367   4.929   5.664   7.085 -5.4656 -4.9155  2.3824
  291MOL0     H38368   4.919   5.447   6.871 -1.4980  0.7876  1.8332
  291MOL0     H38369   4.935   5.443   7.042  0.3995  2.6747  2.0593
  291MOL0     H38370   5.154   5.370   6.965  1.2934  0.7773  1.4471
  291MOL0     H38371   5.175   5.509   6.857  1.6528  2.0521  1.6486
  291MOL0     H38372   5.168   5.563   7.145  0.7750  2.1642 -0.5397
  291MOL0     H38373   5.220   5.657   7.016 -1.1541  0.5108  0.1280
  291MOL0     H38374   5.181   5.363   7.271  0.1544  2.3457  1.0685
  291MOL0     H38375   5.245   5.151   7.383  0.3918 -0.6526  0.5884
  291MOL0     H38376   5.452   4.712   7.386 -0.1612  0.0919 -0.1540
  291MOL0     H38377   5.577   4.529   7.518 -1.3628  0.7522 -0.4305
  291MOL0     H38378   5.722   4.468   7.724  0.8623 -0.9768  0.9071
  291MOL0     H38379   5.764   4.637   7.758 -1.7362  1.1129 -3.8777
  291MOL0     H38380   5.968   4.575   7.836  1.8308 -1.3291  1.4829
  291MOL0     H38381   5.969   4.433   7.736 -1.0466  1.1971 -0.7143
  291MOL0     H38382   5.772   4.331   7.922 -1.6296  1.1843  1.7579
  291MOL0     H38383   5.796   4.482   7.995 -0.9644 -2.0388  1.8844
  291MOL0     H38384   6.019   4.286   7.927 -0.7191 -0.8170 -1.0153
  291MOL0     H38385   6.030   4.437   8.025  2.3528 -2.2604  0.3641
  291MOL0     H38386   5.847   4.195   8.109 -0.4219  0.3550 -2.5631
  291MOL0     H38387   5.876   4.342   8.200  0.5797 -0.8702  0.2161
  291MOL0     H38388   6.079   4.303   8.261 -0.6897 -0.2320  0.4914
  291MOL0     H38389   6.117   4.163   8.151 -0.3135 -0.5320  1.2416
  291MOL0     H38390   5.912   4.149   8.378 -0.6588 -0.1493 -1.1781
  291MOL0     H38391   5.945   4.020   8.259  1.3202 -0.9579  0.6040
  291MOL0     H38392   6.196   4.044   8.331  2.6807 -0.1876  1.4127
  291MOL0     H38393   6.102   3.951   8.421 -0.3714  0.3036 -0.7142
  291MOL0     H38394   5.936   4.760   7.441  0.1860 -0.7302 -1.3867
  291MOL0     H38395   5.817   4.920   7.328  2.4009 -1.8494 -0.7491
  291MOL0     H38396   5.595   5.124   7.163  1.1990 -1.2219 -0.1498
  291MOL0     H38397   5.558   5.346   7.041 -1.0458  1.3115 -0.1149
  291MOL0     H38398   5.598   5.714   6.035 -1.3158 -1.1484  0.8557
  291MOL0     H38399   5.690   5.842   5.858 -0.0365  0.6258  2.3648
  291MOL0     H38400   5.814   6.132   5.502 -0.6631  1.4587 -1.5034
  291MOL0     H38401   5.951   6.209   5.301 -0.9683  0.8610  1.6876
  291MOL0     H38402   6.231   5.900   5.160  0.6866  2.0124  0.8728
  291MOL0     H38403   6.298   6.043   5.100 -0.0030  0.3565 -0.9723
  291MOL0     H38404   6.087   5.902   4.931 -1.0503  0.3733  1.0481
  291MOL0     H38405   6.192   6.026   4.899  0.0921 -0.2351  1.1110
  291MOL0     H38406   6.390   5.867   4.951  0.2522  1.6484 -1.4040
  291MOL0     H38407   6.299   5.854   4.806  0.5731  3.3702  0.6175
  291MOL0     H38408   6.154   5.679   4.977  0.3645 -0.7422  0.9777
  291MOL0     H38409   6.286   5.639   4.867  2.0873  1.7623 -0.9861
  291MOL0     H38410   6.460   5.576   5.247  1.0290  2.0223  0.8673
  291MOL0     H38411   6.066   5.801   5.222  1.3670  1.8871 -0.4363
  291MOL0     H38412   5.935   5.726   5.404 -3.4907  0.6797 -1.6714
  292MOL0     O38413   7.916   2.128   0.729  0.2280 -0.4224 -0.0613
  292MOL0     C38414   7.978   2.173   0.825  0.0613 -0.0771  0.0336
  292MOL0     O38415   8.018   2.095   0.929  0.6501  0.2581  0.2531
  292MOL0     C38416   7.978   1.963   0.931 -0.7532  0.0125  0.4798
  292MOL0     C38417   8.071   1.864   0.914 -0.4243  0.0596  0.4375
  292MOL0     C38418   8.036   1.726   0.889  0.1493 -0.4750 -0.2333
  292MOL0     C38419   7.902   1.689   0.888 -0.0659  0.4752 -0.3575
  292MOL0     O38420   7.871   1.558   0.859  0.1631 -0.0722  0.3558
  292MOL0     C38421   7.770   1.538   0.753  0.2679  0.7250  0.0805
  292MOL0     C38422   7.743   1.386   0.745 -0.7449 -1.1460  0.0145
  292MOL0     C38423   7.672   1.316   0.865  0.5571 -0.6926  0.3668
  292MOL0     C38424   7.553   1.408   0.912 -0.6208  0.7866  0.3797
  292MOL0     C38425   7.440   1.330   0.974  0.7169 -0.3135 -1.3111
  292MOL0     C38426   7.471   1.281   1.114  0.2346 -0.0378 -0.2020
  292MOL0     C38427   7.369   1.169   1.157  0.2106 -0.3147 -0.0774
  292MOL0     C38428   7.227   1.206   1.193 -0.2072  0.3984  0.1648
  292MOL0     N38429   7.134   1.090   1.178  0.5758 -0.3355  0.0180
  292MOL0     C38430   7.135   0.977   1.263  1.0341 -0.5292 -0.5525
  292MOL0     C38431   7.030   0.899   1.227  1.0842 -1.0948 -0.2577
  292MOL0     C38432   6.980   0.759   1.280 -0.6405 -0.2331 -1.2251
  292MOL0     C38433   6.831   0.774   1.314 -0.3527 -0.6329 -0.2979
  292MOL0     C38434   6.778   0.645   1.367 -0.1994  0.3144  0.6393
  292MOL0     C38435   6.628   0.621   1.372  0.6152  0.3807  1.0801
  292MOL0     O38436   6.559   0.716   1.447  0.3967 -0.7290 -0.1561
  292MOL0     C38437   6.473   0.661   1.536  0.3883  0.4534 -0.2559
  292MOL0     C38438   6.392   0.552   1.506 -0.6879 -0.3032 -0.6874
  292MOL0     C38439   6.299   0.504   1.604  0.2611  0.1429  0.3203
  292MOL0     C38440   6.299   0.562   1.731  0.4034 -0.4381 -0.8737
  292MOL0     C38441   6.217   0.508   1.853  0.1273 -0.0181  0.2914
  292MOL0     O38442   6.149   0.397   1.830  0.0261 -0.4497  0.1690
  292MOL0     C38443   6.066   0.351   1.927 -0.6391  0.2707  0.1308
  292MOL0     C38444   6.122   0.274   2.030  1.2677  0.7670  0.8079
  292MOL0     C38445   6.038   0.216   2.128 -0.0384  0.4343  0.3738
  292MOL0     C38446   5.901   0.244   2.140 -0.6284  0.0255 -0.6160
  292MOL0     O38447   5.824   0.182   2.238  0.9318 -0.2632  0.2547
  292MOL0     C38448   5.695   0.241   2.274  0.2459  1.3455  0.5197
  292MOL0     C38449   5.635   0.157   2.382  0.3240  0.0815 -0.6728
  292MOL0     C38450   5.525   0.223   2.471 -0.9371 -0.3564 -0.6559
  292MOL0     C38451   5.477   0.127   2.582  0.5639  0.0757  0.4369
  292MOL0     C38452   5.346   0.169   2.632  0.4736  1.1237 -1.6158
  292MOL0     C38453   5.301   0.098   2.758  0.2547  0.5641  0.5246
  292MOL0     C38454   5.153   0.113   2.769  0.4304  0.4012 -0.1478
  292MOL0     C38455   5.111   0.102   2.912 -0.2635  0.7084 -0.2113
  292MOL0    Cl38456   5.174  -0.032   2.995 -0.1334 -0.7308 -0.3050
  292MOL0     C38457   5.860   0.345   2.053  0.5207 -0.3306 -0.1362
  292MOL0     C38458   5.936   0.387   1.947  0.5762 -0.3695 -0.3922
  292MOL0     O38459   6.203   0.577   1.961 -0.6064 -0.3704 -0.1014
  292MOL0     C38460   6.381   0.676   1.753  0.5982 -0.7680  0.2032
  292MOL0     C38461   6.463   0.723   1.656 -0.5974  0.4279  0.8225
  292MOL0     N38462   6.968   0.964   1.115  0.1468  0.4095  0.2898
  292MOL0     N38463   7.035   1.075   1.089  0.6978  0.5511 -0.5814
  292MOL0     C38464   7.805   1.783   0.908 -0.7589 -0.0969  0.0680
  292MOL0     C38465   7.840   1.923   0.933  0.1688 -0.2235 -0.2683
  292MOL0     C38466   8.028   2.313   0.805  0.2046  0.4438 -0.6889
  292MOL0     C38467   8.092   2.382   0.906 -0.7340 -0.5080 -0.2347
  292MOL0     C38468   8.142   2.512   0.886 -0.1457 -0.4102 -0.6495
  292MOL0     C38469   8.147   2.565   0.765 -0.3451 -0.3369  0.9900
  292MOL0     O38470   8.214   2.680   0.742  0.2703 -0.3576 -0.1734
  292MOL0     C38471   8.276   2.716   0.626  1.4383 -0.2749 -0.0462
  292MOL0     C38472   8.384   2.812   0.673 -0.4550 -0.0249 -0.6592
  292MOL0     C38473   8.510   2.739   0.730  0.0734  0.6364  0.1757
  292MOL0     C38474   8.612   2.689   0.629  1.3621 -0.2418  0.1023
  292MOL0     C38475   8.697   2.796   0.562 -0.0682 -0.0869  0.3663
  292MOL0     C38476   8.772   2.881   0.507 -0.0052  0.7446 -0.5545
  292MOL0     C38477   8.088   2.497   0.655  0.0658 -1.5078 -0.3681
  292MOL0     C38478   8.031   2.374   0.675 -0.4723  0.4383  0.3764
  292MOL0     H38479   8.177   1.888   0.920 -0.3843 -0.3719  1.8438
  292MOL0     H38480   8.117   1.654   0.875  2.1156  1.1759  1.8865
  292MOL0     H38481   7.817   1.557   0.656 -1.9540  0.0895 -1.1771
  292MOL0     H38482   7.681   1.598   0.768 -1.2556 -1.7415  1.5291
  292MOL0     H38483   7.842   1.343   0.727 -0.1951 -0.1217  0.4983
  292MOL0     H38484   7.681   1.371   0.656 -0.4887 -3.9328  0.2211
  292MOL0     H38485   7.736   1.297   0.951 -0.6166  2.4754  2.0865
  292MOL0     H38486   7.619   1.223   0.841 -0.0669 -0.4475  0.7601
  292MOL0     H38487   7.582   1.478   0.991 -2.0531  1.6559  0.1529
  292MOL0     H38488   7.526   1.476   0.832 -0.8627  2.7638  2.0695
  292MOL0     H38489   7.414   1.243   0.912  1.6886 -2.0619  0.5770
  292MOL0     H38490   7.354   1.397   0.983  2.0048  1.1527  0.8260
  292MOL0     H38491   7.452   1.347   1.200  0.3077 -1.1212  0.6613
  292MOL0     H38492   7.574   1.251   1.131  0.1222  1.1210  3.8084
  292MOL0     H38493   7.378   1.102   1.071  2.1141  0.2010 -0.3381
  292MOL0     H38494   7.413   1.129   1.248 -0.6423  1.0973  1.0087
  292MOL0     H38495   7.188   1.281   1.123 -2.1248  0.8585  1.6132
  292MOL0     H38496   7.215   1.249   1.293  3.1654  0.1339  0.7766
  292MOL0     H38497   7.202   0.966   1.348  0.5119  4.4226  0.8317
  292MOL0     H38498   7.032   0.728   1.371 -4.7857 -2.6851  0.6230
  292MOL0     H38499   6.985   0.688   1.197 -0.0561 -1.6090 -0.0530
  292MOL0     H38500   6.771   0.796   1.225 -3.0391 -2.1464  1.0018
  292MOL0     H38501   6.826   0.852   1.390  0.2759 -0.2795 -0.6153
  292MOL0     H38502   6.821   0.561   1.312 -2.6471 -2.0060  1.9968
  292MOL0     H38503   6.812   0.632   1.470 -0.7676 -1.6188  0.6352
  292MOL0     H38504   6.619   0.520   1.415 -3.4995 -0.3085 -0.8240
  292MOL0     H38505   6.593   0.617   1.268 -0.5345 -1.7843  1.4754
  292MOL0     H38506   6.375   0.520   1.404 -0.7819 -0.4776 -0.6179
  292MOL0     H38507   6.226   0.434   1.565 -0.0325 -0.5580  2.0808
  292MOL0     H38508   6.225   0.238   2.025  0.8715 -0.3636  0.3861
  292MOL0     H38509   6.091   0.137   2.181  1.9569  0.7892 -0.9797
  292MOL0     H38510   5.626   0.247   2.189  1.0334 -0.3131 -0.2768
  292MOL0     H38511   5.701   0.341   2.318 -0.1879  1.7488 -0.3217
  292MOL0     H38512   5.709   0.117   2.452  0.0643  0.8531  0.0639
  292MOL0     H38513   5.591   0.064   2.346 -0.1991 -0.1713  0.5607
  292MOL0     H38514   5.445   0.264   2.408 -3.0217  1.7417  2.9878
  292MOL0     H38515   5.572   0.316   2.505  0.3167 -1.1655 -0.0992
  292MOL0     H38516   5.461   0.029   2.538 -0.4223  0.1228  0.6533
  292MOL0     H38517   5.560   0.122   2.653  1.8231 -0.3286 -1.0179
  292MOL0     H38518   5.275   0.142   2.553 -3.9639  2.8506  1.3419
  292MOL0     H38519   5.331   0.276   2.649  0.6479  0.8862  0.2086
  292MOL0     H38520   5.345   0.144   2.846  0.4893  2.4817 -0.5355
  292MOL0     H38521   5.328  -0.008   2.761  2.2150  1.0369  1.2881
  292MOL0     H38522   5.114   0.208   2.734  0.3267  0.4274  0.0392
  292MOL0     H38523   5.101   0.036   2.711 -0.4292  2.1385 -1.7765
  292MOL0     H38524   5.002   0.098   2.925 -0.0720 -0.1943  1.4375
  292MOL0     H38525   5.156   0.193   2.952  1.3212 -0.0614 -0.1622
  292MOL0     H38526   5.767   0.401   2.060  0.3132 -0.8164  1.3765
  292MOL0     H38527   5.888   0.457   1.879 -0.1131  0.8658  1.2827
  292MOL0     H38528   6.383   0.737   1.843 -1.1728  0.1175 -0.3038
  292MOL0     H38529   6.539   0.799   1.673  3.4821 -2.5104 -2.2215
  292MOL0     H38530   7.699   1.761   0.901 -0.8945  0.3427  0.7055
  292MOL0     H38531   7.762   1.996   0.952  0.1556 -0.5395  0.9618
  292MOL0     H38532   8.098   2.331   1.002 -1.9049  3.0007  1.8734
  292MOL0     H38533   8.195   2.558   0.969  1.1121 -2.1597 -0.4163
  292MOL0     H38534   8.205   2.774   0.567 -0.6687 -1.9795  0.6373
  292MOL0     H38535   8.306   2.633   0.562 -0.4816 -0.6830 -0.5027
  292MOL0     H38536   8.420   2.870   0.588  1.2892  0.7343  0.5543
  292MOL0     H38537   8.350   2.879   0.753  2.1224  1.1775 -0.4771
  292MOL0     H38538   8.477   2.657   0.794 -0.3897  2.7526  2.8033
  292MOL0     H38539   8.567   2.804   0.798 -0.7111  2.7015 -1.0488
  292MOL0     H38540   8.671   2.606   0.669  0.2348 -3.4442 -4.1225
  292MOL0     H38541   8.550   2.639   0.554  2.8274 -1.4348 -0.3489
  292MOL0     H38542   8.830   2.956   0.456  1.1978 -1.6495 -2.9311
  292MOL0     H38543   8.090   2.538   0.555  1.0634 -1.7651 -0.4696
  292MOL0     H38544   7.991   2.323   0.587  0.5361 -0.4076  0.3896
  293MOL0     O38545   2.993   4.680   8.349  0.3296  0.5783 -0.0814
  293MOL0     C38546   2.879   4.687   8.302  0.6350  0.2640 -0.2180
  293MOL0     O38547   2.845   4.650   8.181 -0.0479  0.0920  0.1424
  293MOL0     C38548   2.927   4.598   8.089  0.1226  0.6188 -0.2976
  293MOL0     C38549   2.905   4.481   8.012  0.1666  0.7909 -0.4641
  293MOL0     C38550   2.999   4.423   7.941 -0.7945  0.4050  0.1375
  293MOL0     C38551   3.139   4.458   7.938  0.0332 -1.0012  0.1056
  293MOL0     O38552   3.245   4.385   7.878 -0.4173  0.0277  0.5352
  293MOL0     C38553   3.221   4.248   7.844 -0.2932  1.4465 -0.7174
  293MOL0     C38554   3.342   4.208   7.762  0.4974  0.3045 -0.9697
  293MOL0     C38555   3.345   4.052   7.718 -0.3639 -0.2827  0.0845
  293MOL0     C38556   3.355   3.952   7.824  0.1785  0.3120  0.2775
  293MOL0     C38557   3.321   3.817   7.767 -0.6631  0.0654  0.1307
  293MOL0     C38558   3.448   3.743   7.700  0.0145  0.7001  1.2962
  293MOL0     C38559   3.417   3.598   7.657 -0.3084  0.4900 -0.1973
  293MOL0     C38560   3.333   3.607   7.531  0.4912  0.1429 -0.3919
  293MOL0     N38561   3.278   3.476   7.494  0.1820 -0.0881  0.3826
  293MOL0     C38562   3.359   3.369   7.451 -1.2765  0.4834 -0.8469
  293MOL0     C38563   3.263   3.275   7.417  0.9444 -0.5808 -0.4469
  293MOL0     C38564   3.285   3.142   7.354  0.1555  0.0722  0.7906
  293MOL0     C38565   3.300   3.145   7.193  0.2654  0.4053 -0.6786
  293MOL0     C38566   3.418   3.237   7.153 -0.3244  0.9328 -0.2890
  293MOL0     C38567   3.442   3.237   7.000  0.5577 -0.3531 -0.9285
  293MOL0     O38568   3.586   3.231   6.979  0.0030  0.6348  0.6752
  293MOL0     C38569   3.668   3.341   6.978  0.0984  0.4797 -0.1778
  293MOL0     C38570   3.636   3.470   7.009 -0.2603 -0.4964 -0.2247
  293MOL0     C38571   3.734   3.569   6.995 -0.5869  0.3657 -0.5715
  293MOL0     C38572   3.861   3.539   6.932 -0.5756 -0.5481  0.3647
  293MOL0     C38573   3.963   3.643   6.904  0.3557 -0.5553  0.8392
  293MOL0     O38574   4.086   3.612   6.838 -0.0008 -0.2211  1.2765
  293MOL0     C38575   4.161   3.720   6.791  1.0811  0.6273  0.1656
  293MOL0     C38576   4.289   3.736   6.849 -0.2694  0.5541 -0.4700
  293MOL0     C38577   4.364   3.857   6.831  0.6216  0.5435 -0.2241
  293MOL0     C38578   4.307   3.957   6.749 -0.0498  0.0981  0.0122
  293MOL0     O38579   4.388   4.073   6.743 -0.0825  0.2252  0.5022
  293MOL0     C38580   4.317   4.193   6.706 -0.1338 -0.4656  0.2818
  293MOL0     C38581   4.402   4.314   6.674  0.5737  0.1757  0.8313
  293MOL0     C38582   4.480   4.317   6.542  0.8468 -0.0714 -0.1709
  293MOL0     C38583   4.396   4.321   6.416  0.4664  0.2339 -0.0493
  293MOL0     C38584   4.465   4.352   6.280  0.8556  0.1735  0.5564
  293MOL0     C38585   4.507   4.501   6.265 -0.0075  1.0801  0.4091
  293MOL0     C38586   4.401   4.599   6.244 -0.5677 -0.6250 -0.4192
  293MOL0     C38587   4.464   4.734   6.209 -0.9984  0.4228  0.1067
  293MOL0    Cl38588   4.566   4.808   6.333 -0.4625 -0.8069 -0.0386
  293MOL0     C38589   4.188   3.936   6.683 -0.0958 -0.1222  0.4711
  293MOL0     C38590   4.114   3.825   6.708  0.1125  0.5875  0.4360
  293MOL0     O38591   3.937   3.754   6.944  0.1349  0.0310  0.0417
  293MOL0     C38592   3.888   3.411   6.902  0.4988 -0.0697 -0.2779
  293MOL0     C38593   3.792   3.312   6.925 -0.0365  0.1162  0.5011
  293MOL0     N38594   3.138   3.328   7.412  0.3033 -1.2237  0.9333
  293MOL0     N38595   3.152   3.445   7.472 -0.2510 -0.5862 -0.2226
  293MOL0     C38596   3.161   4.582   7.996  0.5551  1.1458  0.0117
  293MOL0     C38597   3.057   4.646   8.064  0.0555 -1.3857 -0.5129
  293MOL0     C38598   2.765   4.731   8.381 -0.2471 -0.2622  0.5324
  293MOL0     C38599   2.784   4.780   8.509  0.2900  0.2118 -0.4438
  293MOL0     C38600   2.672   4.817   8.593  0.6380  0.0817 -0.0489
  293MOL0     C38601   2.543   4.818   8.537 -0.2983  0.3188 -0.2448
  293MOL0     O38602   2.439   4.882   8.599  0.3804  0.0876 -0.1053
  293MOL0     C38603   2.404   4.839   8.731  0.6904 -0.3031 -0.5823
  293MOL0     C38604   2.303   4.719   8.724 -0.2727  0.2007 -0.1337
  293MOL0     C38605   2.283   4.651   8.860  0.2092 -0.2333  0.6052
  293MOL0     C38606   2.215   4.746   8.955  0.0069  0.8042  0.3371
  293MOL0     C38607   2.157   4.678   9.071  0.8031 -0.1512  0.5026
  293MOL0     C38608   2.104   4.630   9.165  0.4282  0.4057 -0.4909
  293MOL0     C38609   2.527   4.793   8.401 -0.4338 -0.1531  0.1503
  293MOL0     C38610   2.635   4.745   8.327 -0.3394 -0.0819 -0.3761
  293MOL0     H38611   2.804   4.441   8.011  0.1695  0.7875 -1.0048
  293MOL0     H38612   2.968   4.330   7.895  1.6215 -0.9843  1.1715
  293MOL0     H38613   3.131   4.232   7.784 -0.2044 -0.0544 -0.4995
  293MOL0     H38614   3.195   4.195   7.936 -0.1185 -1.2040 -2.1030
  293MOL0     H38615   3.429   4.215   7.827 -1.5816 -1.3015  2.2473
  293MOL0     H38616   3.361   4.275   7.678  2.1919  3.7432  1.9124
  293MOL0     H38617   3.424   4.041   7.643 -2.1019 -0.8502 -1.7588
  293MOL0     H38618   3.253   4.027   7.664 -1.5518  2.0279  0.8708
  293MOL0     H38619   3.458   3.965   7.857  1.9538  2.6939 -5.0273
  293MOL0     H38620   3.277   3.978   7.895 -2.0058 -0.2554 -1.7617
  293MOL0     H38621   3.237   3.829   7.698 -1.1668  1.3815  0.9443
  293MOL0     H38622   3.290   3.752   7.850 -2.1306 -0.1453 -0.5557
  293MOL0     H38623   3.527   3.742   7.775  0.1167 -3.9662  1.4067
  293MOL0     H38624   3.475   3.813   7.621  0.1209 -3.1719 -2.5031
  293MOL0     H38625   3.506   3.537   7.643  4.2045  6.2106 -0.0867
  293MOL0     H38626   3.367   3.553   7.744  1.5630 -0.1028  0.6070
  293MOL0     H38627   3.389   3.638   7.443 -2.1277 -2.0323 -3.0531
  293MOL0     H38628   3.244   3.668   7.549 -0.0696 -0.8644  0.4111
  293MOL0     H38629   3.467   3.362   7.463 -1.4962 -0.4957  0.9312
  293MOL0     H38630   3.195   3.083   7.372 -0.2057  0.5041  0.4596
  293MOL0     H38631   3.369   3.089   7.399 -0.3092 -1.0027  0.4288
  293MOL0     H38632   3.204   3.182   7.156 -0.1900 -0.2607 -0.1839
  293MOL0     H38633   3.301   3.047   7.144  0.9512  0.1678 -0.2067
  293MOL0     H38634   3.399   3.340   7.185  1.0606  1.6855 -1.7311
  293MOL0     H38635   3.509   3.199   7.201 -0.9408 -0.0192  0.1667
  293MOL0     H38636   3.387   3.327   6.970  0.2099 -0.9763 -2.2210
  293MOL0     H38637   3.399   3.150   6.950 -0.2415 -2.1181  2.5389
  293MOL0     H38638   3.537   3.499   7.043  0.2404 -1.6801  2.5739
  293MOL0     H38639   3.717   3.673   7.021  0.6384  0.2125  1.0632
  293MOL0     H38640   4.305   3.659   6.923 -0.1611  1.6611  0.6770
  293MOL0     H38641   4.457   3.881   6.881  2.2177 -0.4538 -2.5241
  293MOL0     H38642   4.259   4.213   6.796  0.0587  0.9630  0.1034
  293MOL0     H38643   4.240   4.185   6.628 -1.7834  5.3522  0.8567
  293MOL0     H38644   4.479   4.327   6.751  0.5595  0.1677  0.8465
  293MOL0     H38645   4.335   4.400   6.663  1.8099  0.8940 -1.6612
  293MOL0     H38646   4.539   4.225   6.541 -0.1857 -0.7657  0.6558
  293MOL0     H38647   4.543   4.406   6.539 -2.3032  2.3288  0.1343
  293MOL0     H38648   4.339   4.229   6.401 -3.6421  2.3771  0.9097
  293MOL0     H38649   4.319   4.399   6.418 -0.8987 -0.9354 -2.3875
  293MOL0     H38650   4.389   4.338   6.202  1.0320  0.7796  0.2708
  293MOL0     H38651   4.556   4.292   6.272  1.6257  1.3402  0.3035
  293MOL0     H38652   4.574   4.493   6.179  1.2795 -5.3606  1.4962
  293MOL0     H38653   4.573   4.534   6.346 -0.8185  1.5664  0.8805
  293MOL0     H38654   4.336   4.550   6.171 -4.5989 -0.3261  2.6082
  293MOL0     H38655   4.344   4.625   6.334  1.2826  4.2236 -0.3113
  293MOL0     H38656   4.391   4.804   6.167  1.0262  1.5421 -1.7842
  293MOL0     H38657   4.526   4.709   6.123 -1.8072 -0.8095 -0.1431
  293MOL0     H38658   4.138   4.005   6.616 -0.8167 -1.9580 -0.9755
  293MOL0     H38659   4.022   3.796   6.659  1.5359 -1.0949 -1.4171
  293MOL0     H38660   3.986   3.388   6.859  0.2976  1.8109 -1.9115
  293MOL0     H38661   3.814   3.208   6.903 -1.0839 -0.0917  0.4100
  293MOL0     H38662   3.262   4.621   7.988  0.6034  0.5936 -3.4987
  293MOL0     H38663   3.081   4.741   8.110 -0.0354 -0.6215 -1.9734
  293MOL0     H38664   2.883   4.784   8.554 -0.7189 -0.3203  2.0295
  293MOL0     H38665   2.688   4.855   8.693  0.2291 -0.6783  0.3039
  293MOL0     H38666   2.364   4.933   8.771  1.2353  0.7129 -2.2755
  293MOL0     H38667   2.492   4.809   8.789  0.7450 -1.1951 -1.1153
  293MOL0     H38668   2.213   4.754   8.672  0.9292  2.7735 -0.6704
  293MOL0     H38669   2.343   4.641   8.658 -0.8629 -1.4107  1.3480
  293MOL0     H38670   2.380   4.618   8.898 -1.0937 -1.8050  2.7651
  293MOL0     H38671   2.218   4.564   8.850 -1.8723  1.3556 -0.4155
  293MOL0     H38672   2.290   4.821   8.981  0.3054  0.3162  0.9264
  293MOL0     H38673   2.135   4.788   8.894  1.1119  1.6677 -0.5545
  293MOL0     H38674   2.054   4.579   9.244  1.1722 -1.5889 -1.2456
  293MOL0     H38675   2.435   4.804   8.345 -1.0406 -2.2954  0.6130
  293MOL0     H38676   2.614   4.749   8.221 -0.0991  2.0031 -0.3818
  294MOL0     O38677   3.620   1.182  10.650  0.0426 -0.2889 -0.3077
  294MOL0     C38678   3.628   1.137  10.771  0.4649  0.0640  0.6796
  294MOL0     O38679   3.731   1.143  10.857 -0.3810 -0.1279  0.1129
  294MOL0     C38680   3.842   1.213  10.806 -0.3553 -0.1607  0.0846
  294MOL0     C38681   3.907   1.168  10.695 -0.0578  0.4469  0.0469
  294MOL0     C38682   4.013   1.238  10.638  0.4428 -0.4516 -0.3215
  294MOL0     C38683   4.073   1.352  10.701 -0.4459  0.7664  0.3661
  294MOL0     O38684   4.191   1.417  10.664  1.0022 -0.1116  0.1961
  294MOL0     C38685   4.248   1.379  10.541 -0.0253 -0.7034 -0.6341
  294MOL0     C38686   4.389   1.421  10.506 -0.2492 -0.9385  0.3968
  294MOL0     C38687   4.400   1.572  10.493  1.0172 -0.6821  0.1758
  294MOL0     C38688   4.304   1.641  10.394  0.1637  0.5778  0.5855
  294MOL0     C38689   4.340   1.788  10.381 -0.7396 -0.0861  0.1484
  294MOL0     C38690   4.214   1.873  10.363  0.2450 -0.5665  1.3116
  294MOL0     C38691   4.262   2.021  10.314 -0.4767  1.0770  0.3567
  294MOL0     C38692   4.153   2.121  10.293  0.0733 -0.5924  0.7821
  294MOL0     N38693   4.105   2.204  10.407 -0.0277  0.1343  0.6311
  294MOL0     C38694   4.169   2.296  10.474  1.1032  1.3446  0.2159
  294MOL0     C38695   4.081   2.336  10.576 -0.0179  0.3038  0.5821
  294MOL0     C38696   4.104   2.428  10.687 -0.8313 -0.0458  0.5817
  294MOL0     C38697   4.026   2.559  10.662  0.1782 -0.3772 -0.8482
  294MOL0     C38698   3.878   2.551  10.668  0.2069 -0.5872  0.3713
  294MOL0     C38699   3.829   2.506  10.807 -0.1390  0.4471 -0.1735
  294MOL0     O38700   3.687   2.509  10.819  0.7115  0.1364 -0.0777
  294MOL0     C38701   3.622   2.624  10.872 -0.0297  0.3820 -0.2799
  294MOL0     C38702   3.479   2.611  10.872 -0.7556 -0.2325  0.7886
  294MOL0     C38703   3.411   2.713  10.936  0.2228  0.3692  0.2214
  294MOL0     C38704   3.469   2.828  11.002  0.5954  0.6149 -0.7677
  294MOL0     C38705   3.377   2.921  11.080 -0.7406  1.3845 -0.2723
  294MOL0     O38706   3.244   2.923  11.036  0.0424  0.5535 -0.0127
  294MOL0     C38707   3.155   3.017  11.071  0.3696 -0.8825  0.3206
  294MOL0     C38708   3.020   2.991  11.040 -0.8644 -0.4119  0.8892
  294MOL0     C38709   2.927   3.083  11.068 -0.0773  0.4497  0.2372
  294MOL0     C38710   2.957   3.204  11.132  0.7430  0.7167  1.1254
  294MOL0     O38711   2.860   3.292  11.165 -0.5135  0.0046  0.0573
  294MOL0     C38712   2.726   3.292  11.103 -1.3107 -0.0476  0.0801
  294MOL0     C38713   2.734   3.391  10.975  0.9158 -0.2475  0.7798
  294MOL0     C38714   2.609   3.365  10.887  0.4141  0.0310  0.3495
  294MOL0     C38715   2.487   3.458  10.920  0.6899 -0.0188  0.1471
  294MOL0     C38716   2.355   3.405  10.849 -0.4931  0.8713  0.3043
  294MOL0     C38717   2.260   3.522  10.845 -1.0309 -0.2459 -0.1367
  294MOL0     C38718   2.144   3.488  10.745 -0.9528  0.4247 -0.6639
  294MOL0     C38719   2.177   3.524  10.604 -0.5849 -0.7342 -0.0548
  294MOL0    Cl38720   2.032   3.511  10.507 -0.3273  0.3479 -0.8119
  294MOL0     C38721   3.086   3.232  11.162  0.0986 -0.7732  0.4560
  294MOL0     C38722   3.190   3.148  11.118 -0.0092  0.0911  0.5168
  294MOL0     O38723   3.437   2.993  11.161 -0.2437 -0.2175 -0.7886
  294MOL0     C38724   3.607   2.833  10.997 -0.6961 -0.7399  0.9930
  294MOL0     C38725   3.685   2.742  10.920  0.6737  0.9866 -0.0114
  294MOL0     N38726   3.969   2.256  10.561 -0.4017  0.3013 -0.9221
  294MOL0     N38727   3.986   2.172  10.469  0.1034  0.6201  1.0541
  294MOL0     C38728   3.996   1.401  10.814 -0.2394  0.9407 -0.7196
  294MOL0     C38729   3.886   1.332  10.862 -0.2291  0.1144 -1.3135
  294MOL0     C38730   3.508   1.084  10.834  0.2865  0.9775  0.6136
  294MOL0     C38731   3.510   1.002  10.952  0.0279  0.2202  0.1101
  294MOL0     C38732   3.397   0.957  11.007  0.1789  0.2752 -0.7125
  294MOL0     C38733   3.267   0.986  10.952 -0.5992 -0.6912 -0.0662
  294MOL0     O38734   3.148   0.930  10.991 -0.6941  0.5879  1.0421
  294MOL0     C38735   3.126   0.902  11.133  0.2395 -0.7300  0.1404
  294MOL0     C38736   2.975   0.891  11.156 -0.1180  0.0274 -0.2076
  294MOL0     C38737   2.966   0.826  11.289  0.3775 -0.3123 -0.5439
  294MOL0     C38738   2.815   0.811  11.328  0.4435 -0.2862 -0.3224
  294MOL0     C38739   2.825   0.694  11.418  0.4827 -0.0376 -0.0220
  294MOL0     C38740   2.844   0.588  11.481  0.0015  1.1931  0.3288
  294MOL0     C38741   3.259   1.069  10.842 -0.3675 -0.4929 -0.2610
  294MOL0     C38742   3.381   1.122  10.785 -0.4060  0.7389  1.6394
  294MOL0     H38743   3.874   1.077  10.646  2.4705  0.4708 -1.9153
  294MOL0     H38744   4.061   1.205  10.546 -0.2993  0.6064 -1.1082
  294MOL0     H38745   4.179   1.387  10.457  0.6598  0.4803 -1.1143
  294MOL0     H38746   4.261   1.270  10.536  0.1344 -0.7716  0.7322
  294MOL0     H38747   4.411   1.376  10.409  0.6166 -1.2825  0.7350
  294MOL0     H38748   4.457   1.375  10.578 -1.2162  2.4085  3.7431
  294MOL0     H38749   4.499   1.576  10.446 -0.8988  0.1926 -4.2934
  294MOL0     H38750   4.401   1.619  10.592 -0.1919  2.2332 -1.0911
  294MOL0     H38751   4.313   1.591  10.297 -2.6075  0.7487  0.1808
  294MOL0     H38752   4.197   1.634  10.416 -0.3410  1.4635 -1.3809
  294MOL0     H38753   4.401   1.794  10.291 -0.2194  1.8600  0.5948
  294MOL0     H38754   4.407   1.835  10.453 -0.8346 -0.3084  0.3835
  294MOL0     H38755   4.155   1.890  10.454 -0.8563  4.0614  0.0436
  294MOL0     H38756   4.146   1.832  10.289 -1.4056  0.4852  2.1682
  294MOL0     H38757   4.330   2.075  10.380  0.0269  0.9353 -0.0375
  294MOL0     H38758   4.320   2.015  10.221  2.1600  2.9037  1.7420
  294MOL0     H38759   4.059   2.076  10.263  0.4153  0.1758 -1.6145
  294MOL0     H38760   4.185   2.184  10.210 -1.8565 -0.6688 -0.0688
  294MOL0     H38761   4.262   2.349  10.458  1.5073  1.0524  1.4656
  294MOL0     H38762   4.209   2.445  10.709 -0.9087 -0.4040  1.2509
  294MOL0     H38763   4.058   2.390  10.779 -0.7867 -4.1787 -0.8650
  294MOL0     H38764   4.055   2.594  10.563 -0.2204  2.1430 -0.1615
  294MOL0     H38765   4.052   2.644  10.726  0.6066 -0.0196 -1.4834
  294MOL0     H38766   3.833   2.644  10.632 -0.6437 -0.8233  0.7996
  294MOL0     H38767   3.839   2.474  10.600 -1.5867 -0.5047  1.2401
  294MOL0     H38768   3.876   2.570  10.882  1.3335 -2.4186  1.4821
  294MOL0     H38769   3.872   2.408  10.825  2.3263  1.6505  0.9459
  294MOL0     H38770   3.430   2.528  10.824 -1.6548  1.2571 -0.9819
  294MOL0     H38771   3.303   2.704  10.936  0.1664  0.9454  0.6308
  294MOL0     H38772   2.988   2.903  10.985 -1.8160 -1.0349  2.3873
  294MOL0     H38773   2.826   3.045  11.062 -0.2624  0.8398  0.7961
  294MOL0     H38774   2.646   3.339  11.162 -0.2923  3.7702 -1.3147
  294MOL0     H38775   2.691   3.193  11.073 -2.2793 -0.4667  2.4097
  294MOL0     H38776   2.825   3.363  10.920 -0.0304 -3.2380  0.5559
  294MOL0     H38777   2.750   3.498  10.987 -1.1797 -0.1427  3.6544
  294MOL0     H38778   2.587   3.261  10.911  0.0916  0.1044  0.3791
  294MOL0     H38779   2.638   3.380  10.783  0.3286 -0.1758  0.2965
  294MOL0     H38780   2.478   3.459  11.029  3.5541 -0.1636  0.4630
  294MOL0     H38781   2.512   3.560  10.890 -0.5195  0.8014  1.7798
  294MOL0     H38782   2.326   3.313  10.901  0.1139 -0.2745 -1.3105
  294MOL0     H38783   2.385   3.372  10.749 -0.7226 -1.3655  0.9087
  294MOL0     H38784   2.310   3.617  10.825 -2.4660  0.5706  0.0033
  294MOL0     H38785   2.227   3.529  10.949  1.8910 -2.4644  1.0961
  294MOL0     H38786   2.118   3.382  10.739 -0.0921  0.2115 -0.7859
  294MOL0     H38787   2.050   3.535  10.775 -1.2687  0.4758 -1.7088
  294MOL0     H38788   2.250   3.455  10.562 -0.3387  0.5378 -1.8384
  294MOL0     H38789   2.199   3.630  10.587 -0.1755 -0.9764 -1.1003
  294MOL0     H38790   3.107   3.324  11.215  1.9571 -1.4903  1.0417
  294MOL0     H38791   3.293   3.179  11.129  0.7144 -1.1685 -1.9521
  294MOL0     H38792   3.659   2.918  11.040 -0.7479 -1.8809  3.5370
  294MOL0     H38793   3.792   2.740  10.908  0.6407  0.3018 -0.2190
  294MOL0     H38794   4.030   1.483  10.875 -0.9167 -0.5864  1.8512
  294MOL0     H38795   3.826   1.376  10.941 -4.5206 -1.7311 -3.2171
  294MOL0     H38796   3.600   0.957  10.993 -0.1870 -0.7949 -0.4909
  294MOL0     H38797   3.396   0.887  11.090 -4.3906  1.8034  0.8567
  294MOL0     H38798   3.171   0.978  11.198 -1.4982  0.0756  0.4470
  294MOL0     H38799   3.177   0.806  11.144  1.1966 -0.6956 -2.9688
  294MOL0     H38800   2.928   0.990  11.162  0.2915  0.1955  0.3162
  294MOL0     H38801   2.937   0.833  11.071  1.3696  0.9439 -1.5551
  294MOL0     H38802   3.027   0.881  11.362  1.8152 -3.4685  0.8184
  294MOL0     H38803   3.002   0.724  11.272  1.9578  0.1882 -0.3531
  294MOL0     H38804   2.766   0.889  11.387  1.4617  1.3598 -1.5689
  294MOL0     H38805   2.745   0.786  11.248  0.0824  1.2301 -0.5102
  294MOL0     H38806   2.878   0.506  11.541  2.2761  1.0412 -1.0716
  294MOL0     H38807   3.158   1.081  10.806 -0.4951 -0.1834  0.2073
  294MOL0     H38808   3.390   1.172  10.689  0.6394 -0.5665  1.0304
  295MOL0     O38809   9.521  10.029   7.132 -0.2439  0.3246 -0.1358
  295MOL0     C38810   9.412  10.043   7.092 -0.9271 -0.5312  1.0154
  295MOL0     O38811   9.300  10.051   7.170 -0.2000  0.4238  0.2235
  295MOL0     C38812   9.302  10.066   7.308 -0.7696 -0.4839 -0.0721
  295MOL0     C38813   9.415  10.087   7.392  0.7656 -0.0874  0.4865
  295MOL0     C38814   9.400  10.098   7.532  0.2614 -0.7487  0.1771
  295MOL0     C38815   9.268  10.082   7.597 -0.5169  0.4969  0.4749
  295MOL0     O38816   9.242  10.089   7.732  0.1051  0.2459 -0.1188
  295MOL0     C38817   9.341  10.150   7.813 -0.0780 -0.1731 -0.4840
  295MOL0     C38818   9.269  10.189   7.948 -0.9504  0.0833 -0.4416
  295MOL0     C38819   9.162  10.299   7.920  0.1506 -0.8786  0.0531
  295MOL0     C38820   9.071  10.330   8.035  0.4439  0.2595  0.9139
  295MOL0     C38821   8.969  10.455   8.024 -0.6013  0.5595  0.2248
  295MOL0     C38822   8.900  10.460   7.896  0.0113 -1.0696 -0.1747
  295MOL0     C38823   8.799  10.341   7.879 -0.3178  0.3587  0.2840
  295MOL0     C38824   8.706  10.383   7.762 -0.4555  0.2730 -0.2972
  295MOL0     N38825   8.649  10.258   7.703 -0.1966 -0.4603 -0.3664
  295MOL0     C38826   8.722  10.180   7.624 -0.1130  0.5480  0.1095
  295MOL0     C38827   8.630  10.095   7.578 -0.6047 -0.4999  0.1495
  295MOL0     C38828   8.662   9.976   7.484 -0.3503  0.3702 -0.5960
  295MOL0     C38829   8.660  10.002   7.331 -0.1861  0.2596 -0.6050
  295MOL0     C38830   8.777  10.082   7.279 -0.1516 -0.3034 -0.1047
  295MOL0     C38831   8.818  10.068   7.127  0.6894 -0.7017  0.2427
  295MOL0     O38832   8.834   9.935   7.074  0.5876 -0.6840 -0.2313
  295MOL0     C38833   8.854   9.929   6.938  0.0785  0.1775 -0.7948
  295MOL0     C38834   8.795  10.025   6.851  0.1489  0.4124  0.3706
  295MOL0     C38835   8.812  10.003   6.710  0.8653 -0.1314 -0.8271
  295MOL0     C38836   8.889   9.894   6.651  0.5456 -0.5917 -0.2451
  295MOL0     C38837   8.911   9.869   6.508  0.2298  0.0151  0.7594
  295MOL0     O38838   8.995   9.770   6.476 -0.2426  0.2885 -0.0105
  295MOL0     C38839   9.045   9.739   6.343  0.0458 -0.7373 -0.7239
  295MOL0     C38840   9.109   9.607   6.328 -0.0267  0.1073 -0.5648
  295MOL0     C38841   9.180   9.579   6.215  0.5978  0.1027  0.3225
  295MOL0     C38842   9.184   9.670   6.107 -0.2748 -0.0699 -0.0548
  295MOL0     O38843   9.256   9.653   5.993 -0.0931  0.0267  0.1961
  295MOL0     C38844   9.397   9.658   6.005 -0.9712  0.2051  1.0439
  295MOL0     C38845   9.475   9.601   5.891  0.6048  0.0621 -0.6068
  295MOL0     C38846   9.465   9.677   5.763  0.9371 -0.3310  0.2518
  295MOL0     C38847   9.564   9.605   5.655  0.3245  0.0036  0.2313
  295MOL0     C38848   9.579   9.702   5.536  0.6221 -0.2333 -0.0931
  295MOL0     C38849   9.659   9.623   5.441  0.8620  0.5881 -0.5278
  295MOL0     C38850   9.649   9.699   5.311  0.2113 -1.1230  0.0146
  295MOL0     C38851   9.750   9.640   5.207 -0.2752 -0.0914  0.0778
  295MOL0    Cl38852   9.754   9.458   5.196 -0.0978 -0.0498  0.0044
  295MOL0     C38853   9.110   9.789   6.118  0.5472 -0.0797  0.2807
  295MOL0     C38854   9.038   9.820   6.234 -0.1027 -0.7051 -0.8607
  295MOL0     O38855   8.840   9.936   6.430  0.6263  0.5005 -0.3661
  295MOL0     C38856   8.944   9.805   6.742  1.1088  0.4826  0.6529
  295MOL0     C38857   8.923   9.822   6.882  0.4674 -0.3193  0.5646
  295MOL0     N38858   8.505  10.130   7.622  0.0897  0.3457 -0.0399
  295MOL0     N38859   8.518  10.228   7.703 -0.0638 -0.4156  0.0749
  295MOL0     C38860   9.157  10.073   7.504 -0.6356  0.7959 -0.2772
  295MOL0     C38861   9.173  10.054   7.362 -1.5321 -0.1040  0.0312
  295MOL0     C38862   9.391  10.056   6.945 -0.7808 -0.0312 -1.0291
  295MOL0     C38863   9.494  10.066   6.852 -0.1330 -0.2271 -0.2907
  295MOL0     C38864   9.462  10.093   6.722 -0.5658 -0.0162  0.3845
  295MOL0     C38865   9.337  10.111   6.671  0.2326  0.8710  0.5062
  295MOL0     O38866   9.317  10.145   6.538 -0.2378  0.3028 -0.6958
  295MOL0     C38867   9.213  10.241   6.506 -0.3743 -0.3206 -0.2159
  295MOL0     C38868   9.163  10.200   6.366 -0.2403 -0.5581  0.0986
  295MOL0     C38869   9.064  10.301   6.301  0.3946  0.4225  0.2707
  295MOL0     C38870   9.042  10.258   6.157  0.4585 -0.7407 -0.0017
  295MOL0     C38871   8.976  10.367   6.073  0.6370 -0.0031 -0.5266
  295MOL0     C38872   8.928  10.458   6.009 -0.3759  0.8051 -0.6976
  295MOL0     C38873   9.238  10.092   6.758 -0.0313 -0.8575 -0.1166
  295MOL0     C38874   9.259  10.066   6.893 -0.4010  0.3412 -0.6657
  295MOL0     H38875   9.516  10.087   7.354  2.1101 -2.4494  3.6197
  295MOL0     H38876   9.486  10.101   7.597  1.2320  0.4254 -1.1156
  295MOL0     H38877   9.366  10.242   7.759 -1.9383  0.2528 -0.6721
  295MOL0     H38878   9.426  10.082   7.827 -1.8590 -2.0865  1.8072
  295MOL0     H38879   9.337  10.220   8.027 -1.2329  1.6327 -0.7727
  295MOL0     H38880   9.222  10.102   7.993 -1.8735  1.8039  2.1431
  295MOL0     H38881   9.102  10.268   7.833  0.1950  2.4160 -1.2947
  295MOL0     H38882   9.209  10.392   7.885 -1.9878  0.0569 -0.5162
  295MOL0     H38883   9.018  10.236   8.053 -0.1931  0.3113 -0.5969
  295MOL0     H38884   9.126  10.356   8.126 -0.4075  0.9684  1.2355
  295MOL0     H38885   9.027  10.547   8.034  3.4223 -2.0039  6.2283
  295MOL0     H38886   8.894  10.447   8.103 -1.6191  2.5286 -0.4988
  295MOL0     H38887   8.981  10.459   7.822 -0.7037 -2.0318 -0.9719
  295MOL0     H38888   8.838  10.547   7.877  2.6764  0.5872 -1.8698
  295MOL0     H38889   8.861  10.253   7.862  1.6011  1.3988  1.5004
  295MOL0     H38890   8.728  10.328   7.961 -1.9199 -1.7142 -1.3249
  295MOL0     H38891   8.753  10.437   7.680 -2.3628 -1.3080 -2.5357
  295MOL0     H38892   8.635  10.457   7.800  1.3286  0.1603  3.8393
  295MOL0     H38893   8.831  10.183   7.623  0.2949 -0.4274  5.7244
  295MOL0     H38894   8.583   9.902   7.500  0.0948 -0.4289 -2.0070
  295MOL0     H38895   8.761   9.937   7.512 -0.4850  1.5547  1.8863
  295MOL0     H38896   8.565  10.048   7.304 -1.0268 -0.9658  0.1490
  295MOL0     H38897   8.659   9.904   7.283 -1.4831  0.4464 -0.9851
  295MOL0     H38898   8.738  10.184   7.277 -0.5423 -0.4511 -1.7434
  295MOL0     H38899   8.864  10.092   7.345  0.2411 -2.0278 -0.3106
  295MOL0     H38900   8.913  10.121   7.116  0.6657 -0.9546 -1.5349
  295MOL0     H38901   8.735  10.121   7.079  0.3349  1.7709  3.2308
  295MOL0     H38902   8.716  10.087   6.892 -1.5096 -2.9267  2.6315
  295MOL0     H38903   8.765  10.066   6.634  0.3117 -1.1030 -1.3127
  295MOL0     H38904   9.120   9.545   6.416  1.9923  0.8220 -0.2686
  295MOL0     H38905   9.215   9.477   6.202 -1.5318 -0.6567  0.0699
  295MOL0     H38906   9.439   9.598   6.086  2.1206 -2.4182 -2.2108
  295MOL0     H38907   9.413   9.766   6.015 -0.8216  0.1069  1.9349
  295MOL0     H38908   9.460   9.493   5.889  1.8137 -0.1450  0.6823
  295MOL0     H38909   9.576   9.622   5.926  0.6525  0.9689 -1.2354
  295MOL0     H38910   9.511   9.776   5.767  0.4945 -0.0787 -0.6165
  295MOL0     H38911   9.362   9.670   5.727  1.5139 -0.6898 -1.4055
  295MOL0     H38912   9.659   9.581   5.704 -1.6618 -0.9851  3.9075
  295MOL0     H38913   9.525   9.507   5.627  3.5219 -0.6134 -2.6509
  295MOL0     H38914   9.606   9.806   5.553 -3.8375  1.7782 -3.3529
  295MOL0     H38915   9.479   9.713   5.493  0.4533  0.1841  0.4061
  295MOL0     H38916   9.630   9.517   5.431  2.1446  0.4015 -2.9862
  295MOL0     H38917   9.761   9.630   5.478 -0.0852  0.7689  2.2690
  295MOL0     H38918   9.545   9.694   5.278  1.2937  0.0192 -4.2363
  295MOL0     H38919   9.679   9.802   5.333  1.7276 -2.1160  3.1411
  295MOL0     H38920   9.853   9.675   5.221 -0.9234  2.0779 -0.2225
  295MOL0     H38921   9.714   9.683   5.113 -0.3070 -0.7371 -0.2095
  295MOL0     H38922   9.098   9.844   6.025  0.3358  0.1251  0.4295
  295MOL0     H38923   8.976   9.908   6.217  1.3382  0.2563 -1.3284
  295MOL0     H38924   9.014   9.727   6.714 -1.7585 -1.0722 -3.2112
  295MOL0     H38925   8.974   9.758   6.954  1.4796 -0.6727 -0.4388
  295MOL0     H38926   9.066  10.053   7.559 -1.4202 -0.9606 -2.0500
  295MOL0     H38927   9.084  10.049   7.300 -0.7599 -0.8323 -1.0693
  295MOL0     H38928   9.596  10.072   6.888 -1.3590 -2.1354  4.2102
  295MOL0     H38929   9.536  10.106   6.644 -1.1783 -5.1099 -1.4318
  295MOL0     H38930   9.243  10.345   6.487  0.3983 -0.4180  0.4477
  295MOL0     H38931   9.126  10.247   6.573  1.2961  0.8973  1.9778
  295MOL0     H38932   9.253  10.187   6.304  0.3997 -0.3416  0.9695
  295MOL0     H38933   9.120  10.099   6.362  0.5496 -0.9279  0.5731
  295MOL0     H38934   9.103  10.403   6.304 -1.2343  1.0598  0.7039
  295MOL0     H38935   8.972  10.295   6.358 -0.1653 -2.2827 -0.7676
  295MOL0     H38936   9.138  10.239   6.108  0.5098  1.0756 -0.7163
  295MOL0     H38937   8.983  10.166   6.165 -1.1537  0.3398  1.3503
  295MOL0     H38938   8.891  10.538   5.947 -0.6847  1.6257  0.5058
  295MOL0     H38939   9.138  10.101   6.718 -0.4923 -3.2137  0.3287
  295MOL0     H38940   9.175  10.064   6.963 -0.2025 -2.3424 -0.3827
  296MOL0     O38941   9.867  11.126   9.805  0.0626  0.6913 -0.3882
  296MOL0     C38942   9.813  11.239   9.828 -0.1873  0.1310  0.6691
  296MOL0     O38943   9.775  11.281   9.950  0.3118  0.1777 -0.0776
  296MOL0     C38944   9.774  11.199  10.060 -0.3032 -1.1254  0.7198
  296MOL0     C38945   9.772  11.058  10.069  0.0588 -0.5024  0.5005
  296MOL0     C38946   9.782  10.996  10.193 -0.9766  0.2139  0.5605
  296MOL0     C38947   9.796  11.072  10.299  0.5078  0.0457 -0.7204
  296MOL0     O38948   9.822  11.007  10.418  0.2756  0.4962  0.0453
  296MOL0     C38949   9.931  11.054  10.500 -0.0529  0.1237  0.3720
  296MOL0     C38950   9.915  11.009  10.642 -0.0163  0.2546  0.0697
  296MOL0     C38951  10.032  11.060  10.721 -0.4811  0.1661 -0.5037
  296MOL0     C38952  10.038  11.027  10.869 -0.0824 -0.6678 -0.4956
  296MOL0     C38953  10.140  11.114  10.947 -0.1968  0.5566 -0.1566
  296MOL0     C38954  10.276  11.087  10.908 -0.3710 -0.0165  0.2220
  296MOL0     C38955  10.376  11.141  11.009  0.0806  0.0880  0.3919
  296MOL0     C38956  10.388  11.294  11.010 -0.4751 -0.0729  0.1283
  296MOL0     N38957  10.510  11.339  11.076 -0.3658  0.1845  0.6018
  296MOL0     C38958  10.547  11.281  11.196 -0.1052  0.4725 -0.6223
  296MOL0     C38959  10.668  11.338  11.220 -0.4426  0.4538  0.6597
  296MOL0     C38960  10.753  11.308  11.340 -0.0157 -0.3894  0.3191
  296MOL0     C38961  10.716  11.384  11.466  0.4998  0.1331 -0.1910
  296MOL0     C38962  10.806  11.359  11.577 -0.6981  0.2017 -0.7489
  296MOL0     C38963  10.755  11.413  11.703 -0.0818 -0.2310  0.5060
  296MOL0     O38964  10.802  11.553  11.706  0.7026 -0.2207  0.7977
  296MOL0     C38965  10.733  11.640  11.791 -0.9512 -1.1761  0.8505
  296MOL0     C38966  10.724  11.607  11.921 -0.1408  1.0785 -0.3058
  296MOL0     C38967  10.642  11.686  12.008  0.4635 -0.6649  0.5654
  296MOL0     C38968  10.568  11.797  11.960  1.1448 -0.1321  0.6210
  296MOL0     C38969  10.463  11.855  12.042 -0.0323 -0.2674 -0.3576
  296MOL0     O38970  10.477  11.841  12.174 -0.4633 -0.0546  0.0832
  296MOL0     C38971  10.375  11.878  12.255 -0.1439 -0.6178 -0.6757
  296MOL0     C38972  10.407  11.964  12.346 -0.1658 -0.2797 -0.2706
  296MOL0     C38973  10.302  12.012  12.436 -0.9525  0.8408  0.6711
  296MOL0     C38974  10.166  11.960  12.434 -0.1315 -0.7839  0.0678
  296MOL0     O38975  10.061  11.987  12.517 -0.1035 -0.0158 -0.3232
  296MOL0     C38976  10.080  12.100  12.606  0.1660  0.1765 -0.8076
  296MOL0     C38977   9.947  12.160  12.654 -0.0031 -0.5799  0.1639
  296MOL0     C38978   9.870  12.064  12.746  0.3809  0.1820  0.7304
  296MOL0     C38979   9.752  12.129  12.811 -0.5518  0.4405  0.9112
  296MOL0     C38980   9.674  12.019  12.883  0.5914 -0.4793 -0.3629
  296MOL0     C38981   9.555  12.085  12.961  0.3933 -0.0509  0.1337
  296MOL0     C38982   9.463  11.973  13.025  0.5532 -0.7133  0.3029
  296MOL0     C38983   9.501  11.873  13.129 -0.3398 -0.1867 -0.1208
  296MOL0    Cl38984   9.369  11.752  13.117 -0.1698  0.3312  0.0059
  296MOL0     C38985  10.144  11.873  12.331  0.4727 -0.1992 -0.2837
  296MOL0     C38986  10.247  11.825  12.250  0.1926 -0.3588 -0.4962
  296MOL0     O38987  10.363  11.910  11.979  0.3445  0.9550 -0.7546
  296MOL0     C38988  10.591  11.835  11.820 -0.8683 -0.2532 -1.0471
  296MOL0     C38989  10.665  11.751  11.740 -0.3619  0.7371  0.3243
  296MOL0     N38990  10.702  11.412  11.109  1.0016  0.2478  0.1093
  296MOL0     N38991  10.619  11.396  11.019 -1.0449 -0.1326  0.7803
  296MOL0     C38992   9.779  11.210  10.300 -0.3588  0.1778  0.3234
  296MOL0     C38993   9.778  11.275  10.171  0.1094  0.5779  0.3721
  296MOL0     C38994   9.770  11.312   9.705 -0.2942 -0.9254 -0.8310
  296MOL0     C38995   9.757  11.256   9.570  0.5218 -0.7408 -0.2008
  296MOL0     C38996   9.724  11.333   9.457 -0.1813  0.3930  0.0234
  296MOL0     C38997   9.707  11.471   9.479 -0.3979  0.5949 -0.0810
  296MOL0     O38998   9.711  11.545   9.361  0.6749 -0.4578 -0.2163
  296MOL0     C38999   9.743  11.686   9.370 -0.1676 -0.0784  0.2194
  296MOL0     C39000   9.810  11.735   9.239 -0.2892 -0.5066  0.5981
  296MOL0     C39001   9.714  11.716   9.125 -0.3544 -0.2196 -0.6950
  296MOL0     C39002   9.797  11.768   9.007  0.7808 -0.2012  0.5757
  296MOL0     C39003   9.735  11.742   8.870 -1.3169  0.4066 -0.4717
  296MOL0     C39004   9.692  11.741   8.751 -0.5843 -0.0390 -0.0009
  296MOL0     C39005   9.725  11.529   9.609  0.6603 -0.8441 -0.3093
  296MOL0     C39006   9.757  11.455   9.720 -0.1900  0.4606  0.5925
  296MOL0     H39007   9.785  10.991   9.984  1.9582  1.1690 -0.6432
  296MOL0     H39008   9.798  10.889  10.203 -0.0968  0.2418 -0.3320
  296MOL0     H39009   9.936  11.162  10.488  1.1179  0.2136  1.5187
  296MOL0     H39010  10.017  11.010  10.449 -0.6844 -3.0440  1.8096
  296MOL0     H39011   9.924  10.900  10.650 -0.6345  0.0753 -1.3440
  296MOL0     H39012   9.815  11.040  10.673 -0.4467 -2.0262  1.1675
  296MOL0     H39013  10.035  11.170  10.716  1.5564  0.1964  0.5781
  296MOL0     H39014  10.125  11.019  10.681  1.1524  2.2017  0.9732
  296MOL0     H39015   9.939  11.051  10.909 -1.0044 -0.3185 -2.8651
  296MOL0     H39016  10.077  10.924  10.871  3.5437  0.5432  1.4455
  296MOL0     H39017  10.139  11.094  11.055 -0.1885  0.1948 -0.2258
  296MOL0     H39018  10.116  11.220  10.931 -0.4040  0.9326  2.2587
  296MOL0     H39019  10.294  11.130  10.809  0.5586  0.2348  0.4889
  296MOL0     H39020  10.292  10.982  10.883 -0.1802 -0.1437  0.8447
  296MOL0     H39021  10.355  11.103  11.109  1.0377 -0.6515  0.3220
  296MOL0     H39022  10.474  11.107  10.974 -0.2472 -0.7521  0.2638
  296MOL0     H39023  10.308  11.354  11.055  1.3384  3.0021 -0.4698
  296MOL0     H39024  10.384  11.328  10.906 -2.2044 -0.9624 -0.1285
  296MOL0     H39025  10.489  11.209  11.253 -0.1467  0.3339 -0.8372
  296MOL0     H39026  10.844  11.354  11.301 -1.2889  2.7873  0.8138
  296MOL0     H39027  10.756  11.200  11.360  0.8662 -0.3724  0.3392
  296MOL0     H39028  10.614  11.354  11.492  1.0824 -1.5538  0.2263
  296MOL0     H39029  10.711  11.492  11.449  0.8499  0.7916  3.1781
  296MOL0     H39030  10.832  11.253  11.583 -0.4558 -0.1801 -5.1395
  296MOL0     H39031  10.899  11.413  11.559  0.4017 -1.0640  0.8752
  296MOL0     H39032  10.798  11.348  11.780 -3.8625 -1.4677  1.7890
  296MOL0     H39033  10.648  11.405  11.723 -0.2208 -0.5093 -0.3016
  296MOL0     H39034  10.760  11.516  11.968 -2.6724  0.7773  1.2469
  296MOL0     H39035  10.622  11.640  12.104 -1.2123 -1.6922 -0.2279
  296MOL0     H39036  10.506  12.009  12.351 -0.8069  1.0466  2.1373
  296MOL0     H39037  10.332  12.084  12.512  1.7331  0.4671  0.0490
  296MOL0     H39038  10.140  12.180  12.562  0.9401  0.0946  0.0698
  296MOL0     H39039  10.139  12.067  12.692  1.2289  1.5845 -0.9580
  296MOL0     H39040   9.890  12.197  12.568 -0.6964  2.9040  1.9583
  296MOL0     H39041   9.970  12.248  12.714 -2.5884 -0.1784  0.7191
  296MOL0     H39042   9.938  12.050  12.831 -0.2962  1.8204  1.6018
  296MOL0     H39043   9.836  11.968  12.707  1.4581  0.3346 -0.6293
  296MOL0     H39044   9.782  12.198  12.891  2.1518 -1.3690  1.6083
  296MOL0     H39045   9.701  12.167  12.722  2.4475  2.2670 -0.1970
  296MOL0     H39046   9.715  11.944  12.950  1.5270 -1.5366 -2.0537
  296MOL0     H39047   9.631  11.949  12.810  3.0114  0.0083 -2.3703
  296MOL0     H39048   9.488  12.139  12.893 -0.1389  1.7295  1.9721
  296MOL0     H39049   9.591  12.157  13.036 -2.1142  0.9251  0.5090
  296MOL0     H39050   9.374  12.023  13.065  0.5131 -0.0656 -0.5431
  296MOL0     H39051   9.434  11.912  12.939 -0.1881  1.1392 -0.8297
  296MOL0     H39052   9.514  11.932  13.221  0.3460 -0.8377  0.2017
  296MOL0     H39053   9.594  11.820  13.107  0.3115  0.6265  0.6013
  296MOL0     H39054  10.048  11.823  12.325  1.0469 -1.2205 -1.1759
  296MOL0     H39055  10.216  11.749  12.179 -1.1029  0.2106 -0.5689
  296MOL0     H39056  10.536  11.919  11.781 -0.8772  0.3136  0.1532
  296MOL0     H39057  10.655  11.767  11.633  0.4771 -2.8092 -0.4012
  296MOL0     H39058   9.767  11.270  10.390  2.1407  2.1439 -0.5361
  296MOL0     H39059   9.770  11.383  10.166  0.2254  0.5371 -1.1501
  296MOL0     H39060   9.776  11.153   9.543 -0.9786 -1.5804  1.7188
  296MOL0     H39061   9.743  11.302   9.355  3.0355  0.3043  0.5531
  296MOL0     H39062   9.812  11.711   9.451 -2.0382  0.8120  1.6051
  296MOL0     H39063   9.660  11.757   9.379 -1.4191 -1.3484 -0.8059
  296MOL0     H39064   9.844  11.837   9.261 -2.4140  0.0732  1.3687
  296MOL0     H39065   9.889  11.665   9.208  1.9470  1.9539  0.2826
  296MOL0     H39066   9.631  11.786   9.140 -0.2194  0.1862 -1.7207
  296MOL0     H39067   9.672  11.615   9.122 -0.7052 -0.4311  3.9673
  296MOL0     H39068   9.806  11.877   9.021  3.2897 -0.0207 -1.5887
  296MOL0     H39069   9.901  11.736   9.000  0.3961 -1.3747  0.0388
  296MOL0     H39070   9.650  11.751   8.653  1.6945  3.8476 -0.7851
  296MOL0     H39071   9.724  11.635   9.632 -5.0248 -0.6527 -0.0877
  296MOL0     H39072   9.762  11.502   9.818 -0.8089  1.8295 -0.0029
  297MOL0     O39073   2.741   4.368  10.856  0.2181 -0.5293 -0.1682
  297MOL0     C39074   2.757   4.294  10.952 -0.2165 -0.3525 -1.1360
  297MOL0     O39075   2.859   4.208  10.964  0.1168 -0.5692 -0.2106
  297MOL0     C39076   2.954   4.195  10.867  1.3813 -0.8501 -0.4511
  297MOL0     C39077   2.921   4.139  10.737 -0.5153  0.1860  0.2706
  297MOL0     C39078   3.022   4.105  10.644  0.9981 -0.0925 -0.7767
  297MOL0     C39079   3.155   4.119  10.676  0.6600  0.1836  0.0018
  297MOL0     O39080   3.251   4.096  10.586 -0.1124 -0.1838 -0.0407
  297MOL0     C39081   3.250   4.185  10.478  0.7629 -0.0336 -0.1644
  297MOL0     C39082   3.368   4.171  10.398  0.2741  0.2894  0.1591
  297MOL0     C39083   3.383   4.261  10.282 -0.2478  0.3366  0.2927
  297MOL0     C39084   3.515   4.225  10.209  0.4175  0.3945 -0.1182
  297MOL0     C39085   3.500   4.102  10.116  0.5621  0.9559  0.2212
  297MOL0     C39086   3.620   4.110  10.017 -0.3679  0.2540  0.1086
  297MOL0     C39087   3.633   3.978   9.947 -0.4981  0.3988 -0.1435
  297MOL0     C39088   3.536   3.951   9.841  0.0001 -0.3798 -0.9052
  297MOL0     N39089   3.510   3.814   9.812 -0.1020 -0.7821 -0.7722
  297MOL0     C39090   3.617   3.733   9.783 -0.6868  1.0422 -0.9392
  297MOL0     C39091   3.568   3.602   9.776 -0.0296  0.5806 -0.0383
  297MOL0     C39092   3.642   3.474   9.745 -0.2383 -0.0696 -0.7862
  297MOL0     C39093   3.557   3.353   9.696  0.5092 -0.4177  0.4224
  297MOL0     C39094   3.641   3.221   9.701 -0.5895  0.2978 -0.0418
  297MOL0     C39095   3.762   3.229   9.598 -0.6593 -0.1060 -0.1083
  297MOL0     O39096   3.803   3.097   9.552  0.0222  0.0444  0.6088
  297MOL0     C39097   3.902   3.022   9.624 -0.4932 -0.4317 -0.6645
  297MOL0     C39098   3.982   2.938   9.545  1.3316  0.2523  0.0987
  297MOL0     C39099   4.083   2.867   9.606 -0.3341  0.6454  0.7612
  297MOL0     C39100   4.099   2.874   9.748 -0.2086 -0.2106  0.0424
  297MOL0     C39101   4.179   2.780   9.821  0.0701  0.2944  0.3700
  297MOL0     O39102   4.251   2.689   9.747  0.1094 -0.0187  0.1703
  297MOL0     C39103   4.322   2.592   9.806 -0.2668  1.1724 -0.9255
  297MOL0     C39104   4.447   2.561   9.744  0.0313 -0.1480  0.1464
  297MOL0     C39105   4.531   2.461   9.792  0.6722 -0.2481 -0.6719
  297MOL0     C39106   4.493   2.385   9.908 -0.5166 -0.4497 -0.5324
  297MOL0     O39107   4.581   2.288   9.966 -0.5155 -0.0967 -0.1743
  297MOL0     C39108   4.536   2.182  10.058  0.2254 -0.2634 -0.5284
  297MOL0     C39109   4.642   2.078  10.084  0.2683  1.1308 -0.4175
  297MOL0     C39110   4.594   1.947  10.146  0.2511 -0.3384  0.7083
  297MOL0     C39111   4.702   1.840  10.135 -0.2338 -0.2165 -0.1242
  297MOL0     C39112   4.660   1.702  10.177 -0.3742 -0.0895 -0.5962
  297MOL0     C39113   4.576   1.648  10.062 -0.9201 -0.3658 -0.3006
  297MOL0     C39114   4.551   1.494  10.111  0.4233 -0.9449 -0.4431
  297MOL0     C39115   4.466   1.417  10.012  0.7620  0.6509  0.3721
  297MOL0    Cl39116   4.419   1.243  10.048 -0.1149  0.2249  0.0638
  297MOL0     C39117   4.368   2.410   9.971  0.3930 -1.0952 -0.1772
  297MOL0     C39118   4.289   2.515   9.922  0.0814  0.0314 -1.0385
  297MOL0     O39119   4.189   2.785   9.946  0.1027 -0.0395  0.5560
  297MOL0     C39120   4.025   2.959   9.828  0.2616  0.1947  1.1572
  297MOL0     C39121   3.921   3.025   9.766 -0.6445 -0.5282 -0.9304
  297MOL0     N39122   3.439   3.611   9.815 -0.4506  0.0357  0.3357
  297MOL0     N39123   3.412   3.737   9.846 -0.4595  1.0441 -0.0549
  297MOL0     C39124   3.185   4.169  10.799  0.3598 -0.0903  0.7410
  297MOL0     C39125   3.093   4.207  10.897  0.0381 -0.5403  0.0379
  297MOL0     C39126   2.656   4.293  11.065 -0.2267  0.5317  0.1625
  297MOL0     C39127   2.550   4.382  11.084  0.7168  0.2380  0.5125
  297MOL0     C39128   2.466   4.378  11.189  0.1681 -0.3694  0.0479
  297MOL0     C39129   2.491   4.286  11.293  0.5549 -0.2655 -0.8200
  297MOL0     O39130   2.399   4.267  11.397 -0.2331  0.3750 -0.1109
  297MOL0     C39131   2.286   4.359  11.416 -0.4743  0.5777  0.6414
  297MOL0     C39132   2.320   4.511  11.447 -0.3819 -0.0923 -0.1462
  297MOL0     C39133   2.392   4.522  11.591  1.4032  0.1270 -0.3060
  297MOL0     C39134   2.287   4.567  11.705 -0.5995 -0.3192 -0.3439
  297MOL0     C39135   2.346   4.556  11.831  0.2312 -0.2618 -0.5154
  297MOL0     C39136   2.393   4.513  11.936  0.6389 -0.3525  0.9102
  297MOL0     C39137   2.594   4.189  11.281  0.1997 -0.3670 -0.2693
  297MOL0     C39138   2.675   4.197  11.166 -0.4054 -0.0900  0.7453
  297MOL0     H39139   2.814   4.122  10.729 -0.1490 -2.2222 -0.1967
  297MOL0     H39140   2.988   4.055  10.553 -0.5847  0.8410 -0.7489
  297MOL0     H39141   3.239   4.289  10.512  0.0843 -0.2819  0.3961
  297MOL0     H39142   3.170   4.161  10.407  2.2105  1.1865 -2.3245
  297MOL0     H39143   3.373   4.065  10.373  1.0029  0.3604 -0.0217
  297MOL0     H39144   3.453   4.173  10.466  0.7573 -0.7520 -0.4003
  297MOL0     H39145   3.392   4.363  10.318 -3.5770  1.7153 -2.3339
  297MOL0     H39146   3.295   4.263  10.218 -0.0402 -2.1245 -0.1833
  297MOL0     H39147   3.544   4.313  10.150  3.1780 -0.8099 -0.7174
  297MOL0     H39148   3.591   4.220  10.287 -1.8377 -3.1943  2.1577
  297MOL0     H39149   3.404   4.103  10.064 -0.1786 -3.0368  1.2173
  297MOL0     H39150   3.499   4.014  10.180 -4.1053  0.2108 -0.5304
  297MOL0     H39151   3.715   4.133  10.066 -0.2149 -0.8430  0.3635
  297MOL0     H39152   3.597   4.191   9.948 -2.3439  1.2118  1.7751
  297MOL0     H39153   3.732   3.964   9.903  0.0743  1.6840  0.6657
  297MOL0     H39154   3.617   3.897  10.019  0.4962 -0.0439 -0.4061
  297MOL0     H39155   3.573   3.985   9.743 -2.8909  1.8533 -1.3956
  297MOL0     H39156   3.441   4.004   9.856 -0.5052 -1.4504 -0.1886
  297MOL0     H39157   3.721   3.764   9.776 -0.0725 -0.7630 -0.3267
  297MOL0     H39158   3.668   3.437   9.845 -1.8671 -1.3739 -0.8104
  297MOL0     H39159   3.730   3.488   9.681 -0.4722  1.7231 -0.7786
  297MOL0     H39160   3.528   3.376   9.593 -0.2360 -0.9129  0.5201
  297MOL0     H39161   3.473   3.355   9.766 -1.7272  4.9945 -1.8089
  297MOL0     H39162   3.656   3.206   9.808 -4.1552  1.5371  0.7550
  297MOL0     H39163   3.580   3.136   9.669  2.1921 -2.0594  0.4563
  297MOL0     H39164   3.842   3.279   9.653  3.0365 -2.9867 -2.3240
  297MOL0     H39165   3.735   3.297   9.517 -2.7846 -0.4890  0.1983
  297MOL0     H39166   3.965   2.936   9.438 -0.3177 -0.0978  0.3456
  297MOL0     H39167   4.152   2.808   9.548 -0.0112  0.9096  0.8751
  297MOL0     H39168   4.468   2.603   9.646  2.2094 -0.8048  0.2859
  297MOL0     H39169   4.623   2.438   9.738 -0.2395 -0.2337 -2.3085
  297MOL0     H39170   4.446   2.137  10.015 -1.2583  2.1067 -0.0520
  297MOL0     H39171   4.520   2.244  10.147  1.6555  3.3186 -2.5883
  297MOL0     H39172   4.724   2.108  10.151  2.1538 -2.8518 -0.6412
  297MOL0     H39173   4.693   2.056   9.990  1.4677  2.1054 -0.0335
  297MOL0     H39174   4.508   1.913  10.088  0.5167  3.4773 -2.2959
  297MOL0     H39175   4.563   1.973  10.248 -0.2460  0.2162  0.4190
  297MOL0     H39176   4.746   1.844  10.035  0.5740  2.0538  0.2651
  297MOL0     H39177   4.781   1.873  10.203 -1.1855  0.3260  0.7656
  297MOL0     H39178   4.617   1.685  10.276  0.2316  1.0230 -0.1258
  297MOL0     H39179   4.751   1.643  10.188  0.2342  1.0182  0.6410
  297MOL0     H39180   4.622   1.655   9.963  2.3473  3.4039  1.2063
  297MOL0     H39181   4.481   1.701  10.049 -0.3411  1.3038  1.6535
  297MOL0     H39182   4.640   1.433  10.129 -1.0397 -2.8511  0.5584
  297MOL0     H39183   4.500   1.498  10.207 -0.5329  1.3644 -0.9618
  297MOL0     H39184   4.514   1.425   9.914  0.9934  1.5841  0.5471
  297MOL0     H39185   4.373   1.473   9.999  1.2157  0.8501 -2.5903
  297MOL0     H39186   4.322   2.355  10.052 -2.5322 -1.0470 -1.6858
  297MOL0     H39187   4.199   2.545   9.975  0.5128  1.1705 -0.9281
  297MOL0     H39188   4.029   2.969   9.936  0.4664 -0.4513  1.2163
  297MOL0     H39189   3.862   3.099   9.821  2.6707  1.5866  0.1420
  297MOL0     H39190   3.291   4.178  10.825  0.0294  0.5485  1.9482
  297MOL0     H39191   3.134   4.230  10.996 -5.3114 -0.0797  2.4921
  297MOL0     H39192   2.531   4.457  11.007 -1.2208 -1.7664 -1.1070
  297MOL0     H39193   2.372   4.431  11.178  0.4159 -0.2468 -1.5817
  297MOL0     H39194   2.233   4.317  11.502  2.8615 -1.2334  1.9719
  297MOL0     H39195   2.219   4.355  11.329  0.6075 -0.5361 -0.1641
  297MOL0     H39196   2.386   4.556  11.372 -0.4646  1.5183  0.7071
  297MOL0     H39197   2.232   4.576  11.453  0.0827  0.7195 -1.6670
  297MOL0     H39198   2.468   4.600  11.596 -0.8492  2.4244  2.6930
  297MOL0     H39199   2.439   4.426  11.614  0.5358  0.1849  2.0678
  297MOL0     H39200   2.262   4.671  11.679  1.7375 -0.0015 -1.5897
  297MOL0     H39201   2.192   4.514  11.693 -1.4460  0.9442  0.5871
  297MOL0     H39202   2.419   4.472  12.031  1.4592  0.1607  0.9149
  297MOL0     H39203   2.611   4.119  11.362  5.6038  0.2425 -0.5574
  297MOL0     H39204   2.748   4.117  11.154 -1.5399 -0.8744 -1.5971
  298MOL0     O39205  10.238   0.448   2.969  0.2581 -0.0162  0.4703
  298MOL0     C39206  10.164   0.369   3.024  0.0882 -0.4173 -0.8377
  298MOL0     O39207  10.180   0.230   3.036 -0.4578 -0.2235  0.1957
  298MOL0     C39208  10.286   0.176   2.981  0.2584 -0.9570  0.2386
  298MOL0     C39209  10.378   0.114   3.058 -0.6545  0.1956 -0.3043
  298MOL0     C39210  10.488   0.047   3.001 -0.6501 -0.9750 -0.0007
  298MOL0     C39211  10.513   0.049   2.860 -0.3060  0.7737 -0.0859
  298MOL0     O39212  10.622  -0.025   2.815  0.0229 -0.8613  1.1417
  298MOL0     C39213  10.666   0.005   2.683  0.8697 -1.0476 -0.8938
  298MOL0     C39214  10.787  -0.072   2.651  0.1149  0.6804  0.4734
  298MOL0     C39215  10.740  -0.218   2.607 -0.3971 -0.6013 -0.3776
  298MOL0     C39216  10.852  -0.319   2.614  1.2242  0.1567  1.2592
  298MOL0     C39217  10.839  -0.386   2.748  0.4104  0.8402  0.1733
  298MOL0     C39218  10.955  -0.485   2.762 -0.3110 -0.2018 -0.4904
  298MOL0     C39219  10.928  -0.584   2.878 -0.0635 -0.5441  0.2679
  298MOL0     C39220  11.065  -0.639   2.942  0.0126  0.1204 -0.2509
  298MOL0     N39221  11.051  -0.764   3.023 -0.4489 -0.8748  0.2682
  298MOL0     C39222  11.035  -0.769   3.167 -0.0002  1.2075 -0.1999
  298MOL0     C39223  11.019  -0.900   3.193  0.2543 -0.5805  0.3638
  298MOL0     C39224  10.973  -0.955   3.323 -0.9966 -0.3686  0.1505
  298MOL0     C39225  10.839  -1.018   3.319 -0.0468 -1.1089 -1.2191
  298MOL0     C39226  10.721  -0.932   3.282  0.4313  1.0512 -0.2244
  298MOL0     C39227  10.697  -0.809   3.369  0.0152 -0.4991 -0.9858
  298MOL0     O39228  10.578  -0.727   3.340 -0.0042  0.2399 -0.3906
  298MOL0     C39229  10.547  -0.678   3.216 -0.0178  0.0239 -0.3448
  298MOL0     C39230  10.486  -0.760   3.118  0.9322  0.5217  0.7297
  298MOL0     C39231  10.433  -0.713   2.987 -0.2326 -0.2610  0.0799
  298MOL0     C39232  10.468  -0.587   2.949  1.0545 -0.3876 -0.0146
  298MOL0     C39233  10.417  -0.532   2.817 -0.9285  0.0738 -0.3217
  298MOL0     O39234  10.460  -0.402   2.785  0.6223  0.1391  0.3889
  298MOL0     C39235  10.393  -0.333   2.687 -0.2109 -1.3141 -0.5187
  298MOL0     C39236  10.301  -0.234   2.711 -0.3784 -0.2613  0.5668
  298MOL0     C39237  10.246  -0.153   2.617  0.2165 -0.2869  0.4885
  298MOL0     C39238  10.263  -0.184   2.485 -0.4967 -0.0421  0.2731
  298MOL0     O39239  10.191  -0.105   2.400 -0.5412  0.5341  0.4084
  298MOL0     C39240  10.195  -0.134   2.258 -0.8058 -0.6594 -0.2492
  298MOL0     C39241  10.132  -0.021   2.179  0.3390  0.0189 -1.1564
  298MOL0     C39242  10.186   0.115   2.225  0.0302  0.2214 -0.4239
  298MOL0     C39243  10.157   0.231   2.130 -0.8630  0.0718  0.5213
  298MOL0     C39244  10.263   0.218   2.014  0.5752  0.8065 -0.2499
  298MOL0     C39245  10.229   0.305   1.893 -0.9589 -0.2325  0.2513
  298MOL0     C39246  10.258   0.447   1.945 -0.7807 -0.4919 -0.0684
  298MOL0     C39247  10.293   0.566   1.849  1.1841 -0.1602 -1.0458
  298MOL0    Cl39248  10.153   0.582   1.752 -0.2690 -0.3554  0.3099
  298MOL0     C39249  10.358  -0.280   2.454  0.5615 -0.4615 -0.0932
  298MOL0     C39250  10.426  -0.354   2.556 -0.4255 -0.7705  0.1036
  298MOL0     O39251  10.350  -0.607   2.747 -1.2788 -0.1755 -0.1930
  298MOL0     C39252  10.543  -0.502   3.039  0.2885  0.7117 -0.5878
  298MOL0     C39253  10.568  -0.549   3.169  0.2802  0.5995  0.2291
  298MOL0     N39254  11.028  -0.972   3.067  0.5723 -0.7247 -0.1032
  298MOL0     N39255  11.046  -0.882   2.972  0.4697  0.9131  0.2236
  298MOL0     C39256  10.429   0.122   2.787  0.7381 -0.2195  0.5079
  298MOL0     C39257  10.320   0.184   2.847  0.5696 -0.2471  0.6866
  298MOL0     C39258  10.051   0.435   3.094  0.1332 -0.1102 -0.2751
  298MOL0     C39259  10.022   0.579   3.098 -0.2044 -0.4280 -0.5093
  298MOL0     C39260   9.926   0.634   3.188 -0.4899  0.6105 -0.5338
  298MOL0     C39261   9.837   0.547   3.254 -0.2211  0.1752  1.0561
  298MOL0     O39262   9.732   0.598   3.322  0.0670 -0.2216 -0.2454
  298MOL0     C39263   9.635   0.514   3.397  0.0604  0.1257  0.0261
  298MOL0     C39264   9.557   0.607   3.497 -0.5236 -0.4762 -0.4124
  298MOL0     C39265   9.648   0.681   3.592  0.6906 -0.1489 -0.7790
  298MOL0     C39266   9.563   0.756   3.698 -0.2061  0.0818  0.4376
  298MOL0     C39267   9.529   0.680   3.812 -0.2199 -0.6476  0.3250
  298MOL0     C39268   9.485   0.635   3.912  0.6443  0.0615  0.0507
  298MOL0     C39269   9.856   0.413   3.234  0.2217  0.3597  0.0197
  298MOL0     C39270   9.956   0.350   3.164  0.7660 -0.9393  0.6928
  298MOL0     H39271  10.346   0.101   3.161 -0.0459  0.4113 -0.0799
  298MOL0     H39272  10.556  -0.020   3.053  0.6007 -0.5368 -1.0028
  298MOL0     H39273  10.675   0.113   2.668 -4.6934 -0.4626 -2.2666
  298MOL0     H39274  10.580  -0.003   2.616 -1.4386  1.3437  1.5496
  298MOL0     H39275  10.865  -0.066   2.728 -0.6832 -0.8969  1.4611
  298MOL0     H39276  10.833  -0.038   2.558  0.8054  1.2510  1.0044
  298MOL0     H39277  10.699  -0.219   2.506 -1.5067 -3.5269  0.0201
  298MOL0     H39278  10.656  -0.248   2.670 -0.7295 -2.9718 -1.8424
  298MOL0     H39279  10.841  -0.384   2.527  0.5874  2.3092 -0.3773
  298MOL0     H39280  10.948  -0.270   2.597 -0.2899  2.5675 -1.3959
  298MOL0     H39281  10.745  -0.439   2.767  0.8804 -0.1851 -0.2565
  298MOL0     H39282  10.840  -0.311   2.827 -0.9736  0.5425  0.5003
  298MOL0     H39283  11.051  -0.436   2.781 -0.0734 -0.0576 -1.9242
  298MOL0     H39284  10.963  -0.547   2.672  1.1065 -0.1643 -0.4010
  298MOL0     H39285  10.882  -0.538   2.966  3.3725 -0.2390  2.1134
  298MOL0     H39286  10.851  -0.655   2.846 -0.1535 -1.0961  1.6226
  298MOL0     H39287  11.112  -0.564   3.005  1.6310 -1.4395  0.4919
  298MOL0     H39288  11.141  -0.652   2.864 -1.4399  1.0385 -1.9106
  298MOL0     H39289  11.023  -0.691   3.241  1.4765  2.7071 -1.4647
  298MOL0     H39290  10.981  -0.882   3.404  0.3676 -0.7019  0.3379
  298MOL0     H39291  11.053  -1.025   3.350  1.2921  1.3496 -1.7665
  298MOL0     H39292  10.832  -1.064   3.418  2.1790  1.4035  0.2404
  298MOL0     H39293  10.826  -1.095   3.242 -1.2304 -2.1974  0.0256
  298MOL0     H39294  10.729  -0.886   3.183 -1.0580  0.9804 -0.3906
  298MOL0     H39295  10.630  -0.992   3.284  0.7107  0.5862  2.4348
  298MOL0     H39296  10.781  -0.739   3.358  0.2586 -0.9978 -2.5932
  298MOL0     H39297  10.699  -0.834   3.475  1.7259 -1.6003 -1.2453
  298MOL0     H39298  10.469  -0.862   3.153 -0.7997  0.0104 -1.3509
  298MOL0     H39299  10.379  -0.776   2.916  1.1036 -0.0810 -1.1232
  298MOL0     H39300  10.287  -0.205   2.815 -1.0561  0.1801  0.3607
  298MOL0     H39301  10.179  -0.072   2.645  1.2624  0.0363  2.2408
  298MOL0     H39302  10.124  -0.216   2.245 -0.7288 -1.3865  2.9558
  298MOL0     H39303  10.296  -0.157   2.223 -0.6333 -1.5670  0.7939
  298MOL0     H39304  10.025  -0.004   2.195  0.2172  0.3485 -2.2562
  298MOL0     H39305  10.156  -0.037   2.073  0.3715  0.8815 -1.2855
  298MOL0     H39306  10.293   0.097   2.236 -0.5135 -3.5159  0.0803
  298MOL0     H39307  10.145   0.148   2.321 -0.5453  2.9309 -1.4999
  298MOL0     H39308  10.056   0.227   2.089 -0.3078 -1.8992 -0.8038
  298MOL0     H39309  10.176   0.331   2.171  2.5769 -1.1895  2.4474
  298MOL0     H39310  10.266   0.111   1.991  1.4677  0.1194  2.6277
  298MOL0     H39311  10.366   0.230   2.048  0.9865  3.9437 -2.2240
  298MOL0     H39312  10.127   0.288   1.858 -1.2237  2.0108 -0.2534
  298MOL0     H39313  10.301   0.284   1.814 -0.3518 -2.2761  1.2780
  298MOL0     H39314  10.170   0.464   2.008  0.6768 -0.5357  2.1173
  298MOL0     H39315  10.348   0.438   2.008 -0.9911 -2.5625  0.0161
  298MOL0     H39316  10.375   0.521   1.792 -0.2577 -1.6971 -2.0247
  298MOL0     H39317  10.313   0.665   1.890  4.0113 -1.0188 -0.1773
  298MOL0     H39318  10.380  -0.304   2.351  3.1518  0.7253  0.1099
  298MOL0     H39319  10.502  -0.427   2.530 -1.4457 -0.7024 -3.7667
  298MOL0     H39320  10.557  -0.395   3.025  2.7061  0.6261  0.6345
  298MOL0     H39321  10.619  -0.483   3.238 -2.5269  1.8133  1.2788
  298MOL0     H39322  10.436   0.125   2.679 -0.9136 -1.7459  0.3134
  298MOL0     H39323  10.250   0.247   2.792  0.8156  0.0771  0.7375
  298MOL0     H39324  10.075   0.652   3.038  0.7270  0.7568  1.6323
  298MOL0     H39325   9.907   0.738   3.214 -0.8791  0.2272  0.8111
  298MOL0     H39326   9.688   0.439   3.456 -0.8843 -1.4144 -1.0095
  298MOL0     H39327   9.578   0.458   3.323 -0.9160  0.8503  0.2050
  298MOL0     H39328   9.497   0.681   3.442 -0.6877  1.3377  2.0463
  298MOL0     H39329   9.505   0.542   3.568  0.3313 -0.8981 -0.1725
  298MOL0     H39330   9.698   0.760   3.536 -2.6275  0.3182 -3.3692
  298MOL0     H39331   9.729   0.620   3.634  0.4041 -0.4555 -0.6702
  298MOL0     H39332   9.614   0.847   3.730 -0.7341 -0.2606  2.3923
  298MOL0     H39333   9.472   0.777   3.641 -0.1376  3.4289  1.3679
  298MOL0     H39334   9.445   0.609   4.009  0.2564  0.3594 -0.0299
  298MOL0     H39335   9.788   0.345   3.284  0.5636  2.2979  3.5038
  298MOL0     H39336   9.962   0.243   3.179  1.0888 -0.9128  0.7604
  299MOL0     O39337   4.471   2.363  10.586  0.8429  0.0741  0.1747
  299MOL0     C39338   4.543   2.298  10.512  0.1486  0.2258 -0.0711
  299MOL0     O39339   4.605   2.336  10.399  0.7428  0.4910 -0.4673
  299MOL0     C39340   4.588   2.467  10.371 -0.4137 -1.0687 -1.5135
  299MOL0     C39341   4.470   2.509  10.312  0.0105  0.1439 -0.0443
  299MOL0     C39342   4.455   2.639  10.259 -0.2576  0.4089 -0.5836
  299MOL0     C39343   4.554   2.737  10.281  1.0061 -0.0805 -0.0479
  299MOL0     O39344   4.557   2.872  10.246  0.3515 -0.3679 -0.0534
  299MOL0     C39345   4.438   2.924  10.185  0.3028 -0.8620 -0.3509
  299MOL0     C39346   4.456   3.076  10.174 -0.4931  0.6697  0.4758
  299MOL0     C39347   4.341   3.145  10.104  1.2966  0.6230 -0.3847
  299MOL0     C39348   4.216   3.145  10.190  0.3039 -0.6162  0.4310
  299MOL0     C39349   4.213   3.259  10.291 -0.3828  1.4013  0.3863
  299MOL0     C39350   4.083   3.245  10.376  0.5488 -0.3566 -0.6850
  299MOL0     C39351   4.018   3.380  10.424 -0.3960 -0.4194  0.5352
  299MOL0     C39352   3.867   3.370  10.440  0.1855 -0.2694 -0.1129
  299MOL0     N39353   3.809   3.502  10.481  0.0902 -0.7831  0.8609
  299MOL0     C39354   3.745   3.518  10.596 -0.5145 -0.4936  0.1360
  299MOL0     C39355   3.712   3.648  10.596  0.1750 -0.0355  1.1614
  299MOL0     C39356   3.636   3.717  10.705  0.6928 -0.0671 -0.4561
  299MOL0     C39357   3.491   3.758  10.668  1.1993 -0.8406  0.0214
  299MOL0     C39358   3.411   3.815  10.787 -0.1223 -0.2289  0.2103
  299MOL0     C39359   3.437   3.749  10.930 -0.7521  0.3007  0.7278
  299MOL0     O39360   3.339   3.652  10.984 -0.0445  0.2606  0.9526
  299MOL0     C39361   3.214   3.696  11.011 -0.4437 -0.0451 -0.1276
  299MOL0     C39362   3.124   3.592  11.053 -0.7503 -0.2102 -1.2426
  299MOL0     C39363   2.990   3.619  11.093 -0.2903 -0.7197  1.3208
  299MOL0     C39364   2.945   3.753  11.082 -0.0537 -0.8324  0.3958
  299MOL0     C39365   2.809   3.791  11.115 -0.7758 -0.1490 -0.3285
  299MOL0     O39366   2.739   3.696  11.180 -1.0580  0.9960 -0.3547
  299MOL0     C39367   2.630   3.743  11.246  0.3320  0.8268 -0.4962
  299MOL0     C39368   2.499   3.684  11.218 -1.2294  0.3040  0.6734
  299MOL0     C39369   2.395   3.715  11.299 -0.8920  0.0988 -0.1974
  299MOL0     C39370   2.406   3.800  11.403 -0.4487  0.2950  0.1634
  299MOL0     O39371   2.299   3.829  11.489 -0.4908 -0.4664 -0.2966
  299MOL0     C39372   2.305   3.956  11.564 -0.5441  0.1400  0.1645
  299MOL0     C39373   2.183   3.984  11.648  0.5806  0.8863 -0.0162
  299MOL0     C39374   2.205   4.092  11.743 -0.4476 -0.1164  0.4512
  299MOL0     C39375   2.089   4.098  11.838  0.1597  0.0168  0.7490
  299MOL0     C39376   2.076   4.246  11.896 -0.1862  0.3168  1.3324
  299MOL0     C39377   1.991   4.238  12.025 -0.7089 -0.0374 -0.5492
  299MOL0     C39378   1.852   4.172  12.005  0.2716 -0.7993  0.1063
  299MOL0     C39379   1.789   4.173  12.146 -0.4910  0.4787  0.6783
  299MOL0    Cl39380   1.673   4.033  12.157  0.0766  0.0540 -0.1165
  299MOL0     C39381   2.530   3.854  11.431 -0.9673  0.2278  0.6136
  299MOL0     C39382   2.643   3.833  11.350 -0.1979  0.3525 -0.9088
  299MOL0     O39383   2.770   3.905  11.081  0.6520  0.7028  0.4551
  299MOL0     C39384   3.035   3.859  11.043  0.0658  0.1156 -0.1412
  299MOL0     C39385   3.170   3.826  11.006  0.0605 -0.2456  0.8780
  299MOL0     N39386   3.741   3.709  10.475 -0.4776  0.0703  0.3484
  299MOL0     N39387   3.809   3.622  10.410  1.1429 -0.3393 -0.0450
  299MOL0     C39388   4.665   2.692  10.349 -0.6696 -0.6158 -0.5943
  299MOL0     C39389   4.686   2.556  10.389 -0.0750 -0.0649  0.1429
  299MOL0     C39390   4.551   2.163  10.548 -0.9342  0.8667  0.4500
  299MOL0     C39391   4.465   2.099  10.648 -0.7781  0.7600  0.8990
  299MOL0     C39392   4.486   1.964  10.673 -0.5160 -0.1603  0.5020
  299MOL0     C39393   4.595   1.891  10.632 -0.4930  0.2969  0.2544
  299MOL0     O39394   4.609   1.760  10.681 -0.0561  0.3704  0.2426
  299MOL0     C39395   4.739   1.695  10.673  0.1410 -0.8878  0.7305
  299MOL0     C39396   4.724   1.563  10.753  0.3957 -0.1029 -0.7089
  299MOL0     C39397   4.849   1.477  10.771 -0.5150 -0.0797 -0.1012
  299MOL0     C39398   4.832   1.356  10.871 -0.9245  0.2656  0.2124
  299MOL0     C39399   4.923   1.240  10.838 -0.5171  0.4937  0.3931
  299MOL0     C39400   5.011   1.166  10.790  0.2207  0.6351  0.2071
  299MOL0     C39401   4.678   1.949  10.539 -0.0020  0.1220  0.6387
  299MOL0     C39402   4.662   2.080  10.496 -0.0181 -0.3706  0.0481
  299MOL0     H39403   4.387   2.441  10.296 -0.8697  1.6137 -2.3511
  299MOL0     H39404   4.361   2.672  10.214 -0.2251 -0.2496 -1.1412
  299MOL0     H39405   4.342   2.897  10.229  0.6126  1.2354  1.8716
  299MOL0     H39406   4.439   2.882  10.084  0.0101  0.2807 -0.8524
  299MOL0     H39407   4.547   3.096  10.116 -1.5519  4.8211 -0.0661
  299MOL0     H39408   4.475   3.120  10.272  1.2730  2.3704 -0.5557
  299MOL0     H39409   4.321   3.085  10.015  1.1020 -0.4403  0.3500
  299MOL0     H39410   4.372   3.248  10.083 -2.0250  1.9322  0.6160
  299MOL0     H39411   4.128   3.153  10.126 -1.7486 -4.6234  2.3427
  299MOL0     H39412   4.205   3.048  10.240 -0.4359 -0.0710  1.3592
  299MOL0     H39413   4.209   3.353  10.237 -0.3103  0.3571 -1.5069
  299MOL0     H39414   4.303   3.257  10.353  0.1641  0.3994 -0.4088
  299MOL0     H39415   4.106   3.180  10.461  0.9120 -1.1666 -1.3905
  299MOL0     H39416   4.009   3.195  10.313 -1.6227  2.4879 -0.5995
  299MOL0     H39417   4.062   3.407  10.520 -1.4588  0.3266  0.8359
  299MOL0     H39418   4.048   3.449  10.344  0.8200 -1.3113  0.1891
  299MOL0     H39419   3.853   3.308  10.529  0.2404  0.5877  0.4992
  299MOL0     H39420   3.818   3.338  10.347 -0.0586  0.6129 -0.2966
  299MOL0     H39421   3.731   3.440  10.670  3.3789 -1.3365  0.2125
  299MOL0     H39422   3.692   3.808  10.728  1.2893 -0.3052 -0.9442
  299MOL0     H39423   3.639   3.643  10.786 -2.0943 -0.4768 -0.6546
  299MOL0     H39424   3.440   3.672  10.622  2.9656 -2.0210  0.1630
  299MOL0     H39425   3.502   3.831  10.587  1.1449 -0.3332  0.4677
  299MOL0     H39426   3.450   3.917  10.792  1.4474 -0.7574 -0.7060
  299MOL0     H39427   3.304   3.819  10.765 -0.0050 -1.3735 -0.6627
  299MOL0     H39428   3.433   3.833  11.000 -1.7168 -1.2343  2.6022
  299MOL0     H39429   3.539   3.709  10.935 -0.2458  0.4476 -3.7789
  299MOL0     H39430   3.164   3.494  11.077 -2.5351 -0.5776  0.5976
  299MOL0     H39431   2.929   3.535  11.124  0.6117 -0.9698  2.4592
  299MOL0     H39432   2.502   3.611  11.138  0.2421 -0.7070  1.6103
  299MOL0     H39433   2.297   3.681  11.267 -0.5276  1.0078 -2.5164
  299MOL0     H39434   2.311   4.035  11.489  0.6895 -1.1928 -1.1965
  299MOL0     H39435   2.393   3.959  11.629 -0.7496 -2.7863  0.7170
  299MOL0     H39436   2.163   3.887  11.695  0.7964 -0.6632 -2.8500
  299MOL0     H39437   2.093   3.991  11.587  1.3488 -3.0437 -1.9156
  299MOL0     H39438   2.202   4.181  11.680  0.2174 -1.2229 -1.2213
  299MOL0     H39439   2.298   4.085  11.800 -0.8054 -3.8375  0.8312
  299MOL0     H39440   1.996   4.072  11.787 -0.1887  1.5811  0.5333
  299MOL0     H39441   2.109   4.020  11.913  0.6367 -3.1199 -2.3824
  299MOL0     H39442   2.021   4.321  11.838  0.4632 -0.4851 -0.3975
  299MOL0     H39443   2.172   4.294  11.913  1.4692 -2.4796  0.4446
  299MOL0     H39444   1.980   4.333  12.078 -0.9587 -0.0514 -0.5755
  299MOL0     H39445   2.047   4.176  12.095  1.0224  1.8094 -0.2070
  299MOL0     H39446   1.792   4.234  11.938 -1.5915 -2.1187  0.5074
  299MOL0     H39447   1.861   4.070  11.967  4.8010 -0.5743 -0.0318
  299MOL0     H39448   1.729   4.264  12.155  1.2117  1.6496  0.5489
  299MOL0     H39449   1.862   4.160  12.226  0.0293 -0.5326  0.0572
  299MOL0     H39450   2.539   3.915  11.520 -4.9162  0.2214  1.2025
  299MOL0     H39451   2.738   3.877  11.379 -0.1875 -0.0927 -0.2587
  299MOL0     H39452   3.010   3.962  11.020  1.4913  0.0358 -2.4095
  299MOL0     H39453   3.241   3.908  10.995 -0.7282  0.5649  1.6300
  299MOL0     H39454   4.746   2.760  10.373 -2.1545  1.6203 -1.5162
  299MOL0     H39455   4.778   2.520  10.435  0.4996 -2.5203 -2.5953
  299MOL0     H39456   4.380   2.156  10.686 -1.2665  1.5401 -1.2108
  299MOL0     H39457   4.423   1.917  10.748 -1.0902  1.1794  0.8901
  299MOL0     H39458   4.816   1.763  10.711  0.5072 -0.6398 -0.4129
  299MOL0     H39459   4.772   1.679  10.570  2.7045  2.1131  0.9068
  299MOL0     H39460   4.671   1.590  10.845 -0.1450  0.4114 -1.1580
  299MOL0     H39461   4.645   1.508  10.701 -0.5293 -0.0546  0.6046
  299MOL0     H39462   4.929   1.544  10.804 -0.9494  0.3887  0.0125
  299MOL0     H39463   4.879   1.427  10.678 -0.7388 -3.4722  1.5240
  299MOL0     H39464   4.860   1.379  10.974  0.7406 -0.5118 -0.0396
  299MOL0     H39465   4.729   1.321  10.880 -0.5185 -0.4723  2.7212
  299MOL0     H39466   5.104   1.125  10.754  1.2164  1.0530  2.1517
  299MOL0     H39467   4.741   1.880  10.484 -0.3284  0.7880 -0.6058
  299MOL0     H39468   4.730   2.117  10.420 -0.1014  0.6690  0.4567
  300MOL0     O39469   4.783   0.686   1.640  0.1774 -0.4384  1.0009
  300MOL0     C39470   4.664   0.668   1.637  0.8170 -0.4352 -0.0948
  300MOL0     O39471   4.583   0.641   1.525  0.2586  0.5178 -0.1649
  300MOL0     C39472   4.623   0.629   1.394  0.8268  0.5946 -0.6243
  300MOL0     C39473   4.566   0.530   1.312 -0.3096 -1.1428  0.3474
  300MOL0     C39474   4.603   0.497   1.182  0.1824  1.1943 -0.0388
  300MOL0     C39475   4.705   0.573   1.130 -0.8106 -0.2218 -0.1099
  300MOL0     O39476   4.740   0.541   0.999 -0.2623  0.1603  0.2855
  300MOL0     C39477   4.849   0.604   0.935  0.0173 -0.2163 -0.1798
  300MOL0     C39478   4.831   0.570   0.782 -1.2942 -0.4316 -0.0090
  300MOL0     C39479   4.877   0.433   0.733 -0.6478 -0.1843 -0.4079
  300MOL0     C39480   4.897   0.433   0.582 -0.4979 -1.2528  0.5751
  300MOL0     C39481   4.925   0.294   0.526 -0.4828 -0.2877  0.7286
  300MOL0     C39482   5.034   0.289   0.412  0.4093 -0.7199  0.2125
  300MOL0     C39483   5.056   0.147   0.364  2.0431  0.3200  0.1792
  300MOL0     C39484   4.943   0.101   0.266 -0.5525 -0.2694  0.2232
  300MOL0     N39485   4.983  -0.024   0.196 -0.3526 -0.2199  0.9502
  300MOL0     C39486   5.072  -0.124   0.240 -1.0326  0.6252  0.4092
  300MOL0     C39487   5.064  -0.208   0.137 -0.1859  1.1430 -0.4814
  300MOL0     C39488   5.153  -0.328   0.109  0.1208 -0.2161  1.1107
  300MOL0     C39489   5.247  -0.389   0.202  0.0123 -0.1692 -1.7829
  300MOL0     C39490   5.181  -0.498   0.294 -0.8670 -0.5130  0.0351
  300MOL0     C39491   5.182  -0.647   0.246 -0.0975  0.7069  0.4090
  300MOL0     O39492   5.322  -0.668   0.210 -0.0735 -1.2487 -0.0622
  300MOL0     C39493   5.393  -0.764   0.272 -0.4031 -0.3472 -0.3955
  300MOL0     C39494   5.333  -0.872   0.339 -0.0762 -1.7362  0.1471
  300MOL0     C39495   5.414  -0.952   0.418  0.1403  0.1323 -0.4670
  300MOL0     C39496   5.548  -0.921   0.440 -0.3625 -0.7079 -1.0126
  300MOL0     C39497   5.622  -0.990   0.550  0.5419 -0.1378  0.1980
  300MOL0     O39498   5.553  -1.058   0.644  0.4806 -0.5868 -0.0914
  300MOL0     C39499   5.613  -1.142   0.741  0.2210  0.1898  0.3151
  300MOL0     C39500   5.533  -1.179   0.851  0.7851 -0.5246  0.5048
  300MOL0     C39501   5.571  -1.277   0.940  0.4595 -0.7898  0.7493
  300MOL0     C39502   5.697  -1.336   0.933  0.1719  0.9643  0.4619
  300MOL0     O39503   5.708  -1.440   1.030  0.5285  0.3791  0.0229
  300MOL0     C39504   5.816  -1.535   1.021  0.1654  0.4133  0.0775
  300MOL0     C39505   5.804  -1.625   1.141  0.4865 -0.6031 -0.9977
  300MOL0     C39506   5.897  -1.747   1.135 -0.5539 -0.4370  0.1449
  300MOL0     C39507   5.906  -1.815   1.263  0.1548 -0.4489  0.2189
  300MOL0     C39508   5.983  -1.951   1.246 -0.1585  0.2073 -0.2054
  300MOL0     C39509   6.032  -2.012   1.382 -0.7882  0.1897  0.3420
  300MOL0     C39510   5.933  -2.065   1.480  0.9052 -0.0575 -0.6042
  300MOL0     C39511   5.991  -2.161   1.583  0.8429  0.5707 -0.2134
  300MOL0    Cl39512   5.886  -2.225   1.710 -0.0663 -0.0811 -0.0614
  300MOL0     C39513   5.785  -1.298   0.838  0.6171  0.4219  0.1802
  300MOL0     C39514   5.744  -1.205   0.739 -0.2939 -0.9053  0.5215
  300MOL0     O39515   5.742  -0.986   0.551 -0.2357 -0.2082 -0.4933
  300MOL0     C39516   5.614  -0.828   0.358  0.0813 -0.5799 -0.0544
  300MOL0     C39517   5.531  -0.744   0.274 -0.2805 -0.4743  0.2345
  300MOL0     N39518   4.970  -0.170   0.049  0.2121  0.7526  0.0891
  300MOL0     N39519   4.932  -0.054   0.080 -0.2738 -0.2938  0.0828
  300MOL0     C39520   4.764   0.677   1.203  0.5852  0.0151  0.4247
  300MOL0     C39521   4.722   0.704   1.336 -0.8160  0.2322 -0.5328
  300MOL0     C39522   4.585   0.686   1.763  1.0063 -0.7206 -0.3563
  300MOL0     C39523   4.454   0.731   1.755 -0.1637 -0.2440 -0.2969
  300MOL0     C39524   4.381   0.731   1.874  0.4629 -0.6261 -1.0403
  300MOL0     C39525   4.432   0.692   1.997  0.4306  0.2084  0.2910
  300MOL0     O39526   4.365   0.701   2.113  0.2765  0.0046  0.3736
  300MOL0     C39527   4.253   0.790   2.137 -0.1752  0.4391  0.1929
  300MOL0     C39528   4.260   0.831   2.283  0.1680 -0.6206  0.4066
  300MOL0     C39529   4.223   0.731   2.395  0.0815  0.3895 -0.3897
  300MOL0     C39530   4.216   0.800   2.524 -0.2127  0.8975 -1.5419
  300MOL0     C39531   4.206   0.703   2.639 -0.4300 -0.4351  0.1889
  300MOL0     C39532   4.202   0.634   2.736  0.0963  0.2643  0.6323
  300MOL0     C39533   4.561   0.642   1.997 -0.1798 -1.2689 -0.7957
  300MOL0     C39534   4.639   0.633   1.880 -0.2089  0.1919  0.2454
  300MOL0     H39535   4.485   0.477   1.361 -0.6781 -0.4323  0.5216
  300MOL0     H39536   4.559   0.410   1.133  0.0629 -1.1539  3.8221
  300MOL0     H39537   4.942   0.559   0.972 -0.3353 -2.4194 -1.7602
  300MOL0     H39538   4.863   0.713   0.944  1.7409 -0.1680 -2.2813
  300MOL0     H39539   4.895   0.641   0.728  0.0516  0.4038  2.5131
  300MOL0     H39540   4.730   0.592   0.746 -0.7756  0.7237 -0.8067
  300MOL0     H39541   4.803   0.358   0.760  0.7081 -1.2895  0.4063
  300MOL0     H39542   4.972   0.418   0.786  0.1024 -2.2916 -2.1780
  300MOL0     H39543   4.822   0.487   0.524  0.7111 -0.1958 -0.0393
  300MOL0     H39544   4.988   0.491   0.565 -0.9779 -0.0763  1.8848
  300MOL0     H39545   4.832   0.249   0.490 -0.5476 -0.4184  1.0609
  300MOL0     H39546   4.973   0.228   0.599  0.5680  0.3593  0.6491
  300MOL0     H39547   5.125   0.330   0.457 -0.9089  0.4093  1.9922
  300MOL0     H39548   5.000   0.344   0.323 -1.1744 -4.6627 -1.8675
  300MOL0     H39549   5.154   0.139   0.317  1.1915  3.1865 -2.3942
  300MOL0     H39550   5.059   0.078   0.449  0.0004 -2.9032 -2.1282
  300MOL0     H39551   4.909   0.186   0.206  0.9762 -0.8442 -1.5630
  300MOL0     H39552   4.856   0.080   0.328 -0.5944  0.6508  0.4988
  300MOL0     H39553   5.148  -0.121   0.317  0.2603  1.1420 -0.8443
  300MOL0     H39554   5.213  -0.305   0.020  0.2758  1.4020  1.6015
  300MOL0     H39555   5.086  -0.401   0.063  0.6153  0.1761 -0.2963
  300MOL0     H39556   5.294  -0.307   0.258  1.7547 -2.1762 -0.1090
  300MOL0     H39557   5.330  -0.433   0.145  1.9125  0.7406  0.1392
  300MOL0     H39558   5.234  -0.499   0.390  0.8437  4.4503 -0.5449
  300MOL0     H39559   5.079  -0.461   0.311 -0.2248  0.6402  1.6500
  300MOL0     H39560   5.125  -0.664   0.153  1.7158 -4.7408 -0.0186
  300MOL0     H39561   5.141  -0.713   0.323  1.5863  0.6910  1.3227
  300MOL0     H39562   5.227  -0.892   0.331 -0.0887 -1.1664 -1.4611
  300MOL0     H39563   5.365  -1.024   0.483  1.2443  1.5569  2.1066
  300MOL0     H39564   5.430  -1.149   0.861  0.8822 -0.3341  0.9516
  300MOL0     H39565   5.503  -1.317   1.015 -2.1189 -1.8403 -1.9274
  300MOL0     H39566   5.918  -1.498   1.014  0.8100 -0.7257  2.4724
  300MOL0     H39567   5.796  -1.587   0.927  1.9225 -0.3774  0.0982
  300MOL0     H39568   5.698  -1.648   1.148  0.4336 -1.2059 -3.0238
  300MOL0     H39569   5.841  -1.563   1.223  1.0778 -2.0186 -0.1558
  300MOL0     H39570   5.999  -1.716   1.110 -1.3460  3.3506  1.0048
  300MOL0     H39571   5.860  -1.813   1.056 -3.5943 -2.5735  3.0700
  300MOL0     H39572   5.961  -1.754   1.335  0.0399 -1.5644  1.2925
  300MOL0     H39573   5.808  -1.835   1.307  0.7831 -0.8486  1.4894
  300MOL0     H39574   6.074  -1.940   1.186  0.5441  3.2200  1.2334
  300MOL0     H39575   5.911  -2.019   1.199  2.1717 -1.3004 -1.8201
  300MOL0     H39576   6.089  -1.933   1.432 -1.5693  0.9623  0.0401
  300MOL0     H39577   6.104  -2.090   1.354 -1.3152  0.4637 -1.9590
  300MOL0     H39578   5.892  -1.976   1.529  0.4111  0.2918 -1.6239
  300MOL0     H39579   5.850  -2.113   1.428  1.4742 -1.3622 -0.3415
  300MOL0     H39580   6.078  -2.106   1.620  0.1738  1.3792  0.1569
  300MOL0     H39581   6.027  -2.247   1.526  2.8601  0.5239  1.0207
  300MOL0     H39582   5.879  -1.350   0.826  0.3975  0.5196 -2.6659
  300MOL0     H39583   5.810  -1.177   0.657 -1.2641  0.1710  0.0828
  300MOL0     H39584   5.722  -0.822   0.362  0.1790 -2.4000  1.5175
  300MOL0     H39585   5.571  -0.656   0.225 -3.0442  0.4505 -0.5338
  300MOL0     H39586   4.833   0.750   1.162 -2.0955  2.2475 -0.3922
  300MOL0     H39587   4.760   0.787   1.394  0.7789 -2.6620  2.9780
  300MOL0     H39588   4.414   0.768   1.661  0.6880 -0.7853 -0.8820
  300MOL0     H39589   4.275   0.752   1.869 -0.1105 -1.5171  3.5222
  300MOL0     H39590   4.162   0.735   2.110 -0.2783  0.7808 -0.1631
  300MOL0     H39591   4.259   0.877   2.071 -1.5856  0.3839 -0.0379
  300MOL0     H39592   4.366   0.854   2.296  0.8756 -3.5705  0.4629
  300MOL0     H39593   4.201   0.923   2.287 -1.4239 -1.4115 -2.1528
  300MOL0     H39594   4.297   0.651   2.400 -0.2690 -0.2774 -3.8206
  300MOL0     H39595   4.127   0.681   2.380  2.1685 -5.4766  2.7311
  300MOL0     H39596   4.303   0.866   2.530  0.2226  0.2339  0.4356
  300MOL0     H39597   4.122   0.855   2.520 -0.3497  0.7977 -0.1348
  300MOL0     H39598   4.188   0.582   2.829 -0.0575  1.2900  1.1915
  300MOL0     H39599   4.617   0.609   2.083  0.8576 -2.1458 -1.7774
  300MOL0     H39600   4.740   0.595   1.890 -0.1389  0.2889 -0.0875
  301MOL0     O39601  10.472  11.141   5.554  0.7373 -0.2741 -0.3797
  301MOL0     C39602  10.444  11.255   5.501 -0.0576  0.1537  0.5102
  301MOL0     O39603  10.523  11.368   5.488 -0.0695 -0.0017 -0.9265
  301MOL0     C39604  10.642  11.348   5.550 -0.4851 -0.9302  0.5772
  301MOL0     C39605  10.729  11.244   5.517  0.0493  0.2046  0.0643
  301MOL0     C39606  10.852  11.230   5.572 -0.3268 -0.0608  0.5101
  301MOL0     C39607  10.885  11.322   5.671 -0.5116  0.9659 -1.3133
  301MOL0     O39608  11.013  11.318   5.728  0.8736  0.5562  0.2962
  301MOL0     C39609  11.031  11.196   5.808 -0.7319 -0.4755  0.6020
  301MOL0     C39610  11.143  11.228   5.915  0.0478 -0.8560  0.6980
  301MOL0     C39611  11.092  11.335   6.006 -0.8053 -1.8576 -0.4940
  301MOL0     C39612  11.189  11.375   6.118  0.6513  0.6603 -0.4186
  301MOL0     C39613  11.116  11.467   6.214 -1.2004 -0.3891  0.7015
  301MOL0     C39614  11.084  11.611   6.160  0.2414  0.1911 -0.0917
  301MOL0     C39615  11.211  11.686   6.120 -0.0209  0.0205  0.9156
  301MOL0     C39616  11.191  11.836   6.122  0.4350 -1.0914  0.2851
  301MOL0     N39617  11.280  11.901   6.025 -0.1110 -0.6706 -1.3213
  301MOL0     C39618  11.277  11.894   5.886 -1.1774 -0.5349 -0.2786
  301MOL0     C39619  11.339  12.007   5.841 -0.6870 -0.5641  0.0906
  301MOL0     C39620  11.370  12.048   5.705  0.4953  0.5975 -0.3725
  301MOL0     C39621  11.523  12.041   5.666  0.3935 -1.3071 -0.3587
  301MOL0     C39622  11.544  12.092   5.529  0.4715  0.1299  0.0795
  301MOL0     C39623  11.693  12.090   5.476 -1.1318 -0.8191  0.3652
  301MOL0     O39624  11.708  12.131   5.340 -0.2051  0.0102 -0.2799
  301MOL0     C39625  11.798  12.052   5.258 -0.1295 -0.4430 -1.0404
  301MOL0     C39626  11.851  11.927   5.291  0.8454  0.8618 -0.4817
  301MOL0     C39627  11.920  11.863   5.190  0.1686 -0.7241 -0.5306
  301MOL0     C39628  11.962  11.926   5.073  0.2347  0.2335  0.3446
  301MOL0     C39629  12.062  11.863   4.978 -0.0000  0.6363  0.4915
  301MOL0     O39630  12.135  11.939   4.885  0.0972 -0.8673  1.1553
  301MOL0     C39631  12.247  11.896   4.827 -0.4429  0.3292 -0.1883
  301MOL0     C39632  12.357  11.861   4.902  1.2623 -0.8818 -0.4473
  301MOL0     C39633  12.463  11.797   4.835  0.7066  0.2967  0.1166
  301MOL0     C39634  12.464  11.763   4.699 -0.6301  0.1596  0.3424
  301MOL0     O39635  12.579  11.701   4.653 -0.6926  0.4905 -0.3446
  301MOL0     C39636  12.668  11.790   4.593 -1.3000  1.2936 -0.1578
  301MOL0     C39637  12.727  11.726   4.465  0.4238 -0.6714 -0.7626
  301MOL0     C39638  12.619  11.760   4.360  0.8209  0.1371 -0.1308
  301MOL0     C39639  12.657  11.720   4.216  0.5476 -0.4894  0.1369
  301MOL0     C39640  12.533  11.649   4.152  0.4475  0.2348 -0.0857
  301MOL0     C39641  12.541  11.617   3.994  0.1917 -0.4076 -0.6046
  301MOL0     C39642  12.584  11.735   3.905 -0.0765 -0.0184  0.0901
  301MOL0     C39643  12.575  11.705   3.758  0.1610  0.7410 -0.2285
  301MOL0    Cl39644  12.650  11.557   3.690 -0.0141 -0.1282  0.5358
  301MOL0     C39645  12.345  11.793   4.626  0.2114  0.7980 -0.7019
  301MOL0     C39646  12.238  11.864   4.694 -0.5564  0.1677 -0.6252
  301MOL0     O39647  12.078  11.742   4.997 -0.2892  0.4378  0.1040
  301MOL0     C39648  11.912  12.052   5.046  1.2460 -0.5885  0.1082
  301MOL0     C39649  11.830  12.112   5.139 -0.5211 -0.2180  0.1424
  301MOL0     N39650  11.383  12.070   5.953  0.2996  0.1668 -0.1136
  301MOL0     N39651  11.351  12.011   6.059 -0.0843 -0.2999  0.0990
  301MOL0     C39652  10.806  11.421   5.703  0.0935  0.5161  0.0964
  301MOL0     C39653  10.686  11.440   5.646  0.2843 -0.9985  0.2825
  301MOL0     C39654  10.296  11.277   5.485 -0.0515 -0.2052 -0.2010
  301MOL0     C39655  10.240  11.382   5.419  0.1499 -0.1121  0.3064
  301MOL0     C39656  10.105  11.376   5.377  0.1061  0.3730 -0.1796
  301MOL0     C39657  10.019  11.282   5.423 -0.7896  0.4854 -0.8844
  301MOL0     O39658   9.897  11.270   5.381  0.3624 -0.8140  0.2888
  301MOL0     C39659   9.802  11.355   5.443 -0.0408 -0.2698  0.4096
  301MOL0     C39660   9.670  11.275   5.474 -0.5372  0.3204 -0.2599
  301MOL0     C39661   9.705  11.138   5.539  0.4912  0.7571  0.4399
  301MOL0     C39662   9.589  11.081   5.609  0.1145 -0.0981  0.2128
  301MOL0     C39663   9.608  10.941   5.643 -0.5146 -0.5655 -0.2322
  301MOL0     C39664   9.621  10.819   5.662 -1.1922  0.3475 -0.0774
  301MOL0     C39665  10.074  11.183   5.502  1.0417  0.1950  0.1402
  301MOL0     C39666  10.205  11.191   5.545 -0.6791 -0.2568 -0.1356
  301MOL0     H39667  10.689  11.191   5.431  3.5734  0.8334 -2.1672
  301MOL0     H39668  10.933  11.177   5.523  2.3556  3.3276  0.9156
  301MOL0     H39669  11.071  11.124   5.737  1.9001  1.4616 -0.0500
  301MOL0     H39670  10.942  11.157   5.859  0.5225 -2.2918  1.4791
  301MOL0     H39671  11.235  11.264   5.868 -0.8558  4.3194  2.3094
  301MOL0     H39672  11.169  11.145   5.981 -0.0478  0.2012  2.0894
  301MOL0     H39673  10.989  11.318   6.041 -1.3807  0.0813 -1.0767
  301MOL0     H39674  11.080  11.424   5.943 -2.2919 -0.4053  1.6558
  301MOL0     H39675  11.208  11.283   6.173 -0.9360  0.0348 -0.8617
  301MOL0     H39676  11.285  11.416   6.085 -0.2654  0.9823 -2.8774
  301MOL0     H39677  11.173  11.473   6.307 -0.3330 -0.5925  0.1977
  301MOL0     H39678  11.021  11.419   6.242 -2.0349 -1.8948 -3.8531
  301MOL0     H39679  11.052  11.664   6.250  1.5061  0.5570  0.1678
  301MOL0     H39680  11.010  11.620   6.080 -1.1332  0.5006  1.1801
  301MOL0     H39681  11.281  11.674   6.204  0.1099 -4.3453  0.4381
  301MOL0     H39682  11.258  11.647   6.029 -2.3654 -1.1678  0.1343
  301MOL0     H39683  11.211  11.884   6.218  2.9148  3.0931 -2.0094
  301MOL0     H39684  11.090  11.862   6.090  1.3220  3.9982  0.6990
  301MOL0     H39685  11.241  11.810   5.828  2.2869 -2.2840 -0.1633
  301MOL0     H39686  11.337  12.149   5.681  2.1954  1.7853  1.8771
  301MOL0     H39687  11.323  11.976   5.638  2.4484  1.0541 -2.3446
  301MOL0     H39688  11.565  11.940   5.669  1.7911 -0.8108  4.1745
  301MOL0     H39689  11.576  12.110   5.733 -0.9774 -0.9325  0.3958
  301MOL0     H39690  11.483  12.029   5.464  1.1686  0.1342 -0.6012
  301MOL0     H39691  11.504  12.194   5.526 -1.7235 -0.6885 -1.5229
  301MOL0     H39692  11.736  11.990   5.492  1.0811  0.4529  3.4947
  301MOL0     H39693  11.763  12.145   5.540 -1.1470 -0.6409  0.2298
  301MOL0     H39694  11.841  11.869   5.382 -0.9889  1.7694 -0.0675
  301MOL0     H39695  11.956  11.763   5.210 -0.5765 -1.1346 -1.1629
  301MOL0     H39696  12.371  11.879   5.009  0.7243  0.5938 -0.6074
  301MOL0     H39697  12.543  11.765   4.902 -0.4023 -2.5761  0.2021
  301MOL0     H39698  12.745  11.821   4.664 -1.2077 -0.1273  0.3947
  301MOL0     H39699  12.628  11.888   4.568  5.0193  3.8564 -2.3235
  301MOL0     H39700  12.742  11.619   4.479  0.0215 -0.7669 -1.0604
  301MOL0     H39701  12.817  11.783   4.438 -0.1143  0.5904  0.0116
  301MOL0     H39702  12.599  11.866   4.346  0.8305  0.1184 -0.2962
  301MOL0     H39703  12.523  11.715   4.386  0.7637  1.3877  1.9877
  301MOL0     H39704  12.686  11.813   4.165 -1.5069 -1.2436 -2.7140
  301MOL0     H39705  12.741  11.650   4.213  0.4765 -0.6249  1.0595
  301MOL0     H39706  12.446  11.714   4.168 -1.0268 -1.6934  0.1297
  301MOL0     H39707  12.537  11.565   4.222  2.3794  1.5536  1.4990
  301MOL0     H39708  12.444  11.572   3.970  0.8751 -3.3264  1.5529
  301MOL0     H39709  12.605  11.529   3.992 -0.2875 -1.1268  3.9868
  301MOL0     H39710  12.519  11.822   3.921 -2.1127 -0.7844 -3.0311
  301MOL0     H39711  12.690  11.751   3.926  1.2282 -1.5635 -4.2551
  301MOL0     H39712  12.614  11.792   3.704 -0.2795  1.2529  0.2530
  301MOL0     H39713  12.468  11.697   3.737  0.5244 -3.3807 -1.2506
  301MOL0     H39714  12.342  11.755   4.524  1.9258 -0.1814 -0.4396
  301MOL0     H39715  12.150  11.880   4.633 -0.4453  0.8198 -0.6191
  301MOL0     H39716  11.916  12.093   4.945 -2.1825 -0.2062 -0.0093
  301MOL0     H39717  11.779  12.207   5.125  2.0691  1.5756  1.8545
  301MOL0     H39718  10.856  11.477   5.782  0.5199 -2.5567  2.1668
  301MOL0     H39719  10.638  11.532   5.680  0.8480 -1.2784  1.9566
  301MOL0     H39720  10.301  11.460   5.375  1.5190 -2.5342 -2.3936
  301MOL0     H39721  10.061  11.447   5.308 -1.0567  0.3865  0.5534
  301MOL0     H39722   9.789  11.435   5.369  0.9115 -1.7255 -1.4504
  301MOL0     H39723   9.837  11.395   5.538 -2.3008 -1.0483  1.6632
  301MOL0     H39724   9.617  11.344   5.541  3.6761  1.7319  2.0244
  301MOL0     H39725   9.620  11.271   5.377  1.2691  0.3893 -1.2383
  301MOL0     H39726   9.782  11.161   5.613  0.4367 -0.0557  0.7487
  301MOL0     H39727   9.744  11.062   5.471  0.0008 -0.4601  1.4901
  301MOL0     H39728   9.585  11.132   5.706  1.2408 -0.7251  0.6005
  301MOL0     H39729   9.499  11.097   5.548 -0.3093  0.5897  0.9893
  301MOL0     H39730   9.637  10.715   5.681 -2.6627  0.5441  2.6614
  301MOL0     H39731  10.005  11.107   5.539 -0.3368  1.2088 -0.2787
  301MOL0     H39732  10.244  11.121   5.619 -0.3288 -1.0571 -1.0628
  302MOL0     O39733   8.206  11.283   0.805  0.2437 -0.3746  0.3848
  302MOL0     C39734   8.089  11.323   0.766 -0.7891 -0.1276  0.5252
  302MOL0     O39735   8.070  11.411   0.666 -0.2675  0.9800  0.1996
  302MOL0     C39736   8.169  11.474   0.595  1.1189  0.5241 -0.9889
  302MOL0     C39737   8.304  11.495   0.639 -0.1868 -0.3907 -0.2177
  302MOL0     C39738   8.386  11.571   0.555  0.3077  0.2336  0.0858
  302MOL0     C39739   8.345  11.633   0.437 -0.4696  0.1088  0.3761
  302MOL0     O39740   8.431  11.707   0.363 -0.1081 -0.0027 -0.2902
  302MOL0     C39741   8.451  11.673   0.226  0.0153 -0.1440 -0.6639
  302MOL0     C39742   8.512  11.787   0.141 -0.8720  0.2875  0.9430
  302MOL0     C39743   8.410  11.898   0.128 -0.0523  0.0397 -0.3232
  302MOL0     C39744   8.429  11.978  -0.004 -0.2846  0.0909 -0.4232
  302MOL0     C39745   8.340  11.938  -0.117  0.5240  1.6149  0.1614
  302MOL0     C39746   8.343  12.045  -0.221  0.3007 -0.0772  0.2422
  302MOL0     C39747   8.264  12.015  -0.347 -0.3103 -0.3589 -0.5828
  302MOL0     C39748   8.239  12.140  -0.417  0.7629  0.4144 -0.3044
  302MOL0     N39749   8.132  12.133  -0.522  0.5914 -0.8519  0.2335
  302MOL0     C39750   8.164  12.141  -0.649  0.8928  0.1750 -0.6948
  302MOL0     C39751   8.044  12.144  -0.711  0.7755  0.4645  0.1943
  302MOL0     C39752   8.017  12.170  -0.856 -0.2807 -0.2988 -1.2847
  302MOL0     C39753   7.994  12.320  -0.873 -0.1171 -0.1059 -0.1755
  302MOL0     C39754   7.960  12.340  -1.023  0.2387  0.2547  0.0228
  302MOL0     C39755   7.927  12.479  -1.054 -0.7057  0.7328  0.5270
  302MOL0     O39756   7.827  12.494  -1.160 -0.2147  0.4404  0.1360
  302MOL0     C39757   7.782  12.625  -1.184 -0.3069 -0.5107 -0.8321
  302MOL0     C39758   7.695  12.636  -1.297 -0.0900 -0.3503 -0.0161
  302MOL0     C39759   7.657  12.757  -1.344  0.5067  0.4781  0.5120
  302MOL0     C39760   7.692  12.877  -1.279 -0.2759 -0.4628 -0.2606
  302MOL0     C39761   7.644  13.007  -1.338 -0.5621  0.7048  0.4865
  302MOL0     O39762   7.645  13.118  -1.246 -0.1992  0.3815 -0.2548
  302MOL0     C39763   7.593  13.244  -1.280  1.1584 -0.0599  0.2567
  302MOL0     C39764   7.470  13.281  -1.223 -0.0841  0.3909 -0.4403
  302MOL0     C39765   7.417  13.405  -1.244 -0.1641  0.5150 -0.1150
  302MOL0     C39766   7.489  13.496  -1.324 -0.2341 -0.0701  0.9106
  302MOL0     O39767   7.440  13.629  -1.318 -0.0208 -0.0600  0.0366
  302MOL0     C39768   7.518  13.736  -1.374 -0.9798  0.3928 -1.0465
  302MOL0     C39769   7.585  13.807  -1.257  0.1433 -0.2337  0.9007
  302MOL0     C39770   7.499  13.891  -1.173 -0.2580  0.7288 -0.5871
  302MOL0     C39771   7.574  13.970  -1.080  0.4862 -0.1740 -0.9010
  302MOL0     C39772   7.466  14.032  -0.981  0.4232 -0.5218  1.0646
  302MOL0     C39773   7.530  14.139  -0.891  0.2952  0.2692 -1.1782
  302MOL0     C39774   7.416  14.221  -0.832 -0.1147 -0.2997  0.6914
  302MOL0     C39775   7.467  14.305  -0.709 -0.4809 -0.3581  0.5135
  302MOL0    Cl39776   7.603  14.421  -0.753  0.0845 -0.4188 -0.2859
  302MOL0     C39777   7.600  13.455  -1.399 -0.2732  0.2541  0.0053
  302MOL0     C39778   7.650  13.330  -1.368  0.7642  0.0358  0.0108
  302MOL0     O39779   7.589  13.004  -1.448 -0.5348 -0.2707 -0.1971
  302MOL0     C39780   7.769  12.868  -1.161  0.8173 -0.3844  0.4791
  302MOL0     C39781   7.812  12.742  -1.112  0.1595  0.0525  1.1386
  302MOL0     N39782   7.942  12.118  -0.620  0.2156  0.5813  0.5218
  302MOL0     N39783   8.001  12.122  -0.505 -0.0959  0.0980  0.0900
  302MOL0     C39784   8.214  11.614   0.405  0.9070  0.7699  0.7446
  302MOL0     C39785   8.121  11.543   0.485  0.0356  0.3765 -0.2751
  302MOL0     C39786   7.963  11.269   0.813  0.4112  1.0036 -0.0763
  302MOL0     C39787   7.846  11.273   0.747 -0.5444  0.3408  0.5650
  302MOL0     C39788   7.737  11.198   0.791 -1.5241 -0.8461 -0.4587
  302MOL0     C39789   7.732  11.149   0.915  0.2825 -0.0299 -0.0299
  302MOL0     O39790   7.614  11.086   0.950  0.3306  0.3395  0.0397
  302MOL0     C39791   7.592  11.033   1.084 -0.3275  0.1970  1.4845
  302MOL0     C39792   7.472  10.939   1.093 -0.9467  0.0654 -0.5619
  302MOL0     C39793   7.474  10.820   1.002 -0.6519  0.4929 -0.2996
  302MOL0     C39794   7.362  10.730   1.010 -0.0466 -0.0893  0.0790
  302MOL0     C39795   7.233  10.777   0.966 -0.3371 -1.1963  0.1406
  302MOL0     C39796   7.123  10.805   0.927 -0.8434 -0.3533 -0.1082
  302MOL0     C39797   7.856  11.153   0.996  0.6615 -0.9368 -0.7048
  302MOL0     C39798   7.967  11.209   0.932 -0.2581 -0.4236  0.5007
  302MOL0     H39799   8.339  11.465   0.737  0.5871  0.8000 -0.1181
  302MOL0     H39800   8.486  11.579   0.597  1.2332 -3.8384 -0.8894
  302MOL0     H39801   8.356  11.632   0.189  0.2926 -1.6150  0.1771
  302MOL0     H39802   8.525  11.593   0.227 -1.2668 -1.4142  1.3002
  302MOL0     H39803   8.549  11.759   0.042 -1.8029  1.5673  0.1989
  302MOL0     H39804   8.596  11.833   0.192  2.8647 -1.7854 -2.7188
  302MOL0     H39805   8.413  11.965   0.215 -0.8373 -0.4327  0.0760
  302MOL0     H39806   8.314  11.847   0.128  0.0466 -0.1716 -1.6156
  302MOL0     H39807   8.424  12.084   0.021 -0.9044  0.1795 -0.8974
  302MOL0     H39808   8.530  11.953  -0.036 -1.1275 -3.2456 -0.9405
  302MOL0     H39809   8.238  11.924  -0.081  1.3143  0.4770  2.1199
  302MOL0     H39810   8.362  11.840  -0.162  0.6306  1.3058  0.8745
  302MOL0     H39811   8.445  12.076  -0.247 -0.9812  5.2652  0.4851
  302MOL0     H39812   8.300  12.133  -0.172 -0.0703  0.4415 -0.9780
  302MOL0     H39813   8.328  11.948  -0.405  1.5657 -0.8587  1.8926
  302MOL0     H39814   8.174  11.971  -0.302 -1.5449  3.3764  1.0421
  302MOL0     H39815   8.334  12.187  -0.443  1.9443 -0.2152  2.4771
  302MOL0     H39816   8.207  12.212  -0.341 -0.9056 -1.4575  0.8705
  302MOL0     H39817   8.258  12.163  -0.699  1.0606  2.3123  0.4767
  302MOL0     H39818   7.930  12.111  -0.887 -0.5041  0.3699 -1.9742
  302MOL0     H39819   8.102  12.143  -0.918  1.6811  2.6552 -0.1080
  302MOL0     H39820   8.092  12.367  -0.863 -0.4914  0.3032  1.8215
  302MOL0     H39821   7.931  12.359  -0.793 -2.2508 -4.1281  0.3866
  302MOL0     H39822   8.046  12.315  -1.085  0.1015 -0.5267  0.1352
  302MOL0     H39823   7.876  12.276  -1.052 -0.0493 -0.7036  2.7152
  302MOL0     H39824   8.019  12.535  -1.070 -1.7863  1.7438 -3.0445
  302MOL0     H39825   7.882  12.504  -0.957  2.0143 -3.1091  3.0746
  302MOL0     H39826   7.663  12.545  -1.347 -1.1925  0.0841 -0.1432
  302MOL0     H39827   7.592  12.753  -1.431  0.5671  1.0089  0.4388
  302MOL0     H39828   7.432  13.203  -1.158  2.2200  0.7386  1.4598
  302MOL0     H39829   7.332  13.434  -1.182 -0.6889  0.5400 -0.8394
  302MOL0     H39830   7.445  13.796  -1.428 -0.9927 -0.0332 -1.5062
  302MOL0     H39831   7.600  13.704  -1.439  2.1903  0.6286  2.4845
  302MOL0     H39832   7.653  13.877  -1.307  1.3372 -2.4282 -0.7575
  302MOL0     H39833   7.653  13.754  -1.190  1.2986  2.7853  2.2809
  302MOL0     H39834   7.429  13.830  -1.115  2.2396 -3.5179 -1.6259
  302MOL0     H39835   7.443  13.952  -1.245  0.0447 -0.5142 -1.9258
  302MOL0     H39836   7.649  13.906  -1.032 -0.2067 -1.5661 -1.6118
  302MOL0     H39837   7.632  14.050  -1.127  2.5028 -0.1480  1.4009
  302MOL0     H39838   7.411  13.956  -0.924  0.0598 -1.0133  0.0923
  302MOL0     H39839   7.400  14.083  -1.053  0.6332 -2.4395 -0.5886
  302MOL0     H39840   7.599  14.197  -0.953  1.2283  0.1638 -0.2637
  302MOL0     H39841   7.587  14.087  -0.814 -0.8337  1.6893  0.7028
  302MOL0     H39842   7.375  14.285  -0.910  0.8215 -1.7796 -1.0996
  302MOL0     H39843   7.343  14.150  -0.793  1.7999 -1.4181  2.4975
  302MOL0     H39844   7.488  14.250  -0.616  2.1032  1.0762  0.8991
  302MOL0     H39845   7.387  14.373  -0.680 -1.4752 -2.2520  2.4518
  302MOL0     H39846   7.668  13.521  -1.453 -1.5449  1.3016 -0.3754
  302MOL0     H39847   7.731  13.284  -1.424 -0.5206 -1.5126 -0.6896
  302MOL0     H39848   7.799  12.954  -1.101 -3.2758 -1.0720  3.9670
  302MOL0     H39849   7.875  12.739  -1.024  2.3173 -0.4386 -0.3657
  302MOL0     H39850   8.188  11.662   0.312  1.5984  1.1182  0.7267
  302MOL0     H39851   8.016  11.539   0.458 -0.8894 -0.5777  3.0583
  302MOL0     H39852   7.831  11.312   0.647 -1.3880 -2.4673 -0.4965
  302MOL0     H39853   7.647  11.184   0.733 -0.7989  0.0810 -1.8664
  302MOL0     H39854   7.591  11.125   1.143  2.4071  1.1293  0.2525
  302MOL0     H39855   7.684  10.976   1.103 -0.8314 -0.6116  1.5461
  302MOL0     H39856   7.474  10.898   1.194 -0.9965 -1.3045 -1.1012
  302MOL0     H39857   7.385  11.002   1.074  0.9775  2.4149 -2.2576
  302MOL0     H39858   7.565  10.761   1.018  0.6045  2.1594 -0.8835
  302MOL0     H39859   7.480  10.858   0.899  0.4880  0.6091 -0.2077
  302MOL0     H39860   7.380  10.647   0.941  1.2485 -1.2672  1.7709
  302MOL0     H39861   7.357  10.687   1.110 -4.8055  1.8387  0.9261
  302MOL0     H39862   7.024  10.825   0.893 -1.9196  1.1870  3.5014
  302MOL0     H39863   7.868  11.130   1.102  1.1590  2.9456  0.2275
  302MOL0     H39864   8.048  11.236   0.998  0.0467  0.6576 -0.2736
  303MOL0     O39865   6.308   4.396   8.148 -0.9086 -0.1870 -0.4515
  303MOL0     C39866   6.314   4.515   8.128 -0.6231 -0.3852  0.1659
  303MOL0     O39867   6.250   4.616   8.192 -1.0055  0.6089 -0.8138
  303MOL0     C39868   6.155   4.584   8.289 -0.2279 -1.0108  0.2057
  303MOL0     C39869   6.186   4.500   8.400  0.8284  0.3200 -0.5796
  303MOL0     C39870   6.091   4.477   8.496  0.8967 -0.1417  0.1879
  303MOL0     C39871   5.960   4.530   8.478  0.2831  0.3416 -0.3439
  303MOL0     O39872   5.859   4.496   8.572 -0.3177  0.0466 -0.1380
  303MOL0     C39873   5.736   4.569   8.568  0.6725 -0.6206  0.2359
  303MOL0     C39874   5.630   4.506   8.652 -0.0265  0.7135  0.1385
  303MOL0     C39875   5.567   4.376   8.614  0.5006  0.2646  0.1536
  303MOL0     C39876   5.472   4.326   8.729  1.0614 -0.4659 -0.3505
  303MOL0     C39877   5.387   4.210   8.670  0.3189 -1.1303 -0.2472
  303MOL0     C39878   5.323   4.127   8.779  0.3268  0.3698  0.2043
  303MOL0     C39879   5.209   4.036   8.735  0.1747  0.3892  0.3402
  303MOL0     C39880   5.182   3.932   8.849  0.1877  0.0465  0.3238
  303MOL0     N39881   5.049   3.859   8.840 -0.2471  0.0763  0.0012
  303MOL0     C39882   5.033   3.756   8.750  0.3240 -0.5422  0.1322
  303MOL0     C39883   4.913   3.716   8.782 -0.0266  0.3718 -0.3305
  303MOL0     C39884   4.819   3.633   8.698 -0.6375 -1.0381 -0.4071
  303MOL0     C39885   4.699   3.581   8.776  0.2803 -0.4337 -0.0828
  303MOL0     C39886   4.602   3.488   8.691  0.2151  0.4956 -0.9112
  303MOL0     C39887   4.483   3.446   8.783  0.3073 -0.2123  0.1490
  303MOL0     O39888   4.388   3.386   8.686 -0.0599 -0.0750  0.2430
  303MOL0     C39889   4.282   3.328   8.740 -0.0656  0.3929 -0.0143
  303MOL0     C39890   4.208   3.256   8.646  0.5419  0.4556  0.9714
  303MOL0     C39891   4.091   3.188   8.677  0.8498 -0.2920  0.1772
  303MOL0     C39892   4.050   3.182   8.821  0.0664 -0.3347  0.4506
  303MOL0     C39893   3.925   3.112   8.854 -0.5206  0.0068 -0.7428
  303MOL0     O39894   3.902   3.086   8.986 -0.3959 -0.8551 -1.0246
  303MOL0     C39895   3.796   3.015   9.032  0.0966 -0.0919  0.0232
  303MOL0     C39896   3.799   2.992   9.164  1.1056 -0.7141  0.2638
  303MOL0     C39897   3.706   2.923   9.235  0.0562 -0.5052  0.2099
  303MOL0     C39898   3.588   2.872   9.165  0.0176 -0.2290 -0.3143
  303MOL0     O39899   3.497   2.800   9.236  0.4370 -0.9226  1.0250
  303MOL0     C39900   3.360   2.791   9.174  0.5989  0.8923  0.0888
  303MOL0     C39901   3.261   2.713   9.270 -0.6528  0.1741  0.7198
  303MOL0     C39902   3.250   2.797   9.402 -0.3369 -1.0370  0.1902
  303MOL0     C39903   3.175   2.700   9.488 -0.7415  0.0513  0.3366
  303MOL0     C39904   3.138   2.756   9.619  0.7816 -1.0752  0.4185
  303MOL0     C39905   3.015   2.683   9.674 -0.7012  0.1955 -0.3660
  303MOL0     C39906   3.023   2.532   9.700  0.1218 -0.2436  0.3448
  303MOL0     C39907   2.901   2.462   9.664  0.0364  0.5809 -0.5795
  303MOL0    Cl39908   2.930   2.296   9.681 -0.3272  0.0368  0.4082
  303MOL0     C39909   3.577   2.906   9.033 -0.1349  0.2750 -0.0887
  303MOL0     C39910   3.679   2.966   8.957 -1.3485  0.6738  0.5167
  303MOL0     O39911   3.847   3.093   8.761 -0.4710  0.6768  0.2952
  303MOL0     C39912   4.129   3.246   8.917 -0.5868 -0.1694  0.6954
  303MOL0     C39913   4.243   3.317   8.877  0.2133 -1.0327  0.7706
  303MOL0     N39914   4.867   3.784   8.899  0.1053  0.1971  0.7499
  303MOL0     N39915   4.957   3.870   8.932  0.2968  0.3368 -0.2347
  303MOL0     C39916   5.928   4.598   8.365 -0.2923  0.1437  0.3380
  303MOL0     C39917   6.023   4.628   8.274 -0.1563  0.5012 -0.1751
  303MOL0     C39918   6.387   4.551   8.001 -0.1558 -0.6442  1.0112
  303MOL0     C39919   6.351   4.665   7.934  0.1104  0.6324 -0.2609
  303MOL0     C39920   6.423   4.724   7.837 -0.5405  0.4070  0.1930
  303MOL0     C39921   6.537   4.663   7.791  0.3024 -0.8087 -0.0634
  303MOL0     O39922   6.601   4.723   7.689  0.3570 -0.8375 -0.2613
  303MOL0     C39923   6.738   4.701   7.656  0.0462 -0.3750  0.0484
  303MOL0     C39924   6.838   4.772   7.749 -0.0074  0.8668 -0.7303
  303MOL0     C39925   6.858   4.696   7.888 -0.3959 -0.9204 -0.3107
  303MOL0     C39926   6.964   4.778   7.977  0.2149 -0.8482 -0.0574
  303MOL0     C39927   7.087   4.701   8.011 -0.7860 -0.7647 -0.1943
  303MOL0     C39928   7.193   4.640   8.045  0.0214  0.0878  0.3467
  303MOL0     C39929   6.582   4.549   7.848  0.7383 -0.8767 -0.1348
  303MOL0     C39930   6.512   4.496   7.956 -0.5785  0.7585 -1.2581
  303MOL0     H39931   6.285   4.456   8.406  1.7972  2.1577 -2.1415
  303MOL0     H39932   6.110   4.416   8.584 -0.5711 -1.9349 -0.6602
  303MOL0     H39933   5.699   4.556   8.466  0.5909 -2.0873  0.4413
  303MOL0     H39934   5.745   4.677   8.587 -1.9662 -0.8859  4.1023
  303MOL0     H39935   5.557   4.587   8.661 -0.9747 -0.2389  1.3354
  303MOL0     H39936   5.670   4.495   8.753  2.1613 -0.3192 -0.7671
  303MOL0     H39937   5.642   4.297   8.607  0.4008 -0.4543  4.4008
  303MOL0     H39938   5.514   4.397   8.521 -2.5540 -2.2446  1.1361
  303MOL0     H39939   5.518   4.292   8.822 -2.8117 -0.9149  1.5718
  303MOL0     H39940   5.404   4.405   8.759  3.5926  1.7381 -0.0955
  303MOL0     H39941   5.441   4.144   8.603  1.3312 -0.1959 -0.3831
  303MOL0     H39942   5.306   4.255   8.612  0.5837 -0.2868  0.0198
  303MOL0     H39943   5.276   4.199   8.846 -1.4763  0.4334 -1.0682
  303MOL0     H39944   5.412   4.076   8.818  0.0247 -1.9778 -1.9559
  303MOL0     H39945   5.120   4.096   8.712  2.0506  2.7022 -1.3744
  303MOL0     H39946   5.229   4.000   8.634 -0.4620  1.2059 -0.0918
  303MOL0     H39947   5.197   3.974   8.949  1.9920 -0.6443  0.3849
  303MOL0     H39948   5.263   3.859   8.850  2.7588  2.7051  1.6618
  303MOL0     H39949   5.107   3.731   8.675  0.6688  0.4992  0.1097
  303MOL0     H39950   4.876   3.548   8.659 -2.7100 -3.1548  0.9247
  303MOL0     H39951   4.794   3.682   8.604  1.0626 -0.8510 -0.7929
  303MOL0     H39952   4.643   3.671   8.803  4.3686  1.4226  3.4398
  303MOL0     H39953   4.723   3.539   8.874  2.8007  2.8947  0.9088
  303MOL0     H39954   4.569   3.535   8.598 -0.8453 -0.7551 -1.1886
  303MOL0     H39955   4.650   3.391   8.675  2.8574  1.5640 -0.0709
  303MOL0     H39956   4.455   3.536   8.838 -0.3731 -0.2061 -0.2015
  303MOL0     H39957   4.531   3.376   8.852  0.5908 -1.0124 -0.8387
  303MOL0     H39958   4.235   3.244   8.542 -1.1490 -2.4659  0.7805
  303MOL0     H39959   4.032   3.145   8.596  1.3130 -0.9423  0.1752
  303MOL0     H39960   3.886   3.036   9.211 -1.5668  0.7873  4.3826
  303MOL0     H39961   3.696   2.898   9.341 -1.0411  1.7020  0.6854
  303MOL0     H39962   3.374   2.727   9.086 -1.7652 -0.1162  0.3674
  303MOL0     H39963   3.307   2.881   9.141 -1.9769 -0.9676 -1.2721
  303MOL0     H39964   3.298   2.612   9.288  1.4591  0.6244 -0.6793
  303MOL0     H39965   3.157   2.696   9.240 -0.7436 -1.8563  2.0376
  303MOL0     H39966   3.181   2.880   9.387 -2.9805 -2.5946  2.6785
  303MOL0     H39967   3.351   2.823   9.435  0.8878 -0.4988 -3.5483
  303MOL0     H39968   3.086   2.658   9.441 -0.2257 -0.9300  0.1899
  303MOL0     H39969   3.244   2.616   9.506 -1.2690 -0.8105 -1.4377
  303MOL0     H39970   3.122   2.864   9.614 -3.7936 -1.3319  3.5324
  303MOL0     H39971   3.216   2.739   9.694 -1.0872 -0.0021  2.7502
  303MOL0     H39972   2.928   2.698   9.609  0.9320 -3.7096 -3.9483
  303MOL0     H39973   3.004   2.719   9.777  0.6859 -0.8467  0.1778
  303MOL0     H39974   3.107   2.490   9.644  1.3627  0.7818  1.3739
  303MOL0     H39975   3.046   2.512   9.805  1.9613  0.5103  0.1348
  303MOL0     H39976   2.874   2.484   9.560  1.4841  3.2784 -0.4600
  303MOL0     H39977   2.817   2.490   9.729  1.3621  0.6210  1.1831
  303MOL0     H39978   3.487   2.896   8.974  0.8413  0.2160 -1.6224
  303MOL0     H39979   3.652   2.981   8.853 -2.0492  1.6919  0.8405
  303MOL0     H39980   4.092   3.252   9.018 -0.3532  1.3140  0.7101
  303MOL0     H39981   4.310   3.363   8.949  0.4953 -0.8634  0.4027
  303MOL0     H39982   5.838   4.658   8.351  0.2708  0.4964 -2.1894
  303MOL0     H39983   5.999   4.691   8.189  2.5568 -1.9872 -3.0175
  303MOL0     H39984   6.257   4.707   7.969  0.3136  0.2923  0.7157
  303MOL0     H39985   6.393   4.812   7.781  0.9350 -1.0119 -3.1179
  303MOL0     H39986   6.742   4.734   7.551 -4.0353 -1.8408 -0.7593
  303MOL0     H39987   6.754   4.593   7.660  1.5846 -0.1694 -0.0223
  303MOL0     H39988   6.926   4.765   7.683 -0.2647  0.6028 -1.0511
  303MOL0     H39989   6.812   4.877   7.760  0.8551  1.0121  0.0753
  303MOL0     H39990   6.884   4.592   7.867 -2.6427 -2.0857  1.9767
  303MOL0     H39991   6.765   4.690   7.946  1.1280 -2.6248  2.1945
  303MOL0     H39992   6.996   4.862   7.916 -1.1057  0.7544  1.3566
  303MOL0     H39993   6.910   4.807   8.067 -2.5300 -1.4827 -1.3833
  303MOL0     H39994   7.286   4.590   8.057  0.4923  1.5610  4.4059
  303MOL0     H39995   6.675   4.499   7.823  2.1822 -0.1129  3.1648
  303MOL0     H39996   6.549   4.403   7.996  1.4223  2.3593  0.8300
  304MOL0     O39997   7.564   6.052   3.956  0.3580 -0.1593 -0.1561
  304MOL0     C39998   7.540   5.956   4.031  0.7717  0.5651  1.1153
  304MOL0     O39999   7.415   5.886   4.048 -0.6152  0.3962  0.2925
  304MOL0     C40000   7.308   5.936   3.982  0.0026 -0.4987 -0.2246
  304MOL0     C40001   7.253   6.051   4.016 -0.4938 -0.6954 -1.0969
  304MOL0     C40002   7.136   6.099   3.967 -0.3713  1.0428  0.3311
  304MOL0     C40003   7.065   6.019   3.875  0.4205 -0.1322  0.5461
  304MOL0     O40004   6.938   6.038   3.817  0.0372  0.9244 -0.6154
  304MOL0     C40005   6.859   6.137   3.875 -0.6581  0.0299 -0.7648
  304MOL0     C40006   6.717   6.111   3.834  0.5174  0.0584 -0.4073
  304MOL0     C40007   6.602   6.185   3.908 -0.7221 -0.7020 -0.3012
  304MOL0     C40008   6.575   6.127   4.047 -0.1957  0.4243  0.0940
  304MOL0     C40009   6.459   6.195   4.109 -0.5343 -1.0904 -0.1556
  304MOL0     C40010   6.439   6.175   4.258 -0.3339  0.1387  1.0870
  304MOL0     C40011   6.403   6.026   4.276 -1.0903  0.3676  0.0105
  304MOL0     C40012   6.389   5.996   4.430  0.6606  0.0424 -0.9278
  304MOL0     N40013   6.375   5.858   4.467  0.0306  0.0796 -0.0101
  304MOL0     C40014   6.257   5.785   4.470  0.1595  0.3060 -0.0070
  304MOL0     C40015   6.304   5.669   4.535 -0.3408  0.4061  0.1083
  304MOL0     C40016   6.219   5.549   4.570 -1.0065 -0.5066 -0.0863
  304MOL0     C40017   6.081   5.546   4.504 -0.1022  0.2212  0.0930
  304MOL0     C40018   6.052   5.401   4.476  0.1288  0.5507 -0.1028
  304MOL0     C40019   5.924   5.377   4.391 -0.0970 -0.0972  0.1014
  304MOL0     O40020   5.797   5.420   4.450  0.4491 -0.2396  0.0527
  304MOL0     C40021   5.708   5.317   4.472 -0.7803  0.0767  0.9710
  304MOL0     C40022   5.704   5.240   4.586  0.1524 -0.1806 -0.1783
  304MOL0     C40023   5.617   5.127   4.583  0.4329  0.3691 -0.6318
  304MOL0     C40024   5.533   5.100   4.486 -1.0069  1.0913  0.8372
  304MOL0     C40025   5.446   4.983   4.496  0.5022 -0.2269 -0.2661
  304MOL0     O40026   5.451   4.913   4.615  0.5755 -0.5014  0.5439
  304MOL0     C40027   5.430   4.777   4.610  0.0101 -0.8232 -0.0290
  304MOL0     C40028   5.344   4.723   4.700 -0.2326  0.0219  0.4206
  304MOL0     C40029   5.331   4.588   4.711 -0.0469 -1.0576  0.2093
  304MOL0     C40030   5.392   4.502   4.623 -0.4725 -0.0350  0.6164
  304MOL0     O40031   5.357   4.369   4.616 -0.3539  0.6708 -0.2481
  304MOL0     C40032   5.345   4.312   4.483  1.0646  0.0040 -0.9151
  304MOL0     C40033   5.244   4.191   4.491 -0.7420 -0.0279  0.4041
  304MOL0     C40034   5.226   4.139   4.345 -0.5562  0.1289 -0.5511
  304MOL0     C40035   5.107   4.040   4.345 -0.3456 -0.6067  0.0543
  304MOL0     C40036   5.082   3.979   4.204  0.3313  0.4927 -0.2481
  304MOL0     C40037   5.039   4.080   4.089 -0.6143 -0.6402 -0.0504
  304MOL0     C40038   4.927   4.187   4.121  0.4712  0.4189  0.5248
  304MOL0     C40039   4.885   4.260   3.991 -0.3170 -0.0845  0.3932
  304MOL0    Cl40040   5.035   4.341   3.919  0.1592  0.0394  0.2841
  304MOL0     C40041   5.488   4.557   4.531 -0.0867 -0.2515  0.5440
  304MOL0     C40042   5.505   4.691   4.523  0.3977 -0.4566 -0.5858
  304MOL0     O40043   5.368   4.959   4.395  0.4802  0.4075 -0.8383
  304MOL0     C40044   5.554   5.167   4.363  0.1935 -0.0751  0.2660
  304MOL0     C40045   5.634   5.279   4.358 -0.1574 -0.1172  0.0714
  304MOL0     N40046   6.446   5.673   4.551  0.4771 -0.4298 -0.6507
  304MOL0     N40047   6.483   5.791   4.512  0.5671  0.4934  0.4091
  304MOL0     C40048   7.114   5.895   3.834  0.0951 -0.8048  0.3235
  304MOL0     C40049   7.236   5.849   3.895 -0.1837  0.2082  0.1155
  304MOL0     C40050   7.657   5.905   4.112 -0.0060  0.0803 -0.0736
  304MOL0     C40051   7.789   5.956   4.094  0.1767 -0.1965 -0.5874
  304MOL0     C40052   7.888   5.904   4.174 -0.3075  0.9787  0.6394
  304MOL0     C40053   7.869   5.816   4.276 -0.9063  0.0852 -0.6366
  304MOL0     O40054   7.972   5.776   4.356  0.4823  0.0915 -0.6268
  304MOL0     C40055   8.004   5.632   4.385 -0.3924  0.0695 -0.0343
  304MOL0     C40056   8.123   5.590   4.309 -0.1551 -0.7744  0.9937
  304MOL0     C40057   8.110   5.579   4.161  0.5284 -1.5936  0.6207
  304MOL0     C40058   8.236   5.527   4.075  0.4955 -0.1952 -0.9464
  304MOL0     C40059   8.222   5.567   3.943  0.3467  0.0812  0.1558
  304MOL0     C40060   8.221   5.607   3.826 -0.9563  0.2226 -0.4762
  304MOL0     C40061   7.746   5.759   4.288  0.0278 -0.1264 -0.5671
  304MOL0     C40062   7.635   5.808   4.205 -0.2486 -0.7202  0.0716
  304MOL0     H40063   7.307   6.113   4.087  2.1054 -2.9363 -0.9204
  304MOL0     H40064   7.099   6.196   4.001 -1.1777  1.1837 -0.9243
  304MOL0     H40065   6.891   6.229   3.824 -0.9043 -1.5431 -3.9802
  304MOL0     H40066   6.880   6.157   3.981  1.8653  1.2989 -1.4224
  304MOL0     H40067   6.697   6.003   3.833 -3.1604  0.6081 -0.8622
  304MOL0     H40068   6.718   6.144   3.730  2.2330  1.7830  0.1061
  304MOL0     H40069   6.514   6.170   3.845  0.2341 -3.5161 -1.1189
  304MOL0     H40070   6.625   6.290   3.929  1.7750 -1.6843  2.7157
  304MOL0     H40071   6.552   6.020   4.047 -1.3545  0.5881 -2.7277
  304MOL0     H40072   6.669   6.144   4.099  0.4277  1.8958 -1.4428
  304MOL0     H40073   6.370   6.172   4.049  0.7594 -1.2524 -2.0727
  304MOL0     H40074   6.481   6.301   4.097 -1.4339 -0.4280  2.9875
  304MOL0     H40075   6.374   6.250   4.305  0.1106  3.3253 -2.8466
  304MOL0     H40076   6.532   6.197   4.312 -0.2259  2.3051  0.1154
  304MOL0     H40077   6.314   5.993   4.223 -1.4956 -3.4346  2.6411
  304MOL0     H40078   6.492   5.973   4.241 -0.9699 -0.0677  0.9444
  304MOL0     H40079   6.304   6.049   4.475 -1.1518 -3.1778 -0.2767
  304MOL0     H40080   6.483   6.027   4.476 -0.5951  1.6260  0.7127
  304MOL0     H40081   6.154   5.816   4.474  0.3143  1.0703 -1.3489
  304MOL0     H40082   6.220   5.544   4.680 -1.2159 -2.6151 -0.1233
  304MOL0     H40083   6.274   5.463   4.530 -1.1524  1.1388 -4.2353
  304MOL0     H40084   6.080   5.592   4.405  1.4261 -0.2284 -0.1586
  304MOL0     H40085   6.001   5.586   4.568  3.0080  2.9469  2.6425
  304MOL0     H40086   6.140   5.368   4.419  1.5120  4.1401 -0.2861
  304MOL0     H40087   6.054   5.342   4.569 -1.4863  4.5170  2.7093
  304MOL0     H40088   5.932   5.272   4.362  1.3259  0.0761 -0.1948
  304MOL0     H40089   5.930   5.438   4.300  0.3632  0.7382  0.6775
  304MOL0     H40090   5.761   5.278   4.670  1.2123  3.1986 -2.2453
  304MOL0     H40091   5.619   5.059   4.668 -1.1804  1.4238  0.3088
  304MOL0     H40092   5.297   4.785   4.777  0.2060  1.0111 -0.0910
  304MOL0     H40093   5.286   4.535   4.795  3.6680 -0.7223  2.6970
  304MOL0     H40094   5.441   4.283   4.441  1.8356  1.1180  0.0232
  304MOL0     H40095   5.297   4.392   4.425 -0.6365  1.0243  1.7002
  304MOL0     H40096   5.146   4.232   4.518 -1.6670  1.5503 -4.4054
  304MOL0     H40097   5.283   4.113   4.558  0.6080  0.4627  0.2277
  304MOL0     H40098   5.315   4.083   4.314  0.4275  0.2996  1.7431
  304MOL0     H40099   5.195   4.224   4.283 -0.0560  0.8545  0.1761
  304MOL0     H40100   5.118   3.954   4.411  1.2132 -0.7567 -0.3661
  304MOL0     H40101   5.022   4.093   4.388 -1.1847 -3.1987  1.7973
  304MOL0     H40102   4.994   3.914   4.208  0.0971  0.8927  2.4812
  304MOL0     H40103   5.170   3.922   4.173  0.0666 -0.9328  1.5057
  304MOL0     H40104   4.999   4.034   3.998 -2.6310  1.0458 -0.0893
  304MOL0     H40105   5.132   4.131   4.063 -1.4294  2.2035  2.0690
  304MOL0     H40106   4.840   4.147   4.173 -1.6623  0.9713 -2.3681
  304MOL0     H40107   4.974   4.267   4.180 -0.3315 -0.1379  1.9548
  304MOL0     H40108   4.812   4.340   4.006  0.6005  0.7101  0.6766
  304MOL0     H40109   4.847   4.181   3.925  3.0939 -2.3662  0.9091
  304MOL0     H40110   5.537   4.495   4.456 -1.6294  1.1999 -1.7964
  304MOL0     H40111   5.577   4.739   4.458  1.1265  0.2781  0.7255
  304MOL0     H40112   5.493   5.160   4.273 -1.6903  4.0524  0.9888
  304MOL0     H40113   5.616   5.334   4.265  0.1241 -0.8147 -0.4034
  304MOL0     H40114   7.056   5.838   3.763  0.4468  1.8090 -2.2274
  304MOL0     H40115   7.272   5.750   3.868  2.6314  0.2680  3.0374
  304MOL0     H40116   7.811   6.027   4.014 -0.3840  0.3883 -0.2374
  304MOL0     H40117   7.987   5.950   4.170  0.2793 -0.3126 -1.2851
  304MOL0     H40118   7.918   5.571   4.357 -1.0433 -0.6350  3.1556
  304MOL0     H40119   8.037   5.606   4.486  1.9301 -3.1108 -1.3942
  304MOL0     H40120   8.195   5.672   4.324 -1.1912  0.9478 -2.2999
  304MOL0     H40121   8.167   5.500   4.352  2.6258  0.0090  0.0138
  304MOL0     H40122   8.070   5.673   4.121 -0.8973 -3.0639 -1.6566
  304MOL0     H40123   8.038   5.499   4.145 -2.2030 -0.3382  4.9846
  304MOL0     H40124   8.329   5.566   4.117 -1.1273 -0.2211  3.2452
  304MOL0     H40125   8.247   5.418   4.083 -1.9872 -0.4347  0.3763
  304MOL0     H40126   8.257   5.628   3.727 -2.0015 -0.0548 -0.9367
  304MOL0     H40127   7.737   5.676   4.357  1.8158  0.2801  0.2326
  304MOL0     H40128   7.537   5.776   4.239 -0.8542  1.0647  0.1077
  305MOL0     O40129   5.464   0.437   1.909 -0.2221  0.7156 -0.2260
  305MOL0     C40130   5.503   0.379   1.811  0.4603 -0.6028  0.0302
  305MOL0     O40131   5.465   0.259   1.763 -0.5042  0.5809 -0.3440
  305MOL0     C40132   5.416   0.168   1.859  0.8066  0.3700  0.8650
  305MOL0     C40133   5.496   0.128   1.969 -0.1130  0.0119  0.4161
  305MOL0     C40134   5.441   0.042   2.065  0.9169 -0.4720 -0.5351
  305MOL0     C40135   5.311  -0.018   2.044  0.3757 -0.9771 -0.7292
  305MOL0     O40136   5.232  -0.084   2.132 -0.1908 -0.2820 -0.3015
  305MOL0     C40137   5.285  -0.114   2.264 -0.6328 -0.5085 -1.2155
  305MOL0     C40138   5.173  -0.188   2.338  1.0105 -0.2174 -0.4069
  305MOL0     C40139   5.067  -0.078   2.382  0.4821 -0.2181  0.3794
  305MOL0     C40140   4.941  -0.129   2.459 -0.9062  0.9945  0.6611
  305MOL0     C40141   4.813  -0.045   2.434 -0.3252  1.2085 -0.1557
  305MOL0     C40142   4.775  -0.015   2.283 -1.3977  0.1862 -0.5260
  305MOL0     C40143   4.781  -0.136   2.192 -0.8884 -0.3177  0.6675
  305MOL0     C40144   4.734  -0.095   2.052  0.3397 -0.7170  0.1858
  305MOL0     N40145   4.771  -0.166   1.938 -0.0119  0.2738  0.6390
  305MOL0     C40146   4.740  -0.112   1.811  0.2938  0.3947  0.5518
  305MOL0     C40147   4.809  -0.185   1.721  0.3699  0.2744 -0.2365
  305MOL0     C40148   4.818  -0.155   1.580  0.2363  0.1279 -0.7050
  305MOL0     C40149   4.687  -0.169   1.510 -0.0656  0.0533  0.8171
  305MOL0     C40150   4.702  -0.144   1.357  0.2444  0.5832  0.1557
  305MOL0     C40151   4.580  -0.198   1.267 -0.4945  0.2576 -0.2018
  305MOL0     O40152   4.599  -0.173   1.124  0.1422 -0.3330  0.0322
  305MOL0     C40153   4.674  -0.261   1.040 -0.9872  0.3082 -0.0574
  305MOL0     C40154   4.713  -0.213   0.914 -0.0298  1.1108 -0.6575
  305MOL0     C40155   4.791  -0.291   0.830 -0.0203  0.7612 -0.8024
  305MOL0     C40156   4.823  -0.416   0.867 -0.4609 -0.3176 -0.2301
  305MOL0     C40157   4.896  -0.499   0.762 -0.3186 -0.8348  0.0479
  305MOL0     O40158   4.868  -0.636   0.775  0.5354 -0.1870  0.3416
  305MOL0     C40159   4.903  -0.719   0.673  0.5200 -0.4780  0.4505
  305MOL0     C40160   4.980  -0.830   0.689  0.4668 -0.0322 -0.6404
  305MOL0     C40161   5.004  -0.920   0.589 -0.0718 -0.6437 -0.2995
  305MOL0     C40162   4.944  -0.903   0.462 -0.1332  0.1748 -0.2718
  305MOL0     O40163   5.002  -0.977   0.354  0.3612 -0.1038 -0.4530
  305MOL0     C40164   4.932  -0.979   0.227  0.2688  0.2395 -0.0235
  305MOL0     C40165   5.002  -1.083   0.145 -0.4992 -0.9661  0.8573
  305MOL0     C40166   4.952  -1.081  -0.005 -0.3449  0.2432 -0.3295
  305MOL0     C40167   5.039  -0.994  -0.101 -0.3620  0.2686 -0.2751
  305MOL0     C40168   4.993  -1.027  -0.236 -0.2056 -0.6389 -0.8171
  305MOL0     C40169   5.073  -0.945  -0.339 -0.4579 -0.2215  0.6165
  305MOL0     C40170   5.017  -0.959  -0.479 -0.1030 -0.5959 -0.9450
  305MOL0     C40171   5.090  -0.859  -0.581  0.1391  0.3331 -0.3166
  305MOL0    Cl40172   5.084  -0.689  -0.534 -0.4107  0.2460  0.1079
  305MOL0     C40173   4.878  -0.777   0.437  0.7755  0.4815 -0.7168
  305MOL0     C40174   4.860  -0.685   0.544 -0.1028  1.5459 -0.1976
  305MOL0     O40175   4.979  -0.446   0.688 -0.4167 -0.3769  1.0574
  305MOL0     C40176   4.783  -0.475   0.990 -0.2160  0.0609  0.0595
  305MOL0     C40177   4.700  -0.398   1.074 -0.1890  0.2422 -0.0300
  305MOL0     N40178   4.882  -0.281   1.797  0.1206  0.0578 -0.3233
  305MOL0     N40179   4.859  -0.271   1.920 -0.0038 -0.1721  0.6354
  305MOL0     C40180   5.241   0.015   1.929  0.2550  0.6948  0.2819
  305MOL0     C40181   5.289   0.112   1.841  0.7117 -0.5954 -0.3541
  305MOL0     C40182   5.593   0.449   1.712 -0.0673  0.2943 -0.6017
  305MOL0     C40183   5.645   0.574   1.743  0.1666 -1.2881  0.3795
  305MOL0     C40184   5.755   0.624   1.672  0.6174 -1.0798  0.4497
  305MOL0     C40185   5.815   0.539   1.567  0.4491 -1.3449  0.5533
  305MOL0     O40186   5.912   0.555   1.482 -0.4411 -0.0290  0.5303
  305MOL0     C40187   5.993   0.665   1.488  0.3494 -0.6285 -0.3942
  305MOL0     C40188   6.067   0.686   1.348  0.2826  0.5022 -0.5010
  305MOL0     C40189   6.188   0.787   1.371  0.7684 -0.3416 -0.2409
  305MOL0     C40190   6.280   0.778   1.251  0.2504 -0.0242 -0.6396
  305MOL0     C40191   6.224   0.852   1.142  0.2359 -0.3611 -1.2096
  305MOL0     C40192   6.177   0.921   1.060  0.0804 -0.3711  0.7998
  305MOL0     C40193   5.747   0.422   1.533  0.1708 -0.1604 -0.2434
  305MOL0     C40194   5.634   0.378   1.602 -0.2141 -0.3965  0.7164
  305MOL0     H40195   5.602   0.153   1.976  0.4162 -2.1912  0.9231
  305MOL0     H40196   5.497   0.020   2.155  1.1856  1.7996 -0.0745
  305MOL0     H40197   5.317  -0.026   2.320  0.5161  0.2614 -3.0086
  305MOL0     H40198   5.372  -0.180   2.262 -0.4207 -0.5309  2.0544
  305MOL0     H40199   5.221  -0.227   2.428  0.9675  0.3071 -0.1535
  305MOL0     H40200   5.123  -0.272   2.289 -2.6725  2.4927 -1.7684
  305MOL0     H40201   5.030  -0.029   2.291  0.0878  1.9654  1.6547
  305MOL0     H40202   5.125  -0.009   2.444  1.9995 -0.8379 -0.2935
  305MOL0     H40203   4.922  -0.232   2.428  0.2604  1.1643 -0.7628
  305MOL0     H40204   4.961  -0.129   2.567  2.8229  3.0009  0.1532
  305MOL0     H40205   4.838   0.043   2.494  1.5276  0.4361  0.2915
  305MOL0     H40206   4.724  -0.088   2.481  1.1235 -1.0700  0.6747
  305MOL0     H40207   4.832   0.066   2.237 -1.8067  0.0172 -1.3664
  305MOL0     H40208   4.671   0.019   2.291 -1.4972 -0.2728  0.2221
  305MOL0     H40209   4.888  -0.159   2.184 -0.8043  0.0377  0.7901
  305MOL0     H40210   4.726  -0.225   2.225  2.7944 -2.5188  1.4616
  305MOL0     H40211   4.749   0.014   2.048 -0.7047 -0.5800 -0.4575
  305MOL0     H40212   4.627  -0.116   2.052 -0.3209  2.1601  1.5163
  305MOL0     H40213   4.676  -0.027   1.788  3.2208  1.8049 -3.5501
  305MOL0     H40214   4.892  -0.226   1.542  0.8968 -0.2806  1.2121
  305MOL0     H40215   4.856  -0.054   1.565  1.9739  0.1874  2.9074
  305MOL0     H40216   4.628  -0.088   1.554  1.1382  0.9049  0.8978
  305MOL0     H40217   4.637  -0.262   1.538  0.2584  0.4061  2.6789
  305MOL0     H40218   4.717  -0.038   1.338 -0.3383  0.4047 -1.5097
  305MOL0     H40219   4.793  -0.199   1.335  0.8031  1.4870  0.1672
  305MOL0     H40220   4.493  -0.141   1.300 -0.4296 -0.1808  0.7676
  305MOL0     H40221   4.555  -0.302   1.291  1.9117 -0.5089 -0.7056
  305MOL0     H40222   4.659  -0.122   0.892 -3.5784  0.4281  3.7227
  305MOL0     H40223   4.833  -0.250   0.739  0.4727 -1.0678 -1.4429
  305MOL0     H40224   5.030  -0.853   0.782 -0.7629 -0.3459 -0.0382
  305MOL0     H40225   5.073  -1.003   0.599  0.4272 -0.2115 -0.0786
  305MOL0     H40226   4.921  -0.882   0.178  0.7723 -0.6167 -1.9102
  305MOL0     H40227   4.835  -1.024   0.250  1.5069 -1.8331  1.5158
  305MOL0     H40228   4.993  -1.184   0.186 -3.3482 -1.4376 -0.6698
  305MOL0     H40229   5.105  -1.048   0.135 -1.3414  1.5614  0.2075
  305MOL0     H40230   4.848  -1.052  -0.017 -0.1908  0.2376 -1.8608
  305MOL0     H40231   4.946  -1.185  -0.040 -0.3656 -0.2686  1.1330
  305MOL0     H40232   5.023  -0.888  -0.080  0.6670  0.7933 -1.9402
  305MOL0     H40233   5.145  -1.013  -0.086 -0.7248 -1.5320  0.3057
  305MOL0     H40234   4.888  -0.999  -0.250 -0.0089 -0.3963 -1.8569
  305MOL0     H40235   5.014  -1.132  -0.255  1.5721 -0.1316 -1.7711
  305MOL0     H40236   5.175  -0.986  -0.343  0.0560  1.0662 -2.2202
  305MOL0     H40237   5.089  -0.841  -0.309 -0.7822 -0.5999  2.2200
  305MOL0     H40238   5.030  -1.063  -0.510 -0.1440 -0.8180 -0.2251
  305MOL0     H40239   4.909  -0.945  -0.477 -0.1428 -0.8914  1.6999
  305MOL0     H40240   5.057  -0.860  -0.685  1.9112  3.9405 -1.0929
  305MOL0     H40241   5.195  -0.886  -0.593 -0.3194 -0.2200 -4.7000
  305MOL0     H40242   4.820  -0.749   0.350  0.8592 -1.7514 -1.5764
  305MOL0     H40243   4.795  -0.600   0.527 -0.0205  2.0730  1.8120
  305MOL0     H40244   4.816  -0.573   1.025 -0.2198 -0.4386 -1.2834
  305MOL0     H40245   4.659  -0.448   1.161  0.4347 -0.4983 -0.1454
  305MOL0     H40246   5.141  -0.026   1.914  0.2068  0.8689  0.1158
  305MOL0     H40247   5.222   0.131   1.758  0.8098  3.2006  0.2692
  305MOL0     H40248   5.606   0.630   1.828  0.3603 -1.5945  0.6733
  305MOL0     H40249   5.779   0.726   1.700 -1.8286 -1.0043  2.7486
  305MOL0     H40250   6.073   0.647   1.560  1.4990  0.6210 -1.3215
  305MOL0     H40251   5.934   0.748   1.528  3.4033  1.0864  0.8650
  305MOL0     H40252   6.105   0.593   1.304  0.4523  1.4961 -2.6027
  305MOL0     H40253   6.015   0.724   1.260  1.5793  1.1168 -1.0316
  305MOL0     H40254   6.247   0.745   1.454 -3.2819 -2.6349  1.7976
  305MOL0     H40255   6.142   0.884   1.390 -0.0402 -1.0934  2.0452
  305MOL0     H40256   6.378   0.822   1.272 -0.5531  1.1459  0.9097
  305MOL0     H40257   6.301   0.675   1.219  0.8897  0.5504 -2.1368
  305MOL0     H40258   6.119   0.971   0.985  2.1912 -1.8098 -2.0080
  305MOL0     H40259   5.775   0.376   1.439 -0.5007  0.4224 -0.7382
  305MOL0     H40260   5.593   0.291   1.552 -3.3274  1.0802  0.4695
  306MOL0     O40261   9.079  11.031  11.262  0.5659 -0.6920 -0.3698
  306MOL0     C40262   9.027  10.980  11.163 -0.3598  0.2337 -0.0576
  306MOL0     O40263   8.895  10.959  11.136  0.8272  0.6061  0.2928
  306MOL0     C40264   8.811  10.983  11.247  0.3450  0.0843  0.1054
  306MOL0     C40265   8.833  10.918  11.373 -0.3112  0.3851 -0.6503
  306MOL0     C40266   8.762  10.966  11.486  0.2327 -0.3012  0.4361
  306MOL0     C40267   8.680  11.080  11.481 -0.4619 -0.5038  0.9670
  306MOL0     O40268   8.619  11.114  11.599  0.2603  0.2794 -0.1334
  306MOL0     C40269   8.523  11.225  11.593  0.2240  0.4962 -0.7934
  306MOL0     C40270   8.439  11.246  11.715  0.9577  0.1816  0.6052
  306MOL0     C40271   8.388  11.109  11.772  1.0864  0.3312 -0.3671
  306MOL0     C40272   8.281  11.133  11.887 -0.7717  0.8173 -0.0418
  306MOL0     C40273   8.229  10.997  11.926 -0.2682  0.4753  0.8238
  306MOL0     C40274   8.108  11.002  12.016  0.0033 -0.3173 -0.3693
  306MOL0     C40275   8.040  10.872  12.050 -0.3216 -0.8885 -0.6973
  306MOL0     C40276   7.921  10.907  12.145  0.8824 -0.1343  0.2631
  306MOL0     N40277   7.881  10.781  12.208  0.2505 -0.3057  0.4241
  306MOL0     C40278   7.950  10.702  12.293  0.3341 -0.0682 -0.2388
  306MOL0     C40279   7.867  10.602  12.332  0.3450 -0.2665  0.2446
  306MOL0     C40280   7.888  10.491  12.435  0.2575  0.3755  0.7375
  306MOL0     C40281   7.759  10.418  12.489  0.4374  0.3742 -0.4009
  306MOL0     C40282   7.748  10.367  12.636 -0.7789 -0.6766  0.4690
  306MOL0     C40283   7.859  10.270  12.672  0.2628  0.1391 -0.2144
  306MOL0     O40284   7.960  10.336  12.745 -0.0353 -0.5068 -0.2297
  306MOL0     C40285   7.921  10.368  12.874 -0.1005 -0.6435  0.3142
  306MOL0     C40286   7.890  10.501  12.903  0.9138 -0.2519  0.3632
  306MOL0     C40287   7.818  10.528  13.021  0.1939 -0.2888  0.7059
  306MOL0     C40288   7.790  10.428  13.114  0.4182  0.0901 -0.2411
  306MOL0     C40289   7.725  10.469  13.240  0.0388 -0.5375  0.1239
  306MOL0     O40290   7.765  10.410  13.363  0.5309  0.3679  0.2424
  306MOL0     C40291   7.719  10.476  13.474  0.1409 -0.6289  0.2423
  306MOL0     C40292   7.649  10.413  13.579 -0.3280  0.3744  0.5836
  306MOL0     C40293   7.610  10.492  13.689  0.2986 -0.2796  0.7742
  306MOL0     C40294   7.648  10.630  13.695  0.3091  0.5018  0.1437
  306MOL0     O40295   7.594  10.709  13.787  0.8583 -0.5718 -0.3855
  306MOL0     C40296   7.570  10.659  13.921 -0.1608 -0.3283 -0.0094
  306MOL0     C40297   7.541  10.775  14.012 -0.3166  0.8552 -0.6173
  306MOL0     C40298   7.461  10.741  14.129 -0.5283 -0.4071 -0.0608
  306MOL0     C40299   7.524  10.644  14.230 -0.8110 -0.4025 -0.7635
  306MOL0     C40300   7.658  10.701  14.286 -0.0295  0.5866 -0.1310
  306MOL0     C40301   7.699  10.613  14.407  0.4180 -0.1035 -0.7325
  306MOL0     C40302   7.849  10.625  14.445 -0.3704 -0.5524  0.9490
  306MOL0     C40303   7.900  10.520  14.535  0.1722  0.1261  0.3901
  306MOL0    Cl40304   7.920  10.358  14.463  0.0981 -0.3489  0.0569
  306MOL0     C40305   7.711  10.692  13.593  1.7450 -1.1441 -0.1774
  306MOL0     C40306   7.752  10.611  13.483  0.1070  0.2292  0.6512
  306MOL0     O40307   7.631  10.538  13.225  0.6696  0.3182 -0.3433
  306MOL0     C40308   7.829  10.301  13.085 -0.5013  0.4761  0.0059
  306MOL0     C40309   7.901  10.274  12.973 -0.0124 -0.1102 -0.0108
  306MOL0     N40310   7.747  10.623  12.273  0.8930 -0.7167  0.0446
  306MOL0     N40311   7.758  10.722  12.194  0.8783  0.2454 -0.0276
  306MOL0     C40312   8.645  11.129  11.354 -0.4031 -0.5680  0.2357
  306MOL0     C40313   8.711  11.080  11.239  0.1292 -0.8728 -0.0425
  306MOL0     C40314   9.117  10.950  11.056  0.0678 -0.0321  0.3247
  306MOL0     C40315   9.055  10.931  10.932  0.4237 -0.7498  0.2957
  306MOL0     C40316   9.135  10.896  10.824 -0.3178 -1.3830  0.0476
  306MOL0     C40317   9.277  10.882  10.833 -0.1958  0.0340  0.0511
  306MOL0     O40318   9.348  10.830  10.734  0.1226  0.3409 -0.3915
  306MOL0     C40319   9.304  10.858  10.599 -0.1869  0.0514 -0.1287
  306MOL0     C40320   9.422  10.866  10.510  0.3676  0.2154 -0.3182
  306MOL0     C40321   9.479  10.725  10.488 -0.8691  0.7475 -0.2432
  306MOL0     C40322   9.591  10.711  10.374 -0.6858 -0.1524 -0.2179
  306MOL0     C40323   9.521  10.690  10.245 -0.4866 -0.4189  0.2565
  306MOL0     C40324   9.463  10.681  10.135  0.5463  0.0511 -0.7340
  306MOL0     C40325   9.330  10.888  10.959  0.1233  0.4376 -0.0944
  306MOL0     C40326   9.253  10.930  11.068 -0.5167 -0.1237  0.2938
  306MOL0     H40327   8.903  10.835  11.383  0.9583  1.5970  1.0570
  306MOL0     H40328   8.790  10.928  11.584  1.4096 -0.8038 -0.0754
  306MOL0     H40329   8.446  11.210  11.517  0.1580  0.8160 -0.7909
  306MOL0     H40330   8.596  11.307  11.587  1.9646 -1.0231 -1.2637
  306MOL0     H40331   8.352  11.304  11.685  0.5520 -1.1484 -0.9594
  306MOL0     H40332   8.494  11.307  11.787 -0.2124  0.9247  0.8887
  306MOL0     H40333   8.473  11.057  11.816 -0.8339 -0.3336  2.8539
  306MOL0     H40334   8.345  11.037  11.701 -1.2865 -1.0296  2.2424
  306MOL0     H40335   8.327  11.181  11.974 -2.6340 -1.3631  2.3428
  306MOL0     H40336   8.194  11.192  11.858 -1.5617 -0.0813  0.4226
  306MOL0     H40337   8.293  10.934  11.988 -2.7339 -1.4283  1.6143
  306MOL0     H40338   8.214  10.942  11.832  1.4329  0.0532  0.7718
  306MOL0     H40339   8.034  11.074  11.978  1.2824  0.9151 -0.6198
  306MOL0     H40340   8.143  11.041  12.112  1.2152 -1.1395 -0.4538
  306MOL0     H40341   8.006  10.817  11.962 -2.4517 -1.3620  0.3516
  306MOL0     H40342   8.107  10.817  12.117 -2.5241 -1.2994  1.3383
  306MOL0     H40343   7.842  10.957  12.088 -1.4121 -0.9000  2.5723
  306MOL0     H40344   7.954  10.972  12.226  0.1929 -0.9943  1.2732
  306MOL0     H40345   8.048  10.727  12.331 -0.3066  1.0128  0.7725
  306MOL0     H40346   7.956  10.519  12.515  2.8839 -1.7443 -0.5907
  306MOL0     H40347   7.947  10.414  12.384 -0.0066 -1.3755  2.9153
  306MOL0     H40348   7.734  10.333  12.425  0.4540  0.4525 -0.5124
  306MOL0     H40349   7.671  10.483  12.486 -0.0513  0.0013  2.5059
  306MOL0     H40350   7.750  10.461  12.690 -1.1347  1.6963 -3.2773
  306MOL0     H40351   7.649  10.321  12.652 -2.2680  2.2676  0.3833
  306MOL0     H40352   7.905  10.235  12.579 -0.3732 -1.7355  0.1397
  306MOL0     H40353   7.820  10.178  12.717  1.7135 -0.0476  0.7387
  306MOL0     H40354   7.903  10.579  12.829 -1.9109  1.8374  1.8553
  306MOL0     H40355   7.797  10.628  13.057 -1.1453 -0.3771  0.2367
  306MOL0     H40356   7.650  10.305  13.566  0.3711  0.2772  1.3928
  306MOL0     H40357   7.538  10.453  13.760 -4.2815  1.6992 -2.3433
  306MOL0     H40358   7.651  10.599  13.964 -2.3257 -2.9025  0.7698
  306MOL0     H40359   7.487  10.588  13.909 -0.1164 -0.2424 -0.8826
  306MOL0     H40360   7.481  10.848  13.957 -2.1294 -0.4285 -0.4349
  306MOL0     H40361   7.630  10.835  14.035  0.5195 -0.3332 -0.6807
  306MOL0     H40362   7.366  10.705  14.089 -0.2852 -1.5627  0.3772
  306MOL0     H40363   7.434  10.834  14.182 -2.0810 -1.3906  0.9707
  306MOL0     H40364   7.455  10.631  14.313  2.9108 -4.3857  2.1028
  306MOL0     H40365   7.538  10.541  14.196 -0.1556  0.4535 -3.3357
  306MOL0     H40366   7.642  10.805  14.314 -0.0330  0.0694  1.9637
  306MOL0     H40367   7.726  10.695  14.201 -1.0894  1.3710 -1.0584
  306MOL0     H40368   7.700  10.508  14.377 -0.0831  0.1463 -1.6367
  306MOL0     H40369   7.636  10.629  14.495  2.3035  1.4403  0.4305
  306MOL0     H40370   7.903  10.615  14.350 -4.1428 -0.2130 -1.4303
  306MOL0     H40371   7.872  10.726  14.481 -0.5718 -0.7814  1.7439
  306MOL0     H40372   7.833  10.506  14.620  0.3381 -1.9823  0.2158
  306MOL0     H40373   7.993  10.551  14.585 -0.2016 -2.4179  2.8965
  306MOL0     H40374   7.726  10.799  13.606 -2.2249 -0.3806 -0.7683
  306MOL0     H40375   7.795  10.664  13.399 -1.0063  1.3128  0.7259
  306MOL0     H40376   7.818  10.226  13.163 -0.6851 -1.1883 -1.5307
  306MOL0     H40377   7.955  10.180  12.960 -0.9949 -0.5602 -1.1029
  306MOL0     H40378   8.563  11.200  11.342 -0.7980 -0.8314  1.2110
  306MOL0     H40379   8.698  11.116  11.138  1.5821  0.6221  0.2542
  306MOL0     H40380   8.948  10.937  10.915 -0.6532 -3.8232  4.3340
  306MOL0     H40381   9.080  10.868  10.735  1.6934 -2.7610 -0.8437
  306MOL0     H40382   9.257  10.956  10.600  1.3432  0.8377  2.1080
  306MOL0     H40383   9.227  10.786  10.567  0.6575 -1.1828  0.5266
  306MOL0     H40384   9.384  10.892  10.411 -1.8523 -0.6853  0.2460
  306MOL0     H40385   9.501  10.935  10.539  1.9556 -0.0288 -3.5951
  306MOL0     H40386   9.402  10.650  10.466  0.8293 -1.4576  0.9013
  306MOL0     H40387   9.525  10.691  10.581  0.4125  1.1599 -0.7110
  306MOL0     H40388   9.652  10.801  10.376 -0.6768 -0.1005 -1.7902
  306MOL0     H40389   9.656  10.629  10.406 -1.7879 -0.1710  2.1933
  306MOL0     H40390   9.414  10.657  10.043 -1.7382 -2.8454  1.0598
  306MOL0     H40391   9.436  10.871  10.977  0.0277 -2.0089 -1.3262
  306MOL0     H40392   9.301  10.938  11.165 -0.9304 -4.5799  1.0933
  307MOL0     O40393   5.352   3.776   4.472  0.3260  0.1461 -0.7726
  307MOL0     C40394   5.248   3.703   4.476 -0.5575 -1.2926  0.1375
  307MOL0     O40395   5.139   3.730   4.552 -1.1395 -0.5487 -0.2658
  307MOL0     C40396   5.170   3.792   4.668 -0.8420  0.1744 -1.1830
  307MOL0     C40397   5.260   3.729   4.768 -0.1550  0.0365  0.1888
  307MOL0     C40398   5.273   3.786   4.901 -0.5000 -0.2308  0.5957
  307MOL0     C40399   5.213   3.912   4.925  0.9337 -0.3777  0.0039
  307MOL0     O40400   5.221   3.978   5.037 -0.4076 -0.8420 -0.1750
  307MOL0     C40401   5.351   4.035   5.072  0.2237  0.2586 -0.0241
  307MOL0     C40402   5.330   4.131   5.190 -0.0440 -0.6312 -1.0262
  307MOL0     C40403   5.459   4.215   5.220 -1.3284 -0.7671 -1.3228
  307MOL0     C40404   5.466   4.237   5.374  0.2871 -0.4021  0.6459
  307MOL0     C40405   5.593   4.307   5.408  0.0937  0.9460  0.2520
  307MOL0     C40406   5.575   4.440   5.494  0.1690 -0.4170  0.0709
  307MOL0     C40407   5.696   4.523   5.507  0.3574  0.1076  0.7968
  307MOL0     C40408   5.681   4.652   5.419  0.4246  0.2842 -0.6697
  307MOL0     N40409   5.799   4.744   5.437  0.2195 -0.2972 -0.4716
  307MOL0     C40410   5.928   4.708   5.422  0.2930  0.2932 -0.2544
  307MOL0     C40411   5.996   4.813   5.477  0.2754  0.6276  0.0477
  307MOL0     C40412   6.148   4.807   5.495 -0.2280 -0.2395 -0.4200
  307MOL0     C40413   6.172   4.845   5.647  0.0190 -0.3258 -0.0218
  307MOL0     C40414   6.318   4.814   5.674 -0.7092  0.3260 -0.8252
  307MOL0     C40415   6.330   4.848   5.826  0.1244 -0.3850  0.4793
  307MOL0     O40416   6.467   4.816   5.872 -0.2957  0.4232 -0.2311
  307MOL0     C40417   6.479   4.832   6.005 -0.8214 -0.2545 -0.2090
  307MOL0     C40418   6.504   4.720   6.081 -0.2800  0.1048  0.8532
  307MOL0     C40419   6.534   4.730   6.214 -0.1360  0.4182 -0.7447
  307MOL0     C40420   6.529   4.849   6.278  0.7027 -0.6217 -0.6911
  307MOL0     C40421   6.533   4.863   6.427 -0.4332  0.0288  0.2101
  307MOL0     O40422   6.574   4.751   6.496 -0.1789  0.8241 -0.2417
  307MOL0     C40423   6.601   4.766   6.630  0.3726  0.6004  0.2882
  307MOL0     C40424   6.617   4.643   6.696  0.1940 -0.5671  0.6748
  307MOL0     C40425   6.650   4.636   6.832 -0.3921  0.2762  0.6704
  307MOL0     C40426   6.682   4.750   6.907  0.1863 -0.7017 -0.1148
  307MOL0     O40427   6.742   4.732   7.025 -0.5196 -0.3638  0.2458
  307MOL0     C40428   6.672   4.785   7.145 -0.1753  0.0095  0.1604
  307MOL0     C40429   6.744   4.747   7.283  0.8121  0.5489  0.6434
  307MOL0     C40430   6.765   4.605   7.290  1.1031  0.0988 -1.1837
  307MOL0     C40431   6.639   4.511   7.285  0.7493  0.2883  0.3108
  307MOL0     C40432   6.695   4.367   7.306  0.5830  0.7044  0.1265
  307MOL0     C40433   6.576   4.266   7.318  0.5604 -0.1963  0.1342
  307MOL0     C40434   6.565   4.188   7.189 -0.1575 -0.5872  0.5917
  307MOL0     C40435   6.674   4.077   7.157 -0.1585 -0.0887  0.5626
  307MOL0    Cl40436   6.652   3.939   7.264  0.5770  0.2710  0.1745
  307MOL0     C40437   6.681   4.872   6.837 -0.7677 -0.1215  0.4511
  307MOL0     C40438   6.637   4.878   6.703 -0.4409  0.4014 -0.4307
  307MOL0     O40439   6.484   4.967   6.486  0.1777 -0.5405 -0.8241
  307MOL0     C40440   6.493   4.962   6.207  0.4594  1.5699  0.2531
  307MOL0     C40441   6.465   4.951   6.072  0.1765 -0.1809 -0.0213
  307MOL0     N40442   5.903   4.918   5.510 -0.6120  1.0756 -0.6037
  307MOL0     N40443   5.784   4.873   5.486  0.2762 -0.1350 -0.5129
  307MOL0     C40444   5.134   3.971   4.834 -0.2091  0.1984 -0.5203
  307MOL0     C40445   5.105   3.906   4.702 -0.0974 -0.7617 -0.9442
  307MOL0     C40446   5.231   3.607   4.370 -0.8358 -0.1892  0.1064
  307MOL0     C40447   5.335   3.577   4.285 -0.8419  0.6787 -0.1853
  307MOL0     C40448   5.322   3.477   4.192  0.7367  0.2803  0.9384
  307MOL0     C40449   5.201   3.404   4.177 -0.2735 -0.5134  0.7989
  307MOL0     O40450   5.199   3.306   4.088  0.7110  0.4987  0.0340
  307MOL0     C40451   5.229   3.181   4.152 -0.4753 -0.9757  0.0589
  307MOL0     C40452   5.127   3.081   4.103  0.4367 -0.8888 -0.3536
  307MOL0     C40453   5.152   2.937   4.152  0.6777  0.2526  0.3781
  307MOL0     C40454   5.042   2.843   4.113 -0.5024 -0.0903  0.6019
  307MOL0     C40455   5.008   2.829   3.972 -0.6765 -0.2205 -0.2189
  307MOL0     C40456   4.969   2.827   3.851  0.3567  0.0380  0.4072
  307MOL0     C40457   5.093   3.450   4.248  0.3815  0.6588  1.2572
  307MOL0     C40458   5.106   3.539   4.355 -1.5135 -0.8457 -0.6129
  307MOL0     H40459   5.325   3.645   4.746 -0.3104 -0.0286 -0.0261
  307MOL0     H40460   5.345   3.739   4.968 -1.9357 -0.5556  1.9558
  307MOL0     H40461   5.383   4.080   4.977 -1.3315 -1.8434 -1.6625
  307MOL0     H40462   5.420   3.957   5.108  3.0718  3.9816  3.4672
  307MOL0     H40463   5.293   4.075   5.277 -0.4901 -0.9751 -1.4363
  307MOL0     H40464   5.254   4.207   5.171  1.5412  1.2438 -0.3041
  307MOL0     H40465   5.466   4.296   5.147 -0.5869  0.9465  0.5615
  307MOL0     H40466   5.546   4.149   5.215 -0.1962  0.2895  1.9805
  307MOL0     H40467   5.373   4.288   5.402 -1.3820 -3.0281  0.2658
  307MOL0     H40468   5.472   4.144   5.432  0.2294 -0.0503  1.2240
  307MOL0     H40469   5.623   4.345   5.310 -2.7107 -1.7305 -1.8387
  307MOL0     H40470   5.667   4.239   5.449 -0.9617 -0.3498  0.0680
  307MOL0     H40471   5.547   4.411   5.595  0.6395  1.8805  0.9327
  307MOL0     H40472   5.485   4.499   5.477  2.0588  3.3671  1.8581
  307MOL0     H40473   5.701   4.561   5.609 -4.0478  0.2616  1.1621
  307MOL0     H40474   5.790   4.475   5.480  0.2215  0.6026 -0.6318
  307MOL0     H40475   5.581   4.688   5.444 -0.3387 -2.3588  0.4295
  307MOL0     H40476   5.682   4.603   5.321 -0.9225  0.1257 -0.6122
  307MOL0     H40477   5.973   4.618   5.382  0.4457  0.0038  0.5610
  307MOL0     H40478   6.205   4.871   5.427  0.1125  0.6904  0.7052
  307MOL0     H40479   6.181   4.703   5.487 -1.3778 -0.7310  0.7370
  307MOL0     H40480   6.108   4.790   5.716  2.4882 -2.1780  0.9526
  307MOL0     H40481   6.147   4.950   5.660  0.5935  0.3493 -3.2853
  307MOL0     H40482   6.341   4.708   5.661 -0.7270 -0.2944  3.1871
  307MOL0     H40483   6.398   4.869   5.624  0.9400  0.3530  1.6802
  307MOL0     H40484   6.260   4.795   5.891  2.1563 -0.8948  2.3307
  307MOL0     H40485   6.324   4.957   5.841 -0.0661 -0.1618 -1.0565
  307MOL0     H40486   6.506   4.614   6.057  2.0044 -0.3576  2.6633
  307MOL0     H40487   6.551   4.642   6.275  1.0017 -1.5485 -3.6998
  307MOL0     H40488   6.602   4.552   6.638  1.9820 -0.1283 -0.5726
  307MOL0     H40489   6.662   4.541   6.883  0.3864  1.3997  2.6789
  307MOL0     H40490   6.566   4.758   7.152 -0.2259 -0.2770 -1.3149
  307MOL0     H40491   6.668   4.893   7.130  0.3765  0.2523  1.6136
  307MOL0     H40492   6.688   4.784   7.369 -0.3207  2.0244 -0.6645
  307MOL0     H40493   6.838   4.802   7.287  0.0104  2.3532 -2.1780
  307MOL0     H40494   6.824   4.587   7.380 -0.9076 -1.6696 -0.1125
  307MOL0     H40495   6.827   4.561   7.212  2.5701 -1.6967  0.8664
  307MOL0     H40496   6.569   4.546   7.362  0.1167 -1.6733  0.7040
  307MOL0     H40497   6.602   4.519   7.183  0.8587 -1.6312  0.0754
  307MOL0     H40498   6.744   4.370   7.403 -0.1237  4.8224  0.5223
  307MOL0     H40499   6.753   4.336   7.218  2.6175 -0.5499  1.8090
  307MOL0     H40500   6.490   4.331   7.339  1.0543  1.3528 -2.3084
  307MOL0     H40501   6.592   4.198   7.402 -3.0492 -1.7186 -0.1968
  307MOL0     H40502   6.470   4.136   7.171 -1.2587  0.5701  2.7146
  307MOL0     H40503   6.573   4.267   7.114  1.7155  0.3919  1.7420
  307MOL0     H40504   6.777   4.112   7.154 -0.2703  0.2350  0.3964
  307MOL0     H40505   6.657   4.057   7.051 -1.2151  3.0851  0.0087
  307MOL0     H40506   6.709   4.963   6.890 -2.9401  0.0061  1.4823
  307MOL0     H40507   6.629   4.981   6.671 -1.6220 -0.1645 -2.0712
  307MOL0     H40508   6.463   5.050   6.263 -0.7534  1.9610 -0.9575
  307MOL0     H40509   6.430   5.040   6.021 -1.3259 -1.1982 -0.8510
  307MOL0     H40510   5.076   4.060   4.859 -2.7576 -0.9760 -1.8033
  307MOL0     H40511   5.031   3.946   4.633 -1.4581  0.8854  1.2968
  307MOL0     H40512   5.434   3.619   4.300 -0.2413 -0.2348 -1.4546
  307MOL0     H40513   5.418   3.442   4.157  0.5946  1.2362 -0.4776
  307MOL0     H40514   5.226   3.186   4.262  4.7922 -0.0706  0.4547
  307MOL0     H40515   5.330   3.147   4.130  1.2721  0.0780  5.0104
  307MOL0     H40516   5.027   3.119   4.124  1.7026  1.8623  1.4593
  307MOL0     H40517   5.139   3.083   3.995 -0.3161  0.1443 -0.4280
  307MOL0     H40518   5.161   2.933   4.261  1.3945  0.7072  0.3446
  307MOL0     H40519   5.253   2.909   4.120  0.6789 -0.3206  0.8769
  307MOL0     H40520   5.070   2.748   4.157  0.5106  0.1261  0.4417
  307MOL0     H40521   4.956   2.894   4.159  0.6150  2.4651  0.0343
  307MOL0     H40522   4.941   2.825   3.748 -0.9382 -3.7224  0.6708
  307MOL0     H40523   4.997   3.403   4.228  0.6379  1.2377 -2.0016
  307MOL0     H40524   5.030   3.553   4.431 -0.4208 -1.8112  0.7085
  308MOL0     O40525  10.324   4.994   2.347 -0.5633  0.1030 -0.0161
  308MOL0     C40526  10.396   5.094   2.325 -0.4734 -0.4356 -0.5424
  308MOL0     O40527  10.365   5.218   2.376 -0.3002 -0.3763  0.9113
  308MOL0     C40528  10.248   5.234   2.449  1.0409 -0.1270  0.3703
  308MOL0     C40529  10.226   5.168   2.574 -0.7882 -0.0699  0.1492
  308MOL0     C40530  10.107   5.176   2.647 -0.5938  0.5866 -0.0581
  308MOL0     C40531  10.009   5.264   2.604  0.0190 -1.1993  0.2424
  308MOL0     O40532   9.895   5.296   2.664  0.8946 -0.0887  0.9298
  308MOL0     C40533   9.863   5.251   2.788 -0.0389 -0.1588  0.9894
  308MOL0     C40534   9.746   5.343   2.837  0.5454 -0.4296 -0.9982
  308MOL0     C40535   9.609   5.291   2.803 -0.0254  0.0048 -0.5502
  308MOL0     C40536   9.505   5.404   2.841 -0.0828 -0.0829 -0.2011
  308MOL0     C40537   9.386   5.392   2.759 -0.7312 -0.0420 -0.2617
  308MOL0     C40538   9.269   5.469   2.832 -0.5052  0.7314 -0.4717
  308MOL0     C40539   9.177   5.508   2.719 -0.0758 -0.2251 -0.2246
  308MOL0     C40540   9.055   5.596   2.754  0.0137  0.1901  0.2255
  308MOL0     N40541   8.987   5.541   2.867  0.5432 -0.1721 -0.3329
  308MOL0     C40542   8.988   5.586   3.001  0.0710  0.2814  0.1949
  308MOL0     C40543   8.919   5.487   3.066  0.3368 -0.0478 -0.0998
  308MOL0     C40544   8.910   5.465   3.220  0.0621 -0.3828 -0.4574
  308MOL0     C40545   9.045   5.448   3.282  0.1220 -0.2199  0.6588
  308MOL0     C40546   9.089   5.305   3.272  0.3313  0.1079 -0.3351
  308MOL0     C40547   9.115   5.244   3.139  0.6221  0.6548 -0.5812
  308MOL0     O40548   9.204   5.135   3.144  0.2629 -0.6516 -0.4492
  308MOL0     C40549   9.148   5.011   3.118 -0.0584 -0.3851  1.2751
  308MOL0     C40550   9.189   4.945   3.002 -0.1617 -0.3821  0.3125
  308MOL0     C40551   9.143   4.818   2.969  1.6019 -1.0692  0.7223
  308MOL0     C40552   9.052   4.749   3.057 -1.0485  1.1749 -0.1122
  308MOL0     C40553   9.003   4.609   3.029 -0.6840 -0.1658  0.0201
  308MOL0     O40554   8.939   4.546   3.125  0.3331  0.4766 -1.0951
  308MOL0     C40555   8.877   4.413   3.101 -0.3781 -0.4281  0.0734
  308MOL0     C40556   8.869   4.328   3.203 -0.3246  1.5389  0.1197
  308MOL0     C40557   8.824   4.193   3.193 -0.0609 -0.1095  0.2298
  308MOL0     C40558   8.778   4.141   3.073 -0.5501  0.7477 -0.1534
  308MOL0     O40559   8.730   4.012   3.060  0.1111 -0.3426 -0.1854
  308MOL0     C40560   8.814   3.926   2.988  0.4335 -0.5991 -0.8234
  308MOL0     C40561   8.813   3.798   3.065 -0.3664 -0.9650 -1.0893
  308MOL0     C40562   8.893   3.689   2.994 -1.0432  0.3115 -0.3520
  308MOL0     C40563   8.827   3.655   2.862 -0.0517 -0.0726  1.0611
  308MOL0     C40564   8.911   3.561   2.779  0.9880  0.1934 -0.2235
  308MOL0     C40565   8.864   3.544   2.632  0.5168  0.5371 -0.9872
  308MOL0     C40566   8.944   3.450   2.544 -0.4464  0.9899 -0.1834
  308MOL0     C40567   8.869   3.392   2.433  0.7645  0.0317  0.4580
  308MOL0    Cl40568   8.983   3.339   2.317  0.5057 -0.1626 -0.2214
  308MOL0     C40569   8.781   4.227   2.967 -0.6724 -0.2561 -0.0296
  308MOL0     C40570   8.841   4.351   2.976  0.5194  0.2937  0.1319
  308MOL0     O40571   9.024   4.573   2.913 -0.2324 -0.1038 -0.3778
  308MOL0     C40572   9.013   4.812   3.181 -0.9799  0.1602  0.4480
  308MOL0     C40573   9.064   4.935   3.206 -0.3740 -0.2924 -0.3933
  308MOL0     N40574   8.874   5.389   2.982 -0.5834 -0.4048 -0.1649
  308MOL0     N40575   8.917   5.420   2.866  0.7299  0.8036  0.3769
  308MOL0     C40576  10.021   5.337   2.483 -0.2760  0.0293 -1.1814
  308MOL0     C40577  10.142   5.322   2.405 -0.6210 -0.2644 -0.5874
  308MOL0     C40578  10.515   5.067   2.254 -0.1492 -0.2293 -0.9056
  308MOL0     C40579  10.566   5.163   2.163  0.1828 -0.6260 -0.8963
  308MOL0     C40580  10.679   5.140   2.081  0.5281 -0.3245  0.2023
  308MOL0     C40581  10.755   5.021   2.099  1.0279  0.0633  0.0247
  308MOL0     O40582  10.863   4.998   2.020  0.4534  0.1848 -0.5336
  308MOL0     C40583  10.917   4.867   2.006 -0.4143 -0.2540 -0.6940
  308MOL0     C40584  11.028   4.845   2.120 -0.6219 -0.2902  0.7614
  308MOL0     C40585  11.078   4.696   2.130 -0.0137  0.5749 -0.8277
  308MOL0     C40586  11.205   4.677   2.224  0.2460 -0.4092 -0.9559
  308MOL0     C40587  11.231   4.531   2.232  0.0011 -0.0936  1.2559
  308MOL0     C40588  11.240   4.412   2.234  0.6491  0.3457  0.7128
  308MOL0     C40589  10.709   4.931   2.201 -0.1302  0.5448 -0.1119
  308MOL0     C40590  10.589   4.950   2.268 -0.4699  0.8946  0.2960
  308MOL0     H40591  10.311   5.109   2.608 -1.9815 -1.2512  1.2279
  308MOL0     H40592  10.081   5.118   2.735 -1.5530  0.5076 -0.3821
  308MOL0     H40593   9.949   5.246   2.855  0.1271 -0.4704  0.7520
  308MOL0     H40594   9.819   5.151   2.783 -1.4399  0.2892  2.7974
  308MOL0     H40595   9.760   5.445   2.801 -0.1318 -0.1278 -0.4273
  308MOL0     H40596   9.744   5.361   2.945 -0.7279 -1.9919 -0.7165
  308MOL0     H40597   9.582   5.196   2.851  0.9014  0.5101  1.0611
  308MOL0     H40598   9.600   5.263   2.697 -1.8554 -0.0189 -0.4164
  308MOL0     H40599   9.474   5.382   2.944  1.7818 -2.0192  0.0188
  308MOL0     H40600   9.546   5.504   2.823 -0.6253 -0.1968 -2.3362
  308MOL0     H40601   9.352   5.288   2.760 -1.1815  0.1020  0.1591
  308MOL0     H40602   9.414   5.420   2.657 -0.8451  0.8564 -0.0546
  308MOL0     H40603   9.297   5.557   2.892 -1.1292  0.9340 -0.4722
  308MOL0     H40604   9.227   5.400   2.905 -0.8614  1.4120 -0.0234
  308MOL0     H40605   9.239   5.565   2.648  2.0796 -1.6642  0.3887
  308MOL0     H40606   9.127   5.421   2.675 -0.3075 -2.0319  3.3056
  308MOL0     H40607   8.989   5.601   2.667 -0.2247  1.0855  0.4481
  308MOL0     H40608   9.079   5.701   2.771  1.2935 -0.2403  1.2941
  308MOL0     H40609   9.038   5.671   3.046  1.6368 -0.2712 -0.4406
  308MOL0     H40610   8.835   5.390   3.246 -3.4545  3.3666  1.4488
  308MOL0     H40611   8.887   5.563   3.263 -0.0600  2.6801 -6.4008
  308MOL0     H40612   9.042   5.471   3.389  2.7815 -0.7287  0.9184
  308MOL0     H40613   9.120   5.510   3.233 -0.7017 -0.7680 -1.4418
  308MOL0     H40614   9.184   5.308   3.325 -0.4140  3.6808  1.0358
  308MOL0     H40615   9.021   5.240   3.329  1.3839  0.8829  1.9235
  308MOL0     H40616   9.161   5.330   3.088  1.2676  0.9532  0.4640
  308MOL0     H40617   9.021   5.224   3.088 -0.8079  1.2391  1.6669
  308MOL0     H40618   9.265   4.985   2.936  0.4789 -3.2730 -0.8424
  308MOL0     H40619   9.183   4.775   2.878  0.5287 -0.2343 -0.1629
  308MOL0     H40620   8.888   4.362   3.304 -1.0698  0.1558  0.7498
  308MOL0     H40621   8.816   4.129   3.280 -1.5806 -1.1371 -0.6059
  308MOL0     H40622   8.913   3.969   2.998 -0.0592  0.7042 -1.3393
  308MOL0     H40623   8.773   3.917   2.887  0.7712 -1.2374 -0.9074
  308MOL0     H40624   8.709   3.763   3.060 -1.7235  2.7109 -1.5040
  308MOL0     H40625   8.830   3.825   3.169 -0.0423  4.9217 -2.3165
  308MOL0     H40626   8.875   3.601   3.056 -0.1933  0.7237  0.4999
  308MOL0     H40627   9.000   3.711   2.986 -0.7756 -0.8020  0.0231
  308MOL0     H40628   8.726   3.615   2.871 -0.0838 -0.3623 -0.3269
  308MOL0     H40629   8.842   3.748   2.807  5.9333 -0.9869  0.3933
  308MOL0     H40630   8.909   3.461   2.825 -1.0815  0.7915  1.0881
  308MOL0     H40631   9.013   3.600   2.771  0.9274  0.6886  1.1956
  308MOL0     H40632   8.853   3.640   2.582 -2.5101  0.1766 -1.1995
  308MOL0     H40633   8.760   3.510   2.635 -0.1900  2.4329 -2.4777
  308MOL0     H40634   9.033   3.507   2.516  1.9075 -1.7528  1.1587
  308MOL0     H40635   8.974   3.364   2.605 -2.5698  0.6596  0.4945
  308MOL0     H40636   8.799   3.469   2.399 -0.0886 -1.0067 -0.2221
  308MOL0     H40637   8.810   3.307   2.469  0.3464  0.3400  0.5026
  308MOL0     H40638   8.749   4.192   2.869  1.7951  1.1067 -1.4430
  308MOL0     H40639   8.842   4.418   2.890  2.8160  0.5893  0.3174
  308MOL0     H40640   8.957   4.762   3.260  0.9719  1.4644  2.8127
  308MOL0     H40641   9.047   4.974   3.306  2.8314  1.8478 -0.5251
  308MOL0     H40642   9.938   5.403   2.459  0.4583  2.0637  1.4689
  308MOL0     H40643  10.159   5.390   2.322 -2.4800  1.3270  0.2387
  308MOL0     H40644  10.523   5.259   2.134 -0.2761 -0.1532  1.1879
  308MOL0     H40645  10.714   5.202   1.999  0.6165 -1.7127 -0.8454
  308MOL0     H40646  10.971   4.853   1.912  3.5987  1.0453  1.1676
  308MOL0     H40647  10.838   4.791   2.011 -3.4576  2.6211 -1.8589
  308MOL0     H40648  11.119   4.895   2.085 -2.6830  3.9941  0.9787
  308MOL0     H40649  11.003   4.888   2.218  0.4513 -1.4427  1.5815
  308MOL0     H40650  11.113   4.661   2.032 -0.5816 -4.0026  0.3775
  308MOL0     H40651  10.991   4.637   2.163  0.9259  0.0597  0.8505
  308MOL0     H40652  11.282   4.738   2.177 -0.7796  1.5676 -0.1659
  308MOL0     H40653  11.184   4.713   2.325  0.6075 -0.2471 -0.9367
  308MOL0     H40654  11.273   4.311   2.248  3.2837  0.9465 -0.4600
  308MOL0     H40655  10.778   4.853   2.233 -1.5223 -1.1588 -1.0418
  308MOL0     H40656  10.570   4.863   2.330 -0.2339  1.7200  1.5652
  309MOL0     O40657   4.013   2.793   3.582  0.6526  0.2629  0.9214
  309MOL0     C40658   4.056   2.679   3.596 -0.1119 -0.0785  0.8852
  309MOL0     O40659   4.031   2.575   3.504  0.2056 -0.3998 -0.2212
  309MOL0     C40660   3.942   2.597   3.405 -0.4549 -0.8414 -0.9206
  309MOL0     C40661   3.970   2.694   3.305 -1.1144  0.6859 -0.5829
  309MOL0     C40662   3.884   2.703   3.199  2.1843 -0.0037  0.6112
  309MOL0     C40663   3.753   2.635   3.191 -0.7031 -0.1027  0.3790
  309MOL0     O40664   3.674   2.659   3.078 -1.1219  0.4173 -0.0664
  309MOL0     C40665   3.576   2.566   3.049  0.1958  0.1675  0.2090
  309MOL0     C40666   3.543   2.590   2.903  0.2219  0.3924  0.5661
  309MOL0     C40667   3.663   2.559   2.810 -0.1713  0.2718 -0.2145
  309MOL0     C40668   3.787   2.657   2.801  0.6306  0.4218  0.9904
  309MOL0     C40669   3.755   2.791   2.729 -0.6008 -0.6129  0.4453
  309MOL0     C40670   3.786   2.783   2.574  0.7694  0.5840 -0.1079
  309MOL0     C40671   3.739   2.915   2.505  0.3184  0.0402  0.9551
  309MOL0     C40672   3.851   3.009   2.530  0.3033  0.0453  0.6017
  309MOL0     N40673   3.835   3.136   2.606 -0.3025 -0.0742 -0.7060
  309MOL0     C40674   3.747   3.243   2.578 -0.9082  0.0258  0.1127
  309MOL0     C40675   3.773   3.336   2.672  0.2259 -0.6716 -0.0651
  309MOL0     C40676   3.698   3.468   2.704 -1.1018  0.4225  0.1175
  309MOL0     C40677   3.683   3.478   2.857  0.4704 -0.5011  0.3205
  309MOL0     C40678   3.574   3.575   2.897  0.8728 -0.8377 -0.1104
  309MOL0     C40679   3.558   3.573   3.046 -0.1986 -1.4359  0.4032
  309MOL0     O40680   3.426   3.615   3.089 -0.0353 -0.6760 -0.8533
  309MOL0     C40681   3.381   3.747   3.078 -0.2695  0.2703 -0.3607
  309MOL0     C40682   3.250   3.762   3.100  0.0406  0.4082  0.0159
  309MOL0     C40683   3.190   3.882   3.107 -1.1251 -0.3430  0.0106
  309MOL0     C40684   3.260   4.005   3.093 -0.1242  0.5081  0.7707
  309MOL0     C40685   3.186   4.136   3.089 -0.1806  0.1283  0.0922
  309MOL0     O40686   3.065   4.148   3.160 -0.0967  0.3713 -0.2625
  309MOL0     C40687   2.989   4.262   3.144 -0.2572  0.6213 -0.6612
  309MOL0     C40688   2.983   4.360   3.246 -0.8017 -0.0481 -0.1746
  309MOL0     C40689   2.906   4.471   3.217  0.0581  0.1549 -0.1994
  309MOL0     C40690   2.850   4.509   3.092 -0.2859  0.5595 -0.4835
  309MOL0     O40691   2.776   4.618   3.056  0.0547  1.2074  0.5376
  309MOL0     C40692   2.856   4.736   3.057 -0.8019 -0.4283  0.7962
  309MOL0     C40693   2.771   4.860   3.049  0.0037  0.7744  0.3100
  309MOL0     C40694   2.848   4.995   3.057 -0.8348  0.5731  0.0493
  309MOL0     C40695   2.913   5.027   3.195  0.2996 -0.3183 -0.1347
  309MOL0     C40696   3.001   5.151   3.185  0.2769 -0.2675  0.7396
  309MOL0     C40697   3.098   5.176   3.299 -0.1645  0.4602  0.1232
  309MOL0     C40698   3.163   5.309   3.273  0.6077  0.6542  0.0419
  309MOL0     C40699   3.281   5.333   3.373  0.3112 -0.5311 -0.0002
  309MOL0    Cl40700   3.371   5.487   3.334  0.1572  0.1881 -0.1604
  309MOL0     C40701   2.856   4.418   2.993  0.0798  0.3143  0.2977
  309MOL0     C40702   2.932   4.297   3.018 -0.2549 -0.3394 -0.4007
  309MOL0     O40703   3.242   4.228   3.030 -0.7871  0.9085  0.5335
  309MOL0     C40704   3.397   3.995   3.069  0.3385 -0.6340 -1.1387
  309MOL0     C40705   3.457   3.868   3.063  0.0511  0.2305 -0.2431
  309MOL0     N40706   3.876   3.290   2.744  0.9887  0.2909  0.4012
  309MOL0     N40707   3.911   3.168   2.718  0.1270 -0.4419 -1.1591
  309MOL0     C40708   3.733   2.550   3.297 -0.4775  0.4333  0.1214
  309MOL0     C40709   3.822   2.527   3.399 -0.9756 -0.7543 -0.4195
  309MOL0     C40710   4.145   2.666   3.713 -0.6351 -0.0579 -0.2777
  309MOL0     C40711   4.136   2.751   3.829  0.7168  0.4916 -0.4151
  309MOL0     C40712   4.235   2.749   3.931  0.6538 -0.2879  0.3429
  309MOL0     C40713   4.349   2.672   3.914 -0.3445 -0.3843  0.1100
  309MOL0     O40714   4.447   2.653   4.007 -0.6358  0.7674 -0.1925
  309MOL0     C40715   4.572   2.714   3.964  0.0227  0.0904  0.9691
  309MOL0     C40716   4.658   2.748   4.095 -0.2367  0.4603  0.5763
  309MOL0     C40717   4.633   2.893   4.147  0.7013 -0.8622  0.3471
  309MOL0     C40718   4.674   2.929   4.294  0.7415 -0.2754 -0.0641
  309MOL0     C40719   4.730   3.063   4.296 -0.1277 -0.7717  0.0621
  309MOL0     C40720   4.768   3.173   4.282 -0.1671  0.1351  0.3490
  309MOL0     C40721   4.363   2.591   3.798  1.0349 -0.4058  0.9183
  309MOL0     C40722   4.261   2.587   3.701 -0.0958  0.2824 -0.3199
  309MOL0     H40723   4.055   2.761   3.296 -1.7779  1.2515 -4.1665
  309MOL0     H40724   3.902   2.762   3.110 -0.3612  0.7461  0.5014
  309MOL0     H40725   3.492   2.590   3.115  1.5942 -0.7527  2.4238
  309MOL0     H40726   3.615   2.466   3.067  1.5001  0.1925 -2.1336
  309MOL0     H40727   3.532   2.698   2.887  2.0926  0.5569  0.2268
  309MOL0     H40728   3.443   2.550   2.883  0.6138 -0.7012  0.7333
  309MOL0     H40729   3.642   2.533   2.706  0.4448  0.2327 -0.3361
  309MOL0     H40730   3.697   2.468   2.860 -1.4831  0.0764  0.3584
  309MOL0     H40731   3.820   2.684   2.902  1.7639 -0.6167  0.9175
  309MOL0     H40732   3.872   2.616   2.747 -1.4314 -0.2592 -1.9788
  309MOL0     H40733   3.829   2.855   2.777  2.7481 -4.9899  1.9000
  309MOL0     H40734   3.652   2.824   2.743 -0.6575  0.6925 -2.3727
  309MOL0     H40735   3.726   2.701   2.534 -0.5268 -0.1782  3.0800
  309MOL0     H40736   3.888   2.757   2.545 -0.1805 -0.7911 -2.4644
  309MOL0     H40737   3.723   2.884   2.401  0.0054 -1.3162  1.3810
  309MOL0     H40738   3.639   2.954   2.524 -0.5397 -1.7813  0.4631
  309MOL0     H40739   3.889   3.025   2.428 -2.8578  3.5304 -0.2387
  309MOL0     H40740   3.941   2.958   2.565  1.2573  0.1818 -1.4593
  309MOL0     H40741   3.662   3.234   2.511 -2.5882 -3.0583  2.4233
  309MOL0     H40742   3.593   3.465   2.672 -1.0154 -0.2744 -0.1065
  309MOL0     H40743   3.753   3.552   2.662 -0.5384  0.2336  0.4647
  309MOL0     H40744   3.778   3.509   2.900  0.9944 -1.5762 -0.0482
  309MOL0     H40745   3.664   3.378   2.897  0.7622 -0.7945 -0.2666
  309MOL0     H40746   3.585   3.679   2.865 -1.7326 -0.3196  0.4229
  309MOL0     H40747   3.473   3.554   2.861 -0.5734  2.2250  1.6949
  309MOL0     H40748   3.622   3.652   3.085  1.3584 -1.4971 -1.8245
  309MOL0     H40749   3.583   3.476   3.090  1.9126 -0.6253  1.0943
  309MOL0     H40750   3.184   3.679   3.126  0.2310  0.7985  1.8630
  309MOL0     H40751   3.082   3.875   3.119 -1.4960  0.1482 -2.4729
  309MOL0     H40752   3.016   4.343   3.348 -0.0656  0.0111 -0.4005
  309MOL0     H40753   2.893   4.545   3.294 -0.6343  0.7853 -0.8963
  309MOL0     H40754   2.917   4.716   2.968 -0.7849 -0.4041  0.8025
  309MOL0     H40755   2.922   4.743   3.144 -2.6929 -0.6966  2.3142
  309MOL0     H40756   2.697   4.855   3.130  0.9130  1.1451  1.1893
  309MOL0     H40757   2.718   4.858   2.954  0.0183 -0.6171  0.3096
  309MOL0     H40758   2.772   5.072   3.037 -5.0414 -3.3948 -0.8135
  309MOL0     H40759   2.928   4.982   2.985  2.1495  0.4120  3.1508
  309MOL0     H40760   2.846   5.029   3.282  2.0175  0.9877  1.2191
  309MOL0     H40761   2.972   4.936   3.209 -0.4165 -0.8199 -0.3090
  309MOL0     H40762   2.931   5.234   3.174  2.3416  1.7573  2.1597
  309MOL0     H40763   3.062   5.153   3.094  2.8100  1.1681  2.3554
  309MOL0     H40764   3.169   5.094   3.285 -2.0336 -1.6217  2.0203
  309MOL0     H40765   3.060   5.177   3.402 -1.5531 -1.5571 -0.3185
  309MOL0     H40766   3.189   5.325   3.168 -0.0837  2.6003  0.1272
  309MOL0     H40767   3.085   5.379   3.304 -0.7420 -1.7482  2.4868
  309MOL0     H40768   3.358   5.257   3.354 -0.5486 -1.3576 -0.2927
  309MOL0     H40769   3.266   5.322   3.481  2.2820 -2.0427  0.1814
  309MOL0     H40770   2.801   4.424   2.900 -2.5908  0.4449  1.7882
  309MOL0     H40771   2.937   4.229   2.934 -0.6177 -0.6237 -0.1968
  309MOL0     H40772   3.460   4.084   3.075 -0.9254  0.4332 -2.8044
  309MOL0     H40773   3.565   3.864   3.057  0.1727  3.0835 -2.0528
  309MOL0     H40774   3.646   2.485   3.307 -3.2674  4.0141  1.6634
  309MOL0     H40775   3.790   2.461   3.479  0.6205  0.1670  1.0453
  309MOL0     H40776   4.055   2.823   3.842  0.8779  0.6681 -0.3943
  309MOL0     H40777   4.198   2.809   4.014  0.6343 -0.7627  0.6853
  309MOL0     H40778   4.550   2.812   3.922 -2.0021 -0.9750 -0.6147
  309MOL0     H40779   4.633   2.655   3.895 -0.3941  1.0386 -0.2419
  309MOL0     H40780   4.645   2.681   4.180 -1.5933 -0.5438 -0.3659
  309MOL0     H40781   4.758   2.734   4.053 -0.5720 -1.3857  0.3101
  309MOL0     H40782   4.528   2.924   4.138  1.3650  0.9984 -2.0969
  309MOL0     H40783   4.682   2.952   4.070  0.7269 -1.3322  0.0002
  309MOL0     H40784   4.597   2.925   4.371  1.3078  1.1541  0.6202
  309MOL0     H40785   4.754   2.858   4.320  0.6397  0.2085  1.6898
  309MOL0     H40786   4.812   3.270   4.273  1.6542 -0.8158 -2.0250
  309MOL0     H40787   4.457   2.545   3.771  0.1736 -0.9081 -1.5517
  309MOL0     H40788   4.296   2.540   3.609 -2.2164 -3.0231  0.3923
  310MOL0     O40789  11.023   9.930   5.196  0.1128 -0.4275 -0.5082
  310MOL0     C40790  10.992   9.961   5.307  0.9725 -0.8619 -0.1855
  310MOL0     O40791  11.072  10.032   5.394 -0.4624 -0.5158 -0.2165
  310MOL0     C40792  11.199  10.068   5.352  0.7883  0.4645 -0.0414
  310MOL0     C40793  11.220  10.202   5.328  0.3907  0.7458 -0.5447
  310MOL0     C40794  11.336  10.253   5.278 -0.0200  0.0620  0.2036
  310MOL0     C40795  11.451  10.177   5.255 -0.2072  0.7646  1.1311
  310MOL0     O40796  11.572  10.231   5.203  1.1125 -0.8805  0.9089
  310MOL0     C40797  11.560  10.297   5.075 -0.2051  0.1420 -0.1993
  310MOL0     C40798  11.670  10.401   5.063 -0.4049 -0.3945  0.2689
  310MOL0     C40799  11.653  10.498   4.946 -0.0601 -0.5121  0.2832
  310MOL0     C40800  11.604  10.442   4.810  0.2462  0.6462 -0.0172
  310MOL0     C40801  11.697  10.331   4.730  0.3468 -0.6951  0.0280
  310MOL0     C40802  11.837  10.388   4.711 -0.3890 -0.9747  0.2037
  310MOL0     C40803  11.933  10.301   4.629  0.1425  0.2187  0.8541
  310MOL0     C40804  12.069  10.350   4.617 -0.2763 -0.9733 -0.5622
  310MOL0     N40805  12.122  10.359   4.754  0.3894 -0.4126 -0.0211
  310MOL0     C40806  12.190  10.247   4.800  0.4073 -0.0397 -0.3289
  310MOL0     C40807  12.262  10.306   4.901 -0.8713  0.5092  0.7954
  310MOL0     C40808  12.368  10.233   4.970 -1.1458 -0.1283 -0.7356
  310MOL0     C40809  12.483  10.326   5.015  0.4279  0.2534  0.5300
  310MOL0     C40810  12.558  10.398   4.908 -0.1898 -0.0286 -0.0151
  310MOL0     C40811  12.691  10.444   4.970 -0.1145 -0.0400 -0.5982
  310MOL0     O40812  12.666  10.548   5.058 -0.2253 -0.4213  0.2207
  310MOL0     C40813  12.770  10.594   5.136  0.5014 -0.3421 -0.3405
  310MOL0     C40814  12.905  10.550   5.150 -0.6447  0.5705 -0.4242
  310MOL0     C40815  12.994  10.622   5.230 -0.4068 -0.4358 -0.0058
  310MOL0     C40816  12.945  10.738   5.295 -0.0891 -0.2462 -0.1695
  310MOL0     C40817  13.047  10.818   5.372 -0.4478 -0.7530 -0.0945
  310MOL0     O40818  13.176  10.785   5.383 -0.3446  0.1308  0.5058
  310MOL0     C40819  13.279  10.828   5.467  0.5656 -0.3442  0.3738
  310MOL0     C40820  13.254  10.900   5.587 -0.4183 -0.0398  0.2962
  310MOL0     C40821  13.358  10.956   5.662  0.1962 -0.8802 -0.3221
  310MOL0     C40822  13.491  10.941   5.626 -0.6936 -0.0356  0.5210
  310MOL0     O40823  13.600  10.982   5.699 -0.0899  0.2721  0.1122
  310MOL0     C40824  13.584  11.114   5.754 -0.7227  0.1407 -0.2689
  310MOL0     C40825  13.719  11.177   5.773 -0.2949 -0.7440 -0.9384
  310MOL0     C40826  13.825  11.109   5.877  0.6230  0.2545  0.3811
  310MOL0     C40827  13.870  10.968   5.853  1.2375 -0.5470  0.0169
  310MOL0     C40828  13.948  10.901   5.959 -0.8190 -0.0189 -0.7595
  310MOL0     C40829  14.008  10.769   5.917  0.0855  0.0759 -0.1129
  310MOL0     C40830  14.130  10.723   6.003  0.0216  0.3758  0.9928
  310MOL0     C40831  14.100  10.667   6.150  0.1771 -0.2483  0.2224
  310MOL0    Cl40832  14.163  10.505   6.178  0.2142 -0.3221  0.1985
  310MOL0     C40833  13.513  10.857   5.515  0.4443  0.3812  0.3015
  310MOL0     C40834  13.410  10.806   5.433 -0.3321 -0.6318  0.9620
  310MOL0     O40835  13.005  10.921   5.426 -0.2947 -0.0099  0.0473
  310MOL0     C40836  12.815  10.778   5.287  0.9575  0.0795  0.4122
  310MOL0     C40837  12.727  10.705   5.202  0.8610  0.2807  0.4644
  310MOL0     N40838  12.238  10.442   4.913 -0.1935  0.4774 -0.0076
  310MOL0     N40839  12.150  10.473   4.823 -0.0609 -0.4578  0.0848
  310MOL0     C40840  11.422  10.037   5.270 -0.1543 -0.0992 -0.8335
  310MOL0     C40841  11.302   9.982   5.322 -0.4477 -0.8381  0.7228
  310MOL0     C40842  10.867   9.909   5.356 -0.5197 -0.5030  0.7151
  310MOL0     C40843  10.761   9.866   5.272  0.6043  0.1457 -0.1546
  310MOL0     C40844  10.644   9.826   5.337 -0.1932 -0.2820  0.1060
  310MOL0     C40845  10.631   9.818   5.478  0.1203 -0.6790 -0.1079
  310MOL0     O40846  10.511   9.766   5.522  0.3092 -0.5928  0.7801
  310MOL0     C40847  10.506   9.703   5.640 -0.0265  0.2455 -0.5523
  310MOL0     C40848  10.401   9.596   5.640 -0.0096 -0.3228 -0.4914
  310MOL0     C40849  10.249   9.631   5.628  0.0595 -0.2942  0.3703
  310MOL0     C40850  10.198   9.641   5.488  0.1261 -0.9131  0.5462
  310MOL0     C40851  10.076   9.717   5.473 -0.0851 -0.2896  0.0878
  310MOL0     C40852   9.977   9.792   5.458 -0.7886  0.0002  1.1212
  310MOL0     C40853  10.739   9.865   5.558  0.2803  0.3266  1.0625
  310MOL0     C40854  10.857   9.897   5.493  0.1580 -0.4855 -0.2268
  310MOL0     H40855  11.149  10.275   5.366  1.4571  1.7682 -0.4644
  310MOL0     H40856  11.346  10.361   5.282 -0.2415  0.0318  3.2134
  310MOL0     H40857  11.459  10.337   5.060  0.1520  0.9546 -0.5019
  310MOL0     H40858  11.572  10.227   4.993 -2.8562  0.2330 -0.7701
  310MOL0     H40859  11.763  10.343   5.062 -0.6269 -0.7691 -1.0326
  310MOL0     H40860  11.675  10.456   5.157 -0.4944  1.6968 -0.8818
  310MOL0     H40861  11.740  10.561   4.930 -1.0560  0.4390 -1.6316
  310MOL0     H40862  11.579  10.575   4.968 -0.9399 -1.2963  0.1347
  310MOL0     H40863  11.504  10.402   4.825  1.1339 -0.6910  3.0140
  310MOL0     H40864  11.590  10.521   4.736  2.0013 -0.8467 -2.0878
  310MOL0     H40865  11.658  10.315   4.629 -1.3311  2.3719  0.0707
  310MOL0     H40866  11.678  10.237   4.783 -3.7225  0.3383  0.7477
  310MOL0     H40867  11.875  10.389   4.814 -0.4405 -2.4788  0.2590
  310MOL0     H40868  11.830  10.482   4.657  1.0260 -2.5365 -2.9455
  310MOL0     H40869  11.932  10.198   4.666 -0.5414 -1.7681 -3.8811
  310MOL0     H40870  11.903  10.292   4.524 -0.1947 -1.4084  1.0534
  310MOL0     H40871  12.068  10.451   4.575 -1.2720  0.0257  1.6877
  310MOL0     H40872  12.133  10.291   4.551  0.4206 -1.0926  0.2103
  310MOL0     H40873  12.193  10.144   4.766 -3.4663 -0.1579 -0.7163
  310MOL0     H40874  12.406  10.158   4.900 -1.1080 -2.7383  1.8895
  310MOL0     H40875  12.324  10.175   5.052  1.7089 -0.8675  0.3673
  310MOL0     H40876  12.544  10.265   5.082  3.4070  0.4475 -1.7926
  310MOL0     H40877  12.430  10.396   5.080  1.5638 -1.4096  3.4606
  310MOL0     H40878  12.571  10.330   4.823  0.5862 -1.2537  1.0471
  310MOL0     H40879  12.508  10.487   4.869 -0.3533  1.9624  4.2227
  310MOL0     H40880  12.746  10.473   4.880  1.1687 -2.0924 -0.5374
  310MOL0     H40881  12.739  10.362   5.024  1.5893  1.8540  0.9785
  310MOL0     H40882  12.936  10.463   5.094  0.3317  1.3094 -1.0590
  310MOL0     H40883  13.097  10.589   5.230 -0.7480 -1.5328 -0.3096
  310MOL0     H40884  13.158  10.919   5.633 -0.2424 -0.3046  0.7897
  310MOL0     H40885  13.346  11.018   5.751  2.8245  1.5285 -1.4787
  310MOL0     H40886  13.535  11.116   5.852 -2.4021 -0.6805 -1.0405
  310MOL0     H40887  13.518  11.171   5.688 -0.4084  0.4236 -0.3401
  310MOL0     H40888  13.715  11.282   5.805  0.2814 -1.9433  3.9599
  310MOL0     H40889  13.755  11.174   5.670 -0.7480 -1.3677 -1.0861
  310MOL0     H40890  13.775  11.119   5.974  0.3837  1.3032  0.1665
  310MOL0     H40891  13.916  11.169   5.880  3.0762 -2.8645 -3.1351
  310MOL0     H40892  13.788  10.898   5.837  2.2082 -0.9018 -5.0842
  310MOL0     H40893  13.929  10.973   5.761  0.5673 -0.3118 -0.4024
  310MOL0     H40894  13.905  10.880   6.057  0.6199  0.1272 -0.0630
  310MOL0     H40895  14.032  10.968   5.982 -0.6549 -1.0799  2.1228
  310MOL0     H40896  14.051  10.785   5.818  0.6631 -0.2280  0.0841
  310MOL0     H40897  13.934  10.689   5.911 -1.5265  1.0826  3.5072
  310MOL0     H40898  14.179  10.652   5.936  2.5499 -0.7651  3.8078
  310MOL0     H40899  14.199  10.808   6.007 -1.4714  1.5854  3.3610
  310MOL0     H40900  13.997  10.685   6.181  0.6600  2.0613  0.6951
  310MOL0     H40901  14.153  10.736   6.216 -1.3338 -0.4091  1.6754
  310MOL0     H40902  13.617  10.847   5.484  0.5659 -3.1058  1.3773
  310MOL0     H40903  13.431  10.754   5.340 -4.0526  0.6861 -0.8150
  310MOL0     H40904  12.757  10.852   5.342 -4.0934  1.3421 -5.4929
  310MOL0     H40905  12.624  10.740   5.203  1.4232  2.0342  0.2416
  310MOL0     H40906  11.504   9.967   5.253  0.9878  0.9524  0.1097
  310MOL0     H40907  11.301   9.877   5.348 -1.1916 -0.6887  1.3385
  310MOL0     H40908  10.775   9.882   5.166 -1.9188  1.5146 -0.3548
  310MOL0     H40909  10.568   9.786   5.271 -0.6094  2.9842 -1.6416
  310MOL0     H40910  10.492   9.782   5.714  0.1568  0.6997 -0.9939
  310MOL0     H40911  10.602   9.651   5.654 -0.7840 -0.9991  0.2676
  310MOL0     H40912  10.420   9.535   5.551 -0.1661  0.6394 -1.1958
  310MOL0     H40913  10.416   9.529   5.725 -0.8445 -1.3040 -1.0796
  310MOL0     H40914  10.245   9.725   5.683  1.8853  1.1431 -1.7460
  310MOL0     H40915  10.192   9.556   5.682 -2.3068  0.6794 -0.6500
  310MOL0     H40916  10.276   9.684   5.423 -1.9513 -0.2606 -1.6709
  310MOL0     H40917  10.183   9.546   5.437 -1.1079 -1.1429  1.3090
  310MOL0     H40918   9.884   9.838   5.431 -0.9789 -1.9656 -1.9751
  310MOL0     H40919  10.741   9.861   5.667  3.2555 -1.4284  1.0559
  310MOL0     H40920  10.934   9.943   5.555  0.6923  1.5659 -2.2242
  311MOL0     O40921   8.879   4.074   2.552 -0.9379 -0.3656  0.2850
  311MOL0     C40922   8.969   3.991   2.574  0.4973 -0.3267  0.6329
  311MOL0     O40923   8.990   3.881   2.504  0.2584  0.3988 -0.2972
  311MOL0     C40924   8.905   3.858   2.393  0.5282 -0.5797  0.1466
  311MOL0     C40925   8.776   3.815   2.400 -0.5779  0.0834  0.0967
  311MOL0     C40926   8.706   3.787   2.282  0.0007 -0.7119 -0.5914
  311MOL0     C40927   8.754   3.816   2.152  0.2729 -0.3570  0.9776
  311MOL0     O40928   8.671   3.792   2.043 -0.4316 -0.5215 -0.1259
  311MOL0     C40929   8.726   3.834   1.908 -0.6071  0.4705 -0.0615
  311MOL0     C40930   8.819   3.738   1.836 -1.2736 -0.0296 -0.4652
  311MOL0     C40931   8.747   3.618   1.775 -0.3540 -1.1469  0.6281
  311MOL0     C40932   8.818   3.553   1.667 -0.9721  0.3298  0.5075
  311MOL0     C40933   8.805   3.619   1.529 -0.1368  0.6341  0.5275
  311MOL0     C40934   8.892   3.549   1.428  0.1826  0.0056 -0.1379
  311MOL0     C40935   9.022   3.626   1.401  0.0034 -0.8191  0.9924
  311MOL0     C40936   9.109   3.554   1.300  0.1728  0.6970  0.8179
  311MOL0     N40937   9.059   3.584   1.167 -0.4691  0.7251  0.3136
  311MOL0     C40938   9.043   3.712   1.109 -0.6533  0.1778  0.2487
  311MOL0     C40939   8.985   3.691   0.987  0.8381  0.6430  0.6693
  311MOL0     C40940   8.963   3.786   0.872 -0.1792 -0.1362  0.1896
  311MOL0     C40941   9.009   3.718   0.744 -0.8651  0.1548  0.6700
  311MOL0     C40942   9.049   3.824   0.633 -0.2553  0.2003 -0.8380
  311MOL0     C40943   8.943   3.928   0.621 -0.7847 -0.8956  0.1965
  311MOL0     O40944   8.823   3.867   0.582 -0.1505  0.1782 -0.0132
  311MOL0     C40945   8.729   3.932   0.500 -0.4803 -1.0529 -0.7518
  311MOL0     C40946   8.718   4.073   0.511 -0.2551 -0.6575 -0.2900
  311MOL0     C40947   8.609   4.126   0.440  0.4327  0.2558 -0.2732
  311MOL0     C40948   8.530   4.054   0.349  0.2410  0.5881 -0.4401
  311MOL0     C40949   8.414   4.121   0.279  0.5585 -0.5157  0.1915
  311MOL0     O40950   8.388   4.250   0.288 -0.4758  0.8951  0.4875
  311MOL0     C40951   8.263   4.291   0.250 -0.6153 -0.6898  0.1805
  311MOL0     C40952   8.249   4.347   0.121 -0.1227  0.3201 -0.2490
  311MOL0     C40953   8.134   4.414   0.085  0.4830  0.8949 -0.1089
  311MOL0     C40954   8.030   4.430   0.175 -0.7387  0.3171  0.1521
  311MOL0     O40955   7.933   4.514   0.145  0.7420  0.1034  0.1455
  311MOL0     C40956   7.799   4.484   0.208  0.2121  0.2057  0.0022
  311MOL0     C40957   7.721   4.601   0.153 -0.5327  0.3329  0.8005
  311MOL0     C40958   7.702   4.608  -0.003 -0.5111  0.1342  0.2773
  311MOL0     C40959   7.629   4.480  -0.059  0.5250 -0.4598  0.2238
  311MOL0     C40960   7.585   4.491  -0.208 -0.7156  0.0528  1.1974
  311MOL0     C40961   7.716   4.502  -0.295  0.6445  0.3631  0.4241
  311MOL0     C40962   7.822   4.388  -0.277  0.3931  1.5151 -0.4871
  311MOL0     C40963   7.935   4.379  -0.380 -0.3280 -0.4488 -0.5115
  311MOL0    Cl40964   8.042   4.523  -0.382  0.3197 -0.2754  0.0907
  311MOL0     C40965   8.042   4.368   0.300  0.8121  0.0806  0.5626
  311MOL0     C40966   8.155   4.308   0.340  0.8226  0.3510 -0.3264
  311MOL0     O40967   8.335   4.037   0.230  0.1040 -0.1633 -0.5550
  311MOL0     C40968   8.558   3.912   0.322  0.8969  0.1696  0.0356
  311MOL0     C40969   8.651   3.852   0.408 -0.0497 -0.2004 -0.1031
  311MOL0     N40970   8.966   3.545   0.978 -0.9832 -0.6067 -0.2266
  311MOL0     N40971   9.014   3.489   1.080 -0.3275  0.0653  0.2916
  311MOL0     C40972   8.891   3.856   2.139 -0.0017  0.6028  0.3325
  311MOL0     C40973   8.962   3.885   2.257  0.4260 -0.1817 -0.6082
  311MOL0     C40974   9.044   4.019   2.694  0.2930  0.3413 -0.0202
  311MOL0     C40975   9.049   4.140   2.767  0.0699  0.7234 -0.0050
  311MOL0     C40976   9.143   4.164   2.869  1.3020  0.2680  1.2557
  311MOL0     C40977   9.218   4.064   2.920  0.4992 -1.0706  0.1054
  311MOL0     O40978   9.301   4.072   3.028  0.4514 -1.0730 -0.3887
  311MOL0     C40979   9.276   4.160   3.134 -0.2269 -0.3027 -1.3537
  311MOL0     C40980   9.296   4.090   3.274  0.1441 -0.4035  0.8156
  311MOL0     C40981   9.192   3.984   3.303  0.1869  0.4791 -1.3383
  311MOL0     C40982   9.245   3.884   3.407  0.9273 -0.2473 -0.1159
  311MOL0     C40983   9.190   3.741   3.403  0.7164 -0.0910  0.0038
  311MOL0     C40984   9.170   3.620   3.399  0.1347 -0.0795  0.2310
  311MOL0     C40985   9.204   3.940   2.860  0.4674 -1.1277  0.2416
  311MOL0     C40986   9.128   3.916   2.740 -0.1694  0.3090  0.2991
  311MOL0     H40987   8.719   3.814   2.493  2.4929 -1.6191  2.1613
  311MOL0     H40988   8.601   3.765   2.297 -0.1817 -0.1737 -1.0494
  311MOL0     H40989   8.762   3.937   1.913 -2.8366  1.3251 -0.5476
  311MOL0     H40990   8.634   3.839   1.850 -1.9429 -2.2100  1.6356
  311MOL0     H40991   8.887   3.696   1.910 -2.4651  0.0509  0.7191
  311MOL0     H40992   8.876   3.790   1.758  1.8822  0.6253  2.0822
  311MOL0     H40993   8.646   3.647   1.746 -1.3766  0.7846  5.1537
  311MOL0     H40994   8.726   3.550   1.858 -0.7442  0.6491  2.0780
  311MOL0     H40995   8.925   3.555   1.692 -0.0408 -0.1872 -2.9132
  311MOL0     H40996   8.792   3.447   1.657 -0.8898  0.5095 -2.6549
  311MOL0     H40997   8.832   3.724   1.541  0.3158  0.5191  0.5352
  311MOL0     H40998   8.701   3.612   1.497 -1.2896  1.9121  3.6137
  311MOL0     H40999   8.831   3.563   1.338 -0.0235 -0.1272 -0.0197
  311MOL0     H41000   8.900   3.443   1.451  3.3105  0.0421 -0.6839
  311MOL0     H41001   9.000   3.732   1.385  1.5973 -0.3683  1.6654
  311MOL0     H41002   9.090   3.623   1.486  0.0463 -1.9858  0.9431
  311MOL0     H41003   9.085   3.451   1.327 -1.9044  0.8819 -0.0997
  311MOL0     H41004   9.216   3.575   1.301  0.5302 -0.4068 -2.3286
  311MOL0     H41005   9.085   3.800   1.157  4.1877 -1.2583 -0.7801
  311MOL0     H41006   9.017   3.877   0.898 -4.4985  2.6676  0.2682
  311MOL0     H41007   8.861   3.815   0.846  0.0187  3.5682  2.7567
  311MOL0     H41008   8.928   3.657   0.703  0.4207 -0.4840 -1.0292
  311MOL0     H41009   9.101   3.663   0.762 -0.1853  0.2880 -2.0583
  311MOL0     H41010   9.137   3.882   0.663 -0.5148  1.4213 -2.3782
  311MOL0     H41011   9.072   3.768   0.542  0.7612 -0.1810 -0.3674
  311MOL0     H41012   8.979   3.993   0.541  0.3462 -2.3960 -0.5706
  311MOL0     H41013   8.928   3.993   0.708 -5.6543 -0.6079 -0.5559
  311MOL0     H41014   8.780   4.131   0.579 -2.2228  3.2229 -1.5455
  311MOL0     H41015   8.592   4.233   0.450  0.9077  0.2959  0.1282
  311MOL0     H41016   8.332   4.330   0.052  0.0310 -3.4601  0.6350
  311MOL0     H41017   8.118   4.463  -0.011 -2.4789 -0.9992 -0.7353
  311MOL0     H41018   7.797   4.478   0.317  0.1842 -3.3332 -0.0712
  311MOL0     H41019   7.753   4.390   0.177  0.7154 -0.3718  0.9598
  311MOL0     H41020   7.765   4.695   0.188  0.8575 -0.2353  0.6334
  311MOL0     H41021   7.618   4.612   0.190 -0.5576 -0.4274  0.9610
  311MOL0     H41022   7.803   4.618  -0.043 -1.7397  0.2892 -3.1264
  311MOL0     H41023   7.635   4.690  -0.030  2.4965  1.9365 -2.4800
  311MOL0     H41024   7.695   4.395  -0.037 -0.5628 -1.1810  0.7368
  311MOL0     H41025   7.544   4.473   0.009  0.2315 -4.1831 -0.3378
  311MOL0     H41026   7.521   4.573  -0.241 -0.5086 -0.6790 -1.2466
  311MOL0     H41027   7.529   4.400  -0.232  0.1660 -0.4744  1.0862
  311MOL0     H41028   7.761   4.600  -0.277  2.3782 -0.5079  1.0825
  311MOL0     H41029   7.690   4.485  -0.400  0.1058  0.2752  0.5718
  311MOL0     H41030   7.858   4.406  -0.175 -2.3076  2.0636  0.4324
  311MOL0     H41031   7.761   4.297  -0.279 -1.9500  2.9846  0.6366
  311MOL0     H41032   7.896   4.376  -0.482  0.7224 -0.6640 -0.9236
  311MOL0     H41033   8.006   4.299  -0.356 -0.1018 -0.4472 -1.1502
  311MOL0     H41034   7.965   4.393   0.372  0.1502  1.6915 -0.6235
  311MOL0     H41035   8.176   4.292   0.445  4.0486  2.3444 -0.5432
  311MOL0     H41036   8.508   3.851   0.248 -0.5931  2.9758 -1.4042
  311MOL0     H41037   8.662   3.745   0.425  1.3795  0.1141  1.2050
  311MOL0     H41038   8.944   3.863   2.044  0.0425 -0.3421  0.2846
  311MOL0     H41039   9.069   3.901   2.255  0.1051  2.8664  0.5246
  311MOL0     H41040   8.996   4.232   2.745  0.8107  1.6888  1.9452
  311MOL0     H41041   9.156   4.263   2.912 -0.6366 -0.2001  3.0898
  311MOL0     H41042   9.173   4.195   3.122 -0.2639  1.6897  3.0108
  311MOL0     H41043   9.342   4.247   3.128 -1.3591  0.6716 -0.1312
  311MOL0     H41044   9.399   4.054   3.271 -0.0206 -0.8297 -1.1896
  311MOL0     H41045   9.292   4.170   3.348  0.3321 -1.8015  2.3948
  311MOL0     H41046   9.177   3.927   3.212 -1.5702  0.1033 -0.8413
  311MOL0     H41047   9.098   4.028   3.338  0.4743  1.0895 -1.3123
  311MOL0     H41048   9.352   3.884   3.386  1.1240 -1.9996  0.6614
  311MOL0     H41049   9.217   3.932   3.501 -1.6959 -1.8551  0.0447
  311MOL0     H41050   9.156   3.514   3.405 -0.6225 -0.0507 -0.7210
  311MOL0     H41051   9.284   3.876   2.897  0.9157 -0.7979 -0.1448
  311MOL0     H41052   9.144   3.814   2.704 -1.8873 -0.8796  2.6263
  312MOL0     O41053   3.476   5.149  10.651  0.1861 -0.0926  0.8370
  312MOL0     C41054   3.462   5.186  10.534  0.5968  0.6052 -0.2206
  312MOL0     O41055   3.489   5.314  10.485  0.2252 -0.2477  0.2591
  312MOL0     C41056   3.538   5.411  10.562 -0.1325 -0.5898 -1.2578
  312MOL0     C41057   3.503   5.433  10.696 -0.0524 -0.7352  0.2115
  312MOL0     C41058   3.558   5.538  10.772 -0.3736  0.1556  0.8635
  312MOL0     C41059   3.649   5.627  10.712 -0.1998 -0.5263  0.8539
  312MOL0     O41060   3.712   5.734  10.769  0.1883 -0.8628 -0.5173
  312MOL0     C41061   3.722   5.730  10.915  0.8893 -0.1348  1.0166
  312MOL0     C41062   3.790   5.863  10.951 -0.3844  0.1321 -0.3612
  312MOL0     C41063   3.700   5.986  10.943  0.6375 -0.0304  0.5019
  312MOL0     C41064   3.793   6.110  10.971 -0.5700  0.5084  0.2783
  312MOL0     C41065   3.731   6.243  10.938  0.0464  0.0454  0.3267
  312MOL0     C41066   3.793   6.359  11.006 -0.1546  0.7558  0.3158
  312MOL0     C41067   3.739   6.495  10.961  0.6546  0.2008 -0.0951
  312MOL0     C41068   3.837   6.608  10.984  0.6740  0.0055  0.8810
  312MOL0     N41069   3.797   6.743  10.952  0.2752  0.1535  0.7650
  312MOL0     C41070   3.751   6.789  10.836 -0.5950  0.5290  0.1949
  312MOL0     C41071   3.733   6.920  10.852  0.8629  0.0791 -0.0843
  312MOL0     C41072   3.681   7.018  10.755 -0.2851  0.5269  0.4420
  312MOL0     C41073   3.529   7.044  10.755  0.6232  0.1118 -0.3387
  312MOL0     C41074   3.447   6.970  10.655  0.1921  0.1667 -0.1697
  312MOL0     C41075   3.447   6.816  10.666 -1.0802 -0.6393  0.1127
  312MOL0     O41076   3.391   6.777  10.795  0.3849 -0.1895 -0.0514
  312MOL0     C41077   3.388   6.639  10.819 -0.1117 -0.6216 -0.0756
  312MOL0     C41078   3.443   6.544  10.738  1.2795 -0.2107  0.0192
  312MOL0     C41079   3.434   6.409  10.767 -0.2793  0.1081  0.3238
  312MOL0     C41080   3.369   6.362  10.881  0.1870 -0.4038 -0.4004
  312MOL0     C41081   3.351   6.224  10.917 -0.5282 -0.1070  0.2713
  312MOL0     O41082   3.356   6.138  10.809  0.1299  0.3261 -0.0002
  312MOL0     C41083   3.308   6.006  10.810  0.1494  0.0394 -0.9271
  312MOL0     C41084   3.359   5.915  10.715 -0.6553  0.8338 -0.4966
  312MOL0     C41085   3.296   5.791  10.692 -2.1098 -0.1732  0.4582
  312MOL0     C41086   3.200   5.752  10.772  0.6777  1.2518  0.6362
  312MOL0     O41087   3.150   5.627  10.742  0.4016  0.4768  0.3301
  312MOL0     C41088   3.018   5.582  10.768  0.0458 -0.0673 -0.0772
  312MOL0     C41089   2.995   5.452  10.690  0.1885 -0.1460 -0.4697
  312MOL0     C41090   3.080   5.335  10.728  0.0458 -0.9872  0.1164
  312MOL0     C41091   3.066   5.205  10.642 -0.1941  0.6480 -0.0284
  312MOL0     C41092   2.925   5.146  10.654  0.9564  0.3347  0.3653
  312MOL0     C41093   2.917   4.993  10.609  0.6650  1.0588 -0.2592
  312MOL0     C41094   2.790   4.933  10.672  0.5849 -0.3960 -0.9085
  312MOL0     C41095   2.772   4.794  10.621 -0.5512  0.5434 -0.1999
  312MOL0    Cl41096   2.892   4.683  10.696  0.2525  0.5367 -0.4080
  312MOL0     C41097   3.136   5.835  10.868  0.1502 -0.4203 -0.3842
  312MOL0     C41098   3.194   5.962  10.873 -0.0127  0.4393 -0.4777
  312MOL0     O41099   3.305   6.197  11.029  0.9762 -0.4120  0.8229
  312MOL0     C41100   3.327   6.465  10.967  0.9943  0.4517  0.7653
  312MOL0     C41101   3.333   6.604  10.941  0.0038  0.4055 -0.0492
  312MOL0     N41102   3.752   6.952  10.983  0.5799 -0.9662 -0.6802
  312MOL0     N41103   3.782   6.844  11.042  0.4900  0.0498  0.0569
  312MOL0     C41104   3.690   5.604  10.579  0.7407  0.2853  0.1634
  312MOL0     C41105   3.640   5.499  10.506 -0.7223  0.4005 -0.7351
  312MOL0     C41106   3.384   5.099  10.450  0.6430 -0.2129 -0.2101
  312MOL0     C41107   3.390   5.112  10.305  0.4778  0.4349  0.2538
  312MOL0     C41108   3.312   5.027  10.227  0.0508 -0.2260  0.2912
  312MOL0     C41109   3.226   4.926  10.273  1.0226  0.9207 -0.5104
  312MOL0     O41110   3.157   4.833  10.198 -0.8226  0.6372 -0.6257
  312MOL0     C41111   3.184   4.834  10.048 -0.0927 -0.0904  0.9536
  312MOL0     C41112   3.130   4.703   9.971  0.0593 -0.3054  0.0061
  312MOL0     C41113   3.233   4.599   9.997  0.4181  0.3473 -0.2039
  312MOL0     C41114   3.183   4.464   9.952 -0.0718 -0.0036  0.0219
  312MOL0     C41115   3.139   4.468   9.810 -1.1838  0.4143 -0.0106
  312MOL0     C41116   3.117   4.484   9.689 -0.3497 -0.0689 -0.0584
  312MOL0     C41117   3.223   4.909  10.414 -0.4769 -0.2170  0.0484
  312MOL0     C41118   3.302   4.991  10.495  0.3074  0.2574 -0.3721
  312MOL0     H41119   3.439   5.366  10.750 -1.1856 -2.5062 -3.0468
  312MOL0     H41120   3.523   5.556  10.873  2.8660  2.0453  1.7783
  312MOL0     H41121   3.779   5.641  10.942 -1.7271 -3.3279 -2.8292
  312MOL0     H41122   3.623   5.722  10.961 -0.6814 -3.9417 -2.4071
  312MOL0     H41123   3.867   5.865  10.874 -0.4481 -0.6926 -0.4574
  312MOL0     H41124   3.827   5.849  11.053  0.5175 -0.0361 -0.7025
  312MOL0     H41125   3.611   5.986  11.007 -0.8447 -2.7884 -1.3504
  312MOL0     H41126   3.669   5.993  10.839  0.7915 -1.1349  0.3755
  312MOL0     H41127   3.827   6.110  11.075  2.0660 -0.9595 -0.4944
  312MOL0     H41128   3.887   6.107  10.914  0.0349 -0.1446  1.2608
  312MOL0     H41129   3.623   6.258  10.946  0.3369  3.4824 -0.4952
  312MOL0     H41130   3.754   6.245  10.831 -3.1421 -3.8317 -0.6734
  312MOL0     H41131   3.900   6.348  10.985 -0.1875 -2.5152  1.3883
  312MOL0     H41132   3.777   6.356  11.114  0.7865  3.6889  0.6320
  312MOL0     H41133   3.710   6.494  10.856  3.9258 -1.6790 -1.1409
  312MOL0     H41134   3.645   6.509  11.015  0.7747  3.1561 -0.5152
  312MOL0     H41135   3.928   6.577  10.930  1.1377  0.8540  1.1606
  312MOL0     H41136   3.861   6.592  11.089 -2.3778  2.5873  2.1283
  312MOL0     H41137   3.769   6.742  10.740  0.4838 -0.5245  0.8794
  312MOL0     H41138   3.711   6.988  10.654  0.7735 -1.4098  1.2844
  312MOL0     H41139   3.722   7.117  10.779 -0.5979  0.8138 -0.1607
  312MOL0     H41140   3.523   7.153  10.746  2.6781  0.2940  0.0034
  312MOL0     H41141   3.481   7.020  10.851  0.9238 -0.3263 -0.2935
  312MOL0     H41142   3.346   7.005  10.676  1.2813  2.2144  2.2500
  312MOL0     H41143   3.483   6.996  10.555  0.9553  1.6720  0.4624
  312MOL0     H41144   3.550   6.781  10.650  0.3654  3.8002 -1.8707
  312MOL0     H41145   3.395   6.763  10.585  1.2575 -1.4631 -0.9414
  312MOL0     H41146   3.502   6.556  10.647  0.8162  3.2832  0.0635
  312MOL0     H41147   3.473   6.338  10.694 -0.3369  2.0419 -1.7081
  312MOL0     H41148   3.450   5.934  10.658  0.6588  0.7761  1.4668
  312MOL0     H41149   3.319   5.715  10.618 -1.8825  0.8998 -0.6147
  312MOL0     H41150   2.940   5.657  10.754 -0.2890 -0.3281  0.3745
  312MOL0     H41151   3.007   5.570  10.876 -0.3780  0.6337 -0.0374
  312MOL0     H41152   3.001   5.485  10.586  1.6066  0.0841 -0.3281
  312MOL0     H41153   2.892   5.420  10.711  1.3483 -4.0815 -0.0602
  312MOL0     H41154   3.056   5.315  10.833 -0.5212 -0.8349  0.0189
  312MOL0     H41155   3.184   5.366  10.711 -0.5928  0.6957 -0.8947
  312MOL0     H41156   3.089   5.216  10.536 -0.3908 -0.8602 -0.2461
  312MOL0     H41157   3.130   5.129  10.688  0.7618  0.5465 -1.4781
  312MOL0     H41158   2.846   5.209  10.613  1.8151  1.9939  1.1736
  312MOL0     H41159   2.888   5.145  10.757  0.1349  1.0448  0.0867
  312MOL0     H41160   3.006   4.944  10.650  1.4157  2.3927 -0.2258
  312MOL0     H41161   2.914   4.989  10.500 -2.3879  1.7553 -0.2700
  312MOL0     H41162   2.803   4.926  10.781  0.8457  1.4011 -0.7817
  312MOL0     H41163   2.694   4.985  10.665  0.5629  0.1343  2.0025
  312MOL0     H41164   2.787   4.779  10.514  1.4980  0.4873  0.0528
  312MOL0     H41165   2.670   4.761  10.640 -0.4425 -0.3744 -1.0725
  312MOL0     H41166   3.042   5.817  10.920  0.0364  2.6505  0.6567
  312MOL0     H41167   3.142   6.026  10.943 -0.8485  0.6509 -1.2650
  312MOL0     H41168   3.276   6.441  11.060 -1.7529  0.6625 -0.5601
  312MOL0     H41169   3.283   6.673  11.008 -0.6302 -1.6005  1.6551
  312MOL0     H41170   3.763   5.662  10.523  0.8105  0.8416  0.8226
  312MOL0     H41171   3.677   5.492  10.404  0.9967  0.3749 -0.1263
  312MOL0     H41172   3.443   5.184  10.243 -1.0177  1.5615  0.2126
  312MOL0     H41173   3.326   5.050  10.122 -0.3251 -1.1360  0.0277
  312MOL0     H41174   3.290   4.855  10.027 -0.1162 -0.5666  0.3256
  312MOL0     H41175   3.123   4.915  10.006  2.1091  2.6463  2.6707
  312MOL0     H41176   3.030   4.679  10.007 -0.4163  1.5191  0.0179
  312MOL0     H41177   3.117   4.719   9.863  1.5308 -1.0140 -0.3102
  312MOL0     H41178   3.266   4.593  10.101  0.2580  1.2035 -0.0947
  312MOL0     H41179   3.320   4.623   9.936 -0.4989 -2.7336 -3.0539
  312MOL0     H41180   3.265   4.391   9.960 -0.2276 -0.2321 -0.3848
  312MOL0     H41181   3.105   4.439  10.024  1.6204  0.0122  1.9297
  312MOL0     H41182   3.106   4.497   9.583 -2.1378  2.3513  0.3472
  312MOL0     H41183   3.152   4.842  10.463 -2.9038  1.7509 -0.6018
  312MOL0     H41184   3.303   4.966  10.600  1.7072  1.0428 -0.1755
  313MOL0     O41185   8.783   9.201  10.395 -0.7695 -0.9102 -0.1598
  313MOL0     C41186   8.692   9.124  10.355  0.0940  0.2898  0.3072
  313MOL0     O41187   8.567   9.161  10.312  0.1602 -0.4169  0.1412
  313MOL0     C41188   8.516   9.294  10.318  0.0104  0.6913  0.9247
  313MOL0     C41189   8.555   9.379  10.417  0.1588 -0.8234 -0.1792
  313MOL0     C41190   8.480   9.504  10.425 -0.0294 -0.7341  0.0804
  313MOL0     C41191   8.377   9.540  10.331  0.7184  0.7458 -0.2919
  313MOL0     O41192   8.335   9.675  10.326 -0.0213 -0.3144 -0.1173
  313MOL0     C41193   8.244   9.743  10.236 -0.9812 -0.5905 -0.5146
  313MOL0     C41194   8.240   9.895  10.283  0.1646  0.9042  0.7182
  313MOL0     C41195   8.109   9.932  10.337  0.5493  0.4610 -0.0003
  313MOL0     C41196   8.127  10.072  10.410  0.4871  0.5604 -0.4720
  313MOL0     C41197   7.999  10.094  10.479 -0.5470  0.8814 -1.1206
  313MOL0     C41198   7.984  10.214  10.566  0.4288 -0.1522 -0.3876
  313MOL0     C41199   7.852  10.242  10.642  0.1316 -0.1021 -0.0427
  313MOL0     C41200   7.741  10.260  10.539  0.3156  0.1693  0.3490
  313MOL0     N41201   7.616  10.290  10.603  0.3067  0.5383 -0.2114
  313MOL0     C41202   7.557  10.193  10.690  0.1818  0.1901  0.2761
  313MOL0     C41203   7.429  10.217  10.688  0.3890  0.3165 -0.2608
  313MOL0     C41204   7.328  10.143  10.765  0.2016 -0.4915  0.4643
  313MOL0     C41205   7.191  10.200  10.774 -0.2714 -0.5532  0.3328
  313MOL0     C41206   7.110  10.159  10.889 -0.1883 -0.1084  0.3233
  313MOL0     C41207   6.970  10.221  10.888 -0.4986  0.9402  0.1128
  313MOL0     O41208   6.886  10.109  10.921 -0.5850  0.3768  0.9968
  313MOL0     C41209   6.832  10.080  11.039 -0.4701  0.0812 -0.2273
  313MOL0     C41210   6.737   9.977  11.032 -0.2957  0.1725 -0.9018
  313MOL0     C41211   6.671   9.936  11.147 -0.0012  0.4420  1.0103
  313MOL0     C41212   6.710   9.978  11.272  0.9703 -0.6169 -0.5184
  313MOL0     C41213   6.663   9.909  11.394 -0.4913  0.1034  0.9096
  313MOL0     O41214   6.565   9.811  11.379 -0.7547  1.1020  0.5417
  313MOL0     C41215   6.522   9.744  11.491 -0.5930  0.7449  1.0021
  313MOL0     C41216   6.577   9.632  11.532  0.2887  0.5511  0.3823
  313MOL0     C41217   6.532   9.561  11.649 -0.2772  0.5452  0.2644
  313MOL0     C41218   6.450   9.625  11.734  0.0152  0.3487  0.0208
  313MOL0     O41219   6.392   9.564  11.849 -0.7057 -0.0726  0.9739
  313MOL0     C41220   6.450   9.436  11.893 -0.6203 -0.6574  0.0898
  313MOL0     C41221   6.374   9.325  11.818  0.1027  1.2525 -0.4217
  313MOL0     C41222   6.445   9.186  11.818  0.1714  0.1884 -0.7213
  313MOL0     C41223   6.442   9.134  11.955 -0.3140 -0.0227  0.3436
  313MOL0     C41224   6.545   9.022  11.976  0.3645 -0.9980  0.0348
  313MOL0     C41225   6.528   8.962  12.110 -0.4035 -0.2653 -0.4358
  313MOL0     C41226   6.635   8.867  12.135 -0.2743  0.0918 -1.0220
  313MOL0     C41227   6.609   8.764  12.247  0.0199  1.0088 -0.5022
  313MOL0    Cl41228   6.571   8.849  12.402 -0.4022  0.0009  0.5986
  313MOL0     C41229   6.391   9.754  11.693  1.0342  0.3018  0.0582
  313MOL0     C41230   6.428   9.808  11.569  0.3893 -0.5280 -0.2233
  313MOL0     O41231   6.720   9.935  11.497 -0.8158  0.4678 -0.2496
  313MOL0     C41232   6.809  10.076  11.270  0.4373  0.0544 -1.3736
  313MOL0     C41233   6.877  10.121  11.162 -0.2332 -0.4051 -0.9035
  313MOL0     N41234   7.405  10.323  10.612 -0.0185 -0.5077  0.8642
  313MOL0     N41235   7.517  10.366  10.557  0.1324  0.3731  0.6432
  313MOL0     C41236   8.341   9.450  10.228 -0.2003 -0.1409  0.4111
  313MOL0     C41237   8.412   9.320  10.226 -0.3345 -0.1906  0.2457
  313MOL0     C41238   8.707   8.982  10.375  0.2752 -0.5818 -0.1970
  313MOL0     C41239   8.606   8.885  10.419 -0.1444 -0.2109 -1.0691
  313MOL0     C41240   8.642   8.750  10.435 -0.2614 -0.5309 -0.0587
  313MOL0     C41241   8.767   8.701  10.386 -0.0179 -0.3202  0.0469
  313MOL0     O41242   8.802   8.566  10.405  0.2071 -1.0992  0.2048
  313MOL0     C41243   8.844   8.500  10.282  0.2338 -0.3979 -0.2199
  313MOL0     C41244   8.718   8.458  10.201 -1.1360  0.7092 -0.2089
  313MOL0     C41245   8.746   8.352  10.088  0.4297 -0.3055 -0.6050
  313MOL0     C41246   8.733   8.217  10.148 -0.4758 -0.5606  0.3277
  313MOL0     C41247   8.861   8.147  10.158  0.3629 -0.3460  0.7469
  313MOL0     C41248   8.977   8.126  10.175 -0.4563  0.0524 -1.3118
  313MOL0     C41249   8.854   8.794  10.330 -1.1241 -0.2956  0.6681
  313MOL0     C41250   8.819   8.928  10.321 -0.7340 -0.0645  1.2614
  313MOL0     H41251   8.629   9.363  10.494  0.1297  1.1147  0.3199
  313MOL0     H41252   8.518   9.577  10.496  1.3677 -2.2873  0.9829
  313MOL0     H41253   8.153   9.684  10.221  0.3513 -2.8535 -0.1691
  313MOL0     H41254   8.298   9.759  10.143  0.9162  2.1101  0.9430
  313MOL0     H41255   8.267   9.966  10.205  0.9555 -1.1676 -0.9796
  313MOL0     H41256   8.325   9.895  10.353  0.8514 -0.4784 -0.0702
  313MOL0     H41257   8.079   9.851  10.403  0.1271 -0.9046 -1.7697
  313MOL0     H41258   8.032   9.936  10.258 -2.1461 -0.9882  2.3677
  313MOL0     H41259   8.205  10.069  10.487  1.0544  1.8608 -0.9693
  313MOL0     H41260   8.157  10.142  10.332 -0.5579 -1.6649 -3.0096
  313MOL0     H41261   7.971  10.004  10.535 -1.0775  2.1520  0.7856
  313MOL0     H41262   7.920  10.115  10.406 -2.8978  2.4458  1.6678
  313MOL0     H41263   7.990  10.303  10.502  0.4673  0.2960  0.2392
  313MOL0     H41264   8.075  10.212  10.626  1.7523 -1.0419 -2.3219
  313MOL0     H41265   7.827  10.159  10.709 -1.7564  1.8229  1.8081
  313MOL0     H41266   7.857  10.332  10.706 -1.5417 -0.6230  0.8782
  313MOL0     H41267   7.719  10.165  10.490  3.4369 -1.0902  1.1423
  313MOL0     H41268   7.766  10.341  10.471  2.9334 -0.6096  0.2785
  313MOL0     H41269   7.611  10.125  10.755 -1.5528 -0.0791  1.5140
  313MOL0     H41270   7.369  10.118  10.863 -1.8969  1.4467  1.9430
  313MOL0     H41271   7.328  10.050  10.707  3.3160  0.9931 -2.2733
  313MOL0     H41272   7.140  10.186  10.679 -0.4215  0.3412  0.2764
  313MOL0     H41273   7.206  10.309  10.772 -3.0476 -0.1047  0.6553
  313MOL0     H41274   7.110  10.050  10.882  0.5953 -0.0280 -1.9352
  313MOL0     H41275   7.156  10.193  10.982 -0.2744 -0.8078  0.6277
  313MOL0     H41276   6.943  10.263  10.791  4.4894  0.1230 -1.9745
  313MOL0     H41277   6.967  10.297  10.966 -0.9749  0.0530  0.9799
  313MOL0     H41278   6.709   9.933  10.937 -0.5009  0.0138 -0.7683
  313MOL0     H41279   6.589   9.866  11.133 -0.0512  0.5139  0.9431
  313MOL0     H41280   6.660   9.591  11.475  0.5710  1.0627  0.4174
  313MOL0     H41281   6.569   9.462  11.676 -1.0682 -0.2615 -1.4219
  313MOL0     H41282   6.442   9.421  12.001 -2.3298  0.7361  0.1905
  313MOL0     H41283   6.558   9.440  11.876 -0.6924 -1.8625 -0.8148
  313MOL0     H41284   6.360   9.352  11.713  1.5739 -2.2847 -1.7136
  313MOL0     H41285   6.273   9.316  11.859 -1.1643  2.0997 -3.1655
  313MOL0     H41286   6.551   9.199  11.796 -0.0027  2.8564 -0.2835
  313MOL0     H41287   6.400   9.109  11.754 -0.1018 -0.3273  0.0739
  313MOL0     H41288   6.478   9.212  12.023  0.3166 -1.4287  1.6671
  313MOL0     H41289   6.339   9.104  11.976  0.2382 -1.7087  0.7285
  313MOL0     H41290   6.640   9.071  11.953 -1.4749  2.7448 -0.4142
  313MOL0     H41291   6.528   8.943  11.902 -2.8104  1.4757 -2.1902
  313MOL0     H41292   6.434   8.906  12.120  0.5158 -1.4270  3.4211
  313MOL0     H41293   6.542   9.037  12.188  2.3916 -1.9625  0.8657
  313MOL0     H41294   6.667   8.815  12.044 -0.8750  1.5071 -2.0849
  313MOL0     H41295   6.718   8.935  12.158 -0.7772  1.0520 -1.9432
  313MOL0     H41296   6.696   8.702  12.268  1.8248  3.3348 -0.6959
  313MOL0     H41297   6.522   8.703  12.223 -0.3990  0.3911  2.2679
  313MOL0     H41298   6.328   9.808  11.762  1.4415  1.3613 -0.3772
  313MOL0     H41299   6.379   9.898  11.534 -0.5630 -1.5526 -1.6700
  313MOL0     H41300   6.840  10.115  11.367  0.5055 -0.8978 -0.9978
  313MOL0     H41301   6.956  10.196  11.168  2.0529 -2.7384  0.3730
  313MOL0     H41302   8.272   9.476  10.149 -0.8814 -0.4617  0.8968
  313MOL0     H41303   8.396   9.250  10.145  1.9779  1.1162 -1.4798
  313MOL0     H41304   8.516   8.910  10.475  1.0075  1.0438  0.2877
  313MOL0     H41305   8.581   8.677  10.487  1.9480 -2.6505 -0.2717
  313MOL0     H41306   8.894   8.408  10.315  2.2380  1.7001  3.1384
  313MOL0     H41307   8.912   8.561  10.221 -2.4391  0.6912 -2.2980
  313MOL0     H41308   8.638   8.422  10.266 -0.8974 -0.9025 -0.7668
  313MOL0     H41309   8.681   8.543  10.142  1.8131  1.6813 -0.8365
  313MOL0     H41310   8.839   8.373  10.034  0.5012 -1.7801 -1.0866
  313MOL0     H41311   8.670   8.360  10.009 -0.7406  2.2829  0.6572
  313MOL0     H41312   8.688   8.220  10.247 -1.9370  0.5441 -0.3328
  313MOL0     H41313   8.650   8.171  10.092  0.6842 -1.3929 -0.7696
  313MOL0     H41314   9.078   8.120  10.211  0.1414 -2.3939 -3.1629
  313MOL0     H41315   8.939   8.757  10.273 -2.3831 -0.5674 -1.1458
  313MOL0     H41316   8.889   8.998  10.275  0.1977 -1.1045  1.0587
  314MOL0     O41317   7.794   2.357   6.515  0.1141  0.0077  0.0874
  314MOL0     C41318   7.724   2.443   6.465  1.0131 -0.4854 -0.7405
  314MOL0     O41319   7.664   2.538   6.537  0.1378  0.8664 -0.2280
  314MOL0     C41320   7.705   2.624   6.635 -0.0298 -0.0309  0.6638
  314MOL0     C41321   7.836   2.648   6.666  0.0571  0.1233  0.4749
  314MOL0     C41322   7.862   2.722   6.785 -0.2609  0.1798  0.0542
  314MOL0     C41323   7.762   2.781   6.864  0.4199 -0.0590 -0.1057
  314MOL0     O41324   7.798   2.850   6.975  0.0235 -0.4283  0.2421
  314MOL0     C41325   7.702   2.854   7.077 -0.0810 -0.1252 -0.3038
  314MOL0     C41326   7.776   2.857   7.209  0.2793 -0.7506  0.0058
  314MOL0     C41327   7.896   2.761   7.225  0.5319  0.6404  0.4350
  314MOL0     C41328   7.973   2.792   7.350  0.1632 -0.1213 -1.1105
  314MOL0     C41329   7.924   2.715   7.483 -1.0391 -0.3230  0.1462
  314MOL0     C41330   8.025   2.724   7.594  0.0127 -0.0462  0.4217
  314MOL0     C41331   7.991   2.664   7.727 -0.0161  0.0718  0.3616
  314MOL0     C41332   7.910   2.529   7.716  0.2413  0.1237 -0.4772
  314MOL0     N41333   7.919   2.470   7.856  0.6647 -0.0347  0.1620
  314MOL0     C41334   7.812   2.463   7.948 -0.9189 -0.0723 -0.6233
  314MOL0     C41335   7.857   2.364   8.035  0.3180 -0.8202  0.0804
  314MOL0     C41336   7.777   2.302   8.141 -0.1979 -1.1463 -0.3067
  314MOL0     C41337   7.690   2.188   8.085 -0.0539 -0.9206  0.5193
  314MOL0     C41338   7.639   2.116   8.202  0.1828  0.3049 -0.3259
  314MOL0     C41339   7.557   1.999   8.168  0.1020  0.1468  0.7392
  314MOL0     O41340   7.445   2.025   8.085  0.2070  0.2319  0.0589
  314MOL0     C41341   7.362   1.916   8.049  1.2734  0.6139 -0.3054
  314MOL0     C41342   7.363   1.782   8.099 -0.2596  1.0399 -0.4858
  314MOL0     C41343   7.280   1.683   8.050 -0.5368  1.0167 -0.9237
  314MOL0     C41344   7.176   1.695   7.957 -0.4850 -0.1225  0.6085
  314MOL0     C41345   7.081   1.588   7.937  0.2140  0.7469 -0.6694
  314MOL0     O41346   6.956   1.620   7.876  0.9741 -0.8265  0.7182
  314MOL0     C41347   6.844   1.539   7.876 -0.4169 -0.5347  0.6474
  314MOL0     C41348   6.766   1.543   7.752  0.0255 -0.2511  0.2561
  314MOL0     C41349   6.649   1.463   7.745  0.3131 -0.1633 -0.2159
  314MOL0     C41350   6.608   1.385   7.855  0.1347  0.3950 -0.9359
  314MOL0     O41351   6.496   1.304   7.866  0.3155  0.1792  0.3133
  314MOL0     C41352   6.411   1.284   7.754  0.4329  0.4485  0.8556
  314MOL0     C41353   6.272   1.280   7.807  0.1061 -0.0003 -0.4002
  314MOL0     C41354   6.174   1.244   7.699  0.1827 -0.2916 -0.1612
  314MOL0     C41355   6.027   1.227   7.759 -0.0965  0.2965  0.5088
  314MOL0     C41356   5.941   1.125   7.679 -0.6982  0.2404  0.9686
  314MOL0     C41357   5.998   0.976   7.699 -0.2501 -0.0287 -0.0761
  314MOL0     C41358   5.918   0.879   7.616 -0.6204 -0.5937 -0.4701
  314MOL0     C41359   5.998   0.780   7.524 -0.1545  0.1339  0.7242
  314MOL0    Cl41360   5.898   0.708   7.396 -0.5833 -0.1552  0.0469
  314MOL0     C41361   6.684   1.387   7.975 -0.0280 -0.0401 -0.0027
  314MOL0     C41362   6.796   1.469   7.991 -0.0650  0.5151 -0.1962
  314MOL0     O41363   7.101   1.487   7.985 -1.1830  1.1773 -0.5320
  314MOL0     C41364   7.173   1.828   7.903 -0.1127 -0.2302  0.1836
  314MOL0     C41365   7.255   1.936   7.951 -0.0749 -0.3043 -0.1883
  314MOL0     N41366   7.972   2.311   7.995  0.1155  0.7828 -0.4426
  314MOL0     N41367   8.015   2.380   7.896  0.9050 -0.4703  0.8538
  314MOL0     C41368   7.633   2.770   6.806  0.3882 -0.2323  0.4599
  314MOL0     C41369   7.601   2.681   6.696  0.4753  0.5021 -0.2396
  314MOL0     C41370   7.706   2.453   6.319 -0.1314  0.0208  0.3607
  314MOL0     C41371   7.739   2.358   6.230 -0.6832  0.7683  0.6685
  314MOL0     C41372   7.727   2.366   6.090 -0.3207 -1.1862  0.4323
  314MOL0     C41373   7.644   2.473   6.043 -0.5561  0.7596  0.7653
  314MOL0     O41374   7.603   2.482   5.916  0.3402  0.5935 -0.1619
  314MOL0     C41375   7.542   2.358   5.862 -0.4508 -0.6450  0.0739
  314MOL0     C41376   7.419   2.388   5.783  0.6309  0.2690 -0.2960
  314MOL0     C41377   7.451   2.447   5.645  0.4135  0.7301  0.4500
  314MOL0     C41378   7.325   2.516   5.587 -0.0269 -0.4099 -0.0958
  314MOL0     C41379   7.323   2.520   5.442 -0.1326  0.0779  0.6685
  314MOL0     C41380   7.328   2.504   5.319  0.8694 -0.4667 -0.0319
  314MOL0     C41381   7.596   2.569   6.137 -0.6349 -0.6770 -0.2248
  314MOL0     C41382   7.634   2.566   6.267 -0.3739 -0.0907  0.3534
  314MOL0     H41383   7.914   2.611   6.601 -0.0317 -1.8065  1.4070
  314MOL0     H41384   7.969   2.729   6.805  0.2343  0.2748 -2.3224
  314MOL0     H41385   7.637   2.767   7.081 -0.1334 -0.0359  2.3809
  314MOL0     H41386   7.648   2.949   7.065  0.2214  0.1969  0.7670
  314MOL0     H41387   7.702   2.831   7.284 -0.3292  0.0388 -0.3022
  314MOL0     H41388   7.810   2.958   7.235  2.5599 -1.8106  1.4631
  314MOL0     H41389   7.967   2.769   7.142  1.1738 -4.9674  0.0993
  314MOL0     H41390   7.875   2.654   7.223  1.0350  0.5511 -0.3236
  314MOL0     H41391   8.072   2.759   7.319  0.3530 -0.0014 -0.6279
  314MOL0     H41392   7.967   2.896   7.382  0.2650 -0.2207 -0.7719
  314MOL0     H41393   7.919   2.611   7.450  3.5701 -1.9189  3.4777
  314MOL0     H41394   7.825   2.751   7.515  0.2623  1.0206  3.0258
  314MOL0     H41395   8.054   2.829   7.604 -2.4485  0.9666 -2.0096
  314MOL0     H41396   8.108   2.667   7.552 -1.1384  0.4740 -2.7869
  314MOL0     H41397   8.077   2.651   7.793  0.1889 -0.0240  0.0777
  314MOL0     H41398   7.926   2.739   7.773 -1.6463  0.3096 -2.1353
  314MOL0     H41399   7.974   2.465   7.654  1.7031  2.2559 -1.2651
  314MOL0     H41400   7.814   2.531   7.663 -1.0748  1.3740  1.8156
  314MOL0     H41401   7.717   2.514   7.957 -0.5289  0.9571 -1.9951
  314MOL0     H41402   7.717   2.383   8.185  0.4879  1.1166 -3.1926
  314MOL0     H41403   7.851   2.255   8.206  0.1494 -1.8098 -1.1664
  314MOL0     H41404   7.751   2.120   8.025 -1.6723 -1.4747 -0.5702
  314MOL0     H41405   7.610   2.229   8.023  1.0110 -1.0600 -0.9990
  314MOL0     H41406   7.718   2.081   8.270  0.1309 -1.0368 -0.9157
  314MOL0     H41407   7.581   2.172   8.276  2.3843 -1.3765  2.9554
  314MOL0     H41408   7.515   1.953   8.257 -2.7621  0.3997 -0.3823
  314MOL0     H41409   7.616   1.915   8.129  0.9927 -2.0012  5.9137
  314MOL0     H41410   7.429   1.745   8.176  3.8600  3.1305 -2.6771
  314MOL0     H41411   7.293   1.594   8.110 -0.3636  0.2631 -2.0486
  314MOL0     H41412   6.791   1.620   7.680  0.1111  1.3127  1.9078
  314MOL0     H41413   6.593   1.496   7.658  1.4671 -2.0513 -1.7489
  314MOL0     H41414   6.442   1.191   7.705  1.1713  0.1834  1.8049
  314MOL0     H41415   6.424   1.357   7.674  0.5741  0.0051  0.4660
  314MOL0     H41416   6.245   1.374   7.857  1.8340  0.0406  0.5407
  314MOL0     H41417   6.260   1.202   7.883 -0.4768  1.7811  1.4516
  314MOL0     H41418   6.204   1.157   7.640  4.0035  2.9681 -3.5925
  314MOL0     H41419   6.172   1.307   7.609  2.4188 -0.8357 -0.6360
  314MOL0     H41420   6.025   1.203   7.865 -0.9854  0.7111  0.5908
  314MOL0     H41421   5.974   1.322   7.762 -0.7495 -0.0882  1.5141
  314MOL0     H41422   5.948   1.153   7.573  1.6887 -1.7191  0.5100
  314MOL0     H41423   5.838   1.117   7.714 -0.2400 -0.6148  2.1683
  314MOL0     H41424   5.979   0.959   7.806 -5.3486  1.0543 -0.5473
  314MOL0     H41425   6.102   0.955   7.673  0.3698 -1.1633  2.8815
  314MOL0     H41426   5.859   0.810   7.677 -0.6348 -1.2287 -1.1892
  314MOL0     H41427   5.844   0.934   7.558 -3.0868 -1.2666  1.8604
  314MOL0     H41428   6.046   0.705   7.588 -0.1618 -0.2256  0.3137
  314MOL0     H41429   6.072   0.834   7.465 -0.8432  0.2440 -0.0577
  314MOL0     H41430   6.661   1.325   8.061 -1.9917  1.9842  1.0368
  314MOL0     H41431   6.859   1.477   8.079 -1.4235  2.6861  0.6758
  314MOL0     H41432   7.101   1.844   7.823  3.2439 -0.2192 -3.1551
  314MOL0     H41433   7.251   2.037   7.911 -0.9959  0.7483  2.4163
  314MOL0     H41434   7.542   2.812   6.846 -1.0701 -1.1076 -1.7199
  314MOL0     H41435   7.503   2.663   6.654 -0.1356 -1.7232  1.9111
  314MOL0     H41436   7.785   2.264   6.260 -1.0030  1.3006  3.0262
  314MOL0     H41437   7.767   2.291   6.023  1.4629 -0.2914  0.4360
  314MOL0     H41438   7.506   2.295   5.944  1.5445  1.2485  2.5871
  314MOL0     H41439   7.614   2.312   5.793 -0.8815  1.0368 -1.5732
  314MOL0     H41440   7.361   2.298   5.761  0.3393 -0.0672  1.6736
  314MOL0     H41441   7.350   2.451   5.839 -1.4559 -1.5499 -0.6862
  314MOL0     H41442   7.475   2.363   5.579  0.2845  1.3018 -0.3401
  314MOL0     H41443   7.540   2.509   5.638  1.7092 -1.1839 -0.9924
  314MOL0     H41444   7.233   2.461   5.611 -0.0254  0.3583  1.8760
  314MOL0     H41445   7.310   2.612   5.638  0.3224  0.3456 -1.3691
  314MOL0     H41446   7.339   2.498   5.213  3.1794 -0.1914  0.1451
  314MOL0     H41447   7.532   2.649   6.101  0.0993  0.6090  1.2038
  314MOL0     H41448   7.590   2.654   6.313  1.8794  2.7408 -2.4460
  315MOL0     O41449   4.815   6.351   7.450 -0.6121 -0.3469 -0.0050
  315MOL0     C41450   4.861   6.252   7.401 -0.0293  0.9978  0.2621
  315MOL0     O41451   4.903   6.143   7.465 -0.3989  0.6508 -0.6641
  315MOL0     C41452   4.867   6.129   7.596 -0.8769 -0.3263 -0.1296
  315MOL0     C41453   4.965   6.122   7.695  0.1268 -1.2146 -0.6609
  315MOL0     C41454   4.931   6.100   7.830 -0.0206 -0.9382 -0.9007
  315MOL0     C41455   4.800   6.098   7.878 -0.4041  0.4805  0.2129
  315MOL0     O41456   4.759   6.065   8.001 -0.2991 -0.1513  0.0342
  315MOL0     C41457   4.814   5.946   8.062 -0.1975 -0.5375  0.0612
  315MOL0     C41458   4.724   5.895   8.187  0.7379 -0.2371  0.9156
  315MOL0     C41459   4.741   5.748   8.212 -1.0330  0.2838  0.2422
  315MOL0     C41460   4.630   5.709   8.302  0.2905 -0.4919  0.8257
  315MOL0     C41461   4.654   5.565   8.348  0.2729 -0.0399 -1.2818
  315MOL0     C41462   4.611   5.458   8.258 -0.5733  0.6455  0.4846
  315MOL0     C41463   4.621   5.320   8.314  0.0968  0.1433  0.5807
  315MOL0     C41464   4.476   5.284   8.372  1.1867  0.7388  0.3215
  315MOL0     N41465   4.460   5.158   8.456 -0.1918 -0.4925  1.1157
  315MOL0     C41466   4.462   5.148   8.594  0.5702  0.4079 -0.9430
  315MOL0     C41467   4.400   5.032   8.617 -0.7265  0.2880 -0.5657
  315MOL0     C41468   4.381   4.957   8.741 -0.9121 -0.2611 -0.7800
  315MOL0     C41469   4.520   4.922   8.798 -0.8760  0.5119  0.1145
  315MOL0     C41470   4.510   4.880   8.940  0.6218  0.5056  0.1605
  315MOL0     C41471   4.560   4.977   9.051  0.3307 -0.8542 -1.1562
  315MOL0     O41472   4.570   4.913   9.184  0.5541 -0.2125 -0.1747
  315MOL0     C41473   4.596   4.992   9.292 -0.0958 -0.2586  0.1065
  315MOL0     C41474   4.626   5.128   9.284 -0.5301  0.4292  0.7171
  315MOL0     C41475   4.672   5.197   9.395  0.5336  0.2524  0.3205
  315MOL0     C41476   4.681   5.136   9.526 -1.0243 -0.8974  0.0350
  315MOL0     C41477   4.728   5.223   9.641  0.9765  0.2124  0.6047
  315MOL0     O41478   4.770   5.355   9.613  0.5437 -1.2378 -0.1925
  315MOL0     C41479   4.811   5.428   9.723  0.3549 -0.5697 -1.0488
  315MOL0     C41480   4.890   5.384   9.828 -0.4640 -0.8586  0.5311
  315MOL0     C41481   4.920   5.468   9.938 -0.5158  1.2474 -0.0394
  315MOL0     C41482   4.860   5.597   9.941 -0.7100 -0.3755  0.3910
  315MOL0     O41483   4.876   5.697  10.032 -0.3385  0.1882  0.3265
  315MOL0     C41484   4.962   5.673  10.143  0.2009  0.4488  0.6771
  315MOL0     C41485   4.985   5.795  10.229 -0.0346 -0.0276  0.0553
  315MOL0     C41486   5.084   5.898  10.179 -0.5524  0.5716  1.0051
  315MOL0     C41487   5.235   5.844  10.165 -0.0058 -0.2317  0.2187
  315MOL0     C41488   5.310   5.939  10.080  0.6815  0.6041  1.0975
  315MOL0     C41489   5.459   5.911  10.078  0.5135  0.4699  0.2274
  315MOL0     C41490   5.520   5.957  10.208  0.0625  0.3882 -0.2633
  315MOL0     C41491   5.606   5.851  10.274  0.1118  0.6160  0.5947
  315MOL0    Cl41492   5.733   5.791  10.151 -0.1583 -0.4716  0.0047
  315MOL0     C41493   4.770   5.630   9.843  0.2840 -0.0218 -0.4083
  315MOL0     C41494   4.746   5.550   9.734 -0.2224 -0.0478 -0.2333
  315MOL0     O41495   4.719   5.169   9.748  0.1887  0.1785 -0.4794
  315MOL0     C41496   4.655   4.998   9.541  0.5585  0.2176 -0.0482
  315MOL0     C41497   4.614   4.934   9.422 -0.0831  0.3660  0.3472
  315MOL0     N41498   4.371   4.977   8.494  0.9936  0.6888 -0.1149
  315MOL0     N41499   4.405   5.049   8.400  0.3364 -0.3138 -0.4170
  315MOL0     C41500   4.708   6.118   7.772 -0.2187 -1.3103  0.7965
  315MOL0     C41501   4.732   6.123   7.634 -0.3514 -0.8546 -1.2735
  315MOL0     C41502   4.878   6.250   7.257  0.1033  0.3925  0.2667
  315MOL0     C41503   4.829   6.358   7.182 -0.6212 -0.0309  0.1445
  315MOL0     C41504   4.851   6.362   7.046 -0.5114  0.1336 -0.5560
  315MOL0     C41505   4.929   6.264   6.989 -0.3711  0.6552 -0.2784
  315MOL0     O41506   4.956   6.278   6.855  0.1727 -0.3222 -0.2677
  315MOL0     C41507   5.096   6.294   6.818  0.2643  0.1151 -0.4831
  315MOL0     C41508   5.097   6.312   6.668  0.6782 -0.5907  0.7471
  315MOL0     C41509   5.063   6.463   6.639  1.0852 -0.0238  0.3057
  315MOL0     C41510   5.052   6.500   6.487 -0.1746 -0.6084 -0.0652
  315MOL0     C41511   5.178   6.475   6.421  0.8736 -0.0665 -1.8631
  315MOL0     C41512   5.283   6.450   6.370  0.3231 -0.8143  0.8180
  315MOL0     C41513   4.983   6.162   7.064  0.0265 -0.5961 -0.3340
  315MOL0     C41514   4.952   6.142   7.201 -0.2853 -0.0430  0.4507
  315MOL0     H41515   5.071   6.110   7.676  0.4585 -1.6910  1.3410
  315MOL0     H41516   5.012   6.105   7.902  2.9145 -0.6940 -3.9696
  315MOL0     H41517   4.918   5.956   8.093 -0.2232 -1.4586  0.4735
  315MOL0     H41518   4.802   5.864   7.990  0.4546 -1.1694  0.6636
  315MOL0     H41519   4.620   5.910   8.157  1.3156  0.2361 -0.9768
  315MOL0     H41520   4.732   5.962   8.273 -2.6199  2.6038 -0.7479
  315MOL0     H41521   4.838   5.724   8.258 -0.0107  1.0177 -1.4148
  315MOL0     H41522   4.736   5.694   8.117  1.2880 -1.0311  0.7797
  315MOL0     H41523   4.622   5.764   8.396 -0.8644 -0.6486  0.8299
  315MOL0     H41524   4.535   5.722   8.250  0.6957  4.9984  0.9140
  315MOL0     H41525   4.608   5.539   8.444 -0.0672  1.6442 -0.9618
  315MOL0     H41526   4.761   5.550   8.367 -0.4229 -1.3290  2.7353
  315MOL0     H41527   4.676   5.462   8.171  2.3296 -1.9189  2.3292
  315MOL0     H41528   4.506   5.464   8.226 -0.9091  0.0799  1.4200
  315MOL0     H41529   4.650   5.251   8.234  1.3368  1.3069 -0.0092
  315MOL0     H41530   4.706   5.325   8.383  0.0170  1.5814  0.6086
  315MOL0     H41531   4.407   5.268   8.288 -3.1735 -1.6658  3.8978
  315MOL0     H41532   4.440   5.361   8.441  1.6189 -0.0673  1.4843
  315MOL0     H41533   4.516   5.212   8.663  0.8361 -0.3420 -0.4424
  315MOL0     H41534   4.317   4.870   8.724  2.8020 -3.5075  0.4878
  315MOL0     H41535   4.348   5.027   8.819  0.5363 -2.3964  1.9152
  315MOL0     H41536   4.585   5.010   8.788  0.3959 -0.6567 -3.8701
  315MOL0     H41537   4.570   4.841   8.743 -1.9645 -0.0391 -0.0913
  315MOL0     H41538   4.404   4.857   8.954 -0.3290  3.2928 -1.5799
  315MOL0     H41539   4.562   4.785   8.957 -0.9605 -0.4092  0.0505
  315MOL0     H41540   4.482   5.051   9.070  0.0664 -1.7951  2.1203
  315MOL0     H41541   4.649   5.034   9.023 -0.3361  1.0388  0.3171
  315MOL0     H41542   4.608   5.184   9.193 -0.9539 -2.7839 -1.3528
  315MOL0     H41543   4.691   5.302   9.375  1.2556  0.0706  0.0307
  315MOL0     H41544   4.923   5.280   9.830 -2.7224 -1.6634 -0.5311
  315MOL0     H41545   4.988   5.437  10.017 -0.2427 -1.3588 -1.1996
  315MOL0     H41546   5.058   5.638  10.104 -1.1300 -1.2588 -1.2586
  315MOL0     H41547   4.918   5.591  10.199 -1.3783  0.9407  0.2297
  315MOL0     H41548   5.016   5.744  10.321 -3.3188  1.2009  2.0560
  315MOL0     H41549   4.895   5.858  10.240 -0.5457 -0.0386 -3.0854
  315MOL0     H41550   5.093   5.984  10.246  3.1390  1.3666 -0.2705
  315MOL0     H41551   5.050   5.933  10.082 -1.4592 -3.2222 -0.2163
  315MOL0     H41552   5.269   5.841  10.269 -0.2220  1.7054  0.3864
  315MOL0     H41553   5.247   5.746  10.119  0.2258 -1.5784  2.9514
  315MOL0     H41554   5.293   6.042  10.112 -0.2129  1.6913 -2.4399
  315MOL0     H41555   5.271   5.925   9.979  1.5190 -1.5054  1.0074
  315MOL0     H41556   5.510   5.973  10.003  0.0095 -0.1650 -0.6617
  315MOL0     H41557   5.474   5.805  10.060  0.6180  0.1837  1.8703
  315MOL0     H41558   5.590   6.037  10.184 -1.3318  1.1799 -1.9335
  315MOL0     H41559   5.442   6.000  10.271  0.7633  2.1301 -0.5454
  315MOL0     H41560   5.547   5.768  10.314  0.9702 -0.1386  0.3441
  315MOL0     H41561   5.656   5.893  10.362  2.0831  2.2906 -1.2087
  315MOL0     H41562   4.718   5.725   9.849 -2.3055 -1.3649 -0.3278
  315MOL0     H41563   4.663   5.566   9.665  1.9111  2.4475 -2.4763
  315MOL0     H41564   4.663   4.953   9.639  2.6017  2.5174  0.9370
  315MOL0     H41565   4.580   4.833   9.445 -2.4687  1.4111  1.7900
  315MOL0     H41566   4.604   6.111   7.804 -0.0381 -3.1184  1.0827
  315MOL0     H41567   4.649   6.127   7.563 -0.0650  0.4040 -1.5674
  315MOL0     H41568   4.779   6.442   7.229 -0.8364  0.0729 -0.2677
  315MOL0     H41569   4.827   6.445   6.980 -1.0648 -0.3943 -1.0309
  315MOL0     H41570   5.155   6.205   6.845 -1.1252 -0.8463 -0.4994
  315MOL0     H41571   5.141   6.385   6.859  0.0617 -0.0870  0.2114
  315MOL0     H41572   5.198   6.284   6.636  0.1964 -2.0200  0.4015
  315MOL0     H41573   5.022   6.252   6.615 -1.1973  1.0706  1.4072
  315MOL0     H41574   5.144   6.522   6.684  1.2978  0.6405 -0.9082
  315MOL0     H41575   4.967   6.485   6.687  1.2071 -2.0990  1.6407
  315MOL0     H41576   4.975   6.445   6.433  0.5921  0.4623 -2.3515
  315MOL0     H41577   5.017   6.604   6.484 -2.1005 -1.2259 -0.2988
  315MOL0     H41578   5.366   6.441   6.303  0.1819  2.0360  0.1254
  315MOL0     H41579   5.045   6.101   6.999  1.0397  1.4338 -1.3341
  315MOL0     H41580   4.982   6.053   7.254 -1.7412 -0.3994  0.7168
  316MOL0     O41581   9.799   8.321   5.379 -0.0064 -0.0204 -0.1104
  316MOL0     C41582   9.797   8.429   5.326  0.2086 -0.4944 -1.1474
  316MOL0     O41583   9.907   8.517   5.313  0.1885 -0.3264  0.1024
  316MOL0     C41584  10.024   8.499   5.391 -0.0152 -0.7606  0.3195
  316MOL0     C41585  10.030   8.466   5.531 -0.3712 -0.0183 -0.1582
  316MOL0     C41586  10.150   8.462   5.596 -1.0487 -0.7260 -0.8471
  316MOL0     C41587  10.273   8.485   5.527 -0.0916  0.0521  0.8488
  316MOL0     O41588  10.383   8.496   5.597 -0.0507 -0.4009  0.1884
  316MOL0     C41589  10.510   8.507   5.534 -0.6779  0.1794  0.1450
  316MOL0     C41590  10.615   8.550   5.651  0.3518 -0.2472  0.7149
  316MOL0     C41591  10.630   8.455   5.761 -0.1750  0.2884  0.1168
  316MOL0     C41592  10.676   8.526   5.893 -0.0917  1.0899 -0.3377
  316MOL0     C41593  10.731   8.436   5.993 -0.2237  0.4131 -0.5832
  316MOL0     C41594  10.850   8.356   5.938 -0.9558  0.8001 -0.1851
  316MOL0     C41595  10.965   8.325   6.035  0.5653 -0.0586 -1.1327
  316MOL0     C41596  10.944   8.225   6.151  0.0919  0.2447 -0.2411
  316MOL0     N41597  10.860   8.275   6.253 -1.0559 -0.6971 -0.6695
  316MOL0     C41598  10.752   8.209   6.320 -0.5786 -0.3839  0.7091
  316MOL0     C41599  10.723   8.278   6.434 -0.0692  0.0443  0.0508
  316MOL0     C41600  10.606   8.267   6.531  0.2011 -0.6055  0.2841
  316MOL0     C41601  10.470   8.344   6.486  0.1178  0.2424  0.2970
  316MOL0     C41602  10.473   8.501   6.486  0.3624  0.7066  0.4979
  316MOL0     C41603  10.519   8.549   6.348  0.0858  0.6258 -0.4917
  316MOL0     O41604  10.449   8.485   6.240  0.7753  0.2501 -0.7252
  316MOL0     C41605  10.340   8.537   6.169  0.5661  0.5448  0.3105
  316MOL0     C41606  10.260   8.631   6.237  0.3987 -0.3822 -0.5879
  316MOL0     C41607  10.166   8.703   6.158  0.3831  0.0404 -0.0201
  316MOL0     C41608  10.147   8.679   6.020 -0.5959  0.4729  0.4940
  316MOL0     C41609  10.057   8.758   5.941 -0.0267  0.7886 -0.0202
  316MOL0     O41610  10.039   8.708   5.814 -0.0176 -0.4864 -0.6181
  316MOL0     C41611   9.970   8.786   5.719 -0.5134 -0.0655  1.0153
  316MOL0     C41612   9.827   8.790   5.720 -0.9150 -0.1930  0.7560
  316MOL0     C41613   9.753   8.868   5.631 -0.2650  0.0961 -0.0510
  316MOL0     C41614   9.817   8.932   5.518 -0.6314  0.1717  0.5329
  316MOL0     O41615   9.738   9.007   5.436 -0.2006  0.5692  0.9327
  316MOL0     C41616   9.793   9.054   5.306 -0.4479 -0.2043 -0.1515
  316MOL0     C41617   9.681   9.117   5.234 -0.6996 -0.2978  0.1583
  316MOL0     C41618   9.542   9.051   5.240 -0.0868  0.5969 -0.6716
  316MOL0     C41619   9.448   9.134   5.172 -0.4605  0.0748 -0.6838
  316MOL0     C41620   9.302   9.079   5.171  0.0753  0.1467 -0.5172
  316MOL0     C41621   9.280   8.993   5.039 -0.0679 -0.3125 -0.1174
  316MOL0     C41622   9.126   8.963   5.036 -0.2953  0.4024 -0.0155
  316MOL0     C41623   9.107   8.848   4.942  0.9318  0.4354 -0.2133
  316MOL0    Cl41624   8.925   8.848   4.929 -0.2023  0.0200 -0.0299
  316MOL0     C41625   9.961   8.933   5.516 -0.3168 -0.4184  0.4852
  316MOL0     C41626  10.034   8.871   5.622 -0.1068  0.1131  0.6500
  316MOL0     O41627   9.992   8.856   5.990 -0.0709  0.1423  0.1385
  316MOL0     C41628  10.234   8.588   5.956  0.1548 -0.1468 -0.6628
  316MOL0     C41629  10.332   8.524   6.029  0.7068 -0.0966 -0.2303
  316MOL0     N41630  10.806   8.388   6.423  0.0426 -0.1831  0.0824
  316MOL0     N41631  10.885   8.382   6.327 -0.9881 -0.5106 -0.0852
  316MOL0     C41632  10.266   8.512   5.386 -0.4787  0.5052 -0.1805
  316MOL0     C41633  10.139   8.517   5.317 -0.4255  0.6235 -0.6399
  316MOL0     C41634   9.657   8.477   5.290  0.0756  0.0367 -0.0912
  316MOL0     C41635   9.637   8.611   5.239  0.5361  1.2990 -0.2954
  316MOL0     C41636   9.509   8.654   5.204 -0.3646 -0.1210  1.0418
  316MOL0     C41637   9.396   8.573   5.218  0.4893 -1.0819  0.4182
  316MOL0     O41638   9.273   8.627   5.171  0.0583 -0.3459  0.1750
  316MOL0     C41639   9.156   8.560   5.216  0.4848  0.9272  0.3249
  316MOL0     C41640   9.125   8.589   5.359 -0.0870  0.0767 -1.2054
  316MOL0     C41641   9.132   8.737   5.393  0.5948 -1.3072 -0.4048
  316MOL0     C41642   8.985   8.798   5.382  0.2942  0.7642 -0.7880
  316MOL0     C41643   8.885   8.746   5.483  0.0745 -0.0782  0.2061
  316MOL0     C41644   8.817   8.703   5.573 -0.7256 -0.0733 -0.4296
  316MOL0     C41645   9.414   8.454   5.279  0.1785  0.3379  0.1774
  316MOL0     C41646   9.541   8.398   5.309  0.8868 -0.1157  0.8246
  316MOL0     H41647   9.933   8.459   5.579  0.5972 -0.4796  1.8219
  316MOL0     H41648  10.150   8.444   5.703  3.2854 -2.7087 -0.9651
  316MOL0     H41649  10.510   8.581   5.453  2.0799 -0.3189 -0.4289
  316MOL0     H41650  10.541   8.412   5.491  0.8843 -0.1503  1.8891
  316MOL0     H41651  10.593   8.646   5.698 -0.2578 -0.3970  0.7458
  316MOL0     H41652  10.715   8.563   5.609 -0.6806 -0.7997 -2.0993
  316MOL0     H41653  10.699   8.380   5.721  0.2930  1.6034 -1.6572
  316MOL0     H41654  10.531   8.413   5.785  0.8501 -0.2801  3.9330
  316MOL0     H41655  10.750   8.606   5.881  0.3489  0.9317  1.0949
  316MOL0     H41656  10.596   8.592   5.929  1.9818  3.7280 -0.2062
  316MOL0     H41657  10.646   8.372   6.019 -1.0849  1.8690  0.3253
  316MOL0     H41658  10.758   8.500   6.077 -3.5613 -0.7097  1.5506
  316MOL0     H41659  10.895   8.421   5.863  3.0213 -1.4477 -0.0294
  316MOL0     H41660  10.817   8.259   5.901 -1.4240 -1.2933  4.9265
  316MOL0     H41661  11.051   8.295   5.974  0.9482 -0.8867 -0.2056
  316MOL0     H41662  10.991   8.423   6.077 -3.6271  1.5787 -1.8915
  316MOL0     H41663  11.041   8.198   6.194 -1.0692 -1.0987  1.6680
  316MOL0     H41664  10.900   8.134   6.109  0.2546 -0.4546  1.0759
  316MOL0     H41665  10.701   8.120   6.285  1.3662 -2.4375  2.7351
  316MOL0     H41666  10.637   8.300   6.631  0.4609 -0.8156  0.2743
  316MOL0     H41667  10.597   8.158   6.537  2.8571 -1.0449 -1.6369
  316MOL0     H41668  10.404   8.316   6.569  0.1503  3.7998  1.7206
  316MOL0     H41669  10.430   8.308   6.392  0.8774 -1.9100  0.7424
  316MOL0     H41670  10.376   8.547   6.503  0.4795  2.2828 -2.5291
  316MOL0     H41671  10.548   8.539   6.556  0.7564  1.6970 -0.4342
  316MOL0     H41672  10.627   8.532   6.345 -0.1049 -0.7712 -0.1687
  316MOL0     H41673  10.506   8.657   6.343  2.9560  1.1974  1.8379
  316MOL0     H41674  10.264   8.652   6.343  2.3425  2.3278 -1.0907
  316MOL0     H41675  10.097   8.776   6.199 -0.1820 -0.5476  0.1042
  316MOL0     H41676   9.784   8.727   5.797 -2.7757  0.2509  0.1247
  316MOL0     H41677   9.647   8.857   5.653 -0.4948  2.5455  0.3400
  316MOL0     H41678   9.821   8.967   5.246  0.0408 -1.5344  1.8985
  316MOL0     H41679   9.869   9.130   5.324  1.3330 -1.8948 -0.2105
  316MOL0     H41680   9.706   9.130   5.128 -5.0521 -2.9548 -1.4350
  316MOL0     H41681   9.663   9.218   5.271 -1.8785  0.2613 -1.7575
  316MOL0     H41682   9.504   9.043   5.343 -1.6119 -2.8853 -1.3359
  316MOL0     H41683   9.530   8.953   5.192 -1.8004  0.2379  0.3887
  316MOL0     H41684   9.443   9.223   5.236 -2.4064  0.3127 -1.1022
  316MOL0     H41685   9.479   9.163   5.071  0.3858  1.7524  0.0275
  316MOL0     H41686   9.237   9.166   5.172  3.3858  2.8948 -2.3406
  316MOL0     H41687   9.275   9.021   5.260 -0.0412  2.2244  0.8682
  316MOL0     H41688   9.332   8.898   5.052 -1.3481 -1.0610 -0.2460
  316MOL0     H41689   9.315   9.046   4.950 -0.1943 -0.8325 -0.4774
  316MOL0     H41690   9.092   8.952   5.139  0.2843  0.0214  0.1442
  316MOL0     H41691   9.073   9.050   4.997  0.3972  0.2386 -1.4033
  316MOL0     H41692   9.148   8.755   4.981 -3.1537 -2.0281 -1.2194
  316MOL0     H41693   9.151   8.858   4.842  2.0753 -2.0496 -0.0274
  316MOL0     H41694  10.011   8.993   5.441 -2.3972  0.1788 -0.5222
  316MOL0     H41695  10.139   8.895   5.629 -0.4705  1.5090  1.6631
  316MOL0     H41696  10.232   8.574   5.848  0.0188 -1.9401 -0.4554
  316MOL0     H41697  10.412   8.465   5.986 -0.1631 -2.2443  0.9498
  316MOL0     H41698  10.345   8.515   5.311 -0.5569 -1.0181 -0.3567
  316MOL0     H41699  10.124   8.540   5.212  0.2457  1.1028 -0.6355
  316MOL0     H41700   9.728   8.670   5.240  5.2593 -4.9217  0.1484
  316MOL0     H41701   9.481   8.750   5.164 -1.2641 -1.1495 -0.9488
  316MOL0     H41702   9.155   8.451   5.202  0.1422  0.4712  3.2130
  316MOL0     H41703   9.067   8.592   5.161 -1.1118 -2.6324  0.5477
  316MOL0     H41704   9.026   8.547   5.381 -1.0498  2.0871 -1.5227
  316MOL0     H41705   9.184   8.534   5.433 -2.0554  0.0329  0.4069
  316MOL0     H41706   9.196   8.802   5.333  0.4435  2.8897  3.4783
  316MOL0     H41707   9.172   8.738   5.494  0.4446 -2.0114 -0.3324
  316MOL0     H41708   9.005   8.903   5.405  3.6942 -0.4222  3.0831
  316MOL0     H41709   8.948   8.794   5.280 -1.7846 -0.1522 -0.0607
  316MOL0     H41710   8.752   8.662   5.648  1.1861  0.3418  1.5841
  316MOL0     H41711   9.333   8.383   5.279 -1.1680  1.6613 -2.9383
  316MOL0     H41712   9.540   8.295   5.342 -1.1754 -0.2107  0.5968
  317MOL0     O41713   6.129   2.462   8.599  0.7509 -0.2936 -0.1729
  317MOL0     C41714   6.215   2.383   8.570  0.0791 -1.2226  0.2918
  317MOL0     O41715   6.329   2.368   8.637 -0.0442 -0.4413  0.4223
  317MOL0     C41716   6.371   2.452   8.730  0.3437 -0.5216  0.6313
  317MOL0     C41717   6.350   2.589   8.742 -0.4830  0.1820  0.4196
  317MOL0     C41718   6.409   2.663   8.842 -0.7181  0.9701  0.8846
  317MOL0     C41719   6.500   2.603   8.933 -1.0038  0.7901  1.0214
  317MOL0     O41720   6.573   2.662   9.030 -0.2236  0.0971  0.0752
  317MOL0     C41721   6.501   2.719   9.135 -0.7834  1.0122  0.2649
  317MOL0     C41722   6.471   2.629   9.253 -0.1926 -0.7066  0.3548
  317MOL0     C41723   6.394   2.704   9.362  0.7997  0.4621  0.0383
  317MOL0     C41724   6.463   2.712   9.496  0.3711  0.6292 -0.7459
  317MOL0     C41725   6.386   2.789   9.603  0.6115 -0.7713  0.0331
  317MOL0     C41726   6.445   2.780   9.736 -0.4767 -0.5911  0.1670
  317MOL0     C41727   6.361   2.846   9.843  0.0056  0.4305 -0.1136
  317MOL0     C41728   6.343   2.749   9.964 -0.7875 -0.8891 -0.1009
  317MOL0     N41729   6.286   2.812  10.087  0.5660  0.7444  0.0497
  317MOL0     C41730   6.190   2.747  10.160 -0.8076 -0.6750 -0.1546
  317MOL0     C41731   6.203   2.809  10.278 -0.4780  0.2484  0.2611
  317MOL0     C41732   6.139   2.747  10.400  0.5582 -0.3390  0.8667
  317MOL0     C41733   6.242   2.664  10.471  0.0748  0.1733 -0.0943
  317MOL0     C41734   6.183   2.556  10.561  0.7254 -0.0414 -0.6498
  317MOL0     C41735   6.285   2.462  10.619 -0.2653  0.1473  0.4236
  317MOL0     O41736   6.392   2.539  10.677  0.0072  0.1429 -0.1040
  317MOL0     C41737   6.405   2.550  10.813 -0.2187  1.0561 -0.6504
  317MOL0     C41738   6.307   2.508  10.911  0.5174  0.2456  0.4604
  317MOL0     C41739   6.321   2.542  11.044 -0.3383  1.0314 -0.0007
  317MOL0     C41740   6.429   2.621  11.090 -0.3000 -0.5193  0.2798
  317MOL0     C41741   6.435   2.661  11.238  0.2985 -0.9610  0.6971
  317MOL0     O41742   6.547   2.730  11.285  0.1632  0.0617  0.0851
  317MOL0     C41743   6.558   2.740  11.422  1.2624 -0.4999  1.0933
  317MOL0     C41744   6.491   2.845  11.493 -0.0801  0.7153  0.3961
  317MOL0     C41745   6.515   2.846  11.632  0.9863 -0.1252 -0.2435
  317MOL0     C41746   6.572   2.755  11.713  0.5199 -0.0282 -0.1972
  317MOL0     O41747   6.569   2.767  11.849  0.6081 -0.0958  0.7497
  317MOL0     C41748   6.438   2.760  11.897  0.3378  0.6039  0.6455
  317MOL0     C41749   6.433   2.722  12.038  0.3499  0.7472  0.2160
  317MOL0     C41750   6.496   2.830  12.125  0.1965 -0.0808 -0.7081
  317MOL0     C41751   6.469   2.807  12.277 -0.2055  0.9557  1.3148
  317MOL0     C41752   6.558   2.906  12.359  0.5122 -0.2437  0.4727
  317MOL0     C41753   6.518   3.051  12.366  0.1380  0.6840  0.5465
  317MOL0     C41754   6.605   3.156  12.442  0.0898  0.1834  0.0894
  317MOL0     C41755   6.717   3.201  12.352 -0.1772  0.5427  0.1939
  317MOL0    Cl41756   6.828   3.316  12.424 -0.2030  0.3867  0.1353
  317MOL0     C41757   6.634   2.651  11.643 -1.0280 -0.4072  0.0534
  317MOL0     C41758   6.634   2.650  11.498 -0.1083  0.7658 -0.6007
  317MOL0     O41759   6.336   2.619  11.306 -0.3121  0.0993  0.1277
  317MOL0     C41760   6.528   2.648  10.997 -0.7399  0.0334  0.4365
  317MOL0     C41761   6.522   2.607  10.861  0.7334 -0.2378 -0.8041
  317MOL0     N41762   6.292   2.908  10.273 -0.3247 -0.5234 -0.2085
  317MOL0     N41763   6.345   2.912  10.159  0.2561 -0.3477  0.2346
  317MOL0     C41764   6.523   2.474   8.912 -0.1122 -1.1662 -0.7938
  317MOL0     C41765   6.464   2.399   8.815 -0.1908 -0.9240  0.4198
  317MOL0     C41766   6.174   2.282   8.466 -0.1739 -0.4055 -0.2746
  317MOL0     C41767   6.239   2.161   8.475 -0.1618  0.4359  0.2732
  317MOL0     C41768   6.198   2.052   8.407  0.3424  0.5340 -0.1784
  317MOL0     C41769   6.091   2.066   8.320  0.4506  0.5645  0.1498
  317MOL0     O41770   6.054   1.947   8.254 -0.1453  0.2279  0.0435
  317MOL0     C41771   5.964   1.937   8.139 -0.1743  0.7682 -0.3438
  317MOL0     C41772   5.861   1.823   8.151 -0.5609 -0.5693 -0.2897
  317MOL0     C41773   5.949   1.699   8.171  0.7888 -0.4750 -0.0456
  317MOL0     C41774   5.890   1.571   8.215  0.6343  0.4901 -0.7824
  317MOL0     C41775   5.805   1.520   8.112 -0.2262  0.4544  0.3989
  317MOL0     C41776   5.738   1.490   8.022  0.1208 -0.2912  0.3600
  317MOL0     C41777   6.016   2.189   8.315  0.7603  0.2307 -0.5838
  317MOL0     C41778   6.062   2.300   8.391  0.8390  0.3266 -0.1101
  317MOL0     H41779   6.285   2.639   8.670 -2.3001 -1.0030  1.1763
  317MOL0     H41780   6.385   2.769   8.835 -0.6105  1.2299  3.5692
  317MOL0     H41781   6.406   2.741   9.085 -1.2124 -0.8052  0.1914
  317MOL0     H41782   6.544   2.814   9.168 -1.6173  0.5822  2.7746
  317MOL0     H41783   6.570   2.595   9.286  0.2000 -0.2344 -0.3028
  317MOL0     H41784   6.408   2.547   9.217 -0.3550 -0.8199  0.8842
  317MOL0     H41785   6.302   2.644   9.364  0.7338  0.4181 -2.0195
  317MOL0     H41786   6.379   2.805   9.321 -1.5421 -0.8538 -2.7131
  317MOL0     H41787   6.486   2.615   9.542 -0.4784  0.0412 -1.5352
  317MOL0     H41788   6.553   2.772   9.480  0.2457  1.3701  1.0709
  317MOL0     H41789   6.280   2.760   9.608  0.7062 -1.2446 -0.6378
  317MOL0     H41790   6.378   2.896   9.579  0.4535 -0.0002  3.0758
  317MOL0     H41791   6.542   2.831   9.735  0.4200 -2.2286  0.6562
  317MOL0     H41792   6.469   2.674   9.751 -1.0830 -0.8500 -0.6296
  317MOL0     H41793   6.423   2.926   9.884 -0.5797  1.1979 -0.6975
  317MOL0     H41794   6.270   2.888   9.798  0.8030 -0.1130 -2.3278
  317MOL0     H41795   6.440   2.709   9.995 -1.8936 -3.2669  0.5424
  317MOL0     H41796   6.281   2.666   9.928 -1.3569  0.3827 -2.2022
  317MOL0     H41797   6.134   2.661  10.126 -0.4058 -0.1661 -2.2427
  317MOL0     H41798   6.046   2.692  10.382 -0.4989  0.9074  2.2842
  317MOL0     H41799   6.106   2.829  10.464 -0.5999  1.6688 -2.0893
  317MOL0     H41800   6.317   2.720  10.528 -0.1992  0.0030  0.4440
  317MOL0     H41801   6.293   2.610  10.391  0.6389 -1.0674  1.0606
  317MOL0     H41802   6.122   2.607  10.635 -0.8372 -2.3918 -0.2214
  317MOL0     H41803   6.122   2.495  10.494 -0.9170  1.1943 -0.3460
  317MOL0     H41804   6.321   2.411  10.529  1.3896  2.8665 -0.5603
  317MOL0     H41805   6.230   2.392  10.682 -2.6721  2.2547  0.8387
  317MOL0     H41806   6.219   2.453  10.878 -0.7482  1.8609  1.0127
  317MOL0     H41807   6.242   2.498  11.103 -0.5587  0.9744 -0.3418
  317MOL0     H41808   6.433   2.918  11.438 -0.5704  1.0779  1.3789
  317MOL0     H41809   6.472   2.927  11.690 -2.0893 -0.8882 -1.2696
  317MOL0     H41810   6.382   2.681  11.847 -0.2465 -0.2909  2.6250
  317MOL0     H41811   6.386   2.857  11.892 -0.4695  0.2373  1.6848
  317MOL0     H41812   6.499   2.634  12.041  1.0908  1.2578 -0.6029
  317MOL0     H41813   6.332   2.700  12.074  0.8881  0.6518  1.7361
  317MOL0     H41814   6.449   2.928  12.110  2.7744  1.4526  0.5984
  317MOL0     H41815   6.603   2.839  12.107  0.6041 -1.6771  0.6879
  317MOL0     H41816   6.361   2.803  12.296 -0.2262 -1.3341  0.9980
  317MOL0     H41817   6.518   2.712  12.300 -0.7482  0.0847 -0.9004
  317MOL0     H41818   6.655   2.908  12.308 -0.4175  2.1310 -1.4036
  317MOL0     H41819   6.568   2.873  12.463 -0.5295  0.0650  0.6804
  317MOL0     H41820   6.413   3.048  12.397  0.4421 -0.7241  1.5492
  317MOL0     H41821   6.508   3.079  12.261 -0.7976  0.0164  0.4484
  317MOL0     H41822   6.543   3.243  12.463 -0.5926 -0.6066  1.4918
  317MOL0     H41823   6.643   3.108  12.532  0.5385  2.2560  1.0671
  317MOL0     H41824   6.683   3.237  12.254  0.4612 -2.4558 -1.2407
  317MOL0     H41825   6.781   3.114  12.335 -3.4772 -1.6699 -1.9802
  317MOL0     H41826   6.675   2.575  11.710 -1.3537  1.8827  3.0840
  317MOL0     H41827   6.682   2.570  11.442 -1.8539 -0.1543 -0.8342
  317MOL0     H41828   6.617   2.699  11.033  0.2343  0.8457 -2.7818
  317MOL0     H41829   6.595   2.641  10.788 -0.8912  1.2534 -1.8225
  317MOL0     H41830   6.591   2.423   8.981 -1.1460  0.0544  1.2358
  317MOL0     H41831   6.503   2.297   8.816  1.3052 -0.3805 -0.0239
  317MOL0     H41832   6.318   2.145   8.548 -0.9203  0.7918  1.1993
  317MOL0     H41833   6.243   1.953   8.403  1.4435  1.0064  0.1640
  317MOL0     H41834   6.026   1.934   8.050 -0.3015  3.8138 -0.6595
  317MOL0     H41835   5.903   2.026   8.119 -2.4337  0.1376  2.8887
  317MOL0     H41836   5.808   1.865   8.238 -1.1342  0.1874 -0.9835
  317MOL0     H41837   5.806   1.813   8.057  0.8902 -1.4084 -1.0751
  317MOL0     H41838   6.019   1.715   8.254  2.4696  0.8976 -1.6427
  317MOL0     H41839   6.015   1.686   8.085 -1.4602 -1.4705 -1.6986
  317MOL0     H41840   5.969   1.497   8.233 -0.1920 -0.8781 -2.4743
  317MOL0     H41841   5.837   1.571   8.311  1.6252  2.6014 -0.1820
  317MOL0     H41842   5.651   1.478   7.961 -0.9800 -0.6890  1.9400
  317MOL0     H41843   5.918   2.198   8.267 -0.7110  4.3151  2.6189
  317MOL0     H41844   6.010   2.395   8.385  0.8110  0.2764 -0.8323
  318MOL0     O41845  10.025   4.131   2.611 -0.7976 -0.6330 -0.1356
  318MOL0     C41846  10.051   4.192   2.508  0.4074 -0.3957  0.7478
  318MOL0     O41847  10.174   4.231   2.469 -0.1612 -0.9122 -0.1176
  318MOL0     C41848  10.276   4.177   2.545  0.9922 -0.0184  0.2737
  318MOL0     C41849  10.373   4.278   2.563 -1.3756  0.0180 -0.5107
  318MOL0     C41850  10.499   4.247   2.612 -0.8325  0.0472 -0.2206
  318MOL0     C41851  10.521   4.126   2.673  0.4447  0.3378 -0.0321
  318MOL0     O41852  10.638   4.108   2.751 -0.8661  0.3970 -0.1458
  318MOL0     C41853  10.635   4.004   2.855  0.3229 -0.5024 -0.1838
  318MOL0     C41854  10.772   3.994   2.917  0.6532  0.1311 -1.0325
  318MOL0     C41855  10.797   4.125   2.991  0.6214 -0.6153  0.0304
  318MOL0     C41856  10.920   4.119   3.081 -0.7211 -0.0092  0.0694
  318MOL0     C41857  11.038   4.176   3.002 -0.3674 -0.1230  0.5359
  318MOL0     C41858  11.177   4.166   3.073 -0.3923  0.9207  0.0436
  318MOL0     C41859  11.186   4.232   3.209 -0.6936  0.3577  0.3146
  318MOL0     C41860  11.162   4.377   3.204 -0.9330 -0.1137 -0.4942
  318MOL0     N41861  11.124   4.459   3.325  0.5319 -0.4025 -0.1275
  318MOL0     C41862  11.194   4.557   3.388 -0.0412  1.0217  0.4219
  318MOL0     C41863  11.121   4.597   3.483  0.0820  0.2620  0.2726
  318MOL0     C41864  11.152   4.703   3.586  0.1655 -0.3878  0.3064
  318MOL0     C41865  11.042   4.814   3.592  0.1625 -0.2022 -0.6472
  318MOL0     C41866  11.007   4.869   3.459 -0.4853  0.9192 -0.9760
  318MOL0     C41867  10.902   4.979   3.473  0.8062 -0.4245 -1.3733
  318MOL0     O41868  10.815   4.989   3.363 -0.7568 -0.1175  0.2002
  318MOL0     C41869  10.697   4.922   3.349 -0.4180 -0.0012 -0.4195
  318MOL0     C41870  10.639   4.830   3.436  0.6119  0.7824  0.1367
  318MOL0     C41871  10.512   4.775   3.416 -0.0036  0.1063 -0.4299
  318MOL0     C41872  10.438   4.817   3.300 -0.8053 -0.1330 -0.8525
  318MOL0     C41873  10.301   4.769   3.276 -0.7376 -0.7648  0.1665
  318MOL0     O41874  10.265   4.654   3.331 -0.4784 -0.6001 -0.4856
  318MOL0     C41875  10.131   4.617   3.332  0.0639 -0.6064  0.1732
  318MOL0     C41876  10.090   4.535   3.224  0.2183  0.2715 -0.1595
  318MOL0     C41877   9.954   4.495   3.223  0.1109 -0.0599  0.4701
  318MOL0     C41878   9.870   4.528   3.336 -0.4094 -0.4285  0.3192
  318MOL0     O41879   9.742   4.470   3.346 -0.1849 -0.0216  0.1968
  318MOL0     C41880   9.657   4.426   3.242 -0.9408 -0.5029 -0.1765
  318MOL0     C41881   9.513   4.451   3.286 -0.3964  0.0799 -0.4363
  318MOL0     C41882   9.472   4.599   3.297  0.2379 -0.2487  0.3764
  318MOL0     C41883   9.319   4.627   3.323  0.0889  0.3517  0.2816
  318MOL0     C41884   9.252   4.543   3.432 -0.4206  1.1058 -0.2488
  318MOL0     C41885   9.118   4.589   3.483  0.1471  0.2815 -0.9643
  318MOL0     C41886   9.086   4.536   3.628  0.1951 -1.0420  0.0334
  318MOL0     C41887   9.030   4.398   3.627  0.1610  0.5112  0.7393
  318MOL0    Cl41888   8.974   4.374   3.788 -0.1346 -0.1521  0.0331
  318MOL0     C41889   9.916   4.604   3.439 -0.5427 -0.3226  0.1419
  318MOL0     C41890  10.055   4.645   3.444 -0.0294 -0.1372 -0.2199
  318MOL0     O41891  10.227   4.843   3.208  0.9884  0.0825  0.2557
  318MOL0     C41892  10.500   4.921   3.211  0.8580  0.6244 -0.6893
  318MOL0     C41893  10.615   4.975   3.247 -0.9296  0.0739  0.3163
  318MOL0     N41894  11.021   4.507   3.497  0.6616  0.0891 -0.4982
  318MOL0     N41895  11.023   4.419   3.406 -0.7251 -0.1955  0.5602
  318MOL0     C41896  10.434   4.021   2.654  0.7723 -0.4601  0.8830
  318MOL0     C41897  10.310   4.046   2.595 -0.6322 -0.1338 -0.3527
  318MOL0     C41898   9.934   4.229   2.424 -0.2180 -0.3883 -0.4373
  318MOL0     C41899   9.806   4.172   2.451  0.5551  0.4073 -0.3827
  318MOL0     C41900   9.712   4.181   2.349  1.0831 -0.3736 -0.0350
  318MOL0     C41901   9.726   4.258   2.228 -0.2614  0.4807 -0.3281
  318MOL0     O41902   9.636   4.281   2.129  0.1123  0.4186  0.1612
  318MOL0     C41903   9.491   4.290   2.163 -0.1082  0.3471 -0.6219
  318MOL0     C41904   9.463   4.428   2.228  0.2002  0.5097  0.0403
  318MOL0     C41905   9.446   4.543   2.124 -1.1083  0.9907  0.0287
  318MOL0     C41906   9.463   4.687   2.186  0.6599 -0.2055  0.0920
  318MOL0     C41907   9.341   4.745   2.258  0.5968  0.2207  0.2998
  318MOL0     C41908   9.248   4.777   2.334  0.1868 -0.5573 -0.6787
  318MOL0     C41909   9.856   4.318   2.214 -0.9390  0.5931 -0.0140
  318MOL0     C41910   9.957   4.295   2.310 -0.7233 -0.0266 -0.1426
  318MOL0     H41911  10.346   4.379   2.536  0.3336  1.2772  2.1320
  318MOL0     H41912  10.567   4.331   2.616 -2.0709  1.1465 -1.0605
  318MOL0     H41913  10.603   3.905   2.823 -0.4953 -0.2962 -0.0056
  318MOL0     H41914  10.563   4.033   2.932  1.0510  3.6863 -0.8213
  318MOL0     H41915  10.858   3.967   2.855  0.5735  0.3036 -1.2198
  318MOL0     H41916  10.778   3.924   3.000 -0.7203  1.0171 -0.1401
  318MOL0     H41917  10.713   4.153   3.055  0.7277  1.3070 -0.6114
  318MOL0     H41918  10.815   4.207   2.920 -1.2275  1.1559  1.5088
  318MOL0     H41919  10.907   4.185   3.167  1.1861 -0.5705  0.8474
  318MOL0     H41920  10.928   4.020   3.127 -2.4788  0.5604  1.7098
  318MOL0     H41921  11.024   4.276   2.959  0.1114 -0.0925  0.4474
  318MOL0     H41922  11.038   4.105   2.919 -4.1302  1.8267 -1.3612
  318MOL0     H41923  11.253   4.185   2.996  0.3195 -3.0986 -0.4809
  318MOL0     H41924  11.185   4.058   3.085  1.0009  0.7053 -2.1985
  318MOL0     H41925  11.125   4.190   3.290  1.0080 -2.4265  0.2839
  318MOL0     H41926  11.289   4.217   3.243 -1.4470 -3.1270  1.5008
  318MOL0     H41927  11.083   4.400   3.132 -2.7242 -0.2033  1.3779
  318MOL0     H41928  11.257   4.415   3.165 -0.3517  0.0290  0.9959
  318MOL0     H41929  11.293   4.588   3.356 -0.1305  0.1421 -0.7751
  318MOL0     H41930  11.252   4.745   3.569  2.0901 -1.7448  6.0750
  318MOL0     H41931  11.158   4.657   3.685 -1.0943 -0.1228  0.5285
  318MOL0     H41932  11.078   4.901   3.647 -5.3501  2.4084 -0.4110
  318MOL0     H41933  10.956   4.775   3.647  0.9804 -0.6173  0.3507
  318MOL0     H41934  11.094   4.920   3.416  1.2503 -1.4935 -0.4909
  318MOL0     H41935  10.977   4.784   3.398  1.8261 -1.7290  1.3113
  318MOL0     H41936  10.949   5.077   3.487 -0.7697  0.2651 -0.6903
  318MOL0     H41937  10.844   4.980   3.566 -0.3388  3.3109 -1.9530
  318MOL0     H41938  10.696   4.795   3.521  3.7044  1.6611 -1.4466
  318MOL0     H41939  10.469   4.690   3.467  0.4535  1.4220  2.3502
  318MOL0     H41940  10.146   4.497   3.139  1.6275  1.8397  0.0291
  318MOL0     H41941   9.901   4.433   3.151 -1.5303 -0.5186  1.9912
  318MOL0     H41942   9.666   4.320   3.219 -3.8644 -0.5748 -1.3649
  318MOL0     H41943   9.673   4.490   3.155  0.0569 -1.1167 -0.4594
  318MOL0     H41944   9.496   4.402   3.382  1.9582  2.6823  1.4848
  318MOL0     H41945   9.447   4.408   3.210 -1.4357  2.0284 -0.6916
  318MOL0     H41946   9.485   4.649   3.201 -0.2433 -0.6182  0.1082
  318MOL0     H41947   9.530   4.645   3.376  0.0942  2.0924 -0.8088
  318MOL0     H41948   9.303   4.734   3.338  2.9643  1.0604 -1.1867
  318MOL0     H41949   9.280   4.595   3.226  1.5496  0.4334 -0.3489
  318MOL0     H41950   9.321   4.546   3.517  0.2188  0.8429 -0.7470
  318MOL0     H41951   9.249   4.436   3.410  0.7187  1.2656 -1.2864
  318MOL0     H41952   9.032   4.572   3.418  0.4542 -3.8067 -0.5909
  318MOL0     H41953   9.114   4.698   3.489 -2.2489  0.1945  0.7744
  318MOL0     H41954   9.185   4.537   3.674 -0.4579 -1.6322  1.5035
  318MOL0     H41955   9.007   4.602   3.665 -1.3927 -1.9395 -1.5821
  318MOL0     H41956   9.116   4.332   3.613 -1.9637 -2.1027 -1.0307
  318MOL0     H41957   8.959   4.385   3.545  1.8707  2.8102 -1.2766
  318MOL0     H41958   9.847   4.633   3.518 -2.5842  0.2407 -1.7640
  318MOL0     H41959  10.092   4.703   3.528  2.5817 -2.8172  0.6445
  318MOL0     H41960  10.441   4.978   3.140  1.1596  1.5791 -0.1930
  318MOL0     H41961  10.652   5.061   3.192 -0.7421  0.9836  1.7840
  318MOL0     H41962  10.453   3.918   2.682 -2.9549 -1.1437  1.4327
  318MOL0     H41963  10.248   3.960   2.572  0.0301 -0.0762 -2.6602
  318MOL0     H41964   9.793   4.116   2.543  4.4410 -2.2555 -1.2139
  318MOL0     H41965   9.620   4.124   2.353  2.5732 -2.9304  0.0723
  318MOL0     H41966   9.467   4.212   2.236  0.3424  0.8811  0.1008
  318MOL0     H41967   9.435   4.290   2.069  1.9505 -0.1774 -1.9134
  318MOL0     H41968   9.365   4.427   2.277  1.4718  1.5888  2.8533
  318MOL0     H41969   9.548   4.456   2.291  2.6792 -2.3236 -1.7655
  318MOL0     H41970   9.354   4.540   2.064 -1.0244 -5.4053 -0.4278
  318MOL0     H41971   9.525   4.527   2.050 -0.1965  1.6468  0.8473
  318MOL0     H41972   9.546   4.680   2.256  0.6154 -4.0606 -0.0522
  318MOL0     H41973   9.484   4.757   2.104 -0.0172 -1.8242 -1.5503
  318MOL0     H41974   9.162   4.795   2.395 -1.7761 -7.0803 -0.8209
  318MOL0     H41975   9.876   4.377   2.125  0.2955  1.4986  0.8326
  318MOL0     H41976  10.052   4.330   2.270 -1.6559  1.2867 -1.3084
  319MOL0     O41977   5.104   8.320   1.164 -0.1258  0.4586  0.2929
  319MOL0     C41978   5.218   8.307   1.141 -0.0416  0.2518 -0.1232
  319MOL0     O41979   5.322   8.381   1.183  0.5040 -0.0445 -0.4416
  319MOL0     C41980   5.299   8.466   1.290  0.3436 -0.8552  0.7733
  319MOL0     C41981   5.229   8.580   1.264  0.0529 -0.7733  0.1428
  319MOL0     C41982   5.217   8.676   1.367  0.0767  0.0387 -0.1362
  319MOL0     C41983   5.283   8.659   1.494  0.4357 -0.8224  0.4010
  319MOL0     O41984   5.298   8.755   1.591 -0.5680  0.2683 -0.3762
  319MOL0     C41985   5.259   8.889   1.545 -0.4533  0.6441 -0.5976
  319MOL0     C41986   5.305   9.005   1.628 -0.0929 -0.8018 -0.4396
  319MOL0     C41987   5.282   9.136   1.559 -0.1714  0.0783  0.3135
  319MOL0     C41988   5.335   9.254   1.639  0.1304 -0.4010 -0.7790
  319MOL0     C41989   5.294   9.375   1.568  0.5092 -0.6245 -0.4682
  319MOL0     C41990   5.376   9.499   1.612  0.2022 -0.3092 -0.5457
  319MOL0     C41991   5.358   9.623   1.521 -0.0830 -0.5307 -0.3564
  319MOL0     C41992   5.218   9.685   1.541  0.6340 -0.3165 -0.6702
  319MOL0     N41993   5.199   9.712   1.681 -0.5225  0.2313 -0.2056
  319MOL0     C41994   5.281   9.801   1.762 -0.4552  0.1503  0.4507
  319MOL0     C41995   5.245   9.763   1.889 -0.4128  0.0261  0.4053
  319MOL0     C41996   5.283   9.833   2.022 -0.1899 -0.2846  0.7877
  319MOL0     C41997   5.192   9.949   2.048  1.1240  1.7019 -0.3577
  319MOL0     C41998   5.240  10.054   2.144 -0.1157  0.4559 -0.2403
  319MOL0     C41999   5.333  10.154   2.085 -0.5851  0.4612  0.0851
  319MOL0     O42000   5.450  10.081   2.053 -0.0767  1.0350 -0.3376
  319MOL0     C42001   5.559  10.128   1.985 -0.2753 -0.2190 -0.1224
  319MOL0     C42002   5.571  10.261   1.952  0.8938 -0.3958  0.1640
  319MOL0     C42003   5.668  10.309   1.870 -0.1970 -0.4858  0.3266
  319MOL0     C42004   5.771  10.232   1.824 -0.2616  0.6316  0.0894
  319MOL0     C42005   5.872  10.277   1.732 -0.5807 -0.6421 -0.2524
  319MOL0     O42006   5.827  10.380   1.648  0.0319 -0.5143  0.2567
  319MOL0     C42007   5.900  10.448   1.546  0.2843  0.3060 -1.3511
  319MOL0     C42008   5.814  10.496   1.449 -0.0192  0.1156 -0.1386
  319MOL0     C42009   5.868  10.590   1.350  0.5414 -0.2645  0.2682
  319MOL0     C42010   6.005  10.619   1.365 -1.0427  0.3068 -0.0304
  319MOL0     O42011   6.077  10.700   1.275 -0.3023 -0.4023  0.2722
  319MOL0     C42012   6.013  10.735   1.150 -0.7515  0.7023  1.1905
  319MOL0     C42013   6.130  10.795   1.057  0.4854 -0.3770  0.1830
  319MOL0     C42014   6.249  10.712   1.022  1.6351  0.1001  0.2974
  319MOL0     C42015   6.336  10.770   0.909  0.4795 -0.4012 -0.5875
  319MOL0     C42016   6.323  10.702   0.774 -0.1925  1.0041 -0.3685
  319MOL0     C42017   6.410  10.767   0.661  1.1801 -0.8027  0.2581
  319MOL0     C42018   6.514  10.681   0.591 -0.6003 -0.9498  0.2241
  319MOL0     C42019   6.610  10.606   0.689 -0.1599 -0.6337 -0.0639
  319MOL0    Cl42020   6.733  10.730   0.749 -0.1861 -0.3489 -0.3647
  319MOL0     C42021   6.087  10.566   1.464  0.6052 -0.4292 -1.2853
  319MOL0     C42022   6.031  10.477   1.550 -0.2019 -0.8045  0.3155
  319MOL0     O42023   5.986  10.235   1.734 -0.1051  0.6824 -0.5382
  319MOL0     C42024   5.771  10.098   1.875 -0.4821 -0.2330  0.7349
  319MOL0     C42025   5.670  10.047   1.967  0.0830 -0.0128  0.3748
  319MOL0     N42026   5.123   9.687   1.884  0.3166 -0.4933 -0.7197
  319MOL0     N42027   5.108   9.652   1.761  0.7017  0.2298  0.1210
  319MOL0     C42028   5.341   8.539   1.518 -0.6817 -0.9828  0.5538
  319MOL0     C42029   5.347   8.445   1.417 -0.6391  0.0438 -0.2925
  319MOL0     C42030   5.245   8.176   1.060 -0.2623  0.3916 -1.1824
  319MOL0     C42031   5.378   8.150   1.046  0.3063 -0.6087  0.0234
  319MOL0     C42032   5.416   8.032   0.972 -0.1116  0.3722  0.0740
  319MOL0     C42033   5.321   7.948   0.915  0.2021 -0.4686  0.9725
  319MOL0     O42034   5.333   7.828   0.848 -0.2899 -0.3298 -0.2123
  319MOL0     C42035   5.457   7.807   0.775 -0.2863 -0.1594  0.5494
  319MOL0     C42036   5.435   7.709   0.664 -0.6417 -0.7906  0.8270
  319MOL0     C42037   5.345   7.764   0.549  0.6293 -0.5241  0.4407
  319MOL0     C42038   5.208   7.693   0.552  0.9173 -0.0052 -0.2835
  319MOL0     C42039   5.127   7.739   0.435 -0.1413  0.1092  0.5467
  319MOL0     C42040   5.041   7.770   0.350  0.4726 -0.1685  0.6089
  319MOL0     C42041   5.190   7.980   0.927  0.2617  0.9366 -0.7783
  319MOL0     C42042   5.147   8.097   1.000 -0.4683 -0.0404  0.5125
  319MOL0     H42043   5.172   8.600   1.173  1.2305 -0.0356 -0.4546
  319MOL0     H42044   5.154   8.758   1.334 -0.4062  1.8183  4.4689
  319MOL0     H42045   5.150   8.889   1.534 -0.8556 -0.7173  2.4567
  319MOL0     H42046   5.296   8.910   1.444 -0.7607 -0.4978 -0.9657
  319MOL0     H42047   5.412   8.988   1.645 -0.1646 -0.7121  0.1372
  319MOL0     H42048   5.256   9.001   1.726  1.0338  0.9700  0.2494
  319MOL0     H42049   5.176   9.154   1.536  0.3929  0.9756 -1.7787
  319MOL0     H42050   5.328   9.138   1.461 -3.3401 -1.7135 -1.3894
  319MOL0     H42051   5.285   9.248   1.737  0.9024 -0.9318 -0.4127
  319MOL0     H42052   5.443   9.259   1.652  0.4028  2.0761 -3.0962
  319MOL0     H42053   5.186   9.392   1.570  0.6751  0.4098  0.7786
  319MOL0     H42054   5.323   9.351   1.465 -2.6226 -0.5579 -1.4928
  319MOL0     H42055   5.483   9.478   1.605  0.4961  0.8482  0.2309
  319MOL0     H42056   5.347   9.521   1.716 -3.4248  0.4877 -1.5813
  319MOL0     H42057   5.436   9.697   1.541 -0.1798 -1.1661  2.8103
  319MOL0     H42058   5.370   9.604   1.414 -1.4389  2.2620 -1.0925
  319MOL0     H42059   5.139   9.614   1.517  0.3922  0.2214 -1.4909
  319MOL0     H42060   5.203   9.767   1.470 -0.9303 -0.7322 -0.8557
  319MOL0     H42061   5.350   9.879   1.734 -1.9343  0.3845 -3.0360
  319MOL0     H42062   5.389   9.857   2.014 -0.2401 -0.3107  0.0547
  319MOL0     H42063   5.276   9.757   2.102  0.7840  0.8167  1.9606
  319MOL0     H42064   5.091   9.916   2.076  1.3324 -0.3350 -1.8014
  319MOL0     H42065   5.168   9.986   1.948 -0.5112  1.5206 -0.0630
  319MOL0     H42066   5.152  10.114   2.170  1.7907  2.7108  1.5192
  319MOL0     H42067   5.276  10.005   2.235 -0.2667 -1.2382 -1.0635
  319MOL0     H42068   5.366  10.227   2.159  1.2781  0.8575 -1.0670
  319MOL0     H42069   5.288  10.197   1.996 -1.0841  1.0997  0.6331
  319MOL0     H42070   5.480  10.320   1.961  1.0533  0.3299 -2.1643
  319MOL0     H42071   5.662  10.414   1.842 -1.3685 -0.6131  0.0639
  319MOL0     H42072   5.706  10.483   1.443  0.1384 -0.3831 -3.2867
  319MOL0     H42073   5.797  10.614   1.271  0.2871 -0.6658  0.3672
  319MOL0     H42074   5.937  10.813   1.164  1.2545  3.0873 -0.3723
  319MOL0     H42075   5.970  10.647   1.101 -1.8152  2.1035 -0.5465
  319MOL0     H42076   6.168  10.883   1.110 -1.1867 -0.1951  1.1502
  319MOL0     H42077   6.094  10.829   0.959  2.1185  0.4707 -0.1664
  319MOL0     H42078   6.198  10.625   0.980  0.4356  1.1796 -0.6020
  319MOL0     H42079   6.310  10.699   1.111  0.9172 -0.1836  0.7518
  319MOL0     H42080   6.328  10.878   0.899 -0.8788 -0.4850 -0.6710
  319MOL0     H42081   6.437  10.752   0.946 -0.1811  0.0114  1.5864
  319MOL0     H42082   6.219  10.708   0.740  0.1012  1.3539 -1.2359
  319MOL0     H42083   6.347  10.598   0.797  0.6494  1.0726 -0.8817
  319MOL0     H42084   6.443  10.866   0.695 -1.0487 -0.6337  2.1982
  319MOL0     H42085   6.331  10.787   0.589  3.3161  0.9330 -1.7767
  319MOL0     H42086   6.466  10.616   0.517  0.8804 -0.2461 -1.4376
  319MOL0     H42087   6.570  10.752   0.529 -1.1905 -0.6755 -0.0038
  319MOL0     H42088   6.665  10.528   0.636  0.0503 -1.2412  1.0123
  319MOL0     H42089   6.551  10.563   0.771 -1.4253 -0.6747 -0.9777
  319MOL0     H42090   6.189  10.604   1.473  0.4445 -0.2961  0.2091
  319MOL0     H42091   6.095  10.454   1.634 -1.2782  1.1025  1.7601
  319MOL0     H42092   5.843  10.019   1.857 -0.7891 -0.4075  0.2751
  319MOL0     H42093   5.684   9.943   1.992  1.9166  0.3418  0.9578
  319MOL0     H42094   5.379   8.523   1.618 -1.8907  0.3264  1.2448
  319MOL0     H42095   5.406   8.357   1.438 -0.5249  0.4183  1.0220
  319MOL0     H42096   5.463   8.206   1.083  0.6709 -0.7189 -0.6265
  319MOL0     H42097   5.522   8.013   0.959 -0.6152 -1.2394 -2.1591
  319MOL0     H42098   5.531   7.774   0.849 -1.9690  0.8655  2.8431
  319MOL0     H42099   5.504   7.901   0.742 -0.8230  0.5972  1.8465
  319MOL0     H42100   5.540   7.703   0.632 -0.8575  0.6661 -0.2674
  319MOL0     H42101   5.402   7.615   0.709 -3.6562 -0.6962 -0.9714
  319MOL0     H42102   5.390   7.748   0.451 -3.7319 -2.3779 -1.5606
  319MOL0     H42103   5.330   7.871   0.563 -1.4308 -0.1729 -3.1570
  319MOL0     H42104   5.209   7.585   0.536 -2.8507 -0.1137 -0.6902
  319MOL0     H42105   5.163   7.716   0.649  0.5865 -1.0223 -0.1840
  319MOL0     H42106   4.985   7.806   0.266  3.4834  2.0438 -0.6754
  319MOL0     H42107   5.108   7.928   0.879 -1.7077  3.2054 -0.0594
  319MOL0     H42108   5.044   8.132   0.997 -0.7749 -1.0152 -1.0531
  320MOL0     O42109  11.141   8.434   5.695  0.5342 -0.8929  0.1231
  320MOL0     C42110  11.164   8.318   5.691  0.0844 -0.1544  0.5594
  320MOL0     O42111  11.263   8.252   5.745  0.4392  0.0970  0.9897
  320MOL0     C42112  11.362   8.306   5.824  0.3046  1.1776  0.2421
  320MOL0     C42113  11.493   8.265   5.817  0.4262 -0.1368  0.3269
  320MOL0     C42114  11.589   8.323   5.893  0.2826 -0.1217  0.5371
  320MOL0     C42115  11.563   8.415   5.991  0.4444  0.0261  0.4317
  320MOL0     O42116  11.671   8.445   6.066  0.0241 -0.3586 -0.2638
  320MOL0     C42117  11.652   8.431   6.205 -0.0852  0.1051  0.7215
  320MOL0     C42118  11.779   8.371   6.268  0.3418  0.1127  0.6203
  320MOL0     C42119  11.774   8.328   6.419 -0.4038 -0.5575  0.2940
  320MOL0     C42120  11.770   8.437   6.522 -0.2857  0.4941  0.6568
  320MOL0     C42121  11.771   8.401   6.664 -1.2635  0.1413 -0.1444
  320MOL0     C42122  11.902   8.341   6.700  0.5220 -1.0907 -0.8338
  320MOL0     C42123  12.005   8.451   6.746 -0.3147  0.6360  0.7696
  320MOL0     C42124  11.968   8.510   6.882  0.2908 -0.3596 -0.0187
  320MOL0     N42125  12.067   8.597   6.941 -0.5629  0.5358  0.5033
  320MOL0     C42126  12.093   8.635   7.071 -0.2305  0.5570  0.4263
  320MOL0     C42127  12.195   8.719   7.064  0.9033  0.0358  0.0505
  320MOL0     C42128  12.260   8.809   7.164 -0.3586 -0.6800  0.5276
  320MOL0     C42129  12.315   8.743   7.287  0.0317  0.2109  0.1968
  320MOL0     C42130  12.432   8.822   7.370  0.7576 -0.0448 -0.0379
  320MOL0     C42131  12.530   8.898   7.278  0.5052  1.0253  0.6695
  320MOL0     O42132  12.597   8.791   7.204 -0.2649  0.4913 -0.6183
  320MOL0     C42133  12.698   8.831   7.117  0.0845  0.4426  0.5438
  320MOL0     C42134  12.737   8.964   7.094  0.0645 -0.0133  0.4358
  320MOL0     C42135  12.850   8.991   7.014 -0.1609 -0.5978 -0.0996
  320MOL0     C42136  12.933   8.887   6.968 -0.6556 -1.7228 -0.1409
  320MOL0     C42137  13.069   8.905   6.897 -0.3097 -0.9070 -0.3825
  320MOL0     O42138  13.140   8.787   6.869  0.3544 -0.2954  0.0549
  320MOL0     C42139  13.268   8.810   6.810  0.4591 -0.2590 -0.4805
  320MOL0     C42140  13.306   8.709   6.712 -0.0582  0.2440  0.4657
  320MOL0     C42141  13.439   8.711   6.654  0.4091  0.3160  0.3765
  320MOL0     C42142  13.537   8.805   6.695  0.0915  0.0283  0.4242
  320MOL0     O42143  13.664   8.788   6.642 -0.2368  0.0837 -0.8983
  320MOL0     C42144  13.768   8.876   6.663 -0.0369 -0.6906  1.1804
  320MOL0     C42145  13.839   8.905   6.535 -0.1518  0.2625 -0.3043
  320MOL0     C42146  13.756   8.964   6.426  0.0070  0.1738  0.0314
  320MOL0     C42147  13.841   8.984   6.300  0.6582  0.6597 -0.4391
  320MOL0     C42148  13.941   9.085   6.332 -1.4186 -0.3574 -0.1180
  320MOL0     C42149  13.997   9.146   6.207  0.1712  0.2832 -0.1241
  320MOL0     C42150  14.102   9.259   6.223  0.0134 -0.2490 -0.2466
  320MOL0     C42151  14.101   9.327   6.085 -1.1392 -0.1344  0.2343
  320MOL0    Cl42152  14.252   9.413   6.066 -0.4436  0.0731  0.2359
  320MOL0     C42153  13.498   8.896   6.793  0.2076  0.1135 -0.8588
  320MOL0     C42154  13.369   8.903   6.853  0.4445  0.0995  0.4503
  320MOL0     O42155  13.088   9.017   6.850 -0.5403 -0.0645 -0.1910
  320MOL0     C42156  12.888   8.758   6.989 -0.1901  0.1701  0.0445
  320MOL0     C42157  12.767   8.730   7.060 -1.2594 -0.5544  1.4527
  320MOL0     N42158  12.228   8.745   6.933 -0.5804 -0.0853 -0.5649
  320MOL0     N42159  12.159   8.662   6.859  0.4339  0.4861 -0.4852
  320MOL0     C42160  11.432   8.462   6.002  0.1330  0.3214 -1.2652
  320MOL0     C42161  11.327   8.413   5.917 -0.2036  0.0725  0.3769
  320MOL0     C42162  11.058   8.238   5.620  0.3452  0.0257  0.2160
  320MOL0     C42163  10.932   8.301   5.586 -0.3562  0.0701 -0.3431
  320MOL0     C42164  10.837   8.229   5.511  0.1497  0.7743  0.5751
  320MOL0     C42165  10.854   8.094   5.471 -0.1983 -1.2572 -0.1047
  320MOL0     O42166  10.763   8.031   5.396 -0.6860  0.3244  0.3525
  320MOL0     C42167  10.763   8.081   5.258 -0.3340 -0.0275 -0.1060
  320MOL0     C42168  10.757   7.965   5.153  0.1150 -0.1320 -0.1161
  320MOL0     C42169  10.669   7.858   5.226 -0.1470 -0.3763  0.2028
  320MOL0     C42170  10.640   7.738   5.145 -1.6307 -0.2227 -0.2674
  320MOL0     C42171  10.754   7.680   5.076 -0.0730  0.4952  0.0128
  320MOL0     C42172  10.839   7.628   5.007  0.2447 -0.1588 -0.9209
  320MOL0     C42173  10.979   8.037   5.500 -1.6183  0.1885 -0.1885
  320MOL0     C42174  11.079   8.105   5.569 -0.3610 -0.1985 -0.2427
  320MOL0     H42175  11.525   8.185   5.751  0.5508 -1.7627  2.2543
  320MOL0     H42176  11.688   8.280   5.904  0.2247  0.1434  2.2900
  320MOL0     H42177  11.569   8.367   6.238 -0.8684 -0.1322 -1.5416
  320MOL0     H42178  11.630   8.521   6.264 -2.4611 -1.4001  2.3415
  320MOL0     H42179  11.859   8.444   6.253  0.4123 -0.4999 -2.5817
  320MOL0     H42180  11.807   8.286   6.206  0.1511  1.6989 -1.7525
  320MOL0     H42181  11.865   8.269   6.427 -0.8094 -0.9203  3.3358
  320MOL0     H42182  11.678   8.278   6.434 -0.3319  0.0761  3.4372
  320MOL0     H42183  11.853   8.505   6.499  0.2363 -0.3780 -0.1537
  320MOL0     H42184  11.671   8.475   6.496 -0.3161 -2.1204 -4.3843
  320MOL0     H42185  11.689   8.329   6.664 -1.6078  0.4016 -3.2904
  320MOL0     H42186  11.751   8.489   6.726 -1.1125  0.8730 -1.1158
  320MOL0     H42187  11.937   8.276   6.619 -2.1232 -1.0234 -2.1084
  320MOL0     H42188  11.864   8.292   6.790 -0.8903 -2.3402 -2.0597
  320MOL0     H42189  12.099   8.396   6.754 -0.6849  0.0273  1.0171
  320MOL0     H42190  12.006   8.538   6.680 -0.3175 -0.9859 -1.4901
  320MOL0     H42191  11.951   8.417   6.938 -0.5584 -1.1139 -1.4733
  320MOL0     H42192  11.880   8.572   6.869  0.9179  0.8418  1.1807
  320MOL0     H42193  12.047   8.603   7.164  0.4896 -0.5795  0.4033
  320MOL0     H42194  12.181   8.876   7.198 -1.3239 -1.2793 -0.4657
  320MOL0     H42195  12.344   8.856   7.114  0.6373  1.6987  4.0776
  320MOL0     H42196  12.354   8.646   7.253  1.1697  0.6972  0.0470
  320MOL0     H42197  12.237   8.732   7.363  0.5367  3.7654  1.4123
  320MOL0     H42198  12.379   8.883   7.443 -1.1795 -2.6903  0.9122
  320MOL0     H42199  12.492   8.754   7.433  2.8663 -0.9503 -2.8417
  320MOL0     H42200  12.596   8.962   7.337  0.4768  0.9119  0.8247
  320MOL0     H42201  12.481   8.968   7.210  1.4761  0.4294 -0.6915
  320MOL0     H42202  12.692   9.046   7.149  1.6371  0.5384  0.9645
  320MOL0     H42203  12.878   9.091   6.979  3.8246 -1.6004 -0.2553
  320MOL0     H42204  13.233   8.635   6.683  1.3412 -1.2564  0.6501
  320MOL0     H42205  13.461   8.630   6.585 -1.9232  1.4974 -1.9489
  320MOL0     H42206  13.839   8.836   6.736  1.0711  1.0345  1.0763
  320MOL0     H42207  13.727   8.969   6.703  1.6386  0.9866 -0.7795
  320MOL0     H42208  13.878   8.807   6.507  0.6027 -0.1226  1.8829
  320MOL0     H42209  13.922   8.971   6.564 -2.1020  1.5861  2.7687
  320MOL0     H42210  13.723   9.063   6.461  4.0804  1.1308  1.7792
  320MOL0     H42211  13.672   8.899   6.401 -0.0650 -0.3563  1.5389
  320MOL0     H42212  13.889   8.892   6.265  2.5797  2.1159 -1.9182
  320MOL0     H42213  13.771   9.026   6.227 -0.0277 -1.0180 -0.7939
  320MOL0     H42214  14.025   9.044   6.389  1.9272  1.1670 -3.5314
  320MOL0     H42215  13.898   9.163   6.397  2.6015  2.2561 -0.2440
  320MOL0     H42216  13.911   9.189   6.156 -0.0720 -2.5058 -2.3323
  320MOL0     H42217  14.046   9.064   6.152 -1.7124  0.4618 -2.2043
  320MOL0     H42218  14.089   9.336   6.299  3.2932  0.3597 -0.1560
  320MOL0     H42219  14.194   9.208   6.255  1.2851 -0.1874 -3.4197
  320MOL0     H42220  14.016   9.392   6.065 -0.5921 -0.6046 -5.6136
  320MOL0     H42221  14.099   9.245   6.011  2.2444 -0.7907  0.6872
  320MOL0     H42222  13.578   8.954   6.837  3.1945 -2.3728 -2.5528
  320MOL0     H42223  13.346   8.971   6.935 -0.8617  2.2841 -1.5863
  320MOL0     H42224  12.940   8.670   6.950 -0.0446  0.3797 -0.2371
  320MOL0     H42225  12.741   8.631   7.096  1.9312 -2.9390 -2.0172
  320MOL0     H42226  11.421   8.543   6.073  2.9648  0.6392 -1.1010
  320MOL0     H42227  11.230   8.456   5.939 -0.1481  1.8245 -2.3356
  320MOL0     H42228  10.912   8.404   5.610  3.1698  0.2837  2.5388
  320MOL0     H42229  10.750   8.288   5.484 -1.0345 -1.9099 -2.1529
  320MOL0     H42230  10.857   8.137   5.243  0.0267 -0.8294 -0.9336
  320MOL0     H42231  10.679   8.151   5.248  0.2623  0.7710  0.3096
  320MOL0     H42232  10.711   8.002   5.061  2.3565 -0.5229 -1.4635
  320MOL0     H42233  10.857   7.928   5.131  0.7350  0.9542  0.7571
  320MOL0     H42234  10.575   7.907   5.255 -0.8862 -2.4517  1.5500
  320MOL0     H42235  10.711   7.827   5.322  2.4060  1.6550 -0.1534
  320MOL0     H42236  10.613   7.655   5.210  0.8509 -0.1853  0.9185
  320MOL0     H42237  10.561   7.756   5.072 -0.5364  1.2730 -1.1447
  320MOL0     H42238  10.913   7.582   4.945  1.1292 -0.0226  0.0074
  320MOL0     H42239  10.990   7.934   5.469 -0.6234  0.0019  0.7471
  320MOL0     H42240  11.178   8.064   5.590 -0.7125  0.2284  2.6441
  321MOL0     O42241   2.422   9.159   9.488  0.1380 -0.2305 -0.1523
  321MOL0     C42242   2.309   9.129   9.461  0.3055 -0.0287  0.6635
  321MOL0     O42243   2.277   9.038   9.362 -0.3180 -0.2919  0.0464
  321MOL0     C42244   2.371   8.975   9.277 -0.1754 -0.4085  1.0850
  321MOL0     C42245   2.420   8.851   9.311 -0.5788  0.2446 -0.3232
  321MOL0     C42246   2.518   8.791   9.235  0.5306  0.5889 -0.1041
  321MOL0     C42247   2.574   8.861   9.119  1.1480 -0.3945  0.1501
  321MOL0     O42248   2.671   8.820   9.031 -0.3505  0.0358 -0.3559
  321MOL0     C42249   2.728   8.695   9.063 -0.8844  0.5921  0.9145
  321MOL0     C42250   2.852   8.682   8.969  0.2831 -0.9007  0.2407
  321MOL0     C42251   2.934   8.553   9.007  0.2624 -0.4746 -0.2476
  321MOL0     C42252   3.059   8.530   8.913  0.3328 -0.2312  0.1162
  321MOL0     C42253   3.114   8.388   8.912  0.4609  0.3674 -0.0041
  321MOL0     C42254   3.228   8.371   8.825 -1.3929  0.2546 -0.3608
  321MOL0     C42255   3.273   8.222   8.821 -0.6897  0.2261 -0.6736
  321MOL0     C42256   3.318   8.179   8.957  0.7717  0.6663  0.2078
  321MOL0     N42257   3.428   8.261   9.025 -1.0793  1.0936  0.1899
  321MOL0     C42258   3.563   8.245   9.014 -0.0793  1.0535  0.0365
  321MOL0     C42259   3.616   8.340   9.096 -0.3558  0.5062 -0.3993
  321MOL0     C42260   3.766   8.371   9.115 -0.4157 -0.9604 -0.2154
  321MOL0     C42261   3.791   8.513   9.167  0.1864 -0.7058  0.3346
  321MOL0     C42262   3.940   8.539   9.172  0.2666  0.3712  1.1964
  321MOL0     C42263   3.977   8.684   9.190  0.3253  1.1138 -0.1235
  321MOL0     O42264   4.113   8.702   9.204 -1.3000  0.3801 -0.6186
  321MOL0     C42265   4.196   8.701   9.098  0.0024  0.1189  0.0104
  321MOL0     C42266   4.183   8.786   8.980  0.4669  0.1552 -0.6308
  321MOL0     C42267   4.259   8.755   8.864 -0.1214 -1.1479 -0.8187
  321MOL0     C42268   4.370   8.671   8.865  0.7165 -0.4540  0.5930
  321MOL0     C42269   4.444   8.641   8.754 -0.3003 -0.7679  0.3387
  321MOL0     O42270   4.545   8.560   8.779  0.3286  0.4966  0.0014
  321MOL0     C42271   4.648   8.554   8.685  0.2309  1.4681  0.0898
  321MOL0     C42272   4.663   8.427   8.631  0.0017 -0.5577 -0.1171
  321MOL0     C42273   4.791   8.405   8.564  1.2747 -0.3340  0.5769
  321MOL0     C42274   4.876   8.513   8.534  0.2197 -0.8384 -1.0626
  321MOL0     O42275   4.995   8.485   8.472  0.5412  0.4077  0.8878
  321MOL0     C42276   5.070   8.595   8.415  0.8633  0.5277 -0.0278
  321MOL0     C42277   5.198   8.538   8.341  0.3919 -0.5953  0.1855
  321MOL0     C42278   5.274   8.630   8.241 -0.6726  0.1230 -0.5539
  321MOL0     C42279   5.365   8.731   8.324  0.5928 -0.3669  0.5593
  321MOL0     C42280   5.451   8.819   8.231  0.1041 -0.4482 -0.6114
  321MOL0     C42281   5.537   8.926   8.296  0.2483  0.4006 -0.1866
  321MOL0     C42282   5.641   8.985   8.196  0.4448 -0.0205  0.3095
  321MOL0     C42283   5.783   8.910   8.184  0.0523 -0.8335  0.1564
  321MOL0    Cl42284   5.878   8.905   8.332  0.1296 -0.3903  0.0145
  321MOL0     C42285   4.844   8.645   8.579  0.0462 -0.1205  0.2586
  321MOL0     C42286   4.725   8.662   8.644  0.0833 -0.3027 -0.3875
  321MOL0     O42287   4.422   8.692   8.648  0.1671 -0.8770  0.3000
  321MOL0     C42288   4.391   8.597   8.988 -0.4410  0.3774  0.2215
  321MOL0     C42289   4.306   8.620   9.101 -0.5628 -0.6454 -0.6935
  321MOL0     N42290   3.504   8.408   9.155  0.0380  0.5946 -0.3491
  321MOL0     N42291   3.397   8.354   9.115  0.0044  0.5659 -0.0454
  321MOL0     C42292   2.521   8.990   9.095 -0.6264  0.5879  0.0334
  321MOL0     C42293   2.417   9.043   9.169  0.6654 -0.0972 -0.3913
  321MOL0     C42294   2.192   9.189   9.527 -0.1247  0.6252  0.5497
  321MOL0     C42295   2.060   9.172   9.484 -1.0273 -0.2938  0.1424
  321MOL0     C42296   1.951   9.229   9.542  0.0314  0.2287 -0.5713
  321MOL0     C42297   1.960   9.295   9.661 -0.8857 -0.0538 -0.5529
  321MOL0     O42298   1.859   9.345   9.738 -0.1981  0.1637 -0.6848
  321MOL0     C42299   1.721   9.344   9.699  0.5404 -1.0309  0.1339
  321MOL0     C42300   1.710   9.470   9.608  0.2067  0.5573 -0.3915
  321MOL0     C42301   1.565   9.491   9.558 -0.8965 -0.0594  0.0988
  321MOL0     C42302   1.451   9.513   9.656 -1.3438 -0.0667 -0.3383
  321MOL0     C42303   1.477   9.612   9.759 -1.1395 -0.2580  0.3451
  321MOL0     C42304   1.482   9.695   9.843 -0.5206  0.1969  0.4295
  321MOL0     C42305   2.098   9.306   9.712  0.6836  0.5113  0.0294
  321MOL0     C42306   2.214   9.253   9.648 -0.7159  0.6594  0.0076
  321MOL0     H42307   2.377   8.800   9.396 -1.2496 -1.4492 -1.6105
  321MOL0     H42308   2.562   8.698   9.270 -2.3652 -0.2454  1.7628
  321MOL0     H42309   2.651   8.619   9.047 -1.9284  1.6160  0.8567
  321MOL0     H42310   2.763   8.697   9.166 -4.8927  2.0543  2.4604
  321MOL0     H42311   2.914   8.770   8.989  2.1189 -1.7412 -1.4284
  321MOL0     H42312   2.818   8.689   8.865  0.1345 -2.2135  0.1839
  321MOL0     H42313   2.875   8.465   8.981  0.6097  0.0672 -3.1552
  321MOL0     H42314   2.965   8.549   9.112 -0.9380 -2.9697  0.0752
  321MOL0     H42315   3.034   8.549   8.808  0.3639  0.5650  0.2448
  321MOL0     H42316   3.139   8.599   8.941  0.3195  0.1429 -0.7443
  321MOL0     H42317   3.032   8.316   8.899 -1.2043  1.9740  1.1410
  321MOL0     H42318   3.144   8.385   9.017 -0.0196 -0.4036  0.1198
  321MOL0     H42319   3.307   8.428   8.874 -1.1511 -2.1240  2.2882
  321MOL0     H42320   3.202   8.399   8.722 -0.9515 -1.3343 -0.9428
  321MOL0     H42321   3.199   8.153   8.781  1.8623 -2.5193 -0.9917
  321MOL0     H42322   3.360   8.213   8.755 -0.0364  0.3006  0.1537
  321MOL0     H42323   3.359   8.083   8.924  2.2052  2.1262 -2.6654
  321MOL0     H42324   3.236   8.170   9.029  2.1884  2.0345  2.0918
  321MOL0     H42325   3.594   8.166   8.946 -1.5785  1.2235 -0.8955
  321MOL0     H42326   3.816   8.354   9.019  2.0317  1.1006  0.5951
  321MOL0     H42327   3.813   8.303   9.187 -1.2816 -1.1059  0.2336
  321MOL0     H42328   3.749   8.540   9.264  1.4863  0.2598  0.6592
  321MOL0     H42329   3.747   8.586   9.098  2.2493  2.0014  1.6679
  321MOL0     H42330   3.983   8.483   9.255 -1.7494 -1.4875  1.0674
  321MOL0     H42331   3.982   8.499   9.079  2.0569  0.7718  1.7975
  321MOL0     H42332   3.921   8.724   9.275 -0.2067 -0.1475  0.1507
  321MOL0     H42333   3.942   8.747   9.107  2.2962  0.9902 -1.1215
  321MOL0     H42334   4.112   8.867   8.971  1.8230  1.3930 -0.5050
  321MOL0     H42335   4.227   8.821   8.784 -2.9304 -1.1187  0.1942
  321MOL0     H42336   4.600   8.344   8.661  2.1052 -2.4189 -0.5515
  321MOL0     H42337   4.823   8.321   8.504 -0.3037  0.6677 -1.8461
  321MOL0     H42338   5.091   8.669   8.493  0.0326 -0.5941  1.3096
  321MOL0     H42339   5.001   8.628   8.336 -2.0366 -1.2364  1.5846
  321MOL0     H42340   5.154   8.456   8.284 -0.7889 -0.1141  0.3735
  321MOL0     H42341   5.270   8.491   8.408  0.8226 -2.3526 -1.4412
  321MOL0     H42342   5.204   8.683   8.177  1.0881  2.6615 -0.5149
  321MOL0     H42343   5.336   8.559   8.185 -1.4942 -0.4319 -0.7831
  321MOL0     H42344   5.295   8.801   8.371  0.1967 -0.4870  0.1547
  321MOL0     H42345   5.422   8.683   8.404  0.9058  3.5461  2.9534
  321MOL0     H42346   5.392   8.878   8.159 -1.6962 -0.5125  0.7340
  321MOL0     H42347   5.528   8.752   8.194  1.9580  1.2010  0.0590
  321MOL0     H42348   5.588   8.885   8.384 -0.8186  1.5865  1.0310
  321MOL0     H42349   5.480   9.014   8.329  1.3515  0.5188  1.5558
  321MOL0     H42350   5.579   8.987   8.105 -0.9464 -1.2861  1.1847
  321MOL0     H42351   5.665   9.088   8.224 -0.3827 -0.4589  2.8955
  321MOL0     H42352   5.854   8.952   8.112  1.1338 -1.7564  0.6407
  321MOL0     H42353   5.766   8.808   8.148 -1.4225 -1.0633  1.4273
  321MOL0     H42354   4.907   8.727   8.546  2.4265 -1.4037  1.3381
  321MOL0     H42355   4.695   8.760   8.677 -0.9858 -1.0525  0.9841
  321MOL0     H42356   4.467   8.520   8.986 -0.2466  0.5544  0.6223
  321MOL0     H42357   4.333   8.540   9.169  0.6273 -1.3558 -1.9529
  321MOL0     H42358   2.544   9.046   9.004 -0.3844 -1.1741 -1.0428
  321MOL0     H42359   2.357   9.130   9.145  1.9816  0.5866 -1.3310
  321MOL0     H42360   2.049   9.103   9.401 -0.3518 -2.2071  1.5493
  321MOL0     H42361   1.858   9.212   9.489  1.3193 -1.9101 -2.2757
  321MOL0     H42362   1.668   9.368   9.792  1.0307  0.7571 -0.0052
  321MOL0     H42363   1.672   9.260   9.649  0.3785 -0.3573 -0.8811
  321MOL0     H42364   1.745   9.555   9.669 -2.0122  0.1304  1.6329
  321MOL0     H42365   1.782   9.446   9.530  0.6615 -3.1877  1.0062
  321MOL0     H42366   1.539   9.406   9.494  3.9623  0.0036 -2.4978
  321MOL0     H42367   1.572   9.572   9.484  2.4439  1.2090  1.5911
  321MOL0     H42368   1.357   9.536   9.606 -0.7898  1.2009 -0.8365
  321MOL0     H42369   1.436   9.417   9.707  1.3242 -0.1411  0.4636
  321MOL0     H42370   1.504   9.759   9.926 -0.1480 -0.4905  0.8756
  321MOL0     H42371   2.111   9.361   9.804 -1.7632  0.3003  0.5872
  321MOL0     H42372   2.311   9.266   9.694 -0.2065 -0.1013 -0.8202
  322MOL0     O42373   6.436  10.951   7.373 -0.5206  0.6002  0.8831
  322MOL0     C42374   6.496  10.853   7.420  0.2957 -0.3484  0.7386
  322MOL0     O42375   6.570  10.770   7.342 -0.2987  0.6304 -0.3736
  322MOL0     C42376   6.613  10.823   7.223  0.0301  0.9617 -0.4432
  322MOL0     C42377   6.718  10.907   7.205  0.3939 -0.8909  0.7221
  322MOL0     C42378   6.762  10.927   7.070 -1.5584 -0.3160  0.1980
  322MOL0     C42379   6.699  10.865   6.958  0.1579  0.6719 -0.8599
  322MOL0     O42380   6.742  10.885   6.827 -0.2111 -0.2466  0.6348
  322MOL0     C42381   6.655  10.981   6.756 -0.1679  0.2579 -0.2505
  322MOL0     C42382   6.734  11.107   6.783 -0.2701 -1.2271 -0.1940
  322MOL0     C42383   6.727  11.201   6.660  0.0736  0.5410  0.7576
  322MOL0     C42384   6.787  11.346   6.690 -0.2161  0.1773  0.6323
  322MOL0     C42385   6.807  11.429   6.566 -0.2688 -0.3610  0.4352
  322MOL0     C42386   6.900  11.559   6.599  0.9504 -0.2277  0.0187
  322MOL0     C42387   6.921  11.639   6.468 -0.0064  0.3664  0.4011
  322MOL0     C42388   7.002  11.761   6.501 -0.1875 -0.2776 -0.5271
  322MOL0     N42389   7.068  11.821   6.382  0.6334 -0.9137  0.6066
  322MOL0     C42390   7.193  11.783   6.330  0.6329  0.5474 -0.7079
  322MOL0     C42391   7.195  11.855   6.215  0.0203  0.4583  0.0261
  322MOL0     C42392   7.300  11.863   6.104 -0.0581 -0.1496 -0.5820
  322MOL0     C42393   7.403  11.981   6.124 -0.6529 -0.0826 -0.0728
  322MOL0     C42394   7.507  11.963   6.240 -0.4854 -0.4965  0.2620
  322MOL0     C42395   7.588  12.093   6.270  0.6930 -0.0830 -0.6827
  322MOL0     O42396   7.523  12.200   6.340  0.4666  0.4980  0.4227
  322MOL0     C42397   7.440  12.163   6.439  0.0607 -0.1811  0.2133
  322MOL0     C42398   7.493  12.164   6.565 -0.1567 -0.4059  0.2665
  322MOL0     C42399   7.405  12.136   6.670  0.0475  0.4571 -0.3309
  322MOL0     C42400   7.260  12.125   6.655 -0.1699 -0.0632  0.3366
  322MOL0     C42401   7.181  12.099   6.771  0.5715  0.0183  0.4330
  322MOL0     O42402   7.043  12.064   6.761 -0.4796  0.2724  0.0896
  322MOL0     C42403   6.980  12.028   6.872  0.3014 -0.0071 -0.1524
  322MOL0     C42404   6.944  12.120   6.974  0.4626  0.3947 -0.5111
  322MOL0     C42405   6.868  12.081   7.085 -0.3505  0.8243 -1.1832
  322MOL0     C42406   6.815  11.950   7.096 -0.2675 -0.1247 -0.3150
  322MOL0     O42407   6.740  11.911   7.204  0.3230  0.2448  0.1371
  322MOL0     C42408   6.758  11.772   7.246  0.1819  0.0196  0.7517
  322MOL0     C42409   6.717  11.774   7.393 -0.0954 -0.0444  0.7104
  322MOL0     C42410   6.559  11.764   7.397  0.3851 -0.3493 -0.4214
  322MOL0     C42411   6.502  11.749   7.543 -0.8990  0.7764  0.6892
  322MOL0     C42412   6.525  11.868   7.632 -0.1465  1.2657  0.6881
  322MOL0     C42413   6.467  11.998   7.580  0.4122 -0.0034  0.2309
  322MOL0     C42414   6.531  12.110   7.637 -0.1176 -0.1706  0.5116
  322MOL0     C42415   6.459  12.238   7.607 -0.8950 -0.3755  0.6210
  322MOL0    Cl42416   6.568  12.377   7.642  0.0001 -0.1768  0.3100
  322MOL0     C42417   6.846  11.861   6.974  0.5904 -0.4966  0.0120
  322MOL0     C42418   6.924  11.904   6.864  0.3486 -0.5549 -1.0833
  322MOL0     O42419   7.229  12.119   6.887 -0.0657 -0.6592  0.6180
  322MOL0     C42420   7.213  12.133   6.523 -0.3851 -0.5030  0.0717
  322MOL0     C42421   7.303  12.154   6.418  0.4903 -0.6787 -0.3861
  322MOL0     N42422   7.086  11.939   6.202  0.5957 -0.0602 -0.2673
  322MOL0     N42423   7.012  11.915   6.307  0.7262 -0.2340  0.3875
  322MOL0     C42424   6.586  10.783   6.989  0.4215  0.2943  0.1862
  322MOL0     C42425   6.545  10.769   7.117  0.2134  0.6858 -0.3524
  322MOL0     C42426   6.496  10.853   7.563  0.2105  0.2553 -0.9327
  322MOL0     C42427   6.443  10.955   7.638  0.4575  1.0149  0.0582
  322MOL0     C42428   6.464  10.959   7.775  0.1224 -0.1160 -0.0725
  322MOL0     C42429   6.543  10.872   7.845  0.1610 -0.1090 -0.5353
  322MOL0     O42430   6.554  10.875   7.984  0.6848  0.6707 -0.0319
  322MOL0     C42431   6.616  10.770   8.060 -0.3177  0.3499 -0.3420
  322MOL0     C42432   6.570  10.795   8.202 -0.4438 -0.7442  0.1979
  322MOL0     C42433   6.557  10.946   8.242 -0.0719  0.0107 -0.1057
  322MOL0     C42434   6.487  10.950   8.380 -1.1458 -0.1766 -0.4269
  322MOL0     C42435   6.438  11.091   8.403 -0.6747 -0.4749 -0.1462
  322MOL0     C42436   6.396  11.205   8.424  0.1165  0.5210  0.0794
  322MOL0     C42437   6.589  10.761   7.773 -0.3664 -0.1235 -0.4203
  322MOL0     C42438   6.565  10.753   7.632 -0.5125  0.4957 -0.2580
  322MOL0     H42439   6.779  10.960   7.278  0.6501  1.8145 -1.2870
  322MOL0     H42440   6.842  10.999   7.054 -0.6373 -0.4198  3.5654
  322MOL0     H42441   6.552  10.976   6.791  0.0258 -2.8596  0.1975
  322MOL0     H42442   6.634  10.959   6.651 -2.5607  2.1103 -0.2374
  322MOL0     H42443   6.843  11.099   6.788 -0.2404 -0.4831  0.8724
  322MOL0     H42444   6.704  11.148   6.880 -0.0720 -2.1882  0.2817
  322MOL0     H42445   6.624  11.214   6.626  0.0131  0.0929  0.7539
  322MOL0     H42446   6.790  11.153   6.584 -0.6816 -0.9704  1.0350
  322MOL0     H42447   6.731  11.397   6.769 -2.4119  0.5423 -1.0600
  322MOL0     H42448   6.887  11.327   6.729  0.3903 -1.0724 -1.4109
  322MOL0     H42449   6.708  11.462   6.534 -0.1049  1.0679  1.3265
  322MOL0     H42450   6.860  11.363   6.497 -0.8928 -1.1964  0.7416
  322MOL0     H42451   6.995  11.523   6.641  0.0320 -1.7712  0.8595
  322MOL0     H42452   6.854  11.627   6.671 -2.5124 -0.9712 -1.3323
  322MOL0     H42453   6.972  11.568   6.402 -1.3247  0.2774 -0.5547
  322MOL0     H42454   6.829  11.674   6.420 -0.8931 -2.1760  0.0917
  322MOL0     H42455   7.080  11.734   6.572 -3.1597 -0.8663  2.7650
  322MOL0     H42456   6.951  11.844   6.550 -1.4010 -0.6487 -1.1294
  322MOL0     H42457   7.263  11.713   6.373  0.3266  0.6567 -0.0236
  322MOL0     H42458   7.254  11.871   6.005 -0.6794 -0.3764 -0.3231
  322MOL0     H42459   7.353  11.769   6.088  2.0244  1.3831 -3.7089
  322MOL0     H42460   7.357  12.080   6.136 -0.9923 -0.3707  1.1729
  322MOL0     H42461   7.458  11.988   6.029 -1.4492  0.5192 -0.5036
  322MOL0     H42462   7.456  11.927   6.329  2.6930 -3.9544  0.9187
  322MOL0     H42463   7.573  11.880   6.213  2.9892  2.7029 -2.1571
  322MOL0     H42464   7.625  12.129   6.174  1.4299 -2.8021 -1.5049
  322MOL0     H42465   7.680  12.051   6.312 -0.3847 -2.6146 -0.6747
  322MOL0     H42466   7.596  12.193   6.587 -0.4808 -0.9348  2.7758
  322MOL0     H42467   7.452  12.131   6.767  0.5667  2.3677 -0.4599
  322MOL0     H42468   6.984  12.218   6.949  2.1302  0.7102  2.8018
  322MOL0     H42469   6.843  12.147   7.167 -1.4379 -0.7452 -0.1969
  322MOL0     H42470   6.863  11.744   7.232  0.4299  1.0426  0.5144
  322MOL0     H42471   6.698  11.707   7.181 -0.6090  2.5031 -1.1685
  322MOL0     H42472   6.756  11.862   7.445 -0.2999  0.1422  0.5492
  322MOL0     H42473   6.762  11.684   7.436 -0.8065 -0.3554  0.8145
  322MOL0     H42474   6.531  11.674   7.341 -1.5114  1.4267 -2.5449
  322MOL0     H42475   6.518  11.847   7.339  1.9660  2.0416  1.6946
  322MOL0     H42476   6.394  11.729   7.537 -0.1518 -3.6903 -1.7651
  322MOL0     H42477   6.551  11.662   7.588  0.9802  1.3386 -0.1932
  322MOL0     H42478   6.631  11.890   7.650 -0.2609  0.0376  3.3699
  322MOL0     H42479   6.494  11.854   7.736  1.8017 -0.6595  1.0825
  322MOL0     H42480   6.362  12.006   7.610  1.0132  1.8430  2.0459
  322MOL0     H42481   6.482  12.014   7.473 -2.4523  2.2230  0.0518
  322MOL0     H42482   6.548  12.082   7.741 -3.8321 -0.0103  1.2905
  322MOL0     H42483   6.631  12.124   7.593 -1.8495  3.1527 -3.0474
  322MOL0     H42484   6.370  12.232   7.671 -0.2016 -1.3447  1.5322
  322MOL0     H42485   6.425  12.244   7.504 -1.1809 -1.9806  0.5956
  322MOL0     H42486   6.799  11.764   6.962 -0.5730  0.2897 -2.4781
  322MOL0     H42487   6.930  11.818   6.797 -2.6387 -3.1668  1.6639
  322MOL0     H42488   7.107  12.135   6.498 -0.1933  0.1507 -0.7381
  322MOL0     H42489   7.266  12.171   6.317  2.0311  1.3287 -0.6881
  322MOL0     H42490   6.532  10.735   6.909 -0.3513  0.0850  0.8273
  322MOL0     H42491   6.470  10.693   7.137  0.9337  0.4364  1.5796
  322MOL0     H42492   6.376  11.032   7.600 -0.7185  0.2234  0.4553
  322MOL0     H42493   6.409  11.034   7.831 -4.1164 -1.8243 -1.5071
  322MOL0     H42494   6.725  10.783   8.057  0.5279 -4.7879 -0.9159
  322MOL0     H42495   6.606  10.669   8.021 -1.2636 -0.5363  2.0444
  322MOL0     H42496   6.468  10.760   8.217 -1.5661  2.2825  0.4357
  322MOL0     H42497   6.647  10.758   8.270  0.6961  2.3951  0.7892
  322MOL0     H42498   6.499  10.998   8.165  0.1403 -1.0526 -1.0080
  322MOL0     H42499   6.652  11.000   8.247 -1.6298  3.0270 -0.7092
  322MOL0     H42500   6.406  10.876   8.383 -1.4831 -0.0515 -3.7191
  322MOL0     H42501   6.551  10.935   8.468  0.0213  0.1865 -1.2076
  322MOL0     H42502   6.339  11.294   8.438  1.6058  1.0429  4.4535
  322MOL0     H42503   6.655  10.686   7.816 -1.0672 -0.7712 -0.4539
  322MOL0     H42504   6.598  10.663   7.581 -1.6877 -1.2408  1.8519
  323MOL0     O42505   5.766   9.130   5.311  0.3226  0.1289  0.0994
  323MOL0     C42506   5.645   9.146   5.321  0.7897 -0.6890 -0.1478
  323MOL0     O42507   5.572   9.227   5.241 -0.0714  0.0388  0.1972
  323MOL0     C42508   5.628   9.291   5.134 -0.4259  0.0200  0.2554
  323MOL0     C42509   5.563   9.300   5.011 -1.2556 -0.1024 -0.2515
  323MOL0     C42510   5.633   9.356   4.900  0.0358 -0.4884 -0.2590
  323MOL0     C42511   5.753   9.428   4.909  0.8286  0.8587  0.9893
  323MOL0     O42512   5.814   9.480   4.795  0.3533  0.1359  0.2092
  323MOL0     C42513   5.939   9.556   4.798 -0.2365  0.4263  0.2176
  323MOL0     C42514   5.986   9.593   4.655 -0.0425 -0.0752 -0.3798
  323MOL0     C42515   5.999   9.462   4.564  0.7994  0.0971 -0.4777
  323MOL0     C42516   6.093   9.467   4.451  0.1620  0.1652 -0.4833
  323MOL0     C42517   6.234   9.501   4.486 -0.1179  0.3772  0.0335
  323MOL0     C42518   6.331   9.515   4.370 -0.1439 -0.5570 -0.7013
  323MOL0     C42519   6.466   9.574   4.405 -0.1270  0.6498  0.6615
  323MOL0     C42520   6.547   9.614   4.266  0.0002 -0.2145 -0.0610
  323MOL0     N42521   6.658   9.709   4.301  0.4465  0.7423 -1.4542
  323MOL0     C42522   6.653   9.832   4.358  0.3781  0.9029  0.2169
  323MOL0     C42523   6.787   9.870   4.364  0.7064 -0.6870  0.3772
  323MOL0     C42524   6.840   9.996   4.429 -0.3289 -0.3023  0.4805
  323MOL0     C42525   6.889   9.980   4.580 -0.4754  0.1660  1.2085
  323MOL0     C42526   6.793   9.930   4.676  0.1074  0.2927 -0.3655
  323MOL0     C42527   6.658  10.024   4.682 -0.1500  0.2573 -0.0454
  323MOL0     O42528   6.542   9.966   4.639  0.0426  1.1092 -0.6846
  323MOL0     C42529   6.452   9.919   4.728 -0.0309 -0.2451  0.9747
  323MOL0     C42530   6.436   9.788   4.751 -0.1281 -0.0874 -0.9589
  323MOL0     C42531   6.344   9.727   4.835 -0.4294 -0.9805  0.0919
  323MOL0     C42532   6.266   9.804   4.914 -0.1155  0.6154  0.0919
  323MOL0     C42533   6.167   9.729   4.999 -0.3520 -0.1880  0.1562
  323MOL0     O42534   6.088   9.810   5.071 -0.5141 -0.1155  0.7443
  323MOL0     C42535   6.026   9.769   5.183  0.0158  0.4154  0.5191
  323MOL0     C42536   6.113   9.696   5.270  0.0222  0.2927  0.1131
  323MOL0     C42537   6.069   9.631   5.380 -0.2804  0.8357 -0.7782
  323MOL0     C42538   5.930   9.644   5.417  0.2624 -0.2480 -0.2225
  323MOL0     O42539   5.890   9.609   5.533 -0.5066  0.5431 -0.0366
  323MOL0     C42540   5.869   9.470   5.558  0.4549 -0.5830  0.5527
  323MOL0     C42541   5.720   9.448   5.600 -0.3576 -0.3712  0.3185
  323MOL0     C42542   5.611   9.510   5.499  0.4434 -0.4519  0.9948
  323MOL0     C42543   5.469   9.456   5.539 -0.2804 -0.0571 -0.0054
  323MOL0     C42544   5.347   9.495   5.439 -0.3736  0.3426 -0.1175
  323MOL0     C42545   5.218   9.543   5.523  1.4394 -0.3957  0.7783
  323MOL0     C42546   5.145   9.424   5.598  0.3318  0.4842  0.4339
  323MOL0     C42547   5.015   9.472   5.643  0.0264 -0.6148 -0.1495
  323MOL0    Cl42548   4.939   9.350   5.746  0.1139  0.3897 -0.0140
  323MOL0     C42549   5.839   9.714   5.322  0.1978  0.4471  0.8642
  323MOL0     C42550   5.888   9.777   5.202  0.3261  0.0320 -0.4323
  323MOL0     O42551   6.171   9.606   5.002 -0.1720  0.0767  0.0292
  323MOL0     C42552   6.278   9.944   4.894  0.7143 -0.2903  0.2947
  323MOL0     C42553   6.368  10.000   4.802 -1.3841  0.4790  0.8249
  323MOL0     N42554   6.863   9.773   4.308 -0.5684  0.7127 -0.9915
  323MOL0     N42555   6.789   9.681   4.275 -0.7396  0.0457  0.2964
  323MOL0     C42556   5.808   9.431   5.035  0.3747  0.2358  0.3120
  323MOL0     C42557   5.749   9.364   5.142 -0.6132 -0.1496  0.6229
  323MOL0     C42558   5.582   9.074   5.435  1.0240  0.0425 -0.8812
  323MOL0     C42559   5.438   9.109   5.452  0.2727 -0.0518  0.8214
  323MOL0     C42560   5.369   9.056   5.559  0.3343 -0.4499  0.4799
  323MOL0     C42561   5.433   8.977   5.659 -0.2465  0.1133 -0.8956
  323MOL0     O42562   5.365   8.929   5.768  0.2685  0.5948  0.9894
  323MOL0     C42563   5.239   8.856   5.763  0.1367 -0.0597  0.3527
  323MOL0     C42564   5.191   8.890   5.907  0.9050  0.6738 -0.5129
  323MOL0     C42565   5.149   9.038   5.918 -0.6450  0.5682  0.3081
  323MOL0     C42566   5.106   9.067   6.062  0.3511  0.1632  0.3246
  323MOL0     C42567   5.209   9.085   6.162 -0.7750 -0.5835 -0.9281
  323MOL0     C42568   5.294   9.093   6.250  0.5327  0.3530  0.4365
  323MOL0     C42569   5.567   8.946   5.643 -0.1976 -1.2435 -0.2262
  323MOL0     C42570   5.637   8.991   5.532  0.6641  0.3285  0.2345
  323MOL0     H42571   5.473   9.241   4.995 -0.1491 -2.4272  1.5392
  323MOL0     H42572   5.564   9.371   4.818 -0.3735 -2.4132 -0.3076
  323MOL0     H42573   6.012   9.486   4.840  0.0529 -0.1733 -1.2275
  323MOL0     H42574   5.941   9.640   4.868  2.2322  1.4981 -1.0047
  323MOL0     H42575   6.086   9.634   4.672 -0.0870  0.9601 -2.3619
  323MOL0     H42576   5.917   9.663   4.606 -0.6504  2.3905  3.5496
  323MOL0     H42577   5.895   9.454   4.531 -0.1815 -1.6846  2.5859
  323MOL0     H42578   6.011   9.378   4.633  2.1760 -0.7515 -1.6893
  323MOL0     H42579   6.106   9.368   4.405  1.7875  0.2253 -0.2232
  323MOL0     H42580   6.050   9.529   4.372 -0.4186 -2.3736 -2.2974
  323MOL0     H42581   6.277   9.434   4.561 -1.4000 -0.1099  0.3569
  323MOL0     H42582   6.230   9.599   4.535  1.0290  0.7473 -0.5679
  323MOL0     H42583   6.280   9.577   4.296 -1.2776  0.7910  1.1266
  323MOL0     H42584   6.352   9.417   4.326 -2.5762 -2.3673  1.7904
  323MOL0     H42585   6.455   9.666   4.464  0.5901  2.8637 -2.3895
  323MOL0     H42586   6.513   9.496   4.466  0.8153  2.4898  2.4130
  323MOL0     H42587   6.477   9.654   4.192  0.6111 -2.3516 -1.9270
  323MOL0     H42588   6.592   9.525   4.221 -1.1464 -1.3395  0.9422
  323MOL0     H42589   6.559   9.883   4.377  0.0075  0.0475  0.7481
  323MOL0     H42590   6.765  10.076   4.420 -2.8098 -2.4666  0.5512
  323MOL0     H42591   6.930  10.028   4.376  0.8017 -0.8413  2.0070
  323MOL0     H42592   6.923  10.080   4.609  0.0719  0.6466 -0.8770
  323MOL0     H42593   6.981   9.920   4.577 -0.8130 -0.3231  0.1519
  323MOL0     H42594   6.766   9.825   4.661 -0.5337  0.1876  1.2596
  323MOL0     H42595   6.852   9.926   4.768  0.4968  0.9881 -0.5775
  323MOL0     H42596   6.676  10.105   4.611  3.2886 -1.8567 -1.8482
  323MOL0     H42597   6.634  10.051   4.785 -2.1121  0.2978 -0.4553
  323MOL0     H42598   6.507   9.719   4.707 -0.5441  0.2981 -2.2579
  323MOL0     H42599   6.341   9.619   4.847 -0.6498 -0.8898  0.9116
  323MOL0     H42600   6.214   9.680   5.236 -0.2169  3.9240 -3.0951
  323MOL0     H42601   6.130   9.570   5.446 -1.5943 -0.1801 -0.4670
  323MOL0     H42602   5.937   9.423   5.630 -1.6262 -2.9482  1.1226
  323MOL0     H42603   5.881   9.412   5.467 -0.0473  0.5069 -0.2295
  323MOL0     H42604   5.694   9.478   5.702 -0.2687 -0.4713  0.3705
  323MOL0     H42605   5.707   9.339   5.601  0.1228 -0.4309  0.2930
  323MOL0     H42606   5.620   9.474   5.396 -2.9828 -4.5266  1.8285
  323MOL0     H42607   5.601   9.618   5.512  2.1726 -0.3640  1.8396
  323MOL0     H42608   5.471   9.349   5.557 -3.1251 -0.1483  0.1099
  323MOL0     H42609   5.455   9.505   5.636  1.2162 -2.6281  1.6199
  323MOL0     H42610   5.319   9.412   5.373  1.1960  1.2914 -2.1027
  323MOL0     H42611   5.381   9.575   5.372 -0.2774  0.0064 -0.4759
  323MOL0     H42612   5.145   9.569   5.446  3.1828 -1.3120 -1.2906
  323MOL0     H42613   5.238   9.633   5.583 -0.1343  2.1454 -2.2010
  323MOL0     H42614   5.125   9.333   5.541  1.0972  0.2293  0.5583
  323MOL0     H42615   5.201   9.388   5.684 -1.6097 -0.1904  1.4762
  323MOL0     H42616   4.952   9.501   5.558  0.2121  0.7868  0.1655
  323MOL0     H42617   5.029   9.569   5.692 -6.5766  3.1479 -4.1131
  323MOL0     H42618   5.745   9.743   5.367  0.1072 -1.7868  2.2867
  323MOL0     H42619   5.818   9.839   5.148 -1.2081 -1.1818  0.0828
  323MOL0     H42620   6.202  10.004   4.943 -0.4609 -0.4299 -1.3233
  323MOL0     H42621   6.353  10.108   4.807  0.1581  0.6575  3.9433
  323MOL0     H42622   5.895   9.492   5.060  2.5651 -1.1588 -3.0595
  323MOL0     H42623   5.795   9.362   5.240  1.0376 -2.6910 -0.1167
  323MOL0     H42624   5.385   9.177   5.386 -2.5904  1.1787  4.0590
  323MOL0     H42625   5.272   9.102   5.577  0.8955  1.4431 -0.9269
  323MOL0     H42626   5.241   8.746   5.761  3.0251 -0.1014  0.6239
  323MOL0     H42627   5.170   8.898   5.689  1.7381  0.3319 -1.0013
  323MOL0     H42628   5.106   8.823   5.921  1.8576 -0.7374 -1.3027
  323MOL0     H42629   5.270   8.861   5.977  1.1573 -1.4089 -1.5860
  323MOL0     H42630   5.068   9.060   5.848  0.9103 -2.4974 -2.7509
  323MOL0     H42631   5.234   9.106   5.902 -1.0548  0.8001 -0.9732
  323MOL0     H42632   5.038   9.152   6.063 -0.9219 -0.8201 -0.5820
  323MOL0     H42633   5.050   8.979   6.093 -0.3839 -1.0009 -3.7836
  323MOL0     H42634   5.375   9.090   6.320  0.5651  3.2331  0.6419
  323MOL0     H42635   5.619   8.878   5.709  2.8862 -0.1242 -1.2785
  323MOL0     H42636   5.741   8.960   5.527  0.4900 -0.1835 -0.2061
  324MOL0     O42637   5.009   7.708  11.033 -0.4990 -0.0454  0.4008
  324MOL0     C42638   5.044   7.636  11.130 -0.7309  0.1417  0.5762
  324MOL0     O42639   5.161   7.564  11.144 -0.3769 -0.1815 -0.1665
  324MOL0     C42640   5.255   7.607  11.061  0.4797 -0.2378  0.4054
  324MOL0     C42641   5.291   7.538  10.931  0.4479 -0.2849 -0.4549
  324MOL0     C42642   5.402   7.590  10.855 -0.1485 -0.1388 -0.4680
  324MOL0     C42643   5.474   7.685  10.907 -0.4076 -0.6115 -0.9697
  324MOL0     O42644   5.572   7.722  10.822 -0.2525  0.4245 -0.4661
  324MOL0     C42645   5.650   7.843  10.845  0.7559  0.4502 -0.5572
  324MOL0     C42646   5.763   7.803  10.944  0.1651 -0.0234  0.2636
  324MOL0     C42647   5.834   7.917  11.010  0.5443  0.3986 -0.1056
  324MOL0     C42648   5.877   8.018  10.905 -0.3641 -0.1216  0.0295
  324MOL0     C42649   5.997   8.095  10.966 -0.3837 -0.9364 -0.2224
  324MOL0     C42650   5.948   8.209  11.063 -0.3740  0.6543  0.1278
  324MOL0     C42651   6.071   8.301  11.101 -0.0782 -0.2942  0.0373
  324MOL0     C42652   6.023   8.390  11.230  0.0570  0.7042 -0.4822
  324MOL0     N42653   6.108   8.508  11.260 -0.1919  0.2459  0.4861
  324MOL0     C42654   6.114   8.627  11.197  0.7832  0.2107 -0.9634
  324MOL0     C42655   6.218   8.695  11.253 -0.1495 -0.5914  0.1445
  324MOL0     C42656   6.265   8.830  11.204 -0.1038  1.4199 -0.7304
  324MOL0     C42657   6.375   8.820  11.096  0.6169  1.3931  0.6718
  324MOL0     C42658   6.337   8.748  10.963  0.5124 -0.0738 -0.4279
  324MOL0     C42659   6.205   8.788  10.895  0.4219  0.7688 -0.4221
  324MOL0     O42660   6.178   8.715  10.773  0.4473 -0.1177 -0.6367
  324MOL0     C42661   6.117   8.793  10.680  0.4746 -0.0207  0.4712
  324MOL0     C42662   6.175   8.816  10.551 -0.9110 -0.9211 -0.0650
  324MOL0     C42663   6.126   8.910  10.466  0.2443  1.0442  0.8023
  324MOL0     C42664   6.024   8.993  10.503  0.8689  0.3928  0.2964
  324MOL0     C42665   5.986   9.109  10.426  0.8668 -0.0188 -0.4817
  324MOL0     O42666   5.932   9.212  10.490  0.4129  0.3337  0.1500
  324MOL0     C42667   5.919   9.330  10.421 -0.6336  0.1241  0.1580
  324MOL0     C42668   6.036   9.393  10.371  0.3591  1.0930  0.5067
  324MOL0     C42669   6.031   9.503  10.301  0.0931 -0.6693 -0.8619
  324MOL0     C42670   5.920   9.578  10.281  0.3025  0.5872  0.9245
  324MOL0     O42671   5.932   9.702  10.212 -0.0725 -0.0569 -0.6163
  324MOL0     C42672   5.824   9.745  10.123  0.6777 -0.0044 -1.1683
  324MOL0     C42673   5.800   9.644  10.009  0.4107  0.1896  0.6123
  324MOL0     C42674   5.675   9.676   9.918  0.0275 -0.0829 -0.1005
  324MOL0     C42675   5.699   9.801   9.837 -0.1761 -0.1780 -0.7541
  324MOL0     C42676   5.573   9.842   9.759 -0.0301  0.2832 -0.4267
  324MOL0     C42677   5.599   9.977   9.688 -0.6274  0.0546  1.2312
  324MOL0     C42678   5.486  10.025   9.605  0.5499  0.4230  0.2537
  324MOL0     C42679   5.387  10.105   9.674  0.5926 -0.3656  0.0360
  324MOL0    Cl42680   5.292  10.020   9.800  0.4042  0.7937 -0.0808
  324MOL0     C42681   5.796   9.524  10.334 -0.3668  0.2273 -0.0051
  324MOL0     C42682   5.799   9.404  10.410 -0.2862 -0.1326 -0.0130
  324MOL0     O42683   6.023   9.104  10.312 -0.0502  1.3274  0.7560
  324MOL0     C42684   5.959   8.966  10.621  0.9044 -0.1969  0.0237
  324MOL0     C42685   6.012   8.873  10.710  0.5142  0.6351 -0.7065
  324MOL0     N42686   6.265   8.620  11.353 -0.6422 -0.5808 -0.3785
  324MOL0     N42687   6.198   8.510  11.354 -0.0923 -0.1755  0.7473
  324MOL0     C42688   5.445   7.743  11.027  0.0646  0.5774  0.4949
  324MOL0     C42689   5.329   7.719  11.106 -0.3790 -0.2589 -0.0256
  324MOL0     C42690   4.942   7.621  11.237 -0.2920 -0.6228  0.4945
  324MOL0     C42691   4.812   7.587  11.187 -1.3263  0.0807 -0.4038
  324MOL0     C42692   4.715   7.550  11.280 -0.0608  0.0890 -1.2696
  324MOL0     C42693   4.747   7.553  11.420  0.1021 -1.0654 -0.4781
  324MOL0     O42694   4.652   7.535  11.515  0.5533 -0.0891 -0.7780
  324MOL0     C42695   4.545   7.435  11.486 -0.3830  0.1771  0.0390
  324MOL0     C42696   4.543   7.328  11.594 -0.5315  0.3248  0.0919
  324MOL0     C42697   4.564   7.369  11.737  0.4610 -0.2517 -0.3995
  324MOL0     C42698   4.506   7.265  11.836 -0.7630  0.4300 -0.2350
  324MOL0     C42699   4.600   7.144  11.847  0.0315 -0.3357  0.0371
  324MOL0     C42700   4.674   7.047  11.847  0.0358  0.2447  0.2198
  324MOL0     C42701   4.878   7.590  11.465 -0.2330  0.5456 -0.3526
  324MOL0     C42702   4.970   7.621  11.367  0.0208  0.3520 -0.6667
  324MOL0     H42703   5.235   7.451  10.897  0.0221 -0.5979  0.9704
  324MOL0     H42704   5.440   7.552  10.760  2.5803  0.4120  0.3163
  324MOL0     H42705   5.597   7.930  10.887  1.9288  0.4002  1.1362
  324MOL0     H42706   5.688   7.875  10.748  1.6309  1.5766  0.1280
  324MOL0     H42707   5.834   7.744  10.885  0.1423 -0.2204  0.4296
  324MOL0     H42708   5.726   7.722  11.008  2.3772 -3.1357 -2.0299
  324MOL0     H42709   5.917   7.881  11.072 -0.3196  0.6908  1.2598
  324MOL0     H42710   5.772   7.954  11.092 -0.0005 -0.9075  0.0994
  324MOL0     H42711   5.908   7.973  10.810  1.1172  2.3253 -0.7273
  324MOL0     H42712   5.806   8.094  10.871  0.8546  1.4320  0.8060
  324MOL0     H42713   6.033   8.142  10.874 -3.7241  1.0046 -0.6967
  324MOL0     H42714   6.075   8.032  11.011 -0.1088 -3.4678 -3.8034
  324MOL0     H42715   5.915   8.155  11.152  1.5755  1.2067  1.2376
  324MOL0     H42716   5.868   8.267  11.016  2.0211  2.5425 -1.8790
  324MOL0     H42717   6.156   8.236  11.123 -0.5642 -1.6684 -1.8671
  324MOL0     H42718   6.089   8.365  11.013 -2.3985  0.7439  0.2438
  324MOL0     H42719   6.029   8.315  11.309 -1.3879  2.1117  1.0404
  324MOL0     H42720   5.920   8.421  11.210  0.0468  0.3905 -0.9409
  324MOL0     H42721   6.050   8.658  11.114  0.5500 -0.5071 -1.0574
  324MOL0     H42722   6.309   8.879  11.291  2.9645 -3.0967  0.6092
  324MOL0     H42723   6.186   8.898  11.170 -0.3661  1.2816 -0.3967
  324MOL0     H42724   6.454   8.763  11.145  1.1408  1.4761 -0.0586
  324MOL0     H42725   6.411   8.921  11.077  4.3427  0.1593  0.3141
  324MOL0     H42726   6.411   8.774  10.887 -1.7874  1.1477 -2.4060
  324MOL0     H42727   6.342   8.640  10.981  2.1604 -0.1365 -1.0839
  324MOL0     H42728   6.203   8.897  10.888  0.7722  0.6686 -3.2842
  324MOL0     H42729   6.122   8.783  10.965 -1.7634  2.2531 -2.7564
  324MOL0     H42730   6.255   8.749  10.520  0.8304 -0.4329  2.9793
  324MOL0     H42731   6.161   8.923  10.364 -3.5333  0.7068 -0.7270
  324MOL0     H42732   6.128   9.338  10.384 -0.3479 -0.2376 -0.0197
  324MOL0     H42733   6.122   9.548  10.263  0.2399 -0.2536 -0.0354
  324MOL0     H42734   5.848   9.844  10.085  2.0377 -0.4564 -1.5508
  324MOL0     H42735   5.732   9.746  10.181 -0.5363 -0.5467 -3.0043
  324MOL0     H42736   5.774   9.545  10.048  1.9764  0.2399  1.8623
  324MOL0     H42737   5.887   9.613   9.950 -0.8577 -0.0311 -1.2517
  324MOL0     H42738   5.591   9.683   9.989  0.2629 -2.0539  0.4184
  324MOL0     H42739   5.651   9.599   9.845 -1.5579  0.3685 -0.1074
  324MOL0     H42740   5.718   9.883   9.907 -3.9430 -0.1978  0.5365
  324MOL0     H42741   5.780   9.787   9.765  1.9273 -2.2544  1.8211
  324MOL0     H42742   5.494   9.844   9.835  1.2843 -2.6417  1.1717
  324MOL0     H42743   5.535   9.760   9.698 -0.6693 -0.6916  1.2463
  324MOL0     H42744   5.691   9.961   9.631 -0.4084 -1.1600  1.8918
  324MOL0     H42745   5.612  10.060   9.758 -2.1797 -0.9054  2.7424
  324MOL0     H42746   5.530  10.093   9.531 -1.7772  1.3359 -0.3639
  324MOL0     H42747   5.441   9.938   9.557 -0.4105 -2.2823  5.3930
  324MOL0     H42748   5.325  10.150   9.595  0.5040 -1.6804 -0.6585
  324MOL0     H42749   5.440  10.188   9.722 -0.3994  0.9353 -1.0045
  324MOL0     H42750   5.705   9.580  10.319 -0.5372 -0.4464 -1.6264
  324MOL0     H42751   5.712   9.362  10.459 -2.5474  3.2564 -0.7893
  324MOL0     H42752   5.866   9.018  10.643  0.2263  0.3932 -3.7104
  324MOL0     H42753   5.970   8.854  10.809  0.9272  1.7066 -0.3155
  324MOL0     H42754   5.510   7.816  11.074 -0.1024 -0.1488  1.9021
  324MOL0     H42755   5.310   7.761  11.204 -0.7145  2.6749 -1.2600
  324MOL0     H42756   4.796   7.551  11.086 -0.7037 -1.0014 -0.1336
  324MOL0     H42757   4.626   7.493  11.255  0.0119 -0.0791 -1.1463
  324MOL0     H42758   4.555   7.388  11.388 -1.1527 -0.0019  0.0359
  324MOL0     H42759   4.448   7.486  11.494 -0.6637  0.1507 -2.5189
  324MOL0     H42760   4.452   7.267  11.591  0.3426 -1.0068  0.0757
  324MOL0     H42761   4.628   7.261  11.580 -1.3335 -1.1089  1.6864
  324MOL0     H42762   4.509   7.462  11.752 -0.7091 -0.7618 -1.3071
  324MOL0     H42763   4.667   7.395  11.763  0.6883  1.2611 -2.6326
  324MOL0     H42764   4.496   7.311  11.934  2.4867 -2.2244  1.5679
  324MOL0     H42765   4.405   7.230  11.816  0.1279 -4.0615  1.8404
  324MOL0     H42766   4.745   6.967  11.850 -1.5563 -1.2176  3.4215
  324MOL0     H42767   4.882   7.601  11.573 -1.6382  1.9460 -0.4082
  324MOL0     H42768   5.071   7.650  11.397  0.9120 -1.7421 -1.4449
  325MOL0     O42769   7.937   3.797   9.611  0.1995 -0.0087  0.4481
  325MOL0     C42770   7.888   3.878   9.688 -0.6664  0.5564 -0.1108
  325MOL0     O42771   7.950   3.996   9.723 -0.4537  0.0309  0.1229
  325MOL0     C42772   8.064   4.036   9.650  0.0903 -0.7866 -0.1200
  325MOL0     C42773   8.083   4.167   9.597  0.4933  0.3571  0.1343
  325MOL0     C42774   8.208   4.204   9.550  0.2929 -0.3844  0.8024
  325MOL0     C42775   8.318   4.119   9.547  0.2490  0.3691  0.5002
  325MOL0     O42776   8.442   4.148   9.492 -0.4723 -0.5004  0.0300
  325MOL0     C42777   8.480   4.290   9.493 -0.4189  0.1122  0.2185
  325MOL0     C42778   8.629   4.316   9.479  0.1454  0.1480 -1.7195
  325MOL0     C42779   8.700   4.300   9.621  0.1876  0.2974  0.2950
  325MOL0     C42780   8.852   4.302   9.592  0.8999  0.6212 -0.0067
  325MOL0     C42781   8.925   4.200   9.680  0.4692  0.0128 -0.4074
  325MOL0     C42782   8.924   4.246   9.830  0.3108 -0.2430  0.4082
  325MOL0     C42783   8.991   4.386   9.857 -0.2634  0.3512  0.8877
  325MOL0     C42784   9.079   4.377   9.982 -1.1555 -0.6411  0.6002
  325MOL0     N42785   9.003   4.384  10.107 -0.3641 -0.1916 -0.7153
  325MOL0     C42786   8.941   4.280  10.177 -0.4591 -0.5693 -0.0230
  325MOL0     C42787   8.891   4.337  10.286 -0.5213 -0.0674  0.1066
  325MOL0     C42788   8.816   4.260  10.390  0.1725  0.1954  0.7138
  325MOL0     C42789   8.815   4.325  10.524 -0.6112  0.0763 -0.4125
  325MOL0     C42790   8.682   4.290  10.589  0.6085  0.0103 -0.1761
  325MOL0     C42791   8.658   4.368  10.708 -0.5462  1.0586 -0.3760
  325MOL0     O42792   8.529   4.341  10.772 -0.1205 -0.8611  0.4048
  325MOL0     C42793   8.418   4.396  10.719 -0.8927  0.2059  0.0262
  325MOL0     C42794   8.410   4.501  10.621  0.8463  0.1832 -1.1119
  325MOL0     C42795   8.278   4.541  10.584 -0.5493 -0.0869  0.1280
  325MOL0     C42796   8.163   4.490  10.634 -0.0477  0.1157  0.2155
  325MOL0     C42797   8.033   4.540  10.575  0.2585 -1.5857  0.0526
  325MOL0     O42798   7.910   4.509  10.626  0.2007  0.1192 -0.6009
  325MOL0     C42799   7.793   4.554  10.573 -0.0893 -0.1363 -0.2844
  325MOL0     C42800   7.758   4.576  10.432  0.5199 -0.1842  0.2211
  325MOL0     C42801   7.637   4.611  10.384  0.2745 -0.6061  0.1173
  325MOL0     C42802   7.534   4.644  10.488 -0.9494  0.3515  0.6176
  325MOL0     O42803   7.414   4.692  10.446 -0.1209 -0.0183  1.3357
  325MOL0     C42804   7.411   4.833  10.407 -0.0793 -0.3844  0.1174
  325MOL0     C42805   7.282   4.863  10.320  0.5369  1.1405 -0.7334
  325MOL0     C42806   7.286   4.785  10.184  0.2306  0.6110  0.6255
  325MOL0     C42807   7.161   4.804  10.093  0.2481 -1.3200 -0.6155
  325MOL0     C42808   7.047   4.731  10.167  0.8533  0.1688 -0.2580
  325MOL0     C42809   6.949   4.660  10.069  0.6477  0.7186  0.6027
  325MOL0     C42810   6.849   4.764  10.012  0.2539  0.0074 -0.3017
  325MOL0     C42811   6.753   4.705   9.903 -0.6151 -0.0487 -0.4348
  325MOL0    Cl42812   6.662   4.555   9.961  0.3001  0.2616 -0.1738
  325MOL0     C42813   7.562   4.626  10.625 -0.5737 -0.7401 -0.1093
  325MOL0     C42814   7.690   4.585  10.666 -0.4684  0.1036 -0.6449
  325MOL0     O42815   8.051   4.618  10.481  1.4408 -0.3364 -0.4424
  325MOL0     C42816   8.172   4.401  10.742  0.2011 -1.0028 -0.7705
  325MOL0     C42817   8.300   4.360  10.788 -0.3466  0.3673 -0.4523
  325MOL0     N42818   8.920   4.472  10.284 -0.1491  1.4860  0.1447
  325MOL0     N42819   8.973   4.493  10.170 -0.7519 -0.5056  0.0617
  325MOL0     C42820   8.298   3.994   9.607  0.9678  0.2392 -0.3394
  325MOL0     C42821   8.172   3.954   9.650 -0.2377  0.0015 -0.6356
  325MOL0     C42822   7.771   3.832   9.764 -0.0314 -0.6686 -0.5042
  325MOL0     C42823   7.708   3.934   9.839  0.0419  0.5001  0.2215
  325MOL0     C42824   7.594   3.914   9.911  0.0103  0.4667 -0.5934
  325MOL0     C42825   7.540   3.773   9.916 -0.1534 -0.5688  0.7489
  325MOL0     O42826   7.440   3.728   9.991  1.1017 -0.2181  0.5553
  325MOL0     C42827   7.372   3.806  10.087 -1.1500 -0.4379  0.1980
  325MOL0     C42828   7.272   3.892  10.021  0.2773 -0.5231  0.0102
  325MOL0     C42829   7.129   3.840  10.003 -0.3111 -0.4687 -0.4448
  325MOL0     C42830   7.061   3.910   9.884 -0.0483 -0.1156  0.1200
  325MOL0     C42831   6.918   3.872   9.886 -0.0756  0.1729  0.6429
  325MOL0     C42832   6.802   3.843   9.896 -0.2893 -1.0626  0.9030
  325MOL0     C42833   7.612   3.681   9.828  1.1255  0.6397 -1.2625
  325MOL0     C42834   7.730   3.702   9.757 -0.1651  0.0738 -0.7211
  325MOL0     H42835   7.993   4.227   9.603 -2.5314 -3.8909  2.6586
  325MOL0     H42836   8.229   4.304   9.513  2.0156 -0.2290  2.0761
  325MOL0     H42837   8.454   4.343   9.584 -0.0477 -0.3402  0.5958
  325MOL0     H42838   8.433   4.333   9.404  0.5239 -0.1578 -0.4254
  325MOL0     H42839   8.644   4.414   9.433  1.5473  0.4816 -0.6336
  325MOL0     H42840   8.683   4.250   9.410  3.5700  1.8780 -0.9135
  325MOL0     H42841   8.674   4.199   9.653  0.4950 -0.7952 -2.5562
  325MOL0     H42842   8.680   4.380   9.693  0.8189  0.2063  0.5797
  325MOL0     H42843   8.868   4.265   9.490  2.1427 -1.6015  0.9045
  325MOL0     H42844   8.888   4.403   9.612  1.7907  0.2149  0.5113
  325MOL0     H42845   9.026   4.170   9.651  2.0746  1.5312  3.1229
  325MOL0     H42846   8.869   4.106   9.684 -2.2596  1.3931 -2.4083
  325MOL0     H42847   8.972   4.167   9.889 -0.7225 -0.1952  1.3356
  325MOL0     H42848   8.824   4.261   9.871 -0.5870  0.1901 -1.8324
  325MOL0     H42849   9.056   4.412   9.773 -1.5707  0.3649 -0.1587
  325MOL0     H42850   8.912   4.458   9.881  0.2982  1.1102  0.4911
  325MOL0     H42851   9.158   4.452   9.987  1.5273 -3.2446  0.2744
  325MOL0     H42852   9.141   4.287   9.974 -1.2002 -0.6712  0.5809
  325MOL0     H42853   8.924   4.176  10.154 -1.6962 -0.0309 -1.7312
  325MOL0     H42854   8.869   4.164  10.391 -0.2286 -0.0383  2.3991
  325MOL0     H42855   8.715   4.240  10.354  0.5469  1.5439 -1.2740
  325MOL0     H42856   8.799   4.430  10.496 -4.7111 -1.3750 -5.0475
  325MOL0     H42857   8.903   4.302  10.583 -0.9916 -4.0313 -1.1539
  325MOL0     H42858   8.592   4.310  10.529  0.6553  2.2659  0.4408
  325MOL0     H42859   8.671   4.184  10.616 -0.9891  0.2489  0.2215
  325MOL0     H42860   8.664   4.475  10.686  2.2343  1.3245  1.2256
  325MOL0     H42861   8.741   4.352  10.777 -1.0083  1.4169  0.2787
  325MOL0     H42862   8.490   4.546  10.564  1.2813  1.0396  0.1200
  325MOL0     H42863   8.285   4.620  10.509 -1.3112 -0.3706 -0.2481
  325MOL0     H42864   7.832   4.546  10.359  4.0822  0.6953  3.1535
  325MOL0     H42865   7.614   4.628  10.279  1.0395 -1.2062 -0.1531
  325MOL0     H42866   7.505   4.867  10.362  0.4072 -2.1008 -0.2653
  325MOL0     H42867   7.430   4.898  10.493  1.8400  1.1266 -1.3624
  325MOL0     H42868   7.277   4.971  10.305 -0.1597  1.3853  1.1203
  325MOL0     H42869   7.193   4.832  10.376 -0.2425  3.3231 -0.6919
  325MOL0     H42870   7.299   4.678  10.201  0.0810  0.3442 -0.7959
  325MOL0     H42871   7.372   4.824  10.129 -0.1269  4.3908  2.4404
  325MOL0     H42872   7.135   4.909  10.080 -1.1294 -1.7843 -1.8878
  325MOL0     H42873   7.184   4.775   9.990 -0.8997  0.3952 -1.3992
  325MOL0     H42874   6.990   4.796  10.233  0.9691  0.1961 -0.1845
  325MOL0     H42875   7.090   4.653  10.230  0.1810 -0.7140 -0.8634
  325MOL0     H42876   6.889   4.581  10.116 -0.1990  2.3511  2.3712
  325MOL0     H42877   7.004   4.619   9.984 -0.1584  0.9660 -0.0508
  325MOL0     H42878   6.786   4.804  10.092  3.6987  0.8458  2.2069
  325MOL0     H42879   6.913   4.839   9.966  2.7233 -1.5860  0.3755
  325MOL0     H42880   6.804   4.686   9.808  0.1748 -1.8317  0.3131
  325MOL0     H42881   6.686   4.791   9.887 -1.0008 -0.2177  0.2389
  325MOL0     H42882   7.480   4.652  10.691 -1.1625 -0.7913 -0.8027
  325MOL0     H42883   7.710   4.578  10.773  1.9387  2.7541 -0.7960
  325MOL0     H42884   8.078   4.381  10.792 -1.5736  0.6452 -3.2160
  325MOL0     H42885   8.312   4.281  10.862 -2.3358 -0.7348 -1.2318
  325MOL0     H42886   8.378   3.921   9.597 -1.3246 -2.3392 -0.9623
  325MOL0     H42887   8.180   3.853   9.688 -0.6425  0.7302  1.5494
  325MOL0     H42888   7.749   4.035   9.838  3.3490 -0.7143  0.9912
  325MOL0     H42889   7.543   3.997   9.957  0.5951  0.3255  0.3362
  325MOL0     H42890   7.441   3.862  10.150  0.2948  0.9604 -2.4683
  325MOL0     H42891   7.316   3.745  10.159 -1.1131  2.7102  3.1075
  325MOL0     H42892   7.270   3.987  10.075 -3.1898 -0.5529  0.1825
  325MOL0     H42893   7.308   3.913   9.920  0.2643  2.1067  0.4658
  325MOL0     H42894   7.064   3.851  10.090  1.0138  1.4013  0.3717
  325MOL0     H42895   7.131   3.733   9.982 -3.5303 -1.0309  1.4541
  325MOL0     H42896   7.076   4.017   9.900 -3.7349  0.1756  2.8641
  325MOL0     H42897   7.110   3.876   9.792 -0.1845  0.5009 -0.1888
  325MOL0     H42898   6.697   3.826   9.889 -1.2605  3.8584 -1.1411
  325MOL0     H42899   7.569   3.582   9.839  2.1713  0.3631  0.8509
  325MOL0     H42900   7.785   3.637   9.689 -0.5076 -2.9871  1.6824
  326MOL0     O42901   7.755  11.006   8.550 -0.6084 -0.1197  0.0922
  326MOL0     C42902   7.695  11.028   8.659 -0.8013  0.7663  0.2672
  326MOL0     O42903   7.566  11.066   8.663 -0.2062  0.0812 -0.2258
  326MOL0     C42904   7.491  11.119   8.564 -0.2839  1.5660  0.7917
  326MOL0     C42905   7.357  11.094   8.566  0.5865  0.7488  0.0821
  326MOL0     C42906   7.284  11.132   8.453  0.0323 -0.2905  0.7996
  326MOL0     C42907   7.348  11.198   8.340  0.3053  0.4902 -0.1286
  326MOL0     O42908   7.267  11.206   8.224 -0.8748 -0.2828  0.0394
  326MOL0     C42909   7.319  11.298   8.128  0.4884  0.3586 -0.6425
  326MOL0     C42910   7.213  11.290   8.021 -0.6830  0.2431 -0.5533
  326MOL0     C42911   7.214  11.406   7.918  0.1441 -0.3447 -0.2028
  326MOL0     C42912   7.126  11.379   7.798  0.3074 -0.1067  0.6752
  326MOL0     C42913   7.111  11.491   7.696  0.4737 -0.3317  0.6073
  326MOL0     C42914   7.042  11.415   7.585 -0.6207 -0.2671  0.1791
  326MOL0     C42915   7.040  11.516   7.474  0.0869  1.0072  1.0333
  326MOL0     C42916   7.177  11.541   7.409  0.4424  0.4733  0.2002
  326MOL0     N42917   7.146  11.608   7.280 -0.1145  0.0968 -0.5965
  326MOL0     C42918   7.174  11.548   7.168 -0.7346  1.2924  0.6948
  326MOL0     C42919   7.155  11.643   7.079 -0.8542  0.3051  0.3389
  326MOL0     C42920   7.174  11.613   6.928  0.9583  0.5857  0.2948
  326MOL0     C42921   7.317  11.659   6.886 -0.2837 -0.3389  0.2615
  326MOL0     C42922   7.310  11.692   6.738  1.2708 -0.0976  0.5017
  326MOL0     C42923   7.453  11.700   6.701 -0.9756 -0.1698  0.8228
  326MOL0     O42924   7.458  11.707   6.557  0.4970  0.0589  0.3219
  326MOL0     C42925   7.581  11.678   6.497  1.3643 -0.7680 -0.6373
  326MOL0     C42926   7.706  11.730   6.532 -0.8831  0.2501 -0.7098
  326MOL0     C42927   7.813  11.690   6.455  1.0059 -1.5733  0.5644
  326MOL0     C42928   7.803  11.595   6.356 -0.2411  0.3704  0.1645
  326MOL0     C42929   7.915  11.551   6.265 -1.1490  0.1146  0.0360
  326MOL0     O42930   8.036  11.609   6.293  0.4609  0.0579  0.5385
  326MOL0     C42931   8.140  11.563   6.213  0.3531 -0.0540 -0.6249
  326MOL0     C42932   8.154  11.584   6.079  0.1358 -0.3991 -0.1108
  326MOL0     C42933   8.262  11.536   6.009 -0.0317 -0.4483 -0.5247
  326MOL0     C42934   8.367  11.467   6.083 -0.3766  0.9942  0.0040
  326MOL0     O42935   8.481  11.425   6.011  0.1920  0.4708 -0.2365
  326MOL0     C42936   8.601  11.500   6.032 -0.4438 -1.0266 -0.1809
  326MOL0     C42937   8.639  11.575   5.905  0.0418  0.2268  0.1921
  326MOL0     C42938   8.788  11.586   5.887 -1.1935 -0.3553 -0.3429
  326MOL0     C42939   8.849  11.655   5.769 -0.8358  0.5547  1.4190
  326MOL0     C42940   8.831  11.577   5.635  0.2094  0.6090  0.6574
  326MOL0     C42941   8.863  11.670   5.522  0.3450 -0.9177  0.0050
  326MOL0     C42942   8.846  11.614   5.377  0.7385 -0.1862 -0.0043
  326MOL0     C42943   8.885  11.726   5.277  0.0043  0.3142 -0.0048
  326MOL0    Cl42944   8.760  11.862   5.263 -0.0058  0.1614  0.0042
  326MOL0     C42945   8.350  11.443   6.209  0.0015 -0.6059  0.1297
  326MOL0     C42946   8.242  11.490   6.278 -0.0320  0.6716  0.1862
  326MOL0     O42947   7.904  11.457   6.191 -0.2824 -0.0655  0.4575
  326MOL0     C42948   7.679  11.554   6.319 -0.4872  0.4910 -0.7025
  326MOL0     C42949   7.569  11.602   6.381  1.1464 -0.7511  0.1437
  326MOL0     N42950   7.127  11.761   7.147  0.2395 -0.2891  0.2411
  326MOL0     N42951   7.119  11.736   7.272  0.2919 -0.6033  0.0743
  326MOL0     C42952   7.479  11.238   8.355 -0.5467 -0.4561  0.6633
  326MOL0     C42953   7.552  11.187   8.456 -0.7358 -1.0170  0.1067
  326MOL0     C42954   7.759  10.988   8.785  0.4044  1.0727  0.3742
  326MOL0     C42955   7.886  10.922   8.792  0.3016  0.3189 -0.7349
  326MOL0     C42956   7.940  10.871   8.908  0.3417 -0.6227  0.0400
  326MOL0     C42957   7.865  10.883   9.028 -0.6620 -0.1193 -0.5007
  326MOL0     O42958   7.911  10.832   9.156 -0.2156 -0.3846 -0.0713
  326MOL0     C42959   7.969  10.701   9.146  0.1240 -0.0055  0.4085
  326MOL0     C42960   7.852  10.591   9.148  0.4695 -0.5859  0.5184
  326MOL0     C42961   7.892  10.478   9.231  0.7820  0.4537 -0.7811
  326MOL0     C42962   7.775  10.385   9.254 -0.2563 -0.1381 -0.5719
  326MOL0     C42963   7.681  10.429   9.362  0.0573 -0.1276  0.3150
  326MOL0     C42964   7.597  10.444   9.445  0.4005 -0.7962 -0.5005
  326MOL0     C42965   7.745  10.950   9.025  0.1089 -0.6006 -0.5243
  326MOL0     C42966   7.693  11.010   8.907 -1.1461  0.2826  0.6333
  326MOL0     H42967   7.303  11.039   8.643  1.2133  0.7803  0.5482
  326MOL0     H42968   7.179  11.105   8.453  0.9378 -4.4846 -0.7867
  326MOL0     H42969   7.413  11.265   8.082  0.9688  2.5961 -1.3963
  326MOL0     H42970   7.327  11.400   8.167  0.9732  0.5150 -1.1392
  326MOL0     H42971   7.120  11.281   8.080  1.0467 -0.0073  2.3305
  326MOL0     H42972   7.232  11.200   7.961  1.3480  0.0922  0.2421
  326MOL0     H42973   7.316  11.433   7.889 -0.8499  0.6946 -3.1371
  326MOL0     H42974   7.170  11.494   7.966 -0.6700 -0.3632 -0.8857
  326MOL0     H42975   7.161  11.284   7.759 -0.6973  0.5010 -1.9010
  326MOL0     H42976   7.024  11.354   7.829  1.1862 -2.6274  1.7387
  326MOL0     H42977   7.213  11.520   7.666  0.1827 -0.7323 -0.8745
  326MOL0     H42978   7.064  11.581   7.737  1.3119 -0.4565  1.8781
  326MOL0     H42979   6.940  11.400   7.621 -0.3916 -0.4051  0.7854
  326MOL0     H42980   7.086  11.318   7.559 -0.5601 -1.2369  3.4214
  326MOL0     H42981   6.958  11.486   7.409 -2.2188  0.8610  3.8113
  326MOL0     H42982   6.999  11.609   7.516 -2.4886  0.0664  0.7554
  326MOL0     H42983   7.227  11.445   7.393 -1.5167 -1.3140  3.6079
  326MOL0     H42984   7.241  11.603   7.472  1.2896 -1.0171  0.8867
  326MOL0     H42985   7.183  11.443   7.141  0.1373  1.7779 -1.0389
  326MOL0     H42986   7.099  11.677   6.881  3.2794  1.7652 -2.0270
  326MOL0     H42987   7.160  11.507   6.903  0.2667  1.0187 -1.2089
  326MOL0     H42988   7.382  11.572   6.898  2.4016  1.5669  0.5774
  326MOL0     H42989   7.361  11.745   6.938 -2.6167  1.8197 -1.1352
  326MOL0     H42990   7.257  11.611   6.687  0.8242 -0.9788  2.2699
  326MOL0     H42991   7.271  11.794   6.727  1.0949 -0.3101 -1.1052
  326MOL0     H42992   7.499  11.606   6.734  1.5230  0.5029 -0.4389
  326MOL0     H42993   7.503  11.783   6.751  3.4426 -2.1738  0.2468
  326MOL0     H42994   7.727  11.781   6.625  0.0167 -1.2796 -0.0346
  326MOL0     H42995   7.909  11.716   6.499 -0.4280 -0.8553  3.5295
  326MOL0     H42996   8.079  11.639   6.024 -0.5723 -0.8451  0.3948
  326MOL0     H42997   8.283  11.550   5.904 -0.5908  1.6157 -0.4092
  326MOL0     H42998   8.680  11.434   6.070 -2.5364 -2.4108  2.0507
  326MOL0     H42999   8.587  11.569   6.115 -3.8454 -1.5976 -0.1470
  326MOL0     H43000   8.589  11.671   5.886  0.7308  0.2967 -1.5053
  326MOL0     H43001   8.600  11.525   5.815 -4.7483  0.6527  1.7364
  326MOL0     H43002   8.836  11.488   5.886  0.6053  0.4401  0.9644
  326MOL0     H43003   8.828  11.639   5.974  0.5344 -2.4539  0.2449
  326MOL0     H43004   8.796  11.750   5.755  0.8395  1.1135 -2.3319
  326MOL0     H43005   8.954  11.685   5.782 -0.5324 -0.1555  0.7301
  326MOL0     H43006   8.725  11.562   5.616  0.8117  0.9355 -4.1290
  326MOL0     H43007   8.881  11.480   5.629 -1.6040 -0.3493  0.4237
  326MOL0     H43008   8.970  11.690   5.533 -0.1886  2.9473 -0.4295
  326MOL0     H43009   8.808  11.765   5.532  1.3412 -0.5746  3.4239
  326MOL0     H43010   8.917  11.532   5.369  0.4305 -0.8900  3.1111
  326MOL0     H43011   8.751  11.561   5.362  0.4293  0.3358  0.0754
  326MOL0     H43012   8.884  11.671   5.182 -2.6123 -1.1088  0.7661
  326MOL0     H43013   8.983  11.772   5.297 -0.5837  2.0398 -0.8571
  326MOL0     H43014   8.421  11.386   6.269  1.4276  2.2820  1.3959
  326MOL0     H43015   8.250  11.455   6.380 -1.4777 -2.2958 -0.5958
  326MOL0     H43016   7.672  11.484   6.236  0.3966  1.7513 -1.8870
  326MOL0     H43017   7.478  11.552   6.350  1.1062 -0.5668 -0.0348
  326MOL0     H43018   7.533  11.288   8.275  0.1632 -2.3208 -0.0700
  326MOL0     H43019   7.657  11.213   8.461 -0.3322 -2.2033 -1.4147
  326MOL0     H43020   7.930  10.873   8.706 -1.7084 -4.9048  0.8319
  326MOL0     H43021   8.031  10.815   8.888 -0.5323 -2.3010  0.5610
  326MOL0     H43022   8.041  10.680   9.225  0.0159 -1.0709  0.2330
  326MOL0     H43023   8.027  10.685   9.054  0.1320 -1.0903  0.5889
  326MOL0     H43024   7.761  10.638   9.187  2.0719  1.0190  2.5270
  326MOL0     H43025   7.838  10.558   9.045  0.1394  0.5839  0.1752
  326MOL0     H43026   7.918  10.509   9.332 -0.2815  1.7619 -0.8942
  326MOL0     H43027   7.975  10.429   9.179  0.8712  0.1424 -0.3534
  326MOL0     H43028   7.720  10.362   9.162 -1.9167  1.1870  0.0390
  326MOL0     H43029   7.817  10.292   9.294  2.1260  0.4118 -1.6024
  326MOL0     H43030   7.525  10.464   9.522  0.7378 -1.2445 -0.0641
  326MOL0     H43031   7.698  10.960   9.122  3.7712 -1.3704  1.5096
  326MOL0     H43032   7.606  11.075   8.913  0.8777  3.1862  0.2044
  327MOL0     O43033   8.291   8.622   1.720  0.0194 -0.2711  0.0811
  327MOL0     C43034   8.297   8.517   1.770  0.7552  0.8979 -0.5866
  327MOL0     O43035   8.401   8.432   1.754 -0.8476  0.4342 -0.4442
  327MOL0     C43036   8.491   8.446   1.654 -0.1117 -0.6987 -0.7638
  327MOL0     C43037   8.451   8.488   1.518  0.1762 -0.1435  0.1707
  327MOL0     C43038   8.540   8.519   1.420  0.1895 -0.4567  0.0897
  327MOL0     C43039   8.675   8.513   1.443  1.0325 -0.7239  1.0015
  327MOL0     O43040   8.749   8.550   1.325  0.3727  0.0515 -0.4943
  327MOL0     C43041   8.877   8.624   1.352  0.0378 -0.0687 -0.2176
  327MOL0     C43042   8.990   8.625   1.241 -0.7499  0.1405  0.7694
  327MOL0     C43043   8.939   8.660   1.097 -0.6726  0.3898  0.6641
  327MOL0     C43044   8.926   8.815   1.086 -0.0926  0.3126 -0.1009
  327MOL0     C43045   8.875   8.865   0.952 -0.3179  1.0817  0.0937
  327MOL0     C43046   8.955   8.852   0.834 -0.1996  1.0385 -0.1836
  327MOL0     C43047   9.086   8.937   0.854  0.6009 -0.8548  0.1754
  327MOL0     C43048   9.185   8.932   0.747 -0.3806  0.5745 -0.4319
  327MOL0     N43049   9.242   8.798   0.769  0.0693  0.1411  0.2889
  327MOL0     C43050   9.361   8.768   0.834  0.0605  0.8475  0.9732
  327MOL0     C43051   9.377   8.638   0.807  0.0544 -0.2307  0.2696
  327MOL0     C43052   9.506   8.557   0.844  0.0912 -0.2348  0.2611
  327MOL0     C43053   9.630   8.637   0.890 -1.0095 -0.7841 -0.5326
  327MOL0     C43054   9.736   8.537   0.950 -0.3679 -0.6686  0.5591
  327MOL0     C43055   9.767   8.428   0.842  0.5458  0.7014 -1.0343
  327MOL0     O43056   9.804   8.480   0.714 -0.3975  0.2554 -0.6030
  327MOL0     C43057   9.939   8.495   0.694 -1.1612 -0.4805  0.4536
  327MOL0     C43058   9.979   8.536   0.565 -0.8823  0.9826  1.0944
  327MOL0     C43059  10.108   8.562   0.525 -0.4449 -0.4012 -0.5765
  327MOL0     C43060  10.208   8.567   0.619 -0.5647 -0.7676 -0.5028
  327MOL0     C43061  10.346   8.603   0.575  0.1906  0.4000  0.8833
  327MOL0     O43062  10.442   8.602   0.672  0.9264  0.5288  0.1615
  327MOL0     C43063  10.574   8.620   0.650 -0.3412  0.8979 -0.4655
  327MOL0     C43064  10.653   8.561   0.755  0.4274  0.1843 -0.1145
  327MOL0     C43065  10.793   8.565   0.750  0.1664 -0.0281 -0.3728
  327MOL0     C43066  10.866   8.618   0.642  1.4433  0.7602  0.6367
  327MOL0     O43067  11.000   8.599   0.644 -0.1157 -0.2255  0.3800
  327MOL0     C43068  11.069   8.594   0.524  0.1351  0.5117  0.5601
  327MOL0     C43069  11.125   8.730   0.484 -0.3530  0.0297 -0.3416
  327MOL0     C43070  11.283   8.740   0.501  0.5092  0.0392  0.4093
  327MOL0     C43071  11.341   8.885   0.507 -0.1198  0.0904  0.3849
  327MOL0     C43072  11.496   8.887   0.525  1.2988 -0.0808 -0.7427
  327MOL0     C43073  11.550   9.021   0.568  0.4187 -0.0412  0.5908
  327MOL0     C43074  11.711   9.033   0.546  0.9588 -0.0217 -0.0758
  327MOL0     C43075  11.766   9.170   0.574 -0.9964 -1.1134 -0.4850
  327MOL0    Cl43076  11.906   9.141   0.687 -0.4593  0.2078  0.3390
  327MOL0     C43077  10.786   8.684   0.543 -0.2159 -0.6929  0.2443
  327MOL0     C43078  10.639   8.688   0.547  0.0143  0.9148 -0.2456
  327MOL0     O43079  10.370   8.630   0.454  0.3020 -0.2372 -0.7793
  327MOL0     C43080  10.171   8.548   0.751 -0.1889 -0.8152 -0.0205
  327MOL0     C43081  10.047   8.511   0.793 -0.1273  1.0817  0.0904
  327MOL0     N43082   9.278   8.586   0.726 -0.1985  0.0523 -0.9590
  327MOL0     N43083   9.202   8.687   0.693  0.5904 -0.1915 -0.4651
  327MOL0     C43084   8.724   8.464   1.568  0.3623 -0.9227  0.0307
  327MOL0     C43085   8.636   8.436   1.673  1.1254  1.1841  0.1401
  327MOL0     C43086   8.173   8.467   1.841  0.0602  0.3937 -0.4308
  327MOL0     C43087   8.168   8.342   1.906  0.4281  1.1369  0.0194
  327MOL0     C43088   8.057   8.294   1.984 -0.0572  0.6378  0.1870
  327MOL0     C43089   7.946   8.378   2.001 -0.1679 -0.6271  0.6693
  327MOL0     O43090   7.853   8.339   2.089  0.2600 -0.1909 -0.0140
  327MOL0     C43091   7.754   8.429   2.140 -0.3171  0.1978  1.3575
  327MOL0     C43092   7.675   8.369   2.248  0.5141 -0.0348 -0.4364
  327MOL0     C43093   7.751   8.367   2.373  0.5075  0.8951 -0.7350
  327MOL0     C43094   7.890   8.289   2.362  0.7934 -0.3926  0.3131
  327MOL0     C43095   7.922   8.205   2.473  0.1963 -0.1403  0.5334
  327MOL0     C43096   7.942   8.139   2.573 -0.0967  0.0720 -1.0508
  327MOL0     C43097   7.940   8.498   1.931  0.8202 -0.7461  0.5451
  327MOL0     C43098   8.054   8.542   1.850  0.3042  0.0763 -0.0874
  327MOL0     H43099   8.345   8.510   1.509  0.2093  1.3594  2.6047
  327MOL0     H43100   8.508   8.548   1.321 -1.2976 -4.2044 -0.7159
  327MOL0     H43101   8.918   8.583   1.445 -0.5753 -2.0931 -0.8115
  327MOL0     H43102   8.846   8.726   1.379 -1.2767 -0.5116  0.0333
  327MOL0     H43103   9.029   8.523   1.230 -0.3401  0.3424  0.2556
  327MOL0     H43104   9.079   8.687   1.259  1.3245 -0.8170 -4.3069
  327MOL0     H43105   8.844   8.606   1.090 -0.7337  0.6484 -0.9151
  327MOL0     H43106   8.999   8.625   1.013 -2.7441 -1.2935 -0.2088
  327MOL0     H43107   8.848   8.841   1.159 -1.2948  0.7958 -1.5164
  327MOL0     H43108   9.019   8.865   1.113  1.5850 -0.5912 -3.6916
  327MOL0     H43109   8.867   8.972   0.974 -2.4404  0.8342  0.7718
  327MOL0     H43110   8.776   8.820   0.938 -0.6555  0.4539  3.4830
  327MOL0     H43111   8.909   8.884   0.740  1.3597  0.4821 -1.1872
  327MOL0     H43112   8.996   8.751   0.836  2.4200  1.9932  2.3154
  327MOL0     H43113   9.053   9.040   0.839  0.2521 -1.1655 -1.3955
  327MOL0     H43114   9.148   8.918   0.942  0.0064  0.2315  0.8482
  327MOL0     H43115   9.259   9.011   0.761 -1.7473  1.7125  0.6119
  327MOL0     H43116   9.131   8.942   0.653  0.6086 -0.6601 -1.1702
  327MOL0     H43117   9.440   8.827   0.878 -0.7021  3.3417 -0.7704
  327MOL0     H43118   9.535   8.510   0.750  1.9841  1.8292 -0.2478
  327MOL0     H43119   9.485   8.480   0.919  1.3754  0.1166  1.0283
  327MOL0     H43120   9.606   8.704   0.974  0.0618  0.5547 -1.2544
  327MOL0     H43121   9.663   8.700   0.807  2.1875 -2.2195 -0.4987
  327MOL0     H43122   9.821   8.604   0.970 -1.5847  0.9822  0.3742
  327MOL0     H43123   9.692   8.487   1.036 -3.2541  0.8796  0.0870
  327MOL0     H43124   9.672   8.376   0.823 -1.6786  3.6814  0.8881
  327MOL0     H43125   9.833   8.357   0.893 -0.2805  0.6452 -0.0021
  327MOL0     H43126   9.896   8.527   0.496  0.6226  1.1913 -0.8064
  327MOL0     H43127  10.132   8.589   0.423 -0.7896  0.7487 -0.3702
  327MOL0     H43128  10.600   8.524   0.842  1.0326 -0.0589  0.1558
  327MOL0     H43129  10.843   8.515   0.832  2.4983 -1.6846 -2.6353
  327MOL0     H43130  11.003   8.552   0.448  1.3014 -0.8959  0.2782
  327MOL0     H43131  11.154   8.526   0.537 -1.0422 -1.4232 -1.3524
  327MOL0     H43132  11.066   8.808   0.533 -3.3640 -1.6148 -1.1404
  327MOL0     H43133  11.120   8.737   0.375 -0.0540  0.2048 -0.3438
  327MOL0     H43134  11.334   8.682   0.423 -0.4948 -1.5545  0.8658
  327MOL0     H43135  11.302   8.697   0.599  0.3238 -1.6799 -0.2653
  327MOL0     H43136  11.318   8.916   0.405 -1.2373  2.2338  1.2122
  327MOL0     H43137  11.287   8.951   0.576 -2.8466  0.4253 -1.8836
  327MOL0     H43138  11.545   8.858   0.431 -1.0860 -0.8299 -1.8381
  327MOL0     H43139  11.523   8.817   0.604  3.2078  2.0586  0.6063
  327MOL0     H43140  11.522   9.033   0.673  2.7122 -2.0063  1.5153
  327MOL0     H43141  11.504   9.098   0.506  1.1643 -0.9387 -1.1574
  327MOL0     H43142  11.763   8.957   0.604  2.5578  0.3052 -1.0145
  327MOL0     H43143  11.735   9.020   0.440 -0.2702 -0.2379 -0.3406
  327MOL0     H43144  11.684   9.226   0.620  0.2295  0.1274  0.3092
  327MOL0     H43145  11.816   9.223   0.492  0.2625  1.6263  1.8605
  327MOL0     H43146  10.835   8.725   0.456 -1.5779 -0.3991 -0.4038
  327MOL0     H43147  10.571   8.742   0.481 -1.0314 -1.2490 -1.0704
  327MOL0     H43148  10.245   8.553   0.831  0.0059  0.0315 -0.2458
  327MOL0     H43149  10.014   8.503   0.896  1.3331  0.1108  0.5241
  327MOL0     H43150   8.827   8.439   1.592 -1.2684 -3.5378  5.9924
  327MOL0     H43151   8.675   8.411   1.771  4.6183 -0.9704 -1.5848
  327MOL0     H43152   8.256   8.281   1.891  0.5647  1.4119 -0.3194
  327MOL0     H43153   8.070   8.192   2.019  1.5888 -0.7010 -3.7703
  327MOL0     H43154   7.686   8.457   2.059 -0.2712 -1.1276  0.8317
  327MOL0     H43155   7.792   8.528   2.166 -1.6265  0.9687  0.4925
  327MOL0     H43156   7.581   8.424   2.248  0.6210  0.1695 -1.4505
  327MOL0     H43157   7.643   8.268   2.220  0.9741  0.5985 -3.6109
  327MOL0     H43158   7.685   8.335   2.454 -0.2518  4.0114 -0.0023
  327MOL0     H43159   7.764   8.471   2.404 -0.4598  0.3479  1.7558
  327MOL0     H43160   7.880   8.219   2.278  0.9367 -0.3376  0.2498
  327MOL0     H43161   7.978   8.352   2.347  2.1471 -1.5627  2.7433
  327MOL0     H43162   7.974   8.080   2.657 -1.3318 -0.1937 -0.7509
  327MOL0     H43163   7.860   8.568   1.949 -0.4031 -2.4084  1.8249
  327MOL0     H43164   8.068   8.644   1.816  1.2321 -0.3223 -0.9459
  328MOL0     O43165   7.400   2.523   2.695  0.2150  0.5003  0.3477
  328MOL0     C43166   7.403   2.411   2.757 -0.9812 -0.6716  0.8272
  328MOL0     O43167   7.335   2.388   2.866 -0.0865  0.5777  0.0404
  328MOL0     C43168   7.264   2.491   2.926  0.1304 -0.4020  0.2188
  328MOL0     C43169   7.126   2.466   2.951  0.3573 -0.3069 -0.0693
  328MOL0     C43170   7.052   2.572   3.003  0.1026 -0.0282  0.2280
  328MOL0     C43171   7.110   2.697   3.046 -0.7301  0.7916 -0.5506
  328MOL0     O43172   7.050   2.797   3.122 -0.5423  0.3410  0.0968
  328MOL0     C43173   6.921   2.762   3.184  0.1388  0.4224 -0.0349
  328MOL0     C43174   6.907   2.848   3.303 -0.5959  1.1069  0.0184
  328MOL0     C43175   6.793   2.805   3.394 -0.7895  0.3996 -0.1052
  328MOL0     C43176   6.676   2.747   3.323 -0.5891 -0.6818  0.3033
  328MOL0     C43177   6.596   2.853   3.247  0.1495 -0.0960 -0.5776
  328MOL0     C43178   6.484   2.802   3.160  1.0082 -0.5647 -1.0325
  328MOL0     C43179   6.418   2.922   3.087 -0.7075 -0.3849  0.4308
  328MOL0     C43180   6.278   2.903   3.042 -0.3408 -0.7747 -0.6252
  328MOL0     N43181   6.268   2.848   2.911  0.6156  0.4808 -0.2586
  328MOL0     C43182   6.307   2.718   2.880  0.5188 -0.3034  0.0417
  328MOL0     C43183   6.292   2.714   2.750 -0.4358 -0.0381  1.0093
  328MOL0     C43184   6.319   2.599   2.660 -0.5938  0.3967 -0.4363
  328MOL0     C43185   6.457   2.543   2.666 -0.0577  0.0658  0.7237
  328MOL0     C43186   6.569   2.645   2.676 -0.0433 -0.3473 -0.3789
  328MOL0     C43187   6.617   2.688   2.538 -0.3953 -0.3678  1.4941
  328MOL0     O43188   6.704   2.807   2.548 -0.3122 -0.2299  0.0163
  328MOL0     C43189   6.658   2.900   2.632  0.6709 -0.0459 -0.4657
  328MOL0     C43190   6.545   2.981   2.605 -0.3709 -1.2391 -0.3861
  328MOL0     C43191   6.507   3.079   2.688  0.9585  0.1482 -0.8470
  328MOL0     C43192   6.580   3.116   2.805  0.0631 -0.2442  0.7474
  328MOL0     C43193   6.543   3.240   2.881 -0.4118  1.0001 -0.5072
  328MOL0     O43194   6.426   3.312   2.858  0.3498 -0.9227 -0.0792
  328MOL0     C43195   6.402   3.421   2.939  0.3283 -0.4877  1.0343
  328MOL0     C43196   6.396   3.540   2.867 -0.6684 -1.0238  0.2597
  328MOL0     C43197   6.368   3.659   2.934 -0.3830  0.3980  1.0411
  328MOL0     C43198   6.326   3.660   3.070 -0.2667  0.0198 -0.2257
  328MOL0     O43199   6.293   3.781   3.108  0.2643 -0.8806  0.4674
  328MOL0     C43200   6.227   3.801   3.230  0.1999  1.0617  0.6021
  328MOL0     C43201   6.162   3.938   3.205 -0.4850 -0.2572  0.1255
  328MOL0     C43202   6.070   3.985   3.314  0.5712 -0.0298  0.3876
  328MOL0     C43203   6.033   4.127   3.306 -0.8014  0.5255 -0.0802
  328MOL0     C43204   5.937   4.163   3.418 -0.1165 -1.0631  0.0857
  328MOL0     C43205   5.927   4.314   3.431  0.3799 -0.5663  0.3460
  328MOL0     C43206   5.861   4.350   3.563 -0.2021 -0.9317  0.1366
  328MOL0     C43207   5.785   4.486   3.585 -0.9037  0.3294  0.0372
  328MOL0    Cl43208   5.887   4.622   3.555  0.1646 -0.0900  0.2878
  328MOL0     C43209   6.336   3.545   3.145  0.2154 -0.4681  0.8770
  328MOL0     C43210   6.369   3.423   3.077 -0.3818 -0.8882 -0.1541
  328MOL0     O43211   6.621   3.258   2.977  0.4134  0.2416 -0.0303
  328MOL0     C43212   6.700   3.045   2.830  1.1871  0.8839  0.4375
  328MOL0     C43213   6.729   2.934   2.745  0.4488  0.6442 -0.3597
  328MOL0     N43214   6.244   2.830   2.701  0.1178 -0.5793  0.3262
  328MOL0     N43215   6.238   2.916   2.798 -0.3486  0.0277 -0.3569
  328MOL0     C43216   7.240   2.708   3.026 -0.3447 -0.3254  0.0431
  328MOL0     C43217   7.320   2.607   2.965  0.3787 -0.6610 -0.7556
  328MOL0     C43218   7.477   2.299   2.700 -0.4812  0.9324  0.3892
  328MOL0     C43219   7.514   2.300   2.563 -0.8706  0.0071 -0.6964
  328MOL0     C43220   7.585   2.192   2.508  0.9216 -1.3024  0.6012
  328MOL0     C43221   7.622   2.083   2.587 -0.1067 -0.5979 -0.2166
  328MOL0     O43222   7.696   1.982   2.532  0.8240  0.4193  0.3884
  328MOL0     C43223   7.753   1.893   2.630  0.2812 -0.6522  0.4642
  328MOL0     C43224   7.833   1.793   2.546  0.4463  0.4404 -0.7871
  328MOL0     C43225   7.895   1.683   2.635  0.5729  0.5657  0.2695
  328MOL0     C43226   8.034   1.729   2.675  0.3059  0.3912  0.5182
  328MOL0     C43227   8.035   1.821   2.787  0.5950  0.9882  0.4375
  328MOL0     C43228   8.015   1.899   2.877 -0.7653  0.2204 -0.8010
  328MOL0     C43229   7.593   2.087   2.725  0.0169  1.0145 -0.0324
  328MOL0     C43230   7.515   2.196   2.781  0.1454  0.2428 -0.0482
  328MOL0     H43231   7.084   2.370   2.924  1.2466 -0.9124  0.6404
  328MOL0     H43232   6.947   2.550   3.018  0.0371 -1.5752 -1.9997
  328MOL0     H43233   6.917   2.653   3.188  0.5755  0.3357 -1.4240
  328MOL0     H43234   6.841   2.793   3.117 -0.9646  3.0097  2.2743
  328MOL0     H43235   6.886   2.952   3.278  1.6316  2.0146  1.5403
  328MOL0     H43236   7.001   2.840   3.360  1.7453  3.5696 -3.1205
  328MOL0     H43237   6.775   2.881   3.470 -0.2274  0.5345 -0.1015
  328MOL0     H43238   6.838   2.724   3.453 -2.9424  0.6780  2.0778
  328MOL0     H43239   6.704   2.663   3.259  0.9992 -0.5698  0.8181
  328MOL0     H43240   6.613   2.691   3.394 -1.9988 -1.5631 -1.5347
  328MOL0     H43241   6.661   2.913   3.183 -0.9639  0.7766 -0.9341
  328MOL0     H43242   6.546   2.922   3.317 -2.9551 -0.4526 -2.2461
  328MOL0     H43243   6.411   2.760   3.230  0.9917  0.0098 -0.7052
  328MOL0     H43244   6.523   2.723   3.095  2.5826  0.3006 -1.1728
  328MOL0     H43245   6.409   3.006   3.157 -0.0738  1.3278 -1.4686
  328MOL0     H43246   6.489   2.953   3.010 -0.0242  1.0633  1.5886
  328MOL0     H43247   6.234   3.003   3.035  2.9841  0.8828  0.0241
  328MOL0     H43248   6.220   2.847   3.117  1.4497  0.9668  2.2661
  328MOL0     H43249   6.339   2.641   2.950  2.6119  2.3916  2.3037
  328MOL0     H43250   6.280   2.612   2.559 -1.7317 -0.8715 -0.1978
  328MOL0     H43251   6.249   2.518   2.682 -3.3421  1.4874 -4.1481
  328MOL0     H43252   6.466   2.475   2.580  1.4768  0.5769  0.4533
  328MOL0     H43253   6.461   2.482   2.757  0.4810 -0.5117  0.3245
  328MOL0     H43254   6.552   2.715   2.758  0.5604  1.1787 -1.5020
  328MOL0     H43255   6.653   2.588   2.717  0.1485  1.8504  2.5750
  328MOL0     H43256   6.527   2.703   2.477  1.1575 -3.5586 -2.0326
  328MOL0     H43257   6.656   2.603   2.481  1.0880  2.4610 -2.1424
  328MOL0     H43258   6.500   2.956   2.509  0.7147 -4.2553 -0.2208
  328MOL0     H43259   6.421   3.137   2.658 -0.0093  0.3620  1.9810
  328MOL0     H43260   6.422   3.537   2.761  2.3077  1.9245  0.7245
  328MOL0     H43261   6.369   3.754   2.882  1.2930  1.1725  2.3620
  328MOL0     H43262   6.289   3.805   3.320  0.8023 -0.2105  0.2672
  328MOL0     H43263   6.143   3.732   3.244  0.5740  0.1599 -1.3458
  328MOL0     H43264   6.119   3.926   3.105  0.5827  0.3974 -0.4218
  328MOL0     H43265   6.243   4.011   3.206  0.7634 -1.5234  3.3046
  328MOL0     H43266   6.118   3.966   3.410 -2.6685 -0.1679  2.1265
  328MOL0     H43267   5.985   3.917   3.307 -2.0672  2.7761  2.2719
  328MOL0     H43268   6.122   4.188   3.322 -0.5808  0.9717 -2.6133
  328MOL0     H43269   5.989   4.141   3.207  0.8760 -2.3971 -1.3768
  328MOL0     H43270   5.972   4.123   3.513 -0.6478 -1.3442  0.1663
  328MOL0     H43271   5.837   4.123   3.396 -0.4323  0.1710 -0.8577
  328MOL0     H43272   5.869   4.340   3.342  1.0950  0.5404  0.1824
  328MOL0     H43273   6.027   4.359   3.430 -1.3164  3.6342  0.2506
  328MOL0     H43274   5.780   4.279   3.581 -2.1355  1.1148 -0.0289
  328MOL0     H43275   5.931   4.332   3.645 -1.7311 -2.7578  1.1303
  328MOL0     H43276   5.766   4.488   3.693 -2.5949 -2.9164 -0.0882
  328MOL0     H43277   5.692   4.488   3.528 -1.8650 -3.7547  1.1536
  328MOL0     H43278   6.317   3.549   3.251 -0.8439 -2.3256  0.7905
  328MOL0     H43279   6.369   3.331   3.134 -4.5373  0.8349  3.1389
  328MOL0     H43280   6.776   3.087   2.897 -1.7586  0.2757  4.5537
  328MOL0     H43281   6.820   2.880   2.769 -0.8938 -1.5450  0.0766
  328MOL0     H43282   7.290   2.798   3.061  0.2552 -1.3572  1.9907
  328MOL0     H43283   7.425   2.630   2.949  0.4078 -1.1061 -1.2584
  328MOL0     H43284   7.472   2.380   2.503  0.7125  0.8864 -0.6940
  328MOL0     H43285   7.579   2.184   2.400 -4.1590  3.5693  0.0757
  328MOL0     H43286   7.674   1.837   2.680 -0.4787 -0.6193 -0.6776
  328MOL0     H43287   7.823   1.938   2.701  1.5892 -2.1242  0.1819
  328MOL0     H43288   7.774   1.735   2.474 -0.0809  0.7237 -0.5850
  328MOL0     H43289   7.899   1.843   2.475  1.7629  0.2832  0.2848
  328MOL0     H43290   7.893   1.593   2.572 -1.0050  1.0212 -0.3857
  328MOL0     H43291   7.844   1.656   2.728 -3.2878 -0.1076 -1.8449
  328MOL0     H43292   8.092   1.639   2.698 -1.4158 -0.2214  2.7680
  328MOL0     H43293   8.087   1.771   2.589  2.0577  1.0759  1.8646
  328MOL0     H43294   8.003   1.956   2.967  0.7786  0.9319 -1.0165
  328MOL0     H43295   7.627   2.012   2.795 -2.7782  0.6735  1.1045
  328MOL0     H43296   7.483   2.198   2.885 -0.2190  1.9984 -0.1603
  329MOL0     O43297   2.499   1.644   3.241 -0.1931  0.4397  0.0447
  329MOL0     C43298   2.497   1.753   3.292 -0.0919 -0.5103  0.2134
  329MOL0     O43299   2.507   1.784   3.421 -0.5347 -0.5339 -0.0087
  329MOL0     C43300   2.509   1.671   3.498 -0.6967  0.2694 -0.4292
  329MOL0     C43301   2.629   1.620   3.547  0.4380 -0.0761 -0.9110
  329MOL0     C43302   2.614   1.510   3.645 -0.3434 -0.4653 -0.1573
  329MOL0     C43303   2.494   1.454   3.685  0.5478 -0.2862 -0.7645
  329MOL0     O43304   2.483   1.368   3.787  0.0193 -0.4131  0.0079
  329MOL0     C43305   2.546   1.243   3.785 -0.3228  0.5031  0.6945
  329MOL0     C43306   2.638   1.225   3.903  0.2187  0.3263  0.1198
  329MOL0     C43307   2.566   1.241   4.038 -0.7172  1.0598  0.1749
  329MOL0     C43308   2.655   1.177   4.149  0.3573  0.1520  0.2507
  329MOL0     C43309   2.567   1.154   4.278  0.0817 -0.2989  0.3317
  329MOL0     C43310   2.465   1.265   4.313 -0.3934 -1.3053  0.6568
  329MOL0     C43311   2.407   1.248   4.449  0.2845 -0.5407  0.7379
  329MOL0     C43312   2.322   1.121   4.481 -0.1428  0.1042  0.5547
  329MOL0     N43313   2.396   1.027   4.561 -0.3251  0.6164  0.3113
  329MOL0     C43314   2.395   1.009   4.700  0.2393 -0.5760 -0.8917
  329MOL0     C43315   2.466   0.902   4.720  0.1228  0.4532 -0.2661
  329MOL0     C43316   2.481   0.835   4.859  0.1234 -0.2168 -0.3581
  329MOL0     C43317   2.530   0.945   4.948 -0.5841  0.2080 -0.6062
  329MOL0     C43318   2.556   0.901   5.101  0.0890  0.6293  0.0378
  329MOL0     C43319   2.603   0.757   5.133 -0.4465 -0.1799 -0.5575
  329MOL0     O43320   2.496   0.666   5.098  0.1011  0.1667 -0.5711
  329MOL0     C43321   2.531   0.537   5.088 -0.4872 -0.1953  0.2770
  329MOL0     C43322   2.630   0.490   4.992 -0.1029  0.6550 -0.6529
  329MOL0     C43323   2.666   0.354   5.000  0.5759 -0.0303 -0.3602
  329MOL0     C43324   2.617   0.272   5.106 -0.7598 -0.3644 -0.8919
  329MOL0     C43325   2.672   0.129   5.117  0.2028 -0.2089  0.0493
  329MOL0     O43326   2.785   0.092   5.047 -0.5729 -0.8762  0.5467
  329MOL0     C43327   2.815  -0.042   5.027  0.3242 -0.2770 -1.3128
  329MOL0     C43328   2.729  -0.148   5.029  0.4777 -0.1849 -0.5473
  329MOL0     C43329   2.773  -0.273   5.004  0.1482  0.3114  0.7640
  329MOL0     C43330   2.907  -0.296   4.978  0.4550  0.3223 -0.1786
  329MOL0     O43331   2.977  -0.414   4.978 -0.7385 -0.2832 -0.2062
  329MOL0     C43332   2.908  -0.537   4.979  0.0280 -0.2460 -0.2434
  329MOL0     C43333   2.934  -0.622   4.861 -0.0471  0.5858  0.5430
  329MOL0     C43334   2.864  -0.559   4.740  0.1974 -0.4826  0.9385
  329MOL0     C43335   2.928  -0.621   4.616  0.0744 -0.2315  0.3991
  329MOL0     C43336   2.888  -0.554   4.476 -0.5152 -0.0556 -0.4248
  329MOL0     C43337   2.998  -0.616   4.390  1.3745  0.2204 -0.3393
  329MOL0     C43338   2.973  -0.607   4.246 -0.0532 -0.2705  0.3343
  329MOL0     C43339   2.943  -0.480   4.185  0.2256 -0.5080 -0.2462
  329MOL0    Cl43340   2.776  -0.429   4.212  0.7851  0.0161  0.3294
  329MOL0     C43341   2.991  -0.188   4.951 -0.2158 -0.0613  0.1799
  329MOL0     C43342   2.942  -0.054   4.968 -0.4798 -0.6861 -0.3281
  329MOL0     O43343   2.611   0.063   5.198  0.2552  1.2968  0.3978
  329MOL0     C43344   2.507   0.317   5.178  0.5707 -0.2010  0.5477
  329MOL0     C43345   2.461   0.450   5.165  0.1128 -0.3097 -0.3426
  329MOL0     N43346   2.519   0.852   4.607 -0.3658  0.3182  0.0626
  329MOL0     N43347   2.467   0.923   4.510 -0.0666 -0.1811  0.0798
  329MOL0     C43348   2.381   1.508   3.628 -0.1556 -0.4065  0.0053
  329MOL0     C43349   2.387   1.608   3.530  0.1002  0.3603  0.8014
  329MOL0     C43350   2.479   1.863   3.199  0.3354  0.0470  0.0206
  329MOL0     C43351   2.439   1.988   3.238 -0.4941  0.3918  0.0458
  329MOL0     C43352   2.422   2.096   3.148  0.7682 -0.2917  0.0123
  329MOL0     C43353   2.453   2.077   3.010 -0.5335 -0.7426 -0.7349
  329MOL0     O43354   2.422   2.177   2.922  0.2289 -0.7803 -0.2819
  329MOL0     C43355   2.411   2.317   2.963  0.4805  0.3387 -0.3253
  329MOL0     C43356   2.430   2.416   2.844 -0.1355  0.1725 -0.1990
  329MOL0     C43357   2.306   2.434   2.757 -0.0487 -0.6573 -0.7724
  329MOL0     C43358   2.326   2.518   2.624  1.2687  1.1182  0.5188
  329MOL0     C43359   2.361   2.421   2.516 -0.1346 -0.3357  0.0219
  329MOL0     C43360   2.384   2.340   2.422 -0.0387 -0.3071 -0.1842
  329MOL0     C43361   2.500   1.955   2.976 -0.1323  0.0829 -0.0860
  329MOL0     C43362   2.524   1.849   3.063  0.5569 -0.2599 -0.2168
  329MOL0     H43363   2.723   1.673   3.556  3.1907 -4.7502  0.9595
  329MOL0     H43364   2.704   1.481   3.698  0.2714  1.4537 -0.0671
  329MOL0     H43365   2.587   1.238   3.683 -3.1110  2.4484 -0.6561
  329MOL0     H43366   2.455   1.184   3.795 -3.2587  4.1930 -1.4799
  329MOL0     H43367   2.724   1.292   3.894 -0.3042  1.2405  1.5211
  329MOL0     H43368   2.673   1.122   3.896  0.0567  0.2929 -0.2025
  329MOL0     H43369   2.472   1.185   4.032  1.3631 -2.9824  1.3019
  329MOL0     H43370   2.551   1.346   4.062 -4.0805  0.4209  1.5208
  329MOL0     H43371   2.686   1.079   4.110 -4.4402 -0.5140 -2.6347
  329MOL0     H43372   2.745   1.237   4.166 -0.5908  1.3737  1.1384
  329MOL0     H43373   2.637   1.159   4.362  0.5108 -2.7707  0.2013
  329MOL0     H43374   2.512   1.059   4.282 -2.7510  1.2573  0.9328
  329MOL0     H43375   2.381   1.267   4.244 -0.9604 -1.6800  1.3231
  329MOL0     H43376   2.511   1.363   4.295 -0.6979 -0.9940  1.5250
  329MOL0     H43377   2.480   1.266   4.529  2.4900 -0.3511 -1.2099
  329MOL0     H43378   2.345   1.335   4.472  1.1332 -0.0057  1.0506
  329MOL0     H43379   2.297   1.076   4.385  0.9584  2.2088 -0.8019
  329MOL0     H43380   2.229   1.147   4.532 -1.2910  0.0730 -1.4057
  329MOL0     H43381   2.340   1.065   4.775  0.0354 -1.2704 -0.5094
  329MOL0     H43382   2.568   0.768   4.860  0.1663 -0.1615  0.7022
  329MOL0     H43383   2.389   0.778   4.873  0.0606 -0.0423 -0.0395
  329MOL0     H43384   2.452   1.021   4.955 -0.0735  0.6142  1.3032
  329MOL0     H43385   2.625   0.993   4.924  0.8122 -1.4214  1.3462
  329MOL0     H43386   2.624   0.979   5.135  0.0147 -0.4741  2.9132
  329MOL0     H43387   2.458   0.918   5.147  0.3034  1.9643  0.0502
  329MOL0     H43388   2.617   0.751   5.242 -0.3819  1.9221 -0.4025
  329MOL0     H43389   2.700   0.734   5.088  0.0003 -2.6912  1.4372
  329MOL0     H43390   2.676   0.554   4.917 -2.4667  2.1875 -0.8861
  329MOL0     H43391   2.735   0.317   4.924  0.3463  1.5406 -1.3826
  329MOL0     H43392   2.630  -0.141   5.074 -0.7379 -2.0436 -2.7196
  329MOL0     H43393   2.700  -0.353   5.013  0.3549  0.1348  0.8622
  329MOL0     H43394   2.799  -0.530   4.986  0.0065  1.6752 -1.7311
  329MOL0     H43395   2.966  -0.582   5.060  1.7672 -0.8359 -1.7204
  329MOL0     H43396   2.901  -0.726   4.874 -0.7684  0.2722 -2.7200
  329MOL0     H43397   3.041  -0.613   4.840 -0.7206 -0.4836 -5.0566
  329MOL0     H43398   2.888  -0.453   4.739  0.9667 -0.6494  0.6051
  329MOL0     H43399   2.756  -0.571   4.735  0.3657 -1.7938 -0.0639
  329MOL0     H43400   3.035  -0.609   4.635  0.0285  1.6728 -0.3519
  329MOL0     H43401   2.902  -0.727   4.612 -1.0182  0.0042  0.9240
  329MOL0     H43402   2.891  -0.445   4.476 -1.3336  0.0047 -2.0976
  329MOL0     H43403   2.790  -0.579   4.435 -1.1423  0.8348  0.5059
  329MOL0     H43404   3.019  -0.721   4.416  2.8025  0.7226  0.7094
  329MOL0     H43405   3.093  -0.567   4.413  1.2770  0.9998 -1.5347
  329MOL0     H43406   3.069  -0.629   4.197 -0.1345  2.5337 -1.2984
  329MOL0     H43407   2.893  -0.673   4.213 -1.1461  0.8882  0.6087
  329MOL0     H43408   2.958  -0.488   4.077  3.6164 -0.2452  0.0986
  329MOL0     H43409   2.992  -0.393   4.230 -1.1357 -0.5777  1.5109
  329MOL0     H43410   3.093  -0.208   4.917  0.5237  3.1712  0.1816
  329MOL0     H43411   2.999   0.034   4.941  0.2264 -1.4309 -1.3702
  329MOL0     H43412   2.450   0.250   5.241 -2.7441  1.3149 -0.5858
  329MOL0     H43413   2.382   0.484   5.231 -1.6467 -0.6225 -2.2016
  329MOL0     H43414   2.298   1.447   3.660  0.0982 -0.8523 -0.1663
  329MOL0     H43415   2.294   1.638   3.483 -0.2667 -1.3229  0.3989
  329MOL0     H43416   2.420   2.000   3.344 -0.6820  1.6477 -0.1208
  329MOL0     H43417   2.381   2.191   3.182  0.6303 -0.0506 -0.8123
  329MOL0     H43418   2.491   2.335   3.036  1.6801 -0.8200 -1.3069
  329MOL0     H43419   2.313   2.338   3.006 -0.2927 -1.2950 -1.2004
  329MOL0     H43420   2.461   2.511   2.888 -1.3921  0.4170  0.1905
  329MOL0     H43421   2.511   2.376   2.782  0.2558 -0.3592  0.6485
  329MOL0     H43422   2.236   2.490   2.820  2.0234 -0.1711  1.2080
  329MOL0     H43423   2.256   2.342   2.727 -0.7052 -0.4398 -0.3831
  329MOL0     H43424   2.227   2.558   2.600  0.9129 -0.0135  0.0537
  329MOL0     H43425   2.396   2.602   2.636 -1.1555  3.4154 -0.4480
  329MOL0     H43426   2.396   2.259   2.353 -3.3544 -4.4165  3.4446
  329MOL0     H43427   2.511   1.949   2.868 -0.0315  0.1653 -0.0804
  329MOL0     H43428   2.562   1.759   3.015  0.9339 -1.8763  2.8709
  330MOL0     O43429   5.731   0.189   9.618  0.2251  0.3109 -0.1814
  330MOL0     C43430   5.781   0.088   9.675  0.0422 -0.5494 -0.1769
  330MOL0     O43431   5.779   0.063   9.803  0.3941 -0.8166  0.3784
  330MOL0     C43432   5.705   0.121   9.898 -0.5008 -0.9700 -0.3198
  330MOL0     C43433   5.661   0.041  10.003 -0.7078  0.4279 -0.8226
  330MOL0     C43434   5.589   0.096  10.112 -0.4244  0.1187  0.4224
  330MOL0     C43435   5.562   0.232  10.115  0.2155 -0.9459  0.8466
  330MOL0     O43436   5.507   0.306  10.217 -0.0291  0.3954 -0.1927
  330MOL0     C43437   5.395   0.252  10.281 -0.6305 -0.1182 -0.5396
  330MOL0     C43438   5.276   0.259  10.180  0.3806 -0.1752  0.2546
  330MOL0     C43439   5.223   0.403  10.137 -0.1472 -0.3863 -0.1637
  330MOL0     C43440   5.176   0.496  10.257 -0.5423  0.2643  0.1250
  330MOL0     C43441   5.044   0.439  10.319  0.9989 -0.1064 -0.5819
  330MOL0     C43442   4.993   0.525  10.435 -0.2899  0.5041  0.0151
  330MOL0     C43443   4.883   0.625  10.404 -0.2519 -0.2287 -0.0044
  330MOL0     C43444   4.863   0.732  10.515 -0.3560 -0.7499  0.4258
  330MOL0     N43445   4.977   0.832  10.514 -0.2517  1.0407  0.7026
  330MOL0     C43446   5.097   0.811  10.584  0.2459 -0.2435  0.9913
  330MOL0     C43447   5.181   0.913  10.548  0.4420 -0.6252  0.0116
  330MOL0     C43448   5.324   0.949  10.587  0.1427  1.5236 -0.1474
  330MOL0     C43449   5.351   0.916  10.732 -0.6124  0.4179  0.2845
  330MOL0     C43450   5.474   0.999  10.775  0.1473  0.5958 -0.0003
  330MOL0     C43451   5.500   0.989  10.930 -1.1827 -0.6475 -0.6830
  330MOL0     O43452   5.549   0.858  10.955  0.6379 -0.5572  0.0986
  330MOL0     C43453   5.588   0.814  11.081 -0.1942 -1.5760 -0.7494
  330MOL0     C43454   5.598   0.682  11.115  0.2439  0.1189 -0.0452
  330MOL0     C43455   5.646   0.641  11.244 -0.8772 -0.7759  0.0629
  330MOL0     C43456   5.671   0.745  11.343  0.7294 -1.1546  0.2332
  330MOL0     C43457   5.699   0.720  11.475 -0.0633  0.1713 -0.7694
  330MOL0     O43458   5.708   0.824  11.564  0.3313  0.1894  0.1584
  330MOL0     C43459   5.739   0.788  11.694  0.1588  0.2344  1.2993
  330MOL0     C43460   5.876   0.781  11.727  1.1259  0.3953  1.1698
  330MOL0     C43461   5.920   0.752  11.860  0.3170  0.0148  0.3285
  330MOL0     C43462   5.824   0.730  11.968  1.3260 -0.9594 -0.1204
  330MOL0     O43463   5.868   0.710  12.097  1.0644  0.3009  0.6726
  330MOL0     C43464   5.785   0.709  12.214 -0.1050 -0.2310  0.4589
  330MOL0     C43465   5.867   0.649  12.330 -0.4918 -0.1692 -0.1524
  330MOL0     C43466   5.783   0.598  12.447  0.1836 -0.6383  0.7382
  330MOL0     C43467   5.737   0.718  12.531  1.0025 -0.1505 -0.4825
  330MOL0     C43468   5.613   0.666  12.610 -0.3164  0.3824 -0.6832
  330MOL0     C43469   5.550   0.776  12.685 -1.7709  0.3175 -0.7774
  330MOL0     C43470   5.643   0.852  12.787  0.3986  0.7203 -0.6381
  330MOL0     C43471   5.570   0.906  12.898  0.0907  1.3769  0.0422
  330MOL0    Cl43472   5.440   1.014  12.841 -0.1006  0.2550 -0.3447
  330MOL0     C43473   5.683   0.722  11.918 -0.6167  0.2065 -0.6899
  330MOL0     C43474   5.642   0.761  11.787  0.3936 -0.3490  0.8532
  330MOL0     O43475   5.723   0.599  11.509  0.3122  0.0729  0.2038
  330MOL0     C43476   5.662   0.879  11.301  0.6990 -1.0452  0.9624
  330MOL0     C43477   5.621   0.913  11.182 -0.1013  0.9901  1.1965
  330MOL0     N43478   5.111   0.997  10.461 -0.6431 -0.5996  0.4673
  330MOL0     N43479   4.994   0.944  10.448  0.8282 -1.4163  0.1497
  330MOL0     C43480   5.623   0.314  10.016 -0.4460  0.3652 -0.8931
  330MOL0     C43481   5.689   0.260   9.906 -0.1798  0.3440 -0.0010
  330MOL0     C43482   5.862   0.002   9.583 -0.1334  0.1221 -1.0906
  330MOL0     C43483   5.865  -0.136   9.589  0.0721 -0.6880  0.0966
  330MOL0     C43484   5.957  -0.211   9.527  0.0634 -0.2510  0.2358
  330MOL0     C43485   6.047  -0.154   9.431 -0.6911  1.1196  0.5375
  330MOL0     O43486   6.143  -0.230   9.372 -0.2164 -0.9229  0.8909
  330MOL0     C43487   6.225  -0.302   9.465 -0.1271 -0.0157  0.5660
  330MOL0     C43488   6.364  -0.331   9.421 -0.3246 -0.2138  0.3566
  330MOL0     C43489   6.364  -0.376   9.271 -0.4141 -0.8041  0.5457
  330MOL0     C43490   6.507  -0.413   9.229 -0.3073 -0.3274 -1.3954
  330MOL0     C43491   6.525  -0.428   9.091  0.6540 -0.2683 -0.7040
  330MOL0     C43492   6.548  -0.421   8.975 -0.7518 -0.8117  0.5968
  330MOL0     C43493   6.046  -0.020   9.426 -0.8567 -1.1985 -0.4281
  330MOL0     C43494   5.956   0.065   9.501 -0.8180  0.1013 -0.7250
  330MOL0     H43495   5.679  -0.065   9.990  0.7661  0.3391  1.3413
  330MOL0     H43496   5.558   0.038  10.199  0.0278  1.4965  1.5413
  330MOL0     H43497   5.393   0.331  10.357  1.9725  2.9003 -3.2819
  330MOL0     H43498   5.416   0.150  10.314  0.1152  0.5904  1.3451
  330MOL0     H43499   5.188   0.207  10.219 -0.4611  1.0649  0.0656
  330MOL0     H43500   5.309   0.207  10.090 -2.3273 -1.3266 -0.1837
  330MOL0     H43501   5.154   0.400  10.053  0.7939 -3.4500 -0.9608
  330MOL0     H43502   5.313   0.452  10.099  1.2463 -0.0950  3.1621
  330MOL0     H43503   5.245   0.504  10.341 -0.7596  1.5095  0.2090
  330MOL0     H43504   5.171   0.602  10.230  1.3712  0.0247 -1.3197
  330MOL0     H43505   5.071   0.345  10.369  0.0472 -0.3718 -0.5515
  330MOL0     H43506   4.963   0.423  10.249 -0.0504  0.0171  0.5640
  330MOL0     H43507   5.078   0.584  10.470 -1.1189  0.4636  2.2562
  330MOL0     H43508   4.971   0.454  10.516 -1.8100 -0.9346 -1.5728
  330MOL0     H43509   4.913   0.684  10.316  3.1388  1.3128  1.9648
  330MOL0     H43510   4.793   0.569  10.379  2.2714 -3.8084 -2.0294
  330MOL0     H43511   4.852   0.669  10.605  0.1203 -3.9005 -1.5485
  330MOL0     H43512   4.770   0.787  10.499 -0.8530 -0.9457  2.3346
  330MOL0     H43513   5.119   0.734  10.656  0.0319  0.0702  1.3920
  330MOL0     H43514   5.338   1.057  10.575 -0.3065  1.8772  2.0688
  330MOL0     H43515   5.396   0.886  10.534  0.4938  1.6016  0.2334
  330MOL0     H43516   5.364   0.809  10.750 -0.7720  0.5821  1.4787
  330MOL0     H43517   5.260   0.939  10.789 -0.0558  2.6935  0.3516
  330MOL0     H43518   5.568   0.973  10.724  0.5319  0.1401  0.9249
  330MOL0     H43519   5.451   1.105  10.760 -3.2253  0.4527  2.9910
  330MOL0     H43520   5.413   1.010  10.992  0.5983  3.1117  0.8416
  330MOL0     H43521   5.578   1.062  10.954  0.3635 -2.6148  0.6304
  330MOL0     H43522   5.584   0.611  11.034 -1.0957  1.3298 -0.9393
  330MOL0     H43523   5.651   0.536  11.271 -2.2462 -0.7246  0.5971
  330MOL0     H43524   5.947   0.796  11.646  1.3634  0.9746  1.4761
  330MOL0     H43525   6.023   0.756  11.895 -0.5400  0.7301  2.9504
  330MOL0     H43526   5.705   0.645  12.177  1.6350 -1.8330 -0.7750
  330MOL0     H43527   5.775   0.814  12.242  0.6081  0.2616 -0.9881
  330MOL0     H43528   5.941   0.722  12.363  0.6317 -0.2578 -2.3178
  330MOL0     H43529   5.919   0.563  12.287 -3.4329 -0.4621 -3.5820
  330MOL0     H43530   5.849   0.535  12.508  0.6799 -0.2317  0.6348
  330MOL0     H43531   5.701   0.542  12.404 -0.0453 -1.2433  1.9062
  330MOL0     H43532   5.814   0.751  12.600  0.7796 -0.2864 -0.1643
  330MOL0     H43533   5.709   0.795  12.459 -0.6347 -0.4833 -0.2393
  330MOL0     H43534   5.630   0.578  12.674  1.1930  2.1874  1.5701
  330MOL0     H43535   5.536   0.646  12.535 -0.0010  3.6692 -2.0575
  330MOL0     H43536   5.464   0.727  12.732 -2.1235  0.7666 -0.9421
  330MOL0     H43537   5.501   0.849  12.620 -3.0716 -0.9051 -1.2228
  330MOL0     H43538   5.731   0.794  12.815  1.1488  1.2272 -1.8688
  330MOL0     H43539   5.679   0.944  12.739  2.0375  2.3051  3.2210
  330MOL0     H43540   5.649   0.944  12.964  0.4821  0.8866 -0.1409
  330MOL0     H43541   5.522   0.823  12.952  1.3041  1.5150  1.3863
  330MOL0     H43542   5.606   0.699  11.990 -0.9082  0.2744 -0.9765
  330MOL0     H43543   5.539   0.769  11.755  0.6999 -2.6882 -0.9915
  330MOL0     H43544   5.692   0.963  11.363 -1.4592 -0.0811  0.8020
  330MOL0     H43545   5.610   1.020  11.166 -0.2413  0.8844  0.5300
  330MOL0     H43546   5.601   0.420  10.019 -0.0587  0.4340 -0.0618
  330MOL0     H43547   5.728   0.311   9.819 -0.8070 -3.1198 -2.5483
  330MOL0     H43548   5.806  -0.180   9.668  2.0736 -2.0546  0.9188
  330MOL0     H43549   5.969  -0.314   9.559  0.3158 -0.8848 -1.7638
  330MOL0     H43550   6.177  -0.397   9.490  0.1421  0.0939  1.5584
  330MOL0     H43551   6.246  -0.250   9.559  0.5408  1.3845 -0.3280
  330MOL0     H43552   6.430  -0.245   9.435  1.7321 -1.7574  0.6225
  330MOL0     H43553   6.405  -0.413   9.481  0.5955 -0.0164  0.0240
  330MOL0     H43554   6.319  -0.300   9.206 -0.3268 -0.6854  0.6243
  330MOL0     H43555   6.296  -0.462   9.273 -1.4191 -0.2990 -3.5153
  330MOL0     H43556   6.569  -0.335   9.275 -1.5119  0.8412 -1.7236
  330MOL0     H43557   6.523  -0.507   9.283 -0.5700  1.4621  2.0830
  330MOL0     H43558   6.562  -0.419   8.869  1.5245 -1.2589  0.8583
  330MOL0     H43559   6.110   0.018   9.347 -3.5329 -0.2257 -2.2679
  330MOL0     H43560   5.959   0.174   9.499 -2.7203  0.1963 -0.4242
  331MOL0     O43561   8.650   1.113   9.554 -1.0349 -0.0157  0.1704
  331MOL0     C43562   8.653   1.065   9.440  0.2963 -0.3840  0.6245
  331MOL0     O43563   8.572   0.968   9.393 -0.2721 -0.4312 -0.1246
  331MOL0     C43564   8.452   0.947   9.447  0.1485  0.1626  0.0866
  331MOL0     C43565   8.388   0.829   9.413 -0.7767 -0.0597  0.0193
  331MOL0     C43566   8.254   0.812   9.449  0.1598  0.5046 -0.9152
  331MOL0     C43567   8.182   0.902   9.525  0.0358  0.0574 -0.4007
  331MOL0     O43568   8.047   0.889   9.555  0.2600 -0.4231  0.1442
  331MOL0     C43569   8.027   0.882   9.702 -0.0331 -0.3470 -0.6770
  331MOL0     C43570   7.878   0.867   9.728  0.0064 -0.0676  0.1332
  331MOL0     C43571   7.836   0.885   9.878  0.1216 -0.2972 -0.3798
  331MOL0     C43572   7.932   0.808   9.979  0.7964 -0.6457 -0.7489
  331MOL0     C43573   7.921   0.656   9.988  0.5481 -0.2807  1.2502
  331MOL0     C43574   8.043   0.575  10.048  0.1141 -0.2446 -0.2301
  331MOL0     C43575   8.068   0.592  10.197 -0.3058 -0.0051  0.0162
  331MOL0     C43576   8.182   0.484  10.244  0.8461  0.5034  0.3164
  331MOL0     N43577   8.186   0.433  10.379  0.5848 -0.0008 -0.0336
  331MOL0     C43578   8.066   0.422  10.444  0.3662  0.5687 -0.3089
  331MOL0     C43579   8.108   0.377  10.564  0.6444  0.6307  0.5105
  331MOL0     C43580   8.022   0.346  10.684 -0.8697 -0.3126  0.6157
  331MOL0     C43581   8.035   0.210  10.743  0.6320  0.8354 -0.1871
  331MOL0     C43582   8.025   0.095  10.633  0.8002 -0.2481 -1.1941
  331MOL0     C43583   7.881   0.073  10.563  0.1599 -0.1383 -1.1082
  331MOL0     O43584   7.848  -0.064  10.534  0.3545 -0.2810  0.6234
  331MOL0     C43585   7.796  -0.153  10.624 -0.3946  0.4895 -0.4597
  331MOL0     C43586   7.790  -0.285  10.573  1.3482  0.9597 -0.3955
  331MOL0     C43587   7.747  -0.393  10.650 -0.4170  0.2822  1.5945
  331MOL0     C43588   7.713  -0.383  10.788  0.5720  0.0249  0.6023
  331MOL0     C43589   7.675  -0.500  10.867  0.2492 -0.0568 -0.5420
  331MOL0     O43590   7.621  -0.612  10.805 -0.1014 -0.1441 -0.0291
  331MOL0     C43591   7.601  -0.734  10.870 -0.0853  0.3685  0.0751
  331MOL0     C43592   7.483  -0.800  10.861 -0.1423 -0.4287  0.4758
  331MOL0     C43593   7.469  -0.932  10.916 -0.0068  0.9555  0.8582
  331MOL0     C43594   7.573  -0.990  10.979 -1.1094 -0.6102 -0.9730
  331MOL0     O43595   7.542  -1.122  11.021 -0.3401  0.9813  0.8163
  331MOL0     C43596   7.656  -1.199  11.066  0.6269 -0.1240  0.0745
  331MOL0     C43597   7.636  -1.353  11.049 -0.0515 -0.2206 -0.6812
  331MOL0     C43598   7.507  -1.410  11.126 -0.5791 -0.1621  0.1049
  331MOL0     C43599   7.508  -1.555  11.086  0.2859  0.1896  0.3865
  331MOL0     C43600   7.402  -1.631  11.173  0.5398  1.1113  0.8708
  331MOL0     C43601   7.403  -1.787  11.122  0.5476 -0.2958  0.2775
  331MOL0     C43602   7.512  -1.885  11.168 -0.2722 -0.3505 -0.2049
  331MOL0     C43603   7.508  -2.020  11.103 -0.1112  0.2660 -0.2099
  331MOL0    Cl43604   7.527  -2.003  10.933  0.1803  0.3628 -0.3761
  331MOL0     C43605   7.704  -0.931  10.988  0.4125 -0.3067  0.2982
  331MOL0     C43606   7.713  -0.797  10.931 -0.0967  0.9012  0.2407
  331MOL0     O43607   7.691  -0.487  10.987  0.1475 -0.4333 -0.8338
  331MOL0     C43608   7.723  -0.251  10.836  0.0625 -0.1952  0.4980
  331MOL0     C43609   7.750  -0.143  10.755  0.4735 -1.0139 -0.5554
  331MOL0     N43610   8.241   0.350  10.561  0.0704  0.7362  0.5938
  331MOL0     N43611   8.285   0.382  10.447 -0.0223  0.3739 -0.6100
  331MOL0     C43612   8.246   1.012   9.560 -1.0418 -0.1765 -0.3405
  331MOL0     C43613   8.384   1.043   9.525 -0.4686 -0.2692  0.1202
  331MOL0     C43614   8.772   1.088   9.359 -0.4733 -0.6814 -0.0670
  331MOL0     C43615   8.774   1.067   9.221  0.1268  0.0873 -1.1466
  331MOL0     C43616   8.889   1.096   9.151 -1.1285  0.3177 -0.6461
  331MOL0     C43617   9.009   1.142   9.215  0.2971 -0.1892  0.0280
  331MOL0     O43618   9.120   1.149   9.141 -0.1880 -0.5620 -0.6037
  331MOL0     C43619   9.250   1.134   9.196  0.2234  0.0251  0.2682
  331MOL0     C43620   9.350   1.085   9.087  0.2814  0.2902 -0.1179
  331MOL0     C43621   9.495   1.093   9.119  0.2952 -0.7551 -0.1927
  331MOL0     C43622   9.580   1.096   8.992 -0.4363 -0.0891  0.4639
  331MOL0     C43623   9.619   0.965   8.941  0.4252  1.0527 -0.0988
  331MOL0     C43624   9.657   0.853   8.908  0.7730 -0.0692 -0.1727
  331MOL0     C43625   9.007   1.152   9.353 -0.3205 -0.4202 -0.1509
  331MOL0     C43626   8.898   1.116   9.424  0.1399  0.9181  0.2311
  331MOL0     H43627   8.433   0.762   9.341 -0.3546  3.1523 -3.0012
  331MOL0     H43628   8.187   0.727   9.445  0.9672 -0.2529  0.7977
  331MOL0     H43629   8.059   0.975   9.750 -0.7824 -0.4756  0.0869
  331MOL0     H43630   8.091   0.801   9.739 -2.6925 -2.8896 -1.3165
  331MOL0     H43631   7.846   0.765   9.705 -0.3938 -0.5288  2.4521
  331MOL0     H43632   7.823   0.948   9.680 -2.0552  1.7645  4.9703
  331MOL0     H43633   7.731   0.855   9.881  0.0593 -0.0442  1.2963
  331MOL0     H43634   7.811   0.988   9.903 -1.1793 -0.3754 -1.2813
  331MOL0     H43635   8.034   0.841   9.956  0.3034 -0.8836 -3.6201
  331MOL0     H43636   7.927   0.847  10.082  1.7118  1.5246 -1.4532
  331MOL0     H43637   7.902   0.628   9.884 -0.6647  1.2000  1.0325
  331MOL0     H43638   7.830   0.634  10.044 -0.9287  0.4440 -0.7569
  331MOL0     H43639   8.140   0.596  10.001  0.4525  0.8450  0.9008
  331MOL0     H43640   8.023   0.470  10.028 -1.5880  0.3963 -2.3558
  331MOL0     H43641   8.100   0.693  10.227 -1.0732  0.4875 -0.8040
  331MOL0     H43642   7.971   0.579  10.245  0.1062  0.0001  0.8733
  331MOL0     H43643   8.280   0.529  10.228  2.2398 -2.5707 -0.6277
  331MOL0     H43644   8.175   0.393  10.183  2.1907  1.0687 -0.7270
  331MOL0     H43645   7.970   0.464  10.415  0.1410  0.2873  0.0184
  331MOL0     H43646   7.917   0.347  10.653 -1.0149 -0.5420  1.1019
  331MOL0     H43647   8.020   0.422  10.762 -0.6177 -1.1521  1.4506
  331MOL0     H43648   7.964   0.194  10.825 -1.5965  0.4515 -2.0881
  331MOL0     H43649   8.136   0.205  10.785  1.7540  2.1409 -2.5204
  331MOL0     H43650   8.106   0.096  10.559  2.2964 -1.2136  0.3633
  331MOL0     H43651   8.039   0.009  10.699 -0.8164  1.1674  1.1549
  331MOL0     H43652   7.873   0.135  10.473  0.4177 -0.3561 -1.2833
  331MOL0     H43653   7.813   0.110  10.639  1.0239  2.6206 -1.5693
  331MOL0     H43654   7.824  -0.296  10.471  0.4811  1.1095 -0.7100
  331MOL0     H43655   7.726  -0.485  10.597  1.5212  0.4203  0.5115
  331MOL0     H43656   7.402  -0.750  10.809 -0.8208 -1.0748  0.8895
  331MOL0     H43657   7.375  -0.986  10.910  0.2077  0.7444 -1.6086
  331MOL0     H43658   7.661  -1.164  11.169  0.9238  1.8475 -0.5715
  331MOL0     H43659   7.750  -1.175  11.016  0.0991 -2.7690 -2.4927
  331MOL0     H43660   7.721  -1.411  11.086 -1.9993 -4.2331 -1.9399
  331MOL0     H43661   7.620  -1.379  10.944 -0.6848 -2.2412 -0.1270
  331MOL0     H43662   7.417  -1.352  11.103 -0.2636  0.4927  0.4821
  331MOL0     H43663   7.522  -1.399  11.233 -0.4343  0.6765  0.0104
  331MOL0     H43664   7.482  -1.563  10.980  0.7150 -2.2587  0.4119
  331MOL0     H43665   7.607  -1.599  11.103  0.6887  1.4022  1.3646
  331MOL0     H43666   7.299  -1.601  11.151 -0.3825 -2.9616 -1.4910
  331MOL0     H43667   7.426  -1.629  11.279 -1.4735 -2.0879  1.5372
  331MOL0     H43668   7.394  -1.785  11.013  1.4965 -1.1660  0.1626
  331MOL0     H43669   7.308  -1.828  11.160  0.0083  1.6307  1.1071
  331MOL0     H43670   7.602  -1.841  11.123  0.8847 -2.8638 -0.4882
  331MOL0     H43671   7.522  -1.894  11.276  4.6774  0.9877 -0.2983
  331MOL0     H43672   7.411  -2.062  11.131  1.9583 -3.3372  2.2914
  331MOL0     H43673   7.573  -2.095  11.147 -1.7495 -1.6111 -0.8427
  331MOL0     H43674   7.786  -0.971  11.047  1.2572 -0.6712 -1.0790
  331MOL0     H43675   7.810  -0.750  10.940 -0.0964  1.0481 -0.5164
  331MOL0     H43676   7.699  -0.233  10.940 -3.7518  2.1413 -0.5953
  331MOL0     H43677   7.741  -0.052  10.814 -1.0267 -1.3451 -0.2214
  331MOL0     H43678   8.196   1.091   9.613  0.8767  1.7824 -1.2833
  331MOL0     H43679   8.426   1.139   9.553  0.1657  0.2221 -2.2972
  331MOL0     H43680   8.677   1.047   9.175 -2.2032  1.9059  2.5148
  331MOL0     H43681   8.905   1.076   9.046 -2.9447 -0.3719 -0.8284
  331MOL0     H43682   9.250   1.068   9.284 -4.3097 -0.9800 -0.2488
  331MOL0     H43683   9.293   1.229   9.229 -0.6390  1.3405 -2.1776
  331MOL0     H43684   9.321   0.981   9.072 -0.8096  0.5114  0.3913
  331MOL0     H43685   9.319   1.150   9.005 -0.9982  0.3755  0.4139
  331MOL0     H43686   9.526   1.015   9.189  2.7316  1.8253  1.8563
  331MOL0     H43687   9.510   1.189   9.169  0.7820 -1.2554  0.6545
  331MOL0     H43688   9.527   1.150   8.913  1.3220  2.0927  0.6734
  331MOL0     H43689   9.676   1.148   8.996  1.0327 -2.0418 -3.6324
  331MOL0     H43690   9.689   0.753   8.890  2.9968 -0.5593  4.7770
  331MOL0     H43691   9.101   1.173   9.402  0.9737 -1.5477 -2.0412
  331MOL0     H43692   8.914   1.103   9.530 -1.9385  0.1978  0.5046
  332MOL0     O43693  10.574   1.300  10.767 -0.6098  0.2091 -0.8052
  332MOL0     C43694  10.520   1.277  10.660  0.4785 -1.0453  0.5758
  332MOL0     O43695  10.495   1.150  10.598 -0.1451  0.3446  0.2837
  332MOL0     C43696  10.488   1.036  10.670  0.1364 -0.0172  0.4876
  332MOL0     C43697  10.372   0.957  10.642  0.3756 -0.6963  0.6279
  332MOL0     C43698  10.368   0.828  10.698 -0.4738 -0.7625  0.3770
  332MOL0     C43699  10.472   0.770  10.766  0.0698 -0.6071  0.1329
  332MOL0     O43700  10.464   0.635  10.799  0.4840 -0.1186 -0.3921
  332MOL0     C43701  10.416   0.543  10.706 -0.3672 -0.3177  0.1197
  332MOL0     C43702  10.446   0.399  10.756 -0.6413 -1.0050 -0.0808
  332MOL0     C43703  10.420   0.289  10.649  0.7591  0.0836 -0.2516
  332MOL0     C43704  10.433   0.147  10.678  0.3270  0.7297 -0.0391
  332MOL0     C43705  10.389   0.056  10.562  0.0717  0.1788  0.2589
  332MOL0     C43706  10.476   0.085  10.429  0.0780 -0.1191 -0.9730
  332MOL0     C43707  10.634   0.068  10.432 -0.2722 -0.0611  0.4135
  332MOL0     C43708  10.673  -0.057  10.512 -1.0066  0.8628 -0.0979
  332MOL0     N43709  10.804  -0.121  10.465 -1.3673  0.0417 -0.1156
  332MOL0     C43710  10.864  -0.107  10.337  0.1200  0.4708  0.0883
  332MOL0     C43711  10.970  -0.195  10.328  0.2658  0.4456  0.3018
  332MOL0     C43712  11.069  -0.212  10.222 -0.5957  0.1020 -0.6634
  332MOL0     C43713  11.166  -0.333  10.242  0.0857  0.4042 -0.4027
  332MOL0     C43714  11.262  -0.361  10.122 -0.0174 -0.2849  0.5060
  332MOL0     C43715  11.301  -0.507  10.103  0.9300 -0.0488 -0.5721
  332MOL0     O43716  11.194  -0.599  10.082  0.0553 -0.6101  0.1939
  332MOL0     C43717  11.173  -0.617   9.946  0.3272 -0.3832  0.8954
  332MOL0     C43718  11.079  -0.553   9.869  0.7652 -0.0995  0.2067
  332MOL0     C43719  11.061  -0.588   9.732 -0.1234  0.2228 -0.7177
  332MOL0     C43720  11.135  -0.692   9.678 -0.3220  0.4503 -0.4330
  332MOL0     C43721  11.142  -0.729   9.539 -0.4149 -0.9204  1.0151
  332MOL0     O43722  11.222  -0.825   9.489  0.3142 -0.0378  0.3007
  332MOL0     C43723  11.184  -0.865   9.367 -0.5789 -1.0061 -0.3633
  332MOL0     C43724  11.144  -1.001   9.355 -0.0619  0.0459 -1.9128
  332MOL0     C43725  11.108  -1.066   9.242 -0.1446  0.3686  0.5264
  332MOL0     C43726  11.135  -1.000   9.121  0.1780  0.0591 -0.1801
  332MOL0     O43727  11.118  -1.074   9.002  0.2446  0.5808 -0.2117
  332MOL0     C43728  11.122  -1.000   8.884  0.0766 -0.6160 -0.5892
  332MOL0     C43729  11.086  -1.083   8.764 -0.8608  0.3253  0.9633
  332MOL0     C43730  10.949  -1.145   8.772  0.0349  0.0719  0.0531
  332MOL0     C43731  10.910  -1.232   8.651 -0.3121  0.8701 -0.0638
  332MOL0     C43732  10.800  -1.339   8.685 -0.3146  0.8161  0.4833
  332MOL0     C43733  10.685  -1.281   8.771 -0.1864 -0.0869  0.0165
  332MOL0     C43734  10.558  -1.364   8.774  0.6204  0.4252 -1.0658
  332MOL0     C43735  10.454  -1.316   8.883  0.8171 -0.0318  0.2673
  332MOL0    Cl43736  10.290  -1.389   8.855 -0.2631  0.2254 -0.3143
  332MOL0     C43737  11.190  -0.872   9.122 -0.2978 -0.0917  0.5604
  332MOL0     C43738  11.213  -0.804   9.242  0.6230 -0.5585 -0.9946
  332MOL0     O43739  11.073  -0.659   9.469 -0.4349  0.3126  0.0330
  332MOL0     C43740  11.220  -0.762   9.761  1.3653 -0.0997 -0.0082
  332MOL0     C43741  11.233  -0.734   9.894 -0.1864 -0.1282  0.4977
  332MOL0     N43742  10.985  -0.262  10.456  0.0359 -0.1275  0.2854
  332MOL0     N43743  10.881  -0.212  10.523 -0.0713  0.5546  0.2868
  332MOL0     C43744  10.582   0.848  10.790  0.7883 -0.0294  0.2358
  332MOL0     C43745  10.590   0.979  10.739 -0.2454  0.6883 -0.4669
  332MOL0     C43746  10.492   1.400  10.583  0.1423 -1.0435  0.1641
  332MOL0     C43747  10.553   1.531  10.578  0.8689 -0.2535 -0.0205
  332MOL0     C43748  10.514   1.627  10.488 -0.0015  0.2913  0.2066
  332MOL0     C43749  10.418   1.601  10.389  0.2790 -0.4996  0.0828
  332MOL0     O43750  10.367   1.687  10.290  0.0212 -0.0206 -0.4556
  332MOL0     C43751  10.452   1.790  10.247  0.0193 -0.1699 -0.6394
  332MOL0     C43752  10.378   1.868  10.138 -0.6348  0.1539 -0.6274
  332MOL0     C43753  10.449   1.998  10.107 -0.8063  0.2377 -0.4073
  332MOL0     C43754  10.348   2.107  10.076 -0.1527 -0.1943 -0.1093
  332MOL0     C43755  10.415   2.236  10.036  0.2706 -0.2623 -0.9201
  332MOL0     C43756  10.452   2.340   9.986 -0.0176  0.2189 -0.0649
  332MOL0     C43757  10.354   1.481  10.393  0.2300 -0.6421  0.0386
  332MOL0     C43758  10.402   1.384  10.480 -0.5926 -0.0700  0.7491
  332MOL0     H43759  10.298   0.999  10.576  1.5918 -0.7929 -0.8487
  332MOL0     H43760  10.277   0.771  10.684 -1.2055  0.3905  0.3190
  332MOL0     H43761  10.471   0.566  10.614  1.6398  3.8551  2.1434
  332MOL0     H43762  10.309   0.551  10.683 -0.5019  1.5420  1.2470
  332MOL0     H43763  10.393   0.377  10.849  2.2954  2.3009  2.6729
  332MOL0     H43764  10.550   0.390  10.790 -0.5314  1.9357  0.6268
  332MOL0     H43765  10.480   0.323  10.564  3.1719  4.4319  2.7855
  332MOL0     H43766  10.320   0.312  10.609  1.3409  2.4156 -0.5399
  332MOL0     H43767  10.538   0.125  10.696  0.4793  0.7432 -0.8695
  332MOL0     H43768  10.381   0.116  10.769  2.1074 -3.6173 -0.2692
  332MOL0     H43769  10.287   0.085  10.535  1.1206  3.3574 -0.8651
  332MOL0     H43770  10.405  -0.049  10.586  1.1908  0.1680 -0.4489
  332MOL0     H43771  10.442   0.175  10.377 -0.7996 -0.1458 -0.4695
  332MOL0     H43772  10.432   0.004  10.370 -0.9616 -1.6323  1.6773
  332MOL0     H43773  10.670   0.053  10.330  0.4065 -0.7147  0.7391
  332MOL0     H43774  10.681   0.159  10.470 -0.9307  1.7900 -2.7886
  332MOL0     H43775  10.590  -0.126  10.499 -0.2427  0.1842 -1.7263
  332MOL0     H43776  10.687  -0.036  10.618  1.5263 -0.2370 -0.1345
  332MOL0     H43777  10.825  -0.043  10.259 -2.6606 -1.5460 -0.3131
  332MOL0     H43778  11.131  -0.122  10.217  0.7472 -0.4573  3.0862
  332MOL0     H43779  11.004  -0.229  10.136 -1.2697  0.1483 -0.1654
  332MOL0     H43780  11.111  -0.426  10.257 -1.4458  1.2936 -0.2274
  332MOL0     H43781  11.219  -0.325  10.337  3.8460 -4.6815 -1.6491
  332MOL0     H43782  11.198  -0.335  10.038 -0.5205 -2.5174  0.1296
  332MOL0     H43783  11.349  -0.295  10.134  1.1758 -1.5685 -0.7677
  332MOL0     H43784  11.360  -0.538  10.189  1.0564 -3.4655 -1.7308
  332MOL0     H43785  11.369  -0.524  10.018 -2.2554 -0.3475 -3.2667
  332MOL0     H43786  11.035  -0.463   9.911 -0.6880 -0.0229 -1.3747
  332MOL0     H43787  11.005  -0.511   9.680 -2.9239 -0.5114  0.9993
  332MOL0     H43788  11.130  -1.059   9.446 -1.2322  1.7337 -0.9706
  332MOL0     H43789  11.074  -1.169   9.238 -0.4596  0.5033 -0.5245
  332MOL0     H43790  11.216  -0.950   8.861  0.9851 -2.0737 -0.1543
  332MOL0     H43791  11.052  -0.917   8.901 -0.4442 -1.0914 -0.3765
  332MOL0     H43792  11.160  -1.160   8.740 -2.2045 -0.1058 -2.1782
  332MOL0     H43793  11.083  -1.013   8.680 -0.7761 -1.4171 -0.5547
  332MOL0     H43794  10.874  -1.066   8.785 -0.1499  0.4004 -2.4383
  332MOL0     H43795  10.950  -1.204   8.864  3.9207  1.5754  1.1592
  332MOL0     H43796  10.884  -1.178   8.559 -1.5194  0.3366 -0.0443
  332MOL0     H43797  11.006  -1.282   8.634 -0.1922  1.3280 -0.7768
  332MOL0     H43798  10.852  -1.420   8.737  1.9226  1.1896 -1.0207
  332MOL0     H43799  10.756  -1.369   8.590  0.1182  2.6739 -0.3393
  332MOL0     H43800  10.657  -1.183   8.733 -0.7023 -1.0249 -2.2155
  332MOL0     H43801  10.731  -1.269   8.869 -0.2138 -3.1546  0.5254
  332MOL0     H43802  10.514  -1.350   8.675  0.1830  2.3744 -0.6523
  332MOL0     H43803  10.582  -1.468   8.796 -3.9314 -0.2667  2.0955
  332MOL0     H43804  10.446  -1.208   8.902  2.5561  0.2045 -0.1494
  332MOL0     H43805  10.474  -1.365   8.979  3.8064  0.0821 -0.1907
  332MOL0     H43806  11.194  -0.801   9.040 -1.6182 -0.1778  0.4099
  332MOL0     H43807  11.261  -0.707   9.246  2.9116 -1.6087  3.4218
  332MOL0     H43808  11.281  -0.838   9.713  2.7523 -0.5565  2.3380
  332MOL0     H43809  11.308  -0.785   9.953  0.6633  0.1812 -0.2847
  332MOL0     H43810  10.664   0.815  10.853 -0.5093  0.2302  2.1301
  332MOL0     H43811  10.686   1.028  10.757  1.7500 -1.3933 -4.2398
  332MOL0     H43812  10.642   1.547  10.638  1.2168 -3.2312  0.3919
  332MOL0     H43813  10.562   1.724  10.486 -0.7069  0.6869  1.4568
  332MOL0     H43814  10.550   1.749  10.221  0.7399  0.4888  0.9342
  332MOL0     H43815  10.467   1.854  10.334  1.5620  0.6197 -1.4494
  332MOL0     H43816  10.376   1.807  10.047 -1.0594  0.7980 -1.0619
  332MOL0     H43817  10.278   1.903  10.164  0.4692  3.8496 -0.7622
  332MOL0     H43818  10.521   1.981  10.026  4.4759 -1.0044  3.9610
  332MOL0     H43819  10.511   2.022  10.195 -5.1671  1.6073  2.6340
  332MOL0     H43820  10.279   2.073   9.999  1.3780 -1.4987 -0.9754
  332MOL0     H43821  10.296   2.135  10.167  1.5358 -0.9908  1.1647
  332MOL0     H43822  10.483   2.431   9.938  2.8593  0.1150  1.3578
  332MOL0     H43823  10.277   1.462  10.318 -0.6898 -2.5650  1.3850
  332MOL0     H43824  10.344   1.293  10.472 -2.5759  1.1532  0.5789
  333MOL0     O43825   4.036   1.700   7.962  0.7178 -0.6761  0.6963
  333MOL0     C43826   4.001   1.590   8.008 -0.2097  0.5360  0.1550
  333MOL0     O43827   4.043   1.542   8.137  0.3963  0.2948  0.8573
  333MOL0     C43828   4.130   1.625   8.201  0.3272  0.7998 -0.1027
  333MOL0     C43829   4.088   1.748   8.255  0.5395 -0.0716 -0.4186
  333MOL0     C43830   4.171   1.808   8.347 -0.4697 -0.4005 -0.0175
  333MOL0     C43831   4.290   1.753   8.400  0.4778 -0.5649 -0.2474
  333MOL0     O43832   4.378   1.815   8.487  0.8105 -0.9289 -0.0135
  333MOL0     C43833   4.367   1.958   8.516 -0.0716  0.5227  0.2965
  333MOL0     C43834   4.493   1.994   8.603 -0.6540 -0.7925 -0.0227
  333MOL0     C43835   4.621   1.994   8.531  0.5359  0.3740 -0.2611
  333MOL0     C43836   4.748   2.025   8.613  0.9969  0.0659 -0.5508
  333MOL0     C43837   4.757   2.175   8.651  0.1341  1.0823 -0.6449
  333MOL0     C43838   4.851   2.187   8.765 -0.2124 -0.4909  1.3228
  333MOL0     C43839   4.818   2.331   8.829  0.2559  0.3390  0.4172
  333MOL0     C43840   4.905   2.342   8.957  0.0858 -0.4788  0.2400
  333MOL0     N43841   4.866   2.457   9.049 -0.0330  0.0276  1.2442
  333MOL0     C43842   4.773   2.439   9.147 -0.4293 -0.4578  0.6615
  333MOL0     C43843   4.739   2.565   9.177  0.5674 -0.0072 -0.1679
  333MOL0     C43844   4.624   2.603   9.266 -0.7244 -1.0323 -0.5724
  333MOL0     C43845   4.500   2.525   9.220  0.7688 -0.1938  0.6752
  333MOL0     C43846   4.420   2.509   9.342  0.1016  0.2032  0.5661
  333MOL0     C43847   4.277   2.471   9.290 -0.4835 -1.2685  0.1636
  333MOL0     O43848   4.196   2.432   9.405 -0.2390  0.3139 -0.2903
  333MOL0     C43849   4.080   2.483   9.446  0.7265  0.2161  0.7673
  333MOL0     C43850   4.027   2.605   9.406  0.2435 -0.1764  0.3055
  333MOL0     C43851   3.907   2.651   9.459  0.0252  0.0882 -0.5013
  333MOL0     C43852   3.841   2.572   9.558 -0.1233 -0.4513 -0.3837
  333MOL0     C43853   3.707   2.612   9.627  0.0719 -1.5322  0.4948
  333MOL0     O43854   3.685   2.575   9.755  0.6665  0.2081  0.1690
  333MOL0     C43855   3.585   2.632   9.834 -0.1658  0.0882 -0.6367
  333MOL0     C43856   3.513   2.544   9.915 -0.3947 -0.5451 -0.3647
  333MOL0     C43857   3.392   2.593   9.989  0.0331 -0.2607  0.3963
  333MOL0     C43858   3.346   2.722   9.966 -0.2171  0.1646  0.0346
  333MOL0     O43859   3.225   2.759  10.039 -1.5877 -0.4826 -0.4887
  333MOL0     C43860   3.180   2.899  10.021 -0.0513 -0.7797  0.2420
  333MOL0     C43861   3.033   2.912  10.074  0.1418  0.1588 -0.0059
  333MOL0     C43862   2.979   2.788  10.163  0.2538  0.1894  0.6694
  333MOL0     C43863   2.928   2.675  10.064  0.1344 -0.6946  1.4713
  333MOL0     C43864   2.828   2.582  10.134  0.3037  0.3033 -0.1557
  333MOL0     C43865   2.874   2.528  10.267  0.4020 -0.1534 -0.3301
  333MOL0     C43866   3.016   2.465  10.245  0.2041 -0.0987  0.2896
  333MOL0     C43867   3.066   2.395  10.380 -0.2887 -0.5710  0.1649
  333MOL0    Cl43868   2.959   2.255  10.414 -0.3524  0.0062 -0.3837
  333MOL0     C43869   3.420   2.804   9.882 -0.0799  0.0000 -0.0277
  333MOL0     C43870   3.542   2.765   9.821 -0.5040 -0.7573  0.7694
  333MOL0     O43871   3.628   2.691   9.557 -0.4603  0.3263 -0.2937
  333MOL0     C43872   3.903   2.456   9.606 -0.2264 -0.1469 -0.3798
  333MOL0     C43873   4.023   2.416   9.549  0.0614 -0.6897 -0.1213
  333MOL0     N43874   4.821   2.651   9.106 -0.5729  0.1980  0.2733
  333MOL0     N43875   4.893   2.588   9.026 -0.5720 -0.4914 -0.1437
  333MOL0     C43876   4.322   1.636   8.344 -0.0608  0.6062  0.5045
  333MOL0     C43877   4.254   1.575   8.245  0.3893 -0.4633  0.5241
  333MOL0     C43878   3.910   1.499   7.925  0.2561 -1.0808 -0.1057
  333MOL0     C43879   3.867   1.540   7.797  1.1114 -0.3225  0.4486
  333MOL0     C43880   3.789   1.453   7.729 -0.3742  1.0793  0.0274
  333MOL0     C43881   3.732   1.334   7.781  0.6290 -0.0146 -0.8147
  333MOL0     O43882   3.652   1.265   7.694  1.2613 -0.2491  0.3203
  333MOL0     C43883   3.609   1.142   7.738  0.1431 -0.1601 -0.1489
  333MOL0     C43884   3.489   1.095   7.647  0.4273  0.3310 -0.4924
  333MOL0     C43885   3.387   1.209   7.630 -0.6073 -0.2072  0.2876
  333MOL0     C43886   3.254   1.162   7.577  0.3614  0.2251  1.1282
  333MOL0     C43887   3.158   1.271   7.600  0.1683  1.2813  1.3949
  333MOL0     C43888   3.076   1.363   7.607 -0.4846  0.0920  0.9870
  333MOL0     C43889   3.785   1.295   7.902 -0.0874  0.8457  0.5447
  333MOL0     C43890   3.876   1.370   7.975  0.7740  0.0686 -0.4413
  333MOL0     H43891   3.999   1.801   8.223  0.2233  0.4818  1.2486
  333MOL0     H43892   4.138   1.902   8.390  0.6663 -0.5181  1.1963
  333MOL0     H43893   4.273   1.977   8.569 -0.4114  1.6210 -0.6544
  333MOL0     H43894   4.356   2.010   8.420 -0.0759 -2.4446 -1.4425
  333MOL0     H43895   4.484   1.918   8.682  1.1240  0.1881  1.2021
  333MOL0     H43896   4.477   2.097   8.636  0.9416 -0.0384 -1.4725
  333MOL0     H43897   4.615   2.051   8.438 -0.7445  1.0629  0.2147
  333MOL0     H43898   4.628   1.891   8.495 -0.1456  0.9176 -2.0570
  333MOL0     H43899   4.749   1.964   8.703  3.3657 -0.7377 -1.0328
  333MOL0     H43900   4.837   2.000   8.555  1.2959  1.6118 -0.8097
  333MOL0     H43901   4.659   2.214   8.681  1.6391  2.4652  3.0167
  333MOL0     H43902   4.811   2.223   8.569  1.9912 -2.6073 -1.7872
  333MOL0     H43903   4.954   2.186   8.728 -1.1531  5.1729 -2.7920
  333MOL0     H43904   4.823   2.110   8.837  0.4694 -0.8141  1.2477
  333MOL0     H43905   4.840   2.417   8.765  0.4049  3.1585  3.8826
  333MOL0     H43906   4.710   2.331   8.844 -0.5399  4.5983 -3.1805
  333MOL0     H43907   5.010   2.363   8.935  0.1930  0.5435  1.6247
  333MOL0     H43908   4.905   2.248   9.014 -1.8692 -0.6898 -0.0309
  333MOL0     H43909   4.735   2.350   9.196  0.5537  0.3969  3.1370
  333MOL0     H43910   4.601   2.709   9.250  2.4330 -0.2378 -0.3846
  333MOL0     H43911   4.650   2.589   9.372  1.8973  2.2200 -0.6302
  333MOL0     H43912   4.526   2.446   9.149  2.9174  0.7884  0.2855
  333MOL0     H43913   4.438   2.586   9.155 -0.4233 -0.9625  1.0553
  333MOL0     H43914   4.453   2.437   9.417  2.5887  0.1623 -0.4816
  333MOL0     H43915   4.431   2.607   9.390  2.4743 -0.3090  1.1763
  333MOL0     H43916   4.280   2.385   9.222 -1.6873  0.2887 -1.9734
  333MOL0     H43917   4.236   2.556   9.236 -1.8234 -3.3203 -2.2547
  333MOL0     H43918   4.051   2.653   9.311 -1.3228 -0.9405 -0.5204
  333MOL0     H43919   3.851   2.725   9.402  1.5579  1.9311  0.2916
  333MOL0     H43920   3.556   2.445   9.915 -0.8502 -0.7485 -0.3846
  333MOL0     H43921   3.339   2.527  10.058  0.9535 -1.1890  0.2410
  333MOL0     H43922   3.189   2.921   9.914  2.1939 -0.8263  0.3819
  333MOL0     H43923   3.255   2.962  10.071  2.9912 -1.2140 -3.3453
  333MOL0     H43924   2.966   2.915   9.987 -0.6181  1.2348  0.5819
  333MOL0     H43925   3.023   3.009  10.125 -0.7472  1.0386 -1.7651
  333MOL0     H43926   2.894   2.826  10.220 -0.5616 -0.8060  0.1314
  333MOL0     H43927   3.050   2.754  10.239 -1.7699 -0.9235  2.1470
  333MOL0     H43928   2.889   2.725   9.975  2.0004 -0.4120  0.7830
  333MOL0     H43929   3.012   2.620  10.022 -0.9370 -3.4365  2.6920
  333MOL0     H43930   2.816   2.494  10.070 -0.6511 -0.9706  1.6806
  333MOL0     H43931   2.733   2.633  10.154 -0.9844 -1.6100 -1.0372
  333MOL0     H43932   2.792   2.461  10.295 -1.2768  2.6792  2.1212
  333MOL0     H43933   2.873   2.609  10.340 -0.2383 -1.2090  0.8654
  333MOL0     H43934   3.014   2.387  10.168  3.1722 -0.0001  0.0152
  333MOL0     H43935   3.098   2.535  10.227  1.9587 -2.2751 -0.6050
  333MOL0     H43936   3.070   2.471  10.458 -0.8850  0.1372 -0.4819
  333MOL0     H43937   3.171   2.365  10.368  0.2426  1.5535 -1.0404
  333MOL0     H43938   3.380   2.903   9.868  1.4863  0.7690  0.7338
  333MOL0     H43939   3.592   2.828   9.748  1.1334 -2.2506  0.5317
  333MOL0     H43940   3.858   2.384   9.673 -1.5775 -0.6133 -1.7308
  333MOL0     H43941   4.057   2.314   9.564  0.1670 -0.4170  1.7369
  333MOL0     H43942   4.414   1.587   8.377  0.2328 -1.7707 -3.2295
  333MOL0     H43943   4.275   1.477   8.203 -2.8137 -1.3447  0.6727
  333MOL0     H43944   3.888   1.642   7.766 -1.3589 -0.6091 -2.7937
  333MOL0     H43945   3.757   1.494   7.633  3.6314  4.4691 -0.1569
  333MOL0     H43946   3.561   1.144   7.836 -1.0321  0.2061 -0.7195
  333MOL0     H43947   3.692   1.070   7.737  0.0371 -0.2976 -1.8038
  333MOL0     H43948   3.519   1.049   7.552  0.3728 -0.1704 -0.2695
  333MOL0     H43949   3.440   1.015   7.702  0.7905  1.1998  1.1673
  333MOL0     H43950   3.433   1.281   7.562 -0.1209 -0.9759 -0.2061
  333MOL0     H43951   3.382   1.259   7.727  2.2161  0.1480  0.3292
  333MOL0     H43952   3.257   1.123   7.475  1.3024 -2.8428  2.2189
  333MOL0     H43953   3.227   1.072   7.634  0.0270 -1.9905 -2.2153
  333MOL0     H43954   3.005   1.443   7.619 -0.1792  0.1331  2.7362
  333MOL0     H43955   3.769   1.198   7.948  2.5244  0.1081  0.0425
  333MOL0     H43956   3.916   1.341   8.072  0.7512 -1.9089 -0.9867
  334MOL0     O43957   8.908   2.351  10.031  0.1954 -0.1821 -0.3875
  334MOL0     C43958   9.001   2.414   9.971  0.0618  0.1870  0.3102
  334MOL0     O43959   8.997   2.454   9.843  0.2090 -0.4261 -0.4359
  334MOL0     C43960   8.908   2.431   9.742  0.5046 -0.4640 -0.2586
  334MOL0     C43961   8.795   2.349   9.747 -0.1514  0.1475  0.6927
  334MOL0     C43962   8.704   2.343   9.647 -0.9890  0.7128 -0.5157
  334MOL0     C43963   8.731   2.398   9.530 -0.3749  0.0496 -0.5511
  334MOL0     O43964   8.641   2.372   9.429  0.6048  0.6292 -0.8412
  334MOL0     C43965   8.508   2.424   9.449  0.1383 -0.3975  0.9594
  334MOL0     C43966   8.504   2.571   9.435 -0.1102 -0.3810  0.0334
  334MOL0     C43967   8.558   2.609   9.305 -0.4493 -0.2570  0.2940
  334MOL0     C43968   8.472   2.571   9.185 -0.4712  1.2928  0.0242
  334MOL0     C43969   8.561   2.501   9.078 -0.3916  0.0685  0.5522
  334MOL0     C43970   8.657   2.591   9.015  0.1125 -0.7159 -0.6278
  334MOL0     C43971   8.721   2.543   8.881 -0.0629  0.2082  0.4784
  334MOL0     C43972   8.848   2.629   8.844  0.3781  0.0271 -0.2479
  334MOL0     N43973   8.966   2.621   8.936  0.1631 -0.2265 -0.3112
  334MOL0     C43974   8.983   2.556   9.055  0.6486 -0.0738 -0.2234
  334MOL0     C43975   9.108   2.584   9.097 -0.4949 -0.4874 -0.1100
  334MOL0     C43976   9.190   2.538   9.211 -0.1317 -0.1500 -0.6778
  334MOL0     C43977   9.315   2.465   9.173  0.7955 -0.6458  0.1686
  334MOL0     C43978   9.352   2.348   9.263 -0.2265  0.7934 -0.2923
  334MOL0     C43979   9.284   2.218   9.202 -0.4777 -0.2068 -0.7561
  334MOL0     O43980   9.367   2.179   9.091 -0.9334 -0.2727  0.8272
  334MOL0     C43981   9.299   2.111   8.989  0.0837 -0.0304  0.5146
  334MOL0     C43982   9.197   2.026   9.017  0.0647  0.4000 -0.3959
  334MOL0     C43983   9.137   1.947   8.915 -0.2638  0.7535  0.2544
  334MOL0     C43984   9.175   1.968   8.784  0.6806  0.6556  0.3882
  334MOL0     C43985   9.105   1.907   8.670  0.4802 -0.2929 -0.6386
  334MOL0     O43986   9.012   1.822   8.706  0.2004 -0.2722  0.9419
  334MOL0     C43987   8.959   1.731   8.612 -0.3317  0.1800  0.3311
  334MOL0     C43988   9.005   1.694   8.488  0.6458 -0.4743 -0.5518
  334MOL0     C43989   8.930   1.619   8.390 -0.0037 -0.6195  0.0676
  334MOL0     C43990   8.806   1.564   8.431 -0.8241 -1.4717  0.4066
  334MOL0     O43991   8.755   1.480   8.341  0.4994  0.0933 -0.2948
  334MOL0     C43992   8.616   1.500   8.293 -0.4132  0.6619  0.1180
  334MOL0     C43993   8.622   1.514   8.137 -0.3478  0.7945  0.1725
  334MOL0     C43994   8.497   1.542   8.066  0.8003 -0.0314 -0.1828
  334MOL0     C43995   8.526   1.583   7.917 -0.0304  0.2608  0.5166
  334MOL0     C43996   8.394   1.600   7.840 -0.6341 -0.8092  0.4025
  334MOL0     C43997   8.419   1.584   7.692 -0.3676 -0.4389 -0.0127
  334MOL0     C43998   8.315   1.666   7.609 -0.5504  0.4817  0.0928
  334MOL0     C43999   8.388   1.696   7.468 -0.4626  0.4751 -0.0852
  334MOL0    Cl44000   8.244   1.719   7.362 -0.1201  0.0163  0.3148
  334MOL0     C44001   8.753   1.605   8.557 -0.5109 -0.0189  0.2976
  334MOL0     C44002   8.830   1.687   8.637 -1.1534  0.2154 -0.2163
  334MOL0     O44003   9.126   1.954   8.557 -0.1985  0.2562  0.1108
  334MOL0     C44004   9.279   2.061   8.760  0.5007 -0.0807 -0.7251
  334MOL0     C44005   9.349   2.127   8.864 -0.3970  0.0371  0.2137
  334MOL0     N44006   9.168   2.675   9.001 -0.2937 -0.4296  0.3262
  334MOL0     N44007   9.080   2.695   8.915 -0.5087 -0.3608  0.5953
  334MOL0     C44008   8.843   2.480   9.511 -0.0734  0.1367  0.1008
  334MOL0     C44009   8.933   2.493   9.619 -0.0944  0.4003 -0.0143
  334MOL0     C44010   9.127   2.433  10.047 -0.1992  0.4108 -0.2628
  334MOL0     C44011   9.230   2.506   9.996  0.0332 -0.4303  0.7180
  334MOL0     C44012   9.354   2.512  10.051  0.4337 -0.8356  0.1923
  334MOL0     C44013   9.393   2.438  10.164 -0.3821 -0.8842  0.0953
  334MOL0     O44014   9.522   2.431  10.212 -0.1311  0.0346  0.1818
  334MOL0     C44015   9.541   2.505  10.331  0.4427  0.5626 -0.4446
  334MOL0     C44016   9.536   2.655  10.303  0.8076 -0.3252  0.1298
  334MOL0     C44017   9.537   2.737  10.434  0.0857  0.3363 -0.3507
  334MOL0     C44018   9.389   2.738  10.503  0.0257 -0.2171  0.2896
  334MOL0     C44019   9.295   2.827  10.426 -0.5615 -0.5104  0.2742
  334MOL0     C44020   9.221   2.894  10.361 -0.5669  0.4486 -0.5516
  334MOL0     C44021   9.289   2.363  10.216  0.3135  0.2772 -0.4560
  334MOL0     C44022   9.155   2.357  10.168 -0.7569 -0.2436  0.7012
  334MOL0     H44023   8.775   2.283   9.831 -3.5839  0.9914  0.6903
  334MOL0     H44024   8.618   2.277   9.655 -0.3924  0.1621  2.6784
  334MOL0     H44025   8.469   2.394   9.547 -3.9481 -2.2484 -1.0205
  334MOL0     H44026   8.444   2.386   9.369  1.7193 -1.1558  0.0124
  334MOL0     H44027   8.558   2.627   9.512  0.5739  0.5596 -1.1023
  334MOL0     H44028   8.399   2.602   9.439  0.0426  0.0321  1.0079
  334MOL0     H44029   8.655   2.560   9.293 -1.7526 -2.7068 -0.8463
  334MOL0     H44030   8.579   2.717   9.309 -1.3428 -0.0935  3.9444
  334MOL0     H44031   8.392   2.502   9.210  1.6176 -1.0174  0.7801
  334MOL0     H44032   8.423   2.651   9.130 -1.7207 -0.7313 -2.0007
  334MOL0     H44033   8.490   2.453   9.010 -1.1705 -1.0790  2.1183
  334MOL0     H44034   8.617   2.413   9.112  0.0231 -0.0753 -0.4567
  334MOL0     H44035   8.734   2.612   9.089 -0.6835  1.1849 -0.2873
  334MOL0     H44036   8.598   2.680   8.991  0.7223 -0.4839 -1.2807
  334MOL0     H44037   8.754   2.440   8.896  2.2388  1.1950  3.1630
  334MOL0     H44038   8.640   2.548   8.808 -1.2779  1.6589  1.8571
  334MOL0     H44039   8.812   2.733   8.838 -2.7110 -0.7935  1.9457
  334MOL0     H44040   8.880   2.583   8.750  0.5980 -2.3875  0.9533
  334MOL0     H44041   8.913   2.484   9.097 -0.3749 -0.1736 -1.9794
  334MOL0     H44042   9.126   2.488   9.284 -1.0158  0.3358 -1.1040
  334MOL0     H44043   9.211   2.630   9.266  0.5838 -0.8854  0.3131
  334MOL0     H44044   9.392   2.540   9.190  2.4684 -2.2885  0.2406
  334MOL0     H44045   9.320   2.442   9.066 -1.1907 -0.4584  0.0099
  334MOL0     H44046   9.460   2.346   9.281 -0.3961 -1.2290  0.7707
  334MOL0     H44047   9.312   2.348   9.365  0.0733 -0.2932 -0.1595
  334MOL0     H44048   9.179   2.238   9.179 -0.3700  0.8805 -0.3739
  334MOL0     H44049   9.274   2.129   9.265 -0.4167 -1.7113 -2.7702
  334MOL0     H44050   9.183   1.988   9.118  1.3397  0.4270 -0.1859
  334MOL0     H44051   9.060   1.876   8.942 -1.4617  1.1352 -1.9376
  334MOL0     H44052   9.102   1.733   8.461 -0.7646  3.4289 -0.6774
  334MOL0     H44053   8.956   1.583   8.291 -1.5029 -1.6707  0.0109
  334MOL0     H44054   8.578   1.595   8.333 -2.7773 -0.6022  1.0643
  334MOL0     H44055   8.558   1.416   8.333  0.2741  0.0310 -0.1773
  334MOL0     H44056   8.676   1.432   8.090 -1.0360  0.9802 -0.9797
  334MOL0     H44057   8.684   1.604   8.127  0.6636  0.1305  0.3285
  334MOL0     H44058   8.458   1.626   8.124  0.4519 -2.2433  3.0415
  334MOL0     H44059   8.432   1.454   8.063  2.4433 -1.2624 -0.4539
  334MOL0     H44060   8.597   1.663   7.898  2.8978 -1.8385  1.9707
  334MOL0     H44061   8.580   1.497   7.875 -1.7564  0.1637 -1.7015
  334MOL0     H44062   8.364   1.703   7.863  1.8173  0.1780 -0.4277
  334MOL0     H44063   8.313   1.537   7.877 -3.8623  1.7537 -1.6680
  334MOL0     H44064   8.414   1.479   7.661 -1.9220 -0.0037 -1.3699
  334MOL0     H44065   8.517   1.628   7.670 -0.6687  0.0743 -0.3431
  334MOL0     H44066   8.244   1.585   7.592  2.0249 -2.0699  0.5704
  334MOL0     H44067   8.267   1.752   7.656  0.2211  0.9864 -0.0267
  334MOL0     H44068   8.447   1.615   7.425 -1.5553 -0.6775  0.5233
  334MOL0     H44069   8.445   1.790   7.472 -0.1118  0.2309  1.0983
  334MOL0     H44070   8.656   1.567   8.588 -0.3815 -0.4844  0.1222
  334MOL0     H44071   8.800   1.715   8.738 -2.4479 -3.0179  0.3970
  334MOL0     H44072   9.317   2.083   8.660 -1.5883 -0.1586 -1.5934
  334MOL0     H44073   9.439   2.186   8.848  0.0323  0.0397  2.4188
  334MOL0     H44074   8.863   2.516   9.411  3.1453 -1.4079  0.0722
  334MOL0     H44075   9.028   2.544   9.603  1.0289 -2.3027 -3.2334
  334MOL0     H44076   9.212   2.555   9.901  0.1108 -4.1298 -1.4170
  334MOL0     H44077   9.439   2.562  10.006  0.0467  0.6436  1.0552
  334MOL0     H44078   9.643   2.491  10.368  1.0353  1.4837 -1.6472
  334MOL0     H44079   9.466   2.481  10.407 -0.2084 -3.2208 -2.0907
  334MOL0     H44080   9.618   2.676  10.234 -1.1384  1.6954 -1.7284
  334MOL0     H44081   9.442   2.679  10.253  0.9693  3.1980  1.2478
  334MOL0     H44082   9.570   2.839  10.413  4.6638 -0.4225  2.0026
  334MOL0     H44083   9.616   2.696  10.497 -0.0567  1.6594  0.7233
  334MOL0     H44084   9.351   2.637  10.491  1.0898 -0.3528 -2.8201
  334MOL0     H44085   9.404   2.752  10.611 -1.5097 -0.7820  0.5943
  334MOL0     H44086   9.175   2.956  10.287 -1.5642 -0.3481 -0.6291
  334MOL0     H44087   9.312   2.297  10.298 -1.9776  0.3825  0.3616
  334MOL0     H44088   9.104   2.279  10.222  0.4675  1.1043  4.1327
  335MOL0     O44089   9.187   8.936   0.379 -0.5716 -0.4019 -0.2925
  335MOL0     C44090   9.229   8.820   0.396 -0.1247  0.2037  0.7165
  335MOL0     O44091   9.160   8.709   0.367  0.7085  0.2096  1.0355
  335MOL0     C44092   9.026   8.720   0.337 -0.5629 -0.4466  0.3546
  335MOL0     C44093   8.977   8.752   0.205  0.2547  0.7171 -0.3644
  335MOL0     C44094   8.840   8.759   0.188  0.2745  0.1311  0.3708
  335MOL0     C44095   8.748   8.729   0.286  0.7814  0.7788 -0.8058
  335MOL0     O44096   8.608   8.737   0.246 -1.0793  0.2152  0.0414
  335MOL0     C44097   8.542   8.842   0.327 -0.3000  1.1802 -0.3218
  335MOL0     C44098   8.428   8.794   0.407 -0.5941 -0.6186 -0.7119
  335MOL0     C44099   8.340   8.694   0.324 -0.8842 -0.3192 -0.1569
  335MOL0     C44100   8.227   8.623   0.401 -0.9943 -0.0043  0.5375
  335MOL0     C44101   8.149   8.558   0.288  1.1340  0.9335  0.2977
  335MOL0     C44102   8.030   8.481   0.350  0.1531 -0.1963 -0.3893
  335MOL0     C44103   7.962   8.428   0.219  0.4328 -0.1413  0.0399
  335MOL0     C44104   7.824   8.368   0.246  0.3695  0.3412 -0.0101
  335MOL0     N44105   7.825   8.243   0.333  0.4812  0.1616  0.3718
  335MOL0     C44106   7.834   8.232   0.476 -0.9006  0.3498 -0.3413
  335MOL0     C44107   7.821   8.097   0.491 -0.3131  0.4798 -0.0705
  335MOL0     C44108   7.820   8.039   0.627  0.0298 -0.2110  1.0780
  335MOL0     C44109   7.689   8.069   0.705 -0.8291 -0.0073  0.2101
  335MOL0     C44110   7.707   8.003   0.843 -0.1811  0.1784 -0.8550
  335MOL0     C44111   7.588   8.028   0.935  0.7946  0.4665  0.6695
  335MOL0     O44112   7.485   7.927   0.907 -0.0814  0.2255  0.4110
  335MOL0     C44113   7.366   7.927   0.969 -0.6030 -0.2167 -0.7013
  335MOL0     C44114   7.262   7.856   0.924  0.2868 -0.1801  0.2606
  335MOL0     C44115   7.138   7.851   0.987 -0.7813  1.0314  0.7578
  335MOL0     C44116   7.108   7.920   1.096  0.4786 -0.8046 -0.0450
  335MOL0     C44117   6.979   7.909   1.166  0.4900  0.0449  0.7214
  335MOL0     O44118   6.966   7.923   1.304 -0.1969 -0.8093 -0.0794
  335MOL0     C44119   6.848   7.955   1.370  0.0989 -0.6177  0.2069
  335MOL0     C44120   6.826   7.888   1.480  1.3860 -0.3207 -0.0258
  335MOL0     C44121   6.710   7.926   1.547  0.5253 -0.1608 -0.5288
  335MOL0     C44122   6.606   8.010   1.486  0.2586 -0.7997 -0.3231
  335MOL0     O44123   6.494   8.041   1.547 -0.0338  0.1021  0.2067
  335MOL0     C44124   6.492   8.048   1.695  0.9092  0.9198  0.7972
  335MOL0     C44125   6.341   8.062   1.740 -0.4463  0.9572 -0.4290
  335MOL0     C44126   6.294   8.214   1.716 -0.4121  0.5804  0.5316
  335MOL0     C44127   6.141   8.227   1.720 -0.1504  0.3272  0.6087
  335MOL0     C44128   6.074   8.165   1.582  0.1270 -0.0299  0.7591
  335MOL0     C44129   6.022   8.276   1.494 -0.5856  0.0309 -0.1074
  335MOL0     C44130   6.132   8.338   1.412  0.4209  0.1218  0.7519
  335MOL0     C44131   6.073   8.481   1.359  0.4544  0.0714 -0.7459
  335MOL0    Cl44132   6.194   8.571   1.266  0.0371  0.4911 -0.3993
  335MOL0     C44133   6.628   8.061   1.357  0.5918 -1.4379 -0.4698
  335MOL0     C44134   6.759   8.040   1.306  0.4098 -0.8205  1.2921
  335MOL0     O44135   6.882   7.889   1.092  0.3445  0.0766  0.0544
  335MOL0     C44136   7.204   8.010   1.140 -0.3028  0.4880  0.6171
  335MOL0     C44137   7.337   8.007   1.084  0.6316 -0.4676  0.0395
  335MOL0     N44138   7.810   8.030   0.375  0.3372 -0.0922 -0.6254
  335MOL0     N44139   7.814   8.124   0.284 -0.8635  0.7496  1.1957
  335MOL0     C44140   8.790   8.695   0.415 -0.9278 -0.4615 -0.2986
  335MOL0     C44141   8.928   8.683   0.433 -0.4966  0.6118 -0.4238
  335MOL0     C44142   9.359   8.810   0.454  0.1679  0.2117  0.2530
  335MOL0     C44143   9.423   8.919   0.503 -0.1057  0.0343 -0.7563
  335MOL0     C44144   9.556   8.915   0.549  1.4029  0.0747 -0.6718
  335MOL0     C44145   9.616   8.793   0.544 -0.7742  0.7109  0.2797
  335MOL0     O44146   9.757   8.779   0.568 -0.0526 -0.5425 -0.5188
  335MOL0     C44147   9.810   8.890   0.650  0.2702 -0.6092 -0.1620
  335MOL0     C44148   9.955   8.865   0.674 -1.7883  0.6994  0.0138
  335MOL0     C44149  10.026   8.975   0.747  0.6103 -0.3193 -0.6090
  335MOL0     C44150  10.150   8.936   0.821 -0.1087 -1.3271 -0.3545
  335MOL0     C44151  10.118   8.904   0.960 -0.8099  0.9674  0.8981
  335MOL0     C44152  10.071   8.901   1.070 -0.2104  0.7002 -1.1671
  335MOL0     C44153   9.550   8.681   0.492 -0.1622 -0.4751  0.1328
  335MOL0     C44154   9.418   8.688   0.459 -0.5571 -0.3408 -0.4969
  335MOL0     H44155   9.050   8.760   0.126  2.1179 -2.0233  0.9088
  335MOL0     H44156   8.789   8.799   0.101 -1.9079  1.3114  2.0824
  335MOL0     H44157   8.492   8.912   0.259 -2.9774  2.5482  2.7693
  335MOL0     H44158   8.610   8.892   0.396 -2.1831  0.8942  1.8395
  335MOL0     H44159   8.371   8.870   0.461  1.5023 -0.6523  1.7484
  335MOL0     H44160   8.479   8.743   0.489 -0.4475  1.0531  0.2957
  335MOL0     H44161   8.415   8.620   0.293  0.1430 -0.1148  1.6706
  335MOL0     H44162   8.297   8.752   0.242 -2.0268 -0.2719  0.4591
  335MOL0     H44163   8.281   8.541   0.448  0.4987  0.5460 -0.1697
  335MOL0     H44164   8.155   8.671   0.468 -2.4576 -2.7949  1.1066
  335MOL0     H44165   8.209   8.485   0.233 -4.0184 -2.2749 -1.8337
  335MOL0     H44166   8.106   8.634   0.221  1.3482  1.1149  0.3664
  335MOL0     H44167   7.957   8.541   0.406 -0.3383 -0.8151 -0.3560
  335MOL0     H44168   8.057   8.403   0.422 -3.5075 -0.5471  0.7866
  335MOL0     H44169   7.951   8.504   0.141  4.1473  0.6992  0.1594
  335MOL0     H44170   8.025   8.351   0.173 -0.2536 -1.5998  1.4618
  335MOL0     H44171   7.779   8.344   0.149 -2.9424  0.5234  1.3563
  335MOL0     H44172   7.766   8.450   0.288 -0.2485 -1.4108  2.8069
  335MOL0     H44173   7.862   8.309   0.547  1.5558  0.0655 -0.9212
  335MOL0     H44174   7.909   8.080   0.676  4.3549 -1.8847 -4.3289
  335MOL0     H44175   7.836   7.933   0.607 -0.3344  0.4904 -4.5316
  335MOL0     H44176   7.610   8.024   0.643 -1.5314 -2.4016  2.6328
  335MOL0     H44177   7.670   8.176   0.709 -0.7548 -0.0143  0.8009
  335MOL0     H44178   7.727   7.899   0.819 -0.6931  0.6969 -4.1123
  335MOL0     H44179   7.793   8.042   0.898  0.0666 -0.8249 -0.5141
  335MOL0     H44180   7.553   8.129   0.912  2.4042  1.4580  2.3744
  335MOL0     H44181   7.611   8.026   1.042  0.5741  2.6682  0.8032
  335MOL0     H44182   7.282   7.800   0.834 -0.7913  0.3158 -0.3085
  335MOL0     H44183   7.066   7.783   0.942  2.6311 -2.3016 -0.1540
  335MOL0     H44184   6.885   7.807   1.522  0.5072  0.4404  2.9336
  335MOL0     H44185   6.685   7.887   1.646 -0.3716  0.0210 -0.6778
  335MOL0     H44186   6.552   8.134   1.727  1.1467  0.5414  1.3861
  335MOL0     H44187   6.531   7.956   1.739 -1.1048 -0.1867  0.3875
  335MOL0     H44188   6.336   8.030   1.845  1.2410 -1.9605 -1.1414
  335MOL0     H44189   6.276   7.993   1.687  1.4084 -1.2967  0.0466
  335MOL0     H44190   6.345   8.267   1.635 -0.3994 -0.3821 -0.1081
  335MOL0     H44191   6.331   8.265   1.805 -0.6441  1.1787  0.2894
  335MOL0     H44192   6.102   8.176   1.809 -0.7157  0.9569  0.7355
  335MOL0     H44193   6.123   8.335   1.725  1.4690  0.6848 -0.5053
  335MOL0     H44194   5.983   8.105   1.598 -1.0379  1.0316 -1.4532
  335MOL0     H44195   6.129   8.094   1.520 -0.0843 -0.9424  1.5816
  335MOL0     H44196   5.974   8.344   1.565 -1.0899 -1.3895  0.9687
  335MOL0     H44197   5.953   8.236   1.419  0.8012  0.5196 -1.7097
  335MOL0     H44198   6.222   8.352   1.473  1.4792  1.5519 -1.0206
  335MOL0     H44199   6.165   8.288   1.320  0.8882  0.5007  0.7084
  335MOL0     H44200   6.042   8.531   1.451 -0.7837 -0.7550 -0.6785
  335MOL0     H44201   5.988   8.465   1.293  2.3486 -0.3107 -3.2559
  335MOL0     H44202   6.565   8.134   1.307  1.0993 -2.4506 -2.7437
  335MOL0     H44203   6.800   8.097   1.223 -0.9573 -1.7584 -0.0845
  335MOL0     H44204   7.175   8.070   1.226 -0.6577  1.3193 -0.0803
  335MOL0     H44205   7.408   8.082   1.118 -0.5231  0.9089 -0.4737
  335MOL0     H44206   8.723   8.640   0.481  0.4161 -0.2957  1.2696
  335MOL0     H44207   8.968   8.650   0.529 -2.4982  0.2226  0.3189
  335MOL0     H44208   9.372   9.015   0.499 -2.9106 -1.3715 -0.8854
  335MOL0     H44209   9.603   9.008   0.578 -0.2129  0.7903 -0.1969
  335MOL0     H44210   9.756   8.901   0.744 -0.2495 -1.5052 -0.3497
  335MOL0     H44211   9.808   8.981   0.590  0.1202 -1.5904 -1.7045
  335MOL0     H44212   9.973   8.773   0.731 -3.0537 -1.4541 -2.8121
  335MOL0     H44213  10.005   8.843   0.580  0.5652  1.0004  1.1400
  335MOL0     H44214   9.962   9.021   0.823  1.5742 -0.6920  0.4659
  335MOL0     H44215  10.058   9.045   0.669  2.3120 -0.1800  0.1800
  335MOL0     H44216  10.208   8.857   0.774 -0.3233 -1.7309  0.0507
  335MOL0     H44217  10.211   9.025   0.837 -1.0439 -0.7678  0.2132
  335MOL0     H44218  10.042   8.904   1.173  3.3109 -1.1089  0.0540
  335MOL0     H44219   9.600   8.585   0.485 -1.4151 -1.0452 -2.8058
  335MOL0     H44220   9.356   8.602   0.433 -1.8379  0.8454 -1.4883
  336MOL0     O44221   0.288   1.965   8.215  0.4724 -0.2102 -0.4062
  336MOL0     C44222   0.287   1.930   8.100  1.1776 -0.1887 -0.4946
  336MOL0     O44223   0.205   1.984   8.006 -0.7472 -0.7443 -0.1508
  336MOL0     C44224   0.126   2.086   8.040  0.5324  0.0641  0.0956
  336MOL0     C44225   0.159   2.210   8.102 -0.2258 -0.4467  0.1491
  336MOL0     C44226   0.060   2.303   8.119 -0.3877  0.0387 -0.8906
  336MOL0     C44227  -0.065   2.306   8.057  0.3080 -0.3636  0.8717
  336MOL0     O44228  -0.150   2.415   8.052  0.8179  0.9550  0.2935
  336MOL0     C44229  -0.131   2.522   8.147 -0.2452  0.6723  0.5593
  336MOL0     C44230  -0.264   2.598   8.159 -0.1554  1.3268  0.2001
  336MOL0     C44231  -0.265   2.675   8.282 -0.6590 -0.6235 -0.4059
  336MOL0     C44232  -0.179   2.802   8.271  0.1100 -0.1487 -0.2968
  336MOL0     C44233  -0.199   2.910   8.370  0.4681  0.5764 -0.4447
  336MOL0     C44234  -0.335   2.985   8.352 -0.5488 -0.2370  0.0113
  336MOL0     C44235  -0.351   3.127   8.405 -0.6779 -0.8428  0.9872
  336MOL0     C44236  -0.257   3.223   8.318  0.7982  0.6955 -0.1029
  336MOL0     N44237  -0.238   3.350   8.395 -0.2611 -0.6470  0.1278
  336MOL0     C44238  -0.340   3.426   8.437 -0.0085 -0.7085 -0.8367
  336MOL0     C44239  -0.277   3.526   8.498  0.3618  0.8733 -0.3330
  336MOL0     C44240  -0.348   3.661   8.548  0.5916  0.1585 -1.0732
  336MOL0     C44241  -0.443   3.630   8.666 -0.1043  0.1695  0.7243
  336MOL0     C44242  -0.371   3.603   8.800  1.0162 -0.5441 -0.3435
  336MOL0     C44243  -0.304   3.716   8.876  0.3492 -0.4970  0.5662
  336MOL0     O44244  -0.388   3.824   8.923  0.1189  0.3784  0.2559
  336MOL0     C44245  -0.469   3.799   9.034  0.8020 -0.1353 -0.1666
  336MOL0     C44246  -0.531   3.911   9.074 -0.2944  0.0591  0.3691
  336MOL0     C44247  -0.623   3.923   9.181  0.1390  0.8409  0.5150
  336MOL0     C44248  -0.667   3.804   9.245  0.2615 -0.0677  0.0309
  336MOL0     C44249  -0.791   3.814   9.330 -0.2143 -0.5684 -0.8603
  336MOL0     O44250  -0.847   3.938   9.334  0.0018  0.0085  0.0738
  336MOL0     C44251  -0.941   3.975   9.426  0.2407  1.0350  0.4446
  336MOL0     C44252  -1.021   3.875   9.497 -0.0143 -0.1232  0.6296
  336MOL0     C44253  -1.131   3.919   9.577 -0.3525  0.7291 -0.5464
  336MOL0     C44254  -1.169   4.053   9.585  0.5161 -0.4979  0.1285
  336MOL0     O44255  -1.292   4.080   9.648 -0.2688 -0.5213 -0.3696
  336MOL0     C44256  -1.283   4.191   9.746 -1.1391 -0.0355  0.2213
  336MOL0     C44257  -1.363   4.304   9.696  0.5386 -0.2445 -0.3877
  336MOL0     C44258  -1.405   4.404   9.810  0.0902 -0.2716  0.4930
  336MOL0     C44259  -1.495   4.519   9.770 -0.2676 -0.9045  1.1062
  336MOL0     C44260  -1.532   4.612   9.887  0.6401 -0.5792 -0.2170
  336MOL0     C44261  -1.639   4.723   9.841  0.9490  1.1456 -0.4427
  336MOL0     C44262  -1.635   4.827   9.954 -0.4329 -1.1032  0.0031
  336MOL0     C44263  -1.673   4.970   9.896 -0.1181 -0.0343  0.5946
  336MOL0    Cl44264  -1.543   5.028   9.802 -0.3675  0.1521 -0.2274
  336MOL0     C44265  -1.094   4.144   9.515  0.3187 -0.2631  1.2646
  336MOL0     C44266  -0.984   4.108   9.438 -0.0730 -0.3880  0.1867
  336MOL0     O44267  -0.826   3.702   9.377 -0.4956 -0.0177 -0.0945
  336MOL0     C44268  -0.598   3.684   9.207 -0.2384  0.0508  0.0017
  336MOL0     C44269  -0.495   3.686   9.111 -0.1419  0.2743  1.0463
  336MOL0     N44270  -0.140   3.502   8.505 -0.4509 -0.4367 -0.7420
  336MOL0     N44271  -0.120   3.394   8.440  0.1644  0.0798 -0.7287
  336MOL0     C44272  -0.092   2.193   7.986  0.5828 -0.2490 -0.3111
  336MOL0     C44273  -0.002   2.086   7.980 -0.1203 -0.6144 -0.8248
  336MOL0     C44274   0.375   1.818   8.062 -0.6037 -0.3264  0.8295
  336MOL0     C44275   0.462   1.757   8.159  0.4311  0.1468  1.4153
  336MOL0     C44276   0.553   1.668   8.120  0.4017 -0.1070  0.0174
  336MOL0     C44277   0.553   1.620   7.988 -0.1177 -1.0109 -0.1869
  336MOL0     O44278   0.643   1.520   7.961 -0.1186 -0.1691  0.4120
  336MOL0     C44279   0.714   1.517   7.836  0.0072 -0.3757 -0.0014
  336MOL0     C44280   0.772   1.381   7.805  0.2908  0.0300  0.0812
  336MOL0     C44281   0.894   1.367   7.902 -0.9164 -0.5670  0.2671
  336MOL0     C44282   0.949   1.227   7.889 -0.2359 -0.5784  0.0931
  336MOL0     C44283   1.004   1.181   7.764  0.0452  0.7779 -0.2269
  336MOL0     C44284   1.012   1.113   7.660 -1.0733 -0.1844 -0.5575
  336MOL0     C44285   0.473   1.674   7.889  0.6742  0.7630 -0.2362
  336MOL0     C44286   0.377   1.769   7.926  0.8586 -0.0645 -0.1036
  336MOL0     H44287   0.260   2.240   8.126 -1.0611  3.1457 -0.2350
  336MOL0     H44288   0.089   2.393   8.171  0.4294 -2.1383  2.7579
  336MOL0     H44289  -0.053   2.585   8.102  1.3210 -1.7980 -0.4331
  336MOL0     H44290  -0.095   2.482   8.242 -0.9737  1.8716  1.3703
  336MOL0     H44291  -0.350   2.533   8.181  1.3753 -0.2987  1.6233
  336MOL0     H44292  -0.300   2.648   8.068 -1.8499 -0.1193  0.0117
  336MOL0     H44293  -0.222   2.618   8.365 -0.0205  0.0848 -0.2424
  336MOL0     H44294  -0.367   2.709   8.302  0.6627  1.2693  4.6568
  336MOL0     H44295  -0.073   2.781   8.287 -0.1221  0.5645  2.8199
  336MOL0     H44296  -0.199   2.833   8.168  1.8524  1.4251 -0.2291
  336MOL0     H44297  -0.114   2.979   8.358  1.1280  0.1290  1.2709
  336MOL0     H44298  -0.192   2.864   8.469 -0.4482 -0.1192 -0.6955
  336MOL0     H44299  -0.412   2.921   8.397  0.6836  0.0753  2.7764
  336MOL0     H44300  -0.343   2.998   8.243  1.8328  4.7171  0.1701
  336MOL0     H44301  -0.454   3.160   8.388 -0.1598  0.2238 -0.2668
  336MOL0     H44302  -0.332   3.137   8.512  0.1495 -0.1298  0.7871
  336MOL0     H44303  -0.278   3.230   8.211  2.6452 -0.7130 -0.6162
  336MOL0     H44304  -0.157   3.184   8.295  1.0239  2.5117 -2.6448
  336MOL0     H44305  -0.444   3.410   8.409 -0.6844 -0.4748  1.3758
  336MOL0     H44306  -0.412   3.701   8.469  1.2121  0.0337 -1.6459
  336MOL0     H44307  -0.276   3.739   8.575  2.5993 -2.3753  1.4512
  336MOL0     H44308  -0.510   3.544   8.650  0.9644 -0.5128 -0.2514
  336MOL0     H44309  -0.509   3.716   8.679  2.4196  2.3168  0.2351
  336MOL0     H44310  -0.449   3.554   8.859  0.8640 -0.6817 -0.6569
  336MOL0     H44311  -0.299   3.525   8.775  0.6379 -0.1382 -2.9250
  336MOL0     H44312  -0.222   3.763   8.822 -1.6163 -0.0696 -2.2742
  336MOL0     H44313  -0.248   3.668   8.957 -1.7264 -2.2653  1.0490
  336MOL0     H44314  -0.509   4.006   9.026 -2.0724  0.2415 -0.1599
  336MOL0     H44315  -0.659   4.022   9.210 -0.0547  0.0603  3.1492
  336MOL0     H44316  -0.996   3.770   9.511 -2.2902 -0.6617  0.9415
  336MOL0     H44317  -1.199   3.845   9.617  1.8637 -1.4234 -0.5390
  336MOL0     H44318  -1.177   4.204   9.770 -1.0503  1.1456 -0.6927
  336MOL0     H44319  -1.330   4.155   9.838  1.7681 -2.4259  0.9042
  336MOL0     H44320  -1.454   4.271   9.645  0.4271  3.0017 -2.5961
  336MOL0     H44321  -1.304   4.360   9.623  1.9956 -0.8258  0.3211
  336MOL0     H44322  -1.318   4.446   9.860 -0.6130  1.8258  0.0706
  336MOL0     H44323  -1.461   4.338   9.877 -0.8078 -0.1628 -0.1200
  336MOL0     H44324  -1.443   4.584   9.699 -0.3097 -2.1880 -0.1546
  336MOL0     H44325  -1.586   4.488   9.718 -0.3179 -0.6514  1.0448
  336MOL0     H44326  -1.435   4.649   9.921  1.2901 -2.1979 -0.2050
  336MOL0     H44327  -1.573   4.560   9.974  1.2256 -2.4497 -1.0078
  336MOL0     H44328  -1.736   4.676   9.824  1.8487 -0.9009 -0.1415
  336MOL0     H44329  -1.615   4.775   9.748 -0.2390 -0.9386 -2.0055
  336MOL0     H44330  -1.707   4.792  10.028 -2.2414 -0.0038 -1.1672
  336MOL0     H44331  -1.538   4.832  10.005 -0.4177  1.6386 -0.1542
  336MOL0     H44332  -1.695   5.040   9.976 -0.4284  3.2278 -2.1432
  336MOL0     H44333  -1.757   4.964   9.826  0.3590  1.2877 -0.1334
  336MOL0     H44334  -1.118   4.248   9.492 -1.9805 -0.9916  0.0334
  336MOL0     H44335  -0.930   4.177   9.374  0.1887 -0.3937  0.4022
  336MOL0     H44336  -0.631   3.587   9.244  1.2542 -0.1936  0.7788
  336MOL0     H44337  -0.446   3.593   9.087  1.0104  1.4561 -1.4729
  336MOL0     H44338  -0.191   2.182   7.943  0.0444  1.5230  0.3456
  336MOL0     H44339  -0.042   1.994   7.938  0.0301 -0.8871 -0.3825
  336MOL0     H44340   0.458   1.791   8.262 -2.0352 -0.8734  1.7367
  336MOL0     H44341   0.600   1.611   8.200 -1.2892 -1.9248 -0.2178
  336MOL0     H44342   0.798   1.586   7.849  0.1199 -0.6814  1.0625
  336MOL0     H44343   0.646   1.551   7.758 -1.6935  0.1947  1.6604
  336MOL0     H44344   0.694   1.306   7.823  0.6755 -1.1090 -2.5236
  336MOL0     H44345   0.802   1.373   7.700  1.1302 -2.2240  0.4366
  336MOL0     H44346   0.867   1.377   8.007 -1.8601 -5.1747  0.6436
  336MOL0     H44347   0.972   1.440   7.875  0.2433 -2.7902 -3.0627
  336MOL0     H44348   1.026   1.220   7.966 -1.0970  1.9827  1.3351
  336MOL0     H44349   0.864   1.167   7.921 -1.5907 -0.8799 -3.5849
  336MOL0     H44350   1.035   1.060   7.570  0.5034 -0.7710  0.1558
  336MOL0     H44351   0.480   1.646   7.784 -0.2760 -2.8801  0.5486
  336MOL0     H44352   0.306   1.824   7.865 -1.2845  0.8041  2.9993
  337MOL0     O44353  10.496   2.313   6.782  0.9059 -0.4111  0.1421
  337MOL0     C44354  10.473   2.430   6.769  0.5885  0.2281  0.1367
  337MOL0     O44355  10.380   2.506   6.834  0.1373  1.0137  0.1561
  337MOL0     C44356  10.304   2.459   6.934  0.1972 -0.5406  0.1872
  337MOL0     C44357  10.293   2.525   7.052 -0.5524 -0.9000 -0.0973
  337MOL0     C44358  10.214   2.492   7.150 -0.4495  0.1231 -0.4723
  337MOL0     C44359  10.126   2.382   7.136  0.6802  0.0898 -0.4005
  337MOL0     O44360  10.030   2.342   7.224  0.5767 -0.2406 -0.2305
  337MOL0     C44361   9.952   2.441   7.295 -0.7366 -0.6412 -0.1303
  337MOL0     C44362   9.810   2.440   7.239  0.1001 -0.5694 -0.2295
  337MOL0     C44363   9.733   2.572   7.260 -0.3605 -0.0783 -0.0692
  337MOL0     C44364   9.713   2.600   7.405 -0.7028  0.2132  0.1214
  337MOL0     C44365   9.633   2.727   7.437  0.0277  0.0266 -0.0847
  337MOL0     C44366   9.572   2.734   7.581 -0.1508 -0.6285  0.3741
  337MOL0     C44367   9.479   2.840   7.629 -0.1706 -0.2028 -0.3578
  337MOL0     C44368   9.542   2.975   7.603 -0.5345 -0.4576 -0.2991
  337MOL0     N44369   9.507   3.031   7.472 -0.1323  0.1090 -1.1651
  337MOL0     C44370   9.380   3.016   7.425  0.7043 -0.2214  0.9423
  337MOL0     C44371   9.391   3.070   7.303  0.0207 -0.6642  0.6066
  337MOL0     C44372   9.279   3.078   7.212 -0.0295 -0.1643 -0.4631
  337MOL0     C44373   9.160   3.164   7.264  0.1164 -0.8297  0.1060
  337MOL0     C44374   9.200   3.324   7.248  1.0819  0.7709 -0.3625
  337MOL0     C44375   9.257   3.367   7.380  0.1945 -0.5193  0.1660
  337MOL0     O44376   9.151   3.379   7.478  0.4619 -0.0421 -0.1443
  337MOL0     C44377   9.205   3.404   7.594  0.7406 -0.2851  0.0362
  337MOL0     C44378   9.251   3.534   7.628  0.7621  0.1518  0.4081
  337MOL0     C44379   9.286   3.569   7.755 -0.2799  0.9087 -0.4986
  337MOL0     C44380   9.297   3.471   7.857  0.0711  0.0913  0.3757
  337MOL0     C44381   9.348   3.504   7.984 -0.0041 -0.3363  0.2317
  337MOL0     O44382   9.323   3.632   8.024  0.2995 -1.5356 -0.8887
  337MOL0     C44383   9.354   3.687   8.148  0.2890  0.5058  0.0346
  337MOL0     C44384   9.480   3.720   8.189  0.0591  0.5309  0.4400
  337MOL0     C44385   9.502   3.790   8.309  0.4908  0.5645 -0.2055
  337MOL0     C44386   9.396   3.799   8.393  0.0149 -0.1411 -0.0444
  337MOL0     O44387   9.421   3.842   8.516 -0.4482 -0.9230  0.4507
  337MOL0     C44388   9.346   3.950   8.578  0.7115  0.4238 -0.5237
  337MOL0     C44389   9.428   4.011   8.688  0.1224 -0.8336 -0.0426
  337MOL0     C44390   9.566   3.950   8.718 -0.3652  0.4164 -0.7781
  337MOL0     C44391   9.671   4.006   8.617 -0.2787 -0.9957 -0.7351
  337MOL0     C44392   9.812   4.028   8.691  0.4527  0.0131 -0.2385
  337MOL0     C44393   9.940   4.067   8.613 -0.0561 -0.3508  0.2038
  337MOL0     C44394   9.958   3.967   8.505  0.3832  0.2512  0.8637
  337MOL0     C44395  10.092   3.963   8.421 -0.2442 -0.3163 -0.1933
  337MOL0    Cl44396  10.069   3.816   8.325  0.3395 -0.1746  0.2117
  337MOL0     C44397   9.265   3.773   8.353  0.4084  0.1372 -0.1987
  337MOL0     C44398   9.241   3.714   8.233 -0.0247  0.3904  0.3811
  337MOL0     O44399   9.409   3.423   8.052 -0.1320 -0.7784  0.7776
  337MOL0     C44400   9.239   3.348   7.832 -0.4344  0.9881 -0.4143
  337MOL0     C44401   9.191   3.316   7.701  0.7105  0.0116  0.4354
  337MOL0     N44402   9.521   3.117   7.286 -0.7104  0.0816 -0.1591
  337MOL0     N44403   9.593   3.096   7.391  0.5164  0.3431 -0.2430
  337MOL0     C44404  10.146   2.307   7.026  0.1700  0.0451 -0.2602
  337MOL0     C44405  10.231   2.337   6.919  0.0111  0.5209  0.2303
  337MOL0     C44406  10.541   2.504   6.664 -0.4873 -1.0849  0.1776
  337MOL0     C44407  10.606   2.440   6.558 -0.1815  0.1314 -0.3424
  337MOL0     C44408  10.687   2.509   6.458 -0.6165 -0.2003  0.0680
  337MOL0     C44409  10.690   2.652   6.458  0.6598  0.0200  0.3532
  337MOL0     O44410  10.746   2.733   6.356 -0.6811  0.2031  0.0368
  337MOL0     C44411  10.853   2.656   6.285 -0.8019 -0.7977 -0.8492
  337MOL0     C44412  10.932   2.761   6.205  0.3896 -0.3704  0.3000
  337MOL0     C44413  11.072   2.707   6.168  0.8458 -0.0096 -0.0709
  337MOL0     C44414  11.059   2.647   6.032 -0.4067 -0.6030  0.3303
  337MOL0     C44415  11.194   2.607   5.987 -0.6736 -0.5449 -0.5239
  337MOL0     C44416  11.308   2.580   5.950  0.1859  0.7714 -0.7785
  337MOL0     C44417  10.628   2.717   6.572 -0.6597  0.6533  0.7316
  337MOL0     C44418  10.555   2.643   6.671  0.2330 -1.0103  0.6722
  337MOL0     H44419  10.356   2.613   7.051  0.7900 -1.8152 -0.9232
  337MOL0     H44420  10.225   2.553   7.240 -2.1181 -0.5993  0.2649
  337MOL0     H44421   9.979   2.545   7.275  1.4536 -1.3155 -1.0427
  337MOL0     H44422   9.948   2.426   7.403  0.3538  4.1792  0.7965
  337MOL0     H44423   9.757   2.355   7.283  2.9011 -1.3095  2.0383
  337MOL0     H44424   9.811   2.424   7.131  0.6831 -0.2213 -0.2803
  337MOL0     H44425   9.634   2.577   7.214 -0.9586  0.8580  1.2740
  337MOL0     H44426   9.782   2.654   7.207 -2.9771  1.6959  0.0591
  337MOL0     H44427   9.664   2.517   7.457  0.6943 -0.3483  0.5774
  337MOL0     H44428   9.806   2.616   7.461 -0.6156  0.8244 -0.1828
  337MOL0     H44429   9.556   2.734   7.359  2.1583  2.2013 -2.1501
  337MOL0     H44430   9.696   2.815   7.422 -1.2909  1.1081  0.4884
  337MOL0     H44431   9.652   2.754   7.653  1.4219 -2.9270 -0.6299
  337MOL0     H44432   9.523   2.636   7.591  1.9355 -2.1166 -2.5731
  337MOL0     H44433   9.385   2.829   7.575 -1.5316  1.7663  1.4351
  337MOL0     H44434   9.460   2.814   7.734  3.1687  0.6283  0.5500
  337MOL0     H44435   9.648   2.958   7.620 -0.9230 -0.0819  3.0175
  337MOL0     H44436   9.509   3.041   7.684 -0.9803 -2.5636  1.3250
  337MOL0     H44437   9.288   2.975   7.466  0.3214  0.2766  0.5988
  337MOL0     H44438   9.257   2.972   7.196 -1.0382  0.4022 -3.3236
  337MOL0     H44439   9.314   3.115   7.115  2.2068 -2.4917 -0.6789
  337MOL0     H44440   9.140   3.138   7.368 -2.3322  3.1849  0.8657
  337MOL0     H44441   9.070   3.138   7.208  0.2645 -0.6852 -0.2060
  337MOL0     H44442   9.279   3.343   7.175  0.7110 -0.5017 -1.1292
  337MOL0     H44443   9.114   3.388   7.227 -2.3023 -3.4829 -0.8887
  337MOL0     H44444   9.306   3.463   7.361 -1.2094  0.1671 -0.1055
  337MOL0     H44445   9.338   3.299   7.410  0.4427  0.2911  1.4047
  337MOL0     H44446   9.258   3.613   7.555  4.5111 -3.1430 -3.2690
  337MOL0     H44447   9.310   3.674   7.768  0.0466  0.6962  0.7701
  337MOL0     H44448   9.564   3.696   8.124  0.4977  2.9853 -0.0093
  337MOL0     H44449   9.601   3.831   8.329 -1.4014  4.8880  1.7067
  337MOL0     H44450   9.250   3.916   8.617  0.1387  2.5708  0.0556
  337MOL0     H44451   9.319   4.022   8.500 -0.8146  1.2799  0.7414
  337MOL0     H44452   9.367   3.985   8.775 -1.8808 -4.3460 -2.2796
  337MOL0     H44453   9.435   4.120   8.673 -1.1255 -0.6260  0.7401
  337MOL0     H44454   9.573   3.841   8.713  1.8352  0.5638 -4.5268
  337MOL0     H44455   9.603   3.974   8.818  2.0118  0.4134 -1.6065
  337MOL0     H44456   9.690   3.932   8.539 -1.8126 -0.3862 -1.7316
  337MOL0     H44457   9.640   4.100   8.569 -1.8216 -0.8884  0.3864
  337MOL0     H44458   9.830   3.929   8.733  1.4464 -0.7263 -2.2747
  337MOL0     H44459   9.793   4.107   8.764  1.3457  0.7695 -0.8023
  337MOL0     H44460  10.023   4.087   8.680 -1.8773 -0.1028  2.5186
  337MOL0     H44461   9.923   4.159   8.555  3.5349  0.7840  0.7205
  337MOL0     H44462   9.931   3.870   8.548 -2.1640  0.6806  0.4322
  337MOL0     H44463   9.884   3.984   8.426  0.1990  1.9913  1.3616
  337MOL0     H44464  10.167   3.945   8.498  0.6937  2.2941 -0.3883
  337MOL0     H44465  10.110   4.044   8.349  3.4789 -3.7818 -3.6941
  337MOL0     H44466   9.181   3.802   8.416  1.1867 -0.7618  1.3225
  337MOL0     H44467   9.138   3.696   8.204 -0.4152 -0.8898  2.3810
  337MOL0     H44468   9.237   3.268   7.905 -0.4561 -0.5747 -2.0322
  337MOL0     H44469   9.138   3.226   7.671  0.0564  1.0928 -1.8752
  337MOL0     H44470  10.085   2.217   7.018 -1.6209  1.2974 -1.3525
  337MOL0     H44471  10.234   2.272   6.832 -0.7718  1.0177 -0.1870
  337MOL0     H44472  10.596   2.332   6.551 -0.4132  0.2799 -4.9468
  337MOL0     H44473  10.744   2.459   6.381  1.6455  2.1940  0.0613
  337MOL0     H44474  10.818   2.578   6.217  0.3633  0.2520 -2.7571
  337MOL0     H44475  10.920   2.607   6.355 -3.4485 -0.7674  1.9088
  337MOL0     H44476  10.867   2.785   6.120  0.5423 -0.4645  0.1580
  337MOL0     H44477  10.952   2.853   6.261 -2.8392  2.9167 -3.3472
  337MOL0     H44478  11.104   2.633   6.241  2.4449  0.0845 -0.6297
  337MOL0     H44479  11.136   2.796   6.159  1.1830 -0.2069  0.3454
  337MOL0     H44480  10.998   2.557   6.020  0.6712 -1.5842  1.7800
  337MOL0     H44481  11.027   2.728   5.967 -2.1889  0.1024  1.9958
  337MOL0     H44482  11.398   2.546   5.902 -0.2223 -1.0034 -0.3333
  337MOL0     H44483  10.632   2.825   6.570  0.2765  0.6253 -2.0680
  337MOL0     H44484  10.512   2.706   6.748 -1.2719  0.8731 -1.5925
  338MOL0     O44485   7.447   2.686   8.048 -0.6174 -0.5054 -0.2580
  338MOL0     C44486   7.538   2.682   8.125 -0.0290  0.7527 -1.3514
  338MOL0     O44487   7.539   2.605   8.248 -0.3705 -0.3672 -0.1033
  338MOL0     C44488   7.447   2.510   8.276  0.6477 -0.0552 -1.0309
  338MOL0     C44489   7.412   2.477   8.411  0.9826 -0.1954  0.0828
  338MOL0     C44490   7.322   2.372   8.440  0.2034 -1.5320 -0.6071
  338MOL0     C44491   7.270   2.304   8.336  0.4124  0.3058  0.7211
  338MOL0     O44492   7.207   2.183   8.357  0.1860  0.0255  0.7903
  338MOL0     C44493   7.065   2.192   8.381  0.1417 -1.0168 -1.6736
  338MOL0     C44494   7.050   2.198   8.534  0.5037  1.0462  0.3983
  338MOL0     C44495   7.091   2.061   8.594 -1.3716 -0.2427 -1.0734
  338MOL0     C44496   7.097   2.084   8.748  0.5457  0.9342 -0.3831
  338MOL0     C44497   7.157   1.965   8.811  0.8805  0.2719 -0.0832
  338MOL0     C44498   7.135   1.963   8.961  0.0796  0.3654 -0.3435
  338MOL0     C44499   7.200   1.831   9.018 -0.1214  0.4737 -0.1001
  338MOL0     C44500   7.262   1.843   9.159  0.0749 -0.4604  0.4248
  338MOL0     N44501   7.190   1.925   9.259 -0.2716 -0.6398  0.1815
  338MOL0     C44502   7.065   1.911   9.305 -0.1697 -0.1521  0.1050
  338MOL0     C44503   7.059   2.006   9.409  0.0822  1.1531 -0.6576
  338MOL0     C44504   6.941   2.036   9.493  1.0131  1.4621 -0.1455
  338MOL0     C44505   6.846   2.118   9.411 -0.0687  0.9492  0.4483
  338MOL0     C44506   6.888   2.262   9.428 -0.1073 -0.6724  0.3772
  338MOL0     C44507   6.790   2.351   9.354 -0.4076  1.0220  0.5342
  338MOL0     O44508   6.777   2.317   9.209  0.0148 -0.4004  0.7428
  338MOL0     C44509   6.874   2.370   9.130  0.6406 -0.3925 -0.9127
  338MOL0     C44510   6.861   2.503   9.092 -0.0439  0.6109 -0.2598
  338MOL0     C44511   6.958   2.560   9.006  1.5473 -0.3816  0.1450
  338MOL0     C44512   7.058   2.480   8.949 -0.1502  0.6991 -0.2792
  338MOL0     C44513   7.154   2.533   8.850 -0.5751 -0.5599 -0.7407
  338MOL0     O44514   7.167   2.669   8.859 -0.0327 -0.4012  0.0639
  338MOL0     C44515   7.206   2.754   8.758 -0.2754  0.9885  0.5878
  338MOL0     C44516   7.251   2.704   8.635  0.2704  0.0476 -1.3970
  338MOL0     C44517   7.289   2.801   8.545 -0.8135  0.0727 -0.1928
  338MOL0     C44518   7.271   2.938   8.566 -0.4157 -0.2854 -0.7345
  338MOL0     O44519   7.315   3.031   8.478 -0.1123 -0.0401 -0.2602
  338MOL0     C44520   7.404   2.982   8.371 -0.2939 -0.5939 -0.6152
  338MOL0     C44521   7.479   3.100   8.322 -0.5820  0.0596 -0.1136
  338MOL0     C44522   7.561   3.073   8.186  0.0972  0.6373  0.4562
  338MOL0     C44523   7.451   3.038   8.070 -0.1552  0.1944  0.4181
  338MOL0     C44524   7.328   3.120   8.055 -0.3140 -0.3817  0.1855
  338MOL0     C44525   7.351   3.260   8.008 -0.6134 -0.1188 -0.9514
  338MOL0     C44526   7.214   3.312   7.989  0.2498 -0.8086 -0.2531
  338MOL0     C44527   7.213   3.452   7.915 -0.9370 -0.2243 -0.3179
  338MOL0    Cl44528   7.287   3.451   7.759  0.4548 -0.0052 -0.5235
  338MOL0     C44529   7.218   2.983   8.681 -0.0804  0.1250 -0.5283
  338MOL0     C44530   7.182   2.891   8.782  0.0170 -0.0678  0.5666
  338MOL0     O44531   7.203   2.461   8.766  0.4194  1.0187 -0.5933
  338MOL0     C44532   7.066   2.342   8.991 -1.0614  0.3122  0.0515
  338MOL0     C44533   6.971   2.284   9.083  0.2509 -0.1752 -0.0719
  338MOL0     N44534   7.180   2.075   9.407  0.1268  0.6524 -0.7823
  338MOL0     N44535   7.258   2.027   9.316 -0.1849 -0.4063  0.0461
  338MOL0     C44536   7.316   2.326   8.210 -1.0102  0.2383  0.2206
  338MOL0     C44537   7.394   2.436   8.178  0.0462 -0.7634  0.8591
  338MOL0     C44538   7.660   2.754   8.116 -0.3974  0.3267  0.1959
  338MOL0     C44539   7.692   2.805   7.993  0.2773  0.1593 -0.3323
  338MOL0     C44540   7.804   2.886   7.968 -0.3960 -0.0639 -0.0904
  338MOL0     C44541   7.904   2.903   8.069  0.4830 -0.3320 -0.0421
  338MOL0     O44542   8.023   2.986   8.054  0.8034 -0.2705 -0.3412
  338MOL0     C44543   7.995   3.121   8.086  0.1826  0.5965  0.5626
  338MOL0     C44544   7.961   3.198   7.963  0.6565 -0.3210  0.0949
  338MOL0     C44545   8.078   3.219   7.862  0.5430 -0.2418  0.5617
  338MOL0     C44546   8.032   3.272   7.720  0.2464  0.1535  0.3819
  338MOL0     C44547   7.941   3.172   7.662 -1.2239  0.0517  0.0523
  338MOL0     C44548   7.872   3.101   7.600 -0.5117 -0.1286  0.3814
  338MOL0     C44549   7.880   2.838   8.198  0.9455  0.3719 -0.0053
  338MOL0     C44550   7.760   2.771   8.218  0.1531  0.0195  0.2699
  338MOL0     H44551   7.437   2.529   8.502 -1.1443  0.0502  0.5867
  338MOL0     H44552   7.300   2.347   8.544 -2.9923  1.5668 -0.3472
  338MOL0     H44553   7.009   2.108   8.341 -0.2188 -3.2435  2.8461
  338MOL0     H44554   7.028   2.283   8.333  2.6547  0.4717 -1.0095
  338MOL0     H44555   6.942   2.213   8.543 -0.1167 -1.2793 -1.9339
  338MOL0     H44556   7.091   2.288   8.582  0.9750  0.7505  0.5551
  338MOL0     H44557   7.187   2.025   8.554 -0.0905  0.7620  0.9693
  338MOL0     H44558   7.020   1.981   8.569  2.1135 -4.7354  1.6826
  338MOL0     H44559   7.157   2.173   8.767 -2.8340  3.3530 -0.2502
  338MOL0     H44560   6.994   2.101   8.781 -0.7242 -5.3845  0.3255
  338MOL0     H44561   7.264   1.961   8.787  0.9512  2.2533 -0.2900
  338MOL0     H44562   7.106   1.878   8.769  1.0403  1.1454 -2.2167
  338MOL0     H44563   7.029   1.962   8.986 -0.2657  2.7253 -1.4032
  338MOL0     H44564   7.192   2.051   8.993 -0.0757  2.3886 -4.8856
  338MOL0     H44565   7.123   1.756   9.034 -2.7208  3.2963  1.8796
  338MOL0     H44566   7.266   1.782   8.946 -0.7344 -1.9488  0.9048
  338MOL0     H44567   7.360   1.886   9.136  0.6326 -2.2587 -0.7514
  338MOL0     H44568   7.268   1.744   9.206  0.1044  0.3949  2.3328
  338MOL0     H44569   7.007   1.822   9.280  0.9827 -2.4297  4.5855
  338MOL0     H44570   6.981   2.072   9.588 -3.5776  2.4366  1.6900
  338MOL0     H44571   6.881   1.948   9.516 -0.8797  2.0195 -2.4566
  338MOL0     H44572   6.741   2.122   9.441 -0.1342  3.7921  0.1291
  338MOL0     H44573   6.852   2.087   9.306 -0.9010  0.0716  0.6511
  338MOL0     H44574   6.889   2.287   9.534  0.3017 -0.5492  0.3455
  338MOL0     H44575   6.991   2.273   9.393 -0.0353 -0.3844  0.6731
  338MOL0     H44576   6.824   2.454   9.368 -0.2828  0.6788  3.2559
  338MOL0     H44577   6.691   2.361   9.400  1.1739  0.6636  4.4301
  338MOL0     H44578   6.768   2.552   9.121 -1.1016 -0.9602 -0.8618
  338MOL0     H44579   6.940   2.664   8.981 -2.4982  0.3074  4.4387
  338MOL0     H44580   7.247   2.604   8.594 -1.3638  0.2230 -1.7702
  338MOL0     H44581   7.310   2.761   8.447  0.1617 -2.4655  0.9868
  338MOL0     H44582   7.336   2.940   8.296  0.0493 -2.4823  0.0836
  338MOL0     H44583   7.470   2.897   8.391 -0.2830 -0.4825 -0.1689
  338MOL0     H44584   7.557   3.115   8.397  0.2732 -1.4875 -0.6482
  338MOL0     H44585   7.413   3.187   8.317 -0.7767  0.1043  2.1940
  338MOL0     H44586   7.636   2.995   8.201  2.4833  3.0053  1.5899
  338MOL0     H44587   7.630   3.151   8.153  0.5422  0.0125 -0.1198
  338MOL0     H44588   7.507   3.051   7.976 -1.2863 -0.1539 -0.3237
  338MOL0     H44589   7.417   2.935   8.081 -3.1325  0.9071 -0.9461
  338MOL0     H44590   7.292   3.128   8.158 -0.7323  0.0466  0.0092
  338MOL0     H44591   7.254   3.078   7.986 -1.1165  2.2390 -0.6650
  338MOL0     H44592   7.407   3.256   7.914 -0.2902 -0.0870 -0.7628
  338MOL0     H44593   7.397   3.330   8.078 -3.3645  1.1132 -0.2456
  338MOL0     H44594   7.142   3.252   7.933 -2.0187  0.2118  1.3852
  338MOL0     H44595   7.172   3.334   8.087  0.4814 -2.3767  0.2247
  338MOL0     H44596   7.269   3.526   7.973 -0.5130  1.5836 -2.9038
  338MOL0     H44597   7.112   3.492   7.918 -1.0577 -0.5636  0.6459
  338MOL0     H44598   7.220   3.090   8.698  0.0739 -0.0067  0.3227
  338MOL0     H44599   7.137   2.926   8.874 -0.6901 -1.1885  0.6701
  338MOL0     H44600   7.148   2.281   8.955 -0.1487  1.5419  0.0155
  338MOL0     H44601   6.973   2.179   9.110 -4.1884 -0.2424  0.7807
  338MOL0     H44602   7.280   2.261   8.131  3.7437 -1.6774 -0.7037
  338MOL0     H44603   7.426   2.436   8.074  3.8399 -1.6866  1.8718
  338MOL0     H44604   7.630   2.789   7.906  0.2358  2.7090 -0.8617
  338MOL0     H44605   7.808   2.927   7.867  2.6321 -0.4663 -0.2287
  338MOL0     H44606   8.078   3.169   8.138 -0.3591  1.9171  0.2464
  338MOL0     H44607   7.918   3.136   8.162 -0.8176  0.2642 -0.3531
  338MOL0     H44608   7.873   3.143   7.928 -0.5016  0.4470  1.6668
  338MOL0     H44609   7.927   3.299   7.989 -0.4132 -0.3645 -1.0455
  338MOL0     H44610   8.127   3.122   7.854  2.1448  0.5709  0.0988
  338MOL0     H44611   8.153   3.287   7.905 -1.1121 -1.0074  5.3361
  338MOL0     H44612   7.986   3.371   7.722 -0.2862 -0.0818  0.0124
  338MOL0     H44613   8.115   3.279   7.648 -0.7247 -1.4251 -0.9661
  338MOL0     H44614   7.797   3.031   7.571 -1.8694 -2.0991  6.8836
  338MOL0     H44615   7.963   2.842   8.268 -0.0738  0.0107  1.2656
  338MOL0     H44616   7.746   2.738   8.321 -0.4821 -0.5816 -0.0025
  339MOL0     O44617   5.349   9.337   3.876  0.6136  0.3180 -0.4487
  339MOL0     C44618   5.317   9.383   3.986 -0.0027  0.6612  0.5718
  339MOL0     O44619   5.258   9.319   4.087  0.2877 -1.0918 -0.0781
  339MOL0     C44620   5.227   9.183   4.065  0.0141  0.4245  1.0877
  339MOL0     C44621   5.324   9.080   4.095  1.2201 -0.1204  0.1354
  339MOL0     C44622   5.286   8.945   4.086  0.4988 -0.4758 -0.9870
  339MOL0     C44623   5.156   8.909   4.051 -0.2164  0.0487  0.5752
  339MOL0     O44624   5.117   8.776   4.066  0.0550 -0.5784  0.0131
  339MOL0     C44625   5.001   8.755   4.143 -0.5268 -0.0391  0.4971
  339MOL0     C44626   5.015   8.640   4.229 -0.1771 -0.0484  1.3175
  339MOL0     C44627   4.884   8.559   4.259 -0.0022 -0.0957 -0.8085
  339MOL0     C44628   4.893   8.458   4.375  0.5855 -0.0005  0.1263
  339MOL0     C44629   4.766   8.380   4.389 -0.4272  0.3724  0.7659
  339MOL0     C44630   4.745   8.292   4.264 -0.2222 -0.1012 -0.0228
  339MOL0     C44631   4.663   8.169   4.307 -0.2449 -0.3697 -0.9312
  339MOL0     C44632   4.629   8.083   4.181  0.0198  0.4155  0.1499
  339MOL0     N44633   4.721   7.969   4.163 -0.0145  1.0378 -0.8151
  339MOL0     C44634   4.682   7.842   4.127 -0.2017  0.9871 -0.0173
  339MOL0     C44635   4.783   7.762   4.160  0.0652  1.0093  0.3025
  339MOL0     C44636   4.777   7.612   4.124 -0.2537  0.2763 -0.8320
  339MOL0     C44637   4.684   7.538   4.217  0.0447  0.4495 -0.0462
  339MOL0     C44638   4.709   7.384   4.220  0.9718  0.3398 -0.7442
  339MOL0     C44639   4.772   7.323   4.098 -0.1880  0.3284  0.3772
  339MOL0     O44640   4.701   7.335   3.978  1.0173  0.2748  0.9601
  339MOL0     C44641   4.618   7.239   3.927  0.2614  0.0158 -0.6479
  339MOL0     C44642   4.569   7.132   3.999 -0.1053  0.7361 -0.9223
  339MOL0     C44643   4.481   7.036   3.945 -0.6222  0.2907  0.2035
  339MOL0     C44644   4.447   7.040   3.806 -0.3607 -0.7187 -0.3292
  339MOL0     C44645   4.360   6.937   3.756  0.6818 -1.3075 -0.2505
  339MOL0     O44646   4.363   6.927   3.621 -0.3928 -0.3046 -0.8632
  339MOL0     C44647   4.271   6.846   3.555  0.9474 -0.6675  0.2335
  339MOL0     C44648   4.135   6.826   3.583  0.2160 -0.1108  0.0901
  339MOL0     C44649   4.069   6.738   3.499 -0.8615 -0.3140 -0.0598
  339MOL0     C44650   4.123   6.681   3.391 -0.6014 -0.3475 -0.1018
  339MOL0     O44651   4.042   6.599   3.325  0.8036 -0.3122  0.4907
  339MOL0     C44652   4.099   6.476   3.275  0.4747  0.4720 -0.9042
  339MOL0     C44653   4.003   6.355   3.289 -0.4245  0.0451  1.0866
  339MOL0     C44654   4.085   6.219   3.255 -0.2143 -0.0556 -0.7757
  339MOL0     C44655   4.001   6.095   3.274  0.3555 -0.6597 -0.0285
  339MOL0     C44656   4.072   5.964   3.227  0.2781  0.7795 -0.1785
  339MOL0     C44657   4.051   5.853   3.339  0.6999 -0.0869  0.2448
  339MOL0     C44658   4.125   5.722   3.322 -1.0564 -0.7585  0.1196
  339MOL0     C44659   4.100   5.659   3.181  0.3090  0.8799 -0.0779
  339MOL0    Cl44660   4.093   5.476   3.195 -0.2199  0.1030 -0.0981
  339MOL0     C44661   4.253   6.717   3.351  0.0690 -1.1289 -0.2311
  339MOL0     C44662   4.330   6.805   3.436  0.2602  0.0861  0.8057
  339MOL0     O44663   4.301   6.858   3.831  0.7340  0.9064  0.1257
  339MOL0     C44664   4.505   7.146   3.732  0.5158 -0.7112 -0.9684
  339MOL0     C44665   4.581   7.248   3.795 -0.3282  0.2117 -0.7452
  339MOL0     N44666   4.889   7.837   4.202  1.0604 -0.2205 -0.6312
  339MOL0     N44667   4.851   7.957   4.210  0.6157  0.4361  0.0777
  339MOL0     C44668   5.066   9.008   4.017  0.7358  0.0482 -0.2084
  339MOL0     C44669   5.099   9.145   4.016 -0.0756  0.1534  0.0015
  339MOL0     C44670   5.367   9.516   4.003  0.5267 -0.1694 -0.1634
  339MOL0     C44671   5.416   9.601   3.901  0.2790 -1.2144  0.3410
  339MOL0     C44672   5.459   9.730   3.933 -0.0227 -0.4663 -0.3477
  339MOL0     C44673   5.434   9.791   4.060  0.3262  0.0867  0.4607
  339MOL0     O44674   5.467   9.915   4.101 -0.3615  0.0476 -0.0862
  339MOL0     C44675   5.510  10.014   4.006 -0.1037  0.5521 -0.2779
  339MOL0     C44676   5.478  10.153   4.058  1.0688  0.4377 -0.4155
  339MOL0     C44677   5.335  10.171   4.117  0.0008 -0.3792  0.2215
  339MOL0     C44678   5.310  10.275   4.224 -0.0327 -1.0946 -0.8237
  339MOL0     C44679   5.169  10.316   4.213 -0.0936  1.0739  0.3227
  339MOL0     C44680   5.049  10.348   4.195  0.1746  0.7089  0.8317
  339MOL0     C44681   5.377   9.713   4.153 -0.3724  1.1580 -1.2453
  339MOL0     C44682   5.352   9.574   4.133 -0.6484 -0.4732 -0.1882
  339MOL0     H44683   5.423   9.103   4.131  1.7673  1.8613 -2.3797
  339MOL0     H44684   5.361   8.869   4.109  1.4837  0.7582  0.0276
  339MOL0     H44685   4.919   8.728   4.075 -1.1193 -0.6818  1.4335
  339MOL0     H44686   4.977   8.841   4.206  0.8390  1.1727 -0.5822
  339MOL0     H44687   5.041   8.668   4.331 -0.9159  0.0033  1.4950
  339MOL0     H44688   5.080   8.574   4.172 -1.5743  1.5137 -2.4172
  339MOL0     H44689   4.868   8.499   4.169  1.5501 -0.4480 -0.8673
  339MOL0     H44690   4.802   8.631   4.273  0.4289  0.0775  1.1957
  339MOL0     H44691   4.977   8.388   4.372  0.5124 -0.3175  2.7156
  339MOL0     H44692   4.898   8.522   4.463 -1.6464  3.0007 -1.7356
  339MOL0     H44693   4.679   8.441   4.416 -0.2057  0.9816  0.1200
  339MOL0     H44694   4.778   8.308   4.470  0.0422 -3.3129 -2.2987
  339MOL0     H44695   4.844   8.252   4.240 -1.7855 -2.0836 -4.3414
  339MOL0     H44696   4.709   8.340   4.172  2.6470  2.5718  0.0787
  339MOL0     H44697   4.722   8.120   4.385 -1.9379 -0.2904  0.4494
  339MOL0     H44698   4.568   8.193   4.356  0.9100 -1.3624  2.0386
  339MOL0     H44699   4.617   8.136   4.086  0.9471  2.2321  1.0001
  339MOL0     H44700   4.530   8.037   4.190  0.0072  0.3980 -0.0674
  339MOL0     H44701   4.583   7.811   4.093  0.2681 -0.8542  0.1787
  339MOL0     H44702   4.873   7.559   4.133  1.1294  2.3647 -2.3970
  339MOL0     H44703   4.752   7.583   4.022  0.5914 -2.4894 -0.3297
  339MOL0     H44704   4.577   7.550   4.201 -0.3566 -0.3946  1.8523
  339MOL0     H44705   4.697   7.578   4.318  2.3467 -0.0898 -0.0693
  339MOL0     H44706   4.779   7.366   4.302 -1.5662 -0.4340  1.3919
  339MOL0     H44707   4.617   7.327   4.235  1.3059  0.6477  3.4076
  339MOL0     H44708   4.799   7.220   4.122  0.8847  0.4791 -0.1508
  339MOL0     H44709   4.873   7.365   4.093 -0.4603  1.0480  0.7284
  339MOL0     H44710   4.600   7.122   4.102 -1.1143  3.5922 -0.2699
  339MOL0     H44711   4.448   6.953   4.007  2.5462 -0.6159  0.8360
  339MOL0     H44712   4.094   6.880   3.668  1.4778  3.3892 -1.3322
  339MOL0     H44713   3.963   6.722   3.520 -2.3981  1.3089 -5.0879
  339MOL0     H44714   4.192   6.451   3.327 -1.0809 -1.8134  0.9861
  339MOL0     H44715   4.138   6.489   3.173  1.2857  4.8621 -0.2037
  339MOL0     H44716   3.919   6.358   3.220 -0.6522 -2.3088  1.1933
  339MOL0     H44717   3.963   6.349   3.391 -1.8838 -3.3305  0.4473
  339MOL0     H44718   4.178   6.220   3.312 -0.9388 -0.8917  0.4612
  339MOL0     H44719   4.117   6.220   3.151 -0.6348  0.9559 -0.9052
  339MOL0     H44720   3.981   6.094   3.381  0.4276  2.5164  0.0997
  339MOL0     H44721   3.909   6.115   3.217  0.5165  0.6562  0.1521
  339MOL0     H44722   4.181   5.970   3.232  0.6196 -3.0673 -0.0571
  339MOL0     H44723   4.051   5.919   3.130  1.7407 -0.2375 -0.0677
  339MOL0     H44724   3.946   5.831   3.358  0.1784  2.7285  0.9845
  339MOL0     H44725   4.093   5.893   3.432  0.5191 -0.2032  0.3770
  339MOL0     H44726   4.233   5.738   3.337 -1.0953  1.5484 -1.5591
  339MOL0     H44727   4.082   5.652   3.394 -2.6665 -0.2754 -0.3278
  339MOL0     H44728   4.181   5.678   3.110 -0.3829  2.3635 -0.4962
  339MOL0     H44729   4.005   5.693   3.140  1.4601  3.3354 -0.8754
  339MOL0     H44730   4.314   6.668   3.276 -4.0553 -1.3221 -3.8772
  339MOL0     H44731   4.429   6.847   3.421  0.0651  1.0768  2.1040
  339MOL0     H44732   4.490   7.176   3.629  0.5256  0.0311 -0.7571
  339MOL0     H44733   4.625   7.323   3.730  0.8762  1.7547  1.6963
  339MOL0     H44734   4.963   8.984   3.994 -0.2302  3.5070 -0.0804
  339MOL0     H44735   5.025   9.222   3.994 -1.0278 -1.2816 -2.0924
  339MOL0     H44736   5.415   9.562   3.799  0.7987  0.1997 -0.2402
  339MOL0     H44737   5.503   9.791   3.855 -2.7984  1.4553 -0.5395
  339MOL0     H44738   5.449   9.999   3.916  0.9075  2.1498 -1.2711
  339MOL0     H44739   5.614  10.004   3.975  0.1378 -2.3218  1.1170
  339MOL0     H44740   5.543  10.182   4.141  0.5839  0.8811 -0.1868
  339MOL0     H44741   5.499  10.225   3.978  0.0865  2.0880  0.7820
  339MOL0     H44742   5.293  10.083   4.167 -0.6649 -0.3881 -0.3415
  339MOL0     H44743   5.277  10.197   4.028  0.2920 -0.9805 -0.1510
  339MOL0     H44744   5.326  10.231   4.323  1.5865  0.6513 -0.2224
  339MOL0     H44745   5.369  10.367   4.211  0.3605 -1.6703 -3.7572
  339MOL0     H44746   4.950  10.378   4.165 -0.1064 -0.2632  0.7457
  339MOL0     H44747   5.366   9.747   4.255  3.9678  1.4600 -0.6787
  339MOL0     H44748   5.307   9.518   4.214 -1.5050  0.1813 -0.1931
  340MOL0     O44749   3.264  10.852   1.919 -0.2666 -0.3106  0.2812
  340MOL0     C44750   3.317  10.758   1.857 -0.2635 -0.4850 -0.6009
  340MOL0     O44751   3.348  10.764   1.730 -0.7660  1.5069 -0.1320
  340MOL0     C44752   3.321  10.869   1.655  0.1131 -0.3382 -0.4319
  340MOL0     C44753   3.298  10.840   1.516 -0.7856 -0.0505  0.2018
  340MOL0     C44754   3.270  10.938   1.431  0.7848  0.1360  0.5606
  340MOL0     C44755   3.255  11.070   1.465  0.5633 -0.1465 -0.5535
  340MOL0     O44756   3.223  11.173   1.388  0.0143  0.0465  0.0806
  340MOL0     C44757   3.137  11.170   1.278  0.0798  0.6605  0.2759
  340MOL0     C44758   2.995  11.122   1.301 -0.9441  0.4867 -0.1737
  340MOL0     C44759   2.920  11.228   1.361 -0.0571  0.3828 -0.9401
  340MOL0     C44760   2.980  11.290   1.492 -0.0362 -0.2507  0.7108
  340MOL0     C44761   2.855  11.331   1.588 -0.7546  0.3780  0.2684
  340MOL0     C44762   2.897  11.362   1.731 -0.1372  0.7048 -0.6703
  340MOL0     C44763   2.982  11.477   1.737  0.2230  0.5752 -0.0160
  340MOL0     C44764   2.916  11.613   1.700 -0.3492  0.0813 -0.2115
  340MOL0     N44765   2.810  11.639   1.794 -0.2721  0.2643 -0.4368
  340MOL0     C44766   2.835  11.672   1.928  0.0213 -0.5503  0.6187
  340MOL0     C44767   2.723  11.720   1.991  0.0837  0.2165  0.1289
  340MOL0     C44768   2.690  11.759   2.135  0.0994 -0.2304  0.1608
  340MOL0     C44769   2.740  11.664   2.238  0.2415  0.4268 -0.7650
  340MOL0     C44770   2.740  11.738   2.370 -0.5320  0.1672 -0.5941
  340MOL0     C44771   2.763  11.649   2.498  0.9121 -0.8563  0.4467
  340MOL0     O44772   2.819  11.525   2.450 -0.4847  0.0978 -0.5240
  340MOL0     C44773   2.899  11.449   2.541  0.5459  0.0602  0.1880
  340MOL0     C44774   2.988  11.348   2.500  0.4825  1.0408  0.5859
  340MOL0     C44775   3.073  11.273   2.587 -0.2075  0.2068 -0.7868
  340MOL0     C44776   3.073  11.297   2.727  0.2230  0.3396 -0.5859
  340MOL0     C44777   3.156  11.208   2.816  0.1294 -1.2136  0.2036
  340MOL0     O44778   3.133  11.240   2.943 -0.5431  0.7106 -0.1350
  340MOL0     C44779   3.207  11.177   3.032 -0.1062  0.3141 -0.1964
  340MOL0     C44780   3.207  11.032   3.031 -0.5226 -0.9389 -0.1151
  340MOL0     C44781   3.288  10.969   3.127 -0.4638  0.0796  0.2689
  340MOL0     C44782   3.380  11.037   3.216  0.9127 -0.4694  0.3641
  340MOL0     O44783   3.462  10.964   3.302 -0.0873 -0.3949  0.2956
  340MOL0     C44784   3.603  10.995   3.319  1.2642  0.2537 -0.4084
  340MOL0     C44785   3.696  10.943   3.203  0.5008  0.2218  0.5588
  340MOL0     C44786   3.844  10.936   3.265  1.0364 -1.1830  0.3460
  340MOL0     C44787   3.903  11.086   3.271 -0.7916  0.1158 -0.6046
  340MOL0     C44788   4.007  11.114   3.375 -0.0288 -0.0126 -0.2484
  340MOL0     C44789   4.035  11.260   3.396  0.3710 -0.4283  0.1809
  340MOL0     C44790   4.124  11.275   3.522  0.5220 -0.3081 -0.2369
  340MOL0     C44791   4.167  11.421   3.571 -0.8302  0.5155  0.6233
  340MOL0    Cl44792   4.036  11.521   3.567 -0.0242  0.5150 -0.2288
  340MOL0     C44793   3.379  11.180   3.213 -0.5245  0.3378  0.9569
  340MOL0     C44794   3.292  11.250   3.121 -0.2419  0.1682  0.7377
  340MOL0     O44795   3.241  11.135   2.767  0.1226 -0.4584  0.1091
  340MOL0     C44796   2.993  11.407   2.772 -0.4176  0.5935  0.2560
  340MOL0     C44797   2.903  11.471   2.680 -0.4678  0.1781  0.5046
  340MOL0     N44798   2.636  11.724   1.883  0.4168  0.6831  0.0961
  340MOL0     N44799   2.681  11.679   1.766  0.0698  0.1739 -0.5897
  340MOL0     C44800   3.274  11.104   1.598  0.2526  1.1211  1.0051
  340MOL0     C44801   3.321  11.006   1.695  0.2120  0.3791  0.0140
  340MOL0     C44802   3.361  10.642   1.935 -0.4844  0.2491  0.4070
  340MOL0     C44803   3.308  10.615   2.064  0.5308  0.4143 -0.6187
  340MOL0     C44804   3.349  10.498   2.128  1.3538  0.0176 -0.0644
  340MOL0     C44805   3.439  10.406   2.065  0.5903  0.0212 -0.5493
  340MOL0     O44806   3.474  10.293   2.137 -0.8691  0.0700 -0.2580
  340MOL0     C44807   3.575  10.213   2.081 -0.6517  0.4436 -0.2696
  340MOL0     C44808   3.579  10.084   2.165  0.7093 -0.6048 -0.6859
  340MOL0     C44809   3.451  10.005   2.155 -0.2437  0.8566  0.2447
  340MOL0     C44810   3.479   9.854   2.200 -0.5162 -0.3191  0.4582
  340MOL0     C44811   3.506   9.844   2.343 -0.4943  1.0307 -0.3863
  340MOL0     C44812   3.518   9.840   2.471  0.4026 -0.9605 -0.0866
  340MOL0     C44813   3.506  10.442   1.940  0.3394  0.4730 -0.1431
  340MOL0     C44814   3.460  10.557   1.880  0.5306  0.6205  0.2680
  340MOL0     H44815   3.312  10.743   1.467  0.3713  0.5646 -0.7322
  340MOL0     H44816   3.268  10.898   1.330  0.7021  3.1566 -0.7227
  340MOL0     H44817   3.169  11.115   1.189 -3.9215 -0.1737 -0.8624
  340MOL0     H44818   3.136  11.269   1.231 -0.0779 -0.4232 -2.1532
  340MOL0     H44819   2.991  11.036   1.369 -0.7062  0.4746 -0.1746
  340MOL0     H44820   2.958  11.087   1.205  0.7331 -0.3636 -0.5553
  340MOL0     H44821   2.814  11.206   1.379  0.3941 -1.7348 -0.5931
  340MOL0     H44822   2.921  11.307   1.286  0.8082  0.6791 -0.6250
  340MOL0     H44823   3.036  11.213   1.547  0.1911 -1.3385 -0.9496
  340MOL0     H44824   3.044  11.374   1.465  3.2124 -2.1183  1.9740
  340MOL0     H44825   2.774  11.258   1.593 -0.7268  0.2181 -1.0449
  340MOL0     H44826   2.814  11.420   1.537  1.6987  2.0599  1.0531
  340MOL0     H44827   2.953  11.274   1.763 -1.5520  0.3202  0.8060
  340MOL0     H44828   2.807  11.383   1.788  0.0356  0.5584 -0.3425
  340MOL0     H44829   3.008  11.477   1.844  0.4521  2.0184 -0.0413
  340MOL0     H44830   3.072  11.462   1.677  0.9177 -0.4962  1.2276
  340MOL0     H44831   2.880  11.614   1.597 -1.9474  3.3589  0.2403
  340MOL0     H44832   2.989  11.693   1.716  1.4922 -1.8192  1.4950
  340MOL0     H44833   2.931  11.652   1.973 -0.1400  0.3478  1.3954
  340MOL0     H44834   2.581  11.764   2.141 -0.3347 -4.2113 -1.6290
  340MOL0     H44835   2.732  11.860   2.148 -0.1454 -0.1095  0.0163
  340MOL0     H44836   2.842  11.636   2.210  0.7146  0.2341  1.0030
  340MOL0     H44837   2.681  11.571   2.240 -1.3756  1.4232 -0.5387
  340MOL0     H44838   2.808  11.824   2.369 -1.7716  1.3077  1.9359
  340MOL0     H44839   2.640  11.782   2.372 -0.6782  0.0704 -2.9367
  340MOL0     H44840   2.664  11.636   2.542  0.2343  1.6715 -0.2025
  340MOL0     H44841   2.830  11.709   2.561  1.8631  1.0106 -2.1613
  340MOL0     H44842   2.994  11.322   2.395  1.6901  1.6805  0.4776
  340MOL0     H44843   3.141  11.192   2.562 -0.0765 -0.4974  1.5663
  340MOL0     H44844   3.138  10.991   2.958  0.5097 -0.2603 -1.5283
  340MOL0     H44845   3.294  10.861   3.118  0.0759  0.1966 -1.0909
  340MOL0     H44846   3.637  10.940   3.407 -0.4407 -0.5099 -0.1929
  340MOL0     H44847   3.620  11.102   3.338 -0.7749  0.5101  0.3075
  340MOL0     H44848   3.697  10.994   3.106 -1.1398 -0.6668  0.0394
  340MOL0     H44849   3.666  10.839   3.192 -2.9216  1.1051  0.3092
  340MOL0     H44850   3.904  10.878   3.194 -0.7195 -1.6182 -0.8654
  340MOL0     H44851   3.844  10.891   3.364 -2.5631  1.3680  1.7438
  340MOL0     H44852   3.958  11.103   3.177  1.8701  1.7750  1.1073
  340MOL0     H44853   3.819  11.155   3.276 -0.0573  1.0754 -0.9989
  340MOL0     H44854   4.099  11.058   3.356  0.0317 -0.4689  1.2159
  340MOL0     H44855   3.959  11.076   3.466  0.2511 -0.9538 -0.4829
  340MOL0     H44856   3.942  11.314   3.413  1.1510  1.2287 -0.6580
  340MOL0     H44857   4.083  11.294   3.304  2.7394 -2.5679  0.5115
  340MOL0     H44858   4.062  11.239   3.605  2.5244  1.5190  2.1993
  340MOL0     H44859   4.222  11.229   3.509  2.9902  3.6974  1.9907
  340MOL0     H44860   4.241  11.476   3.512  0.3072 -1.5465  0.0237
  340MOL0     H44861   4.210  11.405   3.670 -2.1982  1.1512  1.3543
  340MOL0     H44862   3.460  11.239   3.254  1.2952 -0.8831 -0.7018
  340MOL0     H44863   3.287  11.358   3.123  0.6520  0.2119  0.9902
  340MOL0     H44864   2.990  11.443   2.875  3.4878 -2.6190  1.7708
  340MOL0     H44865   2.838  11.545   2.724 -0.5180 -1.0039  2.5291
  340MOL0     H44866   3.261  11.205   1.636  0.8576  1.6856 -0.2534
  340MOL0     H44867   3.344  11.036   1.797 -4.2903  0.8609  1.0851
  340MOL0     H44868   3.238  10.681   2.114  0.1275  0.5890 -1.4094
  340MOL0     H44869   3.305  10.475   2.225  0.2335 -1.2072 -0.8331
  340MOL0     H44870   3.670  10.267   2.077 -0.3159 -0.1900 -3.1876
  340MOL0     H44871   3.552  10.182   1.979 -2.9465  1.0853  0.0054
  340MOL0     H44872   3.656  10.017   2.127 -0.2663 -2.2677  0.1339
  340MOL0     H44873   3.597  10.107   2.270 -1.1704 -1.1008 -0.2114
  340MOL0     H44874   3.424  10.012   2.050  0.5530  5.4792  0.1641
  340MOL0     H44875   3.380  10.049   2.226  1.1592  4.2727 -0.2971
  340MOL0     H44876   3.385   9.798   2.188 -1.0983  0.3208  1.8301
  340MOL0     H44877   3.553   9.803   2.137  2.2105  3.2147  0.4650
  340MOL0     H44878   3.521   9.858   2.576 -0.7146  1.8483 -0.4401
  340MOL0     H44879   3.570  10.373   1.886 -0.4196 -0.9854  0.7378
  340MOL0     H44880   3.501  10.587   1.784  0.4722  2.0817  0.6771
  341MOL0     O44881   7.730   6.843   4.734 -0.3744  0.4218 -0.2352
  341MOL0     C44882   7.682   6.912   4.650 -0.1203 -0.5502 -0.3929
  341MOL0     O44883   7.551   6.928   4.627 -0.3455  1.3109 -0.2459
  341MOL0     C44884   7.460   6.888   4.720 -0.0861 -0.1476  0.9200
  341MOL0     C44885   7.398   6.978   4.806 -0.2766  0.6133 -0.2745
  341MOL0     C44886   7.306   6.937   4.905 -0.4133  1.2354  0.1175
  341MOL0     C44887   7.284   6.796   4.921 -0.5446 -0.1927 -0.2850
  341MOL0     O44888   7.213   6.756   5.028  0.1755  0.9005 -0.0293
  341MOL0     C44889   7.268   6.659   5.118 -0.2235 -0.3242  0.7644
  341MOL0     C44890   7.404   6.697   5.179 -0.1226  0.3817  0.1049
  341MOL0     C44891   7.411   6.659   5.324 -0.8668  0.6552 -0.2080
  341MOL0     C44892   7.483   6.530   5.354  0.0264  0.5052 -0.0502
  341MOL0     C44893   7.399   6.442   5.452  0.2111  0.6205 -0.7479
  341MOL0     C44894   7.469   6.317   5.503  0.1985 -0.9840  0.3466
  341MOL0     C44895   7.374   6.206   5.557  0.5862  0.3457 -0.8318
  341MOL0     C44896   7.237   6.249   5.625 -0.1713  0.4091  0.1399
  341MOL0     N44897   7.191   6.156   5.731  0.3921  0.0211 -0.1428
  341MOL0     C44898   7.188   6.021   5.710 -0.0618  1.2563  1.5126
  341MOL0     C44899   7.195   5.975   5.838 -0.6583  0.9066  0.3060
  341MOL0     C44900   7.221   5.828   5.885  0.6718  0.2251 -0.1970
  341MOL0     C44901   7.363   5.796   5.849  0.0871  0.7603 -0.6125
  341MOL0     C44902   7.462   5.871   5.937 -0.0906  0.2905 -0.0564
  341MOL0     C44903   7.604   5.813   5.920  0.0431  0.0420  0.4026
  341MOL0     O44904   7.621   5.682   5.986 -0.0017  0.2702  1.6229
  341MOL0     C44905   7.654   5.679   6.118  0.0802  1.1454 -0.4035
  341MOL0     C44906   7.653   5.547   6.168 -0.0542 -0.6197  0.0871
  341MOL0     C44907   7.691   5.524   6.300 -0.2560  0.2071  0.2090
  341MOL0     C44908   7.712   5.641   6.381  0.2484  0.3143 -0.1184
  341MOL0     C44909   7.751   5.624   6.526  0.3444  0.5250 -0.0303
  341MOL0     O44910   7.797   5.501   6.562 -0.5015 -0.2231 -0.3112
  341MOL0     C44911   7.837   5.489   6.691 -0.7160  0.6251  0.4332
  341MOL0     C44912   7.962   5.514   6.732 -0.2389  0.7596  0.0861
  341MOL0     C44913   7.993   5.501   6.870 -0.8107  1.0442  0.1010
  341MOL0     C44914   7.907   5.457   6.965 -0.5228  0.4022  0.4364
  341MOL0     O44915   7.955   5.444   7.090  0.3772 -0.1658 -0.5003
  341MOL0     C44916   7.908   5.330   7.165 -0.9833  1.0597  0.4903
  341MOL0     C44917   8.015   5.222   7.144  0.5254 -0.6427  0.4825
  341MOL0     C44918   8.028   5.120   7.258 -0.3752 -0.1295  0.7231
  341MOL0     C44919   8.157   5.053   7.269 -0.9376  0.3325  0.8465
  341MOL0     C44920   8.179   4.972   7.394 -0.6021  0.1468 -0.0057
  341MOL0     C44921   8.308   4.894   7.409 -0.6370  0.8477  0.8076
  341MOL0     C44922   8.299   4.772   7.495  0.1112 -0.2663 -0.4109
  341MOL0     C44923   8.300   4.781   7.649  0.3585  0.0882  0.4561
  341MOL0    Cl44924   8.157   4.860   7.713  0.0567 -0.2168  0.1612
  341MOL0     C44925   7.779   5.418   6.922  0.7083  0.4204 -1.0872
  341MOL0     C44926   7.743   5.429   6.784  0.4585  0.7935  0.6338
  341MOL0     O44927   7.731   5.714   6.605  0.1096  0.0442  0.4157
  341MOL0     C44928   7.718   5.774   6.330  0.1984  1.0681 -1.0923
  341MOL0     C44929   7.696   5.790   6.194 -0.4541  0.9814 -0.6134
  341MOL0     N44930   7.181   6.082   5.924 -0.4522 -0.2653  0.0713
  341MOL0     N44931   7.189   6.197   5.859 -0.2219  0.0288 -0.2763
  341MOL0     C44932   7.356   6.704   4.841 -0.6289  0.4820  1.8726
  341MOL0     C44933   7.439   6.749   4.730 -0.1754 -0.3890 -1.2203
  341MOL0     C44934   7.773   6.979   4.556  1.2441 -1.0976 -0.2084
  341MOL0     C44935   7.899   7.021   4.590  0.3411 -0.5090 -0.0661
  341MOL0     C44936   7.980   7.092   4.500 -0.2397  0.1382  0.4498
  341MOL0     C44937   7.932   7.127   4.376  0.8380  0.0651 -0.2548
  341MOL0     O44938   8.009   7.182   4.278 -0.2153  0.5048  0.0872
  341MOL0     C44939   8.081   7.082   4.212 -0.6639 -0.4876  0.2267
  341MOL0     C44940   8.134   7.142   4.082 -0.4159  0.5434 -0.2775
  341MOL0     C44941   8.215   7.039   3.998  0.5127 -0.1006  0.6661
  341MOL0     C44942   8.361   7.024   4.042 -0.9103  0.9060  0.6040
  341MOL0     C44943   8.437   7.135   3.996  0.0542 -0.1191  0.2011
  341MOL0     C44944   8.490   7.240   3.966  0.6297 -0.6380  0.3128
  341MOL0     C44945   7.797   7.090   4.336 -0.1485 -0.3023 -0.7409
  341MOL0     C44946   7.725   7.008   4.425 -0.4708  0.3628  0.1571
  341MOL0     H44947   7.418   7.084   4.818 -0.2150  0.8193 -1.9322
  341MOL0     H44948   7.262   6.998   4.983 -0.5860 -1.4430  2.2756
  341MOL0     H44949   7.285   6.561   5.074  1.7054 -0.9111  2.6153
  341MOL0     H44950   7.191   6.651   5.195 -1.6636  1.2886 -0.4365
  341MOL0     H44951   7.422   6.805   5.177  0.2413  0.4607  3.2125
  341MOL0     H44952   7.490   6.651   5.129 -0.5803 -0.0017 -0.3446
  341MOL0     H44953   7.315   6.656   5.376  0.5218 -0.1882  2.4884
  341MOL0     H44954   7.466   6.739   5.374 -0.4757 -0.5999  1.4325
  341MOL0     H44955   7.512   6.472   5.266  5.3082 -1.2267  2.3875
  341MOL0     H44956   7.581   6.550   5.401  0.8300 -0.1392 -1.3986
  341MOL0     H44957   7.304   6.400   5.418 -0.7574 -1.3652  3.7528
  341MOL0     H44958   7.371   6.507   5.534  1.6637  0.1144  0.1967
  341MOL0     H44959   7.541   6.345   5.580  0.5287 -0.1706 -0.2441
  341MOL0     H44960   7.512   6.273   5.412  0.6131 -0.0737  0.0896
  341MOL0     H44961   7.348   6.141   5.472 -0.0053  2.2710 -2.2023
  341MOL0     H44962   7.429   6.155   5.636 -1.2379  2.0734  1.6851
  341MOL0     H44963   7.156   6.241   5.552 -0.3393  0.3333  0.3349
  341MOL0     H44964   7.242   6.352   5.663  1.9143  0.1493  0.6973
  341MOL0     H44965   7.191   5.980   5.610  2.4508  4.9346 -0.1360
  341MOL0     H44966   7.138   5.775   5.838 -2.1348  1.5568  2.8200
  341MOL0     H44967   7.200   5.823   5.993  0.1168  3.5812 -0.0482
  341MOL0     H44968   7.372   5.822   5.743 -3.3503 -0.4925 -1.3700
  341MOL0     H44969   7.376   5.689   5.865 -0.7305  1.0744  2.9244
  341MOL0     H44970   7.460   5.976   5.908  0.8764  0.5140  0.6281
  341MOL0     H44971   7.445   5.867   6.045  2.6657  1.2027  0.4860
  341MOL0     H44972   7.675   5.885   5.961  1.7354 -1.6534  0.5800
  341MOL0     H44973   7.628   5.793   5.815  1.0687  1.1561  0.3935
  341MOL0     H44974   7.625   5.459   6.112  0.8259  0.8550 -2.8278
  341MOL0     H44975   7.703   5.418   6.317 -2.4536 -0.0994  0.0315
  341MOL0     H44976   8.025   5.562   6.659 -0.7111 -0.8373 -1.4304
  341MOL0     H44977   8.098   5.526   6.884 -0.3743 -0.8625  0.5253
  341MOL0     H44978   7.805   5.298   7.145 -0.1775 -1.1416 -0.4117
  341MOL0     H44979   7.926   5.349   7.272  2.3332  1.6808 -0.0817
  341MOL0     H44980   8.113   5.273   7.145  0.5340 -0.6538  0.3337
  341MOL0     H44981   8.011   5.176   7.045 -1.1290  1.3240 -0.4377
  341MOL0     H44982   7.943   5.054   7.241 -0.4077  0.3529 -1.2540
  341MOL0     H44983   8.006   5.168   7.354 -4.2186  0.3644 -0.2132
  341MOL0     H44984   8.158   4.987   7.182 -0.2697 -0.7916  1.6816
  341MOL0     H44985   8.240   5.121   7.246 -0.7766 -0.7531 -2.2670
  341MOL0     H44986   8.093   4.904   7.394 -0.5240  0.0034 -1.8789
  341MOL0     H44987   8.167   5.038   7.480  2.2088  0.7945 -0.0090
  341MOL0     H44988   8.390   4.962   7.434 -2.0940  3.4798 -1.0131
  341MOL0     H44989   8.334   4.855   7.310 -0.1971  1.1606  0.7963
  341MOL0     H44990   8.219   4.701   7.469  0.5919 -1.2984  0.8188
  341MOL0     H44991   8.380   4.706   7.463 -0.5881 -1.6954  0.6222
  341MOL0     H44992   8.391   4.832   7.682  1.7611 -2.6441  1.1334
  341MOL0     H44993   8.303   4.677   7.681 -1.2750 -0.1123  0.0519
  341MOL0     H44994   7.702   5.396   6.995  0.1023  1.7429 -1.3020
  341MOL0     H44995   7.647   5.399   6.744  0.4594  1.6245 -0.0077
  341MOL0     H44996   7.746   5.853   6.398 -2.0895 -1.9293  3.9126
  341MOL0     H44997   7.702   5.895   6.168 -2.4059  1.4931  0.7412
  341MOL0     H44998   7.342   6.597   4.851  0.7095  0.0880  0.0782
  341MOL0     H44999   7.494   6.682   4.664  0.0568  0.6731 -2.1412
  341MOL0     H45000   7.937   7.000   4.689 -1.7484 -1.2253  0.6517
  341MOL0     H45001   8.085   7.096   4.526 -0.3689 -0.0010  0.9971
  341MOL0     H45002   8.010   7.005   4.179 -1.9372  0.9133 -0.4356
  341MOL0     H45003   8.164   7.050   4.275  0.8513  1.0282 -0.9255
  341MOL0     H45004   8.053   7.169   4.013  0.1532  0.2585 -1.0798
  341MOL0     H45005   8.186   7.238   4.087  0.8267 -0.1350  0.1953
  341MOL0     H45006   8.216   7.059   3.891  0.6502 -2.0505  0.2737
  341MOL0     H45007   8.154   6.948   3.998  0.7663 -0.6525 -5.1952
  341MOL0     H45008   8.366   7.003   4.150  1.1971 -1.3183  0.1604
  341MOL0     H45009   8.403   6.934   3.996  0.7944  1.6440  0.6529
  341MOL0     H45010   8.528   7.336   3.938 -0.1034 -0.6189 -0.6590
  341MOL0     H45011   7.757   7.112   4.238 -0.0303  1.3624 -0.4469
  341MOL0     H45012   7.628   6.968   4.395 -0.2203 -0.3332  0.2525
  342MOL0     O45013   8.261  10.450   5.676 -0.9961 -0.7357  0.1089
  342MOL0     C45014   8.235  10.559   5.722 -0.7256  0.9541 -0.0530
  342MOL0     O45015   8.212  10.662   5.643 -0.6827 -0.0054 -0.3562
  342MOL0     C45016   8.255  10.666   5.511  1.6989 -0.9743 -0.0527
  342MOL0     C45017   8.380  10.627   5.464 -0.9260  0.6506  0.2022
  342MOL0     C45018   8.401  10.639   5.322 -0.3338 -0.3620  0.3043
  342MOL0     C45019   8.302  10.700   5.237  0.4576 -0.3673 -0.1751
  342MOL0     O45020   8.322  10.724   5.103  0.4067  0.0857 -0.3012
  342MOL0     C45021   8.453  10.715   5.052  0.5148 -0.3131 -0.2942
  342MOL0     C45022   8.453  10.738   4.897  0.0106  1.2037  0.8684
  342MOL0     C45023   8.354  10.648   4.813 -0.6258 -0.2086 -0.0045
  342MOL0     C45024   8.365  10.700   4.666 -0.5183  0.5770 -0.3384
  342MOL0     C45025   8.269  10.641   4.568 -0.0385  0.1220  0.6573
  342MOL0     C45026   8.240  10.744   4.448  0.5565  0.2043 -0.1381
  342MOL0     C45027   8.201  10.685   4.321  0.2637  0.0082  0.5764
  342MOL0     C45028   8.159  10.789   4.222 -0.2244 -1.2704 -0.5393
  342MOL0     N45029   8.139  10.739   4.087 -0.7063  0.0948  0.4773
  342MOL0     C45030   8.103  10.607   4.047 -0.7782  0.4301  0.5107
  342MOL0     C45031   8.118  10.617   3.914  0.0290  1.2552 -0.4133
  342MOL0     C45032   8.095  10.516   3.809  0.3008 -0.0277 -0.0790
  342MOL0     C45033   8.176  10.386   3.852 -0.4474 -0.2954  0.2439
  342MOL0     C45034   8.232  10.292   3.744 -0.8378  0.5512 -0.1259
  342MOL0     C45035   8.132  10.231   3.648  0.2668 -0.6559 -0.2306
  342MOL0     O45036   8.170  10.141   3.546 -0.8264 -0.4180 -0.0408
  342MOL0     C45037   8.083  10.090   3.453  0.7839 -0.8407  0.3516
  342MOL0     C45038   8.120   9.993   3.366  0.4505 -0.0763  0.1169
  342MOL0     C45039   8.013   9.931   3.296  0.3244 -0.3258  1.1966
  342MOL0     C45040   7.878   9.980   3.286 -0.6490  0.1100 -0.5252
  342MOL0     C45041   7.774   9.925   3.194 -0.4733  0.1496 -0.8078
  342MOL0     O45042   7.799   9.811   3.123  0.6413 -0.5549 -0.4646
  342MOL0     C45043   7.702   9.782   3.026 -0.1975  0.3674 -0.6930
  342MOL0     C45044   7.728   9.790   2.889 -0.8143  0.8425 -1.2254
  342MOL0     C45045   7.625   9.772   2.805  0.7858  0.8399 -0.1011
  342MOL0     C45046   7.490   9.738   2.853 -0.6021  1.3054  1.2316
  342MOL0     O45047   7.379   9.726   2.772  0.9806 -0.2588 -0.9502
  342MOL0     C45048   7.403   9.761   2.635 -0.0792 -0.3684 -0.0375
  342MOL0     C45049   7.275   9.751   2.546 -0.4155 -0.5221 -0.3628
  342MOL0     C45050   7.247   9.617   2.485  0.3632  0.0054 -0.0945
  342MOL0     C45051   7.143   9.623   2.385 -0.5826  0.6023 -0.2385
  342MOL0     C45052   7.091   9.487   2.320  0.0665 -0.3157  0.3219
  342MOL0     C45053   7.210   9.403   2.249  0.3318 -0.5676  0.3377
  342MOL0     C45054   7.188   9.385   2.092  0.4531 -0.5960 -0.7376
  342MOL0     C45055   7.268   9.285   2.017  0.3915 -0.1103 -0.4624
  342MOL0    Cl45056   7.444   9.314   2.040  0.1444  0.0537  0.0257
  342MOL0     C45057   7.465   9.716   2.991 -0.1022 -0.4237 -0.2187
  342MOL0     C45058   7.575   9.731   3.078 -0.1817  0.6674 -0.0627
  342MOL0     O45059   7.677   9.996   3.178  0.6781  0.2513 -0.0839
  342MOL0     C45060   7.862  10.106   3.353  0.0136 -0.3372  0.3256
  342MOL0     C45061   7.959  10.160   3.434  0.0621  0.3715  0.7668
  342MOL0     N45062   8.152  10.749   3.880 -0.1142  0.6631  0.5580
  342MOL0     N45063   8.167  10.813   3.978 -0.0357 -0.5982 -0.3625
  342MOL0     C45064   8.178  10.745   5.291 -0.1474 -0.6008 -0.8597
  342MOL0     C45065   8.163  10.728   5.426  0.3274 -0.0603 -1.0305
  342MOL0     C45066   8.218  10.567   5.863 -1.3706  0.2592  0.7939
  342MOL0     C45067   8.193  10.682   5.930 -0.7902 -0.5730  0.0909
  342MOL0     C45068   8.187  10.682   6.071  0.3017  0.2553  1.6618
  342MOL0     C45069   8.205  10.566   6.143  0.0679  0.6229 -0.5233
  342MOL0     O45070   8.211  10.573   6.278  0.4274 -0.4804 -0.0182
  342MOL0     C45071   8.079  10.561   6.336 -0.4531  0.0953  0.5440
  342MOL0     C45072   8.088  10.523   6.481  0.2617  0.3020 -0.7086
  342MOL0     C45073   8.017  10.394   6.512  0.7206  0.1013 -0.5478
  342MOL0     C45074   7.985  10.388   6.669  0.1725 -0.7966 -0.9635
  342MOL0     C45075   7.970  10.255   6.725  0.4283 -0.5791 -0.8042
  342MOL0     C45076   7.982  10.146   6.753  0.0384 -0.5383 -0.6117
  342MOL0     C45077   8.233  10.446   6.076 -0.5625  0.9170  0.8751
  342MOL0     C45078   8.236  10.449   5.940  0.0542 -0.4660 -0.0932
  342MOL0     H45079   8.449  10.580   5.534  0.5989 -0.6019 -2.0350
  342MOL0     H45080   8.487  10.602   5.267  0.1842  0.0268  0.8541
  342MOL0     H45081   8.495  10.615   5.062  1.8604  0.2745  0.1572
  342MOL0     H45082   8.514  10.792   5.100  3.4956 -0.9126 -2.7678
  342MOL0     H45083   8.554  10.704   4.871 -0.9433 -1.8752  0.8884
  342MOL0     H45084   8.449  10.847   4.884  3.4468  1.7040  2.7939
  342MOL0     H45085   8.254  10.658   4.857 -2.1013 -3.4516 -2.2550
  342MOL0     H45086   8.384  10.544   4.824  1.0198  0.1913 -0.4523
  342MOL0     H45087   8.350  10.809   4.670 -0.3971  0.5838 -0.0362
  342MOL0     H45088   8.467  10.682   4.630 -0.4913  2.0623 -1.0718
  342MOL0     H45089   8.173  10.616   4.613 -0.6681  0.8066 -0.2853
  342MOL0     H45090   8.320  10.550   4.534 -0.1544  0.9434 -1.8852
  342MOL0     H45091   8.327  10.808   4.428 -0.4002  1.1876 -1.3142
  342MOL0     H45092   8.162  10.811   4.483 -1.9152 -1.8387 -1.3650
  342MOL0     H45093   8.275  10.618   4.278  1.9859  0.4541  2.7076
  342MOL0     H45094   8.120  10.621   4.356  0.3810  0.1707  1.1504
  342MOL0     H45095   8.230  10.872   4.212 -0.9646 -0.4385  0.8567
  342MOL0     H45096   8.064  10.833   4.252  0.9535  0.8739  0.3006
  342MOL0     H45097   8.086  10.522   4.112  0.8653  0.8798  1.5997
  342MOL0     H45098   8.130  10.552   3.712  0.5649 -0.5975 -0.1988
  342MOL0     H45099   7.991  10.487   3.789 -0.4023  3.0179 -1.4753
  342MOL0     H45100   8.106  10.332   3.916  0.4259  2.3851  3.7951
  342MOL0     H45101   8.269  10.426   3.896 -0.2640  1.4051 -1.5293
  342MOL0     H45102   8.317  10.333   3.689  0.4850 -1.6085  0.1726
  342MOL0     H45103   8.270  10.217   3.814 -0.8711  1.6849  1.1375
  342MOL0     H45104   8.077  10.312   3.598 -0.8315 -2.3712 -1.9488
  342MOL0     H45105   8.054  10.178   3.704  0.7057  1.1204  2.2340
  342MOL0     H45106   8.222   9.955   3.376  1.7693  3.7708  4.3485
  342MOL0     H45107   8.046   9.855   3.226 -0.5425  1.5385 -1.3733
  342MOL0     H45108   7.828   9.819   2.857  0.4767 -2.4344 -0.5183
  342MOL0     H45109   7.652   9.765   2.700 -2.8320 -2.6322 -1.0484
  342MOL0     H45110   7.475   9.691   2.591  0.1317 -0.1540 -0.0355
  342MOL0     H45111   7.447   9.860   2.627 -0.3339 -0.1918  0.6762
  342MOL0     H45112   7.296   9.810   2.456 -0.0124 -2.2985 -1.4776
  342MOL0     H45113   7.186   9.789   2.597  0.9451  1.0090  0.9907
  342MOL0     H45114   7.209   9.549   2.561  0.2163  1.0002  0.7360
  342MOL0     H45115   7.334   9.564   2.444  0.9817  0.1333  1.0213
  342MOL0     H45116   7.054   9.661   2.437 -0.0448  0.4173  0.8348
  342MOL0     H45117   7.186   9.699   2.318  1.5934  4.7573  5.1111
  342MOL0     H45118   7.011   9.509   2.249  0.5869  1.1802  0.1718
  342MOL0     H45119   7.037   9.429   2.396  1.2703  2.5443  3.6495
  342MOL0     H45120   7.206   9.303   2.294 -0.4019 -1.5649 -1.8417
  342MOL0     H45121   7.312   9.433   2.274 -1.1843  3.4652  2.5920
  342MOL0     H45122   7.081   9.373   2.073  0.2120  0.4407 -0.1259
  342MOL0     H45123   7.215   9.484   2.054 -0.5708 -0.4920 -1.2249
  342MOL0     H45124   7.244   9.290   1.910 -1.6285  2.5963  0.0245
  342MOL0     H45125   7.241   9.184   2.051  1.0690 -0.2039 -0.1882
  342MOL0     H45126   7.366   9.694   3.030 -0.2145 -0.0311 -0.2764
  342MOL0     H45127   7.552   9.715   3.183 -2.1260 -1.3553 -0.7064
  342MOL0     H45128   7.775  10.169   3.341  0.5996  0.8864  2.1607
  342MOL0     H45129   7.934  10.258   3.473  0.1428  1.3031 -1.3738
  342MOL0     H45130   8.109  10.788   5.219 -1.8934  0.9490  1.5530
  342MOL0     H45131   8.068  10.771   5.456 -1.2277 -1.0101 -4.1449
  342MOL0     H45132   8.188  10.770   5.866 -1.8499 -3.2349 -3.8262
  342MOL0     H45133   8.176  10.781   6.115 -0.9200  0.8914  0.0419
  342MOL0     H45134   8.029  10.486   6.274  0.1532 -0.4104  0.6588
  342MOL0     H45135   8.022  10.653   6.324 -2.0291 -1.0631 -1.4798
  342MOL0     H45136   8.191  10.506   6.512  0.1950  0.1009 -0.5940
  342MOL0     H45137   8.050  10.611   6.534  2.4236  0.7864  0.1241
  342MOL0     H45138   8.080  10.306   6.495  0.4654 -0.4640  1.1886
  342MOL0     H45139   7.918  10.391   6.467 -0.0737  0.0712  1.1038
  342MOL0     H45140   8.061  10.443   6.724 -1.6642  1.1188 -0.2001
  342MOL0     H45141   7.890  10.442   6.677  0.2209 -0.7583 -0.6252
  342MOL0     H45142   7.993  10.040   6.765  0.6576 -0.3576  0.6342
  342MOL0     H45143   8.256  10.358   6.136 -2.6251 -1.1063 -1.1179
  342MOL0     H45144   8.265  10.357   5.890 -0.2436 -0.1601 -0.8504
  343MOL0     O45145   6.824   3.995  11.335  0.9638  0.4884  0.8996
  343MOL0     C45146   6.789   4.009  11.452 -0.5295 -0.1069 -0.1871
  343MOL0     O45147   6.661   4.008  11.496  0.0208  0.2481 -0.4046
  343MOL0     C45148   6.570   4.016  11.396 -0.6472  0.7461  0.5754
  343MOL0     C45149   6.541   4.127  11.329  0.7814  0.7894 -0.6240
  343MOL0     C45150   6.457   4.122  11.220  0.8098  0.0045 -0.6941
  343MOL0     C45151   6.390   4.009  11.178  0.3969  0.8791  0.2840
  343MOL0     O45152   6.308   4.003  11.060  0.2646 -0.5121 -0.6811
  343MOL0     C45153   6.383   4.039  10.938  0.6899 -0.3715 -0.3821
  343MOL0     C45154   6.379   3.924  10.836  0.2002 -0.5235  0.6477
  343MOL0     C45155   6.488   3.815  10.861 -0.1107 -0.2077 -0.3820
  343MOL0     C45156   6.622   3.851  10.795  0.6517 -0.7453 -0.2543
  343MOL0     C45157   6.701   3.724  10.790  1.0469  0.8101  0.3951
  343MOL0     C45158   6.857   3.738  10.740  0.3117 -0.4873 -0.4709
  343MOL0     C45159   6.928   3.854  10.801 -0.5984 -0.0257  0.0256
  343MOL0     C45160   7.081   3.841  10.781 -0.3843  0.6612  0.7235
  343MOL0     N45161   7.127   3.882  10.651  0.9457 -0.3916  0.3126
  343MOL0     C45162   7.170   4.003  10.615  0.5033  0.3423 -0.6536
  343MOL0     C45163   7.211   3.991  10.489 -0.0925 -0.4886 -0.2246
  343MOL0     C45164   7.262   4.097  10.397 -0.7823 -0.4476 -0.4265
  343MOL0     C45165   7.360   4.196  10.473 -0.2757 -0.2231 -1.2328
  343MOL0     C45166   7.435   4.315  10.408 -0.4432 -0.3449  0.2707
  343MOL0     C45167   7.344   4.422  10.336 -0.4775  0.3676  0.1495
  343MOL0     O45168   7.263   4.376  10.229 -0.4371 -0.3724 -0.1291
  343MOL0     C45169   7.322   4.338  10.108 -0.9994 -0.0758  0.6693
  343MOL0     C45170   7.237   4.310  10.007 -0.0865  1.2032  0.4229
  343MOL0     C45171   7.278   4.272   9.885 -0.6619  0.2840  0.2911
  343MOL0     C45172   7.418   4.268   9.852 -0.3597 -0.2130  0.7543
  343MOL0     C45173   7.466   4.233   9.709  0.1862  0.8156 -0.2454
  343MOL0     O45174   7.594   4.209   9.690 -0.2269  0.2066 -0.3979
  343MOL0     C45175   7.629   4.156   9.573 -0.0033 -0.7545 -0.4674
  343MOL0     C45176   7.725   4.235   9.498 -0.4361  1.1378 -0.2780
  343MOL0     C45177   7.780   4.191   9.379 -0.2206  0.5306  0.2891
  343MOL0     C45178   7.728   4.071   9.319 -1.1176 -1.3352 -0.2182
  343MOL0     O45179   7.766   4.033   9.190  0.4499 -0.2603 -0.0309
  343MOL0     C45180   7.743   3.897   9.144  0.6903  0.0202 -0.5447
  343MOL0     C45181   7.760   3.908   8.991 -0.4774  0.6408 -0.1094
  343MOL0     C45182   7.654   4.003   8.927 -0.4234  0.3347 -0.6986
  343MOL0     C45183   7.641   3.965   8.784  0.4327  0.3496  0.3838
  343MOL0     C45184   7.555   3.838   8.754  0.2162  0.4462 -0.4455
  343MOL0     C45185   7.573   3.784   8.608  0.1311  0.6054 -0.1177
  343MOL0     C45186   7.485   3.662   8.589 -0.8680 -0.3030  0.3432
  343MOL0     C45187   7.524   3.548   8.498  0.0959  0.0215 -0.0124
  343MOL0    Cl45188   7.434   3.406   8.530 -0.5179  0.3831 -0.4306
  343MOL0     C45189   7.647   3.991   9.399  0.9478  1.2220  0.3161
  343MOL0     C45190   7.603   4.034   9.524  0.8436  0.5686  0.0389
  343MOL0     O45191   7.375   4.234   9.623  0.5775  0.7642  0.0545
  343MOL0     C45192   7.509   4.295   9.959 -0.5237  0.1514  1.2105
  343MOL0     C45193   7.458   4.332  10.083 -0.7612 -0.3573  1.1253
  343MOL0     N45194   7.203   3.863  10.448 -0.0610 -0.2863 -0.2586
  343MOL0     N45195   7.146   3.797  10.544 -0.2095  0.6547  0.5103
  343MOL0     C45196   6.423   3.892  11.245  0.9455  0.3037 -0.3395
  343MOL0     C45197   6.512   3.897  11.355  0.0631  0.3779 -0.2632
  343MOL0     C45198   6.893   4.012  11.558 -0.1573 -0.4765  0.2176
  343MOL0     C45199   6.878   4.062  11.688  0.7542  0.6730  0.6596
  343MOL0     C45200   6.989   4.081  11.775  0.5214  0.1553  1.0763
  343MOL0     C45201   7.111   4.031  11.736 -0.1320  0.7086  0.1020
  343MOL0     O45202   7.215   4.026  11.821 -0.3327  0.3069  0.4331
  343MOL0     C45203   7.217   4.069  11.957  0.8138 -0.2672  0.1155
  343MOL0     C45204   7.134   3.964  12.038  0.1184 -0.6534  0.7456
  343MOL0     C45205   7.138   3.990  12.180  0.5297 -0.8379  0.3841
  343MOL0     C45206   7.126   3.863  12.274 -0.2177  0.1744  0.7771
  343MOL0     C45207   7.248   3.785  12.262 -0.5802 -0.8261  0.4805
  343MOL0     C45208   7.350   3.722  12.247  0.3041  0.1730  0.2152
  343MOL0     C45209   7.118   3.966  11.613 -0.7640  0.5820 -0.3002
  343MOL0     C45210   7.020   3.975  11.518 -0.0745 -1.2491 -1.0868
  343MOL0     H45211   6.588   4.220  11.360 -0.6745  1.7270 -1.1674
  343MOL0     H45212   6.440   4.210  11.159 -0.2379  1.2402  1.2642
  343MOL0     H45213   6.487   4.062  10.961  0.9533  0.6842 -2.3776
  343MOL0     H45214   6.339   4.129  10.893 -0.7882 -1.9082 -2.2030
  343MOL0     H45215   6.386   3.956  10.732 -2.2267 -1.6170  0.0676
  343MOL0     H45216   6.283   3.873  10.846  0.0908 -0.1481  1.6478
  343MOL0     H45217   6.457   3.721  10.812 -0.8938 -1.4916  2.3540
  343MOL0     H45218   6.496   3.792  10.968  0.0012  0.7379 -0.1773
  343MOL0     H45219   6.614   3.887  10.692 -0.9533 -0.2732  0.0052
  343MOL0     H45220   6.661   3.934  10.856 -4.3387  3.7003 -2.2791
  343MOL0     H45221   6.661   3.664  10.708  3.8246  0.1089 -0.5513
  343MOL0     H45222   6.703   3.678  10.889  2.3336  0.1897  0.0990
  343MOL0     H45223   6.849   3.762  10.634 -4.0276  0.6784 -0.0865
  343MOL0     H45224   6.911   3.644  10.757 -1.1424 -1.0411  1.3806
  343MOL0     H45225   6.895   3.947  10.754  0.3423  1.1272  1.5461
  343MOL0     H45226   6.898   3.857  10.907 -0.6421  0.6359 -0.0031
  343MOL0     H45227   7.118   3.741  10.804  0.2209  1.1520  1.9986
  343MOL0     H45228   7.128   3.903  10.859  2.3169 -0.4489  0.0977
  343MOL0     H45229   7.158   4.095  10.671  3.7406 -0.4982  1.7103
  343MOL0     H45230   7.186   4.152  10.342 -2.4192 -0.6455  1.5161
  343MOL0     H45231   7.317   4.051  10.314  0.9711  1.0665 -0.1846
  343MOL0     H45232   7.427   4.138  10.538  1.1334  1.2664 -1.2797
  343MOL0     H45233   7.296   4.249  10.544  3.4351  0.9789  1.5836
  343MOL0     H45234   7.498   4.367  10.480  1.8897  3.5251 -4.0379
  343MOL0     H45235   7.515   4.283  10.341 -1.7748 -2.1389 -0.5606
  343MOL0     H45236   7.406   4.501  10.293  0.9363 -0.2764  0.9103
  343MOL0     H45237   7.276   4.451  10.417  0.7936  0.6871  1.1555
  343MOL0     H45238   7.131   4.311  10.027  0.0925 -0.1996  1.5952
  343MOL0     H45239   7.210   4.249   9.803  2.3533 -2.6006 -1.6605
  343MOL0     H45240   7.771   4.320   9.548  1.4943  1.1489 -1.9383
  343MOL0     H45241   7.853   4.246   9.320  0.5195 -1.2033 -0.4796
  343MOL0     H45242   7.638   3.877   9.169  1.0344  0.8238  1.8499
  343MOL0     H45243   7.813   3.828   9.193 -2.7242 -1.9455  2.0245
  343MOL0     H45244   7.759   3.806   8.951  2.2384  0.8879 -0.9884
  343MOL0     H45245   7.859   3.951   8.976  0.8303 -2.6328 -1.6869
  343MOL0     H45246   7.684   4.106   8.946 -1.4228  0.6724 -0.8730
  343MOL0     H45247   7.560   3.995   8.982  1.3354 -0.4132  2.4186
  343MOL0     H45248   7.599   4.040   8.717  1.6016 -1.1350 -2.1642
  343MOL0     H45249   7.738   3.945   8.737 -0.0529  1.3485 -1.1073
  343MOL0     H45250   7.449   3.859   8.765 -0.5521 -2.7333 -0.6589
  343MOL0     H45251   7.579   3.752   8.818 -2.0712 -1.6935 -2.2287
  343MOL0     H45252   7.677   3.759   8.589 -1.1072 -2.2802 -4.8470
  343MOL0     H45253   7.553   3.857   8.529  0.0722  0.7095 -0.0083
  343MOL0     H45254   7.474   3.619   8.689  1.4703 -0.8350  0.4303
  343MOL0     H45255   7.389   3.707   8.563 -0.3139  0.1435 -0.9801
  343MOL0     H45256   7.626   3.511   8.508  0.6339  1.2508 -0.7508
  343MOL0     H45257   7.495   3.574   8.396  1.2102  3.7655  0.4953
  343MOL0     H45258   7.624   3.887   9.374  0.8668  1.4852 -0.7459
  343MOL0     H45259   7.545   3.963   9.582  0.4203  0.1788 -0.8416
  343MOL0     H45260   7.614   4.317   9.939 -1.2308  1.1000 -2.1341
  343MOL0     H45261   7.541   4.348  10.151  3.7747 -2.3959 -3.2760
  343MOL0     H45262   6.376   3.800  11.212  4.4968 -0.9251 -2.4655
  343MOL0     H45263   6.544   3.811  11.414  4.5785  0.2594 -2.5065
  343MOL0     H45264   6.779   4.090  11.724 -1.4222 -3.2107 -1.5610
  343MOL0     H45265   6.982   4.124  11.874  1.9453  1.4545  0.6557
  343MOL0     H45266   7.175   4.169  11.974  1.1139 -0.0795 -0.2303
  343MOL0     H45267   7.316   4.084  12.001  1.3440  1.2764 -1.5165
  343MOL0     H45268   7.034   3.970  11.996  1.0446  2.5955 -1.3445
  343MOL0     H45269   7.178   3.868  12.011 -1.2738 -1.1182  0.0476
  343MOL0     H45270   7.054   4.054  12.208  2.0053  0.4667  2.0756
  343MOL0     H45271   7.226   4.047  12.211 -0.0199 -0.6058  1.6151
  343MOL0     H45272   7.125   3.881  12.382 -0.9294 -3.8159  1.5665
  343MOL0     H45273   7.037   3.806  12.249  1.6097 -4.2118  3.2423
  343MOL0     H45274   7.429   3.651  12.235 -1.0325 -1.3163 -0.0265
  343MOL0     H45275   7.211   3.913  11.594 -1.7476 -1.2925 -0.0600
  343MOL0     H45276   7.038   3.940  11.416  2.2062  0.6885 -1.4517
  344MOL0     O45277   0.391   0.703   6.888  0.3766  0.6569  0.6877
  344MOL0     C45278   0.329   0.703   6.997  0.2878  0.1464  1.0031
  344MOL0     O45279   0.295   0.597   7.074  0.6465  0.6428  0.4974
  344MOL0     C45280   0.378   0.478   7.076  0.1491  0.2686  1.2890
  344MOL0     C45281   0.317   0.374   7.158 -1.1172  0.4861 -0.1297
  344MOL0     C45282   0.375   0.250   7.156 -0.7330  0.5140 -0.1584
  344MOL0     C45283   0.492   0.216   7.081 -0.7194  0.7125 -0.1512
  344MOL0     O45284   0.548   0.090   7.085 -0.6555  0.0897 -0.1409
  344MOL0     C45285   0.458  -0.027   7.050 -0.6377 -0.5679  0.3342
  344MOL0     C45286   0.550  -0.132   6.973  0.0526 -0.2830  0.0751
  344MOL0     C45287   0.630  -0.218   7.068 -1.0220  0.0506 -0.7073
  344MOL0     C45288   0.731  -0.314   6.997 -0.1495  0.5360  0.4270
  344MOL0     C45289   0.767  -0.431   7.092  0.0738 -0.4761 -0.6487
  344MOL0     C45290   0.662  -0.543   7.107  0.2095 -0.4754 -0.0742
  344MOL0     C45291   0.726  -0.677   7.156  0.6734 -0.3960 -0.2906
  344MOL0     C45292   0.817  -0.746   7.047  0.2223 -0.6760 -0.5569
  344MOL0     N45293   0.737  -0.785   6.935 -0.0472  0.1205  1.8307
  344MOL0     C45294   0.621  -0.861   6.942 -0.0526 -0.5518  0.3994
  344MOL0     C45295   0.561  -0.840   6.821 -0.4537  0.9691  0.0913
  344MOL0     C45296   0.435  -0.912   6.788 -0.3296 -0.2559 -0.7114
  344MOL0     C45297   0.302  -0.848   6.831  0.4671 -0.8250 -0.3923
  344MOL0     C45298   0.174  -0.919   6.797  0.3771 -0.1035  0.0285
  344MOL0     C45299   0.168  -1.056   6.863 -0.2236  0.6087  0.0420
  344MOL0     O45300   0.043  -1.126   6.824 -0.9944  0.5638  0.5973
  344MOL0     C45301   0.049  -1.219   6.714 -1.5453  0.2633 -0.6797
  344MOL0     C45302   0.164  -1.237   6.637 -0.1496  0.2111  0.3060
  344MOL0     C45303   0.176  -1.338   6.547 -0.2901  0.9112  0.4313
  344MOL0     C45304   0.069  -1.425   6.515  0.4573  0.1295  0.1839
  344MOL0     C45305   0.087  -1.533   6.405  0.3978  0.5608  0.6922
  344MOL0     O45306   0.213  -1.585   6.394 -0.3833  0.4933 -0.0152
  344MOL0     C45307   0.238  -1.654   6.281  0.0402  0.1696  0.3509
  344MOL0     C45308   0.358  -1.599   6.222  0.5700  0.3151 -0.5153
  344MOL0     C45309   0.422  -1.680   6.117  0.8328 -0.5253  0.3524
  344MOL0     C45310   0.355  -1.792   6.074  0.1104  0.0378  1.0411
  344MOL0     O45311   0.398  -1.850   5.954  0.0790  0.1639 -0.4092
  344MOL0     C45312   0.407  -1.766   5.839 -0.0653 -0.3121  0.4561
  344MOL0     C45313   0.514  -1.818   5.736 -0.6871 -0.7853 -0.1185
  344MOL0     C45314   0.548  -1.720   5.622 -0.3165  0.4971 -0.2147
  344MOL0     C45315   0.435  -1.698   5.523 -1.0897 -0.1120  0.5970
  344MOL0     C45316   0.468  -1.613   5.406  0.1536  0.4867  1.3988
  344MOL0     C45317   0.362  -1.636   5.295  0.2679 -0.5839 -0.3903
  344MOL0     C45318   0.405  -1.562   5.160  0.2043  0.3745 -1.4090
  344MOL0     C45319   0.444  -1.417   5.177  0.3811  1.0230  0.3515
  344MOL0    Cl45320   0.469  -1.348   5.017  0.4393  0.1075 -0.1789
  344MOL0     C45321   0.238  -1.833   6.133  1.2839 -0.2941  0.0903
  344MOL0     C45322   0.182  -1.771   6.242  0.0456  0.3862  0.0862
  344MOL0     O45323  -0.013  -1.569   6.345  0.3356 -0.1088  0.1198
  344MOL0     C45324  -0.056  -1.399   6.581  0.1324 -0.2947 -1.0749
  344MOL0     C45325  -0.055  -1.298   6.684  0.3792  0.1187  0.1857
  344MOL0     N45326   0.650  -0.771   6.742  0.4317  0.2465 -0.2416
  344MOL0     N45327   0.759  -0.735   6.808 -0.1775 -0.1278 -0.2465
  344MOL0     C45328   0.559   0.317   7.003  1.0646  0.3851 -0.4478
  344MOL0     C45329   0.504   0.447   7.002  0.3814 -1.2180  0.6529
  344MOL0     C45330   0.291   0.840   7.049 -0.3308  0.1193 -0.1679
  344MOL0     C45331   0.199   0.866   7.158  1.0018 -0.6548  0.0605
  344MOL0     C45332   0.168   0.993   7.203 -0.2208 -0.2728 -0.3857
  344MOL0     C45333   0.229   1.106   7.144 -0.4158 -0.1684  0.5673
  344MOL0     O45334   0.193   1.234   7.173 -0.3273  0.3652 -0.2907
  344MOL0     C45335   0.090   1.294   7.089 -1.2412  0.6691  0.4042
  344MOL0     C45336   0.082   1.437   7.128  0.1168 -0.1815  0.3099
  344MOL0     C45337  -0.041   1.494   7.054 -0.2222 -0.7090 -0.6369
  344MOL0     C45338  -0.054   1.649   7.079  0.8487  0.4197 -0.7284
  344MOL0     C45339  -0.177   1.677   6.989  0.2517 -0.4092 -0.5002
  344MOL0     C45340  -0.275   1.704   6.923  0.5809  0.0153 -0.0071
  344MOL0     C45341   0.324   1.087   7.043  0.1351 -1.1038  0.2442
  344MOL0     C45342   0.347   0.955   6.996  0.5844 -0.7080 -0.2439
  344MOL0     H45343   0.232   0.399   7.221 -0.4826  0.2464  0.8470
  344MOL0     H45344   0.329   0.175   7.219 -0.2174 -0.1644 -0.5697
  344MOL0     H45345   0.386   0.016   6.980  1.1934  1.6602 -0.3435
  344MOL0     H45346   0.405  -0.059   7.139  0.2647 -1.7984  0.4522
  344MOL0     H45347   0.628  -0.089   6.910  1.3318  6.0800  4.9457
  344MOL0     H45348   0.482  -0.196   6.917 -0.4867 -0.9616  1.4519
  344MOL0     H45349   0.553  -0.277   7.118  0.2749 -0.2985  0.9699
  344MOL0     H45350   0.690  -0.172   7.147  1.5214 -1.3954 -1.6835
  344MOL0     H45351   0.685  -0.353   6.906 -2.2058  3.8514 -0.1374
  344MOL0     H45352   0.823  -0.264   6.965 -2.6970  6.2506  0.6473
  344MOL0     H45353   0.797  -0.396   7.191  0.3356  0.5720 -1.0832
  344MOL0     H45354   0.853  -0.480   7.045  1.1486 -0.7250  1.4774
  344MOL0     H45355   0.619  -0.552   7.007 -0.7916  1.6092  0.1013
  344MOL0     H45356   0.571  -0.518   7.163 -0.8613 -1.5416 -1.2686
  344MOL0     H45357   0.786  -0.658   7.246 -0.1244 -0.9083  0.3560
  344MOL0     H45358   0.639  -0.738   7.177 -0.2592  0.6634 -0.9483
  344MOL0     H45359   0.867  -0.833   7.090  0.2990  1.2392  3.7360
  344MOL0     H45360   0.896  -0.685   7.000 -0.9689  1.3032 -0.1064
  344MOL0     H45361   0.582  -0.923   7.023 -1.8611 -0.0828 -0.0619
  344MOL0     H45362   0.434  -1.014   6.828 -0.6077  0.1967  0.4913
  344MOL0     H45363   0.439  -0.931   6.681  2.9918  0.9912 -0.9604
  344MOL0     H45364   0.296  -0.744   6.799 -3.1325  0.1258  2.6554
  344MOL0     H45365   0.310  -0.840   6.940  0.9478 -1.7377 -0.3551
  344MOL0     H45366   0.086  -0.859   6.820  2.0532  1.7450  2.1352
  344MOL0     H45367   0.186  -0.917   6.688  3.9325  2.1878  0.2913
  344MOL0     H45368   0.169  -1.043   6.972 -3.3461 -0.7707  0.3594
  344MOL0     H45369   0.251  -1.125   6.846 -2.3859 -1.7802 -1.5047
  344MOL0     H45370   0.256  -1.180   6.649  1.1863 -2.0446  1.2246
  344MOL0     H45371   0.272  -1.356   6.499 -0.4073 -1.9155  1.0920
  344MOL0     H45372   0.398  -1.507   6.261 -1.6065  1.0120  0.2204
  344MOL0     H45373   0.501  -1.629   6.063 -1.6999  0.4903 -2.6857
  344MOL0     H45374   0.447  -1.667   5.860 -2.3001  1.0466 -1.1358
  344MOL0     H45375   0.317  -1.745   5.780  1.0836  0.9530 -0.9382
  344MOL0     H45376   0.479  -1.913   5.694 -1.4655  0.3447 -2.1921
  344MOL0     H45377   0.606  -1.857   5.779 -1.4351 -2.1406  0.3188
  344MOL0     H45378   0.639  -1.750   5.570  0.1607 -0.3156  1.0468
  344MOL0     H45379   0.577  -1.622   5.662  2.3719 -0.2407 -0.1827
  344MOL0     H45380   0.396  -1.797   5.497 -1.6304  0.2776 -0.1096
  344MOL0     H45381   0.343  -1.657   5.566 -1.5572  1.6395 -1.8459
  344MOL0     H45382   0.566  -1.648   5.373  0.5589  3.3540 -0.8012
  344MOL0     H45383   0.470  -1.508   5.436 -2.3527  0.7715  0.7701
  344MOL0     H45384   0.270  -1.589   5.332  1.6952  2.1028  0.0237
  344MOL0     H45385   0.340  -1.742   5.284  1.4445 -0.6660 -2.3168
  344MOL0     H45386   0.480  -1.618   5.104 -1.3584 -1.6817 -1.5541
  344MOL0     H45387   0.315  -1.555   5.098 -0.4333  2.1999 -0.3489
  344MOL0     H45388   0.530  -1.413   5.245 -0.4541  0.4081  1.4927
  344MOL0     H45389   0.355  -1.365   5.213 -1.8835 -1.3612 -1.3930
  344MOL0     H45390   0.195  -1.926   6.096  0.7715 -0.6502  1.5360
  344MOL0     H45391   0.103  -1.807   6.308  2.3730 -0.3849  2.6007
  344MOL0     H45392  -0.155  -1.437   6.559 -1.1727  2.7317 -0.9571
  344MOL0     H45393  -0.145  -1.276   6.740  1.8871 -0.7246  3.1252
  344MOL0     H45394   0.644   0.288   6.941 -0.3225  2.1976 -3.4181
  344MOL0     H45395   0.557   0.521   6.943  0.9854  0.0211  2.6590
  344MOL0     H45396   0.145   0.784   7.205 -2.6274  1.7960  0.5260
  344MOL0     H45397   0.100   1.005   7.287 -1.9667 -0.5057 -1.7000
  344MOL0     H45398  -0.003   1.242   7.114 -0.1281 -1.9386 -0.4852
  344MOL0     H45399   0.111   1.277   6.983 -0.2859 -0.5746  0.7656
  344MOL0     H45400   0.070   1.448   7.236 -2.6102 -1.0384  0.1901
  344MOL0     H45401   0.173   1.489   7.098  0.6164 -1.6374 -0.8341
  344MOL0     H45402  -0.132   1.438   7.079  0.2994 -1.4003 -0.2614
  344MOL0     H45403  -0.012   1.496   6.949  0.9980  2.3438 -0.3338
  344MOL0     H45404  -0.073   1.672   7.184 -1.7833 -4.6092  0.2356
  344MOL0     H45405   0.035   1.700   7.041 -1.0580  3.0837 -1.8877
  344MOL0     H45406  -0.367   1.722   6.870 -0.5689  2.5578  2.5601
  344MOL0     H45407   0.374   1.174   7.001  0.4894 -1.2801  0.2981
  344MOL0     H45408   0.426   0.958   6.921  1.2276 -2.0746  0.3408
  345MOL0     O45409  11.408  11.028  10.956 -0.2537 -1.0203 -0.1938
  345MOL0     C45410  11.416  11.136  10.889 -0.6204 -0.1160 -0.8560
  345MOL0     O45411  11.449  11.137  10.759  0.0979 -0.2436  0.1974
  345MOL0     C45412  11.437  11.018  10.687 -0.2669  0.8623 -0.4609
  345MOL0     C45413  11.322  10.940  10.696  0.6764 -0.0699 -0.4417
  345MOL0     C45414  11.316  10.819  10.632 -0.2180 -1.2319  0.1156
  345MOL0     C45415  11.420  10.770  10.555  0.4430  1.3195 -0.1824
  345MOL0     O45416  11.431  10.640  10.507  0.3400  0.3921  0.3083
  345MOL0     C45417  11.304  10.563  10.489 -1.0430 -0.1306 -0.5457
  345MOL0     C45418  11.239  10.567  10.357 -0.1488 -0.6440  0.4500
  345MOL0     C45419  11.159  10.439  10.341 -0.4621 -0.4201  0.2033
  345MOL0     C45420  11.109  10.414  10.189  0.0461 -0.4477  0.5106
  345MOL0     C45421  11.063  10.271  10.140  0.2909 -0.7845 -0.3708
  345MOL0     C45422  11.076  10.262   9.983  0.4340  0.0229  0.3537
  345MOL0     C45423  10.963  10.336   9.914  0.4006 -0.2350 -0.3538
  345MOL0     C45424  10.998  10.356   9.761 -0.0194  1.0249 -0.2432
  345MOL0     N45425  10.875  10.398   9.696  0.8256  0.4629  0.2789
  345MOL0     C45426  10.779  10.330   9.621  0.8562 -0.6355 -0.8624
  345MOL0     C45427  10.678  10.423   9.603 -1.3584  1.1994  0.2513
  345MOL0     C45428  10.565  10.402   9.519 -0.1625 -0.3613  0.1564
  345MOL0     C45429  10.432  10.444   9.578 -0.5135 -0.0913 -0.1887
  345MOL0     C45430  10.322  10.438   9.468 -0.2493 -0.5830  0.4717
  345MOL0     C45431  10.321  10.311   9.396  0.0949  0.2269  0.5043
  345MOL0     O45432  10.333  10.219   9.506 -0.5687  1.0739 -0.0250
  345MOL0     C45433  10.380  10.096   9.461  0.7105  0.1558 -0.1168
  345MOL0     C45434  10.397  10.052   9.328  0.9499 -0.3923  0.5236
  345MOL0     C45435  10.428   9.919   9.288 -0.0806  0.3603 -0.0038
  345MOL0     C45436  10.446   9.821   9.391 -0.9442  0.2917 -0.3673
  345MOL0     C45437  10.485   9.685   9.354 -0.0531 -0.1625 -0.8158
  345MOL0     O45438  10.442   9.628   9.237  0.4170  0.7888 -0.9297
  345MOL0     C45439  10.479   9.505   9.203  0.0966  0.1320 -0.3658
  345MOL0     C45440  10.602   9.482   9.138  0.2434  0.7865 -0.5655
  345MOL0     C45441  10.646   9.350   9.104 -0.0144 -0.7616  0.4635
  345MOL0     C45442  10.567   9.236   9.118 -0.0187 -0.2966  0.8141
  345MOL0     O45443  10.608   9.109   9.087  0.4933  0.1951 -0.3206
  345MOL0     C45444  10.747   9.075   9.087  0.6593 -0.0748 -0.1307
  345MOL0     C45445  10.771   8.929   9.048  0.1111  0.4249  0.5492
  345MOL0     C45446  10.700   8.882   8.917 -0.0225 -0.2281  0.6807
  345MOL0     C45447  10.747   8.742   8.888 -1.4010  0.9600  0.0115
  345MOL0     C45448  10.690   8.684   8.767 -0.2839 -0.8403  1.1382
  345MOL0     C45449  10.766   8.555   8.738  0.5660 -0.3250  0.2936
  345MOL0     C45450  10.757   8.515   8.594  0.0938  0.4789  0.2113
  345MOL0     C45451  10.786   8.371   8.593 -0.1861 -0.3078  0.0483
  345MOL0    Cl45452  10.775   8.318   8.418  0.1021  0.2018 -0.1851
  345MOL0     C45453  10.440   9.262   9.186 -0.4301  0.8794  0.2425
  345MOL0     C45454  10.396   9.393   9.216 -0.2275 -0.5268 -0.0241
  345MOL0     O45455  10.551   9.626   9.433 -0.0334  0.0833  0.0410
  345MOL0     C45456  10.423   9.857   9.524  0.7282  0.0843 -0.0559
  345MOL0     C45457  10.398   9.991   9.554 -0.4930 -0.0240 -0.7100
  345MOL0     N45458  10.721  10.546   9.648  0.1408  0.3436  0.4379
  345MOL0     N45459  10.843  10.527   9.695 -0.0453  0.1573  0.8549
  345MOL0     C45460  11.531  10.855  10.530  1.3336 -1.1440 -0.5590
  345MOL0     C45461  11.534  10.975  10.598 -0.2201 -0.2653 -0.3036
  345MOL0     C45462  11.396  11.265  10.958  0.0980 -0.2445 -0.6909
  345MOL0     C45463  11.407  11.394  10.888 -0.0731 -0.0492 -0.5308
  345MOL0     C45464  11.369  11.510  10.958 -0.1696  1.3447  0.4314
  345MOL0     C45465  11.323  11.512  11.085  0.9679 -1.4651 -0.4916
  345MOL0     O45466  11.303  11.635  11.148  0.0403 -0.5973  0.4201
  345MOL0     C45467  11.313  11.631  11.289  0.1586 -0.7561  0.2411
  345MOL0     C45468  11.289  11.780  11.330 -0.2369 -0.1001  0.3710
  345MOL0     C45469  11.211  11.881  11.250  0.0406 -0.0884  0.8434
  345MOL0     C45470  11.064  11.899  11.293  0.2412 -0.1181  0.1593
  345MOL0     C45471  10.990  11.778  11.281 -0.2160  0.6545  0.1525
  345MOL0     C45472  10.958  11.661  11.291 -1.2895  0.0770  0.0910
  345MOL0     C45473  11.315  11.391  11.147  0.2261  0.5477 -0.9060
  345MOL0     C45474  11.347  11.272  11.091 -0.4038 -1.0647  0.7965
  345MOL0     H45475  11.241  10.986  10.752 -0.7838 -0.9859 -1.7106
  345MOL0     H45476  11.224  10.763  10.640 -1.9043  1.2513 -0.7808
  345MOL0     H45477  11.239  10.577  10.576 -0.9964 -3.5962  0.1797
  345MOL0     H45478  11.336  10.459  10.499  0.4032  0.0385 -2.7196
  345MOL0     H45479  11.316  10.568  10.279 -0.1033  0.8313  0.4848
  345MOL0     H45480  11.175  10.656  10.358  0.3047 -0.3054 -0.0932
  345MOL0     H45481  11.070  10.441  10.404 -3.5915 -3.4401 -3.5864
  345MOL0     H45482  11.218  10.357  10.382  0.3843  1.2168  2.4346
  345MOL0     H45483  11.016  10.471  10.185 -1.1426 -1.9585  3.3788
  345MOL0     H45484  11.189  10.446  10.122  1.2225 -3.1571  0.4899
  345MOL0     H45485  10.964  10.254  10.184  0.5109  0.0099  0.4538
  345MOL0     H45486  11.125  10.199  10.195 -1.5365 -0.1327  2.7812
  345MOL0     H45487  11.074  10.158   9.948 -0.0618  0.7559 -1.9950
  345MOL0     H45488  11.160  10.307   9.929 -1.7955 -0.2723 -3.7772
  345MOL0     H45489  10.876  10.270   9.910 -0.0208  0.3624 -1.4872
  345MOL0     H45490  10.947  10.434   9.960  1.9995 -1.2593  2.6616
  345MOL0     H45491  11.042  10.271   9.709 -1.0787 -0.4668  1.2229
  345MOL0     H45492  11.071  10.437   9.752  0.3388  0.8766  1.0674
  345MOL0     H45493  10.774  10.223   9.604  2.1048 -1.4481  2.8334
  345MOL0     H45494  10.564  10.300   9.479 -0.5288 -0.4746  0.4444
  345MOL0     H45495  10.579  10.461   9.429  1.8335  0.0678  0.6995
  345MOL0     H45496  10.443  10.548   9.608 -0.5076 -0.0497 -0.3335
  345MOL0     H45497  10.404  10.380   9.662 -1.2592 -1.8112 -1.6650
  345MOL0     H45498  10.223  10.446   9.513 -1.5469  1.3012 -2.4484
  345MOL0     H45499  10.312  10.521   9.398  0.1758 -1.4823 -0.6840
  345MOL0     H45500  10.410  10.305   9.332 -1.4495  2.8397 -2.1097
  345MOL0     H45501  10.233  10.289   9.336 -0.9190 -0.5366  2.2232
  345MOL0     H45502  10.388  10.117   9.242 -1.8057 -0.5268  0.6241
  345MOL0     H45503  10.460   9.888   9.189  0.5587  0.1650  0.2537
  345MOL0     H45504  10.676   9.561   9.127  0.2258  1.5233  3.2222
  345MOL0     H45505  10.733   9.358   9.040 -2.1299 -0.7454 -2.6234
  345MOL0     H45506  10.775   9.093   9.191 -1.3706 -0.2188  0.4802
  345MOL0     H45507  10.808   9.146   9.030 -1.0584  0.0003 -2.0016
  345MOL0     H45508  10.731   8.879   9.137  1.9120 -1.0068  0.6100
  345MOL0     H45509  10.876   8.900   9.052 -0.5747 -2.4537 -0.3526
  345MOL0     H45510  10.729   8.944   8.832 -2.3941  2.4897  1.6793
  345MOL0     H45511  10.592   8.875   8.932 -0.1741  2.2471  1.2490
  345MOL0     H45512  10.856   8.734   8.885 -1.4060  0.8308  0.1449
  345MOL0     H45513  10.732   8.690   8.983  0.2026  1.3307  0.5034
  345MOL0     H45514  10.704   8.755   8.685 -0.2159 -4.1935 -2.0511
  345MOL0     H45515  10.581   8.672   8.778 -0.4683 -0.5979 -0.1991
  345MOL0     H45516  10.726   8.483   8.810  1.0083  2.0936  3.1876
  345MOL0     H45517  10.870   8.580   8.757  0.5620 -0.4860  0.5272
  345MOL0     H45518  10.654   8.535   8.564  0.5673  2.0396 -0.5020
  345MOL0     H45519  10.824   8.583   8.540  2.7328 -1.8577  0.2897
  345MOL0     H45520  10.717   8.316   8.657 -0.5630 -0.4172 -0.4475
  345MOL0     H45521  10.890   8.361   8.626  0.8920  0.7702 -2.6886
  345MOL0     H45522  10.384   9.172   9.209  1.2757 -0.6070 -1.0886
  345MOL0     H45523  10.294   9.408   9.249  0.6176  0.6702  2.2852
  345MOL0     H45524  10.422   9.785   9.605 -2.4655 -2.2853 -1.9739
  345MOL0     H45525  10.390  10.012   9.660  0.5099  1.6587 -0.9357
  345MOL0     H45526  11.616  10.831  10.467 -0.6496 -2.2506 -2.9899
  345MOL0     H45527  11.618  11.041  10.581 -2.3117  2.8905  0.6206
  345MOL0     H45528  11.429  11.387  10.782  0.7837 -1.8545 -0.2917
  345MOL0     H45529  11.369  11.595  10.891 -0.1989 -0.0408 -1.3917
  345MOL0     H45530  11.411  11.593  11.317  1.7012  0.5868 -2.8319
  345MOL0     H45531  11.232  11.570  11.330  0.6868 -1.5289  0.1521
  345MOL0     H45532  11.251  11.778  11.433 -2.2599 -0.9922 -0.3401
  345MOL0     H45533  11.387  11.827  11.344  1.0683 -2.5572  0.0522
  345MOL0     H45534  11.210  11.859  11.143 -1.9090  2.4970  0.2170
  345MOL0     H45535  11.249  11.983  11.259  2.4139 -0.8383 -0.0827
  345MOL0     H45536  11.050  11.935  11.395 -0.3933  2.1521 -0.6509
  345MOL0     H45537  11.032  11.981  11.227  0.8303  0.8276  1.0047
  345MOL0     H45538  10.951  11.554  11.294  4.1585 -0.6858 -2.2477
  345MOL0     H45539  11.275  11.383  11.248  1.5638 -1.1234 -0.4635
  345MOL0     H45540  11.324  11.187  11.154 -3.1713 -1.1526 -0.1884
  346MOL0     O45541   3.565   7.983   8.747  0.6854  0.0346  0.4964
  346MOL0     C45542   3.539   7.865   8.740 -1.0277  0.8973  0.2896
  346MOL0     O45543   3.436   7.800   8.695  0.5543 -0.3183 -0.5991
  346MOL0     C45544   3.333   7.866   8.645 -0.3723 -0.8901  0.0520
  346MOL0     C45545   3.220   7.851   8.722  0.6504 -0.4388  0.3169
  346MOL0     C45546   3.107   7.917   8.684 -0.0123  0.5621 -0.5244
  346MOL0     C45547   3.099   7.994   8.565 -0.9522 -0.1051 -0.2512
  346MOL0     O45548   2.997   8.074   8.515 -0.0947 -0.3269  0.3405
  346MOL0     C45549   2.934   8.152   8.611  1.1918 -0.9720  0.2736
  346MOL0     C45550   2.821   8.242   8.547  0.4280  0.3880  0.4453
  346MOL0     C45551   2.725   8.267   8.661 -0.4345 -0.3623 -0.1156
  346MOL0     C45552   2.646   8.383   8.601 -0.5616 -0.6343 -0.4075
  346MOL0     C45553   2.523   8.421   8.688  0.5973  0.3958  1.5186
  346MOL0     C45554   2.447   8.539   8.623 -0.4322 -0.3465 -0.7604
  346MOL0     C45555   2.314   8.546   8.690 -0.5707 -0.1678 -0.2904
  346MOL0     C45556   2.230   8.635   8.615 -0.2428 -0.3199  0.0837
  346MOL0     N45557   2.108   8.669   8.690  0.1035 -0.2027 -0.1757
  346MOL0     C45558   2.105   8.718   8.826 -0.5113 -0.0735 -0.5533
  346MOL0     C45559   1.968   8.736   8.849  0.0412 -1.0996  0.2804
  346MOL0     C45560   1.885   8.770   8.968  0.0831 -0.3225 -0.5989
  346MOL0     C45561   1.826   8.909   8.957 -0.1126 -0.3900  0.1756
  346MOL0     C45562   1.928   9.023   8.922 -0.7715 -0.1259  0.8170
  346MOL0     C45563   2.036   9.041   9.031 -0.3974 -0.7148  0.0038
  346MOL0     O45564   1.966   9.092   9.152  0.6045 -0.3849 -0.1634
  346MOL0     C45565   1.899   9.215   9.154 -0.3811  0.4466  0.3412
  346MOL0     C45566   1.795   9.224   9.250  0.8338  0.5380  1.2033
  346MOL0     C45567   1.714   9.333   9.229  0.1929 -0.6005  0.4376
  346MOL0     C45568   1.768   9.450   9.170 -0.5840  0.1400 -0.3625
  346MOL0     C45569   1.689   9.575   9.172 -0.0299  0.0796  0.1975
  346MOL0     O45570   1.570   9.560   9.224  0.2510  0.6307 -0.2035
  346MOL0     C45571   1.463   9.638   9.192 -0.5384 -0.8123 -1.8175
  346MOL0     C45572   1.451   9.736   9.099  0.1965 -0.0635 -0.6874
  346MOL0     C45573   1.326   9.788   9.069 -0.7785 -0.1247  0.3875
  346MOL0     C45574   1.207   9.736   9.127 -0.5495 -0.0727  0.7218
  346MOL0     O45575   1.083   9.774   9.082  0.8685  0.1762  0.3653
  346MOL0     C45576   1.052   9.893   9.011 -0.0372 -0.6768  0.1873
  346MOL0     C45577   0.912   9.880   8.952  0.9616  0.2205 -0.5678
  346MOL0     C45578   0.870  10.000   8.847  0.1271  0.0608  0.4811
  346MOL0     C45579   0.930   9.961   8.706 -0.1187  0.2760  0.1604
  346MOL0     C45580   0.856  10.035   8.590 -0.0664  0.0305 -0.5201
  346MOL0     C45581   0.701  10.032   8.598  0.2338 -0.1157  0.1725
  346MOL0     C45582   0.640  10.072   8.458 -0.5888 -0.3170 -1.0830
  346MOL0     C45583   0.491  10.103   8.478 -0.3903 -1.1813 -0.4393
  346MOL0    Cl45584   0.397   9.959   8.472 -0.2678  0.4052  0.3587
  346MOL0     C45585   1.216   9.644   9.230 -0.9029 -0.0246 -0.2835
  346MOL0     C45586   1.339   9.598   9.260 -0.1561  0.2536 -0.0173
  346MOL0     O45587   1.741   9.681   9.142  0.2076  0.2682 -0.3480
  346MOL0     C45588   1.885   9.444   9.090 -0.0153 -0.0177  0.0231
  346MOL0     C45589   1.938   9.322   9.069  0.5046 -0.0408 -0.4564
  346MOL0     N45590   1.897   8.700   8.733 -0.5861  0.3417  0.4514
  346MOL0     N45591   1.986   8.658   8.647  0.0695 -0.3429 -0.6597
  346MOL0     C45592   3.216   8.002   8.495 -0.6257 -0.2255 -0.6852
  346MOL0     C45593   3.328   7.932   8.528 -1.0728  0.5942  0.1227
  346MOL0     C45594   3.647   7.777   8.794  0.0516  0.5947  0.8151
  346MOL0     C45595   3.693   7.666   8.719  0.1787 -0.7518 -0.4947
  346MOL0     C45596   3.787   7.584   8.772 -0.3956  0.6875 -0.0876
  346MOL0     C45597   3.837   7.601   8.904  0.6788  0.5850 -0.4119
  346MOL0     O45598   3.932   7.520   8.962  0.5232  0.3194 -0.2932
  346MOL0     C45599   4.028   7.461   8.874  0.6066 -0.2437 -0.9057
  346MOL0     C45600   4.153   7.448   8.962  0.3628 -0.0289 -0.3200
  346MOL0     C45601   4.219   7.592   8.982 -0.8408 -0.1974  0.0385
  346MOL0     C45602   4.276   7.643   8.841  0.2002  0.4892 -0.5159
  346MOL0     C45603   4.314   7.783   8.873  0.4112 -0.0655 -0.4924
  346MOL0     C45604   4.350   7.904   8.899 -0.0593 -0.4473  0.2331
  346MOL0     C45605   3.779   7.702   8.973  0.3729  0.5319  0.1375
  346MOL0     C45606   3.696   7.796   8.923  0.1073 -0.4406  0.6042
  346MOL0     H45607   3.230   7.801   8.818 -0.3395 -0.5798  0.3567
  346MOL0     H45608   3.025   7.902   8.754  1.1473  0.5590  0.8769
  346MOL0     H45609   2.998   8.213   8.675 -1.3441  1.8040  0.4112
  346MOL0     H45610   2.872   8.087   8.674 -2.0529  3.1405  1.7878
  346MOL0     H45611   2.765   8.181   8.476  0.6306 -1.8261  2.0818
  346MOL0     H45612   2.873   8.324   8.496  0.3295  0.7236  0.8785
  346MOL0     H45613   2.789   8.291   8.747  0.8762  0.5041 -1.2994
  346MOL0     H45614   2.663   8.178   8.674  1.4431 -1.3702  3.1895
  346MOL0     H45615   2.707   8.474   8.599 -0.3382 -0.7443  0.5900
  346MOL0     H45616   2.622   8.362   8.497  0.8660  2.4767 -1.4656
  346MOL0     H45617   2.550   8.461   8.786 -3.7241  2.5838  2.0570
  346MOL0     H45618   2.455   8.336   8.689  4.3890 -2.9116  3.7354
  346MOL0     H45619   2.437   8.532   8.514  1.7452 -1.2067 -0.9750
  346MOL0     H45620   2.496   8.631   8.655 -1.8626  0.2072 -0.0753
  346MOL0     H45621   2.265   8.450   8.672  0.3282 -0.5761 -0.6331
  346MOL0     H45622   2.325   8.578   8.794  0.9819  0.0723 -0.5053
  346MOL0     H45623   2.200   8.585   8.522 -2.1167 -1.4798  1.2401
  346MOL0     H45624   2.291   8.724   8.599 -0.0304 -0.5861 -0.6248
  346MOL0     H45625   2.189   8.742   8.890  0.3790 -1.0368 -1.3193
  346MOL0     H45626   1.950   8.761   9.056  0.2909 -0.6196 -0.7821
  346MOL0     H45627   1.806   8.696   8.977 -1.9593  1.7578 -0.4107
  346MOL0     H45628   1.785   8.925   9.057 -1.2010  0.1470 -0.3434
  346MOL0     H45629   1.746   8.919   8.883  0.9958  5.4357 -0.7499
  346MOL0     H45630   1.981   8.991   8.831 -3.6681 -1.8828 -0.3941
  346MOL0     H45631   1.874   9.114   8.897 -1.8061 -0.2265  2.5210
  346MOL0     H45632   2.109   9.118   9.004 -1.8302  0.8316  0.3912
  346MOL0     H45633   2.083   8.945   9.056 -0.0929 -1.9790 -4.4796
  346MOL0     H45634   1.760   9.152   9.323 -2.2162  1.1064  0.4435
  346MOL0     H45635   1.621   9.344   9.285  0.3471  0.4799  0.5069
  346MOL0     H45636   1.533   9.772   9.037 -1.3618  1.1852 -2.1135
  346MOL0     H45637   1.336   9.858   8.987  1.1005 -1.4227 -0.5759
  346MOL0     H45638   1.127   9.917   8.935  2.0130  0.7349  2.4821
  346MOL0     H45639   1.075   9.986   9.064  0.3930 -0.1394 -0.9024
  346MOL0     H45640   0.839   9.874   9.034 -0.5097 -1.2748 -1.9050
  346MOL0     H45641   0.900   9.779   8.913 -1.0720 -0.6881  2.0820
  346MOL0     H45642   0.909  10.100   8.867 -0.5848  0.2556  0.9159
  346MOL0     H45643   0.761  10.006   8.842 -0.0534 -1.4920  1.7945
  346MOL0     H45644   1.039   9.957   8.717 -0.2381 -1.2588  1.1135
  346MOL0     H45645   0.906   9.856   8.689 -0.3882  0.6326 -1.9602
  346MOL0     H45646   0.883   9.999   8.490 -1.1818 -0.6279 -0.5991
  346MOL0     H45647   0.884  10.141   8.597 -2.1456  0.5169  3.3159
  346MOL0     H45648   0.661  10.092   8.680  0.2056 -0.2757  0.2739
  346MOL0     H45649   0.659   9.933   8.613 -1.4434  0.2309 -1.7723
  346MOL0     H45650   0.697  10.161   8.431  2.0755 -1.0526  1.6315
  346MOL0     H45651   0.644   9.985   8.391 -0.3967 -0.0037 -1.4829
  346MOL0     H45652   0.461  10.163   8.391  2.5877  1.5617  0.2333
  346MOL0     H45653   0.486  10.160   8.571  0.6456 -0.9007 -0.5414
  346MOL0     H45654   1.130   9.612   9.288  0.4688 -3.0943  0.2632
  346MOL0     H45655   1.333   9.525   9.339  1.2077  2.2353  2.0453
  346MOL0     H45656   1.933   9.530   9.045 -2.8272  0.7947 -1.6724
  346MOL0     H45657   2.029   9.321   9.011  0.8517  4.3076 -0.3082
  346MOL0     H45658   3.217   8.048   8.397  4.7553  0.0414 -0.7964
  346MOL0     H45659   3.416   7.947   8.466  0.2497  0.4036  1.8912
  346MOL0     H45660   3.658   7.650   8.617  2.6446  3.3118 -2.2699
  346MOL0     H45661   3.835   7.504   8.717 -1.3826 -1.3646  1.8753
  346MOL0     H45662   4.037   7.522   8.784  0.6671  0.8838 -0.1562
  346MOL0     H45663   3.988   7.361   8.857 -2.4524  0.5541  0.8647
  346MOL0     H45664   4.140   7.393   9.055  0.9899 -2.7081 -1.7117
  346MOL0     H45665   4.216   7.377   8.907 -1.9851 -1.0717 -1.7982
  346MOL0     H45666   4.301   7.580   9.053  0.8416  2.6877 -1.2249
  346MOL0     H45667   4.148   7.662   9.026  0.2468 -0.9421  3.2263
  346MOL0     H45668   4.363   7.592   8.798 -0.4387  0.9645 -2.4622
  346MOL0     H45669   4.191   7.647   8.773 -0.6869 -0.9595  0.4492
  346MOL0     H45670   4.366   8.005   8.931  1.5604  0.2162 -2.4113
  346MOL0     H45671   3.808   7.713   9.077 -3.2496 -0.8096  1.4568
  346MOL0     H45672   3.659   7.876   8.987  0.4292  0.7453 -0.6289
  347MOL0     O45673   3.599   6.909   6.927  0.2246 -0.4312  0.2839
  347MOL0     C45674   3.488   6.873   6.951  0.8116  1.1439  0.3916
  347MOL0     O45675   3.398   6.840   6.851 -0.3012  0.0192 -1.0028
  347MOL0     C45676   3.410   6.867   6.715  0.7972 -0.7147 -0.9635
  347MOL0     C45677   3.522   6.912   6.646 -0.0858 -0.3736 -0.0927
  347MOL0     C45678   3.517   6.956   6.511  0.3838  0.6297 -0.2433
  347MOL0     C45679   3.395   6.947   6.441 -0.3028 -0.2151  0.5517
  347MOL0     O45680   3.369   6.974   6.314  0.4087  0.0864  0.3571
  347MOL0     C45681   3.480   7.019   6.234  0.8625 -0.6853 -0.6438
  347MOL0     C45682   3.408   7.066   6.112  0.7564 -0.7275  0.1339
  347MOL0     C45683   3.288   7.163   6.134 -0.7768 -0.7226  0.2853
  347MOL0     C45684   3.242   7.216   5.997 -0.0584  0.2957 -0.4709
  347MOL0     C45685   3.100   7.148   5.961  0.4189 -0.0405  0.4919
  347MOL0     C45686   3.066   7.164   5.803 -0.2514  0.3737  0.6373
  347MOL0     C45687   2.985   7.045   5.752 -0.0374 -0.5658 -0.0286
  347MOL0     C45688   2.992   7.024   5.600  0.0353 -0.4518  0.1431
  347MOL0     N45689   2.939   7.148   5.537 -0.2451  0.3592  0.3583
  347MOL0     C45690   3.001   7.224   5.436 -0.1051 -0.4455 -0.4576
  347MOL0     C45691   2.935   7.347   5.443 -0.4498  0.2951 -0.6105
  347MOL0     C45692   2.979   7.460   5.360 -0.2981 -1.0849  0.3775
  347MOL0     C45693   2.991   7.429   5.205  0.4682 -0.0275 -0.5346
  347MOL0     C45694   2.872   7.347   5.153  0.1783 -0.4341  0.9586
  347MOL0     C45695   2.912   7.308   5.010  0.1645  0.9307 -0.1202
  347MOL0     O45696   2.798   7.247   4.957 -0.6744 -0.8203 -0.6827
  347MOL0     C45697   2.809   7.193   4.831 -0.1331 -0.3421 -0.3278
  347MOL0     C45698   2.728   7.082   4.793 -0.2038 -0.3352  0.2909
  347MOL0     C45699   2.709   7.043   4.661 -0.6985 -0.1688 -0.5033
  347MOL0     C45700   2.796   7.098   4.563  0.5359  0.5224 -0.0736
  347MOL0     C45701   2.781   7.077   4.427 -0.2059 -0.3220 -0.1286
  347MOL0     O45702   2.683   6.986   4.399  0.3596  0.4216  0.0876
  347MOL0     C45703   2.616   6.968   4.274 -0.2257 -0.8434  0.6726
  347MOL0     C45704   2.634   7.042   4.154  0.4778 -0.6816 -0.1782
  347MOL0     C45705   2.544   7.017   4.045  0.0061 -0.0171  0.3973
  347MOL0     C45706   2.440   6.921   4.051  0.0345  0.6204  0.0208
  347MOL0     O45707   2.347   6.901   3.953  0.3222  0.2454 -0.1089
  347MOL0     C45708   2.369   6.954   3.821 -0.2247 -0.0198 -0.2720
  347MOL0     C45709   2.274   6.887   3.719 -0.0117  0.4405 -0.0497
  347MOL0     C45710   2.129   6.884   3.768 -0.7543  0.0959 -0.0685
  347MOL0     C45711   2.047   6.809   3.666 -0.4174 -0.0090  0.0380
  347MOL0     C45712   1.995   6.863   3.536  0.7515 -0.0404 -0.1516
  347MOL0     C45713   1.863   6.950   3.533 -1.3764  0.0258  0.1295
  347MOL0     C45714   1.823   6.959   3.381  0.8268 -0.0451 -0.1599
  347MOL0     C45715   1.715   6.867   3.331  0.6228  0.0243 -0.5227
  347MOL0    Cl45716   1.775   6.710   3.285 -0.2036  0.1878 -0.0724
  347MOL0     C45717   2.424   6.850   4.172  0.8278 -1.5549  0.5847
  347MOL0     C45718   2.502   6.878   4.282 -0.0349 -0.5646  0.4175
  347MOL0     O45719   2.843   7.146   4.344 -0.4301  0.1917  0.8354
  347MOL0     C45720   2.888   7.204   4.599  0.2844 -0.7382 -0.6285
  347MOL0     C45721   2.882   7.253   4.730 -0.4285 -0.8975  0.3631
  347MOL0     N45722   2.827   7.330   5.535  0.2883 -0.7469  0.4858
  347MOL0     N45723   2.842   7.221   5.587  0.6180 -0.3859 -0.5555
  347MOL0     C45724   3.287   6.894   6.512  0.9860 -0.2659  0.5123
  347MOL0     C45725   3.288   6.870   6.643  0.1398 -0.2813 -0.2264
  347MOL0     C45726   3.457   6.835   7.094  0.3601 -0.5236  0.2104
  347MOL0     C45727   3.327   6.811   7.125 -0.8056 -0.1578 -0.4346
  347MOL0     C45728   3.286   6.803   7.261  0.3919 -0.2176  0.6454
  347MOL0     C45729   3.371   6.810   7.369 -0.3324  0.0876  0.6254
  347MOL0     O45730   3.320   6.785   7.488  0.0622 -0.0455  0.0521
  347MOL0     C45731   3.406   6.785   7.601  0.7293  0.4837  0.5754
  347MOL0     C45732   3.330   6.782   7.733 -0.1890  0.6607 -0.3359
  347MOL0     C45733   3.385   6.897   7.826  0.4411 -1.1470  0.0572
  347MOL0     C45734   3.278   6.938   7.932  0.4136 -0.6704 -0.1097
  347MOL0     C45735   3.293   6.860   8.054 -0.5516  0.2565 -0.2613
  347MOL0     C45736   3.311   6.775   8.139 -0.3423 -0.7945 -1.4316
  347MOL0     C45737   3.507   6.838   7.333  0.3637 -1.6312 -0.1397
  347MOL0     C45738   3.553   6.846   7.204  0.0344 -0.0178  0.5764
  347MOL0     H45739   3.618   6.912   6.697 -1.8824  1.4296  3.7467
  347MOL0     H45740   3.607   6.981   6.457 -0.6953 -0.6047 -2.7709
  347MOL0     H45741   3.551   6.940   6.207 -0.6263 -1.4751 -2.3829
  347MOL0     H45742   3.536   7.103   6.277 -0.2393  1.4437 -3.1237
  347MOL0     H45743   3.388   6.988   6.038 -1.7803 -0.3472  0.3528
  347MOL0     H45744   3.484   7.134   6.071 -1.1243  1.4823  0.1515
  347MOL0     H45745   3.317   7.246   6.199 -1.8980 -1.3513  1.6462
  347MOL0     H45746   3.202   7.111   6.178  0.4176 -2.4863  0.6691
  347MOL0     H45747   3.224   7.323   6.009  2.6804  0.7998 -0.3006
  347MOL0     H45748   3.314   7.204   5.916 -0.2868 -1.7659 -0.4288
  347MOL0     H45749   3.020   7.179   6.030  0.4657 -1.0816  1.0261
  347MOL0     H45750   3.104   7.042   5.989 -2.1771  0.0600  1.5826
  347MOL0     H45751   3.161   7.156   5.750 -0.9491  0.2529 -0.6367
  347MOL0     H45752   3.017   7.257   5.775 -2.9947 -0.7600  1.3423
  347MOL0     H45753   3.033   6.957   5.798  2.9354  0.2166 -1.3522
  347MOL0     H45754   2.882   7.043   5.787 -0.3093  1.4472 -0.5761
  347MOL0     H45755   2.938   6.937   5.562 -2.2953 -0.1968  2.5969
  347MOL0     H45756   3.096   7.012   5.568  0.0977 -0.5662  0.3926
  347MOL0     H45757   3.089   7.216   5.373  0.2292  1.9353 -0.3889
  347MOL0     H45758   3.081   7.488   5.388 -0.2503 -0.2674 -0.5875
  347MOL0     H45759   2.912   7.544   5.378  0.9523 -0.4583  2.5209
  347MOL0     H45760   3.077   7.361   5.204 -1.0762 -2.1451  1.0641
  347MOL0     H45761   3.005   7.521   5.148  0.7730  1.5987  2.0197
  347MOL0     H45762   2.850   7.252   5.203  0.5209 -1.5489 -0.9095
  347MOL0     H45763   2.787   7.416   5.151 -0.1043 -0.7910  0.5155
  347MOL0     H45764   2.989   7.232   5.022 -0.3261  0.5777  1.0032
  347MOL0     H45765   2.945   7.400   4.960  2.1573  1.1271  1.4401
  347MOL0     H45766   2.669   7.031   4.869 -1.3933 -1.6749 -1.4190
  347MOL0     H45767   2.636   6.966   4.639  1.8562 -3.7034  2.2995
  347MOL0     H45768   2.720   7.110   4.154  0.1695 -0.2697 -1.7071
  347MOL0     H45769   2.557   7.078   3.957 -0.7215  0.6274  0.7205
  347MOL0     H45770   2.473   6.929   3.797 -0.8395 -2.0310 -1.0773
  347MOL0     H45771   2.363   7.063   3.828  3.1258  0.3386 -0.9454
  347MOL0     H45772   2.301   6.781   3.725  0.3267  0.4557 -1.1896
  347MOL0     H45773   2.292   6.930   3.620  0.7613 -3.2419 -1.7016
  347MOL0     H45774   2.088   6.983   3.786  0.6493  0.7215 -0.1407
  347MOL0     H45775   2.124   6.836   3.866 -1.3499  1.4160  0.5634
  347MOL0     H45776   2.109   6.724   3.637 -1.5086 -1.0888  0.7112
  347MOL0     H45777   1.962   6.772   3.726 -0.3502  1.0588  0.8106
  347MOL0     H45778   1.967   6.775   3.477 -1.8357  1.5984 -1.5966
  347MOL0     H45779   2.078   6.910   3.483 -0.4805 -0.5662 -2.7399
  347MOL0     H45780   1.881   7.043   3.587  0.4479 -0.2387  0.0293
  347MOL0     H45781   1.788   6.898   3.593  0.0115 -3.7429 -1.1417
  347MOL0     H45782   1.793   7.060   3.352  1.3745  0.4775  1.0624
  347MOL0     H45783   1.906   6.935   3.314  0.9664 -1.4179  0.4573
  347MOL0     H45784   1.658   6.906   3.247  1.7593  2.0268 -0.4302
  347MOL0     H45785   1.644   6.857   3.414 -0.9422 -1.4996 -1.9762
  347MOL0     H45786   2.337   6.787   4.187 -0.2123 -0.1857  0.5472
  347MOL0     H45787   2.487   6.818   4.372  0.0722 -3.1961 -1.1883
  347MOL0     H45788   2.964   7.255   4.541 -2.5855  1.6307 -2.6542
  347MOL0     H45789   2.958   7.326   4.755 -1.5215  1.4901 -2.7030
  347MOL0     H45790   3.187   6.908   6.472  0.9058  1.3316  1.2143
  347MOL0     H45791   3.196   6.850   6.698  0.5031  1.0892  0.9566
  347MOL0     H45792   3.249   6.798   7.050  0.1117  1.2514 -1.7006
  347MOL0     H45793   3.181   6.782   7.279  0.0779  0.8672  0.1866
  347MOL0     H45794   3.469   6.874   7.587  3.5755 -1.2433  1.5526
  347MOL0     H45795   3.478   6.703   7.601  0.9159  0.6430  0.9970
  347MOL0     H45796   3.225   6.799   7.706  0.0504  1.3719 -0.8590
  347MOL0     H45797   3.350   6.693   7.793  3.2182  1.8827  0.5815
  347MOL0     H45798   3.387   6.992   7.772 -1.1657 -0.8184  0.5305
  347MOL0     H45799   3.484   6.861   7.856 -0.6101 -5.7950 -1.3616
  347MOL0     H45800   3.283   7.045   7.955 -2.0845 -0.8704  1.7530
  347MOL0     H45801   3.181   6.919   7.885  0.3061 -0.7805  0.1568
  347MOL0     H45802   3.331   6.696   8.210 -0.0872 -0.3616 -1.0150
  347MOL0     H45803   3.572   6.867   7.415  0.2168 -2.6803  0.3694
  347MOL0     H45804   3.656   6.880   7.193 -0.0447 -0.0025 -0.2395
  348MOL0     O45805   8.159   7.974   4.747  0.8343  0.9739  0.1085
  348MOL0     C45806   8.211   8.046   4.671 -0.4915  0.2504  0.6377
  348MOL0     O45807   8.283   8.153   4.696 -0.0463 -0.5428  0.4657
  348MOL0     C45808   8.281   8.200   4.827  0.4658 -0.1020 -0.0295
  348MOL0     C45809   8.159   8.225   4.899  0.7152 -0.1165  0.9553
  348MOL0     C45810   8.162   8.253   5.036  0.6698 -0.5216  0.4482
  348MOL0     C45811   8.282   8.265   5.106 -0.3057  0.1882 -0.2499
  348MOL0     O45812   8.292   8.277   5.238  0.3933  0.3211  0.0409
  348MOL0     C45813   8.190   8.354   5.299  0.1633 -0.4094  0.5429
  348MOL0     C45814   8.093   8.262   5.371 -0.3788  0.1764  0.7427
  348MOL0     C45815   8.021   8.335   5.484 -0.4554 -0.1945  0.3038
  348MOL0     C45816   7.880   8.300   5.492  0.1955  0.4291 -0.2209
  348MOL0     C45817   7.802   8.389   5.583  0.7394  0.4931 -0.2840
  348MOL0     C45818   7.655   8.345   5.618 -0.4521  0.8435 -0.0343
  348MOL0     C45819   7.639   8.245   5.724 -1.2736  0.2184 -0.6681
  348MOL0     C45820   7.597   8.300   5.854 -0.3832  0.7034 -0.0831
  348MOL0     N45821   7.693   8.399   5.904  0.2414 -0.2036 -0.3227
  348MOL0     C45822   7.825   8.369   5.935 -0.7781 -0.2882  0.6936
  348MOL0     C45823   7.875   8.494   5.960 -1.5077 -0.4106  1.1729
  348MOL0     C45824   8.016   8.530   5.981 -0.5909  0.4151  0.1182
  348MOL0     C45825   8.064   8.665   5.927 -0.6125  0.3929  0.4942
  348MOL0     C45826   8.090   8.684   5.772 -0.5326 -0.5831 -0.0639
  348MOL0     C45827   8.188   8.582   5.733  0.6794 -0.4808  0.5208
  348MOL0     O45828   8.240   8.596   5.603 -0.3486 -0.1764  0.7568
  348MOL0     C45829   8.322   8.710   5.580 -0.6944  0.4496 -0.3041
  348MOL0     C45830   8.319   8.765   5.456 -0.7246  0.3834  0.1980
  348MOL0     C45831   8.389   8.876   5.419  0.2251  0.1509  0.1106
  348MOL0     C45832   8.482   8.929   5.505 -0.2340  1.0545  0.1057
  348MOL0     C45833   8.572   9.050   5.463 -0.4539  0.4555 -0.3431
  348MOL0     O45834   8.557   9.102   5.337  0.3756 -0.1668  0.6855
  348MOL0     C45835   8.673   9.146   5.282 -0.3857  0.1408  0.4245
  348MOL0     C45836   8.670   9.263   5.207  1.0934  0.7008 -0.5117
  348MOL0     C45837   8.780   9.332   5.160  0.1629  0.1512 -0.1993
  348MOL0     C45838   8.907   9.272   5.180  0.5500 -0.1818 -1.4418
  348MOL0     O45839   9.021   9.342   5.137 -0.6218  0.2998 -0.4023
  348MOL0     C45840   9.037   9.476   5.171 -1.1265 -0.2231 -0.5420
  348MOL0     C45841   9.021   9.552   5.036  0.4247  1.4254 -0.3099
  348MOL0     C45842   9.105   9.491   4.923  0.2053 -0.8745 -0.0888
  348MOL0     C45843   9.142   9.596   4.831  0.6680 -1.0760  0.0166
  348MOL0     C45844   9.227   9.536   4.723  0.1289  0.3288 -1.2259
  348MOL0     C45845   9.343   9.450   4.764  0.2990 -0.2558  0.7047
  348MOL0     C45846   9.419   9.403   4.636 -0.5069 -0.6557  1.7051
  348MOL0     C45847   9.517   9.290   4.666  1.0097 -0.3343  0.0105
  348MOL0    Cl45848   9.420   9.143   4.717 -0.0826  0.1744  0.1305
  348MOL0     C45849   8.911   9.146   5.252  0.6669  0.0224 -0.4256
  348MOL0     C45850   8.800   9.083   5.304  0.2415 -0.5787 -0.6225
  348MOL0     O45851   8.639   9.100   5.547  1.0803 -0.3406 -0.1820
  348MOL0     C45852   8.490   8.881   5.639  0.3052 -0.2673 -0.1778
  348MOL0     C45853   8.413   8.768   5.670 -0.4133 -0.9473  0.2228
  348MOL0     N45854   7.770   8.589   5.966 -0.0985  0.0615  0.1024
  348MOL0     N45855   7.673   8.528   5.920  0.6798  0.2774  0.3639
  348MOL0     C45856   8.400   8.268   5.024 -0.0469 -0.2928 -0.1102
  348MOL0     C45857   8.396   8.223   4.895  0.3484  0.6756 -0.2673
  348MOL0     C45858   8.175   8.021   4.531 -0.4675 -0.1619  0.4477
  348MOL0     C45859   8.102   7.912   4.482  0.0661 -0.1022  0.2575
  348MOL0     C45860   8.071   7.891   4.347 -0.4788 -0.9211  0.1696
  348MOL0     C45861   8.120   7.979   4.251  0.4720 -0.2008  0.7759
  348MOL0     O45862   8.078   7.960   4.118 -0.0599  0.2886 -0.1669
  348MOL0     C45863   8.106   8.045   4.004  0.0874  0.3976 -0.5272
  348MOL0     C45864   8.040   8.179   4.028 -0.1787  0.6974 -0.5943
  348MOL0     C45865   8.006   8.247   3.893  1.1624 -1.2935  0.8608
  348MOL0     C45866   8.121   8.298   3.810 -0.3263 -0.5323  0.7538
  348MOL0     C45867   8.141   8.215   3.689 -0.2394  1.3384  0.0322
  348MOL0     C45868   8.151   8.147   3.585  0.3466 -0.1774  0.4007
  348MOL0     C45869   8.210   8.085   4.289  0.6362 -0.2861 -0.0311
  348MOL0     C45870   8.224   8.106   4.425 -0.0056  0.2961  0.5071
  348MOL0     H45871   8.061   8.228   4.854  1.0711 -0.5695  0.1255
  348MOL0     H45872   8.070   8.276   5.090  0.6450 -2.1400  1.1647
  348MOL0     H45873   8.140   8.424   5.231 -0.7494  0.7897  2.3499
  348MOL0     H45874   8.250   8.413   5.369  0.7609  1.6189 -1.5378
  348MOL0     H45875   8.143   8.177   5.418  1.0961  0.6532  0.0972
  348MOL0     H45876   8.028   8.224   5.291  2.0365 -1.9352 -0.3790
  348MOL0     H45877   8.031   8.441   5.459  4.6741 -0.7194 -0.8492
  348MOL0     H45878   8.073   8.323   5.579  0.1423  0.0353  0.0106
  348MOL0     H45879   7.840   8.309   5.390  1.3991  0.4072 -0.7153
  348MOL0     H45880   7.866   8.194   5.516 -0.1220  0.4834 -0.1711
  348MOL0     H45881   7.800   8.487   5.535 -4.2733  0.4201 -0.7941
  348MOL0     H45882   7.867   8.390   5.671  3.5024  0.4731 -2.2249
  348MOL0     H45883   7.604   8.302   5.531  1.3577 -2.6869  0.4869
  348MOL0     H45884   7.598   8.433   5.650  1.6445  1.8514  1.0970
  348MOL0     H45885   7.560   8.173   5.698 -2.7529  1.2060  0.9410
  348MOL0     H45886   7.728   8.183   5.740 -2.4981 -1.0493  1.6674
  348MOL0     H45887   7.593   8.219   5.927 -0.2952 -0.6251 -1.5051
  348MOL0     H45888   7.497   8.342   5.839 -0.6410 -0.1480 -0.8717
  348MOL0     H45889   7.869   8.270   5.926 -2.5153 -1.0203 -0.3526
  348MOL0     H45890   8.063   8.439   5.943 -0.5176 -0.4483  2.1504
  348MOL0     H45891   8.036   8.533   6.088 -0.6656  0.8658  0.1220
  348MOL0     H45892   8.160   8.690   5.972 -1.4365  2.6340  1.1720
  348MOL0     H45893   8.001   8.749   5.957 -2.3479  0.0409 -1.8928
  348MOL0     H45894   7.999   8.676   5.712 -0.8280 -1.2549  0.4564
  348MOL0     H45895   8.129   8.784   5.754 -0.0113 -0.9727 -1.1851
  348MOL0     H45896   8.130   8.490   5.742  0.0244 -0.0541  0.7364
  348MOL0     H45897   8.263   8.579   5.812 -1.1543  0.9505  2.4103
  348MOL0     H45898   8.238   8.729   5.393 -2.8257  0.5308  2.5905
  348MOL0     H45899   8.401   8.926   5.323  0.7569 -0.9434 -0.4128
  348MOL0     H45900   8.572   9.308   5.202 -0.9002 -3.0497  0.7238
  348MOL0     H45901   8.767   9.425   5.106  0.7109 -0.0722 -0.7314
  348MOL0     H45902   9.137   9.509   5.201 -0.1073 -2.0413 -1.7760
  348MOL0     H45903   8.975   9.506   5.256  2.4413  0.7441  1.9769
  348MOL0     H45904   9.051   9.655   5.058 -0.7091  1.3905  1.6690
  348MOL0     H45905   8.916   9.556   5.006 -0.1599  1.8107  1.6263
  348MOL0     H45906   9.051   9.405   4.881 -1.3342 -0.0813  0.2057
  348MOL0     H45907   9.191   9.447   4.973  2.2077  3.4986  0.7745
  348MOL0     H45908   9.058   9.644   4.780  1.0763  0.2443  0.5478
  348MOL0     H45909   9.201   9.676   4.876  0.4386  1.0073 -3.0782
  348MOL0     H45910   9.264   9.609   4.651 -0.1131 -1.8196 -3.6877
  348MOL0     H45911   9.161   9.476   4.660 -0.2304  1.6776 -2.1521
  348MOL0     H45912   9.322   9.359   4.822 -0.3437 -1.8276 -1.7993
  348MOL0     H45913   9.399   9.518   4.828  1.7955  1.1612 -1.9441
  348MOL0     H45914   9.352   9.375   4.555 -0.2860 -1.8005  1.8998
  348MOL0     H45915   9.475   9.487   4.593  0.5800 -2.2607 -0.1968
  348MOL0     H45916   9.581   9.317   4.751  3.8908 -1.2658 -1.7153
  348MOL0     H45917   9.579   9.261   4.581 -2.3581  0.3919 -2.9578
  348MOL0     H45918   9.011   9.104   5.256  0.1379 -1.5819 -2.4660
  348MOL0     H45919   8.808   8.997   5.370  2.4147  0.9128  1.2301
  348MOL0     H45920   8.554   8.918   5.718 -1.4196 -0.7460  1.5245
  348MOL0     H45921   8.445   8.714   5.759  1.6700 -0.2440 -0.0416
  348MOL0     H45922   8.499   8.287   5.065 -0.1655  0.3203 -0.0939
  348MOL0     H45923   8.477   8.191   4.829 -1.3252  0.9506 -2.5824
  348MOL0     H45924   8.064   7.838   4.552 -0.1529  0.1287  0.3829
  348MOL0     H45925   8.011   7.804   4.322  0.3750 -1.0273 -1.6860
  348MOL0     H45926   8.064   7.996   3.916 -4.1925  1.3105  0.7534
  348MOL0     H45927   8.214   8.044   3.984  0.7400 -3.6896  1.9722
  348MOL0     H45928   7.943   8.161   4.075 -0.5848 -0.5060 -1.8115
  348MOL0     H45929   8.104   8.241   4.091  3.8559 -4.3124  0.9331
  348MOL0     H45930   7.939   8.330   3.915  0.3076 -2.1632  1.6236
  348MOL0     H45931   7.943   8.174   3.840 -0.7939 -0.0158  1.3340
  348MOL0     H45932   8.097   8.397   3.769  1.4853  0.9483  3.0608
  348MOL0     H45933   8.218   8.283   3.859  2.4801 -0.4486 -4.0719
  348MOL0     H45934   8.168   8.087   3.498  1.1295 -2.3191  1.9505
  348MOL0     H45935   8.247   8.150   4.211  1.0114 -0.7919 -0.2799
  348MOL0     H45936   8.278   8.199   4.438 -0.3187  0.7932 -1.4329
  349MOL0     O45937   7.731   4.510   6.545  0.3734 -0.3925 -0.3208
  349MOL0     C45938   7.646   4.597   6.547  0.1802  1.6501 -0.7398
  349MOL0     O45939   7.614   4.693   6.647  0.1815  0.3506  0.4438
  349MOL0     C45940   7.681   4.673   6.766 -0.4198 -0.3990  1.2961
  349MOL0     C45941   7.808   4.731   6.799  0.7490  0.6476  0.9267
  349MOL0     C45942   7.852   4.721   6.931  0.3614 -0.5440  0.4971
  349MOL0     C45943   7.774   4.659   7.031 -0.6870 -0.3369  0.2320
  349MOL0     O45944   7.810   4.653   7.161 -0.7157  0.0282  0.1076
  349MOL0     C45945   7.936   4.588   7.180 -0.5129 -0.2074  0.9915
  349MOL0     C45946   7.969   4.545   7.317  0.7952 -0.4553 -0.6726
  349MOL0     C45947   7.872   4.623   7.417 -0.0179  0.3370  0.0566
  349MOL0     C45948   7.894   4.585   7.575 -0.4101 -0.7541  0.3281
  349MOL0     C45949   7.833   4.695   7.666 -0.0406  1.0244 -0.4772
  349MOL0     C45950   7.877   4.680   7.813 -0.1387  0.4224 -0.3916
  349MOL0     C45951   7.837   4.821   7.890 -0.2061  1.0386 -0.1566
  349MOL0     C45952   7.708   4.886   7.855  0.4644  0.8065 -0.6853
  349MOL0     N45953   7.732   5.008   7.769  0.9407  0.1944 -0.0543
  349MOL0     C45954   7.624   5.088   7.750 -0.1912 -0.4406  0.2057
  349MOL0     C45955   7.658   5.181   7.663 -0.6307  0.3608 -1.4173
  349MOL0     C45956   7.567   5.285   7.613  0.9860 -0.3685  0.2371
  349MOL0     C45957   7.596   5.345   7.473 -0.6054  0.2756  0.0670
  349MOL0     C45958   7.478   5.424   7.426 -0.4347  0.4792  0.1732
  349MOL0     C45959   7.499   5.487   7.286 -0.6096  0.6430  1.1589
  349MOL0     O45960   7.455   5.389   7.186  1.0473  0.0621  0.0312
  349MOL0     C45961   7.438   5.439   7.061  0.3986 -0.2361  0.4122
  349MOL0     C45962   7.385   5.355   6.969  0.5342 -0.0975  0.0415
  349MOL0     C45963   7.363   5.391   6.839 -0.0597  0.7696  0.5396
  349MOL0     C45964   7.391   5.516   6.784 -0.0874 -0.4847 -0.3694
  349MOL0     C45965   7.371   5.549   6.637 -0.7149  0.7385 -0.3359
  349MOL0     O45966   7.323   5.449   6.562 -0.2462  0.4974  0.3385
  349MOL0     C45967   7.274   5.478   6.440 -0.0043 -0.8007  0.0907
  349MOL0     C45968   7.145   5.440   6.412 -0.4915 -0.4649 -0.9046
  349MOL0     C45969   7.085   5.459   6.289  0.4063  1.4278  0.7315
  349MOL0     C45970   7.154   5.523   6.189 -0.5073 -0.3052 -0.2725
  349MOL0     O45971   7.101   5.550   6.070  0.6988 -0.3797  0.2112
  349MOL0     C45972   6.958   5.562   6.057 -0.2265  0.3058  0.7590
  349MOL0     C45973   6.917   5.656   5.942 -0.0766  0.1781 -0.5210
  349MOL0     C45974   6.766   5.629   5.911  0.9797 -0.7051 -0.3372
  349MOL0     C45975   6.685   5.751   5.849  0.9480 -0.1988 -0.3380
  349MOL0     C45976   6.544   5.725   5.838  0.0089  0.1960 -0.8143
  349MOL0     C45977   6.477   5.828   5.740 -0.2059  0.4386 -1.1912
  349MOL0     C45978   6.514   5.816   5.591 -0.5820  0.0628  1.9136
  349MOL0     C45979   6.452   5.931   5.516  0.6620 -0.4027  0.0546
  349MOL0    Cl45980   6.278   5.905   5.507  0.4426  0.2153  0.2004
  349MOL0     C45981   7.287   5.548   6.211 -0.1952 -0.0849  0.6291
  349MOL0     C45982   7.349   5.529   6.332 -0.6647  0.7371 -0.8040
  349MOL0     O45983   7.390   5.667   6.593  0.4385 -0.8634 -0.0040
  349MOL0     C45984   7.453   5.597   6.872 -0.0759 -0.0564 -0.9410
  349MOL0     C45985   7.480   5.563   7.014 -0.8623  0.2972  0.8515
  349MOL0     N45986   7.795   5.180   7.645  0.1259 -0.6083 -0.2013
  349MOL0     N45987   7.831   5.065   7.704 -0.5432  0.0252 -0.9353
  349MOL0     C45988   7.649   4.608   6.998 -0.1311  0.9496  0.2982
  349MOL0     C45989   7.596   4.617   6.867  0.3121 -0.2002  0.4015
  349MOL0     C45990   7.547   4.613   6.436  0.0870 -0.1047 -0.4859
  349MOL0     C45991   7.438   4.705   6.444 -0.1906  0.8292 -0.3877
  349MOL0     C45992   7.357   4.722   6.328  0.0475 -0.1849 -0.3149
  349MOL0     C45993   7.382   4.652   6.208  0.5773  0.4390  0.7575
  349MOL0     O45994   7.296   4.676   6.104  0.3226  0.7623 -0.0041
  349MOL0     C45995   7.354   4.741   5.998 -0.4526 -0.1055  0.1990
  349MOL0     C45996   7.380   4.891   6.027  0.7130 -0.5185 -0.1128
  349MOL0     C45997   7.407   4.967   5.897 -0.1489 -0.2560  1.7056
  349MOL0     C45998   7.464   5.113   5.927 -0.0935 -0.7805  0.1700
  349MOL0     C45999   7.399   5.210   5.838  1.2555  0.1716 -0.4202
  349MOL0     C46000   7.334   5.308   5.808  0.3057 -0.9082  0.7379
  349MOL0     C46001   7.484   4.559   6.198 -0.2491  0.4634 -0.0151
  349MOL0     C46002   7.563   4.540   6.316 -0.2125  0.8189  0.4682
  349MOL0     H46003   7.863   4.772   6.715 -2.3344 -0.3231 -1.7544
  349MOL0     H46004   7.944   4.773   6.957  0.0080  0.1874  0.2821
  349MOL0     H46005   8.006   4.668   7.154 -2.0365  0.7032 -0.4803
  349MOL0     H46006   7.961   4.501   7.118  3.5026  0.6071  1.2073
  349MOL0     H46007   8.071   4.572   7.347  0.6014 -1.9940  1.6317
  349MOL0     H46008   7.958   4.439   7.340 -1.4273 -0.0342  0.4877
  349MOL0     H46009   7.771   4.589   7.392  0.8860  0.4525 -4.6701
  349MOL0     H46010   7.882   4.727   7.386  0.8772 -0.0235 -0.9311
  349MOL0     H46011   7.844   4.490   7.594 -1.8390 -0.3774 -1.2784
  349MOL0     H46012   8.002   4.583   7.594 -0.2200 -1.9773 -0.7202
  349MOL0     H46013   7.727   4.669   7.656 -0.3786  2.5053 -1.0850
  349MOL0     H46014   7.842   4.798   7.629 -1.9399  1.2056 -0.5484
  349MOL0     H46015   7.982   4.654   7.826 -0.4946 -1.0180 -0.2047
  349MOL0     H46016   7.825   4.594   7.855  0.2356 -0.6694 -2.0708
  349MOL0     H46017   7.843   4.805   7.999  0.0691 -2.1228 -0.5242
  349MOL0     H46018   7.913   4.895   7.865 -0.3330  0.9013 -0.9471
  349MOL0     H46019   7.653   4.911   7.946  1.3439 -2.9772  1.0883
  349MOL0     H46020   7.643   4.814   7.805  2.2303  0.1408 -2.1449
  349MOL0     H46021   7.533   5.063   7.804  1.7554 -4.4453  2.0814
  349MOL0     H46022   7.550   5.363   7.688 -2.2321 -2.5170  1.9660
  349MOL0     H46023   7.472   5.231   7.602  0.9093 -0.0664 -0.6870
  349MOL0     H46024   7.617   5.255   7.414 -1.6415 -0.4010  0.7057
  349MOL0     H46025   7.680   5.416   7.473  2.6118 -3.1174  2.4869
  349MOL0     H46026   7.401   5.348   7.411 -1.6718  0.9310  3.3588
  349MOL0     H46027   7.444   5.503   7.494  0.3607  0.7601  0.2604
  349MOL0     H46028   7.604   5.498   7.259 -0.1539 -2.8594  1.0281
  349MOL0     H46029   7.451   5.585   7.272  1.6332  1.5526 -0.9518
  349MOL0     H46030   7.362   5.254   7.000 -0.3697 -0.9691 -3.1088
  349MOL0     H46031   7.305   5.328   6.772 -0.8761  0.7633  1.2302
  349MOL0     H46032   7.075   5.412   6.490  0.1485  0.8392  0.1657
  349MOL0     H46033   6.989   5.411   6.280  1.6122 -0.6799 -4.3830
  349MOL0     H46034   6.907   5.601   6.146 -0.8586  0.5239  0.3063
  349MOL0     H46035   6.927   5.458   6.044  2.1094 -0.5373  1.4211
  349MOL0     H46036   6.978   5.651   5.852  0.0572  1.9656 -0.5558
  349MOL0     H46037   6.928   5.761   5.970  0.2128  0.5866 -2.0961
  349MOL0     H46038   6.712   5.625   6.006 -1.6038  3.0090 -1.4150
  349MOL0     H46039   6.759   5.536   5.853 -3.4038 -1.3730  0.8550
  349MOL0     H46040   6.695   5.843   5.909  1.2440 -1.6490  1.9603
  349MOL0     H46041   6.725   5.765   5.749 -1.6416 -2.4390 -1.8277
  349MOL0     H46042   6.495   5.731   5.936  0.3407  1.9620 -0.7386
  349MOL0     H46043   6.525   5.621   5.809 -2.6132 -0.3750  2.2645
  349MOL0     H46044   6.499   5.931   5.771  0.4189  0.6774 -2.3718
  349MOL0     H46045   6.372   5.799   5.737 -0.0177 -0.1866 -2.0112
  349MOL0     H46046   6.623   5.816   5.584 -0.6675 -0.2965 -0.3144
  349MOL0     H46047   6.480   5.726   5.540 -0.0912  0.9580 -0.0967
  349MOL0     H46048   6.489   5.922   5.414 -0.5858 -2.1636 -0.2919
  349MOL0     H46049   6.469   6.021   5.577  0.9461 -0.1582 -0.3791
  349MOL0     H46050   7.350   5.590   6.133 -0.1227 -1.4628 -0.0827
  349MOL0     H46051   7.449   5.554   6.367 -1.7770  3.0705  0.9738
  349MOL0     H46052   7.483   5.699   6.848 -0.7768  0.5870  0.7287
  349MOL0     H46053   7.537   5.635   7.072  0.0561 -0.0253  0.3664
  349MOL0     H46054   7.580   4.563   7.069 -0.5968  0.4113 -0.4861
  349MOL0     H46055   7.492   4.584   6.865 -0.0938 -0.0266  5.8168
  349MOL0     H46056   7.419   4.767   6.531 -0.3411 -0.1181  0.2659
  349MOL0     H46057   7.275   4.793   6.325  0.3850  0.2178 -0.1381
  349MOL0     H46058   7.301   4.733   5.903 -0.5280 -0.0313  0.2341
  349MOL0     H46059   7.455   4.706   5.977 -0.2866  0.1257  0.5962
  349MOL0     H46060   7.306   4.940   6.091 -3.0689 -3.3953 -1.8543
  349MOL0     H46061   7.466   4.890   6.095  0.8487 -0.2298 -0.2808
  349MOL0     H46062   7.306   4.968   5.854  0.0695  0.5428  1.1936
  349MOL0     H46063   7.485   4.914   5.841  0.3729  1.9391  0.2334
  349MOL0     H46064   7.429   5.130   6.030 -1.4317  0.8518 -0.5144
  349MOL0     H46065   7.572   5.126   5.923  0.0144 -1.1757  1.2546
  349MOL0     H46066   7.286   5.404   5.804 -1.2512 -1.4970 -5.5733
  349MOL0     H46067   7.492   4.504   6.105 -4.0203 -0.7065  0.1838
  349MOL0     H46068   7.638   4.462   6.317 -1.6912 -0.7104 -0.9595
  350MOL0     O46069   7.556   6.752   9.057  0.7672 -0.6515  0.1483
  350MOL0     C46070   7.432   6.774   9.094 -0.9128 -0.1480 -0.5867
  350MOL0     O46071   7.383   6.879   9.167 -0.4915 -0.2201  0.4151
  350MOL0     C46072   7.465   6.960   9.235 -0.2440 -1.2098  0.2297
  350MOL0     C46073   7.606   6.969   9.238  0.3164  0.7258  0.3572
  350MOL0     C46074   7.675   7.065   9.316 -0.6128  0.6888 -0.6513
  350MOL0     C46075   7.598   7.159   9.384 -0.1177 -1.0735 -0.3524
  350MOL0     O46076   7.641   7.259   9.463  0.1703 -0.1093 -0.1004
  350MOL0     C46077   7.774   7.248   9.518  1.0620  0.2682  0.3431
  350MOL0     C46078   7.784   7.133   9.625  0.1235 -1.3885  0.0422
  350MOL0     C46079   7.883   7.143   9.728 -0.1082  1.7057 -0.5026
  350MOL0     C46080   7.876   7.007   9.811 -0.6663 -0.2543  0.0972
  350MOL0     C46081   7.977   6.986   9.923 -0.2406  0.4294  0.6907
  350MOL0     C46082   7.944   6.882  10.024  0.5204  0.4512 -0.2194
  350MOL0     C46083   8.041   6.882  10.145  1.1044 -0.4060  0.6176
  350MOL0     C46084   8.175   6.811  10.114 -0.4248  0.6617 -0.3571
  350MOL0     N46085   8.181   6.669  10.119 -0.7647  0.4185  0.0527
  350MOL0     C46086   8.080   6.575  10.089 -0.2145  0.4341 -0.8298
  350MOL0     C46087   8.113   6.446  10.123  0.5107 -0.6983  0.2649
  350MOL0     C46088   8.009   6.333  10.121  0.1255 -0.0155  0.9772
  350MOL0     C46089   8.053   6.240  10.011 -0.9987  0.7269  0.9364
  350MOL0     C46090   8.049   6.304   9.877 -1.1713 -1.8686  0.1237
  350MOL0     C46091   8.132   6.217   9.775  0.3090 -0.4174  0.4106
  350MOL0     O46092   8.204   6.294   9.679  0.4309  0.2422  0.5247
  350MOL0     C46093   8.338   6.324   9.693  0.9410  0.0168  0.0474
  350MOL0     C46094   8.417   6.345   9.576  0.2464 -0.3511  0.7125
  350MOL0     C46095   8.552   6.360   9.586 -1.2083  0.2992 -0.1744
  350MOL0     C46096   8.614   6.373   9.712  0.6601 -0.2541 -1.2153
  350MOL0     C46097   8.758   6.381   9.728  0.1431 -0.1113 -0.1277
  350MOL0     O46098   8.825   6.411   9.609 -0.4134  0.3894  0.4105
  350MOL0     C46099   8.956   6.458   9.620  0.6277 -0.0306  0.8356
  350MOL0     C46100   9.058   6.373   9.584  0.5587  0.2241  0.3833
  350MOL0     C46101   9.190   6.405   9.603  0.4120 -0.5203  0.3883
  350MOL0     C46102   9.227   6.525   9.654 -0.5052 -0.8822 -0.2495
  350MOL0     O46103   9.361   6.541   9.679 -0.4076  0.9042  0.5110
  350MOL0     C46104   9.405   6.668   9.728 -0.1757 -0.4525  0.6483
  350MOL0     C46105   9.551   6.659   9.789 -0.1065  0.0111 -0.2443
  350MOL0     C46106   9.616   6.782   9.844  0.1708 -0.5056  0.2077
  350MOL0     C46107   9.749   6.752   9.892  0.6048  0.2050  1.0926
  350MOL0     C46108   9.836   6.869   9.911  0.2710  0.2313 -0.0745
  350MOL0     C46109   9.783   6.943  10.032  0.3755  0.3340  0.0534
  350MOL0     C46110   9.868   7.067  10.018 -0.6344  0.5788  0.3904
  350MOL0     C46111   9.845   7.160  10.133  0.5814 -0.2565 -0.2114
  350MOL0    Cl46112   9.940   7.099  10.277  0.0253  0.0276 -0.1845
  350MOL0     C46113   9.128   6.624   9.676 -0.0967  0.6587 -1.1507
  350MOL0     C46114   8.991   6.590   9.672  0.8702  0.3935  1.1618
  350MOL0     O46115   8.799   6.397   9.845 -0.5021 -0.3107  0.0791
  350MOL0     C46116   8.531   6.376   9.830  0.7724  0.0501  0.4848
  350MOL0     C46117   8.398   6.334   9.817  0.1011 -0.5578 -0.5279
  350MOL0     N46118   8.242   6.465  10.176 -0.2015 -0.3632  0.2405
  350MOL0     N46119   8.276   6.592  10.184  0.7926  0.4632  0.1471
  350MOL0     C46120   7.465   7.155   9.364  0.6103  0.1536  0.0894
  350MOL0     C46121   7.394   7.060   9.297 -0.5208  0.7226  0.8100
  350MOL0     C46122   7.328   6.676   9.051  0.5266  0.6887  0.0366
  350MOL0     C46123   7.200   6.716   9.021  1.0617  0.1187 -0.2248
  350MOL0     C46124   7.095   6.623   8.997 -0.3318 -1.1258  0.7375
  350MOL0     C46125   7.130   6.496   8.977 -0.1127 -0.3242  0.3749
  350MOL0     O46126   7.053   6.398   8.941  0.3784  0.2335  0.6384
  350MOL0     C46127   6.953   6.436   8.840 -0.4117  0.3621 -1.4594
  350MOL0     C46128   6.976   6.346   8.712 -0.1164  1.2447 -0.5991
  350MOL0     C46129   6.846   6.355   8.625  0.7099 -0.1561 -0.5913
  350MOL0     C46130   6.861   6.287   8.492  0.5618  0.1128  1.0779
  350MOL0     C46131   6.865   6.147   8.515  0.2496 -0.6748 -0.0475
  350MOL0     C46132   6.871   6.035   8.547  1.1191 -0.5590 -0.0530
  350MOL0     C46133   7.264   6.454   9.007  0.1369 -0.1296  0.1207
  350MOL0     C46134   7.361   6.543   9.040 -0.3276  1.0110  0.1146
  350MOL0     H46135   7.679   6.911   9.182  1.2595 -0.6289  2.8676
  350MOL0     H46136   7.783   7.067   9.315 -0.5322 -0.7994 -2.6781
  350MOL0     H46137   7.787   7.339   9.578  1.3625  0.5820 -0.1964
  350MOL0     H46138   7.843   7.258   9.434  2.6314 -2.2066  1.2291
  350MOL0     H46139   7.783   7.039   9.569 -1.4477 -0.6647 -1.2290
  350MOL0     H46140   7.688   7.136   9.678 -0.3577  2.7342 -0.7503
  350MOL0     H46141   7.865   7.221   9.801 -2.2862  2.3315 -1.6292
  350MOL0     H46142   7.979   7.160   9.678  0.4034 -1.4540 -0.8095
  350MOL0     H46143   7.775   6.996   9.851 -2.0827 -0.4795 -3.2071
  350MOL0     H46144   7.888   6.922   9.742  2.1740 -0.9639  1.2938
  350MOL0     H46145   7.978   7.081   9.979  0.1265  1.1478 -0.4988
  350MOL0     H46146   8.074   6.979   9.873 -2.1024 -2.6637 -2.9153
  350MOL0     H46147   7.928   6.787   9.973 -2.8633 -0.5860  2.3668
  350MOL0     H46148   7.845   6.900  10.067  1.1804 -0.3377  1.7251
  350MOL0     H46149   8.068   6.977  10.190 -0.2836  1.1592 -1.6283
  350MOL0     H46150   7.977   6.830  10.218  0.0940 -0.5520 -0.3419
  350MOL0     H46151   8.247   6.847  10.188 -0.2181  0.6508 -0.5528
  350MOL0     H46152   8.222   6.834  10.018  3.6848 -3.1452  0.4110
  350MOL0     H46153   7.993   6.606  10.032 -0.0174  0.6224 -1.0325
  350MOL0     H46154   7.914   6.381  10.099  1.1841  1.3960 -0.7753
  350MOL0     H46155   8.011   6.276  10.214  0.4264 -1.5382  0.0704
  350MOL0     H46156   7.998   6.146  10.012 -0.0817  0.1874  1.5537
  350MOL0     H46157   8.159   6.215  10.020 -0.7481  0.4547 -1.7179
  350MOL0     H46158   7.947   6.315   9.840 -1.0426  1.6561  0.5490
  350MOL0     H46159   8.102   6.399   9.872  0.1496 -2.6304 -1.7834
  350MOL0     H46160   8.046   6.163   9.733  0.7963 -0.9619  0.0898
  350MOL0     H46161   8.189   6.132   9.816 -1.9118 -2.6785 -0.8714
  350MOL0     H46162   8.372   6.330   9.478  2.6579 -0.2210 -0.4921
  350MOL0     H46163   8.610   6.374   9.495  5.2869 -2.5686  2.8627
  350MOL0     H46164   9.017   6.283   9.540 -2.9994  3.0002 -2.6674
  350MOL0     H46165   9.271   6.333   9.595  1.6773  0.9878 -1.0741
  350MOL0     H46166   9.348   6.718   9.808 -2.1623  0.2762 -1.1240
  350MOL0     H46167   9.414   6.741   9.647 -1.9625 -2.0743 -1.1330
  350MOL0     H46168   9.630   6.628   9.719  2.6465  3.4037  1.0746
  350MOL0     H46169   9.551   6.582   9.866 -1.9063  2.7609  2.7239
  350MOL0     H46170   9.549   6.837   9.911 -0.1161 -4.0737  3.1211
  350MOL0     H46171   9.636   6.841   9.754 -0.9166  0.0934  0.3386
  350MOL0     H46172   9.740   6.696   9.986  0.9467  1.1257  1.6964
  350MOL0     H46173   9.798   6.681   9.825 -0.3919  1.1518 -0.7240
  350MOL0     H46174   9.834   6.924   9.816 -2.0583 -3.2386 -2.2791
  350MOL0     H46175   9.939   6.831   9.919  1.2402  2.7403  0.2108
  350MOL0     H46176   9.803   6.890  10.125 -0.6603 -1.3516 -0.6401
  350MOL0     H46177   9.676   6.966  10.034  0.8702  2.9439  0.6321
  350MOL0     H46178   9.975   7.043  10.022 -0.1178  2.6802  0.3292
  350MOL0     H46179   9.851   7.127   9.928 -0.1376  1.5528  0.9337
  350MOL0     H46180   9.738   7.148  10.152  0.2815  0.0137 -1.6324
  350MOL0     H46181   9.862   7.268  10.128 -3.3486  0.7316  2.3464
  350MOL0     H46182   9.157   6.724   9.707  1.5785 -0.2538  0.4478
  350MOL0     H46183   8.910   6.660   9.693 -0.6310 -0.0623 -2.3744
  350MOL0     H46184   8.579   6.397   9.925 -1.1033  2.9194  0.9170
  350MOL0     H46185   8.322   6.348   9.893  0.9908 -2.4789  0.7915
  350MOL0     H46186   7.401   7.225   9.417 -0.1612 -0.9880  0.6980
  350MOL0     H46187   7.287   7.051   9.283 -0.1374 -0.7523 -1.6690
  350MOL0     H46188   7.168   6.820   9.032 -1.7208 -0.8229  1.7410
  350MOL0     H46189   6.995   6.662   8.983  0.1032 -0.9816 -3.0962
  350MOL0     H46190   6.946   6.541   8.809  0.3682  0.4801 -1.2509
  350MOL0     H46191   6.862   6.419   8.899  2.1276  3.9845  4.3843
  350MOL0     H46192   7.063   6.384   8.656  0.6350 -1.1979 -1.2121
  350MOL0     H46193   7.014   6.249   8.745 -1.4176  1.0091  0.2613
  350MOL0     H46194   6.825   6.461   8.605  1.8952  0.8987  2.8583
  350MOL0     H46195   6.768   6.306   8.685 -0.1576  0.3584 -1.2768
  350MOL0     H46196   6.776   6.312   8.428  0.9449 -1.3332 -0.0473
  350MOL0     H46197   6.954   6.313   8.441 -1.9834  2.7842 -2.7898
  350MOL0     H46198   6.861   5.930   8.568 -1.3752 -0.3290  0.2256
  350MOL0     H46199   7.292   6.350   8.994  1.7982  0.0715  1.7274
  350MOL0     H46200   7.459   6.507   9.070  1.5120  4.9223 -0.6745
  351MOL0     O46201   4.057   1.988   0.486 -0.4059 -0.9620  0.9313
  351MOL0     C46202   4.017   1.959   0.375 -0.2884 -0.3336  0.9523
  351MOL0     O46203   3.947   1.847   0.340  0.3179 -0.2675  0.7174
  351MOL0     C46204   3.884   1.760   0.429 -0.1396 -0.1209 -0.2371
  351MOL0     C46205   3.853   1.792   0.570  0.1265  0.1697 -0.5773
  351MOL0     C46206   3.798   1.695   0.653 -0.2612  0.0631  0.5629
  351MOL0     C46207   3.761   1.556   0.605  0.6516 -0.1465 -0.3952
  351MOL0     O46208   3.699   1.465   0.683 -0.6066 -0.5642 -0.4465
  351MOL0     C46209   3.605   1.507   0.788  0.3803  0.2468  0.0430
  351MOL0     C46210   3.671   1.458   0.912 -0.4791 -0.5690  0.2333
  351MOL0     C46211   3.579   1.408   1.017  1.0485  0.4647 -0.0190
  351MOL0     C46212   3.613   1.356   1.154 -0.7019  0.3405 -0.6302
  351MOL0     C46213   3.718   1.437   1.229 -1.2104 -0.4009 -0.4090
  351MOL0     C46214   3.761   1.378   1.364 -0.1986 -0.6055 -0.1040
  351MOL0     C46215   3.836   1.474   1.455 -0.3856 -0.3720 -0.0659
  351MOL0     C46216   3.967   1.541   1.400 -0.1537  1.0798  0.2686
  351MOL0     N46217   4.004   1.641   1.497  0.0162  0.1875  0.3137
  351MOL0     C46218   4.113   1.639   1.583  1.4202 -0.0478  1.6122
  351MOL0     C46219   4.107   1.747   1.657 -0.1667  0.3465  0.5587
  351MOL0     C46220   4.185   1.794   1.765 -0.9491 -0.1893  0.7928
  351MOL0     C46221   4.337   1.771   1.742  0.5678  0.9114  0.1630
  351MOL0     C46222   4.421   1.832   1.857  0.2741  0.4998  0.2585
  351MOL0     C46223   4.394   1.809   2.005  0.4624  0.2220  0.0748
  351MOL0     O46224   4.508   1.839   2.087 -0.1354 -0.1139 -0.5761
  351MOL0     C46225   4.499   1.830   2.231  0.0051 -0.4371  0.2579
  351MOL0     C46226   4.601   1.870   2.316  1.0321  0.2005 -0.3427
  351MOL0     C46227   4.592   1.849   2.456 -0.4795  0.3396 -0.1403
  351MOL0     C46228   4.473   1.801   2.516  0.5457  0.0217 -0.0419
  351MOL0     C46229   4.471   1.785   2.662  0.1232  0.7558  0.0360
  351MOL0     O46230   4.383   1.695   2.702 -0.4892  0.9701 -0.3908
  351MOL0     C46231   4.356   1.677   2.840 -0.1185  0.3796  0.4055
  351MOL0     C46232   4.446   1.602   2.915  0.4650  0.7308  0.5045
  351MOL0     C46233   4.421   1.592   3.057 -0.6991  0.5053  0.5571
  351MOL0     C46234   4.303   1.641   3.109 -0.1855  0.5569 -0.0146
  351MOL0     O46235   4.270   1.634   3.240  0.1856  0.2082 -0.8127
  351MOL0     C46236   4.375   1.639   3.343  1.0744  0.1925 -0.8784
  351MOL0     C46237   4.318   1.645   3.485  0.2013 -0.2626  0.3536
  351MOL0     C46238   4.228   1.529   3.533  0.0861  0.3231  1.3683
  351MOL0     C46239   4.204   1.517   3.676 -0.0991  0.3207 -0.2396
  351MOL0     C46240   4.105   1.404   3.708  1.2201  0.4744  0.0334
  351MOL0     C46241   4.068   1.409   3.856 -0.4927 -0.7122 -1.2929
  351MOL0     C46242   3.958   1.515   3.891  0.1813  0.1446  0.9123
  351MOL0     C46243   3.951   1.556   4.037  0.3913  0.2444 -0.2295
  351MOL0    Cl46244   4.099   1.640   4.079  0.1677 -0.1888 -0.2080
  351MOL0     C46245   4.213   1.704   3.030  0.8618 -0.5955 -0.2052
  351MOL0     C46246   4.243   1.731   2.900 -0.4439 -0.3494  0.6345
  351MOL0     O46247   4.543   1.853   2.733 -0.4245 -0.1497 -0.3898
  351MOL0     C46248   4.369   1.771   2.430  0.7969  0.5027  0.4404
  351MOL0     C46249   4.380   1.781   2.293  0.0324  0.4423  0.5945
  351MOL0     N46250   3.989   1.808   1.641  0.7207 -0.4840  0.4925
  351MOL0     N46251   3.931   1.751   1.534 -0.7875  0.1282 -1.5290
  351MOL0     C46252   3.790   1.537   0.469  0.6012 -0.7080  0.5447
  351MOL0     C46253   3.851   1.632   0.384  0.0901  0.3860 -0.8571
  351MOL0     C46254   4.032   2.065   0.275 -0.3873 -0.4008  0.2090
  351MOL0     C46255   3.950   2.069   0.160 -0.7717 -0.6012 -0.1097
  351MOL0     C46256   3.973   2.153   0.054 -0.2297  0.4041 -0.3434
  351MOL0     C46257   4.055   2.267   0.072  0.3268  0.0289  0.0920
  351MOL0     O46258   4.072   2.370  -0.012  0.3601  0.2427 -0.2479
  351MOL0     C46259   3.998   2.384  -0.133  0.7801 -0.1158  0.2476
  351MOL0     C46260   4.050   2.499  -0.222 -0.2695  0.3976  0.0449
  351MOL0     C46261   4.196   2.463  -0.271 -0.1984 -0.3908  0.4303
  351MOL0     C46262   4.223   2.550  -0.409  0.3525  0.0948 -0.2047
  351MOL0     C46263   4.241   2.685  -0.362 -0.5454  0.2905 -0.0814
  351MOL0     C46264   4.247   2.792  -0.313 -0.2347 -0.2693  0.2874
  351MOL0     C46265   4.136   2.279   0.190  0.2314  0.4290 -0.2592
  351MOL0     C46266   4.129   2.173   0.284  1.1250  0.0659  0.4384
  351MOL0     H46267   3.857   1.893   0.609 -0.9099  1.0409 -2.5626
  351MOL0     H46268   3.778   1.727   0.755 -0.3692  1.9940 -0.0110
  351MOL0     H46269   3.510   1.453   0.780  1.0327 -0.7509 -1.3159
  351MOL0     H46270   3.585   1.614   0.779  1.3261  0.3221 -1.4903
  351MOL0     H46271   3.728   1.547   0.943 -1.9916  1.0812 -1.4345
  351MOL0     H46272   3.735   1.373   0.891  0.4255  0.4566 -1.3543
  351MOL0     H46273   3.522   1.323   0.980 -0.7370  0.9578  1.4533
  351MOL0     H46274   3.506   1.484   1.046  1.7532  0.9370  0.5571
  351MOL0     H46275   3.525   1.335   1.214  1.0974  1.2912  2.6045
  351MOL0     H46276   3.661   1.258   1.141  2.6495  1.2627  2.7769
  351MOL0     H46277   3.684   1.538   1.256 -4.4506 -1.2256 -0.9455
  351MOL0     H46278   3.807   1.447   1.166  0.0049  0.6455  1.3795
  351MOL0     H46279   3.828   1.294   1.344  1.4208  0.6289 -0.1664
  351MOL0     H46280   3.668   1.344   1.410 -1.5024  2.7256 -0.0249
  351MOL0     H46281   3.779   1.563   1.484  4.2013  2.2853  1.9564
  351MOL0     H46282   3.864   1.426   1.549  3.6130  3.2616  0.9366
  351MOL0     H46283   3.953   1.591   1.304 -0.9450  0.3565 -0.0101
  351MOL0     H46284   4.057   1.480   1.394 -1.5860 -1.2700  1.2285
  351MOL0     H46285   4.191   1.564   1.575  0.4490 -0.9519 -0.0010
  351MOL0     H46286   4.151   1.741   1.855 -2.3019 -0.9749 -0.1465
  351MOL0     H46287   4.174   1.903   1.768  2.5561  0.2647  1.2521
  351MOL0     H46288   4.365   1.814   1.645  0.9479 -0.4115 -0.3405
  351MOL0     H46289   4.367   1.667   1.730  3.2699  1.6512 -0.1253
  351MOL0     H46290   4.521   1.804   1.824 -0.5466 -3.1142  0.4744
  351MOL0     H46291   4.413   1.941   1.852 -0.0500  0.4230 -2.1368
  351MOL0     H46292   4.369   1.702   2.000  1.2861  0.0629 -1.5047
  351MOL0     H46293   4.303   1.864   2.029 -0.9495 -1.7154 -0.6124
  351MOL0     H46294   4.686   1.921   2.272  0.0784  1.5508 -0.6893
  351MOL0     H46295   4.682   1.882   2.505 -2.1944  0.3762  3.2635
  351MOL0     H46296   4.538   1.559   2.874  0.4152 -1.0668  2.1362
  351MOL0     H46297   4.491   1.524   3.105  0.0455  1.4333  0.8024
  351MOL0     H46298   4.443   1.723   3.337  0.3552  1.0857  1.8310
  351MOL0     H46299   4.423   1.541   3.344 -0.3290 -0.6006  2.4151
  351MOL0     H46300   4.277   1.746   3.497  5.3572  1.9004  2.5651
  351MOL0     H46301   4.406   1.656   3.548  0.7885  2.1031 -0.7496
  351MOL0     H46302   4.275   1.436   3.501  1.5359  1.7125 -0.8615
  351MOL0     H46303   4.133   1.535   3.479  0.8678  0.7435 -0.0006
  351MOL0     H46304   4.299   1.506   3.729  0.2203 -2.4824 -1.1899
  351MOL0     H46305   4.163   1.609   3.719  3.9915  2.0921  0.3902
  351MOL0     H46306   4.155   1.308   3.689 -0.2026 -0.2945 -0.0104
  351MOL0     H46307   4.015   1.395   3.646  2.1539 -3.0584 -1.0755
  351MOL0     H46308   4.152   1.414   3.926 -1.8542 -5.7074  1.2149
  351MOL0     H46309   4.025   1.312   3.884  0.0109 -0.6411 -0.2123
  351MOL0     H46310   3.974   1.606   3.833 -2.9826 -0.4427 -1.0936
  351MOL0     H46311   3.860   1.471   3.870  1.4650 -1.8529 -1.3606
  351MOL0     H46312   3.921   1.467   4.094  0.7648 -1.5690 -2.7008
  351MOL0     H46313   3.872   1.631   4.041  1.4655  1.3654  2.3961
  351MOL0     H46314   4.120   1.740   3.073  0.4303 -0.4477 -1.2141
  351MOL0     H46315   4.180   1.793   2.837  1.3965  1.0833  0.1109
  351MOL0     H46316   4.278   1.736   2.478 -0.0042  2.6091  0.5730
  351MOL0     H46317   4.297   1.743   2.235  1.0877  2.1643 -2.2670
  351MOL0     H46318   3.762   1.438   0.432  2.6077 -1.0030 -0.2791
  351MOL0     H46319   3.862   1.610   0.278 -1.9994  1.7727 -1.4434
  351MOL0     H46320   3.878   1.988   0.147 -2.0311  0.2725  1.0257
  351MOL0     H46321   3.916   2.128  -0.035 -0.5291 -1.4846  0.3185
  351MOL0     H46322   3.891   2.398  -0.117  1.0182  1.6509  0.5091
  351MOL0     H46323   4.019   2.292  -0.189  1.2159 -0.2873  0.6848
  351MOL0     H46324   3.985   2.504  -0.310 -1.5918  1.1484  1.0268
  351MOL0     H46325   4.041   2.595  -0.169 -1.3821 -1.4589  3.5148
  351MOL0     H46326   4.212   2.360  -0.303  0.7179  0.3061 -1.5551
  351MOL0     H46327   4.277   2.487  -0.202  3.1261 -3.4844 -2.0202
  351MOL0     H46328   4.316   2.522  -0.460 -0.1342  1.3949 -1.9242
  351MOL0     H46329   4.139   2.535  -0.477 -0.6563 -1.0218  1.2309
  351MOL0     H46330   4.265   2.883  -0.258 -1.2925 -0.1245  0.4078
  351MOL0     H46331   4.196   2.368   0.206 -0.3192  0.5748  1.1667
  351MOL0     H46332   4.198   2.158   0.367  0.6174 -1.9616  0.5528
  352MOL0     O46333   4.620   9.706  10.237  0.7918  0.7517 -0.2641
  352MOL0     C46334   4.723   9.645  10.204 -0.9100  0.0683 -0.5564
  352MOL0     O46335   4.813   9.594  10.301  0.3370  0.1517  0.0407
  352MOL0     C46336   4.802   9.644  10.430  0.3894 -0.3988  0.7064
  352MOL0     C46337   4.766   9.555  10.530 -0.4500  0.5000  0.3294
  352MOL0     C46338   4.765   9.602  10.660 -0.8566  0.6393  0.5450
  352MOL0     C46339   4.773   9.740  10.689 -1.0099 -0.7197  0.0728
  352MOL0     O46340   4.775   9.774  10.824  0.6243 -0.4458  0.2064
  352MOL0     C46341   4.722   9.896  10.853  0.5915  0.0894 -0.6011
  352MOL0     C46342   4.691   9.896  10.999 -0.4049  0.0158  0.8176
  352MOL0     C46343   4.610  10.008  11.045  0.5383 -0.2138 -0.1973
  352MOL0     C46344   4.680  10.148  11.044 -0.6955 -0.8445  0.2106
  352MOL0     C46345   4.567  10.263  11.057  0.0602  0.0318 -1.2403
  352MOL0     C46346   4.542  10.291  11.209 -0.0829  0.2750 -0.4218
  352MOL0     C46347   4.475  10.420  11.229 -0.1965 -0.5698  0.4626
  352MOL0     C46348   4.378  10.412  11.338  0.3880 -0.4639  0.1449
  352MOL0     N46349   4.394  10.523  11.429  0.1607  0.2631  0.3932
  352MOL0     C46350   4.299  10.623  11.439  0.7129  1.0550  0.1299
  352MOL0     C46351   4.340  10.698  11.543  0.4255  0.6181  0.3615
  352MOL0     C46352   4.255  10.817  11.580 -0.4190  1.1047  0.4182
  352MOL0     C46353   4.193  10.783  11.720 -0.3931  0.0997 -0.1981
  352MOL0     C46354   4.088  10.672  11.701  0.0662 -0.5736 -0.2190
  352MOL0     C46355   4.046  10.616  11.836  0.4949  0.6592  0.0917
  352MOL0     O46356   3.950  10.704  11.897  0.3911  0.7689 -0.7068
  352MOL0     C46357   3.937  10.696  12.036  0.2908  0.0416 -0.8860
  352MOL0     C46358   3.821  10.635  12.084  0.2541  0.4602  0.0581
  352MOL0     C46359   3.798  10.631  12.222 -0.8487  0.5162  0.1436
  352MOL0     C46360   3.904  10.658  12.318  0.5938  0.1826 -0.9108
  352MOL0     C46361   3.888  10.624  12.463 -0.5064  0.0366  0.0316
  352MOL0     O46362   3.765  10.567  12.515  0.5182  0.5265 -0.3921
  352MOL0     C46363   3.770  10.534  12.650  0.7019  0.5718  0.6213
  352MOL0     C46364   3.828  10.414  12.694 -0.3063 -0.5917 -1.0230
  352MOL0     C46365   3.845  10.390  12.829  0.3420  0.4087  0.2901
  352MOL0     C46366   3.816  10.488  12.929 -0.2890  0.7475  0.6804
  352MOL0     O46367   3.840  10.446  13.058 -0.6234 -0.4675 -0.0095
  352MOL0     C46368   3.915  10.323  13.088  0.2346 -0.1362  0.5362
  352MOL0     C46369   3.937  10.292  13.234 -0.5336 -0.3569  0.8271
  352MOL0     C46370   4.040  10.391  13.282  0.6314  0.4201  0.2143
  352MOL0     C46371   4.092  10.353  13.424 -0.2067 -0.1296 -1.4532
  352MOL0     C46372   4.131  10.479  13.501  0.2082 -0.3378 -0.0607
  352MOL0     C46373   4.008  10.564  13.550 -0.1130 -1.3248 -0.5924
  352MOL0     C46374   4.057  10.684  13.637 -0.3717  0.5651 -0.4088
  352MOL0     C46375   3.942  10.747  13.719  0.2328  0.2522  0.1286
  352MOL0    Cl46376   3.999  10.887  13.811 -0.5242  0.3004 -0.5063
  352MOL0     C46377   3.749  10.598  12.887 -1.1816 -0.5050 -0.6848
  352MOL0     C46378   3.735  10.627  12.748 -0.3346 -0.9698  0.0425
  352MOL0     O46379   3.987  10.653  12.527 -0.1677 -0.2218  0.1937
  352MOL0     C46380   4.022  10.707  12.261  0.8688  0.3131 -0.2310
  352MOL0     C46381   4.040  10.727  12.129 -1.0315  0.1422  0.2485
  352MOL0     N46382   4.463  10.662  11.576  0.3801  0.0795  0.5040
  352MOL0     N46383   4.498  10.557  11.506 -0.1490 -0.0555  0.2431
  352MOL0     C46384   4.798   9.834  10.590  0.1852  0.4165  0.0650
  352MOL0     C46385   4.794   9.781  10.461  0.0703 -0.1441  0.4513
  352MOL0     C46386   4.752   9.627  10.058  0.4324 -0.5848 -0.3156
  352MOL0     C46387   4.661   9.657   9.954 -0.2423 -0.6159 -0.8471
  352MOL0     C46388   4.701   9.637   9.818 -1.0405 -0.4077  0.5099
  352MOL0     C46389   4.834   9.616   9.782  0.2142  0.3663 -0.1715
  352MOL0     O46390   4.866   9.619   9.650  0.4704  1.2333 -0.0365
  352MOL0     C46391   4.941   9.735   9.615  0.6103  0.0638  0.0475
  352MOL0     C46392   4.852   9.843   9.570  0.6454  0.3235  0.2130
  352MOL0     C46393   4.934   9.973   9.545  0.0312  0.1109 -1.4084
  352MOL0     C46394   4.870  10.080   9.462 -0.0213 -0.6369 -0.5403
  352MOL0     C46395   4.858  10.030   9.324  0.0806  0.2251 -0.4794
  352MOL0     C46396   4.858  10.004   9.207 -0.5300 -0.1850  0.6293
  352MOL0     C46397   4.926   9.591   9.885 -0.3560 -0.1446 -0.2321
  352MOL0     C46398   4.878   9.600  10.023  0.1957  0.2383  0.0818
  352MOL0     H46399   4.752   9.448  10.533 -0.3359  0.5024  2.5056
  352MOL0     H46400   4.738   9.532  10.739 -0.1894  2.1407  2.1455
  352MOL0     H46401   4.631   9.915  10.795 -0.1592  1.8432  1.0465
  352MOL0     H46402   4.785   9.986  10.848  0.0814  0.9095  3.6453
  352MOL0     H46403   4.783   9.895  11.058  0.0944  0.1489  0.0525
  352MOL0     H46404   4.622   9.812  11.013 -0.7648 -0.5989 -3.4672
  352MOL0     H46405   4.556   9.978  11.135 -0.6573 -1.7003 -1.3505
  352MOL0     H46406   4.534  10.012  10.966 -0.9351 -3.5756  0.8636
  352MOL0     H46407   4.760  10.159  11.118 -0.8665  0.4482  0.2206
  352MOL0     H46408   4.725  10.166  10.946 -0.8473  1.3674  0.5151
  352MOL0     H46409   4.473  10.230  11.013 -1.0962 -2.8537  2.8292
  352MOL0     H46410   4.599  10.358  11.013 -0.7851  2.0438  2.1247
  352MOL0     H46411   4.638  10.300  11.262 -0.0174  0.5897 -0.5936
  352MOL0     H46412   4.484  10.209  11.253  1.6004 -2.0704 -2.2732
  352MOL0     H46413   4.551  10.499  11.231 -0.4635 -0.2901 -0.2608
  352MOL0     H46414   4.424  10.452  11.139 -0.7883 -0.2962  0.8906
  352MOL0     H46415   4.395  10.322  11.398  0.2402  2.4142  5.1006
  352MOL0     H46416   4.275  10.415  11.303 -0.6833  1.7138  3.0420
  352MOL0     H46417   4.203  10.634  11.391  0.9232  1.1134 -0.2809
  352MOL0     H46418   4.180  10.840  11.504  0.9658 -1.2361 -1.7915
  352MOL0     H46419   4.323  10.902  11.593  1.3058  0.5221 -3.4623
  352MOL0     H46420   4.153  10.869  11.773 -0.6701 -0.0543 -0.1545
  352MOL0     H46421   4.267  10.749  11.793  0.0014 -1.5901 -1.3216
  352MOL0     H46422   3.998  10.714  11.655 -0.5094 -0.0636  1.3181
  352MOL0     H46423   4.132  10.593  11.640 -0.8619 -1.8240  0.6914
  352MOL0     H46424   4.133  10.590  11.898 -0.3878 -2.6520  0.1355
  352MOL0     H46425   3.986  10.525  11.827 -1.1324  1.7357 -0.2659
  352MOL0     H46426   3.742  10.612  12.013 -0.7124  2.4234  0.4174
  352MOL0     H46427   3.706  10.581  12.249 -0.7187 -0.6879 -1.4997
  352MOL0     H46428   3.863  10.344  12.618 -0.3200 -0.7544 -0.8800
  352MOL0     H46429   3.883  10.289  12.839  0.9643  0.2939 -2.4171
  352MOL0     H46430   4.016  10.322  13.047  0.4836 -1.2871  1.1357
  352MOL0     H46431   3.856  10.240  13.047  0.9612 -1.5707  2.2337
  352MOL0     H46432   3.963  10.186  13.243 -1.0641 -0.5044  0.6715
  352MOL0     H46433   3.838  10.311  13.277 -1.9649  1.9326 -2.9602
  352MOL0     H46434   3.996  10.491  13.275  2.6688  1.2625 -1.7175
  352MOL0     H46435   4.129  10.393  13.219  1.4891  2.5224  1.3771
  352MOL0     H46436   4.017  10.303  13.485  0.5463  0.3320 -0.0997
  352MOL0     H46437   4.176  10.282  13.418  0.0233  0.0958 -0.9790
  352MOL0     H46438   4.203  10.529  13.435  1.4991 -2.3283 -0.2801
  352MOL0     H46439   4.181  10.443  13.592 -1.0888 -0.8471  0.4666
  352MOL0     H46440   3.948  10.496  13.611 -1.4993 -0.2400 -0.7031
  352MOL0     H46441   3.952  10.602  13.464 -1.3859  0.5690  1.0052
  352MOL0     H46442   4.134  10.657  13.710 -1.2889  1.9373  1.1153
  352MOL0     H46443   4.106  10.752  13.567  0.2268  0.5550 -0.0048
  352MOL0     H46444   3.915  10.676  13.798  0.2701 -0.8331 -0.8033
  352MOL0     H46445   3.856  10.787  13.664 -0.1419  2.9630  2.4329
  352MOL0     H46446   3.700  10.663  12.959 -0.7797 -0.7661 -0.1641
  352MOL0     H46447   3.689  10.717  12.709 -0.4294 -1.7344 -1.6987
  352MOL0     H46448   4.110  10.725  12.322 -0.6339 -3.4880  3.5960
  352MOL0     H46449   4.129  10.772  12.086  0.1267 -3.0178 -0.9897
  352MOL0     H46450   4.808   9.941  10.601  2.3990  0.0722  2.0274
  352MOL0     H46451   4.789   9.856  10.382 -1.6041  0.7982  1.3852
  352MOL0     H46452   4.560   9.694   9.972  0.9022  2.1741  0.4493
  352MOL0     H46453   4.631   9.659   9.738  1.7261  1.6937 -1.5267
  352MOL0     H46454   5.011   9.720   9.532  2.0960 -0.5108  1.3567
  352MOL0     H46455   5.007   9.778   9.691  0.5274 -0.6521  0.5330
  352MOL0     H46456   4.799   9.815   9.479  0.4381 -0.0881  0.4587
  352MOL0     H46457   4.773   9.864   9.643  0.3695  1.3918 -0.3791
  352MOL0     H46458   5.027   9.948   9.492  2.7777  2.7836  1.6690
  352MOL0     H46459   4.962  10.008   9.645 -0.8561  0.1901 -1.1836
  352MOL0     H46460   4.772  10.111   9.498  0.5841  1.3912 -0.5317
  352MOL0     H46461   4.926  10.173   9.475 -0.3906 -0.7911  3.4685
  352MOL0     H46462   4.847   9.988   9.102  0.7918 -2.4369  0.7788
  352MOL0     H46463   5.028   9.564   9.858  0.5380  2.5263  0.1519
  352MOL0     H46464   4.955   9.571  10.094  0.6292  1.2372  0.0446
  353MOL0     O46465   6.277  10.125   1.330  0.0418 -0.4210 -0.1200
  353MOL0     C46466   6.208  10.085   1.236  0.1892 -0.6573  0.1039
  353MOL0     O46467   6.127   9.986   1.240  0.0586  0.6419  0.4367
  353MOL0     C46468   6.110   9.925   1.357 -0.2919  0.5153 -0.2028
  353MOL0     C46469   6.049   9.985   1.466  0.4692  0.0395  0.6234
  353MOL0     C46470   6.045   9.917   1.581 -1.1116 -0.5423  0.1647
  353MOL0     C46471   6.108   9.789   1.603  0.3141  0.1680 -0.2037
  353MOL0     O46472   6.111   9.747   1.733 -0.3522 -0.3862  0.1414
  353MOL0     C46473   6.090   9.613   1.765 -0.5255  0.0189 -0.6420
  353MOL0     C46474   6.222   9.548   1.809 -0.0380  0.3146  0.0626
  353MOL0     C46475   6.203   9.438   1.906  0.5252  1.0345 -0.1197
  353MOL0     C46476   6.329   9.397   1.980 -0.8803  0.1657 -0.1564
  353MOL0     C46477   6.425   9.291   1.912  0.3385  0.1352  0.4147
  353MOL0     C46478   6.355   9.169   1.866 -0.3834 -0.2567 -0.7444
  353MOL0     C46479   6.449   9.038   1.867  0.4951 -0.2280 -0.7095
  353MOL0     C46480   6.375   8.904   1.878 -0.6642 -0.0311 -0.4307
  353MOL0     N46481   6.278   8.882   1.770 -0.4823 -0.0148 -0.0663
  353MOL0     C46482   6.142   8.866   1.767 -0.5739 -0.5889 -0.0267
  353MOL0     C46483   6.112   8.860   1.639  0.1411 -0.3764  0.7278
  353MOL0     C46484   5.967   8.824   1.591 -0.8569 -0.4717  0.2751
  353MOL0     C46485   5.914   8.693   1.653  0.2802  0.4694  0.6806
  353MOL0     C46486   5.807   8.621   1.564  1.1371  0.0751  0.0962
  353MOL0     C46487   5.665   8.659   1.572  1.4004  0.1335  0.0064
  353MOL0     O46488   5.665   8.800   1.563  0.0830 -0.3925 -0.6074
  353MOL0     C46489   5.641   8.868   1.441 -0.5945  0.3828 -1.3163
  353MOL0     C46490   5.591   8.806   1.318  0.4816  0.9322 -0.2091
  353MOL0     C46491   5.556   8.881   1.202  0.0857  0.4687  0.4395
  353MOL0     C46492   5.568   9.023   1.207 -0.4703  0.6616  0.0609
  353MOL0     C46493   5.530   9.106   1.089  0.4297 -0.4313 -0.2563
  353MOL0     O46494   5.532   9.246   1.097 -0.5818 -0.5585 -0.2947
  353MOL0     C46495   5.505   9.335   0.991  0.6587  0.2560 -0.1315
  353MOL0     C46496   5.515   9.476   1.031  0.4184 -0.0062 -0.1490
  353MOL0     C46497   5.490   9.576   0.938  0.2018 -0.5502  1.6550
  353MOL0     C46498   5.438   9.548   0.807  0.0685 -0.6216  0.5861
  353MOL0     O46499   5.397   9.655   0.734  0.0271 -0.1596 -0.1566
  353MOL0     C46500   5.461   9.668   0.603  0.0210 -0.0746  0.0111
  353MOL0     C46501   5.478   9.819   0.583 -0.2103 -0.0779 -0.2336
  353MOL0     C46502   5.535   9.845   0.442 -0.3469 -0.4954  0.3561
  353MOL0     C46503   5.522   9.997   0.410  0.0404  0.1474 -1.1411
  353MOL0     C46504   5.589  10.026   0.277 -0.7666 -0.8134 -0.1507
  353MOL0     C46505   5.563  10.174   0.237  0.5719 -1.2423  0.3586
  353MOL0     C46506   5.646  10.216   0.118  0.5269  0.5085 -1.1300
  353MOL0     C46507   5.645  10.366   0.081 -0.3481  0.6554  0.8130
  353MOL0    Cl46508   5.691  10.419  -0.084  0.3713  0.3097 -0.7385
  353MOL0     C46509   5.433   9.410   0.767  0.0338  0.0747 -0.5686
  353MOL0     C46510   5.467   9.309   0.862  0.7812 -0.4680 -0.1086
  353MOL0     O46511   5.507   9.047   0.988  0.2179 -0.2883 -0.2764
  353MOL0     C46512   5.615   9.082   1.325 -0.1451 -0.0709  0.5589
  353MOL0     C46513   5.648   9.002   1.436  0.1590 -0.6886 -0.1471
  353MOL0     N46514   6.232   8.875   1.560  1.0256 -0.8376  0.1486
  353MOL0     N46515   6.325   8.888   1.638 -0.7872 -0.4833 -0.1895
  353MOL0     C46516   6.165   9.731   1.481 -0.4230  0.2510 -0.3451
  353MOL0     C46517   6.164   9.801   1.363  0.3566  0.0189  0.1209
  353MOL0     C46518   6.207  10.171   1.111 -0.2548 -0.1611  0.2475
  353MOL0     C46519   6.292  10.282   1.092 -1.2903 -0.0841 -0.1139
  353MOL0     C46520   6.294  10.359   0.980  0.0715 -0.4238 -1.0787
  353MOL0     C46521   6.210  10.324   0.873 -1.1446  0.0644 -0.1113
  353MOL0     O46522   6.210  10.394   0.752 -0.3981  0.0612 -0.0756
  353MOL0     C46523   6.122  10.364   0.637  0.5319 -0.0585 -0.1546
  353MOL0     C46524   6.150  10.467   0.528  0.2483  0.4622 -0.4560
  353MOL0     C46525   6.095  10.430   0.395 -0.6960 -0.1800  0.0085
  353MOL0     C46526   6.119  10.542   0.282  0.9117 -0.3200 -0.3243
  353MOL0     C46527   6.251  10.570   0.246 -0.2679 -0.2018  0.3499
  353MOL0     C46528   6.365  10.605   0.233  0.8831  0.5022  0.1229
  353MOL0     C46529   6.124  10.214   0.890 -0.2400  0.4329  1.4966
  353MOL0     C46530   6.123  10.132   1.003  0.3317  0.7335 -0.9240
  353MOL0     H46531   6.009  10.083   1.443  0.3687 -0.4203 -1.2659
  353MOL0     H46532   6.005   9.967   1.668 -1.2474  0.5907 -0.5210
  353MOL0     H46533   6.039   9.557   1.686  2.0195 -1.3384 -1.4382
  353MOL0     H46534   6.022   9.614   1.851  1.7889 -2.8942  1.4637
  353MOL0     H46535   6.290   9.624   1.851 -0.6070  2.5854 -2.7789
  353MOL0     H46536   6.269   9.494   1.726 -0.3250 -3.3881  2.1260
  353MOL0     H46537   6.158   9.346   1.868  0.9813 -0.8288  3.3786
  353MOL0     H46538   6.133   9.481   1.978  2.4083  0.9943  1.8361
  353MOL0     H46539   6.392   9.487   1.980 -3.3396  2.1949 -4.6117
  353MOL0     H46540   6.305   9.364   2.081  3.0206 -1.0568  0.5661
  353MOL0     H46541   6.508   9.267   1.979 -0.2581  1.9477  1.9052
  353MOL0     H46542   6.474   9.329   1.821 -1.1809 -2.1398 -1.4617
  353MOL0     H46543   6.302   9.180   1.771  1.3123 -1.1225 -1.8583
  353MOL0     H46544   6.283   9.145   1.944 -0.7241 -1.1577 -1.3181
  353MOL0     H46545   6.503   9.048   1.772  1.5677 -0.0784 -0.0866
  353MOL0     H46546   6.514   9.037   1.954  0.3249 -2.1781 -0.5689
  353MOL0     H46547   6.317   8.882   1.968  0.6818  1.3766  0.8325
  353MOL0     H46548   6.450   8.825   1.869 -1.8707 -1.6891  2.5094
  353MOL0     H46549   6.086   8.854   1.859  2.5277  0.5646  2.1434
  353MOL0     H46550   5.971   8.828   1.482 -0.4982  2.4027  0.3012
  353MOL0     H46551   5.900   8.902   1.627  0.4983 -0.5578  3.3257
  353MOL0     H46552   5.887   8.718   1.756 -0.5995  2.4111  0.0297
  353MOL0     H46553   5.989   8.613   1.663  0.5226  0.9504  3.9514
  353MOL0     H46554   5.829   8.638   1.459  1.0281 -1.8489 -0.2853
  353MOL0     H46555   5.806   8.512   1.573  0.3195  0.1997  2.0386
  353MOL0     H46556   5.638   8.635   1.675  0.6832  1.6353  0.1958
  353MOL0     H46557   5.600   8.605   1.503  0.0603 -0.5257  1.7277
  353MOL0     H46558   5.571   8.699   1.323 -3.0303  1.5381  3.1521
  353MOL0     H46559   5.508   8.820   1.126 -1.6821 -0.5674  2.3043
  353MOL0     H46560   5.536   9.509   1.132 -3.9990 -0.2538  1.0423
  353MOL0     H46561   5.482   9.675   0.983 -0.8134 -0.4738  1.3382
  353MOL0     H46562   5.409   9.616   0.522  1.2324 -0.8763 -0.2705
  353MOL0     H46563   5.562   9.628   0.606 -0.4493 -1.3750 -0.6986
  353MOL0     H46564   5.532   9.870   0.664 -2.9493 -0.1011  1.7216
  353MOL0     H46565   5.379   9.865   0.580  0.4337  1.3343 -1.6951
  353MOL0     H46566   5.493   9.772   0.372 -1.7846 -1.6233  2.2968
  353MOL0     H46567   5.643   9.824   0.440  0.3045  2.4013 -1.8072
  353MOL0     H46568   5.424  10.046   0.410 -0.9251 -1.7007 -1.4445
  353MOL0     H46569   5.578  10.053   0.485  0.6795 -0.5410 -1.0974
  353MOL0     H46570   5.548   9.959   0.201  2.6257 -3.2955 -0.0181
  353MOL0     H46571   5.697  10.008   0.288 -0.1558  3.2446  3.1777
  353MOL0     H46572   5.582  10.242   0.320 -1.2197 -1.2082  0.7947
  353MOL0     H46573   5.457  10.183   0.212  1.1100  0.2175 -1.6777
  353MOL0     H46574   5.751  10.199   0.142  0.1254 -1.9930 -0.8783
  353MOL0     H46575   5.617  10.156   0.031 -1.5207  3.5434 -2.7674
  353MOL0     H46576   5.704  10.421   0.155 -0.6265  3.4755 -0.9209
  353MOL0     H46577   5.544  10.407   0.088 -0.2922  0.9259  0.1034
  353MOL0     H46578   5.406   9.381   0.665 -2.5604 -0.4294  0.1786
  353MOL0     H46579   5.456   9.205   0.833 -0.3585 -0.9577  1.9077
  353MOL0     H46580   5.629   9.189   1.335 -2.9386  0.2839  1.4619
  353MOL0     H46581   5.658   9.056   1.529 -0.3492  0.0067 -0.4849
  353MOL0     H46582   6.222   9.638   1.485 -0.6000  0.1335 -0.5123
  353MOL0     H46583   6.211   9.747   1.281 -0.4751 -2.5247  1.2315
  353MOL0     H46584   6.356  10.313   1.173 -1.3077 -1.3779  0.4302
  353MOL0     H46585   6.362  10.443   0.978  0.0307 -0.3349  0.5897
  353MOL0     H46586   6.022  10.367   0.682  0.7024  0.7580  0.1911
  353MOL0     H46587   6.135  10.264   0.595 -0.6140  0.4015 -1.7173
  353MOL0     H46588   6.090  10.555   0.551  0.6694  0.5997  0.1726
  353MOL0     H46589   6.259  10.478   0.525  0.3998 -0.3916  0.8995
  353MOL0     H46590   5.986  10.433   0.400 -0.7520  1.7474 -1.1685
  353MOL0     H46591   6.132  10.333   0.360  2.1671  0.9854 -0.5203
  353MOL0     H46592   6.071  10.503   0.192 -0.0914 -0.8366  0.4038
  353MOL0     H46593   6.067  10.633   0.314  2.2473 -0.3144  2.1248
  353MOL0     H46594   6.467  10.636   0.241  1.4065 -1.4902  2.2850
  353MOL0     H46595   6.068  10.171   0.808  0.5537  2.1716 -0.0395
  353MOL0     H46596   6.056  10.047   1.005  1.9334 -0.5627  1.1886
  354MOL0     O46597   9.468   4.910   0.325  0.4291 -0.2574 -0.3688
  354MOL0     C46598   9.480   5.029   0.360  0.0824  0.3786 -0.8739
  354MOL0     O46599   9.596   5.094   0.384 -0.8895  0.1318 -0.6205
  354MOL0     C46600   9.731   5.048   0.390  0.2881  1.5777  0.0190
  354MOL0     C46601   9.839   5.136   0.390  0.0026  0.6136 -0.8442
  354MOL0     C46602   9.977   5.098   0.416  1.1183  0.1128  0.8666
  354MOL0     C46603  10.007   4.958   0.426 -0.2145  0.0158 -0.3367
  354MOL0     O46604  10.135   4.926   0.426  0.2036  0.0260 -1.0436
  354MOL0     C46605  10.180   4.791   0.445  1.3547  0.4602 -0.5443
  354MOL0     C46606  10.321   4.777   0.487  0.2646  0.2168 -0.1290
  354MOL0     C46607  10.367   4.633   0.473 -0.4115  0.0229 -0.3477
  354MOL0     C46608  10.495   4.593   0.535 -1.1018 -1.3653  0.4803
  354MOL0     C46609  10.496   4.616   0.685 -0.2143  0.2591 -0.8015
  354MOL0     C46610  10.621   4.585   0.766  0.2322  0.6420 -0.5005
  354MOL0     C46611  10.760   4.613   0.703  0.6391  0.1187 -0.2525
  354MOL0     C46612  10.871   4.562   0.789  0.0951 -0.5957  0.7561
  354MOL0     N46613  11.002   4.605   0.720  0.7899 -0.9855  0.2618
  354MOL0     C46614  11.036   4.730   0.682  1.0227  0.1824 -0.1200
  354MOL0     C46615  11.170   4.742   0.685 -0.7680  0.1458 -1.0745
  354MOL0     C46616  11.255   4.858   0.638  0.4183 -0.1340 -0.4377
  354MOL0     C46617  11.390   4.860   0.703 -0.6817  0.0739  0.1685
  354MOL0     C46618  11.367   4.898   0.852  0.5117  0.6565 -0.3019
  354MOL0     C46619  11.492   4.916   0.926  0.5929 -0.5956  0.0585
  354MOL0     O46620  11.469   4.986   1.045  0.4704  0.1490 -1.0681
  354MOL0     C46621  11.560   5.001   1.144 -0.9731  0.0927  0.6487
  354MOL0     C46622  11.501   5.045   1.258 -0.0272  0.0462  0.5182
  354MOL0     C46623  11.575   5.071   1.367  0.2743  0.2429  0.1861
  354MOL0     C46624  11.717   5.045   1.368  0.0495 -0.7483  0.2680
  354MOL0     C46625  11.792   5.061   1.485 -0.3635  0.0410 -1.4890
  354MOL0     O46626  11.925   5.091   1.459 -0.1328 -0.0085  0.4599
  354MOL0     C46627  12.015   5.099   1.561  0.8129 -0.1334 -0.0881
  354MOL0     C46628  12.009   5.028   1.685 -0.6072  0.4432 -0.5184
  354MOL0     C46629  12.123   5.028   1.767 -1.4425  0.4609  0.1504
  354MOL0     C46630  12.248   5.080   1.724  0.2598 -0.4630 -0.3226
  354MOL0     O46631  12.351   5.082   1.818 -0.3565  0.1718  0.0603
  354MOL0     C46632  12.471   5.145   1.785 -0.4542 -0.0067  0.3922
  354MOL0     C46633  12.592   5.121   1.889  0.6206  0.1586 -0.8116
  354MOL0     C46634  12.709   5.220   1.889  0.0589  0.1248  0.4711
  354MOL0     C46635  12.779   5.238   1.751  0.2496  0.4099  0.0795
  354MOL0     C46636  12.895   5.145   1.738 -0.2335 -0.3265 -0.1609
  354MOL0     C46637  12.969   5.143   1.598 -0.1099  0.3553  0.1427
  354MOL0     C46638  12.887   5.070   1.492 -0.8197 -1.1953  0.6862
  354MOL0     C46639  12.927   5.112   1.356 -0.5952 -0.5053 -0.0951
  354MOL0    Cl46640  13.108   5.068   1.328  0.5645  0.3288 -0.0591
  354MOL0     C46641  12.250   5.148   1.604 -0.4676 -0.0440  0.2677
  354MOL0     C46642  12.129   5.164   1.529 -0.5145 -0.0664 -0.6425
  354MOL0     O46643  11.734   5.070   1.592 -0.0473 -0.0912 -0.5289
  354MOL0     C46644  11.769   4.973   1.255  0.0976 -0.9579 -0.3020
  354MOL0     C46645  11.686   4.946   1.145  0.1752  0.1739  0.6635
  354MOL0     N46646  11.223   4.623   0.736  0.3147 -1.0605 -0.5716
  354MOL0     N46647  11.120   4.545   0.763  0.1362  0.3256 -0.4441
  354MOL0     C46648   9.900   4.868   0.416 -0.7184  0.5967 -0.1680
  354MOL0     C46649   9.766   4.906   0.396 -0.0033 -0.4783  0.3380
  354MOL0     C46650   9.358   5.120   0.361  0.9462  0.1571  0.2932
  354MOL0     C46651   9.348   5.238   0.438  0.3360 -0.7567  0.0372
  354MOL0     C46652   9.231   5.324   0.436  0.2395  0.8542 -0.1400
  354MOL0     C46653   9.118   5.278   0.369 -0.2911  0.6427  0.0690
  354MOL0     O46654   8.997   5.344   0.381  0.0660  0.3977  0.2196
  354MOL0     C46655   9.011   5.478   0.357 -0.3961  0.2833  0.4940
  354MOL0     C46656   8.887   5.514   0.275  0.8653 -0.2074  0.4043
  354MOL0     C46657   8.867   5.454   0.130 -0.6361  0.7949 -0.3099
  354MOL0     C46658   8.945   5.536   0.033 -0.5326 -0.8525 -0.2352
  354MOL0     C46659   8.943   5.480  -0.102  0.1019  0.8467 -0.3219
  354MOL0     C46660   8.943   5.424  -0.208  0.3500 -0.2492  0.2400
  354MOL0     C46661   9.122   5.156   0.303 -0.2720 -0.5911 -0.4799
  354MOL0     C46662   9.238   5.078   0.302  0.7660 -0.2886 -0.1404
  354MOL0     H46663   9.809   5.240   0.394  1.0045  1.0184  4.3232
  354MOL0     H46664  10.050   5.178   0.411  1.3925 -0.1999 -0.3097
  354MOL0     H46665  10.167   4.746   0.346  2.0693  0.0344 -0.4487
  354MOL0     H46666  10.113   4.753   0.523  2.3736  2.2626  1.2924
  354MOL0     H46667  10.344   4.818   0.586  0.7025  1.9861 -0.9247
  354MOL0     H46668  10.379   4.836   0.416  0.6597  2.6604  2.0488
  354MOL0     H46669  10.396   4.619   0.369  1.5755  1.3239 -0.0196
  354MOL0     H46670  10.297   4.559   0.512 -0.2253  0.0934  0.1264
  354MOL0     H46671  10.517   4.490   0.507  0.1727 -0.5153 -1.9788
  354MOL0     H46672  10.576   4.650   0.488 -3.1826 -0.6073 -2.4419
  354MOL0     H46673  10.412   4.558   0.723  0.5240 -1.6350 -1.9139
  354MOL0     H46674  10.485   4.722   0.711  3.8076  1.3948 -2.9118
  354MOL0     H46675  10.617   4.476   0.781  1.5749  0.7669  1.0229
  354MOL0     H46676  10.614   4.635   0.863  3.3426  0.3435 -0.0096
  354MOL0     H46677  10.765   4.573   0.601 -3.1015  0.9488 -0.9022
  354MOL0     H46678  10.772   4.722   0.696 -4.2164  0.8313 -1.1246
  354MOL0     H46679  10.869   4.453   0.793  1.3380 -0.8332 -2.3606
  354MOL0     H46680  10.863   4.609   0.887 -1.0455  0.8287  0.0217
  354MOL0     H46681  10.969   4.811   0.658  0.1200 -0.8409 -1.1887
  354MOL0     H46682  11.194   4.947   0.653 -4.6040 -3.0131 -1.5165
  354MOL0     H46683  11.267   4.864   0.529  1.1412  2.2678 -0.2825
  354MOL0     H46684  11.442   4.946   0.659 -0.4340 -0.8298 -1.3651
  354MOL0     H46685  11.439   4.764   0.686  0.4010  0.4529  0.9855
  354MOL0     H46686  11.321   4.996   0.840 -2.1691 -0.2159  1.8319
  354MOL0     H46687  11.295   4.835   0.905  0.6690  2.6303  2.4277
  354MOL0     H46688  11.546   4.996   0.875 -0.2371 -0.0003  0.0925
  354MOL0     H46689  11.552   4.825   0.931  1.7946  0.2443  2.9764
  354MOL0     H46690  11.394   5.062   1.263 -0.3691 -1.6128 -0.3296
  354MOL0     H46691  11.541   5.114   1.461  2.8971 -0.9919  1.8320
  354MOL0     H46692  11.921   4.970   1.710  0.1890  0.0071  1.4944
  354MOL0     H46693  12.124   4.984   1.866 -0.6133  1.0173  0.3956
  354MOL0     H46694  12.456   5.253   1.786  2.2037  0.7658 -5.1954
  354MOL0     H46695  12.505   5.114   1.686  2.0453  0.8552  0.9295
  354MOL0     H46696  12.617   5.015   1.880 -0.8344 -0.1114 -2.1333
  354MOL0     H46697  12.549   5.118   1.990 -0.1121 -1.2863 -1.1295
  354MOL0     H46698  12.785   5.207   1.966 -0.2826  1.5340  1.0945
  354MOL0     H46699  12.666   5.318   1.913  1.4453  0.3115  2.4742
  354MOL0     H46700  12.715   5.227   1.664  0.2931 -0.9430  0.1925
  354MOL0     H46701  12.812   5.342   1.752  1.5765  0.0496 -1.3904
  354MOL0     H46702  12.867   5.047   1.779  1.8652 -0.5909  0.7919
  354MOL0     H46703  12.959   5.175   1.822 -1.8621  1.3620  0.5363
  354MOL0     H46704  13.054   5.077   1.621  2.7787  4.0500  1.0719
  354MOL0     H46705  13.002   5.246   1.580 -3.0296  1.5891  1.2557
  354MOL0     H46706  12.904   4.963   1.505 -0.4392 -1.2531 -0.2461
  354MOL0     H46707  12.778   5.078   1.503 -1.0175 -2.0730 -0.4114
  354MOL0     H46708  12.908   5.220   1.345  1.0481  0.0659  1.9642
  354MOL0     H46709  12.866   5.066   1.278 -3.3999  0.6375  1.2772
  354MOL0     H46710  12.338   5.207   1.581  0.1992  0.2778  3.2219
  354MOL0     H46711  12.125   5.227   1.441 -1.9478  1.1567  0.2593
  354MOL0     H46712  11.872   4.937   1.260  1.0541  1.6204  0.7827
  354MOL0     H46713  11.737   4.912   1.055  0.9557  1.2499  0.6716
  354MOL0     H46714   9.907   4.760   0.430 -1.2999  0.7206  1.2323
  354MOL0     H46715   9.683   4.836   0.405 -0.1640 -0.1088  2.3129
  354MOL0     H46716   9.435   5.285   0.484  0.2491  0.6889 -1.1872
  354MOL0     H46717   9.236   5.416   0.493  1.4628 -0.6681  2.4330
  354MOL0     H46718   9.100   5.508   0.302 -1.9319  0.9033 -1.7884
  354MOL0     H46719   9.005   5.531   0.453 -0.2796  1.7543 -0.2901
  354MOL0     H46720   8.789   5.498   0.322 -0.2711  1.7712 -1.0971
  354MOL0     H46721   8.899   5.620   0.250  1.8303 -0.5760 -0.7919
  354MOL0     H46722   8.758   5.450   0.117 -0.7114 -0.9794  0.5854
  354MOL0     H46723   8.900   5.350   0.120  0.6928  1.1860 -0.1257
  354MOL0     H46724   8.906   5.638   0.036  1.9224  0.1768 -0.6437
  354MOL0     H46725   9.050   5.545   0.064 -1.3857  0.3614  2.6639
  354MOL0     H46726   8.942   5.383  -0.307 -0.4539  0.5710 -0.1075
  354MOL0     H46727   9.031   5.114   0.260 -0.2464 -0.1353 -0.9983
  354MOL0     H46728   9.233   4.981   0.254  1.1755  0.1748 -1.1492
  355MOL0     O46729   1.052   1.859   9.851  0.6339  0.0871  1.0148
  355MOL0     C46730   1.036   1.896   9.961 -0.4875 -1.0613 -0.1471
  355MOL0     O46731   1.024   1.820  10.065  0.4195 -0.0430 -0.0087
  355MOL0     C46732   0.975   1.691  10.047  0.5325  0.3444 -0.2799
  355MOL0     C46733   1.063   1.590  10.012 -0.3116  0.2974  0.5374
  355MOL0     C46734   1.025   1.458   9.995 -0.2673 -0.9468 -0.4210
  355MOL0     C46735   0.885   1.431   9.990  0.1431 -0.1737  0.4870
  355MOL0     O46736   0.832   1.303   9.979  0.8556 -0.7584 -0.3108
  355MOL0     C46737   0.882   1.233   9.867  0.4804  0.2059  0.1433
  355MOL0     C46738   0.856   1.086   9.892  0.2698 -0.4154  0.4806
  355MOL0     C46739   0.918   1.031  10.018  0.1194 -0.5222 -0.0137
  355MOL0     C46740   1.073   1.006  10.008  0.4809  0.1113  0.4099
  355MOL0     C46741   1.159   1.049  10.122 -0.3690 -0.0153  0.1132
  355MOL0     C46742   1.299   0.993  10.108  0.7460 -0.2543 -0.5523
  355MOL0     C46743   1.372   1.038  10.238 -1.0113 -0.0895  0.5035
  355MOL0     C46744   1.525   0.995  10.236 -0.3892  0.5850  0.4667
  355MOL0     N46745   1.545   0.848  10.232  0.3819 -0.2137 -0.2907
  355MOL0     C46746   1.568   0.778  10.122 -0.4330 -0.0202 -0.4067
  355MOL0     C46747   1.542   0.650  10.162  0.9203 -0.0203 -0.1256
  355MOL0     C46748   1.533   0.535  10.063 -0.3154  0.2727 -0.4470
  355MOL0     C46749   1.677   0.485  10.021  0.1096  0.0232 -0.1791
  355MOL0     C46750   1.768   0.489  10.149  0.5635  1.0661 -0.8086
  355MOL0     C46751   1.896   0.415  10.141  0.4527 -0.3235 -0.3858
  355MOL0     O46752   1.960   0.412  10.275  0.2115 -0.5435  0.4295
  355MOL0     C46753   2.090   0.450  10.269 -0.7440  0.9338  0.6776
  355MOL0     C46754   2.173   0.349  10.305 -0.7094 -0.8842 -0.1876
  355MOL0     C46755   2.314   0.374  10.314  0.8136 -0.1220  0.2867
  355MOL0     C46756   2.364   0.507  10.290 -0.0249 -0.2444 -0.1105
  355MOL0     C46757   2.504   0.532  10.332 -0.3236  1.1643 -0.4618
  355MOL0     O46758   2.572   0.640  10.288  0.6641 -0.5030  0.2955
  355MOL0     C46759   2.708   0.648  10.285  0.5970  0.2795  0.1626
  355MOL0     C46760   2.798   0.554  10.232  0.6328 -0.0062 -0.8205
  355MOL0     C46761   2.941   0.554  10.261 -0.3068  0.5482 -0.2086
  355MOL0     C46762   2.989   0.671  10.332  0.3226  0.1927  1.0429
  355MOL0     O46763   3.118   0.682  10.374  0.1223  0.4729  0.0968
  355MOL0     C46764   3.203   0.562  10.382 -0.5153 -0.2483 -0.5396
  355MOL0     C46765   3.320   0.584  10.467  0.1299  0.2234  0.5917
  355MOL0     C46766   3.292   0.636  10.607 -0.7677  0.2710  0.7532
  355MOL0     C46767   3.415   0.651  10.699  0.1818  0.8833 -0.3635
  355MOL0     C46768   3.381   0.649  10.847  0.3538  0.1232  0.9577
  355MOL0     C46769   3.319   0.523  10.889  0.6038  0.8718 -0.3868
  355MOL0     C46770   3.340   0.518  11.044 -0.2108  0.2329  0.3979
  355MOL0     C46771   3.268   0.410  11.121  0.3340  0.4455 -0.7049
  355MOL0    Cl46772   3.366   0.265  11.061 -0.0952  0.1289 -0.8433
  355MOL0     C46773   2.898   0.770  10.357  0.8088  0.1153 -0.9915
  355MOL0     C46774   2.761   0.750  10.352  0.8051  0.6401  1.0097
  355MOL0     O46775   2.564   0.442  10.403 -0.2190  0.1897  0.7080
  355MOL0     C46776   2.275   0.602  10.238 -0.9460 -0.4259 -0.4060
  355MOL0     C46777   2.143   0.576  10.223  0.3292  0.1345 -0.3090
  355MOL0     N46778   1.517   0.648  10.299  0.6401  0.4705 -0.3842
  355MOL0     N46779   1.491   0.769  10.328  0.9996 -0.2235 -0.1639
  355MOL0     C46780   0.786   1.531  10.027 -1.0910  0.2095 -0.3057
  355MOL0     C46781   0.837   1.660  10.063  0.0321  0.1489  0.5130
  355MOL0     C46782   1.050   2.041   9.989  1.0877 -0.0728  0.6988
  355MOL0     C46783   0.992   2.099  10.103  0.2380 -0.1996 -0.0272
  355MOL0     C46784   0.993   2.240  10.122 -0.2511 -0.5522 -0.1429
  355MOL0     C46785   1.065   2.311  10.026  0.3428  0.2613 -0.4977
  355MOL0     O46786   1.071   2.445  10.051  0.0260  0.1387 -0.4403
  355MOL0     C46787   1.085   2.557   9.962  0.0255 -0.3445 -0.4113
  355MOL0     C46788   1.239   2.602   9.959  0.3485  0.2323 -0.1258
  355MOL0     C46789   1.246   2.742   9.903 -0.1630 -0.0524  0.2430
  355MOL0     C46790   1.383   2.780   9.831  0.1949 -0.4734  0.3339
  355MOL0     C46791   1.499   2.710   9.876 -0.7115 -0.3052 -0.4308
  355MOL0     C46792   1.594   2.644   9.896 -0.3618 -0.5259  0.7386
  355MOL0     C46793   1.124   2.256   9.910  0.7819  0.9453  0.5436
  355MOL0     C46794   1.105   2.121   9.890 -0.2388  0.1198  0.2375
  355MOL0     H46795   1.164   1.620   9.986 -1.3080  2.2725 -1.3949
  355MOL0     H46796   1.092   1.377   9.970 -1.1315 -1.3765 -1.4540
  355MOL0     H46797   0.988   1.252   9.851  0.6189  0.2359  1.0089
  355MOL0     H46798   0.828   1.261   9.777  1.0644 -1.7736 -0.8750
  355MOL0     H46799   0.887   1.021   9.810 -0.5478 -0.3807  0.1339
  355MOL0     H46800   0.747   1.078   9.903  0.2648  1.2665  2.1680
  355MOL0     H46801   0.872   0.934  10.040  2.9696 -1.5066  2.1768
  355MOL0     H46802   0.888   1.087  10.107  0.9982 -2.1892  1.3887
  355MOL0     H46803   1.091   0.900   9.986  0.9544 -0.4957  3.3990
  355MOL0     H46804   1.109   1.072   9.928  3.1610 -1.1247  0.4773
  355MOL0     H46805   1.115   1.010  10.214 -0.5702  0.1318  0.0792
  355MOL0     H46806   1.157   1.158  10.123  1.4409  0.0651  2.0940
  355MOL0     H46807   1.351   1.034  10.021  0.4991  2.0699  0.3352
  355MOL0     H46808   1.303   0.883  10.110  0.1992 -0.2935  1.7945
  355MOL0     H46809   1.358   1.145  10.252  3.0489  1.0717 -2.4601
  355MOL0     H46810   1.321   0.987  10.320 -1.2584 -1.4638 -0.4589
  355MOL0     H46811   1.567   1.028  10.332  2.9125 -1.3888 -0.1473
  355MOL0     H46812   1.570   1.048  10.152 -1.5660  1.0359  0.0947
  355MOL0     H46813   1.602   0.818  10.027  0.8821  2.6587  1.0749
  355MOL0     H46814   1.474   0.572   9.979 -0.1858  0.6525 -0.3732
  355MOL0     H46815   1.476   0.451  10.104 -1.9836  2.4218  1.9618
  355MOL0     H46816   1.720   0.561   9.954 -0.0274  1.0898  0.9074
  355MOL0     H46817   1.678   0.388   9.970 -1.4460 -0.2559  0.2843
  355MOL0     H46818   1.798   0.594  10.151  2.6132  0.5199  0.3462
  355MOL0     H46819   1.712   0.461  10.238  0.6777 -1.0990 -1.3562
  355MOL0     H46820   1.952   0.463  10.060 -0.2592 -2.3441 -2.1557
  355MOL0     H46821   1.870   0.318  10.097 -0.5558  0.5955 -1.8689
  355MOL0     H46822   2.143   0.252  10.344 -1.5895 -0.3796  0.4480
  355MOL0     H46823   2.370   0.297  10.366  2.3609  0.7145 -0.1050
  355MOL0     H46824   2.761   0.475  10.168 -0.4602 -0.1810  0.0012
  355MOL0     H46825   3.011   0.481  10.222  0.5426  1.3154 -0.1676
  355MOL0     H46826   3.221   0.533  10.278 -0.0420 -1.0275 -0.2506
  355MOL0     H46827   3.149   0.480  10.430  2.1310 -1.9566 -0.2695
  355MOL0     H46828   3.397   0.646  10.419  3.1071 -2.2776  1.7797
  355MOL0     H46829   3.367   0.486  10.483  1.4945  0.9628  1.3202
  355MOL0     H46830   3.211   0.578  10.653 -0.3487 -0.5234  0.5080
  355MOL0     H46831   3.250   0.736  10.597 -1.1428  0.1881  1.4106
  355MOL0     H46832   3.472   0.558  10.682  1.1486  1.6639 -1.5328
  355MOL0     H46833   3.487   0.730  10.676  2.8283 -1.3295 -0.2269
  355MOL0     H46834   3.307   0.728  10.863 -2.8185 -2.1329 -1.3384
  355MOL0     H46835   3.468   0.676  10.908 -1.3605 -0.2848  3.7920
  355MOL0     H46836   3.377   0.441  10.846  3.0972  1.5629  1.4314
  355MOL0     H46837   3.213   0.511  10.866  0.2790  0.0018  1.3387
  355MOL0     H46838   3.445   0.486  11.046 -1.0191 -3.0171 -1.5941
  355MOL0     H46839   3.325   0.614  11.093 -0.9530  1.8806 -2.7583
  355MOL0     H46840   3.162   0.416  11.094 -0.1788  1.4200  1.3389
  355MOL0     H46841   3.264   0.421  11.230 -0.3240 -2.0345 -0.4249
  355MOL0     H46842   2.944   0.854  10.407  0.8067 -0.3111 -0.2612
  355MOL0     H46843   2.704   0.839  10.376  1.0472  1.0379  0.1669
  355MOL0     H46844   2.320   0.694  10.203 -0.2285 -1.2182 -1.6950
  355MOL0     H46845   2.093   0.655  10.168  0.6013  0.7662  0.3352
  355MOL0     H46846   0.680   1.508  10.034 -0.8670 -0.9421 -0.3997
  355MOL0     H46847   0.766   1.727  10.110  0.9022 -0.0809  2.2305
  355MOL0     H46848   0.939   2.038  10.176 -0.1317  2.2694  1.9012
  355MOL0     H46849   0.957   2.284  10.214  0.8476 -0.4953  0.2851
  355MOL0     H46850   1.020   2.640   9.993 -1.4230 -0.3964 -3.0002
  355MOL0     H46851   1.043   2.514   9.870 -0.5940 -0.1791 -0.2113
  355MOL0     H46852   1.277   2.619  10.060  0.2840  0.9682 -0.2219
  355MOL0     H46853   1.287   2.522   9.901 -1.9649  0.8649 -3.1731
  355MOL0     H46854   1.238   2.811   9.988  1.0751 -1.3862  1.4929
  355MOL0     H46855   1.169   2.760   9.827 -0.7858 -1.2029  0.5807
  355MOL0     H46856   1.378   2.750   9.726  2.0956 -0.3066  0.1680
  355MOL0     H46857   1.399   2.888   9.841 -1.2011 -0.2965  0.8833
  355MOL0     H46858   1.672   2.571   9.906 -2.0144 -2.6653 -0.8448
  355MOL0     H46859   1.167   2.323   9.836 -2.9615  1.9138 -1.0171
  355MOL0     H46860   1.126   2.094   9.787 -1.1303  0.9610 -0.1870
  356MOL0     O46861   1.343   8.905   0.900  0.1353  0.0645  0.5934
  356MOL0     C46862   1.317   8.903   1.018 -0.3563 -0.7358 -0.4643
  356MOL0     O46863   1.283   9.012   1.087 -0.0029 -0.2005 -0.8664
  356MOL0     C46864   1.260   9.127   1.016 -0.2666  0.3269  0.1131
  356MOL0     C46865   1.133   9.187   1.031 -0.5359  0.0535 -0.5937
  356MOL0     C46866   1.102   9.309   0.970 -0.3656  0.5022  0.6098
  356MOL0     C46867   1.199   9.366   0.885 -0.5549 -0.4692  0.0385
  356MOL0     O46868   1.174   9.489   0.830 -0.6580  0.4361 -0.6327
  356MOL0     C46869   1.286   9.585   0.798 -0.2025 -0.8045 -0.1166
  356MOL0     C46870   1.236   9.721   0.762  0.7214 -0.9971  0.1115
  356MOL0     C46871   1.129   9.723   0.658  1.0652 -1.1131 -0.6138
  356MOL0     C46872   1.065   9.859   0.616  0.6188 -0.4456  0.4953
  356MOL0     C46873   0.931   9.837   0.532 -0.6540 -0.1382  0.5253
  356MOL0     C46874   0.949   9.817   0.382 -0.5515 -0.6197  0.0091
  356MOL0     C46875   0.836   9.872   0.305  1.0471 -0.2477 -0.7733
  356MOL0     C46876   0.829   9.801   0.170  0.2383  0.3529  0.2999
  356MOL0     N46877   0.775   9.899   0.072 -0.1060  0.2928 -0.0828
  356MOL0     C46878   0.831   9.928  -0.057 -0.4962  0.8925 -1.1037
  356MOL0     C46879   0.737   9.994  -0.125  0.3795 -0.3346  0.5297
  356MOL0     C46880   0.757  10.052  -0.267  0.1881  0.4063 -0.7764
  356MOL0     C46881   0.758   9.929  -0.368 -0.3125  0.0406 -1.1613
  356MOL0     C46882   0.717   9.976  -0.509  0.3746 -0.3570 -0.7016
  356MOL0     C46883   0.793  10.099  -0.559  0.4324 -0.9689  0.6065
  356MOL0     O46884   0.931  10.069  -0.583  0.3061  0.2104  0.0165
  356MOL0     C46885   1.020  10.175  -0.592 -0.9737 -0.2661 -0.0553
  356MOL0     C46886   1.092  10.200  -0.713  0.1932  0.8888 -0.2566
  356MOL0     C46887   1.174  10.309  -0.716  0.1814  0.4066 -0.2904
  356MOL0     C46888   1.195  10.400  -0.607 -0.1193  0.5665  0.4217
  356MOL0     C46889   1.298  10.501  -0.610  0.1363 -1.0618 -0.8392
  356MOL0     O46890   1.391  10.491  -0.713 -0.3832 -0.4391  0.2739
  356MOL0     C46891   1.489  10.588  -0.719  0.1086 -0.6242  0.0962
  356MOL0     C46892   1.590  10.589  -0.627 -0.2612  0.5430 -0.1766
  356MOL0     C46893   1.675  10.690  -0.616 -0.8814 -0.7563  0.3923
  356MOL0     C46894   1.672  10.801  -0.712  0.4278  0.4173  0.3825
  356MOL0     O46895   1.756  10.905  -0.704 -0.2843  0.4410 -0.9481
  356MOL0     C46896   1.751  11.005  -0.805 -0.7659 -0.6946  0.5969
  356MOL0     C46897   1.872  11.105  -0.775  0.9867 -0.0836 -0.7603
  356MOL0     C46898   2.001  11.038  -0.822 -0.5377  0.3376  0.2961
  356MOL0     C46899   2.118  11.112  -0.775  0.5411  0.1881 -0.3926
  356MOL0     C46900   2.252  11.025  -0.762 -0.2426  0.5408  0.3751
  356MOL0     C46901   2.364  11.093  -0.684  0.1122  0.2614 -0.0820
  356MOL0     C46902   2.489  10.998  -0.688 -0.1384  0.7192  0.6991
  356MOL0     C46903   2.481  10.865  -0.608  0.4315  0.3145 -0.0314
  356MOL0    Cl46904   2.471  10.908  -0.431  0.5387 -0.1079 -0.2224
  356MOL0     C46905   1.576  10.791  -0.821  0.4497  0.2865 -1.5269
  356MOL0     C46906   1.485  10.685  -0.815 -0.3152 -1.1563 -0.3283
  356MOL0     O46907   1.305  10.590  -0.518  0.6047  0.1420 -0.0591
  356MOL0     C46908   1.131  10.360  -0.483  0.4031  0.7226  0.5503
  356MOL0     C46909   1.040  10.259  -0.486  0.2346  0.3625  0.3918
  356MOL0     N46910   0.622   9.987  -0.054 -0.0797  0.0105 -0.4105
  356MOL0     N46911   0.641   9.926   0.065  0.2272 -1.1665 -0.4554
  356MOL0     C46912   1.319   9.300   0.858  1.1374  0.7827  0.0727
  356MOL0     C46913   1.352   9.189   0.930  0.5533 -0.4080  0.0463
  356MOL0     C46914   1.340   8.780   1.090  0.6997 -0.5097 -0.6711
  356MOL0     C46915   1.310   8.778   1.227  0.9116  0.6264 -0.1289
  356MOL0     C46916   1.298   8.653   1.288 -1.7370 -0.6971 -0.3496
  356MOL0     C46917   1.345   8.531   1.227 -0.7215  0.0253  0.1012
  356MOL0     O46918   1.365   8.407   1.293  0.1360 -0.3127  0.2747
  356MOL0     C46919   1.381   8.416   1.428 -1.3266 -0.9714 -0.6973
  356MOL0     C46920   1.451   8.288   1.474 -0.3303 -0.2424 -0.5006
  356MOL0     C46921   1.370   8.239   1.595 -0.8915  0.8200 -0.0174
  356MOL0     C46922   1.368   8.323   1.714 -0.0752  0.4514 -0.3679
  356MOL0     C46923   1.482   8.307   1.799 -0.8475 -0.5155 -0.0228
  356MOL0     C46924   1.576   8.281   1.877  0.1662  0.2655 -0.0751
  356MOL0     C46925   1.379   8.539   1.088  0.4139  0.0680 -0.2161
  356MOL0     C46926   1.382   8.662   1.025  0.6455 -0.3477  0.9867
  356MOL0     H46927   1.061   9.135   1.093  1.0422 -1.8225 -0.2250
  356MOL0     H46928   1.009   9.361   0.991 -2.7532 -1.2118 -4.1526
  356MOL0     H46929   1.347   9.555   0.713 -0.7011  0.6282 -1.0054
  356MOL0     H46930   1.355   9.602   0.881 -0.4522  0.9259 -0.2220
  356MOL0     H46931   1.319   9.780   0.724 -0.2640 -0.4983 -1.3671
  356MOL0     H46932   1.194   9.775   0.847 -0.6724 -2.2492  0.2791
  356MOL0     H46933   1.050   9.664   0.705  1.2549 -2.4070 -1.8732
  356MOL0     H46934   1.174   9.680   0.569  0.8523 -1.0230 -0.7643
  356MOL0     H46935   1.036   9.906   0.710 -1.6221 -0.4775 -0.1290
  356MOL0     H46936   1.128   9.925   0.556  0.4795  1.4902  2.3527
  356MOL0     H46937   0.859   9.913   0.563  0.9693  1.0731  1.4618
  356MOL0     H46938   0.882   9.739   0.542  2.2598 -1.6283  1.4628
  356MOL0     H46939   0.987   9.720   0.348  1.8441  0.9336 -2.2430
  356MOL0     H46940   1.033   9.878   0.347 -0.3686 -1.0058 -0.2370
  356MOL0     H46941   0.747   9.848   0.364 -0.7436 -1.9935 -3.9070
  356MOL0     H46942   0.846   9.980   0.292  4.9496 -0.2787  0.5840
  356MOL0     H46943   0.767   9.713   0.192  0.3293  0.3691  0.6259
  356MOL0     H46944   0.930   9.771   0.140  0.0439  1.4249 -1.5545
  356MOL0     H46945   0.936   9.915  -0.082  0.6977  1.9090  2.6444
  356MOL0     H46946   0.846  10.113  -0.288 -2.0295  3.3633 -2.5059
  356MOL0     H46947   0.667  10.112  -0.282  0.3530  0.8624 -0.0156
  356MOL0     H46948   0.679   9.860  -0.336 -1.7352  2.5716  1.3592
  356MOL0     H46949   0.858   9.886  -0.358 -0.4983 -0.1371  0.2035
  356MOL0     H46950   0.738   9.897  -0.582  1.5946 -2.1324  1.4689
  356MOL0     H46951   0.609   9.995  -0.504  0.0162 -1.9618 -1.6384
  356MOL0     H46952   0.788  10.178  -0.484  3.8806 -1.6305  1.7219
  356MOL0     H46953   0.746  10.143  -0.648 -0.0192  1.3533  1.9269
  356MOL0     H46954   1.083  10.134  -0.799 -1.4665 -0.3463  0.7979
  356MOL0     H46955   1.209  10.340  -0.814  0.0411  1.7096  0.0583
  356MOL0     H46956   1.592  10.513  -0.548  0.3872  0.2919 -0.4238
  356MOL0     H46957   1.755  10.698  -0.543 -1.7569  1.9099  1.1725
  356MOL0     H46958   1.657  11.061  -0.805  0.2531  1.3020 -3.0235
  356MOL0     H46959   1.759  10.960  -0.905 -0.2390  2.1920 -0.7505
  356MOL0     H46960   1.870  11.124  -0.667  0.2775  2.3343 -1.1319
  356MOL0     H46961   1.861  11.199  -0.831 -1.4110 -0.9638 -1.9326
  356MOL0     H46962   1.996  11.042  -0.931  1.9726  1.3891  0.1411
  356MOL0     H46963   2.011  10.933  -0.793 -1.9166  0.3983  1.0606
  356MOL0     H46964   2.139  11.183  -0.855 -1.3786 -0.0361 -1.1308
  356MOL0     H46965   2.094  11.160  -0.679  0.2000 -0.2647 -0.2501
  356MOL0     H46966   2.297  10.989  -0.855  0.6026  2.8195 -0.1582
  356MOL0     H46967   2.205  10.939  -0.712 -0.1783  0.4222  0.2332
  356MOL0     H46968   2.322  11.102  -0.583 -1.0566  0.0943 -0.5298
  356MOL0     H46969   2.400  11.188  -0.725  3.7876 -1.8855 -2.2998
  356MOL0     H46970   2.507  10.975  -0.794 -1.5825 -2.9572  1.1040
  356MOL0     H46971   2.571  11.057  -0.646 -1.3521  1.4005  2.2124
  356MOL0     H46972   2.565  10.796  -0.609 -0.7977 -1.2316 -0.9518
  356MOL0     H46973   2.391  10.809  -0.636  0.4734 -0.1777  0.8033
  356MOL0     H46974   1.573  10.874  -0.892  0.8954 -0.0147 -1.9032
  356MOL0     H46975   1.407  10.670  -0.889  0.2617  0.9233 -1.4070
  356MOL0     H46976   1.154  10.419  -0.394  4.0290 -0.0624  0.2999
  356MOL0     H46977   0.978  10.248  -0.397 -0.2316  0.3471  0.0682
  356MOL0     H46978   1.403   9.340   0.802  3.9489  0.3833  3.5775
  356MOL0     H46979   1.446   9.137   0.918  0.8714 -0.3740  2.0361
  356MOL0     H46980   1.274   8.858   1.292 -1.6097 -0.1559 -0.4469
  356MOL0     H46981   1.265   8.655   1.391 -1.5351  2.4466 -0.2745
  356MOL0     H46982   1.280   8.415   1.470 -1.1600 -2.9936 -0.2287
  356MOL0     H46983   1.430   8.503   1.471 -2.1342  0.8787 -3.2737
  356MOL0     H46984   1.474   8.218   1.394  0.7769  1.0476 -1.3659
  356MOL0     H46985   1.551   8.314   1.511 -0.1619  0.4642 -1.4097
  356MOL0     H46986   1.416   8.140   1.601  0.6657  1.3251 -2.4428
  356MOL0     H46987   1.265   8.219   1.569 -1.3714  1.6360  1.1940
  356MOL0     H46988   1.354   8.429   1.687  1.8919  1.0685  0.8291
  356MOL0     H46989   1.280   8.298   1.773 -2.1240  1.3281 -2.8548
  356MOL0     H46990   1.654   8.244   1.942 -0.2841  0.3111  0.4939
  356MOL0     H46991   1.404   8.445   1.041 -1.1931  0.1354 -1.2643
  356MOL0     H46992   1.410   8.672   0.921  0.3206  0.3106  0.9525
  357MOL0     O46993   2.453   1.831   7.960 -0.0907  0.4169 -0.1568
  357MOL0     C46994   2.352   1.893   7.924  0.6222  0.0515  0.3796
  357MOL0     O46995   2.253   1.934   8.010  0.5553 -0.2175  0.4556
  357MOL0     C46996   2.271   1.915   8.143 -0.3975 -0.7988 -1.4666
  357MOL0     C46997   2.205   1.805   8.201 -0.5320  0.7645 -0.0176
  357MOL0     C46998   2.229   1.770   8.335  0.2681  0.4702  0.2945
  357MOL0     C46999   2.308   1.862   8.411  0.4549  0.9485  0.1457
  357MOL0     O47000   2.352   1.818   8.536 -0.4418 -0.3343  1.1211
  357MOL0     C47001   2.446   1.713   8.521  0.0074  0.8701 -0.7041
  357MOL0     C47002   2.463   1.650   8.658 -0.4695  0.7614  0.4058
  357MOL0     C47003   2.593   1.571   8.649 -0.4768 -0.1537  0.6481
  357MOL0     C47004   2.636   1.520   8.775  0.1256 -0.6904 -0.4891
  357MOL0     C47005   2.783   1.456   8.777 -0.5304 -0.1757  0.2649
  357MOL0     C47006   2.784   1.334   8.683 -0.0137 -0.7320 -0.4771
  357MOL0     C47007   2.933   1.299   8.670 -0.0129  0.9360  1.7350
  357MOL0     C47008   2.942   1.172   8.587 -0.0181  0.3158  0.4063
  357MOL0     N47009   2.884   1.167   8.452  1.0946  0.0402 -0.1128
  357MOL0     C47010   2.944   1.189   8.337  0.3456 -0.5108  0.3785
  357MOL0     C47011   2.854   1.175   8.241  0.3335 -0.0536 -0.4772
  357MOL0     C47012   2.881   1.182   8.094 -0.2156  0.1412  0.6460
  357MOL0     C47013   2.941   1.047   8.042  0.4929  0.2651 -0.9381
  357MOL0     C47014   2.940   1.022   7.891  0.2654  0.0984 -0.4592
  357MOL0     C47015   2.810   1.015   7.827 -0.2378  0.2582  0.1152
  357MOL0     O47016   2.848   0.970   7.695  0.2858  0.5339 -0.2374
  357MOL0     C47017   2.855   1.058   7.581 -0.0323  0.5284 -1.0126
  357MOL0     C47018   2.914   1.007   7.466  0.4884  0.2886  0.5930
  357MOL0     C47019   2.911   1.078   7.345  0.0424 -0.6817 -0.0788
  357MOL0     C47020   2.842   1.205   7.330 -0.0737 -0.2127 -0.9985
  357MOL0     C47021   2.830   1.279   7.210  0.3842 -0.6863 -0.0782
  357MOL0     O47022   2.892   1.210   7.104 -0.2182 -0.3418 -0.5922
  357MOL0     C47023   2.840   1.228   6.975 -0.2181  0.3911 -0.2542
  357MOL0     C47024   2.796   1.346   6.924  0.5778 -0.0854  0.5387
  357MOL0     C47025   2.763   1.350   6.787  0.5421  0.4611  0.2789
  357MOL0     C47026   2.770   1.238   6.690  1.0126 -0.1393 -1.0029
  357MOL0     O47027   2.725   1.252   6.559  0.3255  1.2122  0.7924
  357MOL0     C47028   2.772   1.175   6.445  0.0710  0.1221 -0.2565
  357MOL0     C47029   2.919   1.202   6.400  0.9336 -0.5500  0.0752
  357MOL0     C47030   2.941   1.343   6.364 -0.6647 -0.3480  0.7027
  357MOL0     C47031   3.093   1.376   6.338  0.8204 -0.0069 -0.0749
  357MOL0     C47032   3.121   1.531   6.334  0.0308  0.2540 -0.9943
  357MOL0     C47033   3.272   1.561   6.325  0.5736 -0.1380  0.4209
  357MOL0     C47034   3.307   1.707   6.352 -0.4735 -0.8599  0.3997
  357MOL0     C47035   3.459   1.749   6.332  0.5775  0.3826 -0.3315
  357MOL0    Cl47036   3.561   1.643   6.422 -0.7412  0.1447 -0.3812
  357MOL0     C47037   2.802   1.118   6.756  0.7441  0.2445 -0.5187
  357MOL0     C47038   2.846   1.114   6.885  0.7698  0.3394 -0.4786
  357MOL0     O47039   2.773   1.387   7.202 -0.8869 -0.7502  0.8871
  357MOL0     C47040   2.789   1.255   7.452  0.0177 -0.1096 -1.1046
  357MOL0     C47041   2.791   1.183   7.570  0.2054 -0.7914 -0.1516
  357MOL0     N47042   2.739   1.128   8.294 -0.6748 -0.2302 -0.6708
  357MOL0     N47043   2.753   1.135   8.421  0.4031  0.0235  0.3157
  357MOL0     C47044   2.349   1.980   8.355  0.3672 -0.5678 -0.3420
  357MOL0     C47045   2.340   2.007   8.223 -0.7015  1.3735  0.5359
  357MOL0     C47046   2.325   1.908   7.784  0.3742 -0.1171 -0.2301
  357MOL0     C47047   2.386   1.813   7.690  0.0481 -0.5021 -0.1371
  357MOL0     C47048   2.362   1.831   7.548 -0.2915 -0.0413  0.1895
  357MOL0     C47049   2.294   1.938   7.496 -0.4927 -0.0033 -0.6072
  357MOL0     O47050   2.291   1.958   7.357 -0.8380  0.6318 -0.9294
  357MOL0     C47051   2.171   1.909   7.297 -0.0627 -0.0738 -0.2462
  357MOL0     C47052   2.199   1.833   7.168  0.0287  0.3674 -0.1649
  357MOL0     C47053   2.078   1.826   7.080  0.3238  1.3671 -0.2992
  357MOL0     C47054   2.107   1.734   6.962  0.2677 -1.1652 -0.3309
  357MOL0     C47055   2.046   1.773   6.835 -0.1244 -0.0575 -1.0334
  357MOL0     C47056   2.001   1.809   6.732 -0.7539  0.5302  0.2491
  357MOL0     C47057   2.225   2.015   7.595 -0.1719 -0.0187 -0.3984
  357MOL0     C47058   2.230   2.002   7.731 -0.4626  0.1220 -0.4068
  357MOL0     H47059   2.125   1.750   8.154 -0.6173  2.3192 -1.8420
  357MOL0     H47060   2.186   1.680   8.378 -1.4363  1.0074 -0.2123
  357MOL0     H47061   2.540   1.747   8.477 -0.1935 -0.6026 -2.3736
  357MOL0     H47062   2.410   1.634   8.455 -1.2544  0.2211  0.6967
  357MOL0     H47063   2.373   1.596   8.689  1.4508 -1.6430  2.1781
  357MOL0     H47064   2.473   1.735   8.726 -0.6048  0.6776  0.5293
  357MOL0     H47065   2.667   1.642   8.610 -1.1502  0.4815  0.4972
  357MOL0     H47066   2.572   1.484   8.586 -0.0086  0.4325 -0.3519
  357MOL0     H47067   2.626   1.599   8.850  1.8205  1.8166 -2.7191
  357MOL0     H47068   2.574   1.434   8.804 -0.8276 -0.0035 -0.4379
  357MOL0     H47069   2.809   1.429   8.879 -0.4554 -1.1021  0.0062
  357MOL0     H47070   2.847   1.538   8.741 -0.3201  0.3339  1.7478
  357MOL0     H47071   2.747   1.361   8.583  3.0947 -2.5201 -2.2898
  357MOL0     H47072   2.721   1.255   8.724 -2.4382  2.3145  2.1627
  357MOL0     H47073   2.996   1.371   8.617  1.3654 -2.2558 -1.3563
  357MOL0     H47074   2.978   1.268   8.764  2.7872  0.7770  0.4423
  357MOL0     H47075   2.888   1.105   8.655 -0.1643  1.8120  1.8493
  357MOL0     H47076   3.046   1.141   8.581  0.1115  0.3233  2.0434
  357MOL0     H47077   3.040   1.234   8.315 -0.0543 -0.8210 -2.3183
  357MOL0     H47078   2.952   1.261   8.068 -1.3157  0.8980 -0.1448
  357MOL0     H47079   2.793   1.190   8.030  0.2957 -1.3546 -0.3110
  357MOL0     H47080   2.883   0.968   8.090  1.5856 -0.8284 -1.3636
  357MOL0     H47081   3.042   1.049   8.086 -0.2016  0.3157  0.7223
  357MOL0     H47082   2.992   1.105   7.842 -0.1032 -0.8807 -2.6013
  357MOL0     H47083   2.993   0.931   7.864 -2.8389 -2.8930  2.4402
  357MOL0     H47084   2.760   1.113   7.827 -0.2333  0.2602  0.0503
  357MOL0     H47085   2.750   0.938   7.876  2.2785 -2.1175 -0.3317
  357MOL0     H47086   2.983   0.924   7.454 -1.2608 -1.2132  0.5075
  357MOL0     H47087   2.965   1.027   7.267  2.2019  2.7099 -1.0243
  357MOL0     H47088   2.792   1.435   6.986  0.0279  0.2714 -0.0027
  357MOL0     H47089   2.742   1.446   6.741  1.0998  0.8957  0.9049
  357MOL0     H47090   2.716   1.196   6.353  3.7510  3.7002 -1.9931
  357MOL0     H47091   2.768   1.068   6.467  2.7002  0.2654  1.3814
  357MOL0     H47092   2.932   1.130   6.319 -1.7126 -0.9173 -0.0980
  357MOL0     H47093   2.982   1.166   6.482 -0.1614 -5.2855 -0.8669
  357MOL0     H47094   2.895   1.399   6.446  0.0178 -2.0050  2.2640
  357MOL0     H47095   2.882   1.367   6.275  1.7900  0.5774 -0.7552
  357MOL0     H47096   3.149   1.330   6.420 -2.7626 -3.8676  0.5245
  357MOL0     H47097   3.151   1.332   6.256  3.9755  1.1013  1.3992
  357MOL0     H47098   3.080   1.577   6.424  0.0426 -1.3220 -0.1433
  357MOL0     H47099   3.060   1.568   6.251 -0.4601 -2.0949 -1.7722
  357MOL0     H47100   3.318   1.542   6.227  3.5036  2.9917  0.9721
  357MOL0     H47101   3.316   1.495   6.400  0.0412 -1.8349 -0.7049
  357MOL0     H47102   3.257   1.781   6.290  3.2814  0.2040 -1.6603
  357MOL0     H47103   3.282   1.727   6.457  3.3408 -2.8913  1.9186
  357MOL0     H47104   3.473   1.850   6.372 -0.6501  0.6469 -0.5434
  357MOL0     H47105   3.481   1.761   6.226 -0.4489 -2.7117 -1.0006
  357MOL0     H47106   2.802   1.031   6.691  2.2049 -1.5292  1.6959
  357MOL0     H47107   2.877   1.020   6.929  0.8319  0.2572 -0.6997
  357MOL0     H47108   2.734   1.348   7.456 -0.4635 -0.4155 -0.4367
  357MOL0     H47109   2.760   1.233   7.661 -1.0360  2.3749 -2.1408
  357MOL0     H47110   2.394   2.049   8.425 -0.2592 -1.3787  0.8883
  357MOL0     H47111   2.374   2.100   8.177  1.5048  0.3749  0.0217
  357MOL0     H47112   2.439   1.728   7.732 -0.6140 -1.0890 -0.4622
  357MOL0     H47113   2.415   1.767   7.478 -0.0500 -1.8308  1.9078
  357MOL0     H47114   2.097   1.986   7.271 -2.6878 -2.3042  0.1441
  357MOL0     H47115   2.116   1.841   7.364 -2.5128  0.7368 -1.3122
  357MOL0     H47116   2.275   1.893   7.117 -0.0363 -1.1122 -2.1593
  357MOL0     H47117   2.242   1.736   7.195  2.3694  0.9599 -1.5223
  357MOL0     H47118   2.058   1.930   7.054  2.1102  1.4674 -1.4512
  357MOL0     H47119   1.989   1.799   7.138  1.9088  1.2321  2.1909
  357MOL0     H47120   2.213   1.751   6.942  0.6498  3.5513  3.7396
  357MOL0     H47121   2.082   1.632   6.993 -0.2310 -0.5004  1.6272
  357MOL0     H47122   1.970   1.842   6.635 -0.2491 -0.8380 -0.4070
  357MOL0     H47123   2.173   2.101   7.554 -1.8063  0.1353  1.7824
  357MOL0     H47124   2.190   2.082   7.791  1.0059 -0.7963  1.9325
  358MOL0     O47125   7.454   5.347   2.573 -0.0160 -0.4278 -0.5796
  358MOL0     C47126   7.344   5.295   2.595  0.4152  0.2253  0.4869
  358MOL0     O47127   7.223   5.347   2.564 -0.0328  0.0570  0.5582
  358MOL0     C47128   7.213   5.474   2.518  0.1166 -0.0527  0.0543
  358MOL0     C47129   7.143   5.502   2.407 -0.5754 -0.0755 -0.2157
  358MOL0     C47130   7.116   5.634   2.365 -0.6443  0.7384 -1.0954
  358MOL0     C47131   7.167   5.739   2.440  0.3448  0.2868 -0.2733
  358MOL0     O47132   7.136   5.870   2.420  0.2712  0.6505  1.6851
  358MOL0     C47133   7.145   5.924   2.288 -0.2403  0.5330 -0.5546
  358MOL0     C47134   7.286   5.910   2.230  0.1030 -0.1745 -0.1672
  358MOL0     C47135   7.294   5.911   2.076  0.7769  0.1737 -0.9296
  358MOL0     C47136   7.229   6.038   2.013 -0.2879  0.1025  0.1282
  358MOL0     C47137   7.258   6.057   1.868 -0.6258 -0.2518  0.3451
  358MOL0     C47138   7.189   5.957   1.778  0.2854  1.0743 -0.4735
  358MOL0     C47139   7.219   5.975   1.624  0.5915 -0.0749 -0.3096
  358MOL0     C47140   7.352   5.921   1.586 -0.1609 -0.1933 -0.3318
  358MOL0     N47141   7.396   5.960   1.448  0.5742  0.3041 -0.1893
  358MOL0     C47142   7.487   6.060   1.424 -0.4710  0.0851  0.8216
  358MOL0     C47143   7.487   6.070   1.289 -0.3510  0.8869 -0.9109
  358MOL0     C47144   7.606   6.126   1.217 -0.8207  0.4721 -0.0666
  358MOL0     C47145   7.596   6.284   1.210  0.1304  0.5886 -0.1934
  358MOL0     C47146   7.716   6.344   1.148  0.2890 -0.8460 -0.0199
  358MOL0     C47147   7.842   6.354   1.236  0.0858  0.5935  0.6406
  358MOL0     O47148   7.821   6.398   1.368  0.6680  0.1582 -0.9334
  358MOL0     C47149   7.899   6.380   1.482 -0.1191  0.3495  0.8564
  358MOL0     C47150   8.030   6.330   1.476  0.7215  0.7063  0.1480
  358MOL0     C47151   8.099   6.320   1.594  0.7725 -0.3638  0.0835
  358MOL0     C47152   8.047   6.349   1.720 -0.1035 -0.1594 -0.3062
  358MOL0     C47153   8.130   6.328   1.840  0.3648  0.2393 -0.4764
  358MOL0     O47154   8.239   6.248   1.832 -0.7552  0.5277 -0.1109
  358MOL0     C47155   8.300   6.221   1.951 -0.1618  0.2557 -0.7282
  358MOL0     C47156   8.381   6.317   2.013  0.2047 -1.2521 -0.2273
  358MOL0     C47157   8.475   6.286   2.112  0.2465 -0.2818  0.0691
  358MOL0     C47158   8.479   6.149   2.157  0.6739 -0.0984  0.6407
  358MOL0     O47159   8.567   6.108   2.250 -0.1301  0.5481 -0.3501
  358MOL0     C47160   8.620   6.197   2.351  0.1076  0.4611  0.0971
  358MOL0     C47161   8.689   6.107   2.450 -0.0529  0.1063  0.0346
  358MOL0     C47162   8.810   6.022   2.405  0.0525 -0.0863  0.1876
  358MOL0     C47163   8.780   5.879   2.421 -0.7633 -1.1953  0.2518
  358MOL0     C47164   8.900   5.781   2.373 -0.9919  0.2638 -0.8183
  358MOL0     C47165   8.849   5.639   2.346 -0.0887 -0.1700  0.4432
  358MOL0     C47166   8.740   5.587   2.439 -0.4628  0.4629 -0.4693
  358MOL0     C47167   8.687   5.447   2.425 -0.6896 -0.1768 -0.1725
  358MOL0    Cl47168   8.533   5.442   2.521  0.3265  0.7181 -0.4214
  358MOL0     C47169   8.392   6.053   2.097 -0.9607 -0.3255 -0.3705
  358MOL0     C47170   8.300   6.088   2.000 -0.9901 -0.0842 -0.2964
  358MOL0     O47171   8.077   6.371   1.939 -0.2749 -0.7665 -0.7887
  358MOL0     C47172   7.917   6.395   1.725 -0.0906 -0.1847 -0.5311
  358MOL0     C47173   7.849   6.420   1.600 -0.3756  0.1714  0.0240
  358MOL0     N47174   7.382   5.997   1.241  0.1885 -0.5917  0.3803
  358MOL0     N47175   7.329   5.936   1.329  0.8410 -0.4695  0.1337
  358MOL0     C47176   7.247   5.720   2.549 -0.5243 -0.5777 -0.5179
  358MOL0     C47177   7.267   5.586   2.596 -0.0970  0.6938 -0.9152
  358MOL0     C47178   7.350   5.157   2.653  0.0491 -1.0180 -0.7137
  358MOL0     C47179   7.457   5.111   2.743  0.4873  0.3031  1.0304
  358MOL0     C47180   7.443   4.993   2.818  0.6184  1.4650 -0.2204
  358MOL0     C47181   7.332   4.908   2.798  0.3982  0.3687 -0.5325
  358MOL0     O47182   7.326   4.786   2.859  0.7028  0.0192 -0.3510
  358MOL0     C47183   7.228   4.680   2.833  0.6844  0.6064  0.7557
  358MOL0     C47184   7.298   4.548   2.781 -0.2601  0.6412 -0.3916
  358MOL0     C47185   7.375   4.563   2.641  0.7271  0.9450 -0.2341
  358MOL0     C47186   7.479   4.463   2.613  0.1768 -0.2244  0.1007
  358MOL0     C47187   7.519   4.458   2.466 -1.0005 -0.3006  0.5137
  358MOL0     C47188   7.543   4.455   2.351  0.6136  0.9376  0.5065
  358MOL0     C47189   7.222   4.961   2.729  0.6731  0.1421  0.5837
  358MOL0     C47190   7.233   5.082   2.659  0.1944 -1.3083  0.4841
  358MOL0     H47191   7.092   5.425   2.350 -5.2267  1.3120  1.5743
  358MOL0     H47192   7.052   5.657   2.280 -0.9850 -1.0184 -1.3570
  358MOL0     H47193   7.123   6.030   2.301  2.6910  0.9810  2.0573
  358MOL0     H47194   7.064   5.886   2.225  0.9538 -0.1909 -1.7037
  358MOL0     H47195   7.342   5.831   2.280 -3.6398 -2.3344  1.0566
  358MOL0     H47196   7.342   6.002   2.248 -1.9040  0.9736  0.6632
  358MOL0     H47197   7.238   5.819   2.058  0.6442 -0.6181  2.7133
  358MOL0     H47198   7.400   5.900   2.048  1.4663  0.0501  1.4558
  358MOL0     H47199   7.120   6.038   2.018 -0.5274  4.3453 -1.3365
  358MOL0     H47200   7.278   6.121   2.064 -1.1516 -0.8543  2.6891
  358MOL0     H47201   7.365   6.052   1.846 -1.0592  0.6922 -2.2295
  358MOL0     H47202   7.234   6.160   1.841  1.2526 -0.1218 -1.0135
  358MOL0     H47203   7.081   5.967   1.786  0.2994  1.1162 -0.3195
  358MOL0     H47204   7.209   5.856   1.814  2.4968  2.6454  3.4273
  358MOL0     H47205   7.144   5.931   1.559  0.8459 -0.4639 -0.3474
  358MOL0     H47206   7.220   6.083   1.613 -0.2976 -0.1085 -0.7760
  358MOL0     H47207   7.338   5.812   1.593 -1.0101 -0.3014 -2.8039
  358MOL0     H47208   7.434   5.951   1.652  0.8132 -2.5063 -0.3715
  358MOL0     H47209   7.556   6.109   1.492 -0.3816  0.9308  0.1338
  358MOL0     H47210   7.629   6.076   1.122 -0.0826 -0.1328  0.4179
  358MOL0     H47211   7.696   6.104   1.275  0.7052 -0.7714 -2.6753
  358MOL0     H47212   7.578   6.333   1.306  3.2974  3.6678 -0.9980
  358MOL0     H47213   7.507   6.311   1.151 -0.9871  0.2795  1.2966
  358MOL0     H47214   7.733   6.304   1.048 -1.2947 -1.7952  0.0456
  358MOL0     H47215   7.692   6.450   1.134  0.5250 -0.6938  0.6817
  358MOL0     H47216   7.924   6.400   1.179 -0.4034 -3.2303 -3.7435
  358MOL0     H47217   7.881   6.252   1.243  0.0302  0.5119 -0.2060
  358MOL0     H47218   8.075   6.291   1.385  0.9729 -0.6685  0.8460
  358MOL0     H47219   8.202   6.292   1.575  0.8404  1.3403 -2.5618
  358MOL0     H47220   8.396   6.414   1.966  3.4437 -1.0163  1.0288
  358MOL0     H47221   8.557   6.349   2.148  0.4284 -0.2303 -0.4337
  358MOL0     H47222   8.535   6.243   2.403  0.6522  0.6182  0.8653
  358MOL0     H47223   8.696   6.265   2.312  0.7124 -0.7508 -0.8982
  358MOL0     H47224   8.614   6.043   2.498 -2.3859  1.9118 -1.0133
  358MOL0     H47225   8.718   6.173   2.533 -0.2029  0.0376  0.1409
  358MOL0     H47226   8.895   6.044   2.470  0.3343 -3.1224  0.9800
  358MOL0     H47227   8.824   6.041   2.298  2.4244  0.8616  0.5813
  358MOL0     H47228   8.746   5.865   2.524  0.9355  3.1185  1.6147
  358MOL0     H47229   8.687   5.863   2.367 -1.1279  1.6573 -0.1234
  358MOL0     H47230   8.968   5.751   2.453 -2.2226 -1.0842 -0.2181
  358MOL0     H47231   8.946   5.821   2.283 -3.1500  2.3822 -1.0509
  358MOL0     H47232   8.928   5.564   2.347  1.2698  1.1933  1.1123
  358MOL0     H47233   8.800   5.644   2.249 -2.1902 -1.0669  1.3889
  358MOL0     H47234   8.784   5.604   2.537 -1.4023  0.1975  0.0167
  358MOL0     H47235   8.652   5.653   2.429  0.1765  1.0938 -2.5635
  358MOL0     H47236   8.758   5.375   2.467 -0.8411 -1.2035 -1.6252
  358MOL0     H47237   8.681   5.431   2.317  0.8223  1.1758 -0.4992
  358MOL0     H47238   8.386   5.955   2.142 -1.1387 -0.8089 -1.4161
  358MOL0     H47239   8.240   6.006   1.961 -0.9215 -0.9351  1.3007
  358MOL0     H47240   7.871   6.427   1.817 -2.2095 -5.3391  0.5235
  358MOL0     H47241   7.758   6.478   1.598  0.0444  1.1110  3.1352
  358MOL0     H47242   7.290   5.800   2.609  0.7995 -0.4039 -1.6610
  358MOL0     H47243   7.329   5.566   2.683 -0.4037 -0.0279 -0.8581
  358MOL0     H47244   7.540   5.174   2.772  0.0377  0.6432  1.6050
  358MOL0     H47245   7.513   4.957   2.893 -0.3618 -1.8478 -0.7497
  358MOL0     H47246   7.159   4.693   2.750  0.8792 -0.8901  0.3135
  358MOL0     H47247   7.176   4.658   2.927  1.0192 -0.2246  0.7580
  358MOL0     H47248   7.362   4.504   2.859  0.7048  0.3657 -1.3243
  358MOL0     H47249   7.215   4.481   2.759  0.6637 -0.9195  0.6852
  358MOL0     H47250   7.421   4.661   2.631  1.4521  0.9235  2.2469
  358MOL0     H47251   7.298   4.543   2.566  0.6762 -1.3859  0.3526
  358MOL0     H47252   7.569   4.489   2.670 -0.1960  1.3555 -0.0059
  358MOL0     H47253   7.446   4.362   2.640 -1.3671 -0.1963 -1.5146
  358MOL0     H47254   7.579   4.451   2.250  0.7659 -2.8670  0.5629
  358MOL0     H47255   7.134   4.903   2.703  2.1491 -1.8805 -0.1783
  358MOL0     H47256   7.140   5.117   2.614  2.7564 -0.7473 -5.2056
  359MOL0     O47257   1.645  11.354   6.223  0.6348  0.2634  0.5717
  359MOL0     C47258   1.540  11.398   6.183  1.2483 -0.5411  0.7908
  359MOL0     O47259   1.425  11.327   6.144 -0.4279  0.0456 -0.1901
  359MOL0     C47260   1.418  11.191   6.154 -0.4253  0.5191 -0.1919
  359MOL0     C47261   1.504  11.120   6.246  0.2739  0.0791  0.3429
  359MOL0     C47262   1.486  10.979   6.268 -0.3331 -0.7438 -0.7519
  359MOL0     C47263   1.407  10.916   6.170 -0.1913 -0.6568  1.0558
  359MOL0     O47264   1.415  10.781   6.171  0.7807  0.1093  0.2535
  359MOL0     C47265   1.327  10.688   6.097 -0.5794 -0.2970 -0.6406
  359MOL0     C47266   1.324  10.554   6.163 -0.4840  0.5445 -0.8334
  359MOL0     C47267   1.246  10.560   6.304  0.5301  0.7936 -0.0185
  359MOL0     C47268   1.211  10.430   6.378 -0.1349  0.9114  0.5055
  359MOL0     C47269   1.333  10.329   6.390 -0.2539 -1.0337 -0.1270
  359MOL0     C47270   1.436  10.397   6.480 -0.0244 -0.2268 -0.4077
  359MOL0     C47271   1.530  10.287   6.543 -0.7597  0.4700  0.5011
  359MOL0     C47272   1.588  10.328   6.676 -0.0336 -0.2020  0.1340
  359MOL0     N47273   1.593  10.230   6.782  0.5403 -0.4990 -0.4312
  359MOL0     C47274   1.687  10.141   6.815  0.4049  0.3274 -0.6000
  359MOL0     C47275   1.651  10.108   6.945 -0.2965 -0.3787 -0.9697
  359MOL0     C47276   1.714   9.994   7.030  0.1699  0.1326 -0.4779
  359MOL0     C47277   1.854  10.029   7.054  0.2139  0.1592 -0.2429
  359MOL0     C47278   1.940   9.928   7.142 -0.0208 -0.7369  0.8589
  359MOL0     C47279   1.858   9.841   7.240 -0.8211  1.1339  0.5670
  359MOL0     O47280   1.800   9.918   7.345  0.3650  0.7190  0.6308
  359MOL0     C47281   1.733   9.846   7.445  1.0181  0.6368  0.4335
  359MOL0     C47282   1.701   9.707   7.456 -0.0737 -0.3572  0.6205
  359MOL0     C47283   1.623   9.656   7.561  0.2905 -0.0886  0.3686
  359MOL0     C47284   1.585   9.737   7.673  0.6658  0.4300 -0.0925
  359MOL0     C47285   1.502   9.680   7.781 -0.6454  0.3348  0.0736
  359MOL0     O47286   1.487   9.544   7.782 -0.1572 -0.5557 -0.0388
  359MOL0     C47287   1.400   9.479   7.867 -0.5793 -0.8531 -0.0870
  359MOL0     C47288   1.278   9.451   7.825  1.3299  0.1100  0.0556
  359MOL0     C47289   1.193   9.379   7.904  0.0335  0.5730 -0.2873
  359MOL0     C47290   1.216   9.365   8.043 -0.4993  0.0640  0.7459
  359MOL0     O47291   1.124   9.295   8.120 -0.0465 -0.5519  0.1939
  359MOL0     C47292   1.119   9.337   8.262  0.7504 -0.8938  0.5735
  359MOL0     C47293   0.984   9.305   8.306  0.2183 -0.0100 -0.3529
  359MOL0     C47294   0.972   9.344   8.456 -0.0694  0.1174 -0.3244
  359MOL0     C47295   0.834   9.343   8.513  0.1091  0.3177 -0.1565
  359MOL0     C47296   0.829   9.414   8.655  0.7271  0.4751  0.1498
  359MOL0     C47297   0.728   9.341   8.754 -0.0901 -0.1689  1.3080
  359MOL0     C47298   0.715   9.405   8.892 -0.7643 -0.4235 -0.3314
  359MOL0     C47299   0.587   9.487   8.910 -0.4402 -0.0232 -0.0041
  359MOL0    Cl47300   0.597   9.629   8.786 -0.2531 -0.0134  0.2783
  359MOL0     C47301   1.339   9.399   8.092  0.2156 -0.8431 -0.6598
  359MOL0     C47302   1.433   9.464   8.006 -0.6114 -0.2987 -1.2809
  359MOL0     O47303   1.451   9.762   7.857 -0.3745  0.4661  0.1530
  359MOL0     C47304   1.622   9.874   7.669  0.1055 -0.6617  0.2884
  359MOL0     C47305   1.694   9.927   7.554  0.6717 -1.0597  0.3547
  359MOL0     N47306   1.538  10.177   6.982 -0.1458 -0.6001 -0.3086
  359MOL0     N47307   1.505  10.248   6.885  0.5919 -1.0052 -0.5128
  359MOL0     C47308   1.339  10.991   6.063 -0.0395  0.2288 -0.8670
  359MOL0     C47309   1.340  11.124   6.057  0.3521 -0.3943 -0.1726
  359MOL0     C47310   1.523  11.541   6.182 -0.0573 -0.1639  0.5169
  359MOL0     C47311   1.397  11.596   6.161  0.0014 -0.1546 -0.3286
  359MOL0     C47312   1.381  11.733   6.138 -0.8904 -0.1667 -0.5330
  359MOL0     C47313   1.493  11.821   6.146  0.3687 -0.1240 -0.7162
  359MOL0     O47314   1.485  11.954   6.163  0.5769 -0.0647 -0.5722
  359MOL0     C47315   1.359  12.017   6.125 -0.8646  0.3917  0.4952
  359MOL0     C47316   1.355  12.167   6.146 -0.1872  0.1084 -0.7227
  359MOL0     C47317   1.473  12.219   6.063  0.6367  0.7445 -0.4850
  359MOL0     C47318   1.456  12.359   6.004  0.5212 -0.5372  0.6741
  359MOL0     C47319   1.361  12.367   5.890  0.0340 -0.6214  0.7745
  359MOL0     C47320   1.267  12.373   5.815 -0.0613  0.1539 -0.2414
  359MOL0     C47321   1.614  11.761   6.179 -0.0884 -0.3906 -0.2033
  359MOL0     C47322   1.635  11.616   6.187  1.0286  0.8097 -1.1588
  359MOL0     H47323   1.565  11.178   6.315 -1.5501  4.1836 -1.1867
  359MOL0     H47324   1.548  10.929   6.342  1.1007  2.6966  0.6186
  359MOL0     H47325   1.356  10.664   5.994  1.4050 -1.2773  0.0968
  359MOL0     H47326   1.232  10.740   6.083  0.2079  0.7779 -2.3349
  359MOL0     H47327   1.427  10.532   6.193 -1.7137 -0.0183  3.7231
  359MOL0     H47328   1.274  10.473   6.110 -2.1013  0.1382  1.1906
  359MOL0     H47329   1.158  10.622   6.283  1.3940  1.3572 -2.2623
  359MOL0     H47330   1.308  10.630   6.361  0.7787 -0.1887  0.9575
  359MOL0     H47331   1.174  10.449   6.479 -3.1656  0.1396 -0.3473
  359MOL0     H47332   1.141  10.375   6.314  2.8245  1.4095 -3.5686
  359MOL0     H47333   1.383  10.311   6.294  1.6511  0.7215  0.4554
  359MOL0     H47334   1.298  10.236   6.436 -2.4002  0.8659  2.3950
  359MOL0     H47335   1.380  10.444   6.562 -0.8707  0.1526 -1.1891
  359MOL0     H47336   1.480  10.488   6.438  0.1256  1.0960  2.3342
  359MOL0     H47337   1.478  10.196   6.573 -0.2507 -0.0899 -0.2598
  359MOL0     H47338   1.601  10.265   6.463 -1.0072 -0.4655  0.5360
  359MOL0     H47339   1.533  10.417   6.708  0.2457  1.1399 -2.7313
  359MOL0     H47340   1.687  10.362   6.646 -0.3348  0.4400 -0.1503
  359MOL0     H47341   1.777  10.101   6.769  0.9979 -2.4855  2.5844
  359MOL0     H47342   1.710   9.904   6.968  1.4757 -0.5833  0.4234
  359MOL0     H47343   1.649   9.989   7.117  0.8987 -0.1960  0.0553
  359MOL0     H47344   1.852  10.117   7.119 -0.1697 -2.3000  3.3418
  359MOL0     H47345   1.904  10.042   6.957  0.3951  0.6911 -0.0806
  359MOL0     H47346   1.987   9.860   7.071  1.8054  2.4268 -1.2120
  359MOL0     H47347   2.026   9.980   7.186  0.5740  0.8631 -1.9226
  359MOL0     H47348   1.929   9.774   7.290 -1.5864  0.1819  0.4222
  359MOL0     H47349   1.780   9.782   7.191 -1.1693  0.1477  2.2205
  359MOL0     H47350   1.731   9.649   7.369 -2.2501  3.4319 -2.9971
  359MOL0     H47351   1.597   9.551   7.551 -4.3540  0.9756 -1.2453
  359MOL0     H47352   1.263   9.464   7.718  2.0018  2.9975  0.2266
  359MOL0     H47353   1.101   9.338   7.864  0.7871  0.1005 -1.5921
  359MOL0     H47354   1.145   9.443   8.268 -1.8115  0.0182 -2.0940
  359MOL0     H47355   1.181   9.262   8.312 -0.6506 -3.0714 -0.7824
  359MOL0     H47356   0.967   9.197   8.305  2.4007 -0.4178 -2.4950
  359MOL0     H47357   0.913   9.366   8.250  1.5628  2.6105  0.5950
  359MOL0     H47358   1.014   9.445   8.462 -0.6494  0.4626 -1.6337
  359MOL0     H47359   1.019   9.272   8.523 -1.8695  0.4367  1.3738
  359MOL0     H47360   0.762   9.382   8.441  1.1133  2.2200 -0.1922
  359MOL0     H47361   0.818   9.237   8.532  0.1072  0.4896  0.8865
  359MOL0     H47362   0.798   9.516   8.628  0.9896  0.2785 -0.9378
  359MOL0     H47363   0.924   9.406   8.710  1.4070 -3.1461 -1.2993
  359MOL0     H47364   0.752   9.234   8.762 -0.1096 -0.1313  1.9825
  359MOL0     H47365   0.627   9.335   8.713 -0.0082 -0.6240  1.1653
  359MOL0     H47366   0.705   9.321   8.962  2.1751 -0.5424  0.0776
  359MOL0     H47367   0.807   9.460   8.914 -0.1483 -0.4495 -2.6480
  359MOL0     H47368   0.587   9.528   9.012 -2.4172 -1.0135  0.4502
  359MOL0     H47369   0.499   9.421   8.904  1.3403 -2.6160  0.7844
  359MOL0     H47370   1.363   9.378   8.196  1.5908  1.9390 -0.3300
  359MOL0     H47371   1.530   9.500   8.038  0.1684  0.0025 -3.7797
  359MOL0     H47372   1.591   9.935   7.754 -1.1378 -3.5599  2.0850
  359MOL0     H47373   1.711  10.034   7.552  2.6972 -1.3339  0.2940
  359MOL0     H47374   1.268  10.943   5.996 -0.1936  0.6875 -1.0317
  359MOL0     H47375   1.283  11.185   5.989  0.2696  3.1940  2.7951
  359MOL0     H47376   1.310  11.532   6.156 -0.8759  0.8756  1.1198
  359MOL0     H47377   1.280  11.770   6.127 -1.5636 -0.4982  3.1385
  359MOL0     H47378   1.282  11.972   6.187 -0.6774  0.7386  0.9910
  359MOL0     H47379   1.352  11.991   6.019 -1.9133 -0.5101  0.7751
  359MOL0     H47380   1.266  12.213   6.102 -0.0878 -0.1620 -1.2163
  359MOL0     H47381   1.379  12.194   6.249 -0.1724 -2.7154  0.1033
  359MOL0     H47382   1.519  12.159   5.984  0.4970 -1.3667  0.9678
  359MOL0     H47383   1.556  12.223   6.135  1.0536  0.7022 -0.9593
  359MOL0     H47384   1.435  12.427   6.087  2.2419  0.3893  0.4104
  359MOL0     H47385   1.554  12.381   5.961  0.5466 -2.1788 -0.2028
  359MOL0     H47386   1.187  12.381   5.744 -1.5064 -0.5195  1.2585
  359MOL0     H47387   1.694  11.831   6.197  0.4080 -1.4380  1.9304
  359MOL0     H47388   1.732  11.570   6.202 -0.7624 -2.6984  0.7566
  360MOL0     O47389   9.577   5.206   4.319  1.2586  0.6171 -0.4351
  360MOL0     C47390   9.607   5.196   4.202 -0.3414 -0.5174 -0.3972
  360MOL0     O47391   9.598   5.086   4.126 -0.1036 -0.3743  0.1893
  360MOL0     C47392   9.535   4.983   4.190 -0.0830 -0.5669 -0.7354
  360MOL0     C47393   9.616   4.870   4.224  1.4954  0.6301  0.3300
  360MOL0     C47394   9.546   4.763   4.287  0.1145 -0.2645  0.8978
  360MOL0     C47395   9.411   4.780   4.324  0.3808  0.2443 -0.8158
  360MOL0     O47396   9.351   4.686   4.398 -0.5596 -0.2107  0.1362
  360MOL0     C47397   9.392   4.681   4.537 -0.4080 -0.3291 -0.6005
  360MOL0     C47398   9.283   4.619   4.617  1.1590  0.0597 -0.3693
  360MOL0     C47399   9.256   4.480   4.571 -0.1785  0.5206  0.8032
  360MOL0     C47400   9.166   4.393   4.666 -0.9508 -0.3200 -0.3806
  360MOL0     C47401   9.023   4.411   4.626  0.3461  0.6881  0.5181
  360MOL0     C47402   8.938   4.338   4.732  0.5013 -0.0608 -0.2755
  360MOL0     C47403   8.787   4.345   4.701  0.1493 -1.1842 -0.1510
  360MOL0     C47404   8.753   4.240   4.598  0.5783  0.8385 -0.1569
  360MOL0     N47405   8.612   4.261   4.572 -1.3491 -0.6601 -0.8580
  360MOL0     C47406   8.556   4.346   4.477  0.0061 -0.8166 -0.0898
  360MOL0     C47407   8.425   4.337   4.492  0.7152  0.4927 -0.5687
  360MOL0     C47408   8.328   4.411   4.414  1.0463 -1.2638 -0.0092
  360MOL0     C47409   8.225   4.334   4.331  0.2966 -0.0929  0.9239
  360MOL0     C47410   8.137   4.426   4.241 -0.1256  0.1894  0.9237
  360MOL0     C47411   8.068   4.346   4.125 -0.3170  0.5612  0.0027
  360MOL0     O47412   8.157   4.321   4.023  0.1384  0.5808  0.6133
  360MOL0     C47413   8.101   4.312   3.886 -0.1209 -0.3265 -0.0217
  360MOL0     C47414   7.970   4.297   3.838  0.2731 -0.0374 -0.5305
  360MOL0     C47415   7.940   4.295   3.699  0.1362 -0.0060 -0.6373
  360MOL0     C47416   8.037   4.319   3.596 -0.0662 -0.4765 -0.5093
  360MOL0     C47417   8.006   4.323   3.450 -0.1354 -0.8679  0.5188
  360MOL0     O47418   7.879   4.277   3.415  0.9594  0.4773 -0.3910
  360MOL0     C47419   7.877   4.220   3.287  0.4348  0.5573 -0.5077
  360MOL0     C47420   7.893   4.087   3.267  0.5266 -0.3168 -0.9335
  360MOL0     C47421   7.858   4.026   3.146 -0.8098  0.6247  0.3965
  360MOL0     C47422   7.796   4.103   3.036  0.3642  0.5422 -0.4421
  360MOL0     O47423   7.773   4.036   2.924 -0.4365  0.1545 -0.5595
  360MOL0     C47424   7.765   4.108   2.802  0.5533 -0.5395  1.0718
  360MOL0     C47425   7.897   4.170   2.753 -1.1283  0.3443  0.4155
  360MOL0     C47426   8.013   4.065   2.725  0.3573 -0.4031 -0.3824
  360MOL0     C47427   8.103   4.064   2.847 -0.7244  0.6798 -0.2820
  360MOL0     C47428   8.219   3.963   2.833  0.0127  0.1389 -0.7070
  360MOL0     C47429   8.330   3.990   2.732  0.2313  0.9149  0.1322
  360MOL0     C47430   8.408   4.117   2.756 -0.2322  0.3719  0.5328
  360MOL0     C47431   8.432   4.209   2.633  0.5619 -0.0840 -1.1498
  360MOL0    Cl47432   8.559   4.325   2.689  0.3482  0.0720 -0.1422
  360MOL0     C47433   7.774   4.242   3.059  0.5661  0.2685  0.1016
  360MOL0     C47434   7.818   4.302   3.183  0.1516 -0.2857  1.2513
  360MOL0     O47435   8.094   4.357   3.365 -0.0662  0.7261 -0.6880
  360MOL0     C47436   8.162   4.349   3.644  0.0385  0.2734  0.6569
  360MOL0     C47437   8.191   4.327   3.777  0.9619  0.2600  0.3519
  360MOL0     N47438   8.394   4.243   4.590  0.0700 -0.1601 -0.2602
  360MOL0     N47439   8.502   4.205   4.636 -0.2422  0.8825 -0.6077
  360MOL0     C47440   9.336   4.889   4.291 -0.5344  0.4305  0.7721
  360MOL0     C47441   9.399   4.986   4.219 -0.2814  0.6490  0.2917
  360MOL0     C47442   9.669   5.318   4.156  0.4532 -0.5362  1.3630
  360MOL0     C47443   9.760   5.323   4.052 -0.5646 -0.3907 -0.2483
  360MOL0     C47444   9.798   5.443   3.984  1.1918  0.9982  0.1199
  360MOL0     C47445   9.753   5.566   4.030 -0.7680 -0.5585 -0.5753
  360MOL0     O47446   9.802   5.678   3.978  0.2247  0.0287  0.7312
  360MOL0     C47447   9.915   5.730   4.042  0.6848  0.4619  0.3745
  360MOL0     C47448  10.029   5.709   3.944 -0.1813 -0.2935 -0.2825
  360MOL0     C47449  10.034   5.815   3.821  0.2532 -0.5241 -0.3224
  360MOL0     C47450   9.912   5.822   3.725 -0.3402  0.8207 -0.0080
  360MOL0     C47451   9.941   5.920   3.620 -0.3297  0.6279  0.5541
  360MOL0     C47452   9.961   6.000   3.526  0.2465  0.3156 -0.8757
  360MOL0     C47453   9.674   5.570   4.144 -0.3178 -0.2271 -1.0682
  360MOL0     C47454   9.632   5.449   4.206  0.1132 -0.6442 -0.3127
  360MOL0     H47455   9.724   4.877   4.212  1.5890  0.0299  0.7870
  360MOL0     H47456   9.594   4.670   4.313  0.2399 -0.9328 -1.4647
  360MOL0     H47457   9.429   4.775   4.581  1.0685 -0.7154 -0.9604
  360MOL0     H47458   9.484   4.624   4.529  1.8932  2.8357  0.8568
  360MOL0     H47459   9.195   4.684   4.613  2.0098  1.2717  0.1393
  360MOL0     H47460   9.314   4.618   4.722 -0.6584  3.1644  0.3330
  360MOL0     H47461   9.354   4.434   4.562 -0.1795  0.3503  1.6008
  360MOL0     H47462   9.212   4.488   4.471 -1.7899  3.3697  1.6288
  360MOL0     H47463   9.189   4.288   4.647  1.5571  0.1749 -0.3980
  360MOL0     H47464   9.182   4.427   4.769 -0.9669  0.9179 -0.7754
  360MOL0     H47465   9.007   4.373   4.524  0.8310  0.6127  0.4661
  360MOL0     H47466   8.998   4.517   4.636  2.4424  0.9920  3.6224
  360MOL0     H47467   8.951   4.390   4.827  0.0582  0.4627 -0.4984
  360MOL0     H47468   8.955   4.232   4.752 -3.2889 -0.4551  2.0022
  360MOL0     H47469   8.732   4.338   4.796  0.8406  1.6231  0.5527
  360MOL0     H47470   8.765   4.440   4.653 -3.2031 -3.1940 -3.0807
  360MOL0     H47471   8.756   4.138   4.638  0.2707  0.3928 -1.2381
  360MOL0     H47472   8.809   4.254   4.505  1.3546 -2.8517 -0.4112
  360MOL0     H47473   8.609   4.403   4.401 -2.6169 -1.1548 -2.3518
  360MOL0     H47474   8.388   4.460   4.337 -1.2644 -0.2564 -1.2476
  360MOL0     H47475   8.277   4.481   4.481  0.9497 -0.6962 -0.6742
  360MOL0     H47476   8.160   4.289   4.406  1.6239 -0.3354  1.9872
  360MOL0     H47477   8.270   4.262   4.261 -3.7133 -0.8773 -1.1230
  360MOL0     H47478   8.059   4.469   4.304  0.9767 -0.3610  2.7253
  360MOL0     H47479   8.194   4.509   4.196 -0.2357 -0.8692 -1.2990
  360MOL0     H47480   7.986   4.404   4.081 -0.6085  1.5376  1.7484
  360MOL0     H47481   8.030   4.248   4.156  2.1790 -0.3865  0.2972
  360MOL0     H47482   7.883   4.287   3.903  0.2179 -0.4937 -0.6722
  360MOL0     H47483   7.839   4.272   3.668  0.5530 -3.8907  0.4339
  360MOL0     H47484   7.920   4.030   3.355 -2.1689 -2.3135 -1.2606
  360MOL0     H47485   7.883   3.924   3.120  2.8843  0.9496  2.0762
  360MOL0     H47486   7.694   4.192   2.803  0.8419 -0.2455 -0.6962
  360MOL0     H47487   7.722   4.046   2.723 -0.5194  0.7280  0.6136
  360MOL0     H47488   7.928   4.232   2.837  1.9399 -2.3706  1.4984
  360MOL0     H47489   7.878   4.231   2.664 -2.8309  2.0131  1.8490
  360MOL0     H47490   8.075   4.093   2.639  1.9940 -0.1719  0.8257
  360MOL0     H47491   7.977   3.967   2.694  2.4122 -0.6403 -2.2706
  360MOL0     H47492   8.144   4.165   2.857  0.3556  0.3995 -1.4961
  360MOL0     H47493   8.042   4.045   2.935 -0.3689 -0.0859 -0.1865
  360MOL0     H47494   8.178   3.862   2.831  0.2703 -0.0717  1.6308
  360MOL0     H47495   8.272   3.956   2.929 -2.4393 -1.2931  0.6379
  360MOL0     H47496   8.292   3.973   2.631  2.1043 -5.6347  0.0999
  360MOL0     H47497   8.399   3.906   2.724 -0.8281  0.1128 -1.0768
  360MOL0     H47498   8.368   4.184   2.832 -0.0777  1.1384 -0.0536
  360MOL0     H47499   8.504   4.079   2.791 -0.8942 -3.1468 -0.9855
  360MOL0     H47500   8.345   4.267   2.601  0.8224  1.9527  1.4386
  360MOL0     H47501   8.486   4.152   2.558  6.8615 -0.5612  2.9590
  360MOL0     H47502   7.715   4.293   2.983  1.9834  0.6509 -0.7702
  360MOL0     H47503   7.799   4.405   3.213  0.6526  0.1808 -0.0032
  360MOL0     H47504   8.244   4.367   3.575  0.1983 -2.0446  0.1557
  360MOL0     H47505   8.297   4.340   3.798  0.7081  0.4226  1.6447
  360MOL0     H47506   9.230   4.909   4.301  0.0673  3.4873  1.9142
  360MOL0     H47507   9.346   5.077   4.193  1.0806  0.9340 -1.7230
  360MOL0     H47508   9.771   5.230   3.998 -2.6553 -0.2547 -1.0195
  360MOL0     H47509   9.860   5.434   3.895 -0.4592 -0.1931 -0.9561
  360MOL0     H47510   9.947   5.672   4.129 -0.3369 -0.0160  0.4503
  360MOL0     H47511   9.888   5.827   4.083  0.2285 -0.2111  1.7412
  360MOL0     H47512  10.122   5.727   3.997  0.0887  0.4888 -1.0029
  360MOL0     H47513  10.024   5.605   3.909  1.2223 -0.2036 -0.8014
  360MOL0     H47514  10.128   5.798   3.767  0.0988 -0.6928 -0.5428
  360MOL0     H47515  10.028   5.912   3.870 -1.6499 -1.8313  2.3115
  360MOL0     H47516   9.891   5.722   3.686 -1.2311  1.2254 -0.6088
  360MOL0     H47517   9.825   5.844   3.787  1.9437 -2.1016  4.8738
  360MOL0     H47518   9.987   6.073   3.452 -3.4160  1.9806 -0.7549
  360MOL0     H47519   9.641   5.665   4.182  1.0842 -0.1043 -0.0762
  360MOL0     H47520   9.566   5.470   4.289 -1.8580 -1.4867 -1.5826
  361MOL0     O47521   1.938   6.922  10.145  1.3346 -0.5454 -0.4797
  361MOL0     C47522   1.995   6.870  10.242 -0.4924 -0.7118 -0.7498
  361MOL0     O47523   2.096   6.784  10.239  0.4946 -0.0616 -0.1294
  361MOL0     C47524   2.128   6.707  10.127  0.6983 -0.8344 -0.0378
  361MOL0     C47525   2.222   6.605  10.143  0.3385 -0.3192 -0.3304
  361MOL0     C47526   2.271   6.532  10.038  0.2189 -0.4916  0.0036
  361MOL0     C47527   2.203   6.543   9.915  0.7477  0.5392 -0.2892
  361MOL0     O47528   2.232   6.448   9.824  0.0724  0.1116  1.0045
  361MOL0     C47529   2.224   6.487   9.688 -0.5763  0.4277  0.5997
  361MOL0     C47530   2.277   6.361   9.609 -0.2293 -0.2599 -0.5223
  361MOL0     C47531   2.422   6.340   9.640 -0.5010 -0.1470 -0.4513
  361MOL0     C47532   2.474   6.225   9.546 -0.4351 -0.0270 -0.6167
  361MOL0     C47533   2.616   6.200   9.586  0.2573 -0.2484  0.5343
  361MOL0     C47534   2.700   6.299   9.506 -0.3800  0.4346  0.0011
  361MOL0     C47535   2.803   6.230   9.418  0.7528 -0.5312 -0.5750
  361MOL0     C47536   2.741   6.162   9.291  0.5922  0.1319 -0.5849
  361MOL0     N47537   2.700   6.254   9.183  0.1187  0.7823  0.2202
  361MOL0     C47538   2.578   6.300   9.155  0.4009  0.3401  0.8453
  361MOL0     C47539   2.593   6.392   9.060 -0.2313  1.5410  0.5241
  361MOL0     C47540   2.481   6.454   8.977 -0.1075  0.9319 -0.1089
  361MOL0     C47541   2.508   6.600   8.953  1.2724 -0.0976  0.4694
  361MOL0     C47542   2.522   6.684   9.083 -0.2631  0.4484  1.0165
  361MOL0     C47543   2.522   6.839   9.074  0.2301 -0.2592  0.5046
  361MOL0     O47544   2.545   6.916   9.191 -0.0466  0.2790 -0.2988
  361MOL0     C47545   2.658   6.995   9.203  0.7729  0.6407  0.6725
  361MOL0     C47546   2.659   7.124   9.162  0.0100 -0.3713  0.3807
  361MOL0     C47547   2.758   7.214   9.203 -0.2223  0.1315  0.8017
  361MOL0     C47548   2.847   7.180   9.300 -0.3243 -0.3374 -0.1545
  361MOL0     C47549   2.941   7.283   9.357  0.5079 -0.9667 -0.3278
  361MOL0     O47550   3.022   7.254   9.468  0.3330  0.3947  0.6074
  361MOL0     C47551   3.104   7.350   9.525  0.3411  0.2531  0.2388
  361MOL0     C47552   3.209   7.290   9.594  1.2875  0.4919 -0.4821
  361MOL0     C47553   3.318   7.358   9.649  0.5005 -1.0545 -0.5062
  361MOL0     C47554   3.318   7.501   9.647  0.4794 -0.0011  0.8891
  361MOL0     O47555   3.401   7.587   9.713  0.2615 -0.3413  0.4407
  361MOL0     C47556   3.540   7.548   9.745  1.1831 -0.2511  0.2424
  361MOL0     C47557   3.624   7.669   9.787 -0.0351 -0.3606 -0.2295
  361MOL0     C47558   3.759   7.624   9.857  0.2180  1.0425  0.3514
  361MOL0     C47559   3.855   7.732   9.899 -0.6568 -0.0730  0.0713
  361MOL0     C47560   3.923   7.813   9.783  0.5445  1.1766  0.4464
  361MOL0     C47561   4.031   7.916   9.815 -0.1740 -0.2264 -0.0334
  361MOL0     C47562   4.072   7.991   9.691 -0.3436 -0.0708 -1.0788
  361MOL0     C47563   3.993   8.118   9.666 -0.0903  0.3204  0.2098
  361MOL0    Cl47564   4.089   8.228   9.550 -0.2522 -0.1494 -0.3614
  361MOL0     C47565   3.214   7.567   9.575  0.0306 -0.4183  0.1643
  361MOL0     C47566   3.105   7.491   9.512  0.0479 -0.2625 -0.7001
  361MOL0     O47567   2.929   7.399   9.307 -0.1773 -0.1865 -0.0863
  361MOL0     C47568   2.853   7.046   9.331 -0.2892  0.2751  0.9852
  361MOL0     C47569   2.764   6.953   9.285 -0.3140 -0.0114  0.1350
  361MOL0     N47570   2.729   6.413   9.036 -0.0864  0.4833 -0.1317
  361MOL0     N47571   2.786   6.330   9.108 -0.0524  0.4446 -0.3423
  361MOL0     C47572   2.101   6.638   9.888  0.3666  0.2193  0.7308
  361MOL0     C47573   2.066   6.715   9.999  0.7558  0.1124  0.1255
  361MOL0     C47574   1.985   6.948  10.364  0.0488 -1.0882  0.1731
  361MOL0     C47575   1.992   6.871  10.478 -0.0521  0.2933 -0.3102
  361MOL0     C47576   1.969   6.935  10.596  0.3718 -0.1791 -0.5462
  361MOL0     C47577   1.969   7.075  10.623  1.0137  0.6217  0.9003
  361MOL0     O47578   1.960   7.114  10.752 -0.0601  0.6204  0.0237
  361MOL0     C47579   1.940   7.252  10.784 -0.9588 -0.3007  0.4857
  361MOL0     C47580   2.068   7.337  10.752 -0.7476 -0.0560 -0.8917
  361MOL0     C47581   2.177   7.316  10.869  1.0943  0.6896 -0.1916
  361MOL0     C47582   2.304   7.387  10.830  0.5409  0.7274  0.3563
  361MOL0     C47583   2.407   7.398  10.935  0.4058  0.0638 -0.3966
  361MOL0     C47584   2.486   7.392  11.027 -0.6150 -0.2043 -0.2943
  361MOL0     C47585   1.966   7.151  10.501  0.1787 -0.1394 -0.4198
  361MOL0     C47586   1.972   7.091  10.367  0.7390 -0.8634  0.6819
  361MOL0     H47587   2.267   6.591  10.241  2.3694  0.5903 -1.0705
  361MOL0     H47588   2.348   6.456  10.049 -1.3546 -2.4346 -1.6685
  361MOL0     H47589   2.279   6.578   9.662  0.0403  0.7382  2.8393
  361MOL0     H47590   2.121   6.509   9.657 -0.7978 -1.2592  0.0345
  361MOL0     H47591   2.258   6.377   9.502  0.2016 -0.9442 -0.7072
  361MOL0     H47592   2.225   6.272   9.644 -0.7301  0.2340  0.0073
  361MOL0     H47593   2.433   6.310   9.745 -2.7543 -2.3713 -0.7314
  361MOL0     H47594   2.484   6.423   9.608 -0.8298 -0.6465 -2.4972
  361MOL0     H47595   2.431   6.126   9.568 -0.2398 -0.8048 -3.3775
  361MOL0     H47596   2.444   6.239   9.442  1.9741 -3.0422 -1.8781
  361MOL0     H47597   2.656   6.099   9.572 -0.3600 -0.5415  0.8770
  361MOL0     H47598   2.624   6.215   9.694 -2.7447  3.6834  0.4459
  361MOL0     H47599   2.758   6.355   9.580  0.3433  0.9420 -0.9479
  361MOL0     H47600   2.634   6.361   9.445 -2.8897  0.9886  2.9873
  361MOL0     H47601   2.869   6.309   9.380  0.4116  1.3186  2.3053
  361MOL0     H47602   2.867   6.161   9.472 -0.5315 -0.8422  0.5981
  361MOL0     H47603   2.667   6.085   9.314  2.8001 -1.7530  0.7127
  361MOL0     H47604   2.821   6.106   9.239  0.3944 -1.5015  0.7797
  361MOL0     H47605   2.479   6.285   9.198  1.2832  0.4991  3.1034
  361MOL0     H47606   2.392   6.435   9.037 -0.2679 -0.9385 -0.8593
  361MOL0     H47607   2.464   6.402   8.882  1.1215  0.4505 -0.0810
  361MOL0     H47608   2.437   6.642   8.882  3.8560 -0.1829 -2.3926
  361MOL0     H47609   2.601   6.614   8.896  0.9955  1.9294  0.4499
  361MOL0     H47610   2.438   6.657   9.147 -1.6623 -0.4410 -1.0670
  361MOL0     H47611   2.617   6.669   9.136  0.3024 -1.6219 -0.4767
  361MOL0     H47612   2.420   6.860   9.040  1.6616  2.0729 -2.9749
  361MOL0     H47613   2.590   6.872   8.995  2.5067  0.9723  2.8350
  361MOL0     H47614   2.576   7.152   9.098  0.0003  1.8371  1.2878
  361MOL0     H47615   2.750   7.315   9.162 -3.6950 -0.8260 -1.2839
  361MOL0     H47616   3.214   7.184   9.615  0.2294  0.3363 -0.9377
  361MOL0     H47617   3.399   7.302   9.694  2.4703  2.1928  0.3536
  361MOL0     H47618   3.593   7.497   9.663  0.2184  0.9479 -1.1926
  361MOL0     H47619   3.528   7.471   9.821  3.4782 -0.1630  0.7746
  361MOL0     H47620   3.565   7.717   9.866  0.6836 -3.1969  2.2381
  361MOL0     H47621   3.648   7.733   9.702  1.4785 -1.0670 -0.3700
  361MOL0     H47622   3.812   7.551   9.794 -0.2059  0.4851  0.6325
  361MOL0     H47623   3.721   7.569   9.944 -0.9037 -3.6507 -2.7167
  361MOL0     H47624   3.807   7.800   9.969 -0.4548 -0.1131  0.2496
  361MOL0     H47625   3.937   7.694   9.961  0.6737  1.8000 -0.4574
  361MOL0     H47626   3.842   7.875   9.744  1.3626  3.6966  2.4156
  361MOL0     H47627   3.955   7.748   9.702  1.6781  1.1193  0.9135
  361MOL0     H47628   4.119   7.872   9.864 -0.4256  0.3913  0.9872
  361MOL0     H47629   4.002   7.987   9.893  3.2369 -1.1046  2.2624
  361MOL0     H47630   4.173   8.028   9.710  0.3940 -1.7038 -1.5699
  361MOL0     H47631   4.071   7.934   9.598  1.3108 -0.3700 -0.9537
  361MOL0     H47632   3.968   8.162   9.763  0.6662 -1.0727  1.0746
  361MOL0     H47633   3.901   8.079   9.621  0.2335 -1.2049  0.8100
  361MOL0     H47634   3.210   7.676   9.569 -2.2742 -0.5176 -4.2409
  361MOL0     H47635   3.038   7.562   9.463 -0.6077  1.5333  2.5115
  361MOL0     H47636   2.931   7.008   9.396 -0.1449 -2.5582 -0.6929
  361MOL0     H47637   2.762   6.851   9.321  0.8795 -0.5468 -1.2067
  361MOL0     H47638   2.043   6.632   9.797  0.5447 -2.0992  0.7028
  361MOL0     H47639   1.978   6.776   9.985  0.6931  0.3883  1.5786
  361MOL0     H47640   1.986   6.763  10.475 -2.4499  0.3735 -0.8847
  361MOL0     H47641   1.959   6.863  10.677  1.3122  0.2784 -0.0006
  361MOL0     H47642   1.907   7.272  10.887 -1.0762 -1.4658  0.6808
  361MOL0     H47643   1.853   7.290  10.731 -0.3436 -0.5213 -0.7291
  361MOL0     H47644   2.112   7.315  10.654 -3.1461 -0.1304 -2.0470
  361MOL0     H47645   2.026   7.438  10.750 -1.2294 -0.2604 -1.4119
  361MOL0     H47646   2.207   7.213  10.890  2.3120  0.7886 -1.3244
  361MOL0     H47647   2.127   7.342  10.962  1.1055 -0.7955  0.2530
  361MOL0     H47648   2.347   7.341  10.741  1.7065  2.5445 -0.0824
  361MOL0     H47649   2.263   7.484  10.797 -2.0056 -1.1953 -2.7941
  361MOL0     H47650   2.537   7.388  11.121  1.5975 -1.4550 -1.4787
  361MOL0     H47651   1.974   7.260  10.501 -1.1627 -0.0193  0.3574
  361MOL0     H47652   1.968   7.149  10.276 -0.5800 -0.0036  1.2680
  362MOL0     O47653   2.500   3.506   9.170  0.7512  0.1713 -0.0216
  362MOL0     C47654   2.580   3.504   9.267  0.2301  0.5570  0.0758
  362MOL0     O47655   2.720   3.502   9.242 -0.1335 -0.1224  0.4475
  362MOL0     C47656   2.765   3.466   9.112  0.3391 -0.0965  0.0576
  362MOL0     C47657   2.751   3.334   9.078  0.9969 -0.4081  0.3412
  362MOL0     C47658   2.760   3.297   8.946  0.0626  0.0702  0.5206
  362MOL0     C47659   2.800   3.389   8.847 -0.2509 -0.5169  0.1818
  362MOL0     O47660   2.787   3.343   8.718  0.8506  0.2118 -0.3934
  362MOL0     C47661   2.802   3.427   8.604 -0.2070 -0.3156 -0.5902
  362MOL0     C47662   2.949   3.467   8.575  0.3938 -0.5146  0.6004
  362MOL0     C47663   3.043   3.345   8.557 -0.3351  0.1603 -0.1837
  362MOL0     C47664   3.173   3.368   8.473  0.6953 -0.3517 -0.9902
  362MOL0     C47665   3.247   3.501   8.493 -0.6599 -0.8404 -0.1409
  362MOL0     C47666   3.405   3.501   8.445  0.5458  0.0695  0.1622
  362MOL0     C47667   3.461   3.643   8.481  0.2254  0.7908 -0.4711
  362MOL0     C47668   3.608   3.635   8.438  1.0443  0.3268  0.4236
  362MOL0     N47669   3.692   3.756   8.466 -0.0045 -0.2167  0.7231
  362MOL0     C47670   3.684   3.845   8.568  0.2138 -0.6078  0.1443
  362MOL0     C47671   3.796   3.920   8.559 -0.9915 -0.0508  1.1496
  362MOL0     C47672   3.839   4.035   8.651 -0.2252  0.0038  0.3372
  362MOL0     C47673   3.984   4.050   8.651 -0.3829  0.2542 -0.5159
  362MOL0     C47674   4.051   4.157   8.734  0.4230 -0.5390  0.1267
  362MOL0     C47675   4.012   4.298   8.672 -0.5515  0.1081  0.6218
  362MOL0     O47676   4.093   4.405   8.725 -0.2463 -0.5994  0.1957
  362MOL0     C47677   4.073   4.468   8.842 -0.0768  0.0792 -0.2694
  362MOL0     C47678   3.967   4.446   8.936 -0.1993  0.6683  0.4341
  362MOL0     C47679   3.948   4.514   9.056  0.0320  0.1555  0.9107
  362MOL0     C47680   4.047   4.614   9.092  0.3084  0.0599  1.1251
  362MOL0     C47681   4.025   4.694   9.213 -0.4416 -0.6422  1.2300
  362MOL0     O47682   4.119   4.795   9.229  0.3054 -0.2589 -0.2797
  362MOL0     C47683   4.128   4.866   9.346  0.5882  0.7139 -0.3173
  362MOL0     C47684   4.258   4.898   9.385 -0.6767 -0.3652  0.7147
  362MOL0     C47685   4.267   4.981   9.496  0.9899  0.2268  0.0512
  362MOL0     C47686   4.151   5.038   9.571 -0.6247  0.3851  0.2111
  362MOL0     O47687   4.167   5.136   9.659  0.0489 -0.7416 -0.0967
  362MOL0     C47688   4.079   5.253   9.650 -0.0084 -0.2686 -0.0387
  362MOL0     C47689   4.124   5.358   9.762  0.8562  0.0500  0.1271
  362MOL0     C47690   4.273   5.362   9.772  0.2440  0.2925 -0.3411
  362MOL0     C47691   4.327   5.469   9.866  0.0496  0.5163  0.8171
  362MOL0     C47692   4.454   5.421   9.930  0.5122 -0.7656 -0.6577
  362MOL0     C47693   4.503   5.528  10.035  0.4905 -0.3278 -0.2574
  362MOL0     C47694   4.411   5.566  10.144  0.2887 -0.5805 -0.1493
  362MOL0     C47695   4.479   5.685  10.221  0.8773  1.1730  1.1559
  362MOL0    Cl47696   4.385   5.748  10.360 -0.2456 -0.2556 -0.3007
  362MOL0     C47697   4.033   5.005   9.522  1.9305  0.0461  0.1301
  362MOL0     C47698   4.022   4.915   9.415 -0.4063 -0.0495  0.0827
  362MOL0     O47699   3.937   4.659   9.293  0.0617 -0.0721  0.3575
  362MOL0     C47700   4.165   4.624   9.006  0.3822 -0.2604 -0.3790
  362MOL0     C47701   4.164   4.561   8.883  0.2450  0.3758  0.5189
  362MOL0     N47702   3.871   3.890   8.435 -0.2666  0.2677 -0.4754
  362MOL0     N47703   3.803   3.786   8.385 -0.0380 -0.1999 -1.3294
  362MOL0     C47704   2.817   3.520   8.890  0.2698 -0.2825  0.3037
  362MOL0     C47705   2.810   3.552   9.018  0.6254  0.3102  0.3575
  362MOL0     C47706   2.518   3.500   9.396 -0.5488 -0.4256 -1.1695
  362MOL0     C47707   2.593   3.433   9.488  0.1960  0.4118  0.8998
  362MOL0     C47708   2.561   3.428   9.614  0.1241 -0.2508  0.2413
  362MOL0     C47709   2.432   3.487   9.656  0.1003  0.5926  0.5769
  362MOL0     O47710   2.381   3.485   9.783  0.5730 -1.1331 -0.4369
  362MOL0     C47711   2.467   3.490   9.901  0.2730 -0.9320  0.0435
  362MOL0     C47712   2.375   3.452  10.024 -0.5893 -1.0550 -0.2522
  362MOL0     C47713   2.310   3.570  10.090 -0.4495 -0.3024  0.0327
  362MOL0     C47714   2.264   3.536  10.228 -0.3014 -0.2969  1.1292
  362MOL0     C47715   2.373   3.513  10.320  0.2407  0.7367 -0.5918
  362MOL0     C47716   2.480   3.489  10.379 -0.1384 -0.5217  0.5408
  362MOL0     C47717   2.364   3.567   9.568  0.0218  0.2852 -0.8466
  362MOL0     C47718   2.405   3.569   9.439  0.8304  0.7728 -0.0862
  362MOL0     H47719   2.720   3.271   9.161 -1.9489  1.7578  1.0780
  362MOL0     H47720   2.717   3.206   8.905  1.7925 -0.7574  0.4475
  362MOL0     H47721   2.749   3.522   8.617  0.7451  0.7277 -3.5087
  362MOL0     H47722   2.748   3.373   8.526 -1.8826 -0.2058  0.4589
  362MOL0     H47723   2.987   3.530   8.656 -3.8781  1.7658  1.1152
  362MOL0     H47724   2.942   3.528   8.485 -1.4252 -0.9590  0.3965
  362MOL0     H47725   2.986   3.265   8.509 -0.8290 -0.5294  1.4568
  362MOL0     H47726   3.084   3.314   8.654 -0.4468 -3.3140 -1.1264
  362MOL0     H47727   3.236   3.279   8.482  6.6065  3.5417  2.6304
  362MOL0     H47728   3.141   3.370   8.369  2.6189  3.2354 -1.6734
  362MOL0     H47729   3.254   3.510   8.602 -1.9291 -3.7489  0.2695
  362MOL0     H47730   3.196   3.592   8.461 -1.4585 -0.3660  2.2899
  362MOL0     H47731   3.402   3.498   8.335 -1.8859 -0.7371  0.1764
  362MOL0     H47732   3.460   3.422   8.497  0.9932  2.0063  2.8023
  362MOL0     H47733   3.394   3.716   8.435 -2.6737  0.3126  2.6780
  362MOL0     H47734   3.462   3.661   8.589 -0.0898  0.8388 -0.4778
  362MOL0     H47735   3.601   3.615   8.331  0.2910  0.0552  0.5209
  362MOL0     H47736   3.662   3.548   8.476  3.6135  0.9273 -1.5704
  362MOL0     H47737   3.609   3.859   8.645  1.1162  1.1600  0.7576
  362MOL0     H47738   3.794   4.011   8.748 -2.0138 -4.0517 -1.2607
  362MOL0     H47739   3.802   4.130   8.611 -0.3976 -0.8570 -1.6902
  362MOL0     H47740   4.029   4.046   8.551 -0.4867  1.8739 -0.6562
  362MOL0     H47741   4.016   3.955   8.694  0.7912  0.2145 -1.3999
  362MOL0     H47742   4.020   4.148   8.839  0.1243 -0.7683  0.0201
  362MOL0     H47743   4.160   4.153   8.730  0.4504 -0.8827  1.0176
  362MOL0     H47744   3.906   4.319   8.693 -1.2512 -1.0926 -1.4045
  362MOL0     H47745   4.028   4.297   8.564 -0.5981  1.9733  0.5693
  362MOL0     H47746   3.893   4.377   8.898  0.5013  1.7638 -3.3765
  362MOL0     H47747   3.864   4.486   9.119 -0.0462 -2.6790 -0.2773
  362MOL0     H47748   4.337   4.849   9.330 -0.1847  1.3734 -0.2219
  362MOL0     H47749   4.363   5.019   9.530  1.4185  1.9544 -2.7026
  362MOL0     H47750   3.982   5.207   9.671 -0.3761 -0.6256 -2.2396
  362MOL0     H47751   4.085   5.303   9.553  1.1269 -2.9030 -1.4427
  362MOL0     H47752   4.069   5.335   9.853 -0.8614  2.3678 -0.2454
  362MOL0     H47753   4.081   5.456   9.739 -0.7634  0.5590  4.5088
  362MOL0     H47754   4.315   5.357   9.671  1.4901  1.5519  0.0760
  362MOL0     H47755   4.303   5.268   9.821 -2.0436 -0.3950 -0.1776
  362MOL0     H47756   4.354   5.558   9.808  0.8845  0.2741  0.8188
  362MOL0     H47757   4.250   5.488   9.942 -0.4855  0.2801  0.3403
  362MOL0     H47758   4.519   5.416   9.842  1.0750  1.4977 -0.4222
  362MOL0     H47759   4.447   5.323   9.978  2.1732 -0.2416  0.7612
  362MOL0     H47760   4.542   5.617   9.985 -0.0545  0.0370 -0.0400
  362MOL0     H47761   4.583   5.478  10.090  2.5918  2.7879 -0.2154
  362MOL0     H47762   4.321   5.619  10.110 -0.8449 -0.6487  2.5373
  362MOL0     H47763   4.395   5.480  10.210 -3.2798  0.9665  1.2508
  362MOL0     H47764   4.503   5.767  10.152 -0.6395  0.1432 -0.6863
  362MOL0     H47765   4.570   5.641  10.261  1.2861  1.5633  0.6654
  362MOL0     H47766   3.941   5.047   9.560  0.7903  1.2022 -3.5029
  362MOL0     H47767   3.923   4.889   9.378  0.6608 -0.1071 -3.0375
  362MOL0     H47768   4.238   4.700   9.031  1.4427  0.5195 -4.8874
  362MOL0     H47769   4.239   4.580   8.806 -0.8148 -2.1971 -1.3009
  362MOL0     H47770   2.811   3.601   8.818 -1.1137 -1.8634 -1.4632
  362MOL0     H47771   2.812   3.652   9.061 -0.0204  1.4670 -2.1477
  362MOL0     H47772   2.671   3.365   9.455 -0.9138 -0.1349 -0.7445
  362MOL0     H47773   2.608   3.367   9.691  2.7711 -0.0718 -1.1335
  362MOL0     H47774   2.520   3.585   9.910  0.8669 -1.2784  0.3242
  362MOL0     H47775   2.540   3.409   9.890 -2.1353 -3.3335  0.4259
  362MOL0     H47776   2.290   3.388   9.998 -1.8890  1.1083 -1.6824
  362MOL0     H47777   2.429   3.389  10.095 -4.2642 -2.0656  1.9139
  362MOL0     H47778   2.233   3.620  10.032  0.1194 -2.3339 -2.6876
  362MOL0     H47779   2.390   3.644  10.101 -0.6974 -0.1150  0.6452
  362MOL0     H47780   2.217   3.630  10.258  0.6299  1.3467 -2.0780
  362MOL0     H47781   2.183   3.464  10.226 -2.2078  1.7345 -1.6685
  362MOL0     H47782   2.570   3.458  10.427 -2.7119 -4.7369  3.3340
  362MOL0     H47783   2.270   3.603   9.609  0.7354 -0.4466  1.5788
  362MOL0     H47784   2.370   3.648   9.373  1.3144 -0.6433 -2.1213
  363MOL0     O47785   5.481   0.477   0.704 -0.0087  0.0239 -0.6562
  363MOL0     C47786   5.375   0.518   0.668  0.0392 -0.4379 -0.9269
  363MOL0     O47787   5.273   0.553   0.752  0.3143  0.1197  0.3254
  363MOL0     C47788   5.285   0.543   0.894  0.5893 -0.2250  1.2233
  363MOL0     C47789   5.369   0.456   0.963 -0.1817  0.8568 -0.2029
  363MOL0     C47790   5.362   0.439   1.101 -0.4843 -0.3512 -0.3461
  363MOL0     C47791   5.270   0.503   1.178 -0.5862  0.5914  0.2406
  363MOL0     O47792   5.267   0.480   1.313 -0.6122  0.3298  0.2700
  363MOL0     C47793   5.193   0.570   1.395 -1.1941 -0.4325  0.1346
  363MOL0     C47794   5.251   0.547   1.533  1.0447  0.3400 -0.4695
  363MOL0     C47795   5.177   0.637   1.625  0.1505 -0.2653 -0.4249
  363MOL0     C47796   5.241   0.635   1.768  0.1306  0.9642  1.4728
  363MOL0     C47797   5.196   0.748   1.852 -0.5453  0.7397  0.6517
  363MOL0     C47798   5.050   0.756   1.876  0.1459  0.2923  0.2836
  363MOL0     C47799   5.027   0.843   2.000 -0.3494 -0.5874 -0.0928
  363MOL0     C47800   5.084   0.985   1.990 -0.0459 -0.7696  0.2333
  363MOL0     N47801   5.042   1.069   1.878 -0.7685 -0.2720  0.3553
  363MOL0     C47802   5.117   1.086   1.759  0.1872 -0.6296 -0.4620
  363MOL0     C47803   5.072   1.191   1.694 -0.5962 -0.3438 -0.3729
  363MOL0     C47804   5.126   1.248   1.565 -0.1428 -1.1928 -0.1934
  363MOL0     C47805   5.054   1.205   1.435  0.9649  0.8734 -0.4338
  363MOL0     C47806   4.910   1.253   1.436  0.0117  1.6552 -0.0306
  363MOL0     C47807   4.848   1.207   1.307 -0.5017  0.4443 -0.3601
  363MOL0     O47808   4.862   1.065   1.279  0.1371  0.1054  0.1295
  363MOL0     C47809   4.870   1.041   1.149 -0.3247  0.4514 -0.8422
  363MOL0     C47810   5.002   1.027   1.097  0.2658  0.0537 -0.2021
  363MOL0     C47811   5.029   1.009   0.958  0.4615 -0.6446  0.0206
  363MOL0     C47812   4.915   0.984   0.873  0.5109  0.2226 -0.1216
  363MOL0     C47813   4.940   0.948   0.726 -0.1182  0.7177  0.4043
  363MOL0     O47814   4.832   0.922   0.649  0.2523 -0.2453  0.4161
  363MOL0     C47815   4.847   0.897   0.509 -1.3834  0.6422  0.8315
  363MOL0     C47816   4.893   0.995   0.416 -0.1233  0.3170  0.5276
  363MOL0     C47817   4.906   0.973   0.275 -1.0122 -0.5128 -0.0765
  363MOL0     C47818   4.861   0.856   0.221  0.3200  0.4311  0.8520
  363MOL0     O47819   4.855   0.827   0.090 -0.2437 -0.5956 -0.1779
  363MOL0     C47820   4.842   0.935  -0.004 -0.1002  0.5198 -0.0867
  363MOL0     C47821   4.783   0.891  -0.142 -1.0044 -0.1165  0.4005
  363MOL0     C47822   4.645   0.825  -0.131  0.2806  0.4731  1.1848
  363MOL0     C47823   4.620   0.744  -0.269 -0.8657 -0.5380 -0.5995
  363MOL0     C47824   4.490   0.659  -0.236  0.3397 -0.1105  0.0616
  363MOL0     C47825   4.428   0.584  -0.359 -0.4644 -0.2024 -0.2845
  363MOL0     C47826   4.321   0.494  -0.318  0.2707 -0.0322  0.1515
  363MOL0     C47827   4.225   0.434  -0.425 -0.1139  0.1738 -0.6568
  363MOL0    Cl47828   4.081   0.545  -0.473  0.4427  0.0875  0.0437
  363MOL0     C47829   4.816   0.754   0.310  0.1776  0.6919 -1.0342
  363MOL0     C47830   4.808   0.772   0.455  0.5891 -0.2423 -0.2650
  363MOL0     O47831   5.057   0.922   0.690 -0.0215 -0.1386 -0.1811
  363MOL0     C47832   4.784   1.009   0.929  0.2477  0.6304  0.1833
  363MOL0     C47833   4.765   1.041   1.069 -0.4877 -0.1042  0.1689
  363MOL0     N47834   4.958   1.235   1.769 -0.1188 -0.2071 -0.7497
  363MOL0     N47835   4.950   1.167   1.876 -0.4292 -0.8013 -0.2563
  363MOL0     C47836   5.186   0.583   1.107 -0.0265  0.2889 -0.2270
  363MOL0     C47837   5.196   0.612   0.972 -0.0834 -0.1010 -1.2307
  363MOL0     C47838   5.341   0.532   0.520  0.0070  0.7432 -0.0444
  363MOL0     C47839   5.230   0.613   0.481  0.6404 -0.2400 -0.4367
  363MOL0     C47840   5.196   0.640   0.345 -0.0451 -0.4162 -0.4712
  363MOL0     C47841   5.299   0.604   0.249 -0.3310  0.0991 -0.8599
  363MOL0     O47842   5.285   0.627   0.114  0.2409  0.1133 -0.5524
  363MOL0     C47843   5.165   0.692   0.070  0.3601  0.5004 -0.2991
  363MOL0     C47844   5.193   0.763  -0.063 -0.2794  0.4881  0.7319
  363MOL0     C47845   5.276   0.891  -0.035 -1.1893  0.0506  0.1505
  363MOL0     C47846   5.232   1.007  -0.127 -0.6043  0.0251 -0.0705
  363MOL0     C47847   5.332   1.110  -0.109  0.0868  1.0254 -0.5372
  363MOL0     C47848   5.402   1.206  -0.100  0.2966 -1.1204 -0.2536
  363MOL0     C47849   5.414   0.536   0.287 -0.6760  0.8537  0.3469
  363MOL0     C47850   5.430   0.490   0.418 -1.3020 -1.4706 -0.1105
  363MOL0     H47851   5.446   0.398   0.913 -1.9533 -1.0337 -0.8436
  363MOL0     H47852   5.437   0.380   1.152 -1.3687 -0.9720  0.2660
  363MOL0     H47853   5.085   0.555   1.382 -1.1582 -0.0553 -0.6670
  363MOL0     H47854   5.207   0.674   1.366 -0.4832 -1.5661 -4.4681
  363MOL0     H47855   5.358   0.569   1.521  1.4909 -0.4731  1.5634
  363MOL0     H47856   5.239   0.442   1.563 -4.4858  0.6251 -0.7067
  363MOL0     H47857   5.068   0.625   1.628  0.1323 -0.4134 -1.4565
  363MOL0     H47858   5.203   0.738   1.593  0.5153  0.3704  1.7018
  363MOL0     H47859   5.215   0.543   1.821  1.4606  0.5066  1.3842
  363MOL0     H47860   5.350   0.631   1.778  0.0636 -0.5938  1.8615
  363MOL0     H47861   5.222   0.842   1.803 -1.3247 -0.3317 -2.0046
  363MOL0     H47862   5.241   0.752   1.952 -1.8497  0.4274  1.2818
  363MOL0     H47863   5.007   0.655   1.885 -2.4546  1.0297 -2.3055
  363MOL0     H47864   5.005   0.821   1.800  4.0847  1.0337 -1.7025
  363MOL0     H47865   4.921   0.845   2.027  0.3659  0.5244  3.1146
  363MOL0     H47866   5.083   0.797   2.082  3.0014 -0.4618 -2.1297
  363MOL0     H47867   5.193   0.983   1.987  0.1112  2.3291  0.7243
  363MOL0     H47868   5.055   1.040   2.080 -0.9300 -0.6448 -0.1112
  363MOL0     H47869   5.210   1.031   1.746  1.1981  0.0383  2.9630
  363MOL0     H47870   5.235   1.252   1.566 -0.1695  0.1533 -0.0830
  363MOL0     H47871   5.090   1.351   1.577  0.8120 -0.8241 -0.4385
  363MOL0     H47872   5.060   1.097   1.418 -2.4540  0.4878 -0.0401
  363MOL0     H47873   5.106   1.260   1.356 -0.0644  0.7189 -1.2438
  363MOL0     H47874   4.847   1.218   1.518 -1.1161 -1.3176 -2.0423
  363MOL0     H47875   4.912   1.362   1.427  0.3505  1.5229 -2.1918
  363MOL0     H47876   4.887   1.259   1.219  1.3726  2.7634  1.6640
  363MOL0     H47877   4.742   1.232   1.320 -0.6971 -1.6715  3.3502
  363MOL0     H47878   5.079   1.023   1.174 -0.4655  2.2391  0.7300
  363MOL0     H47879   5.132   1.007   0.922 -1.0435 -1.2537 -5.1175
  363MOL0     H47880   4.915   1.097   0.447  3.0035  0.3204 -1.2991
  363MOL0     H47881   4.944   1.052   0.211  1.6967 -0.3576  1.5544
  363MOL0     H47882   4.938   0.982  -0.026  0.3282 -0.6103 -0.7046
  363MOL0     H47883   4.791   1.014   0.053 -2.4550 -1.5280  0.8875
  363MOL0     H47884   4.865   0.825  -0.171 -0.2617  0.5703  0.8841
  363MOL0     H47885   4.779   0.975  -0.212 -0.2473  0.2547  0.7904
  363MOL0     H47886   4.565   0.899  -0.132 -0.9923 -0.8526  0.4998
  363MOL0     H47887   4.639   0.756  -0.047 -0.4118 -0.1073  0.6806
  363MOL0     H47888   4.604   0.814  -0.352 -0.0359  4.0880  2.7961
  363MOL0     H47889   4.700   0.676  -0.300  0.8442  0.5843  1.1363
  363MOL0     H47890   4.416   0.720  -0.183 -1.3429 -1.2368 -0.8953
  363MOL0     H47891   4.531   0.594  -0.158 -1.7751 -0.0595  1.3204
  363MOL0     H47892   4.508   0.524  -0.403 -0.4131 -0.4917  0.1953
  363MOL0     H47893   4.390   0.659  -0.429 -1.6636  0.7846  1.3318
  363MOL0     H47894   4.362   0.404  -0.271  2.2474  0.6188 -0.2636
  363MOL0     H47895   4.254   0.543  -0.245 -0.5063  2.1827 -1.9105
  363MOL0     H47896   4.180   0.354  -0.366  0.1830  1.3233  1.2199
  363MOL0     H47897   4.275   0.392  -0.513 -0.8538 -0.7937 -0.6358
  363MOL0     H47898   4.800   0.658   0.263  0.8517  0.1965 -0.2851
  363MOL0     H47899   4.775   0.695   0.522  1.0804  0.2910  0.6114
  363MOL0     H47900   4.709   1.003   0.851 -1.0069 -0.7531  1.4267
  363MOL0     H47901   4.671   1.082   1.104  0.0140  0.7059  0.5892
  363MOL0     H47902   5.119   0.643   1.168 -3.1788 -1.3474 -1.8223
  363MOL0     H47903   5.133   0.689   0.930 -0.5752 -0.0514 -0.4239
  363MOL0     H47904   5.166   0.650   0.560  1.7048 -0.3169  0.4824
  363MOL0     H47905   5.103   0.690   0.321 -0.0066  0.4979  1.1516
  363MOL0     H47906   5.137   0.774   0.136 -1.0414 -1.5232  1.7583
  363MOL0     H47907   5.088   0.614   0.072  0.3010  0.5673  0.1374
  363MOL0     H47908   5.237   0.696  -0.138 -2.0832 -1.6103  1.4258
  363MOL0     H47909   5.099   0.797  -0.108 -0.3926 -0.4257  0.2379
  363MOL0     H47910   5.382   0.864  -0.034 -0.8018  1.4906  1.3656
  363MOL0     H47911   5.267   0.926   0.068 -2.7919  3.3592 -0.9594
  363MOL0     H47912   5.215   0.966  -0.227 -1.4448  0.7937 -0.2540
  363MOL0     H47913   5.133   1.046  -0.102  0.1543  0.9541  1.6847
  363MOL0     H47914   5.471   1.287  -0.087  1.8936 -2.5214  0.4288
  363MOL0     H47915   5.477   0.496   0.208  1.1912 -0.8249  2.5322
  363MOL0     H47916   5.517   0.426   0.428  2.0725  2.0779 -3.2829
  364MOL0     O47917   5.757   2.731   7.084  0.4818 -0.5581  0.8626
  364MOL0     C47918   5.679   2.638   7.051 -0.3990 -0.2143 -0.2078
  364MOL0     O47919   5.633   2.621   6.920 -0.6139 -0.5140 -1.6329
  364MOL0     C47920   5.686   2.698   6.822  0.2301  0.4607  0.0892
  364MOL0     C47921   5.722   2.617   6.710 -0.2655 -0.0540  0.1506
  364MOL0     C47922   5.806   2.672   6.609  0.8009 -0.7453  0.3390
  364MOL0     C47923   5.831   2.815   6.605 -1.0080  0.1223  0.1834
  364MOL0     O47924   5.881   2.842   6.485 -0.4560  0.1608  0.5737
  364MOL0     C47925   5.943   2.975   6.470 -0.2803 -0.6303  0.4864
  364MOL0     C47926   6.085   2.977   6.514  0.3676 -0.0096 -0.2655
  364MOL0     C47927   6.166   3.102   6.477  0.3629  1.2098  0.6255
  364MOL0     C47928   6.313   3.096   6.506  0.4805 -0.9306  0.2270
  364MOL0     C47929   6.403   3.215   6.462 -0.3827 -0.4067 -0.3728
  364MOL0     C47930   6.555   3.176   6.468  0.3680  0.9412 -0.2184
  364MOL0     C47931   6.658   3.293   6.464 -0.9281  0.1692  0.3780
  364MOL0     C47932   6.663   3.366   6.338  0.5585 -0.9231 -0.2889
  364MOL0     N47933   6.557   3.473   6.332  0.3655  0.0458 -0.5219
  364MOL0     C47934   6.539   3.584   6.415  0.3355 -0.2795  0.5062
  364MOL0     C47935   6.426   3.640   6.362  0.0577  0.8208  0.3263
  364MOL0     C47936   6.360   3.764   6.396 -0.1721  0.0038  0.0099
  364MOL0     C47937   6.286   3.766   6.531  1.4714  0.2261 -0.7569
  364MOL0     C47938   6.226   3.904   6.569  0.9305 -0.5805 -1.2809
  364MOL0     C47939   6.137   3.908   6.698 -0.3275 -0.6846 -0.0185
  364MOL0     O47940   6.089   4.042   6.728  0.0976 -0.1345  0.0892
  364MOL0     C47941   5.991   4.102   6.655  0.3002 -0.1239  0.5354
  364MOL0     C47942   5.960   4.237   6.673  0.3256  0.3937 -0.4037
  364MOL0     C47943   5.866   4.308   6.589 -0.1532  0.3003 -1.1726
  364MOL0     C47944   5.813   4.242   6.471 -0.2965  0.7161 -0.3008
  364MOL0     C47945   5.738   4.307   6.361 -0.4249 -0.4398  0.6291
  364MOL0     O47946   5.723   4.238   6.240  0.4201  0.4838 -0.2023
  364MOL0     C47947   5.627   4.278   6.154  0.3998 -0.4628 -0.0842
  364MOL0     C47948   5.622   4.210   6.030 -0.0411  0.6264  0.0200
  364MOL0     C47949   5.532   4.250   5.930 -0.3026 -0.3432  0.2276
  364MOL0     C47950   5.434   4.344   5.944 -0.6829 -0.1819  0.1410
  364MOL0     O47951   5.365   4.394   5.834 -0.9603  0.0037  0.2989
  364MOL0     C47952   5.338   4.539   5.847  0.2620 -0.2451 -0.2435
  364MOL0     C47953   5.276   4.567   5.710 -0.0751 -0.0985 -0.2428
  364MOL0     C47954   5.247   4.723   5.683 -0.0626  0.2156 -0.3597
  364MOL0     C47955   5.199   4.741   5.543  0.2758  1.2217 -0.5230
  364MOL0     C47956   5.174   4.886   5.529  0.8004 -0.6251  0.2398
  364MOL0     C47957   5.148   4.926   5.381 -0.1473 -0.9449 -0.2556
  364MOL0     C47958   5.284   4.914   5.301  1.3807  1.1843 -0.0689
  364MOL0     C47959   5.283   4.976   5.163 -0.0549  0.0880 -0.5622
  364MOL0    Cl47960   5.172   4.875   5.066 -0.1215  0.4763  0.1783
  364MOL0     C47961   5.427   4.403   6.074  0.2725  0.2052 -0.7632
  364MOL0     C47962   5.525   4.368   6.176  0.6417  0.3077  0.5049
  364MOL0     O47963   5.720   4.426   6.373  0.3039 -0.0583  0.1840
  364MOL0     C47964   5.845   4.107   6.448  0.6556  0.5147 -0.4805
  364MOL0     C47965   5.931   4.038   6.542  0.0502 -0.5048  0.6134
  364MOL0     N47966   6.383   3.567   6.247  0.3144 -0.4784  0.6195
  364MOL0     N47967   6.456   3.468   6.236 -0.4711  0.3268 -0.3652
  364MOL0     C47968   5.778   2.896   6.702  0.1624 -0.4038  0.0492
  364MOL0     C47969   5.712   2.839   6.819  0.5883 -0.5160  0.5058
  364MOL0     C47970   5.630   2.557   7.166 -0.0375 -0.2855  0.5262
  364MOL0     C47971   5.642   2.579   7.306  0.1261 -0.4477  0.6027
  364MOL0     C47972   5.592   2.482   7.396 -0.5814 -0.2174  0.7036
  364MOL0     C47973   5.531   2.360   7.353  0.0356 -0.3063  0.4950
  364MOL0     O47974   5.489   2.256   7.427  0.8434  0.1960  0.1058
  364MOL0     C47975   5.483   2.256   7.566  0.7181 -1.2802  0.2967
  364MOL0     C47976   5.360   2.331   7.626  0.4323 -0.1789  0.2672
  364MOL0     C47977   5.349   2.286   7.774  1.0800  0.5120  0.7047
  364MOL0     C47978   5.210   2.320   7.839 -0.6407 -0.2864 -1.0748
  364MOL0     C47979   5.186   2.462   7.837 -0.0517 -1.3400  0.8019
  364MOL0     C47980   5.177   2.586   7.857  0.8028 -0.1712  0.5138
  364MOL0     C47981   5.497   2.355   7.217 -0.0763  0.0683  1.1158
  364MOL0     C47982   5.548   2.455   7.124  0.5602  0.9823  0.6723
  364MOL0     H47983   5.689   2.514   6.706 -1.9713  0.5054 -1.6250
  364MOL0     H47984   5.829   2.600   6.531 -3.6348 -2.2055  0.1107
  364MOL0     H47985   5.888   3.064   6.503 -1.5828 -1.1307 -0.2312
  364MOL0     H47986   5.941   2.997   6.362 -0.4400 -0.0413  0.6029
  364MOL0     H47987   6.136   2.891   6.470 -0.7191  0.7891 -3.3801
  364MOL0     H47988   6.084   2.957   6.621  0.4227  0.5599 -0.1556
  364MOL0     H47989   6.134   3.199   6.516 -0.3402  0.8971  0.8385
  364MOL0     H47990   6.156   3.113   6.368 -0.0058  5.0657  0.9182
  364MOL0     H47991   6.324   3.082   6.614  2.2517  0.9777  0.3661
  364MOL0     H47992   6.347   3.011   6.446  1.8361  0.0582 -0.4586
  364MOL0     H47993   6.391   3.303   6.526  2.6699 -0.2598  0.1530
  364MOL0     H47994   6.365   3.248   6.364  0.9138  0.0045 -0.7535
  364MOL0     H47995   6.580   3.119   6.378 -0.7153  2.1548 -1.3462
  364MOL0     H47996   6.581   3.111   6.552  3.3638 -1.2132 -2.5852
  364MOL0     H47997   6.647   3.365   6.545 -1.3897 -0.1685  0.6190
  364MOL0     H47998   6.758   3.251   6.482 -0.2337  2.4906  2.4703
  364MOL0     H47999   6.644   3.301   6.253 -2.5933  1.1195 -1.3315
  364MOL0     H48000   6.765   3.398   6.316  0.7134 -2.2735 -1.6520
  364MOL0     H48001   6.613   3.617   6.488  0.0373  3.7101 -0.7427
  364MOL0     H48002   6.282   3.780   6.321 -0.0786  0.7127  0.0541
  364MOL0     H48003   6.430   3.847   6.385 -2.0268  1.4440 -1.6449
  364MOL0     H48004   6.352   3.715   6.603  2.5012  2.0528 -0.3503
  364MOL0     H48005   6.197   3.702   6.524  1.0835  0.6695  0.0288
  364MOL0     H48006   6.310   3.973   6.580  0.8416 -0.4610 -1.3567
  364MOL0     H48007   6.164   3.938   6.485 -1.7430 -1.6563  0.1492
  364MOL0     H48008   6.187   3.881   6.791  0.8160 -0.2912 -0.4975
  364MOL0     H48009   6.053   3.839   6.688 -0.5944 -0.4450  0.5597
  364MOL0     H48010   6.004   4.286   6.759  0.1552  2.7522 -1.5956
  364MOL0     H48011   5.847   4.414   6.606  1.6266  0.2279  2.2428
  364MOL0     H48012   5.712   4.156   6.003  1.2005  3.3653 -1.7538
  364MOL0     H48013   5.540   4.205   5.831 -2.3026  0.6639 -0.4480
  364MOL0     H48014   5.434   4.586   5.869 -0.5434 -0.3274  4.8061
  364MOL0     H48015   5.264   4.555   5.926 -3.1410 -0.0191 -3.2162
  364MOL0     H48016   5.183   4.512   5.690  0.5644 -1.9339  1.5038
  364MOL0     H48017   5.345   4.518   5.640 -2.1931 -0.4389 -2.2151
  364MOL0     H48018   5.328   4.790   5.711 -0.8372  1.2771 -0.6142
  364MOL0     H48019   5.175   4.756   5.758  0.5532 -0.6657  0.6421
  364MOL0     H48020   5.275   4.700   5.475  1.7104 -0.3496  1.8502
  364MOL0     H48021   5.107   4.686   5.521  0.3314  0.1385  1.6741
  364MOL0     H48022   5.265   4.941   5.555  1.6760 -1.6471 -0.5771
  364MOL0     H48023   5.091   4.902   5.598 -0.7127 -5.1519 -0.1796
  364MOL0     H48024   5.119   5.031   5.375  0.9204 -0.6804 -1.2564
  364MOL0     H48025   5.063   4.876   5.333 -2.5418  1.8140  0.8655
  364MOL0     H48026   5.358   4.961   5.368  0.7673  2.0588  0.0029
  364MOL0     H48027   5.312   4.809   5.289 -0.2869  1.0515 -4.0437
  364MOL0     H48028   5.378   4.968   5.110 -0.1200 -3.6383 -0.3546
  364MOL0     H48029   5.249   5.080   5.168 -1.9875 -0.5421  0.5722
  364MOL0     H48030   5.360   4.487   6.085 -1.7971 -1.6617  2.5680
  364MOL0     H48031   5.501   4.433   6.260 -0.1350 -1.5254  1.7496
  364MOL0     H48032   5.818   4.051   6.358  0.0478 -2.8994  1.6346
  364MOL0     H48033   5.952   3.933   6.523 -1.9396 -0.7526 -0.5043
  364MOL0     H48034   5.810   3.000   6.708 -0.0043 -0.2175 -1.7787
  364MOL0     H48035   5.685   2.896   6.907 -0.6860 -1.2760  0.6413
  364MOL0     H48036   5.702   2.669   7.314 -0.8791  0.3944 -0.6653
  364MOL0     H48037   5.610   2.506   7.500 -0.0429  2.0435  0.1315
  364MOL0     H48038   5.574   2.296   7.612 -1.0482  3.9136 -0.0887
  364MOL0     H48039   5.473   2.151   7.594  0.4946 -1.2428  0.3552
  364MOL0     H48040   5.370   2.440   7.616  1.3123 -0.0903  1.7538
  364MOL0     H48041   5.273   2.305   7.566  0.3894  0.4301  0.0608
  364MOL0     H48042   5.435   2.327   7.828  2.1447  0.3512 -0.7856
  364MOL0     H48043   5.354   2.177   7.783  0.5378  0.2089 -1.9251
  364MOL0     H48044   5.136   2.267   7.779  2.5209 -1.8403 -3.9838
  364MOL0     H48045   5.208   2.277   7.939  0.2854 -3.7522 -2.3909
  364MOL0     H48046   5.177   2.693   7.867  0.3545 -0.1084 -0.1083
  364MOL0     H48047   5.443   2.269   7.179 -2.1725  2.0801 -0.7271
  364MOL0     H48048   5.526   2.441   7.019  3.6393 -0.3284  0.0986
  365MOL0     O48049  10.872   5.649   9.813  0.3368 -0.1522  0.3375
  365MOL0     C48050  10.934   5.710   9.895 -0.7156 -0.3281 -0.0846
  365MOL0     O48051  10.880   5.819   9.954 -0.5384 -0.1573  0.5757
  365MOL0     C48052  10.752   5.862   9.913  0.7662  0.2214 -0.2991
  365MOL0     C48053  10.725   5.988   9.851  0.0651  0.5807  0.7511
  365MOL0     C48054  10.600   6.030   9.807 -0.4103  0.9570 -0.0296
  365MOL0     C48055  10.499   5.934   9.785  0.2178  0.7393 -1.0045
  365MOL0     O48056  10.374   5.967   9.736 -0.1725  1.0190  0.5807
  365MOL0     C48057  10.306   5.855   9.664 -0.0354  0.2033 -0.7262
  365MOL0     C48058  10.193   5.793   9.749 -0.2942  0.4909  0.5679
  365MOL0     C48059  10.117   5.679   9.674  0.3211  0.0420  0.1897
  365MOL0     C48060   9.978   5.665   9.723 -0.2408 -0.8059  0.1628
  365MOL0     C48061   9.919   5.532   9.660 -0.2050  0.4241  0.2956
  365MOL0     C48062   9.768   5.525   9.680  0.2607  0.1251  0.8088
  365MOL0     C48063   9.713   5.392   9.616 -0.0340 -0.0703  0.4700
  365MOL0     C48064   9.723   5.396   9.460 -0.8498 -0.6083 -0.3388
  365MOL0     N48065   9.635   5.296   9.397  0.1591  0.5612 -0.2541
  365MOL0     C48066   9.647   5.160   9.415  0.2276 -0.5890  0.4181
  365MOL0     C48067   9.536   5.098   9.367  0.3298 -0.3674  0.1231
  365MOL0     C48068   9.514   4.951   9.362  0.1426  0.6754 -0.9456
  365MOL0     C48069   9.449   4.902   9.491 -0.4497  0.6277 -0.2134
  365MOL0     C48070   9.302   4.952   9.484 -0.1578 -1.3483 -0.0550
  365MOL0     C48071   9.209   4.942   9.605 -0.0243  0.0904 -0.1532
  365MOL0     O48072   9.265   4.987   9.723 -0.4477  0.5230 -0.4951
  365MOL0     C48073   9.272   5.125   9.737 -0.5581 -0.3162 -0.4695
  365MOL0     C48074   9.236   5.217   9.642  0.1480 -0.6269  0.2028
  365MOL0     C48075   9.256   5.356   9.661  1.0331  0.0668 -0.4519
  365MOL0     C48076   9.320   5.400   9.779 -1.0037  0.6230  1.1797
  365MOL0     C48077   9.393   5.526   9.781 -0.3968 -0.3476 -0.0440
  365MOL0     O48078   9.322   5.627   9.714 -0.3000 -0.3200  0.3309
  365MOL0     C48079   9.353   5.761   9.738 -0.3204  0.1852 -0.0512
  365MOL0     C48080   9.297   5.849   9.647  0.4777 -0.8585 -0.3465
  365MOL0     C48081   9.319   5.980   9.642  0.0142 -0.4226 -0.4042
  365MOL0     C48082   9.402   6.034   9.743  0.9619  0.6744  0.6567
  365MOL0     O48083   9.442   6.163   9.740  0.1454 -1.0975 -0.2104
  365MOL0     C48084   9.568   6.191   9.698 -0.1863  0.1205  0.3642
  365MOL0     C48085   9.664   6.177   9.812 -1.3716 -0.5636 -0.9012
  365MOL0     C48086   9.802   6.226   9.781 -0.3059  0.2374  0.3589
  365MOL0     C48087   9.893   6.208   9.908 -0.0955 -0.3427  0.2255
  365MOL0     C48088  10.025   6.288   9.895  0.8170  0.3614  0.3416
  365MOL0     C48089  10.006   6.439   9.886  0.0465 -0.4714  0.7165
  365MOL0     C48090  10.133   6.518   9.908 -0.1330 -0.4019 -0.3061
  365MOL0     C48091  10.146   6.540  10.063 -0.1626  0.2849 -1.1088
  365MOL0    Cl48092  10.008   6.630  10.132  0.4736 -0.0438  0.0271
  365MOL0     C48093   9.447   5.952   9.851 -0.8129 -0.5768  0.6551
  365MOL0     C48094   9.419   5.816   9.848  0.5503  0.6357  0.5096
  365MOL0     O48095   9.495   5.544   9.852 -0.0023  0.4695 -0.4489
  365MOL0     C48096   9.354   5.309   9.874 -0.5683  0.4579 -0.3298
  365MOL0     C48097   9.323   5.170   9.856 -0.1362  0.6183 -0.4205
  365MOL0     N48098   9.461   5.204   9.305 -0.4210  0.6076 -0.3191
  365MOL0     N48099   9.521   5.318   9.315  0.1788 -0.7529 -0.2237
  365MOL0     C48100  10.521   5.809   9.845  0.5577 -0.1975 -0.1395
  365MOL0     C48101  10.637   5.778   9.918  0.4923 -0.4401  0.5154
  365MOL0     C48102  11.059   5.651   9.940 -0.1882 -1.1117  0.2637
  365MOL0     C48103  11.132   5.720  10.033  0.1814  0.6948  0.0128
  365MOL0     C48104  11.247   5.673  10.093 -0.3770 -0.1071  0.3023
  365MOL0     C48105  11.301   5.550  10.060 -0.8421 -0.2141  0.2608
  365MOL0     O48106  11.412   5.501  10.122  0.3909 -0.0830 -0.7372
  365MOL0     C48107  11.523   5.487  10.033 -1.0054  0.3682 -0.7536
  365MOL0     C48108  11.598   5.618  10.054 -0.2517  0.4615  0.6209
  365MOL0     C48109  11.744   5.604  10.012 -0.0056  0.0391 -0.8395
  365MOL0     C48110  11.809   5.744   9.994  0.3680  0.8190 -1.0797
  365MOL0     C48111  11.774   5.811   9.869 -0.9991 -0.7822  0.1406
  365MOL0     C48112  11.759   5.882   9.767  0.6220 -0.4612  0.2993
  365MOL0     C48113  11.219   5.472   9.975  0.2536 -0.2959 -1.2444
  365MOL0     C48114  11.111   5.524   9.909  0.5330  0.5355 -0.5065
  365MOL0     H48115  10.812   6.053   9.850  0.7641 -0.2916 -1.8141
  365MOL0     H48116  10.596   6.135   9.778  1.3333  0.2036 -3.5121
  365MOL0     H48117  10.381   5.781   9.636  2.2697  2.6262 -1.3414
  365MOL0     H48118  10.253   5.888   9.574 -1.7241 -2.8504 -0.9938
  365MOL0     H48119  10.119   5.869   9.776 -1.1653  0.2128 -0.9093
  365MOL0     H48120  10.230   5.772   9.850 -0.6251  1.7192  0.9631
  365MOL0     H48121  10.172   5.585   9.677  2.5573  0.7825 -5.4580
  365MOL0     H48122  10.111   5.694   9.566 -0.3106 -0.0441  0.2133
  365MOL0     H48123   9.977   5.650   9.832 -0.0538 -0.7187  0.1775
  365MOL0     H48124   9.917   5.752   9.695  1.0721 -0.3709 -1.5077
  365MOL0     H48125   9.965   5.439   9.694 -3.4669 -1.1006  1.0038
  365MOL0     H48126   9.947   5.538   9.555  1.0516  0.8578  0.6472
  365MOL0     H48127   9.727   5.612   9.629 -0.0601 -0.7222 -0.4237
  365MOL0     H48128   9.758   5.516   9.788  4.1804 -3.0439  1.1712
  365MOL0     H48129   9.754   5.303   9.664 -0.4859  0.2162  1.4213
  365MOL0     H48130   9.605   5.384   9.631  0.3619 -1.6203  3.0736
  365MOL0     H48131   9.820   5.372   9.415 -3.0134 -0.5681 -5.7746
  365MOL0     H48132   9.699   5.499   9.431  3.8828  1.0643  0.6321
  365MOL0     H48133   9.720   5.112   9.479 -0.4771 -0.5494  1.2821
  365MOL0     H48134   9.605   4.890   9.353 -1.6488 -2.1499 -1.0373
  365MOL0     H48135   9.455   4.914   9.277  1.6584 -1.0731 -1.3047
  365MOL0     H48136   9.506   4.937   9.578  4.5220  0.4782 -3.0043
  365MOL0     H48137   9.450   4.793   9.495  1.3295  0.5696 -1.3029
  365MOL0     H48138   9.302   5.048   9.431  1.2591 -2.3760 -2.0488
  365MOL0     H48139   9.247   4.888   9.415  0.5395 -1.0066 -0.9527
  365MOL0     H48140   9.190   4.835   9.617  0.7676 -0.1289 -0.7410
  365MOL0     H48141   9.113   4.986   9.578  0.3461  0.1105 -1.5202
  365MOL0     H48142   9.189   5.195   9.546  0.3237 -1.1189  0.2264
  365MOL0     H48143   9.242   5.427   9.580  1.0938  0.0039 -0.5175
  365MOL0     H48144   9.229   5.811   9.571  1.1257 -1.9818 -0.3799
  365MOL0     H48145   9.288   6.050   9.564 -1.1011  2.2459  2.2128
  365MOL0     H48146   9.560   6.298   9.674 -1.7986  0.0350  0.4186
  365MOL0     H48147   9.605   6.137   9.611 -1.9586  0.5354 -0.7047
  365MOL0     H48148   9.671   6.069   9.829  1.1580 -0.1981  0.9631
  365MOL0     H48149   9.627   6.243   9.892 -1.1522 -1.6078  0.0875
  365MOL0     H48150   9.791   6.330   9.750 -0.8019  0.9468  2.6914
  365MOL0     H48151   9.852   6.168   9.703  1.1248  2.9928 -0.9272
  365MOL0     H48152   9.850   6.256   9.997  1.6003 -0.4162  1.1297
  365MOL0     H48153   9.899   6.103   9.936  2.3036 -0.4692 -0.5523
  365MOL0     H48154  10.069   6.258   9.799 -0.3831 -1.9312  0.4498
  365MOL0     H48155  10.096   6.264   9.976  1.7887 -1.4056 -0.9625
  365MOL0     H48156   9.923   6.474   9.948  0.9998 -0.6090  2.1041
  365MOL0     H48157   9.975   6.467   9.784 -0.8414  0.9624  1.3440
  365MOL0     H48158  10.220   6.460   9.875  0.4461  0.4775 -0.3620
  365MOL0     H48159  10.137   6.618   9.865  2.9324  0.2147  1.1483
  365MOL0     H48160  10.236   6.598  10.085 -1.6003  1.1636  3.7133
  365MOL0     H48161  10.154   6.448  10.121  2.2882  0.8049 -0.5162
  365MOL0     H48162   9.496   5.991   9.940 -1.3504 -0.5195  0.9339
  365MOL0     H48163   9.461   5.757   9.928  1.8272  1.6548  0.6135
  365MOL0     H48164   9.407   5.349   9.960 -1.3461  1.8619 -0.4752
  365MOL0     H48165   9.354   5.098   9.932 -1.0228  0.9006  0.2257
  365MOL0     H48166  10.447   5.731   9.844  0.6375 -0.3032 -2.1798
  365MOL0     H48167  10.649   5.698   9.989  0.9661  0.7062  1.7792
  365MOL0     H48168  11.111   5.822  10.063  0.9663  0.3982  1.6491
  365MOL0     H48169  11.291   5.731  10.174  1.3148  2.7828 -2.4567
  365MOL0     H48170  11.491   5.478   9.929  1.5587 -0.7312 -1.5241
  365MOL0     H48171  11.581   5.395  10.043 -0.1031  0.9843 -0.1704
  365MOL0     H48172  11.552   5.701   9.999  1.6073 -1.0026 -3.5825
  365MOL0     H48173  11.593   5.646  10.159  6.4139  0.8861  1.2802
  365MOL0     H48174  11.753   5.544   9.921  0.6554 -0.6537 -0.3277
  365MOL0     H48175  11.799   5.555  10.093  0.3428  0.2111 -0.9661
  365MOL0     H48176  11.784   5.802  10.084 -0.4405  0.2841 -0.9520
  365MOL0     H48177  11.918   5.745  10.007  0.2602 -2.3047  1.2127
  365MOL0     H48178  11.744   5.944   9.681 -3.8126 -3.1155 -1.2022
  365MOL0     H48179  11.252   5.369   9.969 -1.1265 -1.2289  3.1487
  365MOL0     H48180  11.053   5.462   9.841 -5.1202  1.3436  2.9103
  366MOL0     O48181   9.589   4.727  11.136 -0.2385  0.4408 -0.1943
  366MOL0     C48182   9.564   4.786  11.243 -0.3505  0.4832  0.0714
  366MOL0     O48183   9.505   4.730  11.353 -0.0392  0.8480  0.6326
  366MOL0     C48184   9.459   4.598  11.353 -0.1151  0.6665  0.7343
  366MOL0     C48185   9.532   4.497  11.427 -0.0464 -0.4674  0.3737
  366MOL0     C48186   9.498   4.359  11.402 -0.0059  0.6993  0.1638
  366MOL0     C48187   9.384   4.322  11.330  0.5293  0.3819 -0.2904
  366MOL0     O48188   9.356   4.182  11.307  0.4823  0.4059  0.0878
  366MOL0     C48189   9.243   4.157  11.229 -1.1202  0.1903 -0.9307
  366MOL0     C48190   9.242   4.007  11.193 -1.2584 -0.4759 -0.2803
  366MOL0     C48191   9.135   3.989  11.084 -0.1118 -0.6360  0.4754
  366MOL0     C48192   8.990   4.005  11.132 -0.1986  0.7186  0.4616
  366MOL0     C48193   8.906   3.876  11.111 -0.0726 -0.7275  0.0125
  366MOL0     C48194   8.973   3.745  11.172 -0.7713 -0.3391  0.1885
  366MOL0     C48195   8.883   3.623  11.165  0.7408  0.6988 -0.3129
  366MOL0     C48196   8.749   3.636  11.236  0.4145 -0.5014  1.0376
  366MOL0     N48197   8.752   3.592  11.378  0.7070  0.0231 -0.1351
  366MOL0     C48198   8.692   3.479  11.430  1.1807  0.7522 -0.5665
  366MOL0     C48199   8.720   3.497  11.567 -0.5642  0.7706  0.3944
  366MOL0     C48200   8.700   3.391  11.673  0.7843  0.2393 -0.4925
  366MOL0     C48201   8.786   3.274  11.650  0.8658  0.2707 -0.4224
  366MOL0     C48202   8.932   3.298  11.603 -0.3233  0.8614 -0.2388
  366MOL0     C48203   9.020   3.387  11.696  0.7617 -1.1822 -0.4380
  366MOL0     O48204   9.152   3.409  11.644  0.0532 -0.3510  0.7446
  366MOL0     C48205   9.250   3.474  11.720  0.3977  0.4393  0.9928
  366MOL0     C48206   9.376   3.447  11.676 -0.2440 -0.9510 -0.2007
  366MOL0     C48207   9.480   3.498  11.762  0.1783 -0.1800  0.2718
  366MOL0     C48208   9.460   3.563  11.885 -0.2281  0.3782  0.5347
  366MOL0     C48209   9.571   3.597  11.978  0.7047 -0.1500  0.5903
  366MOL0     O48210   9.689   3.538  11.952 -0.1053  0.3374  0.6175
  366MOL0     C48211   9.799   3.540  12.034 -0.8707 -0.3271 -0.8339
  366MOL0     C48212   9.809   3.597  12.165 -0.2208 -0.3387  0.5591
  366MOL0     C48213   9.929   3.581  12.236 -0.5145 -0.9446  0.3862
  366MOL0     C48214  10.032   3.487  12.187 -0.0268  0.8038 -0.0855
  366MOL0     O48215  10.138   3.470  12.262 -1.2762 -0.8222  0.0592
  366MOL0     C48216  10.251   3.401  12.200 -0.4716 -0.6909  0.2697
  366MOL0     C48217  10.370   3.404  12.290 -1.2659  0.2930 -0.2134
  366MOL0     C48218  10.510   3.382  12.232  0.4073 -0.0398  0.8673
  366MOL0     C48219  10.620   3.374  12.327 -0.6971  0.3696  0.0675
  366MOL0     C48220  10.615   3.281  12.453  0.4517 -0.5108 -0.5803
  366MOL0     C48221  10.609   3.128  12.413  0.0538  0.9747  0.1614
  366MOL0     C48222  10.725   3.071  12.333  0.4850 -0.4902  0.7443
  366MOL0     C48223  10.742   2.930  12.337 -0.3463  0.6528  0.7177
  366MOL0    Cl48224  10.583   2.869  12.275  0.5425 -0.2364  0.0967
  366MOL0     C48225  10.008   3.425  12.064  1.2403 -0.0486  0.0068
  366MOL0     C48226   9.899   3.466  11.992  0.1084 -0.0023  1.2717
  366MOL0     O48227   9.544   3.674  12.076 -0.6708 -0.2896 -0.2786
  366MOL0     C48228   9.325   3.606  11.908 -1.2266  0.6299 -0.1888
  366MOL0     C48229   9.224   3.549  11.833  0.0211 -0.1742  0.2597
  366MOL0     N48230   8.784   3.620  11.591  0.5835 -0.3477  0.0249
  366MOL0     N48231   8.782   3.680  11.471  0.2718 -0.1414 -0.7711
  366MOL0     C48232   9.302   4.425  11.282  0.3672  0.1642 -0.4596
  366MOL0     C48233   9.350   4.556  11.276  0.2961 -1.2010 -0.3790
  366MOL0     C48234   9.623   4.917  11.269 -1.0470 -0.5093  1.8093
  366MOL0     C48235   9.681   4.987  11.161 -0.6284 -0.4539 -0.1245
  366MOL0     C48236   9.733   5.116  11.179 -0.9330  0.8697  0.2352
  366MOL0     C48237   9.752   5.175  11.305  0.3326  0.4995  0.0235
  366MOL0     O48238   9.808   5.298  11.306 -0.1649  0.6632  0.3431
  366MOL0     C48239   9.830   5.360  11.439  0.1602 -0.2018  0.1860
  366MOL0     C48240   9.971   5.326  11.496 -0.4152 -0.2155 -0.0761
  366MOL0     C48241  10.080   5.391  11.401 -0.0771 -0.5770  0.2655
  366MOL0     C48242  10.096   5.538  11.430 -0.0654  0.1918 -0.3855
  366MOL0     C48243  10.220   5.582  11.360  1.2017 -0.0130 -0.3669
  366MOL0     C48244  10.317   5.613  11.299  0.7347  0.0072 -0.5527
  366MOL0     C48245   9.695   5.099  11.409 -0.2984 -0.0047 -0.5452
  366MOL0     C48246   9.640   4.965  11.393  0.0039 -0.6509  0.2404
  366MOL0     H48247   9.610   4.523  11.499 -1.0274  3.4867  0.2204
  366MOL0     H48248   9.555   4.273  11.435 -0.1549 -1.7246 -4.9028
  366MOL0     H48249   9.231   4.225  11.145 -1.0461  0.8632 -0.4041
  366MOL0     H48250   9.158   4.172  11.296 -1.7576 -0.5002 -1.5632
  366MOL0     H48251   9.219   3.955  11.287  1.4771  2.4105  2.1951
  366MOL0     H48252   9.341   3.977  11.159 -1.2707  0.2930 -0.9995
  366MOL0     H48253   9.154   3.884  11.064  0.3345 -0.2340 -1.3996
  366MOL0     H48254   9.148   4.047  10.992 -2.7286 -0.8116 -0.0910
  366MOL0     H48255   8.996   4.023  11.239 -0.7770 -1.3882  0.8975
  366MOL0     H48256   8.942   4.092  11.086 -0.8856 -0.6419 -1.5346
  366MOL0     H48257   8.889   3.865  11.004  1.8767 -0.0268 -0.4089
  366MOL0     H48258   8.810   3.891  11.161 -0.0770 -1.2727  0.1773
  366MOL0     H48259   9.002   3.764  11.276 -3.9170  1.2310  0.9280
  366MOL0     H48260   9.064   3.727  11.115 -2.1028 -0.0108 -2.1594
  366MOL0     H48261   8.865   3.613  11.057 -0.5010  0.0719 -0.0741
  366MOL0     H48262   8.935   3.536  11.207 -2.6020  0.0180  3.0024
  366MOL0     H48263   8.676   3.573  11.184  1.7718  0.2869 -2.0317
  366MOL0     H48264   8.717   3.740  11.231 -1.6199 -1.1277 -0.6719
  366MOL0     H48265   8.653   3.392  11.379  1.2083  0.7900 -0.6519
  366MOL0     H48266   8.594   3.363  11.680  0.9581 -0.1336  0.7015
  366MOL0     H48267   8.722   3.445  11.766  1.4554  4.1350 -2.6732
  366MOL0     H48268   8.747   3.213  11.569  2.4344 -3.1684  1.1737
  366MOL0     H48269   8.790   3.201  11.732 -0.7257 -1.2487 -1.6384
  366MOL0     H48270   8.970   3.197  11.590 -2.9256 -0.0973 -1.0778
  366MOL0     H48271   8.938   3.348  11.506 -1.1031  0.7135 -0.3675
  366MOL0     H48272   9.031   3.340  11.794  1.2229  1.4702  0.8835
  366MOL0     H48273   8.967   3.483  11.705 -3.8773 -3.5408  0.4765
  366MOL0     H48274   9.398   3.392  11.585  1.8723 -0.1075 -0.2499
  366MOL0     H48275   9.581   3.467  11.735 -1.3027 -3.0614 -2.6471
  366MOL0     H48276   9.739   3.670  12.204 -0.3155  0.1848 -0.5704
  366MOL0     H48277   9.945   3.608  12.340 -1.7316 -3.1593  1.2053
  366MOL0     H48278  10.265   3.462  12.111  4.3377  0.0557  1.2746
  366MOL0     H48279  10.233   3.297  12.170 -0.8987 -0.7279  0.6417
  366MOL0     H48280  10.357   3.320  12.359 -3.4770 -2.0910 -3.1808
  366MOL0     H48281  10.358   3.487  12.360 -3.2130 -0.3043  0.2324
  366MOL0     H48282  10.536   3.466  12.168 -1.5849 -0.6396 -0.8346
  366MOL0     H48283  10.508   3.293  12.169 -0.7298 -0.8247  1.9762
  366MOL0     H48284  10.709   3.363  12.265  0.1967  2.4244  0.9020
  366MOL0     H48285  10.655   3.468  12.370  0.8323 -1.2747  2.6972
  366MOL0     H48286  10.526   3.307  12.512  0.5164 -2.2912  0.3884
  366MOL0     H48287  10.704   3.302  12.512 -0.7962 -1.2258  1.6967
  366MOL0     H48288  10.511   3.109  12.368 -1.0752  1.0900  2.4339
  366MOL0     H48289  10.608   3.083  12.513 -1.7635 -1.0726 -0.7083
  366MOL0     H48290  10.720   3.093  12.226  2.4871  2.7782  1.1769
  366MOL0     H48291  10.809   3.130  12.371 -1.5969  1.8999  2.0040
  366MOL0     H48292  10.758   2.900  12.441 -1.6696  0.4365  0.8716
  366MOL0     H48293  10.821   2.902  12.267 -0.8038  2.2315 -0.4761
  366MOL0     H48294  10.086   3.368  12.015  2.0460  0.8270  0.2608
  366MOL0     H48295   9.877   3.410  11.901 -0.5812 -1.2142  2.1480
  366MOL0     H48296   9.313   3.651  12.007 -1.8174 -1.2503  0.6297
  366MOL0     H48297   9.121   3.566  11.863  0.1570  1.9561 -0.3100
  366MOL0     H48298   9.213   4.411  11.221 -0.6424  1.0957  0.7614
  366MOL0     H48299   9.301   4.630  11.215 -0.3677 -2.8426 -1.9126
  366MOL0     H48300   9.653   4.952  11.062  0.4812  2.9741 -1.8153
  366MOL0     H48301   9.763   5.173  11.092 -1.8788 -2.6850 -2.6735
  366MOL0     H48302   9.754   5.342  11.515 -1.2251  1.4492 -0.7060
  366MOL0     H48303   9.834   5.467  11.417  0.9334 -0.5553 -1.5789
  366MOL0     H48304   9.995   5.354  11.598 -1.8927 -0.0811  0.2541
  366MOL0     H48305   9.964   5.216  11.492  1.4392 -0.4053 -4.8841
  366MOL0     H48306  10.041   5.382  11.299 -0.1705  3.1204 -0.1466
  366MOL0     H48307  10.175   5.341  11.418  2.0951  2.5934 -1.5907
  366MOL0     H48308   9.999   5.579  11.403  1.0405  2.0864 -1.7896
  366MOL0     H48309  10.125   5.559  11.534  3.4896  0.2177 -1.2389
  366MOL0     H48310  10.404   5.647  11.248  2.0153 -0.5534  1.1587
  366MOL0     H48311   9.706   5.130  11.512  2.5810 -0.8282 -0.5147
  366MOL0     H48312   9.612   4.909  11.482  1.0428 -0.4933  0.6759
  367MOL0     O48313   0.432   0.423   0.526 -0.6668 -0.4567 -0.2472
  367MOL0     C48314   0.517   0.485   0.466  0.7872  0.0606 -0.1462
  367MOL0     O48315   0.628   0.432   0.399  0.4066 -0.9968  0.1998
  367MOL0     C48316   0.638   0.294   0.397 -0.8050  0.7938  0.5271
  367MOL0     C48317   0.666   0.235   0.276 -0.2000  1.3360 -0.1648
  367MOL0     C48318   0.680   0.095   0.252  0.3977 -0.5892 -1.1025
  367MOL0     C48319   0.651   0.006   0.362  0.7632 -0.2916  0.5657
  367MOL0     O48320   0.633  -0.133   0.353 -0.1551 -0.5229 -0.3046
  367MOL0     C48321   0.589  -0.191   0.232  0.9340  0.1103 -0.5250
  367MOL0     C48322   0.570  -0.340   0.238 -0.8432  0.1656 -0.1444
  367MOL0     C48323   0.619  -0.403   0.370  0.0742 -0.6031  0.2551
  367MOL0     C48324   0.637  -0.561   0.359  0.7569  0.2343 -0.1684
  367MOL0     C48325   0.659  -0.612   0.508  0.4299 -0.0384  0.3761
  367MOL0     C48326   0.720  -0.754   0.515  0.5652 -0.2766  0.2729
  367MOL0     C48327   0.666  -0.833   0.636  0.5919  0.4404  0.5691
  367MOL0     C48328   0.748  -0.821   0.771 -0.4387  1.3524  0.5716
  367MOL0     N48329   0.675  -0.879   0.882 -0.4529 -0.6911 -0.4455
  367MOL0     C48330   0.704  -0.996   0.948 -0.6624  0.4900 -0.0720
  367MOL0     C48331   0.593  -1.017   1.031  0.7823  0.3237  0.1957
  367MOL0     C48332   0.565  -1.146   1.114  0.2976  0.6693  0.1891
  367MOL0     C48333   0.672  -1.161   1.232  0.8150 -0.3674  0.0355
  367MOL0     C48334   0.625  -1.106   1.369  0.0349 -0.0646  0.2685
  367MOL0     C48335   0.573  -0.966   1.382 -0.3261  1.0869 -0.0127
  367MOL0     O48336   0.531  -0.925   1.516 -0.2828  0.6887  0.2592
  367MOL0     C48337   0.502  -0.791   1.534  0.3191  0.2630 -0.0435
  367MOL0     C48338   0.486  -0.683   1.438 -0.7529  0.7607  1.1239
  367MOL0     C48339   0.456  -0.556   1.477  0.2330  0.9619  0.0871
  367MOL0     C48340   0.438  -0.533   1.606  0.4736 -0.5208 -0.9195
  367MOL0     C48341   0.391  -0.391   1.651  0.0604  0.0683 -0.0009
  367MOL0     O48342   0.390  -0.280   1.568  0.1250  0.3037 -0.0331
  367MOL0     C48343   0.341  -0.158   1.605 -0.5504 -0.2384 -0.5159
  367MOL0     C48344   0.404  -0.053   1.545 -0.3128 -0.1950  1.2158
  367MOL0     C48345   0.373   0.080   1.574 -0.0854 -0.8636  0.6337
  367MOL0     C48346   0.279   0.109   1.671  0.0248 -0.4729 -0.6334
  367MOL0     O48347   0.234   0.237   1.699  0.0118 -0.2870 -0.8954
  367MOL0     C48348   0.319   0.350   1.680  0.8182 -0.6199  0.6771
  367MOL0     C48349   0.266   0.475   1.742  0.5424 -0.1875 -1.2965
  367MOL0     C48350   0.277   0.471   1.897  0.3867  0.3545  0.2824
  367MOL0     C48351   0.204   0.591   1.963 -0.4024 -0.7044 -0.2476
  367MOL0     C48352   0.244   0.726   1.910 -0.0161 -0.1228  0.0265
  367MOL0     C48353   0.197   0.841   2.002 -0.0126  0.2802 -0.2692
  367MOL0     C48354   0.221   0.980   1.934  0.2456  0.4938 -0.2800
  367MOL0     C48355   0.136   1.088   1.993 -0.3460 -0.4233  0.1627
  367MOL0    Cl48356   0.176   1.111   2.172  0.0422  0.1563  0.0500
  367MOL0     C48357   0.208   0.003   1.744 -1.0717  0.4350  0.7036
  367MOL0     C48358   0.252  -0.127   1.711  0.6324 -0.5476  0.1344
  367MOL0     O48359   0.336  -0.397   1.766  0.1354  0.0514 -0.4030
  367MOL0     C48360   0.451  -0.636   1.706  1.7245  0.7190  0.9758
  367MOL0     C48361   0.489  -0.762   1.670  0.8928  0.0782  0.7358
  367MOL0     N48362   0.502  -0.910   1.012 -0.7199 -0.2753  1.0702
  367MOL0     N48363   0.558  -0.833   0.922 -0.1533  0.1306  0.3231
  367MOL0     C48364   0.624   0.058   0.484 -0.3385 -0.7977  0.0474
  367MOL0     C48365   0.617   0.201   0.505  0.4932 -0.8290  0.0283
  367MOL0     C48366   0.498   0.632   0.468 -0.9850 -0.7149 -0.1511
  367MOL0     C48367   0.609   0.713   0.449 -0.4677 -0.9052 -0.4102
  367MOL0     C48368   0.600   0.855   0.469  0.3625 -0.3360  0.2180
  367MOL0     C48369   0.478   0.912   0.503 -0.9779 -0.8459 -1.3634
  367MOL0     O48370   0.471   1.047   0.528  0.2603 -0.3108 -0.8833
  367MOL0     C48371   0.357   1.111   0.602 -0.1955  0.6974  0.0341
  367MOL0     C48372   0.376   1.254   0.628 -0.3259 -0.4709 -0.1897
  367MOL0     C48373   0.260   1.324   0.701  0.1603  0.2369 -0.7987
  367MOL0     C48374   0.312   1.441   0.782 -0.1591 -0.5522 -0.1649
  367MOL0     C48375   0.371   1.391   0.912 -0.9092 -0.3429 -0.5543
  367MOL0     C48376   0.416   1.340   1.016 -0.0653 -0.0485  0.2961
  367MOL0     C48377   0.369   0.828   0.519 -0.1553  0.6132  0.7371
  367MOL0     C48378   0.386   0.693   0.511  0.1127 -0.1189  1.1832
  367MOL0     H48379   0.680   0.295   0.186 -1.6104  2.7070  0.4758
  367MOL0     H48380   0.701   0.059   0.152 -0.8660  2.5142 -2.6163
  367MOL0     H48381   0.662  -0.163   0.156  0.0031 -0.3144 -1.6003
  367MOL0     H48382   0.488  -0.150   0.219  0.9340  0.6496  0.9089
  367MOL0     H48383   0.625  -0.390   0.158 -0.3004 -1.4253  1.1526
  367MOL0     H48384   0.462  -0.355   0.225 -0.5202 -1.8624 -0.8999
  367MOL0     H48385   0.549  -0.384   0.452  1.5411  4.2022  0.7189
  367MOL0     H48386   0.711  -0.359   0.410 -0.8162  0.8507  0.7831
  367MOL0     H48387   0.554  -0.616   0.315  0.7358 -0.3593  0.5972
  367MOL0     H48388   0.734  -0.570   0.310  0.3754  1.0531 -1.1019
  367MOL0     H48389   0.565  -0.603   0.563 -0.8005  0.1289 -1.6213
  367MOL0     H48390   0.727  -0.544   0.559  1.0459  0.3811 -0.9512
  367MOL0     H48391   0.829  -0.745   0.527  0.5300  0.4840  0.0514
  367MOL0     H48392   0.694  -0.804   0.421  2.5579  0.7448 -0.8999
  367MOL0     H48393   0.558  -0.816   0.640  0.5589  0.4744 -0.3002
  367MOL0     H48394   0.670  -0.937   0.603  2.7386  0.4671  0.5724
  367MOL0     H48395   0.762  -0.713   0.784  0.1668  1.5838 -1.6131
  367MOL0     H48396   0.843  -0.874   0.760 -1.5420 -0.5731 -0.0938
  367MOL0     H48397   0.796  -1.054   0.943 -0.6436  0.2657  2.0300
  367MOL0     H48398   0.574  -1.228   1.042  0.1301  1.1379 -0.3712
  367MOL0     H48399   0.468  -1.132   1.163  0.2833  0.8216  0.1192
  367MOL0     H48400   0.764  -1.109   1.205  1.7597 -1.9110  0.1732
  367MOL0     H48401   0.702  -1.266   1.239  6.0480  0.7403 -1.4081
  367MOL0     H48402   0.559  -1.179   1.417 -0.7126 -1.5930 -2.8850
  367MOL0     H48403   0.722  -1.097   1.420  3.0563 -3.8600 -4.0568
  367MOL0     H48404   0.486  -0.964   1.316  0.9925  1.2819 -1.8513
  367MOL0     H48405   0.648  -0.903   1.332  0.2815 -0.0097 -0.5026
  367MOL0     H48406   0.498  -0.702   1.332  2.7899  3.5330  0.8375
  367MOL0     H48407   0.451  -0.478   1.402 -0.8050 -0.9003 -1.9035
  367MOL0     H48408   0.481  -0.085   1.475 -1.7502 -2.0558  0.3774
  367MOL0     H48409   0.426   0.153   1.513  1.3366 -3.5147 -1.5400
  367MOL0     H48410   0.315   0.364   1.572  0.3445 -1.3632  0.5871
  367MOL0     H48411   0.420   0.337   1.720  1.0727  1.9265  1.0520
  367MOL0     H48412   0.158   0.486   1.726  0.1800  1.4900  1.6323
  367MOL0     H48413   0.316   0.561   1.696 -2.5422  2.3626 -0.3189
  367MOL0     H48414   0.383   0.464   1.921  0.7045 -0.1585 -1.2091
  367MOL0     H48415   0.217   0.390   1.940 -0.0079  1.6675  2.3837
  367MOL0     H48416   0.095   0.580   1.952 -0.4849  1.5908 -2.7068
  367MOL0     H48417   0.214   0.588   2.072 -1.9885  0.5809 -0.0281
  367MOL0     H48418   0.205   0.742   1.808  2.1581  3.1293 -0.4497
  367MOL0     H48419   0.349   0.750   1.896 -0.9899  2.8182 -4.4337
  367MOL0     H48420   0.256   0.833   2.094  0.8952  0.4428 -0.8192
  367MOL0     H48421   0.092   0.831   2.031  0.0432  2.6719  1.0548
  367MOL0     H48422   0.328   1.000   1.927  1.1549 -3.8173 -1.5531
  367MOL0     H48423   0.191   0.982   1.828 -0.2079 -0.5066 -0.1808
  367MOL0     H48424   0.034   1.049   1.992 -0.1826 -0.9334  1.2716
  367MOL0     H48425   0.141   1.178   1.931 -2.7291 -1.7006 -2.0813
  367MOL0     H48426   0.128   0.025   1.814 -3.3105 -0.5677 -1.3922
  367MOL0     H48427   0.200  -0.215   1.746  0.7228 -0.5883  0.1676
  367MOL0     H48428   0.430  -0.625   1.812  1.1167  1.7950  0.7529
  367MOL0     H48429   0.478  -0.843   1.742 -0.9114 -1.4384 -1.1205
  367MOL0     H48430   0.603  -0.007   0.568  1.4699  0.6634  1.7442
  367MOL0     H48431   0.591   0.244   0.602 -3.6631  0.7150 -1.5523
  367MOL0     H48432   0.704   0.665   0.427 -1.3616 -3.1009  0.2088
  367MOL0     H48433   0.693   0.907   0.451 -0.0998  1.4450  2.5060
  367MOL0     H48434   0.331   1.057   0.694  0.8383 -0.8131 -0.5412
  367MOL0     H48435   0.271   1.089   0.538  0.1262  2.7439 -1.1926
  367MOL0     H48436   0.467   1.254   0.688  0.2523 -0.4393 -1.0521
  367MOL0     H48437   0.388   1.312   0.537 -0.7120 -1.6150 -0.9932
  367MOL0     H48438   0.197   1.269   0.771  0.6170  1.0292  0.2739
  367MOL0     H48439   0.202   1.361   0.616 -0.0903  0.3979 -0.5583
  367MOL0     H48440   0.389   1.485   0.719  0.5812  0.4421  1.3726
  367MOL0     H48441   0.239   1.517   0.809  0.0533 -0.6415  0.6917
  367MOL0     H48442   0.463   1.300   1.104 -1.0686 -1.3801  0.2576
  367MOL0     H48443   0.273   0.873   0.543  0.5109  2.0270  0.8556
  367MOL0     H48444   0.302   0.636   0.549 -0.6403 -1.0982 -1.7126
  368MOL0     O48445   8.827   9.885   3.736  0.3785  0.5063  0.1841
  368MOL0     C48446   8.842   9.836   3.844 -0.3168  1.1447 -0.2393
  368MOL0     O48447   8.748   9.757   3.914  0.5940  0.6052  0.6266
  368MOL0     C48448   8.636   9.718   3.851  0.6580  0.5393  0.0535
  368MOL0     C48449   8.543   9.817   3.803 -0.6199 -0.5212  0.1906
  368MOL0     C48450   8.417   9.789   3.754  1.0670 -0.7144  0.6100
  368MOL0     C48451   8.378   9.656   3.744 -0.0283 -1.2601  0.1984
  368MOL0     O48452   8.259   9.625   3.681  0.6903 -0.0414 -0.3559
  368MOL0     C48453   8.188   9.736   3.619  0.3186  1.5663  0.1969
  368MOL0     C48454   8.068   9.683   3.551  0.8685  0.3887 -0.9445
  368MOL0     C48455   8.095   9.601   3.425  0.5675 -0.8704 -0.7904
  368MOL0     C48456   7.959   9.550   3.372  1.2162  0.6412 -0.4876
  368MOL0     C48457   7.970   9.474   3.248  0.6116 -0.5363  0.3822
  368MOL0     C48458   7.824   9.439   3.199  0.3864  0.6191  0.4456
  368MOL0     C48459   7.828   9.416   3.041 -0.8776 -0.4036  0.5448
  368MOL0     C48460   7.688   9.400   2.983  0.2527  1.0896 -0.7362
  368MOL0     N48461   7.712   9.342   2.846  0.4720  0.0066 -0.3517
  368MOL0     C48462   7.725   9.415   2.737 -0.2811 -0.6759  0.1466
  368MOL0     C48463   7.698   9.337   2.637  0.0978 -0.2722 -0.2968
  368MOL0     C48464   7.684   9.357   2.492  0.0737 -0.1293  0.5507
  368MOL0     C48465   7.809   9.420   2.433  0.4945  0.2153  0.9096
  368MOL0     C48466   7.815   9.432   2.274  0.3450  0.5650 -1.0413
  368MOL0     C48467   7.952   9.477   2.228  0.4406 -0.1220 -0.7412
  368MOL0     O48468   8.009   9.599   2.276  0.3408  0.8948  0.3803
  368MOL0     C48469   8.135   9.628   2.227  0.1704  0.4901 -0.7066
  368MOL0     C48470   8.178   9.756   2.259 -0.0095 -0.5315  0.6120
  368MOL0     C48471   8.309   9.787   2.218  0.7436 -0.4813  0.3959
  368MOL0     C48472   8.389   9.704   2.138 -1.0289  0.5751  0.3610
  368MOL0     C48473   8.521   9.751   2.092  0.6553 -0.3538  0.9091
  368MOL0     O48474   8.550   9.889   2.089  0.0369  0.2363 -0.1918
  368MOL0     C48475   8.660   9.925   2.021  0.0287 -0.3781 -0.1906
  368MOL0     C48476   8.721  10.044   2.066 -0.3219 -0.2662  0.2356
  368MOL0     C48477   8.823  10.098   1.988 -0.2539 -0.0233 -0.5265
  368MOL0     C48478   8.862  10.051   1.862 -0.1058  0.5973 -0.5418
  368MOL0     O48479   8.977  10.104   1.815  0.2770 -1.0285 -0.0368
  368MOL0     C48480   8.971  10.174   1.692  0.5710 -0.1945 -0.3155
  368MOL0     C48481   8.897  10.322   1.699  0.0199 -0.3526  0.5035
  368MOL0     C48482   8.995  10.441   1.707  0.3990  0.2795 -0.0490
  368MOL0     C48483   9.057  10.455   1.849 -0.3299  0.2451 -0.1907
  368MOL0     C48484   8.960  10.492   1.965  0.4555  0.3414 -0.0545
  368MOL0     C48485   8.911  10.639   1.951  0.1296  0.4711  0.0438
  368MOL0     C48486   8.822  10.676   2.065 -0.4938 -0.4739  0.9622
  368MOL0     C48487   8.697  10.588   2.073 -0.3743  0.1673  0.1292
  368MOL0    Cl48488   8.625  10.537   1.919  0.3303 -0.3814  0.0939
  368MOL0     C48489   8.788   9.932   1.813 -0.0390  0.5613  0.9225
  368MOL0     C48490   8.686   9.874   1.890 -0.0669  1.2233 -0.9429
  368MOL0     O48491   8.588   9.653   2.062  0.1118  0.4952 -0.0138
  368MOL0     C48492   8.352   9.569   2.112  0.7510 -0.0408  0.2891
  368MOL0     C48493   8.224   9.533   2.158  0.8241 -0.1043 -0.5811
  368MOL0     N48494   7.680   9.209   2.689  0.6413 -0.5724  0.2340
  368MOL0     N48495   7.684   9.215   2.817  0.4206  0.3480  0.2831
  368MOL0     C48496   8.467   9.553   3.786  0.6213 -0.4638 -0.3304
  368MOL0     C48497   8.588   9.581   3.836  0.0114 -0.3495 -0.3860
  368MOL0     C48498   8.974   9.875   3.903  0.8590  0.4652  0.9237
  368MOL0     C48499   9.029   9.797   4.003  1.3661  0.4772 -0.2771
  368MOL0     C48500   9.146   9.838   4.070 -0.8004  0.5737  0.1892
  368MOL0     C48501   9.213   9.950   4.036 -0.8217 -0.3009 -0.1738
  368MOL0     O48502   9.325   9.981   4.114 -0.3526  0.5492  0.0407
  368MOL0     C48503   9.400  10.099   4.092 -0.3487 -0.2084 -0.3099
  368MOL0     C48504   9.345  10.215   4.173  0.6858 -0.7285 -0.7577
  368MOL0     C48505   9.306  10.169   4.319  0.1046  0.1489 -0.3970
  368MOL0     C48506   9.374  10.245   4.427  0.3676 -0.2091 -0.6753
  368MOL0     C48507   9.518  10.232   4.426 -0.7348  1.6890 -1.0569
  368MOL0     C48508   9.637  10.208   4.434  0.4229  1.1790 -0.4299
  368MOL0     C48509   9.168  10.030   3.927  0.4366 -0.2703 -0.4586
  368MOL0     C48510   9.044   9.988   3.854  0.4057 -0.2581  0.5525
  368MOL0     H48511   8.567   9.923   3.805 -1.5004 -0.2808 -1.2266
  368MOL0     H48512   8.352   9.874   3.736  2.2045  0.0871  0.1719
  368MOL0     H48513   8.259   9.769   3.541 -0.9429  2.5206 -0.5925
  368MOL0     H48514   8.154   9.825   3.673  2.7033  1.6703  1.6572
  368MOL0     H48515   8.001   9.766   3.526  0.2125 -0.3604 -1.7502
  368MOL0     H48516   8.008   9.618   3.615 -0.8166  1.0260 -1.8041
  368MOL0     H48517   8.159   9.517   3.457  2.0021 -0.6023 -2.7623
  368MOL0     H48518   8.143   9.667   3.353  2.2445  1.6453  2.3390
  368MOL0     H48519   7.899   9.495   3.445  3.0984 -0.6572  0.1551
  368MOL0     H48520   7.892   9.634   3.351 -0.1547  0.2956  2.0499
  368MOL0     H48521   8.022   9.379   3.265 -1.4336 -1.9282 -0.6593
  368MOL0     H48522   8.008   9.538   3.168 -0.0596 -2.2509 -1.4035
  368MOL0     H48523   7.751   9.518   3.221 -0.4158  0.3878 -1.2165
  368MOL0     H48524   7.791   9.354   3.260  1.9570  1.0656  1.9969
  368MOL0     H48525   7.871   9.496   2.981 -0.6250 -1.0324 -0.1205
  368MOL0     H48526   7.883   9.327   3.009 -1.4226 -0.1680 -1.1238
  368MOL0     H48527   7.622   9.485   2.961 -4.1265 -2.2958 -2.0480
  368MOL0     H48528   7.630   9.340   3.054 -1.6719 -0.2750 -3.3081
  368MOL0     H48529   7.728   9.523   2.732 -3.5155 -0.5009 -0.2989
  368MOL0     H48530   7.597   9.419   2.471 -0.3246 -0.2177  1.8248
  368MOL0     H48531   7.655   9.261   2.448 -2.2879  1.3250 -1.3454
  368MOL0     H48532   7.888   9.350   2.461 -1.1387 -2.1110  0.0947
  368MOL0     H48533   7.825   9.517   2.479 -0.7986  2.6592 -3.2214
  368MOL0     H48534   7.782   9.333   2.241 -0.8806  0.4192  0.5239
  368MOL0     H48535   7.735   9.501   2.245 -1.0117  0.5973  2.3394
  368MOL0     H48536   7.945   9.488   2.120 -2.3316  2.9169 -0.4379
  368MOL0     H48537   8.015   9.393   2.256 -2.7360 -3.2536 -2.2586
  368MOL0     H48538   8.114   9.811   2.327  1.8510  1.5688  0.7848
  368MOL0     H48539   8.341   9.886   2.248 -3.6904  0.1764  4.1469
  368MOL0     H48540   8.697  10.089   2.161  0.9556 -2.5460  1.7325
  368MOL0     H48541   8.874  10.179   2.038  0.0609 -0.9918  0.7980
  368MOL0     H48542   8.931  10.112   1.611  2.6664 -3.0918  0.7345
  368MOL0     H48543   9.076  10.191   1.665  1.8183 -1.9476  2.8888
  368MOL0     H48544   8.830  10.308   1.784 -0.8418  1.1889  0.1196
  368MOL0     H48545   8.836  10.338   1.610  0.1355  1.7168  0.7535
  368MOL0     H48546   8.948  10.535   1.675  1.3966  0.1289 -2.0925
  368MOL0     H48547   9.071  10.416   1.633 -1.2335 -0.1879 -1.6544
  368MOL0     H48548   9.099  10.359   1.879  0.0534  0.0292 -1.3708
  368MOL0     H48549   9.141  10.526   1.853 -0.9265  0.9162  1.9571
  368MOL0     H48550   9.012  10.478   2.060  2.3084 -1.5363 -1.2704
  368MOL0     H48551   8.875  10.424   1.975 -1.3674  2.8475  5.3513
  368MOL0     H48552   8.857  10.653   1.857 -0.7271 -1.2554  0.2481
  368MOL0     H48553   9.002  10.699   1.943  1.8928 -2.1688 -1.2785
  368MOL0     H48554   8.878  10.671   2.159  2.5750 -1.6498 -0.8040
  368MOL0     H48555   8.799  10.782   2.055  1.6060 -0.1406 -1.1952
  368MOL0     H48556   8.620  10.636   2.134  0.0234  0.8348  0.1190
  368MOL0     H48557   8.725  10.499   2.131 -1.2878  2.3468  4.2762
  368MOL0     H48558   8.838   9.901   1.722  3.7170  0.6934  2.7535
  368MOL0     H48559   8.652   9.774   1.867  0.2296  1.0063 -0.4450
  368MOL0     H48560   8.405   9.506   2.041  2.0761  0.7405  0.5595
  368MOL0     H48561   8.188   9.434   2.133 -0.2418 -0.3311  1.6101
  368MOL0     H48562   8.444   9.449   3.767  1.8769 -1.3757  2.5271
  368MOL0     H48563   8.655   9.499   3.858  0.6933  0.2899 -0.0531
  368MOL0     H48564   8.982   9.704   4.034  0.1145  1.2359  0.1457
  368MOL0     H48565   9.201   9.779   4.144 -2.4771 -0.7115  0.4874
  368MOL0     H48566   9.402  10.132   3.988 -1.8679 -0.9555 -0.6022
  368MOL0     H48567   9.501  10.084   4.132 -1.0438  1.8525  2.5502
  368MOL0     H48568   9.424  10.291   4.174 -1.1910  1.5260  3.5850
  368MOL0     H48569   9.264  10.263   4.118 -0.0283 -1.7709 -0.6620
  368MOL0     H48570   9.312  10.062   4.341  2.9177  0.4683  0.6947
  368MOL0     H48571   9.198  10.188   4.327  0.1782  0.5203 -0.2983
  368MOL0     H48572   9.350  10.352   4.437 -1.3375 -0.7440  1.8762
  368MOL0     H48573   9.345  10.192   4.518 -1.5907 -1.2742 -1.8602
  368MOL0     H48574   9.743  10.197   4.438  0.3321 -0.9283 -1.9331
  368MOL0     H48575   9.217  10.122   3.896 -0.6459  0.3827 -0.2536
  368MOL0     H48576   8.999  10.056   3.782 -0.3707  0.9375  2.1099
  369MOL0     O48577   2.895   2.955   3.926 -0.4035  0.7866 -0.2230
  369MOL0     C48578   2.914   3.027   4.021  0.4022 -0.4412  0.0353
  369MOL0     O48579   3.035   3.092   4.056 -0.5014  0.4459  0.3718
  369MOL0     C48580   3.147   3.011   4.072  0.1000 -0.9310  0.5525
  369MOL0     C48581   3.236   3.044   4.173  0.5971  0.1403 -0.0850
  369MOL0     C48582   3.353   2.971   4.187  0.3911 -0.3776  0.9543
  369MOL0     C48583   3.388   2.859   4.103 -0.4956 -1.5312 -0.3741
  369MOL0     O48584   3.501   2.782   4.104  0.0163 -0.5711 -0.2772
  369MOL0     C48585   3.599   2.795   4.205 -0.0149  0.9119  0.6159
  369MOL0     C48586   3.721   2.706   4.164  1.3164 -0.1273  0.5614
  369MOL0     C48587   3.836   2.732   4.252 -0.1010 -0.1302  0.3877
  369MOL0     C48588   3.964   2.637   4.219  0.1715  0.0956 -0.0898
  369MOL0     C48589   4.087   2.695   4.294  0.7053  0.1670 -0.5713
  369MOL0     C48590   4.202   2.594   4.274  0.9994  0.1629 -0.4768
  369MOL0     C48591   4.325   2.659   4.346  0.1934 -0.2024 -0.5658
  369MOL0     C48592   4.433   2.562   4.385 -0.6868  0.3526  0.3612
  369MOL0     N48593   4.535   2.618   4.478  0.7918  0.7286 -0.0727
  369MOL0     C48594   4.665   2.584   4.495  0.1645  0.6781  0.1390
  369MOL0     C48595   4.705   2.651   4.604 -0.7093 -1.1420  0.2837
  369MOL0     C48596   4.836   2.623   4.679 -1.3712  0.5472  0.5640
  369MOL0     C48597   4.957   2.594   4.583  0.0006  0.2949  0.4979
  369MOL0     C48598   4.983   2.704   4.474  0.9979 -0.8567 -0.6322
  369MOL0     C48599   5.018   2.848   4.518  0.3606  0.8111  0.8069
  369MOL0     O48600   5.134   2.845   4.603 -0.0396  0.6724  0.8543
  369MOL0     C48601   5.146   2.951   4.680 -0.8771 -1.0313 -0.9338
  369MOL0     C48602   5.139   3.081   4.625 -0.3685  0.2696  0.5294
  369MOL0     C48603   5.176   3.192   4.705 -0.2182 -0.7907  0.6004
  369MOL0     C48604   5.227   3.177   4.834  0.1335  0.5005  0.6322
  369MOL0     C48605   5.255   3.305   4.915  0.5731  0.4996  0.2576
  369MOL0     O48606   5.333   3.291   5.022  0.3010 -0.7108 -0.1909
  369MOL0     C48607   5.354   3.401   5.094 -0.3489 -0.3766 -0.4061
  369MOL0     C48608   5.272   3.433   5.205  0.0553  0.7532 -0.4234
  369MOL0     C48609   5.316   3.522   5.303  0.2374 -0.0610  0.3916
  369MOL0     C48610   5.431   3.603   5.282 -1.0756 -0.6744 -0.5195
  369MOL0     O48611   5.455   3.701   5.365 -0.2617 -0.9220 -0.5220
  369MOL0     C48612   5.599   3.750   5.349  0.6970 -0.2902 -0.3654
  369MOL0     C48613   5.613   3.853   5.460 -0.5028  0.2178 -0.3933
  369MOL0     C48614   5.748   3.928   5.486 -0.1724 -0.0522 -0.5405
  369MOL0     C48615   5.746   3.998   5.620  0.1598 -0.0178 -0.3477
  369MOL0     C48616   5.891   4.040   5.657 -0.0087  0.4671 -0.4572
  369MOL0     C48617   5.898   4.089   5.797 -0.7583  0.3225  0.2503
  369MOL0     C48618   6.041   4.092   5.839 -0.4533  0.5090  0.5857
  369MOL0     C48619   6.058   4.170   5.973  0.7680  0.1397  1.0782
  369MOL0    Cl48620   5.982   4.097   6.118  0.3705  0.2511  0.1578
  369MOL0     C48621   5.502   3.581   5.164 -0.6456  0.0823 -0.2802
  369MOL0     C48622   5.471   3.483   5.074 -0.5970 -0.1113 -1.0091
  369MOL0     O48623   5.208   3.406   4.874 -0.7058  0.0160 -0.0585
  369MOL0     C48624   5.250   3.044   4.884 -1.2706 -0.4459  1.3347
  369MOL0     C48625   5.213   2.936   4.799  0.0819  0.0050 -1.3025
  369MOL0     N48626   4.599   2.725   4.651  0.7617 -0.0698 -1.0321
  369MOL0     N48627   4.495   2.703   4.578 -0.4542  0.8051 -0.1423
  369MOL0     C48628   3.306   2.835   3.998  0.6571 -0.9356 -0.1946
  369MOL0     C48629   3.177   2.898   3.994  0.3684 -0.2077  1.0455
  369MOL0     C48630   2.796   3.052   4.113 -1.4525 -0.2034 -0.3961
  369MOL0     C48631   2.803   3.147   4.208  0.9216 -0.6615 -0.2535
  369MOL0     C48632   2.682   3.187   4.275 -1.5046 -0.6925 -0.6248
  369MOL0     C48633   2.574   3.109   4.276 -0.2049  1.0327  0.2554
  369MOL0     O48634   2.474   3.143   4.363  1.1994 -0.2965  0.1164
  369MOL0     C48635   2.373   3.047   4.400  0.2992  0.0972  0.0697
  369MOL0     C48636   2.307   3.095   4.530 -0.0642  0.6798  0.8003
  369MOL0     C48637   2.236   2.975   4.592  0.1606 -0.0963 -0.1929
  369MOL0     C48638   2.201   2.997   4.741  1.2313 -0.4633  0.0387
  369MOL0     C48639   2.133   3.125   4.763  0.2387 -1.0055 -0.6859
  369MOL0     C48640   2.079   3.235   4.787  0.2542 -0.4581  1.0478
  369MOL0     C48641   2.577   2.996   4.186  0.6180  0.1201 -0.4472
  369MOL0     C48642   2.681   2.972   4.103  0.8192 -0.2337  0.4722
  369MOL0     H48643   3.210   3.121   4.244 -3.8956  1.3259 -2.6683
  369MOL0     H48644   3.396   2.987   4.286 -3.1670  1.7204  2.3466
  369MOL0     H48645   3.549   2.772   4.299  0.3015  2.4788  1.2011
  369MOL0     H48646   3.627   2.900   4.216 -0.9701  1.1612  0.7608
  369MOL0     H48647   3.744   2.747   4.064 -0.8535  2.0564  0.8481
  369MOL0     H48648   3.703   2.599   4.174  1.0383 -0.0918  0.4452
  369MOL0     H48649   3.807   2.721   4.357 -1.5071 -0.9099 -0.0549
  369MOL0     H48650   3.875   2.833   4.238  0.5479 -0.0757  2.3816
  369MOL0     H48651   3.940   2.537   4.256 -1.0961  0.7556  0.9457
  369MOL0     H48652   3.996   2.641   4.115 -0.4600  5.1007 -0.3086
  369MOL0     H48653   4.051   2.708   4.396  2.5856 -0.0357  0.1523
  369MOL0     H48654   4.107   2.793   4.250 -2.4458  0.4357 -1.6537
  369MOL0     H48655   4.232   2.586   4.169  2.7645  1.1526 -0.0868
  369MOL0     H48656   4.183   2.490   4.304 -2.8841  1.1838  1.2682
  369MOL0     H48657   4.351   2.748   4.287 -2.6221  0.4061 -1.0282
  369MOL0     H48658   4.290   2.704   4.440  0.3641 -0.1177 -0.5408
  369MOL0     H48659   4.490   2.532   4.297 -2.6175  0.6292 -1.0600
  369MOL0     H48660   4.392   2.471   4.431  0.4969 -0.5770 -0.3667
  369MOL0     H48661   4.710   2.489   4.467 -0.8223  0.3654 -0.4183
  369MOL0     H48662   4.812   2.535   4.740  0.7411 -0.8342 -0.4946
  369MOL0     H48663   4.859   2.715   4.733 -0.7062 -1.3455  3.7751
  369MOL0     H48664   4.943   2.494   4.542 -2.2329 -0.7077  3.3093
  369MOL0     H48665   5.050   2.598   4.641  1.0490  3.7564 -1.1519
  369MOL0     H48666   5.066   2.672   4.410  1.1893 -0.4869 -0.5729
  369MOL0     H48667   4.891   2.708   4.415 -0.5146 -1.2414  1.5586
  369MOL0     H48668   4.930   2.876   4.577 -0.8055 -2.7766  1.0519
  369MOL0     H48669   5.027   2.909   4.428  1.9109  0.0003  0.3855
  369MOL0     H48670   5.107   3.099   4.523  2.6326 -0.0787 -0.5743
  369MOL0     H48671   5.160   3.288   4.657  1.4513 -1.3862 -1.2580
  369MOL0     H48672   5.186   3.366   5.209  1.2378 -0.8537 -0.6832
  369MOL0     H48673   5.257   3.546   5.392 -1.3560 -0.6444 -0.4547
  369MOL0     H48674   5.611   3.816   5.263  3.7233 -2.2771 -1.6259
  369MOL0     H48675   5.676   3.674   5.363 -1.6142 -2.1525  4.8133
  369MOL0     H48676   5.595   3.799   5.553 -0.1454 -0.7498 -0.8727
  369MOL0     H48677   5.534   3.922   5.428  0.0102  0.4645 -1.1529
  369MOL0     H48678   5.752   3.993   5.399 -2.9944  1.3486  0.2752
  369MOL0     H48679   5.829   3.854   5.486 -2.1221 -2.6079  3.7358
  369MOL0     H48680   5.671   4.078   5.620  0.5473  0.3469 -0.6133
  369MOL0     H48681   5.701   3.940   5.701 -3.1900  2.8434  0.1124
  369MOL0     H48682   5.921   4.126   5.595 -2.2629  0.5139 -1.5635
  369MOL0     H48683   5.959   3.955   5.650  0.1384  0.6908 -2.1278
  369MOL0     H48684   5.843   4.020   5.862  0.1435  0.0814  0.7701
  369MOL0     H48685   5.864   4.193   5.805 -0.0319  0.6640 -0.8925
  369MOL0     H48686   6.088   3.994   5.850  0.5010  0.6843 -1.4831
  369MOL0     H48687   6.103   4.149   5.769  0.8947  0.4321  1.6780
  369MOL0     H48688   6.011   4.268   5.956 -0.6514 -1.0099 -2.5109
  369MOL0     H48689   6.163   4.194   5.992  0.8161  0.8271 -0.0215
  369MOL0     H48690   5.587   3.642   5.135 -1.0075 -0.3055 -2.3308
  369MOL0     H48691   5.537   3.462   4.991 -0.3246  0.0303 -0.8306
  369MOL0     H48692   5.297   3.042   4.982  2.5403 -4.0985 -0.2803
  369MOL0     H48693   5.222   2.836   4.840  1.1200  0.9414  0.9582
  369MOL0     H48694   3.331   2.754   3.932  0.3898  1.4061 -3.3961
  369MOL0     H48695   3.105   2.857   3.925 -0.1172  1.0404  0.7827
  369MOL0     H48696   2.884   3.218   4.223 -0.2625  0.9920 -1.2964
  369MOL0     H48697   2.688   3.282   4.327 -2.4611 -0.1010 -1.5401
  369MOL0     H48698   2.420   2.951   4.423  3.6612  1.9116  1.4959
  369MOL0     H48699   2.287   3.039   4.333 -1.1986  1.1485  1.7628
  369MOL0     H48700   2.387   3.117   4.601  0.2770 -1.1840  1.0400
  369MOL0     H48701   2.238   3.178   4.517  0.2540  0.5308 -2.7836
  369MOL0     H48702   2.290   2.880   4.582 -3.1415 -2.0762 -0.5180
  369MOL0     H48703   2.145   2.958   4.534 -2.6030  0.3592  3.6774
  369MOL0     H48704   2.133   2.913   4.755  4.3736 -3.3737 -0.6022
  369MOL0     H48705   2.284   2.984   4.811  1.4562 -1.2032 -0.3594
  369MOL0     H48706   2.028   3.324   4.817 -0.6865 -1.1020  1.3970
  369MOL0     H48707   2.498   2.923   4.177  2.5607 -1.9451 -1.6957
  369MOL0     H48708   2.660   2.891   4.034 -3.3314  0.5641  0.5205
  370MOL0     O48709   3.255   0.196   1.794 -0.9798  0.3954 -0.7307
  370MOL0     C48710   3.365   0.204   1.852 -0.4686 -0.2591  0.3590
  370MOL0     O48711   3.389   0.144   1.973 -0.4619 -0.4270  0.1811
  370MOL0     C48712   3.302   0.061   2.032 -0.1182 -0.0910  0.4952
  370MOL0     C48713   3.177   0.111   2.082 -0.4409 -0.4088  0.0738
  370MOL0     C48714   3.086   0.009   2.131 -0.2361  0.5596  0.0134
  370MOL0     C48715   3.134  -0.126   2.158 -0.6226 -0.1666  0.6076
  370MOL0     O48716   3.048  -0.211   2.216  0.0950  0.2105 -0.1659
  370MOL0     C48717   3.031  -0.339   2.161 -0.1510 -0.3410 -0.2554
  370MOL0     C48718   2.880  -0.371   2.195 -0.5056 -0.6268  0.1985
  370MOL0     C48719   2.782  -0.268   2.121  0.2072 -0.3739 -0.5087
  370MOL0     C48720   2.641  -0.282   2.186  0.0490 -0.2499  0.7392
  370MOL0     C48721   2.564  -0.150   2.152 -0.2428 -0.7122 -0.3673
  370MOL0     C48722   2.558  -0.123   2.000 -1.4370  0.0420  0.4363
  370MOL0     C48723   2.453  -0.017   1.970 -0.3846  0.5596  0.6311
  370MOL0     C48724   2.381  -0.038   1.834  0.3603 -0.0458 -0.4392
  370MOL0     N48725   2.295   0.073   1.797 -0.9470  0.1244 -0.2490
  370MOL0     C48726   2.331   0.189   1.725 -0.7430 -0.0897 -0.0534
  370MOL0     C48727   2.220   0.249   1.681 -0.5426 -0.6707  0.5968
  370MOL0     C48728   2.208   0.372   1.589 -0.3225 -0.4053  0.0388
  370MOL0     C48729   2.124   0.491   1.638  0.4381  0.0462  0.1302
  370MOL0     C48730   2.176   0.537   1.772  1.2185 -0.0121  1.0736
  370MOL0     C48731   2.293   0.634   1.754 -0.2142  0.5279  0.7652
  370MOL0     O48732   2.245   0.757   1.707 -0.3330 -0.0279  0.0722
  370MOL0     C48733   2.323   0.847   1.629 -1.1196  0.5209 -0.1934
  370MOL0     C48734   2.458   0.846   1.636  0.7012  0.0021  0.0766
  370MOL0     C48735   2.529   0.944   1.564  0.0857 -0.2509  0.7515
  370MOL0     C48736   2.457   1.030   1.472 -0.8016  0.0796  0.7643
  370MOL0     C48737   2.522   1.116   1.377  0.5650 -0.1945  0.5102
  370MOL0     O48738   2.652   1.105   1.365  0.3922  0.2304 -0.1810
  370MOL0     C48739   2.706   1.157   1.248  0.7864  0.0126 -0.1603
  370MOL0     C48740   2.700   1.082   1.131  0.2332  0.8566  1.0201
  370MOL0     C48741   2.760   1.144   1.014  0.0200 -0.4399  0.5230
  370MOL0     C48742   2.824   1.271   1.019 -0.6990  0.1293  1.8643
  370MOL0     O48743   2.886   1.329   0.910  0.0001  0.6820  0.1594
  370MOL0     C48744   2.793   1.350   0.799  0.5578  0.6732  0.1638
  370MOL0     C48745   2.855   1.295   0.670 -0.1228 -0.5342 -0.5937
  370MOL0     C48746   2.841   1.140   0.652  0.1284 -0.9098 -0.3484
  370MOL0     C48747   2.906   1.080   0.534 -0.5189  0.4232  0.3126
  370MOL0     C48748   2.887   0.928   0.519 -0.1066  0.9884  0.1843
  370MOL0     C48749   2.745   0.855   0.546 -0.2614 -0.9344  0.2205
  370MOL0     C48750   2.749   0.701   0.506  0.6381 -0.9294 -0.5484
  370MOL0     C48751   2.650   0.669   0.397 -0.2262  0.5580 -0.5372
  370MOL0    Cl48752   2.608   0.493   0.408 -0.2546 -0.0448  0.1841
  370MOL0     C48753   2.823   1.338   1.141 -0.3341 -0.1915 -0.6420
  370MOL0     C48754   2.765   1.281   1.255  0.1710 -0.1488 -0.6262
  370MOL0     O48755   2.456   1.203   1.322 -0.0553 -0.7653  0.0481
  370MOL0     C48756   2.316   1.022   1.463 -0.7802 -0.2117  0.4095
  370MOL0     C48757   2.254   0.934   1.543 -0.9979  0.4298 -0.3201
  370MOL0     N48758   2.120   0.159   1.698 -0.6231  0.1342 -0.8998
  370MOL0     N48759   2.156   0.061   1.777 -0.3425 -0.1848 -0.3677
  370MOL0     C48760   3.266  -0.167   2.129  0.5222 -0.3620 -0.0426
  370MOL0     C48761   3.339  -0.080   2.046 -0.4119 -0.0206  0.8982
  370MOL0     C48762   3.476   0.287   1.800  0.0525  0.3058  0.5547
  370MOL0     C48763   3.455   0.353   1.680 -0.0453 -0.3332 -0.1597
  370MOL0     C48764   3.558   0.427   1.623 -0.4116 -0.4240  0.0052
  370MOL0     C48765   3.672   0.449   1.700  0.2408 -0.8225 -0.6505
  370MOL0     O48766   3.766   0.544   1.651  0.4277 -0.3132 -0.3486
  370MOL0     C48767   3.823   0.633   1.745  0.0207 -0.4708 -0.4164
  370MOL0     C48768   3.722   0.728   1.789  0.2951 -0.4133 -1.0903
  370MOL0     C48769   3.776   0.842   1.881  0.6773  0.5517  0.1437
  370MOL0     C48770   3.693   0.969   1.874  1.0831 -0.4250  0.3005
  370MOL0     C48771   3.551   0.934   1.923  0.7718 -0.8504  1.5832
  370MOL0     C48772   3.444   0.914   1.980  0.4336 -0.3447  0.6099
  370MOL0     C48773   3.692   0.389   1.827  0.3305 -0.2663  0.7335
  370MOL0     C48774   3.597   0.306   1.873  1.3228  0.3054  0.2206
  370MOL0     H48775   3.135   0.211   2.072  0.8585  0.0007 -1.6622
  370MOL0     H48776   2.985   0.034   2.161  0.2592 -1.2532  3.7935
  370MOL0     H48777   3.089  -0.410   2.221 -1.2141 -1.6705 -0.7758
  370MOL0     H48778   3.024  -0.345   2.052  0.2727  1.3694 -0.4095
  370MOL0     H48779   2.870  -0.356   2.303 -1.6355  1.5877 -0.1531
  370MOL0     H48780   2.862  -0.475   2.168 -0.3255 -0.6911  0.3332
  370MOL0     H48781   2.769  -0.301   2.017 -0.1191 -1.2041 -0.2173
  370MOL0     H48782   2.807  -0.162   2.124  0.3166 -0.3167 -2.2227
  370MOL0     H48783   2.597  -0.373   2.144  3.6925 -2.9182  2.0975
  370MOL0     H48784   2.653  -0.288   2.295 -1.1905 -1.1779  0.8497
  370MOL0     H48785   2.598  -0.055   2.195 -2.3917  0.4967 -1.1387
  370MOL0     H48786   2.461  -0.160   2.187 -0.7416  3.8435  0.0478
  370MOL0     H48787   2.540  -0.214   1.943  1.0593 -0.3680  0.1807
  370MOL0     H48788   2.657  -0.081   1.978 -0.7565  1.5112  5.1942
  370MOL0     H48789   2.388  -0.013   2.058  0.7813  0.3330  1.5327
  370MOL0     H48790   2.508   0.077   1.963  0.3948  0.2673  2.3690
  370MOL0     H48791   2.312  -0.123   1.838 -0.7921  0.7636 -2.1122
  370MOL0     H48792   2.452  -0.067   1.755 -0.8262 -0.4452 -1.4003
  370MOL0     H48793   2.432   0.217   1.697 -1.5030  1.3181 -1.5807
  370MOL0     H48794   2.173   0.338   1.492  0.8323 -2.5242  0.2989
  370MOL0     H48795   2.309   0.404   1.561 -0.2877 -2.9381 -3.2686
  370MOL0     H48796   2.023   0.452   1.654  0.5731  0.0292  1.0209
  370MOL0     H48797   2.125   0.571   1.564  0.8439 -0.4743 -0.4442
  370MOL0     H48798   2.095   0.598   1.814 -0.4736  1.3713 -3.6004
  370MOL0     H48799   2.204   0.453   1.836  1.1910  0.6027  1.9116
  370MOL0     H48800   2.367   0.589   1.686  1.1236  0.0601  2.4378
  370MOL0     H48801   2.336   0.639   1.855  1.1153 -3.6707  0.6196
  370MOL0     H48802   2.502   0.772   1.702 -2.8565 -1.6909  0.7556
  370MOL0     H48803   2.636   0.964   1.564  0.1336 -0.1690 -1.4629
  370MOL0     H48804   2.640   0.992   1.128 -1.2435  1.8354 -0.8486
  370MOL0     H48805   2.753   1.091   0.920 -2.8779  2.1115 -0.8928
  370MOL0     H48806   2.786   1.459   0.795  0.7028  0.6781  0.0201
  370MOL0     H48807   2.698   1.301   0.821  1.4291 -0.8410  0.6472
  370MOL0     H48808   2.959   1.330   0.672 -0.6403  1.2322 -2.2348
  370MOL0     H48809   2.806   1.345   0.586  2.1270  1.8190 -0.6314
  370MOL0     H48810   2.736   1.109   0.659  0.8731 -3.5212  0.5878
  370MOL0     H48811   2.883   1.091   0.741  1.2184 -0.4113 -0.5851
  370MOL0     H48812   2.869   1.125   0.441  2.2967  2.5120  0.0717
  370MOL0     H48813   3.013   1.099   0.527 -0.1649 -1.0993  1.2212
  370MOL0     H48814   2.955   0.875   0.586 -1.8795  1.1212  2.1739
  370MOL0     H48815   2.930   0.905   0.421  1.4524 -0.3023  1.1245
  370MOL0     H48816   2.664   0.907   0.494  1.2154 -0.1812 -1.4263
  370MOL0     H48817   2.723   0.872   0.652  0.4478  1.7752  0.0203
  370MOL0     H48818   2.849   0.673   0.471  0.0908 -2.4129 -1.0236
  370MOL0     H48819   2.720   0.654   0.600 -0.1316  1.3925  0.4509
  370MOL0     H48820   2.705   0.682   0.303  0.8725 -0.1808 -0.0143
  370MOL0     H48821   2.558   0.722   0.423 -2.8872 -3.6220 -0.4558
  370MOL0     H48822   2.870   1.435   1.139  0.6064 -0.6358 -0.5185
  370MOL0     H48823   2.759   1.353   1.336 -0.3849  1.9002 -2.3854
  370MOL0     H48824   2.251   1.059   1.385 -0.2674  1.1034  0.5803
  370MOL0     H48825   2.147   0.923   1.550 -1.0486  1.3888  1.1103
  370MOL0     H48826   3.288  -0.269   2.158  1.0808  0.2194  1.7232
  370MOL0     H48827   3.440  -0.102   2.015  0.8401  3.7577  1.7400
  370MOL0     H48828   3.362   0.335   1.628 -0.1306 -2.9732  0.7345
  370MOL0     H48829   3.572   0.473   1.526 -3.3433  0.5668 -0.0612
  370MOL0     H48830   3.917   0.684   1.722 -0.8838  2.5038  1.8321
  370MOL0     H48831   3.848   0.589   1.842  2.3246 -0.8145 -1.1011
  370MOL0     H48832   3.692   0.783   1.699  3.0649  0.8513 -1.3662
  370MOL0     H48833   3.640   0.679   1.842 -0.8981  2.4283 -0.1362
  370MOL0     H48834   3.881   0.872   1.872  0.3080  1.1055 -3.5400
  370MOL0     H48835   3.765   0.796   1.980 -0.0576 -1.0278 -0.6343
  370MOL0     H48836   3.743   1.050   1.927 -0.7353  1.4651 -0.6943
  370MOL0     H48837   3.687   1.004   1.770  0.0122  2.3449  1.2094
  370MOL0     H48838   3.356   0.889   2.036 -0.0663  0.3578  0.1629
  370MOL0     H48839   3.783   0.405   1.884  1.2164 -1.4035 -0.3139
  370MOL0     H48840   3.609   0.255   1.968  0.6216  1.0663  0.7312
  371MOL0     O48841   2.655   9.717   9.686 -0.5608 -0.1273  0.5592
  371MOL0     C48842   2.593   9.611   9.685 -0.6610  0.0754  0.3421
  371MOL0     O48843   2.461   9.586   9.706 -0.6881  0.1705 -0.0057
  371MOL0     C48844   2.389   9.700   9.710 -0.3040 -0.8967  0.1083
  371MOL0     C48845   2.389   9.781   9.820 -0.0208 -1.0063 -0.0860
  371MOL0     C48846   2.304   9.897   9.842 -0.0251 -0.8498  0.9385
  371MOL0     C48847   2.223   9.931   9.735 -0.4729 -0.6778  0.1882
  371MOL0     O48848   2.141  10.037   9.726  0.6307  0.2593 -0.2344
  371MOL0     C48849   2.192  10.167   9.768  0.3059  0.7528 -0.0495
  371MOL0     C48850   2.325  10.194   9.690 -0.3110  0.5031  0.1078
  371MOL0     C48851   2.363  10.338   9.723 -0.5619  0.4969 -0.5657
  371MOL0     C48852   2.444  10.336   9.852  0.3726  0.0142 -0.0332
  371MOL0     C48853   2.454  10.476   9.918  0.0707  1.1276  0.9519
  371MOL0     C48854   2.541  10.477  10.044  0.1292 -0.2099  0.1025
  371MOL0     C48855   2.688  10.496  10.003 -0.4089  0.0608  0.2671
  371MOL0     C48856   2.767  10.490  10.129 -0.8057  0.4701  0.0830
  371MOL0     N48857   2.908  10.504  10.110  0.2841  0.5228  0.0916
  371MOL0     C48858   3.004  10.411  10.133 -0.0940  0.4156  0.2116
  371MOL0     C48859   3.114  10.486  10.114  0.3014  0.3945  0.8541
  371MOL0     C48860   3.255  10.425  10.121  1.1839  0.6244 -0.3687
  371MOL0     C48861   3.284  10.428  10.262 -0.8321  0.5603 -0.3017
  371MOL0     C48862   3.437  10.428  10.295 -1.0664  0.7391  0.1144
  371MOL0     C48863   3.509  10.298  10.258 -0.3666 -0.2471  0.3856
  371MOL0     O48864   3.646  10.293  10.287  0.2475 -0.6486  0.0846
  371MOL0     C48865   3.719  10.227  10.199 -0.3774 -0.0855 -0.5452
  371MOL0     C48866   3.726  10.090  10.199 -0.4517  0.3022  0.0379
  371MOL0     C48867   3.818  10.028  10.110  0.6687  0.4610 -0.2255
  371MOL0     C48868   3.896  10.092  10.014  0.5931  0.1101 -0.7018
  371MOL0     C48869   3.984  10.018   9.917  0.7170  0.9421  1.0020
  371MOL0     O48870   3.990   9.881   9.935 -0.1275  0.1086  0.5315
  371MOL0     C48871   4.052   9.809   9.830  1.0365  0.2708  0.2329
  371MOL0     C48872   4.175   9.742   9.866  0.5738 -0.3161 -0.3742
  371MOL0     C48873   4.231   9.650   9.770 -0.1970  0.3120 -0.2168
  371MOL0     C48874   4.186   9.636   9.638  1.1813  0.0109 -0.3685
  371MOL0     O48875   4.231   9.535   9.548  0.1296  0.0665  0.1863
  371MOL0     C48876   4.307   9.426   9.608 -1.0453  0.0513  0.1390
  371MOL0     C48877   4.462   9.426   9.625  0.3384  0.5884 -0.3355
  371MOL0     C48878   4.528   9.331   9.521  0.0222 -0.4613 -0.2988
  371MOL0     C48879   4.683   9.328   9.546 -0.2403  0.4983  0.0793
  371MOL0     C48880   4.747   9.214   9.466  0.6021  0.2312  0.0191
  371MOL0     C48881   4.894   9.213   9.460  0.2118 -0.2170  0.2178
  371MOL0     C48882   4.947   9.150   9.337  0.4653  0.2512 -0.4891
  371MOL0     C48883   5.100   9.168   9.341 -0.3735 -0.1487  0.3051
  371MOL0    Cl48884   5.177   9.050   9.226 -0.0579 -0.2583  0.4123
  371MOL0     C48885   4.066   9.712   9.599  0.7539  0.4420 -0.0372
  371MOL0     C48886   4.005   9.797   9.695  0.3857 -0.5007 -0.4294
  371MOL0     O48887   4.044  10.079   9.833 -0.0956 -0.5262  0.1181
  371MOL0     C48888   3.880  10.232  10.020  1.0854 -0.5698 -0.2552
  371MOL0     C48889   3.792  10.297  10.107  0.0245 -0.3315 -0.0981
  371MOL0     N48890   3.088  10.624  10.097  0.1943 -0.7617  0.7393
  371MOL0     N48891   2.955  10.631  10.085 -0.2644 -0.2028  0.3998
  371MOL0     C48892   2.212   9.842   9.623  0.4589 -0.2086 -0.4478
  371MOL0     C48893   2.293   9.730   9.619  0.2647 -0.1524  0.4969
  371MOL0     C48894   2.681   9.494   9.649  0.4625  0.1784 -0.4152
  371MOL0     C48895   2.823   9.495   9.659  0.2910 -0.4122  0.8418
  371MOL0     C48896   2.901   9.388   9.643  0.4849 -0.8460  0.1882
  371MOL0     C48897   2.840   9.263   9.641  0.3642  0.2883 -0.2107
  371MOL0     O48898   2.920   9.157   9.660  0.1786 -0.4134 -0.0253
  371MOL0     C48899   3.009   9.122   9.553  0.0142  0.3577  0.2757
  371MOL0     C48900   3.127   9.071   9.625 -0.1171  1.3920  0.3179
  371MOL0     C48901   3.250   9.148   9.572 -0.0424 -0.9191  0.8685
  371MOL0     C48902   3.370   9.096   9.650 -0.0734  0.1434  0.5733
  371MOL0     C48903   3.496   9.099   9.568 -0.8221  0.1887  0.6384
  371MOL0     C48904   3.618   9.072   9.538  0.8562 -0.0886  0.6570
  371MOL0     C48905   2.698   9.255   9.637  0.0753  0.3289  0.0512
  371MOL0     C48906   2.621   9.364   9.640 -0.2601  0.1068  0.6961
  371MOL0     H48907   2.461   9.754   9.896 -0.5126 -1.7825  0.1156
  371MOL0     H48908   2.302   9.964   9.927 -3.7469 -2.7564  2.5571
  371MOL0     H48909   2.221  10.162   9.873  0.8887  0.5418 -0.2172
  371MOL0     H48910   2.121  10.248   9.752  1.5014  2.6811  3.3609
  371MOL0     H48911   2.300  10.187   9.584  1.8545  0.7273 -0.4659
  371MOL0     H48912   2.400  10.122   9.724  0.2879  0.9157 -0.3306
  371MOL0     H48913   2.280  10.406   9.745 -1.7285 -0.5453 -1.5683
  371MOL0     H48914   2.425  10.389   9.649 -1.1009 -0.0870 -1.4413
  371MOL0     H48915   2.405  10.267   9.928  1.2116 -2.4126 -1.6961
  371MOL0     H48916   2.543  10.294   9.835  0.1693  0.2778 -2.2271
  371MOL0     H48917   2.351  10.500   9.945 -1.1222 -2.7853  0.4938
  371MOL0     H48918   2.500  10.545   9.847  1.5130  1.6117  2.2712
  371MOL0     H48919   2.516  10.389  10.103  2.0114  0.1384  1.5184
  371MOL0     H48920   2.513  10.571  10.092  0.3097 -0.7964  1.4063
  371MOL0     H48921   2.711  10.426   9.922 -1.0837 -0.1809  0.2732
  371MOL0     H48922   2.688  10.591   9.950 -3.4828  0.9637  1.6428
  371MOL0     H48923   2.758  10.397  10.186  0.5917  1.0511  1.3220
  371MOL0     H48924   2.739  10.575  10.193  1.4387  1.1836  0.1974
  371MOL0     H48925   3.006  10.304  10.154  2.1188 -0.4448 -3.5014
  371MOL0     H48926   3.329  10.483  10.065  0.5279 -0.6334 -2.6830
  371MOL0     H48927   3.252  10.321  10.085  0.1220  1.3552 -2.5560
  371MOL0     H48928   3.236  10.343  10.311  0.4653 -1.0353 -1.6734
  371MOL0     H48929   3.253  10.523  10.308  4.4370  1.6280  1.7718
  371MOL0     H48930   3.499  10.503  10.244  1.3177 -2.0760 -1.4154
  371MOL0     H48931   3.448  10.454  10.401 -0.0389 -0.3151  0.2766
  371MOL0     H48932   3.495  10.291  10.150  0.6364 -1.1875  0.2872
  371MOL0     H48933   3.455  10.214  10.304 -0.3760 -0.1617  0.5333
  371MOL0     H48934   3.670  10.034  10.273  1.0882  1.3548  2.1099
  371MOL0     H48935   3.816   9.920  10.126  0.8441  0.4185 -0.4879
  371MOL0     H48936   4.218   9.763   9.963 -0.0033 -0.2345 -0.1299
  371MOL0     H48937   4.324   9.605   9.803 -0.4867 -1.0638 -1.1605
  371MOL0     H48938   4.283   9.346   9.539 -3.1183  0.1981  0.6099
  371MOL0     H48939   4.263   9.402   9.705  1.0308 -0.1543  1.0798
  371MOL0     H48940   4.486   9.374   9.718 -3.6406 -1.5830 -0.3150
  371MOL0     H48941   4.503   9.527   9.633 -1.7179  1.4140  0.5503
  371MOL0     H48942   4.514   9.369   9.419  0.3462  2.8371  0.7879
  371MOL0     H48943   4.486   9.230   9.532  0.4629 -0.3325  4.1399
  371MOL0     H48944   4.732   9.419   9.508 -1.1496  1.4530  1.1173
  371MOL0     H48945   4.711   9.324   9.651 -0.7366 -1.6688  0.1695
  371MOL0     H48946   4.701   9.213   9.367 -1.2339 -1.7874  0.8173
  371MOL0     H48947   4.717   9.116   9.503 -1.8153  2.1410  3.7218
  371MOL0     H48948   4.947   9.164   9.542 -0.5644  0.9894  1.4871
  371MOL0     H48949   4.932   9.316   9.466  2.7812 -0.9617 -1.6889
  371MOL0     H48950   4.914   9.046   9.343 -0.4860  0.6263  2.5466
  371MOL0     H48951   4.903   9.194   9.246 -2.4139  0.5663  0.9496
  371MOL0     H48952   5.151   9.151   9.436  1.3355  0.9467 -0.3751
  371MOL0     H48953   5.123   9.271   9.312  1.7507  0.6316  4.0809
  371MOL0     H48954   4.025   9.694   9.500 -1.2085 -3.6330  1.2717
  371MOL0     H48955   3.913   9.842   9.660  2.1322  0.5318 -4.2854
  371MOL0     H48956   3.932  10.296   9.949  0.7784  0.3455  0.3253
  371MOL0     H48957   3.797  10.404  10.095  0.2779 -0.5222 -1.9131
  371MOL0     H48958   2.149   9.870   9.540  0.3800 -0.7517 -0.5792
  371MOL0     H48959   2.273   9.673   9.529 -2.4473  0.0804  0.8585
  371MOL0     H48960   2.872   9.589   9.682 -0.6509  0.6784 -1.3268
  371MOL0     H48961   3.006   9.408   9.665 -0.1478  1.2302  1.6807
  371MOL0     H48962   3.035   9.210   9.492  2.3168 -1.0161 -0.9050
  371MOL0     H48963   2.971   9.037   9.495  3.8763 -0.6697 -1.0919
  371MOL0     H48964   3.124   9.081   9.733  1.1067  0.9976  0.3971
  371MOL0     H48965   3.133   8.964   9.600 -1.2194  0.9243  1.8798
  371MOL0     H48966   3.222   9.253   9.581 -2.1053 -1.0966 -1.9433
  371MOL0     H48967   3.266   9.118   9.468  2.4595 -0.8506  1.1814
  371MOL0     H48968   3.370   9.163   9.736  1.6666  2.9033 -1.4011
  371MOL0     H48969   3.344   8.998   9.690 -1.2099  0.2188  0.0640
  371MOL0     H48970   3.714   9.038   9.504 -0.2308 -2.7670 -0.0119
  371MOL0     H48971   2.655   9.156   9.623 -0.2013  0.1155  2.0625
  371MOL0     H48972   2.515   9.344   9.646 -0.4230  1.1684  2.0128
  372MOL0     O48973   2.893   8.114   4.398 -0.7482  0.6134 -0.4003
  372MOL0     C48974   3.012   8.144   4.411  0.6449 -0.3582 -0.6665
  372MOL0     O48975   3.108   8.146   4.312 -0.1759 -0.3761 -0.0376
  372MOL0     C48976   3.075   8.127   4.186  0.9284  0.2113  0.1941
  372MOL0     C48977   3.107   8.008   4.127 -0.7726 -0.3370 -0.1095
  372MOL0     C48978   3.071   7.993   3.999 -0.1894  0.1988  0.4464
  372MOL0     C48979   2.998   8.081   3.921  0.0182 -0.2372  0.5495
  372MOL0     O48980   2.967   8.051   3.785 -0.2134  0.2003 -0.2886
  372MOL0     C48981   3.038   8.117   3.677 -0.0742 -0.9607 -0.5547
  372MOL0     C48982   3.179   8.040   3.654 -0.0479  0.4250 -1.3018
  372MOL0     C48983   3.245   8.087   3.530 -0.1237 -0.6055  0.3951
  372MOL0     C48984   3.281   8.235   3.517 -0.4626  0.8449 -0.3408
  372MOL0     C48985   3.428   8.277   3.551  0.0252 -0.0554 -0.4823
  372MOL0     C48986   3.460   8.279   3.703  0.3021  0.0624 -0.1713
  372MOL0     C48987   3.593   8.353   3.728 -0.0737  0.4823 -0.8496
  372MOL0     C48988   3.716   8.282   3.672 -0.6801  0.1861  0.4042
  372MOL0     N48989   3.755   8.150   3.733  0.0940  0.6778 -0.1829
  372MOL0     C48990   3.768   8.029   3.672  0.3068 -1.0183 -0.2558
  372MOL0     C48991   3.827   7.949   3.761 -0.1773 -0.2076  0.4104
  372MOL0     C48992   3.873   7.808   3.727 -0.3911 -0.2561  0.3822
  372MOL0     C48993   4.023   7.785   3.725  0.0503 -0.1517  0.1697
  372MOL0     C48994   4.040   7.634   3.761 -0.4904 -0.1438  0.3463
  372MOL0     C48995   4.187   7.600   3.794 -1.1901 -0.2300 -0.7088
  372MOL0     O48996   4.222   7.460   3.763 -0.1753 -0.3233 -1.1721
  372MOL0     C48997   4.167   7.364   3.838 -0.6780 -0.6960 -0.2259
  372MOL0     C48998   4.114   7.252   3.768 -0.7743 -0.2548 -0.6524
  372MOL0     C48999   4.034   7.158   3.836 -0.5963 -0.2318 -0.9418
  372MOL0     C49000   4.024   7.169   3.978 -1.0301  0.3909  0.3577
  372MOL0     C49001   3.951   7.063   4.047 -0.1690  0.5051 -0.0722
  372MOL0     O49002   3.945   7.060   4.186 -0.4392  0.1629 -0.2888
  372MOL0     C49003   3.875   6.953   4.244  0.0862  1.1282 -0.2711
  372MOL0     C49004   3.749   6.901   4.198 -0.6153 -0.1501  0.1707
  372MOL0     C49005   3.677   6.797   4.255  0.1448  0.8543 -0.7649
  372MOL0     C49006   3.726   6.740   4.369 -0.0962  0.1938 -0.1827
  372MOL0     O49007   3.679   6.627   4.425  0.3901  0.0160 -0.0381
  372MOL0     C49008   3.537   6.595   4.416 -0.1843  0.7756 -0.7026
  372MOL0     C49009   3.499   6.524   4.539  0.0011  0.1615 -0.6873
  372MOL0     C49010   3.350   6.481   4.525 -0.3707  0.5365 -0.3645
  372MOL0     C49011   3.290   6.418   4.655  0.6463 -0.2067  0.2364
  372MOL0     C49012   3.150   6.366   4.634 -0.3841  0.0946  0.2162
  372MOL0     C49013   3.093   6.325   4.772  0.8157  0.3250 -0.4015
  372MOL0     C49014   3.159   6.199   4.836 -0.4161  0.7564  0.0680
  372MOL0     C49015   3.047   6.130   4.925 -0.2265  0.8953  0.7647
  372MOL0    Cl49016   3.017   6.217   5.083 -0.1929  0.6804  0.3673
  372MOL0     C49017   3.845   6.792   4.429  0.1997  0.0233 -0.5956
  372MOL0     C49018   3.913   6.903   4.377  0.1117 -0.2831  1.0778
  372MOL0     O49019   3.886   6.980   3.981  0.0893  0.0294 -0.2186
  372MOL0     C49020   4.096   7.272   4.049  0.8643 -0.0403 -1.3832
  372MOL0     C49021   4.165   7.367   3.977  1.4801  1.2638 -0.2313
  372MOL0     N49022   3.849   8.024   3.876 -0.1199 -0.4343 -0.1431
  372MOL0     N49023   3.811   8.139   3.857 -0.5244  0.2716  0.5237
  372MOL0     C49024   2.964   8.197   3.984  0.0139 -0.1903  0.2206
  372MOL0     C49025   3.005   8.226   4.121 -0.8914 -0.4100  0.0254
  372MOL0     C49026   3.045   8.218   4.540  0.6712 -0.9371 -0.3854
  372MOL0     C49027   2.956   8.222   4.644 -0.3330 -1.3336 -0.5074
  372MOL0     C49028   2.966   8.314   4.748  0.7744  0.1567  0.7075
  372MOL0     C49029   3.074   8.399   4.764 -0.7025  0.5323 -0.5581
  372MOL0     O49030   3.071   8.484   4.870  0.1034 -0.1912  0.1738
  372MOL0     C49031   3.166   8.592   4.866 -0.0994  0.4530  0.0487
  372MOL0     C49032   3.291   8.562   4.958  0.1960 -0.2827  0.5914
  372MOL0     C49033   3.258   8.566   5.108  0.2235  0.3156 -0.2463
  372MOL0     C49034   3.207   8.692   5.171 -0.2673  0.3714 -0.1357
  372MOL0     C49035   3.302   8.805   5.134 -0.2121  0.0037  0.1686
  372MOL0     C49036   3.383   8.893   5.097  0.9960 -0.3821 -0.7915
  372MOL0     C49037   3.178   8.388   4.668 -0.0520 -0.1617 -0.6728
  372MOL0     C49038   3.157   8.302   4.558  0.4600 -0.0117 -0.5743
  372MOL0     H49039   3.166   7.923   4.162 -1.8460 -0.2985  1.9479
  372MOL0     H49040   3.104   7.898   3.958 -1.7734 -1.3782  2.6046
  372MOL0     H49041   3.044   8.224   3.698 -2.8219 -0.8264 -0.0013
  372MOL0     H49042   2.978   8.110   3.585  1.0052  0.7537 -1.4441
  372MOL0     H49043   3.175   7.931   3.648  2.2978  0.2375 -0.5584
  372MOL0     H49044   3.241   8.067   3.740 -1.3673  0.5596 -0.3735
  372MOL0     H49045   3.194   8.059   3.437  1.7153 -0.9968 -0.5486
  372MOL0     H49046   3.343   8.039   3.537 -0.0343 -0.2907  1.6452
  372MOL0     H49047   3.269   8.257   3.410 -5.5632 -1.9179 -0.6766
  372MOL0     H49048   3.214   8.298   3.577  0.4465 -0.5369  2.3026
  372MOL0     H49049   3.444   8.378   3.511 -1.5320 -0.4887 -2.3164
  372MOL0     H49050   3.493   8.203   3.505  0.1202 -0.4424  0.2529
  372MOL0     H49051   3.444   8.181   3.750 -2.2280 -0.5034 -2.0223
  372MOL0     H49052   3.387   8.341   3.756  1.8507  1.3809  0.5091
  372MOL0     H49053   3.584   8.446   3.671  0.2825 -0.2685 -2.1521
  372MOL0     H49054   3.630   8.369   3.830  1.4971  2.4219 -1.6466
  372MOL0     H49055   3.805   8.342   3.696  1.1470 -3.0474  2.4735
  372MOL0     H49056   3.720   8.275   3.563 -1.5644  0.1987  0.3646
  372MOL0     H49057   3.757   7.994   3.570 -1.0430  0.5167 -0.6781
  372MOL0     H49058   3.831   7.766   3.635 -0.5989  1.5328 -0.3777
  372MOL0     H49059   3.822   7.749   3.804 -3.6023  1.2805 -0.3796
  372MOL0     H49060   4.072   7.844   3.803  0.7218  3.3589 -2.6502
  372MOL0     H49061   4.067   7.816   3.630 -1.6298  1.0614 -0.2538
  372MOL0     H49062   3.986   7.589   3.845 -1.8228 -2.2437 -1.5417
  372MOL0     H49063   4.017   7.582   3.668  1.8227  0.2657 -0.5327
  372MOL0     H49064   4.206   7.623   3.899  0.7329 -0.7565 -0.8926
  372MOL0     H49065   4.261   7.660   3.741 -0.0444 -0.7500  0.2528
  372MOL0     H49066   4.119   7.229   3.662 -0.4093 -0.1266 -0.6633
  372MOL0     H49067   3.990   7.076   3.779  2.1413 -1.8735 -0.8748
  372MOL0     H49068   3.706   6.949   4.111  0.6261 -0.7713 -0.8007
  372MOL0     H49069   3.582   6.765   4.213  1.5170 -0.3994 -3.1436
  372MOL0     H49070   3.505   6.535   4.331 -1.7530  0.2669  0.2011
  372MOL0     H49071   3.488   6.693   4.417  1.9858  1.9374  1.3597
  372MOL0     H49072   3.506   6.587   4.628 -3.1691 -1.9108  1.2377
  372MOL0     H49073   3.555   6.432   4.558 -0.3331  0.0413 -0.2619
  372MOL0     H49074   3.337   6.414   4.439 -3.4475  3.0205 -2.0520
  372MOL0     H49075   3.295   6.570   4.492  1.0262  1.1190 -1.2097
  372MOL0     H49076   3.352   6.329   4.663  1.3333  0.2048 -0.3873
  372MOL0     H49077   3.298   6.489   4.738  0.5972  1.6197 -1.2558
  372MOL0     H49078   3.136   6.286   4.560  0.6484  0.0976  0.0032
  372MOL0     H49079   3.090   6.452   4.603  2.0255  1.8484  0.1459
  372MOL0     H49080   2.985   6.312   4.761  0.5524 -0.6402  2.3240
  372MOL0     H49081   3.099   6.406   4.846  1.3984 -0.2516  0.1948
  372MOL0     H49082   3.180   6.122   4.760 -0.6669  0.8677 -0.1164
  372MOL0     H49083   3.250   6.205   4.896 -1.4738 -2.6364  2.3568
  372MOL0     H49084   3.085   6.029   4.942  1.2389  1.6632  2.2735
  372MOL0     H49085   2.949   6.126   4.876 -0.8373  1.1193  1.9427
  372MOL0     H49086   3.871   6.737   4.519 -0.5956  0.5672 -0.0185
  372MOL0     H49087   4.005   6.932   4.428 -0.8927 -0.4633  3.1008
  372MOL0     H49088   4.094   7.282   4.157 -0.3579  1.5432 -1.5191
  372MOL0     H49089   4.216   7.436   4.043  2.3578  0.4613 -0.0457
  372MOL0     H49090   2.913   8.275   3.929  2.1230  0.6572 -0.6605
  372MOL0     H49091   2.989   8.329   4.153  0.3578 -0.2055  0.0293
  372MOL0     H49092   2.878   8.147   4.649 -1.5475 -0.0712  0.0149
  372MOL0     H49093   2.886   8.314   4.822  1.3350 -4.1672  1.5860
  372MOL0     H49094   3.110   8.674   4.914 -4.7968 -0.9357 -2.3869
  372MOL0     H49095   3.193   8.619   4.764  0.0145  1.0388  0.2255
  372MOL0     H49096   3.323   8.466   4.917 -0.8747  0.4178 -2.0844
  372MOL0     H49097   3.377   8.622   4.925 -0.0228 -0.2703  0.0292
  372MOL0     H49098   3.358   8.544   5.148  1.0636 -0.2846 -2.5320
  372MOL0     H49099   3.207   8.478   5.148  1.0309 -0.8037 -1.5876
  372MOL0     H49100   3.105   8.714   5.138 -0.0559 -0.3568 -1.3371
  372MOL0     H49101   3.192   8.695   5.279 -5.5600 -0.8878 -0.5916
  372MOL0     H49102   3.462   8.965   5.083 -1.8896  3.1542 -0.3071
  372MOL0     H49103   3.273   8.440   4.673  0.0785 -0.4989  1.4102
  372MOL0     H49104   3.217   8.309   4.469  0.8011 -0.2620 -0.3638
  373MOL0     O49105   6.819   8.589   7.246 -0.9751 -0.1703 -0.2859
  373MOL0     C49106   6.866   8.536   7.147  0.1536  0.2403 -1.0363
  373MOL0     O49107   6.904   8.602   7.028  0.0410 -0.4831 -0.6137
  373MOL0     C49108   6.892   8.737   7.021  1.4589 -0.0540 -0.6220
  373MOL0     C49109   7.004   8.815   6.986 -0.5019 -0.0458  0.0518
  373MOL0     C49110   6.989   8.946   6.955 -0.5721 -0.3768  0.3404
  373MOL0     C49111   6.872   9.017   6.962 -0.4584  0.8036  0.8774
  373MOL0     O49112   6.879   9.150   6.926  0.0982  0.3053 -0.4456
  373MOL0     C49113   6.794   9.235   6.997  0.0133 -0.4074  0.1804
  373MOL0     C49114   6.844   9.376   6.986 -0.5780 -0.4545 -0.2422
  373MOL0     C49115   6.977   9.413   7.043 -0.7771  0.2687  1.0055
  373MOL0     C49116   7.006   9.568   7.041 -0.1334 -0.0675  0.0232
  373MOL0     C49117   7.089   9.620   7.157 -0.7892  0.2886 -0.2730
  373MOL0     C49118   7.221   9.535   7.196 -1.0874  0.0953 -0.0745
  373MOL0     C49119   7.320   9.613   7.284 -0.2607  0.7802 -0.0316
  373MOL0     C49120   7.441   9.524   7.296 -1.0792  0.3778 -0.1860
  373MOL0     N49121   7.540   9.572   7.396  0.0275 -0.1097 -0.5457
  373MOL0     C49122   7.587   9.701   7.420  0.0861 -0.6717 -0.8625
  373MOL0     C49123   7.679   9.686   7.518  0.4918  0.1232 -0.3284
  373MOL0     C49124   7.766   9.789   7.595 -0.0368 -0.4338  0.0081
  373MOL0     C49125   7.722   9.815   7.733  0.3943 -0.0914  0.6879
  373MOL0     C49126   7.575   9.858   7.756 -0.5364  0.3611 -0.3414
  373MOL0     C49127   7.565   9.921   7.904  0.6157 -0.3399  0.7080
  373MOL0     O49128   7.633  10.052   7.900  0.4049  0.0931  0.2305
  373MOL0     C49129   7.606  10.127   8.003  0.4282  0.1642 -0.1223
  373MOL0     C49130   7.562  10.254   7.984  0.3233 -0.0515  0.3923
  373MOL0     C49131   7.513  10.337   8.092  0.7241  0.3374  0.2476
  373MOL0     C49132   7.517  10.291   8.228  0.9606 -0.1313 -0.1645
  373MOL0     C49133   7.453  10.365   8.335 -0.0169  0.7781  1.4704
  373MOL0     O49134   7.383  10.477   8.299 -0.7475 -0.0761  0.8792
  373MOL0     C49135   7.293  10.525   8.388  0.2012  0.3933 -0.1937
  373MOL0     C49136   7.311  10.658   8.408 -0.6661  1.0667  0.4399
  373MOL0     C49137   7.225  10.734   8.498 -0.2746 -0.6138  0.3954
  373MOL0     C49138   7.122  10.661   8.561 -0.5942 -0.8353  0.2015
  373MOL0     O49139   7.044  10.711   8.665  0.3572 -0.2123  0.6108
  373MOL0     C49140   6.924  10.784   8.641  0.0691  0.5534 -0.3095
  373MOL0     C49141   6.803  10.717   8.700  1.0088  0.5943  0.0884
  373MOL0     C49142   6.809  10.689   8.852  0.2432  0.3302 -0.1655
  373MOL0     C49143   6.700  10.589   8.891  0.7853 -1.0514 -0.4592
  373MOL0     C49144   6.733  10.446   8.883 -0.6940 -0.7048  0.0266
  373MOL0     C49145   6.733  10.396   8.739  0.4285 -0.8717  0.4206
  373MOL0     C49146   6.719  10.251   8.702  0.3285  0.0254 -0.6690
  373MOL0     C49147   6.735  10.227   8.556 -1.2955  0.4567  0.3412
  373MOL0    Cl49148   6.901  10.280   8.508 -0.4536 -0.5932  0.2872
  373MOL0     C49149   7.105  10.522   8.547 -0.7216 -0.2341 -0.0303
  373MOL0     C49150   7.183  10.458   8.446  0.1943 -0.8164 -0.7765
  373MOL0     O49151   7.453  10.310   8.442 -0.7771  0.4011 -0.0803
  373MOL0     C49152   7.575  10.162   8.246 -0.5904  0.7316  0.3037
  373MOL0     C49153   7.618  10.080   8.135 -0.8920 -0.5171  0.6194
  373MOL0     N49154   7.704   9.551   7.547 -0.6150  0.2117 -0.2483
  373MOL0     N49155   7.617   9.488   7.477 -0.6391  0.8727 -0.2303
  373MOL0     C49156   6.759   8.945   6.996 -0.2918 -0.1635  0.7296
  373MOL0     C49157   6.763   8.809   7.027 -0.7501  0.6293  0.0571
  373MOL0     C49158   6.883   8.390   7.162  0.9204  0.1392  1.2911
  373MOL0     C49159   6.854   8.313   7.276  0.2404 -0.4147  0.2432
  373MOL0     C49160   6.872   8.176   7.261 -0.8799  0.9528 -0.1133
  373MOL0     C49161   6.925   8.110   7.153 -0.7990 -0.4546  0.4609
  373MOL0     O49162   6.936   7.971   7.158  0.8706 -0.5570  0.3255
  373MOL0     C49163   6.982   7.894   7.049 -0.1072 -0.0234 -0.0183
  373MOL0     C49164   6.983   7.754   7.109 -0.0888  0.2515 -0.4230
  373MOL0     C49165   7.019   7.647   7.009 -0.2117 -0.2985  0.2451
  373MOL0     C49166   7.024   7.501   7.060 -0.4690  0.2820  0.2783
  373MOL0     C49167   7.130   7.408   7.001  0.8634  0.6682  0.1852
  373MOL0     C49168   7.214   7.331   6.962  0.1108 -0.7864 -0.7216
  373MOL0     C49169   6.957   8.180   7.045 -0.1797 -0.1897 -0.3907
  373MOL0     C49170   6.944   8.324   7.050  0.7344 -0.1142  0.4651
  373MOL0     H49171   7.102   8.767   6.991  1.5313  3.8690  2.0965
  373MOL0     H49172   7.080   9.001   6.936  0.1454 -1.3058  1.0051
  373MOL0     H49173   6.792   9.201   7.100 -1.5864 -0.0892  0.2755
  373MOL0     H49174   6.692   9.227   6.958  0.0546 -0.1180  0.0051
  373MOL0     H49175   6.776   9.431   7.052  0.9220 -0.2991  1.2243
  373MOL0     H49176   6.844   9.420   6.886  1.4447  1.3804  0.4986
  373MOL0     H49177   7.060   9.369   6.987 -0.6796  3.0866 -1.2867
  373MOL0     H49178   6.985   9.381   7.147  4.2206 -0.3753  0.6750
  373MOL0     H49179   7.053   9.590   6.945  0.0803 -2.7164 -0.5564
  373MOL0     H49180   6.912   9.623   7.046 -0.6149 -0.9536  3.1898
  373MOL0     H49181   7.034   9.632   7.250  0.4475 -0.5616  0.6074
  373MOL0     H49182   7.124   9.719   7.125  1.9115 -0.1966  0.9137
  373MOL0     H49183   7.271   9.510   7.102 -1.2410  2.8351 -0.9709
  373MOL0     H49184   7.193   9.437   7.237  2.9464 -1.2663 -0.1456
  373MOL0     H49185   7.350   9.706   7.234 -0.9578 -0.5906 -3.3072
  373MOL0     H49186   7.277   9.633   7.382 -0.2090  0.4486  0.0617
  373MOL0     H49187   7.494   9.516   7.201 -0.1500 -0.0866  0.3547
  373MOL0     H49188   7.407   9.430   7.342 -0.8018  0.7601  0.8327
  373MOL0     H49189   7.550   9.792   7.375 -1.9610 -1.4835 -0.9368
  373MOL0     H49190   7.780   9.884   7.542  0.5907 -0.6159 -0.1679
  373MOL0     H49191   7.863   9.739   7.601  0.3991 -0.4656 -4.1338
  373MOL0     H49192   7.785   9.896   7.770  2.4971 -0.9799 -0.7535
  373MOL0     H49193   7.745   9.726   7.794  3.4408  1.1387  1.5509
  373MOL0     H49194   7.549   9.927   7.675  0.8236  1.2605 -0.0380
  373MOL0     H49195   7.525   9.761   7.759  4.5884 -2.6321  0.6643
  373MOL0     H49196   7.608   9.849   7.973  1.2141  0.5427  1.2722
  373MOL0     H49197   7.461   9.949   7.926  0.7736  3.0970 -2.0250
  373MOL0     H49198   7.543  10.305   7.891 -1.8138  0.0181  0.8257
  373MOL0     H49199   7.450  10.423   8.073  1.8248  1.2207  0.4984
  373MOL0     H49200   7.384  10.712   8.349  0.4138 -2.8404 -2.1621
  373MOL0     H49201   7.238  10.840   8.517  1.0955 -0.2873 -1.9612
  373MOL0     H49202   6.912  10.800   8.533 -1.5024  1.4405 -0.0369
  373MOL0     H49203   6.930  10.881   8.691 -2.6387 -0.0831  1.4694
  373MOL0     H49204   6.801  10.625   8.641 -0.7553  1.4868 -1.3478
  373MOL0     H49205   6.715  10.776   8.670  2.7522  3.4312  0.2281
  373MOL0     H49206   6.786  10.783   8.903  0.9557  0.5386 -0.2079
  373MOL0     H49207   6.910  10.652   8.876 -0.8999 -2.2727  1.0496
  373MOL0     H49208   6.674  10.600   8.997 -0.1579 -0.0978 -0.7629
  373MOL0     H49209   6.607  10.604   8.835  1.6597  2.9964 -1.1286
  373MOL0     H49210   6.670  10.380   8.943 -0.7593 -0.3392  0.3618
  373MOL0     H49211   6.838  10.434   8.911 -0.6046 -0.1364 -0.0548
  373MOL0     H49212   6.829  10.424   8.694  0.9096 -2.5086  0.3633
  373MOL0     H49213   6.652  10.445   8.684  0.2574 -2.3715 -0.7690
  373MOL0     H49214   6.793  10.196   8.761  2.5577  0.5600 -2.7933
  373MOL0     H49215   6.625  10.230   8.753  2.6320  0.1571  4.2066
  373MOL0     H49216   6.671  10.289   8.492 -1.1055 -2.0688 -2.5560
  373MOL0     H49217   6.717  10.123   8.527 -0.5105  0.1344  0.9776
  373MOL0     H49218   7.051  10.476   8.629  2.3510  0.3880  2.5247
  373MOL0     H49219   7.168  10.351   8.434 -0.3147 -1.3379  3.2259
  373MOL0     H49220   7.565  10.111   8.341  0.2911  1.7156  0.9422
  373MOL0     H49221   7.657   9.980   8.151  0.7422 -0.1062 -0.4786
  373MOL0     H49222   6.668   8.999   7.017  0.2012  0.7281  0.6383
  373MOL0     H49223   6.667   8.764   7.053  1.0461 -3.2663  0.6431
  373MOL0     H49224   6.822   8.357   7.370  0.1318 -2.3377  1.1574
  373MOL0     H49225   6.859   8.112   7.348  4.1706 -1.5509 -0.8156
  373MOL0     H49226   7.075   7.932   7.005 -0.8918  0.6011 -1.2247
  373MOL0     H49227   6.910   7.902   6.967 -1.0718 -0.0374  0.8041
  373MOL0     H49228   7.056   7.751   7.190 -1.7983  3.9893  1.4938
  373MOL0     H49229   6.884   7.739   7.155 -0.5885 -0.8029 -1.7649
  373MOL0     H49230   7.120   7.662   6.970  0.5610 -2.0553  1.4256
  373MOL0     H49231   6.945   7.650   6.929 -2.2807 -3.0788  1.8517
  373MOL0     H49232   7.026   7.501   7.170  0.0573  1.8892  0.2926
  373MOL0     H49233   6.923   7.466   7.041 -1.1406  2.1655  0.1220
  373MOL0     H49234   7.289   7.264   6.925  0.9752  0.1016 -0.6323
  373MOL0     H49235   7.005   8.126   6.964  0.1995 -3.4525  1.8541
  373MOL0     H49236   6.963   8.374   6.956 -0.0744  0.1907  0.4534
  374MOL0     O49237   5.506   2.498   3.978  0.6377  0.3620 -0.4225
  374MOL0     C49238   5.406   2.537   4.041  0.4281 -0.9634 -1.0783
  374MOL0     O49239   5.276   2.530   4.005 -0.8236  1.0187  0.7187
  374MOL0     C49240   5.255   2.495   3.872 -0.2612  0.1737  0.1017
  374MOL0     C49241   5.260   2.356   3.839 -0.8230  0.1816 -0.6814
  374MOL0     C49242   5.239   2.302   3.720  0.5491  0.3267  0.1301
  374MOL0     C49243   5.186   2.378   3.620  0.5626 -0.2455  0.4404
  374MOL0     O49244   5.150   2.338   3.494 -0.2919  0.6090  0.3005
  374MOL0     C49245   5.122   2.193   3.479 -0.5503 -0.9531  0.6859
  374MOL0     C49246   5.139   2.148   3.336  0.3171 -0.2101 -0.2945
  374MOL0     C49247   5.066   2.204   3.211  0.5181  0.4584  0.2045
  374MOL0     C49248   5.069   2.118   3.078 -0.1985 -0.0654 -0.5471
  374MOL0     C49249   4.968   2.185   2.976 -0.3658  0.0743 -0.8625
  374MOL0     C49250   5.010   2.126   2.838  1.4392  0.1169 -0.8756
  374MOL0     C49251   4.962   1.985   2.824 -0.4945 -0.0328  1.1043
  374MOL0     C49252   4.945   1.924   2.684  0.2060 -0.1330 -0.3979
  374MOL0     N49253   4.936   1.776   2.682  0.1128 -0.2662 -0.6123
  374MOL0     C49254   4.828   1.695   2.710  0.1003 -0.3831 -0.2877
  374MOL0     C49255   4.865   1.576   2.652  0.7498  0.5501 -0.1734
  374MOL0     C49256   4.797   1.436   2.672 -0.0420 -0.1184 -0.2095
  374MOL0     C49257   4.650   1.426   2.625  0.5104 -0.2122  1.4309
  374MOL0     C49258   4.639   1.460   2.478  0.4936  0.0725  0.9380
  374MOL0     C49259   4.499   1.415   2.430  0.0372 -0.0488 -0.3180
  374MOL0     O49260   4.477   1.442   2.285  0.3436  0.1170 -0.1107
  374MOL0     C49261   4.377   1.380   2.211 -0.5242 -0.4190  0.0710
  374MOL0     C49262   4.294   1.276   2.255  0.2662 -0.5768 -0.6535
  374MOL0     C49263   4.197   1.216   2.169 -0.5359 -0.9489 -0.0743
  374MOL0     C49264   4.187   1.264   2.035 -0.6221 -0.6750  0.6041
  374MOL0     C49265   4.094   1.192   1.942  0.3531  1.0070 -0.4098
  374MOL0     O49266   4.063   1.255   1.826  0.4235  0.0969  0.0162
  374MOL0     C49267   3.994   1.177   1.735  0.1422  1.3836  0.5485
  374MOL0     C49268   4.054   1.070   1.657  0.3613  0.2519 -0.1982
  374MOL0     C49269   3.978   0.998   1.573 -0.0349  0.0545  0.1922
  374MOL0     C49270   3.846   1.026   1.543  0.2183 -1.0081 -1.0113
  374MOL0     O49271   3.773   0.963   1.444 -0.3172  0.3846 -0.5435
  374MOL0     C49272   3.827   0.849   1.379  0.2678 -0.1696  0.3840
  374MOL0     C49273   3.752   0.832   1.247  0.5927  1.0401  1.2320
  374MOL0     C49274   3.785   0.942   1.141 -0.5954  0.1835  0.2896
  374MOL0     C49275   3.720   0.927   1.007 -1.0535  0.1020  1.5345
  374MOL0     C49276   3.824   0.957   0.897  0.3512  0.3371 -0.5808
  374MOL0     C49277   3.751   0.956   0.753  0.7826 -1.3731  0.7407
  374MOL0     C49278   3.851   0.971   0.634 -0.2992 -0.5527  0.4305
  374MOL0     C49279   3.815   0.877   0.531  0.2460 -0.2357  0.8826
  374MOL0    Cl49280   3.946   0.873   0.403 -0.3385 -0.0504 -0.4368
  374MOL0     C49281   3.793   1.132   1.607 -0.0827 -0.4814  0.4795
  374MOL0     C49282   3.861   1.200   1.707  0.0972 -0.1256  0.7331
  374MOL0     O49283   4.053   1.082   1.972 -0.4357  0.0644 -0.2827
  374MOL0     C49284   4.269   1.373   1.993 -0.8484 -0.6673 -0.3924
  374MOL0     C49285   4.363   1.424   2.080  0.0293  0.2553  0.1814
  374MOL0     N49286   4.991   1.580   2.598  0.1663  0.6472 -0.0509
  374MOL0     N49287   5.025   1.699   2.612  0.2803 -0.8364 -0.5696
  374MOL0     C49288   5.185   2.517   3.641 -0.2684 -0.2749  0.2289
  374MOL0     C49289   5.216   2.575   3.763  0.9730 -0.4566 -0.3222
  374MOL0     C49290   5.430   2.591   4.178 -0.4502 -0.6637  0.3221
  374MOL0     C49291   5.331   2.594   4.276 -0.0124 -0.0551 -0.7438
  374MOL0     C49292   5.373   2.623   4.405  0.9459  0.1464  0.7484
  374MOL0     C49293   5.508   2.643   4.435  0.0107 -0.2223  0.3173
  374MOL0     O49294   5.543   2.661   4.560  0.3802  0.2622 -0.6477
  374MOL0     C49295   5.499   2.779   4.622 -0.4981 -1.2814 -0.5220
  374MOL0     C49296   5.535   2.907   4.526  0.2904 -0.2623  0.1194
  374MOL0     C49297   5.519   3.044   4.589 -0.2923 -0.0881 -0.3859
  374MOL0     C49298   5.458   3.139   4.481 -0.3482 -0.0726 -0.6939
  374MOL0     C49299   5.481   3.283   4.521  0.9433  0.5295  0.4889
  374MOL0     C49300   5.474   3.399   4.561 -0.0171 -0.2869 -0.0175
  374MOL0     C49301   5.600   2.641   4.342  0.4735 -0.2463  0.2238
  374MOL0     C49302   5.570   2.613   4.210  0.0495 -0.1430 -0.4256
  374MOL0     H49303   5.313   2.292   3.909  1.1441  1.7057 -0.7067
  374MOL0     H49304   5.257   2.196   3.706 -0.7813  0.3298 -2.1957
  374MOL0     H49305   5.018   2.171   3.505 -0.4006 -3.1133 -0.3290
  374MOL0     H49306   5.189   2.130   3.538 -1.1466 -4.4561 -2.0072
  374MOL0     H49307   5.111   2.042   3.338  0.3624 -0.3181 -2.7739
  374MOL0     H49308   5.245   2.164   3.316  0.5048  0.3708  1.0641
  374MOL0     H49309   5.089   2.309   3.193 -0.5923  0.5954 -0.5033
  374MOL0     H49310   4.959   2.204   3.237  0.2725  0.5630 -0.7680
  374MOL0     H49311   5.171   2.111   3.039  0.8657 -2.9352  2.3479
  374MOL0     H49312   5.034   2.016   3.098 -2.7837  0.5231 -1.6716
  374MOL0     H49313   4.990   2.292   2.981 -2.4902  0.6981 -2.9566
  374MOL0     H49314   4.863   2.167   2.998 -0.3924  2.3519  1.3767
  374MOL0     H49315   5.118   2.131   2.823  1.5547 -2.4910 -1.4780
  374MOL0     H49316   4.963   2.182   2.757  1.2950 -0.6663 -1.3523
  374MOL0     H49317   5.038   1.933   2.883  0.6691  3.0092  2.5555
  374MOL0     H49318   4.865   1.981   2.875 -0.2110  0.5478  1.7123
  374MOL0     H49319   5.032   1.956   2.627  0.4945  0.4525  0.3447
  374MOL0     H49320   4.854   1.961   2.636 -1.1642 -2.4950  0.2095
  374MOL0     H49321   4.738   1.723   2.763  0.2802  0.9823 -0.6523
  374MOL0     H49322   4.799   1.416   2.779  2.3865  0.9549  0.0115
  374MOL0     H49323   4.859   1.354   2.634  1.0806  0.1955  0.8941
  374MOL0     H49324   4.586   1.500   2.676 -0.9800 -0.6397  0.2455
  374MOL0     H49325   4.616   1.325   2.647  1.8015 -1.3210 -1.2336
  374MOL0     H49326   4.652   1.568   2.466  1.0405 -0.1906 -1.3031
  374MOL0     H49327   4.702   1.403   2.409 -0.5429  0.2656 -0.2128
  374MOL0     H49328   4.426   1.461   2.498 -0.5557 -2.3671  0.7121
  374MOL0     H49329   4.496   1.309   2.457  0.0739 -0.5182 -2.0576
  374MOL0     H49330   4.304   1.242   2.357  3.0931  3.9741  0.8975
  374MOL0     H49331   4.141   1.133   2.209  0.9253 -0.5464  3.1499
  374MOL0     H49332   4.158   1.048   1.679  0.2035 -0.7839 -0.4673
  374MOL0     H49333   4.027   0.918   1.518 -1.7938 -1.3611  0.5889
  374MOL0     H49334   3.808   0.753   1.427  1.4780 -0.8973 -0.5196
  374MOL0     H49335   3.932   0.864   1.353 -0.0312  1.1127 -0.1950
  374MOL0     H49336   3.650   0.825   1.286  1.1003 -2.8903  2.2992
  374MOL0     H49337   3.780   0.737   1.201 -1.3290  1.5768 -1.2429
  374MOL0     H49338   3.893   0.931   1.132 -0.5638  0.7208 -0.0105
  374MOL0     H49339   3.759   1.044   1.169  4.4510  1.8269  0.0171
  374MOL0     H49340   3.698   0.822   0.984  1.0391 -0.0760  0.0099
  374MOL0     H49341   3.626   0.981   0.992 -0.9186  0.1810  0.9492
  374MOL0     H49342   3.920   0.906   0.901 -0.3169 -0.9980 -1.0129
  374MOL0     H49343   3.845   1.063   0.917  2.0987  0.0679 -0.8306
  374MOL0     H49344   3.676   1.035   0.758  1.5407 -0.5727 -0.1980
  374MOL0     H49345   3.703   0.858   0.741 -2.0162 -0.2823  2.3187
  374MOL0     H49346   3.854   1.074   0.598  0.8266 -0.8401 -0.3144
  374MOL0     H49347   3.951   0.943   0.668  0.5282  1.2138 -0.4250
  374MOL0     H49348   3.726   0.900   0.471  0.7833  1.0474  0.5466
  374MOL0     H49349   3.800   0.777   0.574  3.1742 -1.1239  0.0902
  374MOL0     H49350   3.691   1.156   1.581  0.7149  0.9714 -1.5870
  374MOL0     H49351   3.822   1.293   1.745  1.3006  1.0838 -0.8355
  374MOL0     H49352   4.280   1.408   1.891  0.1807  0.3041  0.0350
  374MOL0     H49353   4.427   1.505   2.047  0.9931  1.1318  3.7135
  374MOL0     H49354   5.169   2.581   3.556 -1.3743 -2.9933 -1.7588
  374MOL0     H49355   5.228   2.682   3.771 -0.1829 -0.2161 -1.3916
  374MOL0     H49356   5.228   2.569   4.252  0.6463 -0.5746 -3.3607
  374MOL0     H49357   5.301   2.612   4.486 -1.9137  0.2187 -1.6006
  374MOL0     H49358   5.552   2.783   4.718  0.5403 -2.6764 -1.0110
  374MOL0     H49359   5.394   2.779   4.654 -0.2174 -0.7740  0.4394
  374MOL0     H49360   5.639   2.900   4.493  0.9139  2.9463  0.9637
  374MOL0     H49361   5.458   2.913   4.448  0.5776  0.3806 -0.1252
  374MOL0     H49362   5.621   3.075   4.613  0.3393 -3.1133  1.4115
  374MOL0     H49363   5.458   3.030   4.678  1.9215  2.0369  1.6089
  374MOL0     H49364   5.501   3.122   4.383  1.7113  1.7378 -0.1813
  374MOL0     H49365   5.354   3.110   4.462  0.2932 -4.7461  1.5360
  374MOL0     H49366   5.459   3.500   4.594  1.5699  0.4620 -1.4607
  374MOL0     H49367   5.704   2.655   4.367  0.4258  0.1422  0.2090
  374MOL0     H49368   5.654   2.620   4.141  2.2479 -1.0538  2.0043
  375MOL0     O49369   2.552   3.696   2.359 -0.4610 -0.3179  0.5590
  375MOL0     C49370   2.506   3.693   2.246 -0.0967 -0.1094  0.8794
  375MOL0     O49371   2.513   3.795   2.152 -0.1419  0.1006  0.7217
  375MOL0     C49372   2.541   3.920   2.199  0.3450 -0.5234 -0.2129
  375MOL0     C49373   2.602   4.009   2.112 -0.0324  0.3155  0.3159
  375MOL0     C49374   2.622   4.144   2.140  0.7767  0.9454  0.7986
  375MOL0     C49375   2.562   4.199   2.257  0.5971  0.0544 -0.5516
  375MOL0     O49376   2.562   4.334   2.280 -1.2191  0.3079  0.0027
  375MOL0     C49377   2.679   4.384   2.346  0.5816  0.2451  0.3396
  375MOL0     C49378   2.657   4.380   2.497  0.0078 -0.2718 -0.1836
  375MOL0     C49379   2.529   4.454   2.557  0.2410 -0.1011 -0.3654
  375MOL0     C49380   2.521   4.615   2.533 -0.3844  0.9125 -0.4574
  375MOL0     C49381   2.383   4.673   2.554  0.2933  0.1233  0.2878
  375MOL0     C49382   2.365   4.809   2.634  0.6073 -0.9004 -0.7227
  375MOL0     C49383   2.448   4.824   2.756  0.9866  0.5369 -0.1373
  375MOL0     C49384   2.394   4.935   2.848  0.2910  0.9773  0.4915
  375MOL0     N49385   2.359   5.057   2.785 -0.1125  0.1918  0.0236
  375MOL0     C49386   2.455   5.155   2.758  0.1846 -0.7726  0.1812
  375MOL0     C49387   2.392   5.242   2.673  0.5316  0.0259  1.6179
  375MOL0     C49388   2.459   5.353   2.594 -0.1840  0.4784  0.2106
  375MOL0     C49389   2.376   5.490   2.581 -0.0392 -0.9106  0.1359
  375MOL0     C49390   2.439   5.593   2.487  0.7604  0.7188  0.8694
  375MOL0     C49391   2.337   5.703   2.460 -0.3137  0.8072  0.2225
  375MOL0     O49392   2.380   5.795   2.358 -0.5854 -1.1364  0.3677
  375MOL0     C49393   2.344   5.928   2.368 -0.4595  0.3519 -0.3199
  375MOL0     C49394   2.245   5.985   2.448 -0.0866  0.9368  0.1859
  375MOL0     C49395   2.232   6.121   2.460 -0.2552  0.1614  0.5509
  375MOL0     C49396   2.314   6.211   2.407 -0.7929 -0.1076  0.3453
  375MOL0     C49397   2.296   6.362   2.434  0.0106  0.5432 -0.8851
  375MOL0     O49398   2.204   6.409   2.519  0.0782 -0.4752  0.1732
  375MOL0     C49399   2.206   6.541   2.543 -0.4175 -0.0050 -0.5026
  375MOL0     C49400   2.244   6.601   2.670  0.7219  0.8630  0.3345
  375MOL0     C49401   2.246   6.736   2.679  0.0047 -0.3202 -1.5371
  375MOL0     C49402   2.191   6.819   2.578  0.1181  0.1922 -0.0497
  375MOL0     O49403   2.186   6.956   2.589  0.2588 -0.3739  0.1587
  375MOL0     C49404   2.066   7.026   2.556 -0.1778  0.5380 -0.1865
  375MOL0     C49405   2.106   7.151   2.488  0.5043 -0.7067 -0.5332
  375MOL0     C49406   2.162   7.263   2.587  0.3773  0.0472  0.6507
  375MOL0     C49407   2.133   7.406   2.535  0.1502 -0.4987  0.5518
  375MOL0     C49408   2.209   7.442   2.403 -0.5293  0.8429  0.0921
  375MOL0     C49409   2.196   7.583   2.352  0.2221  0.1513 -0.7253
  375MOL0     C49410   2.295   7.616   2.248  0.5416 -0.2459  0.8171
  375MOL0     C49411   2.338   7.759   2.272 -0.2279  0.2760 -0.2760
  375MOL0    Cl49412   2.198   7.878   2.278  0.2300  0.2494 -0.1352
  375MOL0     C49413   2.162   6.759   2.449 -0.3895 -0.2568  0.5919
  375MOL0     C49414   2.163   6.620   2.440 -0.9859 -0.0763 -0.3677
  375MOL0     O49415   2.384   6.431   2.385 -0.4570 -0.1459  0.6782
  375MOL0     C49416   2.409   6.158   2.318  0.6769 -0.0875 -0.3436
  375MOL0     C49417   2.436   6.019   2.304  0.1221 -0.7370  0.0291
  375MOL0     N49418   2.262   5.205   2.656  0.8170 -0.1695 -0.4278
  375MOL0     N49419   2.238   5.097   2.725 -0.6469  0.7242 -0.1262
  375MOL0     C49420   2.518   4.114   2.356  0.6078  0.3036 -0.2467
  375MOL0     C49421   2.491   3.976   2.323 -0.3877 -0.0059  0.6902
  375MOL0     C49422   2.449   3.570   2.190 -1.1360 -0.9191 -0.9941
  375MOL0     C49423   2.383   3.581   2.065 -0.2843  0.4221  0.8831
  375MOL0     C49424   2.340   3.462   2.008 -0.2463  0.7015  0.7702
  375MOL0     C49425   2.354   3.337   2.069  0.9591  0.0065 -0.6884
  375MOL0     O49426   2.303   3.223   2.005 -0.0191 -0.8808 -0.7715
  375MOL0     C49427   2.222   3.137   2.094 -1.7130 -0.7103 -0.1949
  375MOL0     C49428   2.313   3.019   2.153  0.2102 -0.1675 -0.4166
  375MOL0     C49429   2.239   2.887   2.143  1.1180 -0.7998 -0.5395
  375MOL0     C49430   2.330   2.776   2.211  0.1527  0.0061 -0.5751
  375MOL0     C49431   2.319   2.778   2.359  0.0522  0.3344  0.0999
  375MOL0     C49432   2.294   2.784   2.472 -0.0587  0.4881 -1.1561
  375MOL0     C49433   2.429   3.329   2.185 -0.1132 -0.7692 -0.0016
  375MOL0     C49434   2.476   3.444   2.253  0.1738  0.1550 -0.9830
  375MOL0     H49435   2.639   3.973   2.016 -0.6024 -1.6503  0.7825
  375MOL0     H49436   2.667   4.210   2.066 -1.3598  0.2931 -1.1814
  375MOL0     H49437   2.698   4.486   2.311 -1.0825 -0.1795 -2.0266
  375MOL0     H49438   2.767   4.326   2.316  0.6432 -1.5742  3.5093
  375MOL0     H49439   2.748   4.415   2.546  0.6556 -1.1253 -0.7527
  375MOL0     H49440   2.658   4.276   2.531  2.9962 -0.9198 -1.8690
  375MOL0     H49441   2.540   4.438   2.665  0.9098 -0.1915 -0.4439
  375MOL0     H49442   2.435   4.408   2.524  0.1576 -0.1944 -0.0013
  375MOL0     H49443   2.601   4.665   2.590  0.0546 -0.3147  0.0509
  375MOL0     H49444   2.547   4.634   2.429  0.2743 -0.2549 -0.5251
  375MOL0     H49445   2.328   4.601   2.616  0.3803  0.3788  0.6639
  375MOL0     H49446   2.330   4.680   2.458 -2.6562  0.7118  1.8588
  375MOL0     H49447   2.264   4.795   2.674  0.0975 -0.3090 -1.7543
  375MOL0     H49448   2.377   4.894   2.567 -1.6071 -3.0107 -4.1511
  375MOL0     H49449   2.445   4.729   2.811  1.0335  1.3852  1.3748
  375MOL0     H49450   2.549   4.855   2.729  1.5071  0.9874  2.1403
  375MOL0     H49451   2.462   4.949   2.933  0.1283 -3.9273  1.7226
  375MOL0     H49452   2.300   4.897   2.888  0.2933 -0.9188 -1.1338
  375MOL0     H49453   2.559   5.171   2.784 -0.3831  2.6538  0.8770
  375MOL0     H49454   2.473   5.323   2.490 -4.6630 -1.3920 -0.0686
  375MOL0     H49455   2.559   5.363   2.638 -0.7237 -0.3888  1.7091
  375MOL0     H49456   2.353   5.536   2.678 -0.6796 -0.0085 -0.4237
  375MOL0     H49457   2.279   5.471   2.533 -3.0901  2.4723  4.1457
  375MOL0     H49458   2.525   5.640   2.535  0.4241  0.8235  1.3818
  375MOL0     H49459   2.460   5.552   2.388 -0.9156  2.7902 -0.4332
  375MOL0     H49460   2.327   5.752   2.557 -2.1579  0.6826  0.1345
  375MOL0     H49461   2.242   5.666   2.418 -1.1389 -0.6123  3.0660
  375MOL0     H49462   2.186   5.921   2.511  2.5284 -2.1133 -0.2010
  375MOL0     H49463   2.144   6.148   2.516 -1.4318 -1.6232 -0.3357
  375MOL0     H49464   2.275   6.527   2.744 -0.9417 -1.3710 -1.0513
  375MOL0     H49465   2.280   6.799   2.761  2.1538  0.3102 -2.8128
  375MOL0     H49466   2.010   7.051   2.647 -2.6051  0.3536 -1.5279
  375MOL0     H49467   2.012   6.961   2.487  1.9902  0.1439 -1.5907
  375MOL0     H49468   2.015   7.194   2.446 -0.0389 -0.4538  0.8580
  375MOL0     H49469   2.174   7.136   2.404  3.8291  3.3432  1.0379
  375MOL0     H49470   2.267   7.253   2.616  1.9015 -0.7772 -4.1795
  375MOL0     H49471   2.110   7.246   2.681  1.0363  1.5452  1.3160
  375MOL0     H49472   2.025   7.426   2.529  0.2534 -0.2970 -1.0954
  375MOL0     H49473   2.166   7.484   2.604 -0.0859  0.3997 -0.3349
  375MOL0     H49474   2.175   7.377   2.322  3.6932 -2.1192  0.3305
  375MOL0     H49475   2.315   7.419   2.420 -1.4487 -3.4451  1.2279
  375MOL0     H49476   2.203   7.649   2.439  1.9236 -1.2143  0.2328
  375MOL0     H49477   2.093   7.612   2.331  0.4920  3.1138  1.4201
  375MOL0     H49478   2.381   7.549   2.253 -0.2205 -1.4712 -1.1954
  375MOL0     H49479   2.253   7.614   2.147  1.9892 -1.3598  0.2117
  375MOL0     H49480   2.416   7.792   2.204  1.4489 -2.8088 -0.0258
  375MOL0     H49481   2.380   7.773   2.372 -2.9137  2.9727  0.6283
  375MOL0     H49482   2.135   6.822   2.365 -0.8591 -1.7605 -0.4358
  375MOL0     H49483   2.163   6.587   2.336  1.8574 -1.6470  0.0336
  375MOL0     H49484   2.470   6.228   2.262  0.2104  0.2686 -0.4173
  375MOL0     H49485   2.526   5.999   2.246  0.4917  2.1838 -0.5655
  375MOL0     H49486   2.477   4.155   2.448  0.6922 -0.8181  0.3083
  375MOL0     H49487   2.422   3.914   2.378 -1.4103 -0.7112 -1.2780
  375MOL0     H49488   2.365   3.675   2.014  0.1972  0.8793  1.5363
  375MOL0     H49489   2.289   3.461   1.912  2.5674  2.1967 -0.8690
  375MOL0     H49490   2.148   3.096   2.025 -2.2248 -0.3856  0.1576
  375MOL0     H49491   2.169   3.195   2.170 -2.4632 -0.5148 -0.8545
  375MOL0     H49492   2.400   3.011   2.087  3.0680  2.5882  2.6311
  375MOL0     H49493   2.352   3.037   2.254 -1.0479  0.2711  0.0065
  375MOL0     H49494   2.228   2.858   2.039  1.1682  1.4479 -1.2327
  375MOL0     H49495   2.137   2.892   2.182  0.8608  1.3450 -1.3443
  375MOL0     H49496   2.304   2.677   2.173  0.9445 -0.5919  0.4165
  375MOL0     H49497   2.433   2.793   2.178 -0.1958 -0.8331 -2.2046
  375MOL0     H49498   2.267   2.800   2.574  0.4282 -1.4342 -0.6896
  375MOL0     H49499   2.462   3.235   2.228  0.9785 -1.0450 -1.3762
  375MOL0     H49500   2.537   3.431   2.342  0.2882  1.0430 -0.9274
  376MOL0     O49501   2.808   5.563   8.990  0.3088 -0.4876 -0.5790
  376MOL0     C49502   2.813   5.636   9.088 -0.7608  0.1124  0.1337
  376MOL0     O49503   2.753   5.757   9.120 -0.2594  0.3717  0.6165
  376MOL0     C49504   2.662   5.816   9.030  0.7760  0.2954 -0.3226
  376MOL0     C49505   2.676   5.953   9.008  0.6237 -0.2196  0.1261
  376MOL0     C49506   2.579   6.022   8.931 -0.3132 -0.3208 -0.0412
  376MOL0     C49507   2.469   5.955   8.878  0.1082 -0.0367 -0.0931
  376MOL0     O49508   2.374   6.032   8.814 -0.8523  0.5758 -0.1950
  376MOL0     C49509   2.320   5.975   8.696 -0.7130  0.3172 -0.0887
  376MOL0     C49510   2.245   6.087   8.621 -0.5067  0.7327  0.1166
  376MOL0     C49511   2.173   6.032   8.499  0.3499 -0.3499  0.2566
  376MOL0     C49512   2.271   6.026   8.376  0.7493  0.3974  0.3921
  376MOL0     C49513   2.183   5.977   8.254  0.5282 -0.4873 -0.6869
  376MOL0     C49514   2.262   5.968   8.124  0.0600 -0.2061 -0.2823
  376MOL0     C49515   2.193   5.892   8.011  0.5208  0.7738  0.1070
  376MOL0     C49516   2.066   5.976   7.965  0.0108  0.1427 -0.4547
  376MOL0     N49517   2.108   6.099   7.891 -0.7278  1.1640  0.3350
  376MOL0     C49518   2.183   6.100   7.781 -0.8663 -0.2128 -0.3934
  376MOL0     C49519   2.224   6.222   7.758  0.4946  0.6597  0.7030
  376MOL0     C49520   2.317   6.270   7.648  0.0249  0.3777  0.9159
  376MOL0     C49521   2.246   6.385   7.574  0.3090  0.4904 -0.1881
  376MOL0     C49522   2.328   6.462   7.474 -0.1475  0.1877 -0.4097
  376MOL0     C49523   2.422   6.574   7.529  0.3882 -0.2637 -0.1718
  376MOL0     O49524   2.509   6.509   7.634  0.9819  0.3130  0.0260
  376MOL0     C49525   2.557   6.577   7.739  0.3846 -0.7232 -0.7579
  376MOL0     C49526   2.684   6.535   7.787 -0.0374 -0.0761  1.0335
  376MOL0     C49527   2.734   6.607   7.904 -0.4744  0.6054  0.5952
  376MOL0     C49528   2.665   6.711   7.963  0.5689 -1.1920 -0.2862
  376MOL0     C49529   2.730   6.767   8.078  0.2284 -0.0605 -0.4632
  376MOL0     O49530   2.646   6.858   8.150  0.0921  0.7715  0.1049
  376MOL0     C49531   2.696   6.932   8.250  0.8428 -0.7840  1.0659
  376MOL0     C49532   2.672   7.070   8.260  0.5782  0.1886 -0.1916
  376MOL0     C49533   2.708   7.154   8.373  0.1381  0.5219 -0.2517
  376MOL0     C49534   2.769   7.091   8.478  0.2443 -1.4051 -0.8055
  376MOL0     O49535   2.809   7.172   8.586 -0.5111 -0.8109 -0.5310
  376MOL0     C49536   2.885   7.104   8.687 -0.2733  0.0703 -0.2002
  376MOL0     C49537   2.946   7.202   8.788  0.4479  0.3345  0.9249
  376MOL0     C49538   3.029   7.135   8.905  0.0013  0.0773  0.6711
  376MOL0     C49539   3.158   7.072   8.851  0.1663 -0.0452  0.2010
  376MOL0     C49540   3.283   7.110   8.916 -1.1320  0.1469 -1.0443
  376MOL0     C49541   3.299   7.027   9.047  0.0737 -0.6974  0.1719
  376MOL0     C49542   3.399   7.077   9.143 -0.8785 -0.5734 -0.0375
  376MOL0     C49543   3.336   7.144   9.272  0.2089  0.1993 -0.2498
  376MOL0    Cl49544   3.465   7.206   9.386 -0.3217 -0.1827 -0.4052
  376MOL0     C49545   2.806   6.955   8.463  0.2917 -0.5737 -0.7393
  376MOL0     C49546   2.760   6.869   8.357 -0.7290 -0.3747  0.3554
  376MOL0     O49547   2.848   6.742   8.113  0.3459 -0.5362  1.0273
  376MOL0     C49548   2.546   6.756   7.906  0.2488  0.1006 -0.0229
  376MOL0     C49549   2.492   6.687   7.797  0.1326  0.8082 -0.0901
  376MOL0     N49550   2.170   6.298   7.858 -0.9199  0.0823  0.2985
  376MOL0     N49551   2.108   6.225   7.934  0.3469 -0.0011  0.1600
  376MOL0     C49552   2.450   5.819   8.904  0.1789 -0.4348  1.1052
  376MOL0     C49553   2.541   5.756   8.989 -0.7221 -0.0873 -0.2244
  376MOL0     C49554   2.918   5.588   9.185 -0.3365 -0.5071  0.1935
  376MOL0     C49555   3.045   5.540   9.137 -0.1082  0.5693 -0.5279
  376MOL0     C49556   3.147   5.501   9.227  0.4390 -0.1966  1.0370
  376MOL0     C49557   3.125   5.491   9.362  1.2637  0.3784 -0.3108
  376MOL0     O49558   3.218   5.437   9.446  0.2494 -0.6400 -0.3385
  376MOL0     C49559   3.172   5.393   9.571 -0.1552  0.3100  0.3244
  376MOL0     C49560   3.091   5.266   9.559  0.7259  0.7288 -0.0062
  376MOL0     C49561   3.050   5.196   9.695 -0.2056  0.0455 -0.4120
  376MOL0     C49562   3.067   5.038   9.688  0.0732  0.0240  0.0737
  376MOL0     C49563   3.206   5.001   9.672  0.1636 -0.2170 -0.3668
  376MOL0     C49564   3.326   4.978   9.673 -0.1901 -0.3461 -0.2939
  376MOL0     C49565   3.004   5.537   9.410  0.4297 -0.0556  0.3439
  376MOL0     C49566   2.912   5.592   9.327 -0.3550 -1.3566  0.4827
  376MOL0     H49567   2.766   6.011   9.023  3.2936 -3.5665 -1.4571
  376MOL0     H49568   2.612   6.124   8.914  1.8479 -1.1697 -1.4886
  376MOL0     H49569   2.238   5.909   8.724 -2.3619  2.0468 -0.6677
  376MOL0     H49570   2.400   5.924   8.641 -1.2355  0.4978 -1.0200
  376MOL0     H49571   2.322   6.161   8.599  0.2238 -0.3023 -0.9632
  376MOL0     H49572   2.176   6.139   8.687 -0.6949  1.2359 -0.4637
  376MOL0     H49573   2.090   6.101   8.483  1.4629  1.5302  2.0505
  376MOL0     H49574   2.141   5.930   8.520  0.1288 -0.5449 -0.9672
  376MOL0     H49575   2.314   6.125   8.360  2.2124 -0.1290  0.9407
  376MOL0     H49576   2.355   5.964   8.407  0.2639 -0.0845  0.7586
  376MOL0     H49577   2.096   6.044   8.250 -0.1588 -1.2792  0.2325
  376MOL0     H49578   2.137   5.880   8.277  2.2418 -1.2770 -0.4444
  376MOL0     H49579   2.357   5.918   8.145  0.2496  0.2996  0.0747
  376MOL0     H49580   2.290   6.067   8.088 -3.4308  0.8135 -0.5774
  376MOL0     H49581   2.266   5.857   7.938  0.5986 -1.9851  1.3779
  376MOL0     H49582   2.158   5.794   8.043  3.0438  0.1662  1.1811
  376MOL0     H49583   2.006   6.007   8.051  0.0863 -0.9487  0.0022
  376MOL0     H49584   2.012   5.920   7.888 -3.3122 -0.1007  1.8115
  376MOL0     H49585   2.217   6.014   7.724 -0.2141  0.2088 -0.6399
  376MOL0     H49586   2.344   6.192   7.577 -1.7198  1.9070 -1.5730
  376MOL0     H49587   2.414   6.298   7.692  1.1461  0.2829 -1.3528
  376MOL0     H49588   2.210   6.458   7.647 -2.9067 -0.4197 -0.6832
  376MOL0     H49589   2.160   6.337   7.526  0.3395 -1.3971  1.5256
  376MOL0     H49590   2.396   6.388   7.430 -0.1812  1.1999 -2.2844
  376MOL0     H49591   2.272   6.517   7.398  0.5002  2.4269  0.6299
  376MOL0     H49592   2.349   6.649   7.560 -0.4640  0.1891 -3.0139
  376MOL0     H49593   2.483   6.623   7.453 -1.5960  0.6560 -1.2275
  376MOL0     H49594   2.736   6.454   7.736  0.2220  1.3245 -1.0507
  376MOL0     H49595   2.832   6.569   7.934 -1.5684 -2.0053  1.1286
  376MOL0     H49596   2.599   7.102   8.187 -0.6013 -0.1692  0.8076
  376MOL0     H49597   2.685   7.260   8.371  3.4491  1.3432 -2.3596
  376MOL0     H49598   2.968   7.044   8.646 -1.5478 -1.4239 -0.7080
  376MOL0     H49599   2.828   7.031   8.745  4.1275 -3.4651  0.3030
  376MOL0     H49600   2.869   7.265   8.832  1.0077  1.3092  0.5312
  376MOL0     H49601   3.010   7.261   8.723 -1.7845  0.5546 -1.1990
  376MOL0     H49602   2.974   7.051   8.948  2.2722 -0.5437  2.5585
  376MOL0     H49603   3.044   7.205   8.989 -0.6956  0.8318  0.1794
  376MOL0     H49604   3.138   6.965   8.865 -1.6073  0.2807  0.3905
  376MOL0     H49605   3.160   7.085   8.743 -0.8314  1.6190  0.3391
  376MOL0     H49606   3.298   7.218   8.921 -1.4164  0.1666 -0.5028
  376MOL0     H49607   3.366   7.074   8.854 -0.6916  0.3178 -0.5621
  376MOL0     H49608   3.339   6.933   9.007  1.5925 -0.4752  1.0695
  376MOL0     H49609   3.204   6.998   9.093  0.3675 -1.8318  0.1020
  376MOL0     H49610   3.472   7.003   9.177  1.0868  1.4899  0.5193
  376MOL0     H49611   3.452   7.147   9.078 -1.3525 -1.9175 -1.9363
  376MOL0     H49612   3.282   7.067   9.327  1.4096  1.9396  3.6707
  376MOL0     H49613   3.257   7.219   9.255 -1.6040 -0.9481  2.5347
  376MOL0     H49614   2.870   6.909   8.537  1.0881  3.3984  1.2914
  376MOL0     H49615   2.796   6.767   8.346  0.1414  0.1587 -2.5671
  376MOL0     H49616   2.482   6.835   7.942  2.3517  2.2921 -0.8458
  376MOL0     H49617   2.392   6.713   7.765  0.6979  2.0972 -0.8865
  376MOL0     H49618   2.366   5.768   8.858 -1.7309  1.3508  2.4303
  376MOL0     H49619   2.535   5.651   9.016  0.7543 -0.5665 -1.5898
  376MOL0     H49620   3.069   5.526   9.032  1.0765  0.8506 -0.3131
  376MOL0     H49621   3.236   5.458   9.182 -0.3946 -2.4943  1.4885
  376MOL0     H49622   3.127   5.474   9.628  0.9148  0.6253  0.7465
  376MOL0     H49623   3.267   5.371   9.620 -1.4827  0.2162  2.9992
  376MOL0     H49624   2.999   5.274   9.501  0.1037 -2.5159  0.2984
  376MOL0     H49625   3.152   5.194   9.503 -0.4149 -0.1828 -0.1199
  376MOL0     H49626   2.942   5.200   9.714  0.2789  1.4956  2.6866
  376MOL0     H49627   3.117   5.233   9.773  1.9134  0.9626 -2.5425
  376MOL0     H49628   3.048   4.987   9.783 -1.4428 -0.3800 -0.4071
  376MOL0     H49629   2.996   4.992   9.618 -1.2865 -1.5597  2.3674
  376MOL0     H49630   3.432   4.972   9.656  0.3542  3.2817  0.9702
  376MOL0     H49631   2.979   5.560   9.513  3.7161 -0.0931  1.2523
  376MOL0     H49632   2.827   5.637   9.376  0.4071  0.1651  0.4499
  377MOL0     O49633   6.770  11.038   2.074  0.2500 -1.1631  0.5770
  377MOL0     C49634   6.760  11.099   1.965  0.0440 -0.8948  0.6988
  377MOL0     O49635   6.648  11.087   1.885 -0.1932 -0.6522  0.1257
  377MOL0     C49636   6.551  11.000   1.909 -0.0594  0.2746 -0.1184
  377MOL0     C49637   6.503  10.928   1.793 -0.2662 -0.6944 -1.4020
  377MOL0     C49638   6.402  10.834   1.824  0.2298 -0.5621 -0.7919
  377MOL0     C49639   6.342  10.814   1.949  0.4767 -1.3865 -0.3281
  377MOL0     O49640   6.233  10.736   1.970  0.0053  0.6517  0.1302
  377MOL0     C49641   6.272  10.597   2.008 -0.2901 -0.3153  0.3033
  377MOL0     C49642   6.262  10.586   2.170 -0.0788 -0.7600  0.1604
  377MOL0     C49643   6.235  10.448   2.215  0.7105 -1.1912  0.0935
  377MOL0     C49644   6.099  10.385   2.177  0.0333  0.6682 -0.0054
  377MOL0     C49645   6.036  10.311   2.299 -0.1764  0.3419 -0.0329
  377MOL0     C49646   5.889  10.279   2.266 -1.0127  0.0351 -0.1572
  377MOL0     C49647   5.795  10.238   2.373 -0.9825  0.7617  0.2127
  377MOL0     C49648   5.654  10.192   2.316 -0.1726  0.6591 -0.1747
  377MOL0     N49649   5.575  10.153   2.433 -0.9464 -0.1080  0.1384
  377MOL0     C49650   5.609  10.093   2.550 -0.1910  0.9613 -1.0682
  377MOL0     C49651   5.492  10.060   2.613  0.5772 -0.6803  1.1383
  377MOL0     C49652   5.477   9.966   2.732 -0.1326 -0.1669 -0.6200
  377MOL0     C49653   5.585   9.858   2.745  0.1071  0.1852 -0.5182
  377MOL0     C49654   5.553   9.772   2.861  0.3285 -0.0127  0.2747
  377MOL0     C49655   5.670   9.698   2.922  0.1013 -0.3691 -0.2132
  377MOL0     O49656   5.650   9.582   3.013 -1.1159  0.5590 -1.1896
  377MOL0     C49657   5.618   9.457   2.950  0.4225 -0.4675  0.6518
  377MOL0     C49658   5.615   9.441   2.810 -0.7094  1.0756  0.9932
  377MOL0     C49659   5.607   9.302   2.761  0.1390  0.7499 -0.1454
  377MOL0     C49660   5.578   9.196   2.847 -0.4584 -0.5591 -0.2368
  377MOL0     C49661   5.558   9.060   2.796  0.1675  0.3712 -0.3160
  377MOL0     O49662   5.597   9.030   2.670  0.4806  0.1678  0.1420
  377MOL0     C49663   5.602   8.899   2.620 -0.1995 -1.0941 -0.9138
  377MOL0     C49664   5.498   8.798   2.640 -0.5521 -0.4632 -0.0885
  377MOL0     C49665   5.509   8.676   2.575  0.2273 -0.3047 -0.1083
  377MOL0     C49666   5.615   8.648   2.488  0.0174  0.4389  0.8605
  377MOL0     O49667   5.635   8.525   2.420 -0.1490 -0.7625  0.4298
  377MOL0     C49668   5.519   8.456   2.378  0.5515 -0.0540  0.3340
  377MOL0     C49669   5.570   8.383   2.247 -0.8028  1.0789 -1.2989
  377MOL0     C49670   5.604   8.468   2.131  0.2428 -0.8499 -0.0795
  377MOL0     C49671   5.647   8.368   2.025  0.3967  0.5285  0.1049
  377MOL0     C49672   5.704   8.419   1.892  0.1329  0.1128 -0.4313
  377MOL0     C49673   5.714   8.310   1.787  0.0482 -0.6099  0.0734
  377MOL0     C49674   5.578   8.313   1.698  0.0236 -0.0812 -0.4683
  377MOL0     C49675   5.564   8.191   1.605 -0.4206  1.4159 -0.7802
  377MOL0    Cl49676   5.656   8.212   1.453  0.0202  0.3608 -0.0776
  377MOL0     C49677   5.691   8.758   2.459  0.0570  0.6574 -0.9151
  377MOL0     C49678   5.697   8.882   2.526  0.6972 -0.1864  0.6677
  377MOL0     O49679   5.507   8.978   2.873  0.4025 -0.5102 -0.3856
  377MOL0     C49680   5.567   9.220   2.985 -1.1703 -0.6091 -0.1886
  377MOL0     C49681   5.589   9.345   3.034  0.5058 -0.3890 -0.6742
  377MOL0     N49682   5.392  10.096   2.525  0.2185  0.7259  1.0133
  377MOL0     N49683   5.442  10.158   2.424  0.4984  1.0395  0.1565
  377MOL0     C49684   6.399  10.882   2.055  0.6367  0.4479  0.3287
  377MOL0     C49685   6.492  10.977   2.032 -0.5096 -0.1078 -0.3110
  377MOL0     C49686   6.873  11.197   1.926  0.1879 -0.7354  0.8685
  377MOL0     C49687   6.876  11.255   1.795  0.2136  0.5540 -0.2890
  377MOL0     C49688   6.998  11.304   1.750 -0.5012 -0.1444  0.1250
  377MOL0     C49689   7.102  11.330   1.839 -1.0870  0.9758 -0.5455
  377MOL0     O49690   7.202  11.403   1.781  0.0025 -0.1053  0.4806
  377MOL0     C49691   7.339  11.387   1.813 -0.6082 -0.5012 -0.1835
  377MOL0     C49692   7.407  11.267   1.750  0.5498 -0.2154  0.7045
  377MOL0     C49693   7.550  11.279   1.782  0.0655 -0.3722  1.1634
  377MOL0     C49694   7.646  11.169   1.729  0.0115  1.0238  0.1983
  377MOL0     C49695   7.676  11.183   1.587  0.3424 -0.2545  0.4176
  377MOL0     C49696   7.711  11.205   1.472  0.3774  0.0122  0.0427
  377MOL0     C49697   7.087  11.293   1.975 -0.4056 -0.5174  0.2279
  377MOL0     C49698   6.980  11.220   2.018  1.0900 -0.6457 -0.7713
  377MOL0     H49699   6.537  10.938   1.691 -0.3373  1.1324 -1.2773
  377MOL0     H49700   6.352  10.790   1.739 -5.0788 -0.4758  1.8825
  377MOL0     H49701   6.378  10.586   1.983 -0.3728 -1.2878  0.3381
  377MOL0     H49702   6.201  10.535   1.953 -1.5478  1.6712 -0.3918
  377MOL0     H49703   6.181  10.653   2.198  0.9463  0.6466 -0.1398
  377MOL0     H49704   6.355  10.620   2.218 -0.6898 -0.7683  1.3921
  377MOL0     H49705   6.249  10.456   2.323 -0.3356 -2.3925  0.3306
  377MOL0     H49706   6.315  10.382   2.179  1.6493  0.5621 -1.1914
  377MOL0     H49707   6.036  10.467   2.141 -0.3921  1.5801  2.5774
  377MOL0     H49708   6.121  10.311   2.099  2.0175 -1.1568  2.1287
  377MOL0     H49709   6.046  10.383   2.381 -0.0050  0.9902 -0.6199
  377MOL0     H49710   6.089  10.221   2.331 -0.0161 -0.8985 -3.3897
  377MOL0     H49711   5.892  10.187   2.206 -1.8574 -0.7026  0.8878
  377MOL0     H49712   5.827  10.356   2.219 -0.9870  1.8313  2.5564
  377MOL0     H49713   5.843  10.159   2.431 -0.4756 -0.4033 -1.6833
  377MOL0     H49714   5.787  10.314   2.451  1.1604  1.1704  0.0894
  377MOL0     H49715   5.676  10.105   2.254 -1.0956  1.1802 -1.2688
  377MOL0     H49716   5.605  10.269   2.256 -2.1392  0.0320  0.5522
  377MOL0     H49717   5.710  10.074   2.585 -0.5193 -1.2430 -1.1598
  377MOL0     H49718   5.381   9.913   2.736 -0.0612 -0.3396 -1.1794
  377MOL0     H49719   5.473  10.021   2.827  0.7898 -1.1192 -0.0013
  377MOL0     H49720   5.679   9.914   2.751 -0.1778  0.7544 -1.2188
  377MOL0     H49721   5.576   9.795   2.656 -1.1430  0.2807 -0.4724
  377MOL0     H49722   5.523   9.832   2.948 -0.6204 -0.9831  0.6428
  377MOL0     H49723   5.468   9.708   2.838 -2.5292  2.6673  2.4925
  377MOL0     H49724   5.727   9.771   2.980 -0.4995 -0.7427  0.8843
  377MOL0     H49725   5.740   9.667   2.844  2.4443  1.8030  0.8804
  377MOL0     H49726   5.623   9.517   2.734  0.5878  0.2098  0.2226
  377MOL0     H49727   5.609   9.277   2.655 -0.8145  1.5630 -0.3632
  377MOL0     H49728   5.427   8.815   2.720 -1.9320 -1.3470 -1.0765
  377MOL0     H49729   5.440   8.595   2.598  1.1629 -0.4154  2.7447
  377MOL0     H49730   5.427   8.510   2.355 -0.8998 -2.7427 -0.6954
  377MOL0     H49731   5.482   8.378   2.446  0.0238 -0.9313 -0.9277
  377MOL0     H49732   5.486   8.323   2.212  0.3599 -1.3431 -0.1328
  377MOL0     H49733   5.654   8.323   2.283 -0.3013  2.5843  0.2236
  377MOL0     H49734   5.685   8.539   2.152  0.0897 -0.1293 -1.7386
  377MOL0     H49735   5.518   8.527   2.099 -0.2963 -1.0345  0.9670
  377MOL0     H49736   5.705   8.290   2.076  2.6460  1.2825 -1.1789
  377MOL0     H49737   5.559   8.314   1.991  1.7995  0.0096 -2.9813
  377MOL0     H49738   5.804   8.461   1.906 -0.8115  3.1265 -1.8196
  377MOL0     H49739   5.634   8.491   1.849 -0.2547  2.1721  3.2056
  377MOL0     H49740   5.741   8.217   1.838 -0.3107 -2.0291 -2.1864
  377MOL0     H49741   5.797   8.326   1.718  0.7846  0.1511  1.0973
  377MOL0     H49742   5.503   8.281   1.772  0.7838 -2.8877 -0.7766
  377MOL0     H49743   5.559   8.410   1.652  3.9845  2.1124  1.9529
  377MOL0     H49744   5.461   8.164   1.578 -0.3157 -1.5067  1.2282
  377MOL0     H49745   5.597   8.106   1.666  2.6445  2.9347 -0.1443
  377MOL0     H49746   5.760   8.733   2.380 -1.2151 -0.4738 -1.7141
  377MOL0     H49747   5.778   8.949   2.501 -1.0186  1.6525 -0.2588
  377MOL0     H49748   5.551   9.134   3.049  1.8411 -4.2133 -3.7282
  377MOL0     H49749   5.596   9.368   3.140 -0.6368  1.2937 -0.9322
  377MOL0     H49750   6.361  10.863   2.155  1.2357  1.1315  0.6996
  377MOL0     H49751   6.521  11.033   2.121  1.7749 -1.1586 -0.3391
  377MOL0     H49752   6.788  11.253   1.732  0.9030  2.3707 -1.3764
  377MOL0     H49753   7.013  11.332   1.646  2.7442 -0.9761  0.2549
  377MOL0     H49754   7.362  11.400   1.919  3.1101  1.2454 -1.0262
  377MOL0     H49755   7.384  11.478   1.770  0.4530 -0.4445  0.9852
  377MOL0     H49756   7.361  11.186   1.808 -3.3130  0.7491 -0.7317
  377MOL0     H49757   7.398  11.264   1.641  0.5094 -0.2297  0.7085
  377MOL0     H49758   7.571  11.296   1.888 -0.0616 -1.2339  1.3348
  377MOL0     H49759   7.584  11.369   1.729  0.4569 -1.8275 -1.2113
  377MOL0     H49760   7.744  11.173   1.778 -1.4379  1.0832  3.3595
  377MOL0     H49761   7.605  11.070   1.749  0.7902  0.5681 -0.4548
  377MOL0     H49762   7.744  11.236   1.375  2.3172  1.3441  1.0524
  377MOL0     H49763   7.171  11.314   2.040  2.6116  0.4641 -3.5765
  377MOL0     H49764   6.987  11.187   2.121 -1.4390 -1.5380 -0.8036
  378MOL0     O49765   2.693   5.893   2.459 -0.3142  0.9117  0.2606
  378MOL0     C49766   2.772   5.978   2.420 -0.5985  0.6779  0.1967
  378MOL0     O49767   2.873   5.952   2.337  0.1120 -0.4597  0.0927
  378MOL0     C49768   2.890   5.828   2.284  0.2664 -0.5374  0.7762
  378MOL0     C49769   2.886   5.841   2.154  0.0425 -0.3743  0.3847
  378MOL0     C49770   2.889   5.721   2.080 -0.4618  0.2833  0.3535
  378MOL0     C49771   2.907   5.591   2.137 -0.2218  0.4603 -0.8450
  378MOL0     O49772   2.925   5.485   2.051  0.4302 -0.1235  0.0637
  378MOL0     C49773   2.804   5.443   1.994 -0.6410  0.7322 -0.8005
  378MOL0     C49774   2.794   5.296   1.990  1.0080 -0.3602 -0.9942
  378MOL0     C49775   2.904   5.241   1.908  0.0418 -0.0995  0.0443
  378MOL0     C49776   2.911   5.085   1.911  0.0715  0.4468 -0.0559
  378MOL0     C49777   3.013   5.014   1.821  0.3319 -0.4608 -0.1494
  378MOL0     C49778   3.011   4.866   1.848 -0.0294 -0.1012  0.9031
  378MOL0     C49779   3.075   4.785   1.732 -0.0260 -1.0650 -0.7295
  378MOL0     C49780   3.229   4.822   1.730  0.2445  0.5697 -0.4952
  378MOL0     N49781   3.296   4.716   1.657 -0.1096 -0.1976  0.1928
  378MOL0     C49782   3.278   4.695   1.522 -0.1399  1.2466 -0.2699
  378MOL0     C49783   3.338   4.575   1.508 -0.3851  2.1552 -0.7570
  378MOL0     C49784   3.316   4.491   1.386 -0.6086  1.2302 -0.5060
  378MOL0     C49785   3.177   4.490   1.318  0.3618 -1.0737 -1.3183
  378MOL0     C49786   3.164   4.390   1.213  0.1769  0.4394 -0.0847
  378MOL0     C49787   3.259   4.416   1.099  0.3003  0.3121  0.4593
  378MOL0     O49788   3.244   4.315   0.992 -0.1392  0.4465 -0.2195
  378MOL0     C49789   3.339   4.300   0.893  0.0861  0.9523  0.0670
  378MOL0     C49790   3.334   4.184   0.814  0.8262  0.5335 -1.2423
  378MOL0     C49791   3.416   4.171   0.701  1.1653 -0.1306 -0.5552
  378MOL0     C49792   3.502   4.278   0.664  0.1134  1.3980 -0.1966
  378MOL0     C49793   3.597   4.252   0.559  0.1882 -0.3108  0.2894
  378MOL0     O49794   3.590   4.128   0.496 -1.0473 -0.5817 -0.2099
  378MOL0     C49795   3.678   4.116   0.390 -0.8010 -0.1952  1.0980
  378MOL0     C49796   3.779   4.020   0.392 -0.6027 -0.5744 -0.1354
  378MOL0     C49797   3.865   4.010   0.286 -0.8961  0.1628 -0.5896
  378MOL0     C49798   3.849   4.080   0.168  0.1912 -1.0304 -0.9234
  378MOL0     O49799   3.927   4.048   0.063  0.0806  0.1220  0.1734
  378MOL0     C49800   4.072   4.075   0.068  0.8274 -0.2973  0.7846
  378MOL0     C49801   4.132   4.053  -0.071  0.5036  0.1072 -0.5602
  378MOL0     C49802   4.286   4.073  -0.075 -0.4210  0.2110  0.0543
  378MOL0     C49803   4.341   4.078  -0.208  0.1943  0.3969 -0.2820
  378MOL0     C49804   4.487   4.122  -0.227  0.5799 -1.2131  0.2276
  378MOL0     C49805   4.586   4.018  -0.171  0.0571  0.2300 -0.1976
  378MOL0     C49806   4.731   4.043  -0.223  0.0603 -1.0280  0.4598
  378MOL0     C49807   4.811   3.919  -0.229  0.3517 -0.6800  0.2044
  378MOL0    Cl49808   4.839   3.861  -0.060  1.1543  0.4186  0.2644
  378MOL0     C49809   3.752   4.179   0.160  0.8256  0.6721  0.0691
  378MOL0     C49810   3.664   4.190   0.266 -0.2935  0.4814 -0.4127
  378MOL0     O49811   3.682   4.341   0.535  0.2309 -0.5596 -0.3839
  378MOL0     C49812   3.505   4.390   0.747 -0.9355 -0.0400 -0.0570
  378MOL0     C49813   3.427   4.393   0.861  0.0398 -0.6686 -0.3283
  378MOL0     N49814   3.401   4.538   1.628 -0.0396 -0.3076 -0.8679
  378MOL0     N49815   3.368   4.623   1.719  0.4306 -0.5145 -0.3840
  378MOL0     C49816   2.914   5.582   2.280  0.3525 -0.0192 -0.0166
  378MOL0     C49817   2.893   5.705   2.348  0.4021 -0.7587 -0.6360
  378MOL0     C49818   2.758   6.120   2.465 -1.2473  1.1780 -0.8209
  378MOL0     C49819   2.842   6.220   2.429 -0.3268 -0.4085  1.5898
  378MOL0     C49820   2.827   6.356   2.475  0.1654  0.2664  0.3518
  378MOL0     C49821   2.728   6.388   2.567  0.6055  0.1189  0.0361
  378MOL0     O49822   2.712   6.519   2.611  0.0311 -0.5018 -0.9585
  378MOL0     C49823   2.625   6.595   2.536  0.1881  0.2749  0.3441
  378MOL0     C49824   2.687   6.726   2.487 -0.4544 -0.5633 -0.3448
  378MOL0     C49825   2.731   6.799   2.618 -0.5795  0.5494 -0.1455
  378MOL0     C49826   2.612   6.875   2.687  0.2207 -0.3488  0.1271
  378MOL0     C49827   2.636   6.882   2.827  0.9381  1.0653 -0.9025
  378MOL0     C49828   2.670   6.885   2.948 -0.3780 -0.7117 -0.2292
  378MOL0     C49829   2.652   6.280   2.616  1.2944 -0.6980  1.3360
  378MOL0     C49830   2.668   6.149   2.570  0.1463 -0.0176  0.4955
  378MOL0     H49831   2.903   5.936   2.105 -0.6087 -0.9663 -1.0197
  378MOL0     H49832   2.895   5.740   1.973  0.5423  1.3129  0.5637
  378MOL0     H49833   2.798   5.488   1.894 -1.4833  1.0854 -0.6007
  378MOL0     H49834   2.719   5.480   2.053 -1.4830 -1.4245 -0.5825
  378MOL0     H49835   2.695   5.278   1.947  0.1775  2.6490 -0.5684
  378MOL0     H49836   2.791   5.255   2.092 -1.5209 -2.7588 -1.8963
  378MOL0     H49837   3.001   5.272   1.949 -0.3165 -0.3065  1.0846
  378MOL0     H49838   2.894   5.272   1.803  0.9130  0.4345  0.1057
  378MOL0     H49839   2.943   5.044   2.007  0.2018 -2.7277 -1.3450
  378MOL0     H49840   2.812   5.041   1.899  0.0771 -0.7141  3.2028
  378MOL0     H49841   3.109   5.064   1.838  1.9516 -3.1896 -0.6586
  378MOL0     H49842   2.980   5.029   1.718 -1.7603 -1.2567  0.3688
  378MOL0     H49843   2.911   4.823   1.841  0.1500 -0.8507  2.4411
  378MOL0     H49844   3.045   4.836   1.948  1.6923  0.3571  0.4947
  378MOL0     H49845   3.051   4.685   1.768  0.2150 -0.6800  0.5652
  378MOL0     H49846   3.040   4.795   1.629  0.1809 -1.5683 -0.8477
  378MOL0     H49847   3.264   4.824   1.834 -4.0727 -1.8089  1.2710
  378MOL0     H49848   3.259   4.923   1.701  4.0284 -0.0566  0.7042
  378MOL0     H49849   3.212   4.744   1.452 -3.3443 -1.8681  0.3436
  378MOL0     H49850   3.349   4.389   1.407  2.7271  1.4426 -3.8104
  378MOL0     H49851   3.384   4.524   1.307 -0.2641 -0.2783 -0.8663
  378MOL0     H49852   3.161   4.593   1.284  1.4673  1.2671  4.1505
  378MOL0     H49853   3.092   4.472   1.384  1.4882  0.8293  0.7923
  378MOL0     H49854   3.177   4.289   1.253  3.5236  0.6069 -0.4712
  378MOL0     H49855   3.062   4.393   1.174 -1.4166 -3.7099  3.0059
  378MOL0     H49856   3.362   4.422   1.136  0.7106  0.5382 -0.6845
  378MOL0     H49857   3.230   4.513   1.056  3.9576  1.3338 -0.0701
  378MOL0     H49858   3.270   4.101   0.842  2.3159 -0.9877 -2.1505
  378MOL0     H49859   3.403   4.082   0.641  3.3883 -0.7988 -0.1369
  378MOL0     H49860   3.783   3.955   0.479 -3.4595 -0.0111  0.5430
  378MOL0     H49861   3.937   3.928   0.290 -3.1894 -1.9022  1.7311
  378MOL0     H49862   4.133   4.001   0.121  1.3461 -0.2610  0.2387
  378MOL0     H49863   4.091   4.178   0.100 -0.7257 -0.6605  3.1428
  378MOL0     H49864   4.081   4.118  -0.143 -0.6897 -0.5355 -0.3247
  378MOL0     H49865   4.108   3.951  -0.104  1.3289 -0.6110  0.9745
  378MOL0     H49866   4.328   3.990  -0.017 -1.5445 -1.2037 -1.0615
  378MOL0     H49867   4.310   4.166  -0.024 -1.9562  0.3816  0.5266
  378MOL0     H49868   4.336   3.976  -0.249  1.0467 -0.3968  1.5015
  378MOL0     H49869   4.287   4.148  -0.274  0.7619  1.4737  0.3843
  378MOL0     H49870   4.503   4.222  -0.186  1.8980 -0.7913 -1.2381
  378MOL0     H49871   4.503   4.151  -0.331 -4.4383  0.9449 -0.2671
  378MOL0     H49872   4.572   3.913  -0.197  2.9234 -0.1095 -0.7224
  378MOL0     H49873   4.587   4.021  -0.062  1.7968  1.1370 -0.2065
  378MOL0     H49874   4.726   4.087  -0.323 -0.6732  1.2667  1.4332
  378MOL0     H49875   4.782   4.120  -0.164 -1.9427  1.0141 -0.2889
  378MOL0     H49876   4.908   3.936  -0.276 -0.5234  1.0435 -1.1079
  378MOL0     H49877   4.768   3.843  -0.295  1.7274 -1.8637  0.6208
  378MOL0     H49878   3.744   4.223   0.061  1.1047  0.7919  0.0986
  378MOL0     H49879   3.593   4.270   0.251 -3.3675 -2.3267 -2.2321
  378MOL0     H49880   3.573   4.474   0.735 -2.7723  1.2599 -2.1046
  378MOL0     H49881   3.439   4.483   0.921 -1.7359  1.4850 -2.9500
  378MOL0     H49882   2.942   5.500   2.344  2.1239 -0.0064 -0.7285
  378MOL0     H49883   2.879   5.703   2.455  0.4625  1.0748 -0.5643
  378MOL0     H49884   2.922   6.190   2.362 -0.1867 -1.3036  2.1374
  378MOL0     H49885   2.891   6.437   2.441 -0.6174  0.8703  0.3045
  378MOL0     H49886   2.538   6.620   2.596 -0.8030 -1.0080 -0.4986
  378MOL0     H49887   2.584   6.549   2.446  1.6442 -0.0084 -0.2165
  378MOL0     H49888   2.779   6.708   2.432  0.2753 -1.4974  1.1182
  378MOL0     H49889   2.620   6.793   2.432  2.1682  2.1883 -0.4420
  378MOL0     H49890   2.804   6.877   2.595 -1.5608  1.8163  0.9085
  378MOL0     H49891   2.775   6.723   2.683  0.7998  1.6203  0.2083
  378MOL0     H49892   2.617   6.979   2.653  4.5957  0.3462  2.2691
  378MOL0     H49893   2.517   6.839   2.645  1.2226 -0.4830 -2.1949
  378MOL0     H49894   2.703   6.895   3.050 -1.6982 -2.4575  0.4297
  378MOL0     H49895   2.577   6.306   2.691 -1.0494  0.7446 -1.3259
  378MOL0     H49896   2.607   6.073   2.618 -0.0939 -1.5766 -2.0870
  379MOL0     O49897   5.623   3.097   0.171 -0.0709  0.9499  0.2224
  379MOL0     C49898   5.496   3.099   0.192 -0.7456 -0.2568  0.7240
  379MOL0     O49899   5.410   3.152   0.100 -0.2578  0.9883  0.1536
  379MOL0     C49900   5.451   3.163  -0.025 -0.3120  0.5161  0.2914
  379MOL0     C49901   5.432   3.051  -0.109  0.0947 -1.1440  0.4346
  379MOL0     C49902   5.469   3.063  -0.246 -0.5872  1.1978 -0.5739
  379MOL0     C49903   5.515   3.185  -0.303 -0.1673  0.2265  0.2945
  379MOL0     O49904   5.547   3.212  -0.433  0.0382 -0.0584 -0.6271
  379MOL0     C49905   5.547   3.105  -0.532 -0.2491 -0.6242  0.2412
  379MOL0     C49906   5.583   3.153  -0.681 -0.4391 -0.2304  0.9497
  379MOL0     C49907   5.571   3.025  -0.760  0.7393  0.7694 -0.0772
  379MOL0     C49908   5.613   3.029  -0.909 -0.2845  0.5883 -0.3904
  379MOL0     C49909   5.638   2.879  -0.935 -0.0994 -0.2606  0.7602
  379MOL0     C49910   5.687   2.860  -1.088  0.0020 -0.0902 -0.5719
  379MOL0     C49911   5.692   2.704  -1.144 -0.0659  0.6069 -0.7876
  379MOL0     C49912   5.772   2.719  -1.278 -0.0457  0.2701 -0.1117
  379MOL0     N49913   5.794   2.582  -1.332  0.7439 -0.1760 -0.6456
  379MOL0     C49914   5.749   2.533  -1.450  0.1538  0.0210 -0.9523
  379MOL0     C49915   5.801   2.410  -1.468  0.1393  0.7550  0.3103
  379MOL0     C49916   5.791   2.317  -1.588 -0.2421  0.2746  0.0169
  379MOL0     C49917   5.869   2.176  -1.577  0.1534 -0.5182  0.1949
  379MOL0     C49918   5.870   2.108  -1.713 -0.4562  1.6964 -0.5301
  379MOL0     C49919   5.884   1.951  -1.685 -0.2264  0.5353 -0.6169
  379MOL0     O49920   5.863   1.860  -1.791 -0.3531  0.2764 -0.2160
  379MOL0     C49921   5.936   1.878  -1.902 -1.4010  0.0122  0.5017
  379MOL0     C49922   5.890   1.924  -2.016  0.0729  0.3189  0.0717
  379MOL0     C49923   5.953   1.908  -2.138 -0.6252 -0.6201  0.7087
  379MOL0     C49924   6.081   1.843  -2.146 -0.6106 -0.0338  0.0974
  379MOL0     C49925   6.148   1.812  -2.278  0.4569  0.5196 -0.4593
  379MOL0     O49926   6.088   1.843  -2.391  0.5827 -0.5936 -0.8641
  379MOL0     C49927   6.142   1.789  -2.503 -0.3808  0.3555  0.1113
  379MOL0     C49928   6.243   1.858  -2.580 -0.2225  0.5191 -0.0809
  379MOL0     C49929   6.290   1.795  -2.695  0.3460  0.3107  0.5928
  379MOL0     C49930   6.226   1.683  -2.740 -0.0995 -0.6521 -0.1509
  379MOL0     O49931   6.273   1.655  -2.861 -0.7275 -0.2812 -0.8209
  379MOL0     C49932   6.278   1.524  -2.910 -0.0117 -0.4091  0.0733
  379MOL0     C49933   6.383   1.521  -3.018  0.2330  0.1283  0.4614
  379MOL0     C49934   6.340   1.595  -3.138  0.2649  0.5389 -0.4728
  379MOL0     C49935   6.451   1.590  -3.231  0.6798 -0.2113 -0.3839
  379MOL0     C49936   6.431   1.684  -3.353 -0.3696  0.7269 -0.2643
  379MOL0     C49937   6.329   1.639  -3.454 -0.6010  0.4901  0.0650
  379MOL0     C49938   6.346   1.760  -3.554  0.6707 -0.3068 -0.1648
  379MOL0     C49939   6.235   1.766  -3.660 -1.1393  0.2483 -0.7673
  379MOL0    Cl49940   6.074   1.776  -3.591 -0.0809 -0.3133  0.3046
  379MOL0     C49941   6.121   1.623  -2.668 -0.6035  0.2192 -0.1768
  379MOL0     C49942   6.084   1.674  -2.545 -0.7245 -0.4391 -0.2341
  379MOL0     O49943   6.257   1.754  -2.268  0.4154 -0.2393  0.7432
  379MOL0     C49944   6.138   1.795  -2.018 -0.9028  0.0190  0.8481
  379MOL0     C49945   6.072   1.815  -1.900  0.3884 -0.1541 -0.5349
  379MOL0     N49946   5.875   2.388  -1.349  0.4446 -0.2735  0.0184
  379MOL0     N49947   5.878   2.491  -1.276 -0.1096 -0.7205  0.0606
  379MOL0     C49948   5.536   3.292  -0.212  0.1324  0.5682  0.7124
  379MOL0     C49949   5.505   3.286  -0.079  0.2764  0.2691 -0.8465
  379MOL0     C49950   5.462   3.068   0.334  0.2531 -0.3463  0.6154
  379MOL0     C49951   5.326   3.072   0.365 -0.8987  0.8566 -0.9622
  379MOL0     C49952   5.282   3.046   0.493  0.2848 -0.0233 -0.7195
  379MOL0     C49953   5.375   3.014   0.596 -0.0214 -0.2993 -0.0558
  379MOL0     O49954   5.331   2.976   0.720  0.1043 -0.0200 -0.5083
  379MOL0     C49955   5.433   2.960   0.825 -0.4870 -0.7988  0.1028
  379MOL0     C49956   5.366   2.954   0.961 -0.4959 -0.0155 -0.0708
  379MOL0     C49957   5.321   3.087   1.020 -0.5138  0.2673  0.2626
  379MOL0     C49958   5.284   3.069   1.166  0.2589 -0.6519  0.2905
  379MOL0     C49959   5.164   2.992   1.199  0.6535 -0.6254 -0.3453
  379MOL0     C49960   5.063   2.928   1.229 -0.3765 -0.1788  0.0579
  379MOL0     C49961   5.512   2.999   0.561  0.0650 -0.1720 -0.0689
  379MOL0     C49962   5.560   3.022   0.432  0.0532  0.8042 -0.2616
  379MOL0     H49963   5.395   2.959  -0.065  2.2059 -1.4424  1.7123
  379MOL0     H49964   5.456   2.983  -0.318  0.2290 -0.5462  1.1537
  379MOL0     H49965   5.446   3.068  -0.550 -0.3354 -0.0777 -0.4591
  379MOL0     H49966   5.614   3.028  -0.494  0.1865  0.2746  1.3520
  379MOL0     H49967   5.682   3.196  -0.694 -0.3096 -0.6370  0.5467
  379MOL0     H49968   5.522   3.233  -0.724  0.3982  0.0925  0.3493
  379MOL0     H49969   5.469   2.987  -0.763  1.6396 -2.1710  2.1590
  379MOL0     H49970   5.624   2.949  -0.702 -2.9563 -1.5928  0.4714
  379MOL0     H49971   5.531   3.070  -0.967  0.5646 -0.1867 -2.2053
  379MOL0     H49972   5.693   3.103  -0.920 -4.0237  5.3961  1.3641
  379MOL0     H49973   5.542   2.829  -0.921 -0.6405  0.4306 -0.3634
  379MOL0     H49974   5.710   2.836  -0.865 -0.6969 -0.5525  1.2032
  379MOL0     H49975   5.785   2.908  -1.092  2.0263 -3.3132  3.0269
  379MOL0     H49976   5.610   2.918  -1.139 -0.8979  0.2451  1.1112
  379MOL0     H49977   5.740   2.634  -1.075  2.0577  2.0486 -0.7278
  379MOL0     H49978   5.597   2.655  -1.168  0.3313 -1.0763  0.7863
  379MOL0     H49979   5.865   2.772  -1.257  0.0719 -0.0450  0.1678
  379MOL0     H49980   5.713   2.780  -1.348  1.7349  3.5879  1.0367
  379MOL0     H49981   5.697   2.591  -1.525  0.7492 -2.4977 -3.5299
  379MOL0     H49982   5.838   2.369  -1.672  4.3992  3.8993  4.2660
  379MOL0     H49983   5.687   2.289  -1.603 -0.1541 -0.6773  1.0303
  379MOL0     H49984   5.804   2.116  -1.512 -1.0256  0.7484  0.2239
  379MOL0     H49985   5.970   2.184  -1.535 -0.1342 -2.6279  1.4240
  379MOL0     H49986   5.775   2.117  -1.767 -0.9937 -1.8855 -0.4461
  379MOL0     H49987   5.954   2.141  -1.775  0.0149 -1.0411 -1.4846
  379MOL0     H49988   5.801   1.940  -1.615 -1.3747  3.0906 -1.4552
  379MOL0     H49989   5.987   1.933  -1.652 -0.8787  0.6044  1.6205
  379MOL0     H49990   5.790   1.963  -2.006 -0.2667 -0.6827  0.6020
  379MOL0     H49991   5.896   1.945  -2.222  2.3729  3.4656  0.2055
  379MOL0     H49992   6.274   1.959  -2.556  1.0451  0.2673 -0.5646
  379MOL0     H49993   6.364   1.849  -2.752  2.2431  0.4832  3.0332
  379MOL0     H49994   6.179   1.488  -2.940 -0.2063  0.3344 -0.1870
  379MOL0     H49995   6.313   1.469  -2.823  0.1735  1.0512  0.9478
  379MOL0     H49996   6.406   1.419  -3.050 -1.2263  0.1819 -0.8962
  379MOL0     H49997   6.473   1.566  -2.974  2.2360 -3.7458  0.7463
  379MOL0     H49998   6.322   1.695  -3.098  0.1024  0.0739  0.6458
  379MOL0     H49999   6.248   1.558  -3.184 -2.0605  1.4488  3.0802
  379MOL0     H50000   6.542   1.625  -3.182  3.0615 -2.3947 -2.8523
  379MOL0     H50001   6.488   1.490  -3.260  0.5351 -1.4125  3.1586
  379MOL0     H50002   6.533   1.685  -3.394  0.4014  0.3736  1.5077
  379MOL0     H50003   6.404   1.786  -3.321  2.9042  1.9610 -0.9317
  379MOL0     H50004   6.228   1.632  -3.413 -0.8731  0.2048 -0.6393
  379MOL0     H50005   6.355   1.539  -3.491 -0.3377 -0.3594  2.4207
  379MOL0     H50006   6.328   1.850  -3.495 -0.2299 -0.3658 -0.3452
  379MOL0     H50007   6.447   1.763  -3.596  1.7480 -0.3285  2.2512
  379MOL0     H50008   6.238   1.666  -3.703 -4.2277  0.8521 -2.7511
  379MOL0     H50009   6.243   1.823  -3.753 -0.3786  3.0157  0.8693
  379MOL0     H50010   6.080   1.532  -2.710  2.9365 -0.7359 -1.9649
  379MOL0     H50011   5.996   1.628  -2.502 -1.5621 -0.3182 -1.7561
  379MOL0     H50012   6.238   1.756  -2.030 -1.2534  0.0003 -2.9613
  379MOL0     H50013   6.114   1.794  -1.802 -1.3417  1.1862  0.5699
  379MOL0     H50014   5.554   3.393  -0.246 -3.1286  1.6261  1.7390
  379MOL0     H50015   5.509   3.373  -0.014  1.8367 -0.4391  0.0766
  379MOL0     H50016   5.248   3.104   0.297  0.2840 -0.6876 -3.1587
  379MOL0     H50017   5.179   3.040   0.527  0.9037  1.1448  1.5575
  379MOL0     H50018   5.482   3.058   0.823 -1.3363 -0.3766 -0.3533
  379MOL0     H50019   5.498   2.873   0.812 -1.5620 -1.2538 -2.8179
  379MOL0     H50020   5.296   2.870   0.967 -2.7929  1.8533  0.6872
  379MOL0     H50021   5.450   2.917   1.021 -1.7052 -4.0037 -0.5695
  379MOL0     H50022   5.234   3.133   0.973 -1.8324  0.2670  2.6149
  379MOL0     H50023   5.400   3.162   1.026 -1.8178  1.5348  3.3337
  379MOL0     H50024   5.365   3.030   1.228  0.1391  2.3715  2.5766
  379MOL0     H50025   5.262   3.172   1.196 -0.2567 -0.6712 -0.0140
  379MOL0     H50026   4.981   2.866   1.258 -0.0274  0.0900  1.7133
  379MOL0     H50027   5.581   2.966   0.637 -0.3667 -2.6796 -0.6690
  379MOL0     H50028   5.662   3.003   0.403  0.3421  0.5644  0.8406
  380MOL0     O50029   2.223  10.586   5.376 -0.0389  0.0957  0.1004
  380MOL0     C50030   2.178  10.491   5.434  0.1246  0.8005 -1.1085
  380MOL0     O50031   2.113  10.384   5.374  0.3589  0.0563  0.6220
  380MOL0     C50032   2.103  10.391   5.242 -0.1777 -0.8178  0.1617
  380MOL0     C50033   1.985  10.445   5.188 -0.6157  0.1369  0.3010
  380MOL0     C50034   1.971  10.463   5.051  0.6553  0.8338 -0.4838
  380MOL0     C50035   2.081  10.425   4.970  0.3774  0.6751 -0.4473
  380MOL0     O50036   2.066  10.423   4.832  0.0220 -0.2102  1.2438
  380MOL0     C50037   1.933  10.388   4.775 -0.3819  0.0492 -0.4349
  380MOL0     C50038   1.948  10.341   4.630 -0.8209  0.1665 -0.0048
  380MOL0     C50039   2.002  10.455   4.542 -0.2889  0.1755 -0.6140
  380MOL0     C50040   1.910  10.585   4.543 -0.5093  0.5238 -0.8801
  380MOL0     C50041   1.986  10.709   4.495 -0.4019  1.2164  0.3201
  380MOL0     C50042   2.053  10.698   4.348 -0.6727  0.8451 -0.2589
  380MOL0     C50043   2.078  10.825   4.272  0.0681  0.3174  0.0501
  380MOL0     C50044   1.976  10.925   4.256  0.0165  0.0226  0.1281
  380MOL0     N50045   1.854  10.867   4.200 -0.3475  0.1682  0.0211
  380MOL0     C50046   1.820  10.875   4.076 -0.3106  0.4362 -0.2903
  380MOL0     C50047   1.689  10.841   4.072 -0.2842  0.6167  0.4970
  380MOL0     C50048   1.606  10.814   3.941  1.0742 -0.6185 -1.0122
  380MOL0     C50049   1.633  10.679   3.882 -0.5212  0.4049 -0.7333
  380MOL0     C50050   1.552  10.568   3.945  0.2534 -0.1100  0.2225
  380MOL0     C50051   1.567  10.437   3.871 -0.1800 -0.3392  1.1106
  380MOL0     O50052   1.703  10.394   3.858  0.4382  0.7818 -0.4473
  380MOL0     C50053   1.753  10.365   3.734 -0.1372  0.6235  1.0118
  380MOL0     C50054   1.836  10.258   3.720 -0.6148 -0.7658 -0.3211
  380MOL0     C50055   1.893  10.213   3.604 -0.3992  0.0047  0.4981
  380MOL0     C50056   1.857  10.278   3.485  1.7162  0.2579  0.2259
  380MOL0     C50057   1.910  10.232   3.355  0.3879 -0.5094  0.2655
  380MOL0     O50058   1.952  10.098   3.350 -0.5635 -0.0935  0.3256
  380MOL0     C50059   2.009  10.036   3.253 -0.8581 -0.1777  0.3735
  380MOL0     C50060   2.032  10.071   3.118 -0.4373  0.3957 -0.1738
  380MOL0     C50061   2.101   9.987   3.027 -0.3675 -0.9447 -0.8448
  380MOL0     C50062   2.154   9.881   3.084  0.3736  0.5091 -0.2449
  380MOL0     O50063   2.228   9.818   3.001 -0.8322  1.3169 -0.3690
  380MOL0     C50064   2.338   9.722   3.039 -0.7074 -0.2665 -0.2019
  380MOL0     C50065   2.413   9.651   2.921  0.3457 -0.7538 -0.0359
  380MOL0     C50066   2.332   9.542   2.842  0.3975 -0.1850  0.6952
  380MOL0     C50067   2.224   9.594   2.761 -0.8337 -0.3214  0.1740
  380MOL0     C50068   2.138   9.486   2.684 -0.1755 -0.2261  0.2873
  380MOL0     C50069   2.226   9.377   2.608 -0.7335  0.5525 -0.7707
  380MOL0     C50070   2.125   9.292   2.538 -1.2357 -0.4576 -0.0564
  380MOL0     C50071   2.194   9.154   2.502  0.4025 -0.5052  0.0731
  380MOL0    Cl50072   2.066   9.038   2.448 -0.3123 -0.1838 -0.0686
  380MOL0     C50073   2.148   9.849   3.221 -0.1056  1.3764  1.0341
  380MOL0     C50074   2.076   9.920   3.301  0.7340 -0.2426  0.1423
  380MOL0     O50075   1.899  10.303   3.255 -0.7045 -1.0714  1.2130
  380MOL0     C50076   1.769  10.392   3.491  0.0328 -0.0362  0.1941
  380MOL0     C50077   1.712  10.429   3.615 -0.1977  0.2152 -0.1534
  380MOL0     N50078   1.654  10.795   4.199 -0.1832 -0.1739  0.4088
  380MOL0     N50079   1.747  10.827   4.274  0.1359  0.0309 -0.2689
  380MOL0     C50080   2.202  10.379   5.027 -0.5023  0.2079  0.1833
  380MOL0     C50081   2.213  10.361   5.161 -0.6113  0.6113 -0.8121
  380MOL0     C50082   2.192  10.481   5.584 -0.6793  1.3811 -0.6297
  380MOL0     C50083   2.284  10.570   5.657 -0.0462 -0.9133  0.1558
  380MOL0     C50084   2.282  10.574   5.799 -0.6244  0.0714 -0.0248
  380MOL0     C50085   2.208  10.478   5.877 -0.0820 -1.3016 -0.6179
  380MOL0     O50086   2.205  10.479   6.013 -0.0724  0.0669  0.5443
  380MOL0     C50087   2.322  10.425   6.070 -0.7708 -0.4871 -0.6272
  380MOL0     C50088   2.300  10.447   6.225 -0.4393  0.3151  0.6526
  380MOL0     C50089   2.192  10.359   6.272 -0.3178 -0.7371 -1.1165
  380MOL0     C50090   2.182  10.365   6.432 -0.2982  0.7720  0.0539
  380MOL0     C50091   2.049  10.314   6.473  1.0068 -0.3176  0.4827
  380MOL0     C50092   1.940  10.272   6.510  0.2964 -0.3677 -0.9004
  380MOL0     C50093   2.133  10.386   5.803  1.2891  0.0678  0.1365
  380MOL0     C50094   2.123  10.386   5.662  0.7210 -0.0087 -0.0328
  380MOL0     H50095   1.913  10.498   5.251  1.0817  0.0447  2.4263
  380MOL0     H50096   1.891  10.523   5.008  2.7207  2.9421 -1.6504
  380MOL0     H50097   1.861  10.470   4.788 -0.2041  0.1681 -0.1833
  380MOL0     H50098   1.889  10.313   4.841  0.5365 -0.0802  0.0372
  380MOL0     H50099   1.850  10.318   4.587  1.2134 -3.7346 -3.3223
  380MOL0     H50100   2.024  10.262   4.624  2.3148  3.0949 -3.6237
  380MOL0     H50101   2.009  10.416   4.439  1.2140  2.8223 -1.6054
  380MOL0     H50102   2.101  10.487   4.575 -0.8514 -0.5904  1.9815
  380MOL0     H50103   1.821  10.561   4.484 -1.3516 -0.2397  0.6394
  380MOL0     H50104   1.879  10.612   4.644  0.4940  0.0387 -0.4394
  380MOL0     H50105   2.053  10.738   4.576 -0.8175 -0.1071  1.1682
  380MOL0     H50106   1.910  10.788   4.488 -2.5485 -0.4565  2.9671
  380MOL0     H50107   1.982  10.636   4.292 -0.4682  0.0127  0.3771
  380MOL0     H50108   2.147  10.642   4.358 -2.0848 -1.5765  0.3642
  380MOL0     H50109   2.160  10.876   4.323 -1.8538  1.0535  2.6056
  380MOL0     H50110   2.115  10.799   4.172  0.7557  3.4195 -0.5861
  380MOL0     H50111   2.005  11.005   4.188 -0.2860  0.0605  0.0419
  380MOL0     H50112   1.964  10.965   4.357  0.8839  2.3973 -0.6561
  380MOL0     H50113   1.889  10.920   4.006  0.3551  4.4608  2.6065
  380MOL0     H50114   1.641  10.893   3.875  2.8723 -0.4241  0.0911
  380MOL0     H50115   1.500  10.820   3.966  1.7051  3.4944  1.8138
  380MOL0     H50116   1.740  10.658   3.884 -0.3738  1.1345 -0.8296
  380MOL0     H50117   1.593  10.679   3.781 -1.6627 -0.4248 -0.3070
  380MOL0     H50118   1.579  10.560   4.050  1.2006  2.2299  0.2165
  380MOL0     H50119   1.445  10.589   3.948 -0.0363 -1.4038 -0.2104
  380MOL0     H50120   1.510  10.454   3.779  0.9882  2.3424  0.8054
  380MOL0     H50121   1.521  10.362   3.936  0.5527  1.3663  3.7359
  380MOL0     H50122   1.843  10.203   3.813  0.0061 -3.1494 -1.7021
  380MOL0     H50123   1.946  10.119   3.599 -0.0329  0.1589  1.2933
  380MOL0     H50124   1.985  10.164   3.088  1.3667  0.7494 -2.1172
  380MOL0     H50125   2.114  10.011   2.922  1.6394 -2.5119 -1.0154
  380MOL0     H50126   2.294   9.642   3.098  2.8396 -3.5643 -1.6115
  380MOL0     H50127   2.412   9.786   3.089  0.9969 -2.2286 -0.1074
  380MOL0     H50128   2.496   9.602   2.972  0.7897 -1.7636 -1.6417
  380MOL0     H50129   2.449   9.734   2.859  1.0236 -1.1789 -0.2300
  380MOL0     H50130   2.288   9.475   2.916  1.7156 -3.2149 -1.0605
  380MOL0     H50131   2.395   9.484   2.773  0.3561 -1.2385  1.5178
  380MOL0     H50132   2.155   9.646   2.827 -0.5771  0.4160 -0.1183
  380MOL0     H50133   2.265   9.659   2.683 -0.7323  1.8134  1.9111
  380MOL0     H50134   2.064   9.531   2.617 -1.5693 -2.5364  0.1667
  380MOL0     H50135   2.071   9.431   2.751 -1.1467 -0.1334 -0.5808
  380MOL0     H50136   2.268   9.325   2.695 -4.0897  0.9444  1.2651
  380MOL0     H50137   2.307   9.420   2.550 -2.0927  3.5701 -0.6202
  380MOL0     H50138   2.032   9.264   2.590 -0.5878 -3.5015 -0.3203
  380MOL0     H50139   2.086   9.339   2.447 -2.5921 -0.3304  0.5621
  380MOL0     H50140   2.248   9.101   2.581  0.1409  0.4012  0.8823
  380MOL0     H50141   2.262   9.169   2.418 -2.9128  0.5041 -2.6424
  380MOL0     H50142   2.199   9.758   3.250 -0.8046  1.1523  1.5752
  380MOL0     H50143   2.067   9.901   3.407  1.3587 -2.0272 -0.0949
  380MOL0     H50144   1.768  10.458   3.405  5.2214  0.3822  0.1336
  380MOL0     H50145   1.652  10.519   3.603  2.1393  2.0416  0.8671
  380MOL0     H50146   2.282  10.353   4.959  0.6733  3.6640  0.0135
  380MOL0     H50147   2.300  10.335   5.220  1.7960  0.2780 -4.2241
  380MOL0     H50148   2.344  10.649   5.613 -1.8635  1.1001  1.1678
  380MOL0     H50149   2.344  10.639   5.860 -0.5612 -1.1757  1.3027
  380MOL0     H50150   2.409  10.481   6.034  0.5191 -1.3065  1.0518
  380MOL0     H50151   2.331  10.321   6.036 -2.3062 -0.7993 -0.1726
  380MOL0     H50152   2.394  10.421   6.275 -0.8103  0.1094  1.2420
  380MOL0     H50153   2.282  10.553   6.244 -1.3751  0.5659 -1.4206
  380MOL0     H50154   2.212  10.253   6.252 -2.0573 -1.3423  0.1264
  380MOL0     H50155   2.102  10.404   6.228 -0.2591  1.7923  1.1351
  380MOL0     H50156   2.263  10.311   6.481 -0.5729 -0.5489 -0.9055
  380MOL0     H50157   2.182  10.472   6.456  2.5246  1.0244 -0.6787
  380MOL0     H50158   1.841  10.239   6.534  0.1219 -0.5067 -1.7784
  380MOL0     H50159   2.065  10.321   5.858 -0.6110  0.2038 -1.9236
  380MOL0     H50160   2.065  10.314   5.606 -0.9672  1.0620  0.2654
  381MOL0     O50161   7.088   7.329  10.315  0.2781  1.0398 -0.3126
  381MOL0     C50162   6.974   7.300  10.283  0.8099  0.7754 -0.0669
  381MOL0     O50163   6.887   7.242  10.364 -0.0928 -0.9437 -0.6366
  381MOL0     C50164   6.932   7.211  10.494  0.0761 -0.2952  0.6067
  381MOL0     C50165   6.924   7.291  10.605  0.1113 -0.0148 -0.2110
  381MOL0     C50166   6.972   7.239  10.736  0.2591  0.3754  0.9942
  381MOL0     C50167   6.986   7.102  10.751  0.4207 -0.0642  0.5272
  381MOL0     O50168   7.004   7.031  10.870 -0.4293 -0.3974 -0.1888
  381MOL0     C50169   6.870   7.029  10.929  0.4206  1.1545 -0.5315
  381MOL0     C50170   6.847   6.909  11.019 -0.4109  0.2923  0.4133
  381MOL0     C50171   6.857   6.781  10.939  0.5888 -0.2926 -0.6953
  381MOL0     C50172   6.751   6.784  10.822  0.0878  0.0628 -0.1150
  381MOL0     C50173   6.747   6.635  10.767  1.0791  0.0786 -0.3666
  381MOL0     C50174   6.694   6.622  10.629  0.6499  0.3966  0.0668
  381MOL0     C50175   6.779   6.677  10.516  0.3371  0.2750  0.5900
  381MOL0     C50176   6.777   6.581  10.399 -0.1776  0.1659 -0.4462
  381MOL0     N50177   6.655   6.585  10.316  0.0393  0.0895  0.2903
  381MOL0     C50178   6.632   6.516  10.200 -0.4150  0.5967 -0.4076
  381MOL0     C50179   6.505   6.534  10.169 -0.1217  0.0543  0.0327
  381MOL0     C50180   6.429   6.475  10.056  1.0640 -0.0971  0.1782
  381MOL0     C50181   6.377   6.584   9.957 -0.3914  0.5721  0.6520
  381MOL0     C50182   6.257   6.662  10.010  0.5227  0.8059 -0.2149
  381MOL0     C50183   6.125   6.601   9.998  0.9509 -0.0127  0.7559
  381MOL0     O50184   6.032   6.694  10.065 -0.5658 -0.0917 -0.6975
  381MOL0     C50185   5.999   6.662  10.194  0.0309 -1.0286  1.2114
  381MOL0     C50186   6.016   6.535  10.256 -0.7200 -0.5236 -0.2694
  381MOL0     C50187   5.964   6.501  10.376  0.5496  0.7518  0.3745
  381MOL0     C50188   5.894   6.599  10.452 -0.0138 -0.7334  0.1539
  381MOL0     C50189   5.842   6.578  10.586 -0.3707  0.1545  0.2283
  381MOL0     O50190   5.733   6.650  10.624  0.0559  0.5708  0.5220
  381MOL0     C50191   5.694   6.673  10.752 -1.0901 -0.3128 -0.3732
  381MOL0     C50192   5.568   6.639  10.801 -0.3413  0.7306 -0.7628
  381MOL0     C50193   5.540   6.665  10.937 -0.5966 -0.6120 -0.1698
  381MOL0     C50194   5.624   6.742  11.013 -0.7270  0.7505  0.2771
  381MOL0     O50195   5.579   6.779  11.136 -1.5235 -0.2638  0.5713
  381MOL0     C50196   5.507   6.896  11.131  0.1321 -0.8097 -0.7442
  381MOL0     C50197   5.526   6.965  11.270 -1.0057  0.0020 -0.7562
  381MOL0     C50198   5.459   6.893  11.383  0.0169  1.0358 -0.0349
  381MOL0     C50199   5.472   6.974  11.517 -0.8505 -0.4823  0.2339
  381MOL0     C50200   5.381   6.915  11.624 -0.2888 -0.2031  0.1126
  381MOL0     C50201   5.430   6.948  11.765  0.9771 -0.5107 -0.7565
  381MOL0     C50202   5.357   6.859  11.878 -0.0273 -0.2814  0.4883
  381MOL0     C50203   5.430   6.887  12.012 -0.4920  0.0604 -0.1614
  381MOL0    Cl50204   5.319   6.803  12.136  0.3944  0.0909  0.3494
  381MOL0     C50205   5.753   6.778  10.966 -0.2597 -0.0942 -0.3900
  381MOL0     C50206   5.784   6.742  10.838  0.2069  0.4908  0.4526
  381MOL0     O50207   5.910   6.504  10.668  0.5317 -0.6650  0.1130
  381MOL0     C50208   5.871   6.730  10.395 -0.8376 -0.5364  0.7560
  381MOL0     C50209   5.926   6.760  10.263 -0.0514  0.5252 -0.7514
  381MOL0     N50210   6.448   6.618  10.268 -0.6773  0.6657  0.3361
  381MOL0     N50211   6.538   6.643  10.357 -0.3188 -0.0585  0.0088
  381MOL0     C50212   6.987   7.023  10.640 -0.0862 -0.4487  0.7082
  381MOL0     C50213   6.962   7.070  10.514  0.8847 -0.2240  1.3601
  381MOL0     C50214   6.923   7.314  10.148  0.1455 -1.0174  0.6875
  381MOL0     C50215   6.807   7.240  10.107  0.6675 -0.3698 -0.2379
  381MOL0     C50216   6.752   7.265   9.980  0.8539 -0.9386 -0.4560
  381MOL0     C50217   6.822   7.338   9.882 -1.1083 -0.7508 -0.8386
  381MOL0     O50218   6.765   7.357   9.761  0.3868 -0.1983 -0.4297
  381MOL0     C50219   6.791   7.486   9.703  0.9800 -0.2141 -0.3526
  381MOL0     C50220   6.676   7.504   9.589 -0.6572  0.1458 -0.2596
  381MOL0     C50221   6.537   7.554   9.647  0.3278 -0.3590 -0.2211
  381MOL0     C50222   6.450   7.437   9.693  0.5080 -0.1330 -0.5039
  381MOL0     C50223   6.313   7.482   9.745 -0.1277 -1.1712 -0.0642
  381MOL0     C50224   6.204   7.529   9.787 -0.7711  0.6212  1.0979
  381MOL0     C50225   6.949   7.393   9.922 -0.1409 -0.7772 -0.3851
  381MOL0     C50226   6.999   7.378  10.046  0.6602  0.2110  0.1769
  381MOL0     H50227   6.904   7.396  10.590 -0.9287 -0.7113 -5.1274
  381MOL0     H50228   6.987   7.309  10.817 -0.5536 -0.2569  1.7033
  381MOL0     H50229   6.784   7.029  10.860  0.7853 -0.7771 -1.0431
  381MOL0     H50230   6.873   7.118  10.992 -3.6322  2.0272 -1.2958
  381MOL0     H50231   6.754   6.911  11.076  0.3459 -0.8879  1.7757
  381MOL0     H50232   6.924   6.899  11.097 -3.3381 -1.6701  3.3136
  381MOL0     H50233   6.831   6.696  11.003 -0.1779 -0.7934 -1.6387
  381MOL0     H50234   6.958   6.773  10.897  1.3322  1.0148  0.7402
  381MOL0     H50235   6.648   6.804  10.851  0.2401 -0.6912  1.0081
  381MOL0     H50236   6.777   6.858  10.746  2.7266 -0.2300  0.4147
  381MOL0     H50237   6.671   6.581  10.824 -0.1870  2.3758  0.2790
  381MOL0     H50238   6.847   6.593  10.779  0.9015  0.1199  1.5745
  381MOL0     H50239   6.594   6.665  10.622 -0.7701 -2.9111 -2.6358
  381MOL0     H50240   6.681   6.515  10.608  0.3114  0.4692 -0.0962
  381MOL0     H50241   6.748   6.778  10.490  1.6799  0.9603  1.5826
  381MOL0     H50242   6.882   6.689  10.551  0.1691  0.8663  0.8898
  381MOL0     H50243   6.786   6.476  10.429 -3.4377  0.3442  1.7026
  381MOL0     H50244   6.864   6.606  10.338  1.7550 -0.4211  1.9244
  381MOL0     H50245   6.707   6.455  10.150  0.3072  2.0184 -1.0941
  381MOL0     H50246   6.350   6.416  10.104  0.8903 -1.5532 -1.7922
  381MOL0     H50247   6.495   6.407  10.002  0.4794 -1.2539  0.8782
  381MOL0     H50248   6.354   6.544   9.858  1.6834  1.1062 -0.0958
  381MOL0     H50249   6.463   6.645   9.929 -0.6827 -0.3500 -2.6480
  381MOL0     H50250   6.272   6.672  10.118  2.5630 -5.0020  0.3677
  381MOL0     H50251   6.259   6.761   9.963 -0.2551 -0.2530 -2.6237
  381MOL0     H50252   6.123   6.497  10.031  0.9872 -0.0559  0.6218
  381MOL0     H50253   6.103   6.612   9.891  2.5509 -0.1544  0.3944
  381MOL0     H50254   6.074   6.460  10.204  0.5878 -0.0571  0.4742
  381MOL0     H50255   5.972   6.394  10.394 -0.8329  0.2272 -1.8041
  381MOL0     H50256   5.501   6.579  10.740  1.9678  0.6594 -3.4450
  381MOL0     H50257   5.442   6.640  10.977 -1.1239 -1.6418 -1.9921
  381MOL0     H50258   5.400   6.881  11.114 -0.0234 -1.6205  0.7407
  381MOL0     H50259   5.548   6.965  11.057 -0.6888  1.4991  0.8571
  381MOL0     H50260   5.487   7.067  11.264  3.7332  2.1187 -0.3603
  381MOL0     H50261   5.632   6.970  11.295 -0.4639 -0.5160 -2.8299
  381MOL0     H50262   5.504   6.794  11.392 -0.2991  1.0624  2.8780
  381MOL0     H50263   5.354   6.866  11.365  1.4622 -5.4854 -1.3416
  381MOL0     H50264   5.573   6.978  11.558 -1.1668  4.1877  1.1915
  381MOL0     H50265   5.430   7.075  11.516 -1.7078 -0.8060  1.2420
  381MOL0     H50266   5.389   6.807  11.607 -0.2293 -0.2403  0.3728
  381MOL0     H50267   5.278   6.944  11.601 -1.1563 -2.4741  0.8114
  381MOL0     H50268   5.409   7.053  11.789 -0.7074 -1.6135  3.6889
  381MOL0     H50269   5.538   6.933  11.769  0.9852 -0.6558 -1.4595
  381MOL0     H50270   5.249   6.874  11.872  0.1799  1.7800  1.3128
  381MOL0     H50271   5.382   6.755  11.852 -0.6156 -0.0410 -1.1377
  381MOL0     H50272   5.428   6.996  12.025 -2.0930 -0.2515  2.8815
  381MOL0     H50273   5.533   6.849  12.012  0.5248  2.4439  2.7805
  381MOL0     H50274   5.815   6.835  11.034 -0.2081 -0.7639  0.1385
  381MOL0     H50275   5.877   6.775  10.791 -0.0353  0.6113  0.0536
  381MOL0     H50276   5.808   6.804  10.444 -1.5879 -2.3807  2.6951
  381MOL0     H50277   5.925   6.849  10.201 -0.2140  0.1572 -1.2807
  381MOL0     H50278   7.007   6.918  10.657 -0.0967 -0.6915 -0.6916
  381MOL0     H50279   6.953   7.006  10.427 -1.2429  2.3451 -0.4682
  381MOL0     H50280   6.749   7.171  10.168 -0.4709 -1.6017 -2.5407
  381MOL0     H50281   6.655   7.221   9.956  0.3678 -1.9615  2.8750
  381MOL0     H50282   6.888   7.475   9.654  0.2847 -0.8406 -1.6438
  381MOL0     H50283   6.793   7.569   9.774 -0.9160  1.4521 -2.0963
  381MOL0     H50284   6.716   7.569   9.510  1.9421 -0.2286  0.6283
  381MOL0     H50285   6.663   7.411   9.534  1.0292  0.2664 -0.9466
  381MOL0     H50286   6.477   7.596   9.566  0.0212  1.3747  0.8595
  381MOL0     H50287   6.531   7.632   9.723 -4.2549  0.8187 -1.4935
  381MOL0     H50288   6.439   7.361   9.616  0.7806 -1.2086  0.4959
  381MOL0     H50289   6.511   7.398   9.775  1.2758 -0.3329 -1.1590
  381MOL0     H50290   6.122   7.575   9.836 -1.2754 -1.0126  1.8652
  381MOL0     H50291   7.014   7.446   9.852 -1.8058  5.2386  1.9856
  381MOL0     H50292   7.097   7.418  10.069  0.7228  1.6852 -2.3371
  382MOL0     O50293   9.678  10.287   7.944  0.1841 -0.8012  0.3661
  382MOL0     C50294   9.779  10.220   7.929 -0.3819 -0.1785  0.1691
  382MOL0     O50295   9.831  10.156   8.033  0.0008  0.2843  0.5330
  382MOL0     C50296   9.772  10.171   8.151  0.6737 -0.2393 -0.1581
  382MOL0     C50297   9.676  10.084   8.193 -0.7755 -0.5789 -0.1257
  382MOL0     C50298   9.626  10.096   8.318  0.0359  0.5837 -0.5302
  382MOL0     C50299   9.664  10.191   8.407  0.3464 -1.0889 -0.4770
  382MOL0     O50300   9.608  10.182   8.535  0.6603 -0.2382 -0.7933
  382MOL0     C50301   9.608  10.291   8.620 -0.4502  0.4307  1.0261
  382MOL0     C50302   9.738  10.297   8.703 -0.2968  0.4922  0.2876
  382MOL0     C50303   9.731  10.408   8.811 -0.8679  0.3020 -0.7316
  382MOL0     C50304   9.695  10.551   8.759  0.4437 -0.6653 -0.3646
  382MOL0     C50305   9.685  10.641   8.896  0.1548 -0.1114  1.1073
  382MOL0     C50306   9.614  10.773   8.867  0.6479  0.1472  0.2649
  382MOL0     C50307   9.552  10.836   8.994  0.5120  0.5245  0.0185
  382MOL0     C50308   9.653  10.860   9.110 -0.5495 -0.5795 -0.0910
  382MOL0     N50309   9.768  10.943   9.092 -0.4485  0.0810  0.7055
  382MOL0     C50310   9.804  11.048   9.165  0.1916 -0.4521 -0.6149
  382MOL0     C50311   9.921  11.093   9.115  0.8365 -0.3940 -0.0590
  382MOL0     C50312  10.024  11.198   9.173  0.4087 -0.5753  0.6459
  382MOL0     C50313   9.977  11.344   9.132  1.1421  0.0498 -0.5814
  382MOL0     C50314   9.939  11.378   8.992  0.3492 -0.3772 -0.2748
  382MOL0     C50315  10.042  11.338   8.881 -0.3495 -0.6162 -0.3058
  382MOL0     O50316  10.136  11.448   8.862 -0.4712  0.3203  0.0693
  382MOL0     C50317  10.249  11.412   8.800  0.0573 -0.5733 -0.5595
  382MOL0     C50318  10.346  11.349   8.873  0.0371  0.1104  0.3802
  382MOL0     C50319  10.465  11.327   8.807 -0.0031  0.3260  0.4659
  382MOL0     C50320  10.495  11.363   8.674 -0.0852  0.4211  0.5725
  382MOL0     C50321  10.620  11.316   8.606  1.3564  0.8142 -0.1032
  382MOL0     O50322  10.616  11.195   8.538  0.2065 -0.1773 -0.8716
  382MOL0     C50323  10.708  11.153   8.453  0.5142 -0.3200  0.6139
  382MOL0     C50324  10.729  11.012   8.451 -0.2288  1.1110 -0.2533
  382MOL0     C50325  10.817  10.947   8.362 -0.1617 -1.0604  0.9547
  382MOL0     C50326  10.897  11.021   8.281 -0.1586  0.0777  0.5688
  382MOL0     O50327  10.992  10.963   8.202  0.4197 -1.0335  0.1877
  382MOL0     C50328  11.124  11.020   8.233 -0.0451  0.4667 -0.3237
  382MOL0     C50329  11.235  10.911   8.251  0.0122 -0.2511 -0.5288
  382MOL0     C50330  11.282  10.853   8.118 -0.5058  0.5480 -0.3749
  382MOL0     C50331  11.406  10.773   8.141  0.0034 -0.5322  0.6132
  382MOL0     C50332  11.387  10.628   8.198 -0.3281 -0.3701  0.1158
  382MOL0     C50333  11.520  10.570   8.244  0.1163 -0.8022  0.2690
  382MOL0     C50334  11.509  10.426   8.286 -0.6855 -0.3752  0.1294
  382MOL0     C50335  11.653  10.378   8.293  0.1199 -0.4309 -1.1398
  382MOL0    Cl50336  11.737  10.450   8.439 -0.5889  0.4397  0.2445
  382MOL0     C50337  10.889  11.163   8.286 -0.3459 -0.2195  0.2542
  382MOL0     C50338  10.800  11.233   8.374  0.7058 -0.1695 -0.3319
  382MOL0     O50339  10.713  11.386   8.619  0.2779  0.3341  0.1463
  382MOL0     C50340  10.391  11.436   8.609 -0.1723 -0.1732 -0.6151
  382MOL0     C50341  10.275  11.459   8.675 -1.0235  0.2739  1.4310
  382MOL0     N50342   9.952  11.027   9.003 -0.7108 -0.4337 -0.8131
  382MOL0     N50343   9.854  10.942   8.982 -0.3573  0.2905  0.1144
  382MOL0     C50344   9.757  10.292   8.363  0.4971  0.9670 -0.7953
  382MOL0     C50345   9.812  10.275   8.232  0.0990  0.5758  0.1934
  382MOL0     C50346   9.838  10.195   7.788 -0.8578  0.9224 -0.5298
  382MOL0     C50347   9.770  10.227   7.670 -0.4798  0.8652 -0.2565
  382MOL0     C50348   9.826  10.202   7.550 -0.8695 -0.0757  0.8886
  382MOL0     C50349   9.950  10.153   7.530 -1.1654  0.4931 -0.6924
  382MOL0     O50350  10.000  10.133   7.401 -0.6433  0.7720 -0.9967
  382MOL0     C50351  10.141  10.113   7.387  0.7399  1.0406 -0.4831
  382MOL0     C50352  10.220  10.243   7.403  0.4292 -0.5425  0.2962
  382MOL0     C50353  10.178  10.357   7.298 -1.6867  0.3272 -1.0956
  382MOL0     C50354  10.299  10.448   7.282 -1.1107  0.4774  0.3154
  382MOL0     C50355  10.277  10.573   7.209  0.4665  0.2172  0.0774
  382MOL0     C50356  10.261  10.681   7.160 -0.8263 -0.1056  0.1364
  382MOL0     C50357  10.018  10.118   7.648  0.4011 -0.6604  0.6777
  382MOL0     C50358   9.961  10.138   7.774 -0.2376 -0.2013  1.3080
  382MOL0     H50359   9.632  10.006   8.130 -4.7003  1.5975 -0.3942
  382MOL0     H50360   9.566  10.012   8.351  1.4122 -0.5090 -0.7405
  382MOL0     H50361   9.531  10.298   8.697  0.2608  0.1220  1.7811
  382MOL0     H50362   9.598  10.388   8.571 -0.2800 -0.3799 -0.6987
  382MOL0     H50363   9.807  10.321   8.621 -1.4326 -2.5890 -1.7700
  382MOL0     H50364   9.759  10.198   8.744 -1.8227  0.7929  1.8722
  382MOL0     H50365   9.826  10.412   8.865 -0.3358 -0.4278 -1.5924
  382MOL0     H50366   9.658  10.375   8.886  2.6480 -0.1604  2.8330
  382MOL0     H50367   9.778  10.587   8.698 -0.5987 -0.9062 -1.9896
  382MOL0     H50368   9.607  10.557   8.695  0.3929 -2.0385 -0.4399
  382MOL0     H50369   9.785  10.648   8.939  1.5102  1.8490 -1.9983
  382MOL0     H50370   9.621  10.591   8.969 -2.1607  2.5740  1.0724
  382MOL0     H50371   9.533  10.758   8.796 -0.4035  2.1704  0.9419
  382MOL0     H50372   9.681  10.848   8.824 -0.9882  4.4386  4.3555
  382MOL0     H50373   9.498  10.925   8.962  0.1635  0.5660  0.7131
  382MOL0     H50374   9.481  10.761   9.031  3.9868 -2.5197  1.1809
  382MOL0     H50375   9.687  10.764   9.150  0.0008  0.8938  3.3136
  382MOL0     H50376   9.595  10.906   9.190 -0.8470  1.2231 -1.2626
  382MOL0     H50377   9.749  11.084   9.252 -1.7695  1.0222 -2.3648
  382MOL0     H50378  10.121  11.168   9.133 -1.0504 -2.8658 -1.4909
  382MOL0     H50379  10.010  11.180   9.280 -0.9073  1.5206  0.8888
  382MOL0     H50380  10.059  11.404   9.173  2.3951 -1.6995 -0.4170
  382MOL0     H50381   9.894  11.370   9.197  0.8853  1.7777 -1.5469
  382MOL0     H50382   9.847  11.323   8.966  0.1684 -0.1932 -0.0216
  382MOL0     H50383   9.912  11.483   8.976 -1.5921 -1.0145 -1.6445
  382MOL0     H50384   9.980  11.318   8.793 -1.1748 -0.3971  0.2029
  382MOL0     H50385  10.090  11.244   8.909 -1.8662 -1.0848  0.9162
  382MOL0     H50386  10.315  11.316   8.972  0.7323  0.1250  0.6047
  382MOL0     H50387  10.543  11.267   8.854 -2.0159 -0.4924  3.0086
  382MOL0     H50388  10.671  10.953   8.522 -1.1859 -0.3105 -2.1349
  382MOL0     H50389  10.826  10.839   8.354 -1.9876 -1.1263 -1.0813
  382MOL0     H50390  11.126  11.075   8.328  0.3815  2.5706 -1.4866
  382MOL0     H50391  11.156  11.090   8.155 -0.6828  0.1442 -0.8816
  382MOL0     H50392  11.205  10.835   8.324  0.6314  0.5112  0.5692
  382MOL0     H50393  11.323  10.945   8.306  0.5085 -4.1299  1.4238
  382MOL0     H50394  11.318  10.936   8.057  1.1140  0.6878  0.7211
  382MOL0     H50395  11.208  10.791   8.064  0.9381  0.7600 -2.7502
  382MOL0     H50396  11.472  10.757   8.055  2.8227 -2.7572  2.9901
  382MOL0     H50397  11.457  10.842   8.210 -1.4826 -0.0637  1.2797
  382MOL0     H50398  11.328  10.556   8.141  0.8072 -2.3547  1.3480
  382MOL0     H50399  11.335  10.638   8.294  0.9538  2.3388  0.6405
  382MOL0     H50400  11.557  10.637   8.322  1.0201 -0.4472 -0.4262
  382MOL0     H50401  11.596  10.584   8.165 -1.2318  4.2206 -0.4922
  382MOL0     H50402  11.460  10.399   8.380  2.3203 -3.1106  1.0781
  382MOL0     H50403  11.471  10.354   8.213 -1.1867 -0.9548  0.9511
  382MOL0     H50404  11.709  10.394   8.200  0.6813 -1.5027 -1.0058
  382MOL0     H50405  11.650  10.269   8.302 -2.3001 -0.4846 -1.9384
  382MOL0     H50406  10.949  11.216   8.212 -1.5875  0.3762 -0.3437
  382MOL0     H50407  10.814  11.340   8.382  0.0097 -0.2158  3.1749
  382MOL0     H50408  10.417  11.487   8.517  1.2565 -0.8137 -0.5914
  382MOL0     H50409  10.202  11.519   8.621 -0.7650 -2.4033 -2.3092
  382MOL0     H50410   9.781  10.375   8.429 -2.5751  1.9085 -0.6818
  382MOL0     H50411   9.897  10.333   8.197  0.6150 -1.1534 -1.5947
  382MOL0     H50412   9.670  10.268   7.678 -0.3847  1.2717 -1.0408
  382MOL0     H50413   9.765  10.229   7.464 -1.9916 -0.9688  1.3739
  382MOL0     H50414  10.161  10.065   7.291  2.3309  0.3790  0.1263
  382MOL0     H50415  10.186  10.042   7.458 -0.6207  1.4265  0.8053
  382MOL0     H50416  10.206  10.274   7.507  1.7372 -4.3209  1.7552
  382MOL0     H50417  10.326  10.220   7.391  0.5435 -0.3265  0.8531
  382MOL0     H50418  10.099  10.417   7.343 -1.4473 -0.5330  0.5547
  382MOL0     H50419  10.141  10.309   7.206 -1.6103 -4.2433  0.9922
  382MOL0     H50420  10.338  10.467   7.383 -0.6186 -0.0155  0.2176
  382MOL0     H50421  10.379  10.400   7.226 -1.9795 -2.6230  1.4956
  382MOL0     H50422  10.246  10.762   7.091  0.1756  0.0051  0.0387
  382MOL0     H50423  10.117  10.074   7.648  0.2360 -1.2739 -2.4114
  382MOL0     H50424  10.010  10.101   7.864 -2.0844 -1.3971  1.8915
  383MOL0     O50425   1.975   2.731   0.801 -0.0257  0.1436  0.7625
  383MOL0     C50426   1.954   2.771   0.688  0.1327 -0.0430  1.3782
  383MOL0     O50427   2.040   2.756   0.583  0.2767 -0.3522  0.0235
  383MOL0     C50428   2.160   2.696   0.578 -1.3098  0.5323  0.7570
  383MOL0     C50429   2.253   2.701   0.683 -0.1652 -0.0715 -0.1797
  383MOL0     C50430   2.369   2.630   0.682  0.6140  0.8567  0.4530
  383MOL0     C50431   2.392   2.531   0.579  0.5735 -0.4664  0.2986
  383MOL0     O50432   2.513   2.453   0.567 -0.0407  0.2045 -0.6780
  383MOL0     C50433   2.599   2.476   0.679 -0.8965 -0.7747  0.2347
  383MOL0     C50434   2.710   2.378   0.678 -0.1309 -0.1963 -0.1559
  383MOL0     C50435   2.665   2.236   0.711 -0.4115 -0.0811 -0.3327
  383MOL0     C50436   2.788   2.149   0.717  1.1418  0.1979 -0.7095
  383MOL0     C50437   2.751   1.993   0.733 -0.2936 -0.2988  0.6489
  383MOL0     C50438   2.728   1.950   0.869  0.1293  0.2353  0.0646
  383MOL0     C50439   2.757   1.800   0.901 -0.5540  0.0814  1.0625
  383MOL0     C50440   2.738   1.776   1.046  0.8606  0.1420  0.1287
  383MOL0     N50441   2.832   1.850   1.130 -0.1244 -0.0275  0.1351
  383MOL0     C50442   2.968   1.883   1.107 -0.2648 -0.0831 -0.1614
  383MOL0     C50443   2.994   1.960   1.219  0.3874 -0.0119  1.1035
  383MOL0     C50444   3.123   2.026   1.242  0.2950 -0.0560 -0.5619
  383MOL0     C50445   3.162   2.012   1.387  0.3215 -0.3515  0.1192
  383MOL0     C50446   3.282   2.105   1.404 -0.4621 -0.3112  0.3704
  383MOL0     C50447   3.340   2.090   1.540  0.3066 -0.2924 -0.3026
  383MOL0     O50448   3.235   2.099   1.640  0.4294  0.4908  0.9227
  383MOL0     C50449   3.262   2.053   1.769 -0.6705  0.6586  1.0896
  383MOL0     C50450   3.379   2.069   1.836 -0.6340 -0.5087  0.2383
  383MOL0     C50451   3.399   2.018   1.963 -0.5899 -0.3662 -0.7165
  383MOL0     C50452   3.294   1.941   2.019 -0.7515  0.5088 -0.0214
  383MOL0     C50453   3.310   1.885   2.149  1.0190  1.0013 -0.0044
  383MOL0     O50454   3.414   1.927   2.229 -0.0936 -0.3538 -0.1982
  383MOL0     C50455   3.471   1.863   2.338 -0.6456  0.5629  0.3224
  383MOL0     C50456   3.519   1.950   2.444 -0.1926  0.1304 -0.2112
  383MOL0     C50457   3.577   1.895   2.553  0.5829  0.5055  0.4323
  383MOL0     C50458   3.608   1.760   2.561  1.6321  0.9128  0.1602
  383MOL0     O50459   3.662   1.692   2.671 -0.1120 -0.6739 -0.0012
  383MOL0     C50460   3.739   1.767   2.771  0.5005  1.2500 -0.5336
  383MOL0     C50461   3.788   1.670   2.880  0.6450 -0.6318 -0.2893
  383MOL0     C50462   3.663   1.580   2.927 -0.0928 -0.5474 -0.2659
  383MOL0     C50463   3.551   1.650   3.002 -0.1420  1.1494  0.1919
  383MOL0     C50464   3.446   1.550   3.062  0.1829  0.8165  0.5293
  383MOL0     C50465   3.349   1.632   3.143 -0.2407  0.1395  0.2976
  383MOL0     C50466   3.271   1.542   3.237  0.4544 -0.9930 -0.5072
  383MOL0     C50467   3.146   1.612   3.296 -0.2078 -0.3399 -0.3252
  383MOL0    Cl50468   3.178   1.778   3.335  0.3074 -0.1375  0.4302
  383MOL0     C50469   3.573   1.678   2.457 -0.4651  0.0276 -0.3895
  383MOL0     C50470   3.497   1.725   2.344 -0.4003 -1.0046 -0.2707
  383MOL0     O50471   3.241   1.784   2.176  0.1951  0.3615 -0.1851
  383MOL0     C50472   3.176   1.920   1.943  0.5811  1.1024 -0.0860
  383MOL0     C50473   3.163   1.971   1.819  0.3152 -0.2985  0.0927
  383MOL0     N50474   2.887   1.966   1.299 -0.5026  0.5765  0.0227
  383MOL0     N50475   2.791   1.897   1.249  0.3527 -0.4757 -0.2063
  383MOL0     C50476   2.306   2.522   0.469 -0.3171 -1.1022  0.3550
  383MOL0     C50477   2.192   2.608   0.473  0.3688  0.6436 -0.1073
  383MOL0     C50478   1.823   2.855   0.663 -0.0032  0.0315  1.5169
  383MOL0     C50479   1.750   2.913   0.762  0.1053 -0.1699  0.4825
  383MOL0     C50480   1.629   2.980   0.735  0.2773  0.1396  0.2842
  383MOL0     C50481   1.579   2.988   0.610  0.0687 -1.1167 -0.6808
  383MOL0     O50482   1.455   3.049   0.622  0.3367  1.3502  0.4868
  383MOL0     C50483   1.380   3.067   0.497  0.0993  0.6476  0.4073
  383MOL0     C50484   1.415   3.207   0.432  0.4271 -0.2235  0.4564
  383MOL0     C50485   1.398   3.209   0.277 -0.1121  0.0225  0.4936
  383MOL0     C50486   1.257   3.191   0.222 -0.2527 -0.3523  0.1894
  383MOL0     C50487   1.270   3.164   0.078  0.3107 -0.0194  0.0338
  383MOL0     C50488   1.286   3.149  -0.046 -0.4027  0.5487  0.2198
  383MOL0     C50489   1.648   2.933   0.503  0.4797  0.0258 -0.0555
  383MOL0     C50490   1.765   2.864   0.535  0.0679  0.1747 -0.3203
  383MOL0     H50491   2.229   2.763   0.769  0.7636 -2.0424  1.5928
  383MOL0     H50492   2.446   2.649   0.757  0.6987  1.6266  0.1776
  383MOL0     H50493   2.550   2.463   0.775 -0.4230 -1.7217  0.3557
  383MOL0     H50494   2.646   2.574   0.668 -1.6858 -0.3638  0.4214
  383MOL0     H50495   2.786   2.403   0.752 -0.0559 -0.1343 -0.2541
  383MOL0     H50496   2.764   2.376   0.584  1.4678 -0.3797  0.7329
  383MOL0     H50497   2.590   2.198   0.641  0.4484 -3.1408  0.2297
  383MOL0     H50498   2.607   2.250   0.803 -1.0484  2.1568 -1.0173
  383MOL0     H50499   2.838   2.162   0.621 -1.0971  0.9298 -1.8397
  383MOL0     H50500   2.853   2.182   0.798 -1.0837  2.3947  0.3038
  383MOL0     H50501   2.830   1.932   0.689  0.3889  0.4804  0.7690
  383MOL0     H50502   2.661   1.960   0.680 -1.4842  0.2939  2.1820
  383MOL0     H50503   2.630   1.969   0.913  0.8323  4.3347  0.2087
  383MOL0     H50504   2.799   2.005   0.932 -0.9093  1.6008  0.0774
  383MOL0     H50505   2.686   1.739   0.844  1.9613 -1.6082 -0.4406
  383MOL0     H50506   2.860   1.775   0.874 -0.4463  0.9660  0.6113
  383MOL0     H50507   2.746   1.667   1.052 -0.6129  0.1092  3.6450
  383MOL0     H50508   2.634   1.794   1.073  0.4343  0.8384 -1.8045
  383MOL0     H50509   3.041   1.870   1.029 -0.7760 -0.0380 -0.6568
  383MOL0     H50510   3.117   2.129   1.206  1.2081  1.2766  2.7450
  383MOL0     H50511   3.195   1.971   1.181  0.9602  1.0337 -0.7703
  383MOL0     H50512   3.178   1.909   1.422 -2.5032 -0.9146 -0.0224
  383MOL0     H50513   3.086   2.051   1.455  0.7765  1.0039 -0.1110
  383MOL0     H50514   3.368   2.078   1.342  3.1890  4.1383  2.7994
  383MOL0     H50515   3.252   2.207   1.378 -1.1832 -0.9679 -1.5834
  383MOL0     H50516   3.395   2.182   1.562 -0.3456 -0.5479  2.7231
  383MOL0     H50517   3.396   1.997   1.545 -1.3460 -1.2930  0.2277
  383MOL0     H50518   3.461   2.131   1.801 -0.5206 -1.1863 -0.7562
  383MOL0     H50519   3.499   2.026   2.006 -0.0573  0.0893 -2.0069
  383MOL0     H50520   3.514   2.056   2.424  1.0733  0.6192  1.8173
  383MOL0     H50521   3.611   1.964   2.629  2.1522 -1.0723  1.2239
  383MOL0     H50522   3.681   1.839   2.830  3.8631  1.7371  2.5677
  383MOL0     H50523   3.826   1.810   2.720  0.0927  2.2453 -0.4144
  383MOL0     H50524   3.846   1.733   2.948  0.8051 -2.6336  1.5205
  383MOL0     H50525   3.865   1.604   2.839  0.4973  0.2456 -2.1274
  383MOL0     H50526   3.706   1.493   2.977 -0.2132 -0.4443  0.0243
  383MOL0     H50527   3.609   1.543   2.840 -0.3069  3.9695 -2.3252
  383MOL0     H50528   3.595   1.688   3.095  4.3265  0.7605 -1.5053
  383MOL0     H50529   3.501   1.727   2.942 -1.5378 -0.2386 -0.4871
  383MOL0     H50530   3.494   1.485   3.136  2.5764  3.3292  1.3549
  383MOL0     H50531   3.395   1.493   2.985  0.2860  0.2615  0.8691
  383MOL0     H50532   3.280   1.691   3.081 -1.7837  0.5150  2.2569
  383MOL0     H50533   3.420   1.689   3.204  2.9898 -2.4404 -0.7603
  383MOL0     H50534   3.225   1.457   3.185 -2.8811 -0.1750  0.8031
  383MOL0     H50535   3.341   1.500   3.310  0.9831 -0.8853 -0.9485
  383MOL0     H50536   3.100   1.556   3.378  0.4819 -2.3792 -1.2617
  383MOL0     H50537   3.077   1.609   3.211  0.8331 -0.8787 -1.1716
  383MOL0     H50538   3.601   1.574   2.465  1.3093  0.6297  3.2895
  383MOL0     H50539   3.472   1.664   2.258  1.3729  1.4608 -2.7226
  383MOL0     H50540   3.089   1.866   1.977  0.2404  0.5877 -1.6676
  383MOL0     H50541   3.062   1.971   1.779 -0.3414 -0.0190  1.7015
  383MOL0     H50542   2.324   2.446   0.394 -1.3952  2.5100 -4.0134
  383MOL0     H50543   2.122   2.604   0.390 -0.0407 -3.1894  0.2480
  383MOL0     H50544   1.776   2.906   0.867  0.9087  1.7505  0.4537
  383MOL0     H50545   1.570   3.022   0.816  2.0617 -0.9452  2.2607
  383MOL0     H50546   1.273   3.058   0.519 -0.1774 -2.1200 -1.5648
  383MOL0     H50547   1.407   2.994   0.420 -0.3928  2.4133 -1.5128
  383MOL0     H50548   1.354   3.286   0.477  2.3924  2.6617 -1.6434
  383MOL0     H50549   1.521   3.223   0.454  0.7507  0.3918 -1.3966
  383MOL0     H50550   1.466   3.132   0.240 -3.1972 -1.3674 -2.8127
  383MOL0     H50551   1.424   3.308   0.241 -2.5894  0.3375 -0.5993
  383MOL0     H50552   1.197   3.111   0.266 -3.0575  0.8085 -1.2949
  383MOL0     H50553   1.200   3.283   0.239 -0.2932 -0.2138 -0.6409
  383MOL0     H50554   1.299   3.122  -0.148 -3.6441 -0.9720  0.0638
  383MOL0     H50555   1.614   2.942   0.400  0.0668 -2.3518 -0.1727
  383MOL0     H50556   1.819   2.815   0.454  0.8424 -0.7686  0.7338
  384MOL0     O50557   8.846   0.417   8.250 -0.1095 -0.4347  0.2610
  384MOL0     C50558   8.922   0.337   8.202  0.1042  0.4452 -0.2432
  384MOL0     O50559   8.995   0.249   8.280  0.4122  0.1616  0.5052
  384MOL0     C50560   8.993   0.248   8.421  0.3151 -0.8896 -0.2932
  384MOL0     C50561   9.105   0.210   8.485 -0.1265  0.1528 -0.3510
  384MOL0     C50562   9.101   0.201   8.628 -0.0147 -0.3825 -0.0240
  384MOL0     C50563   8.978   0.218   8.705 -0.2777  0.9302  0.2227
  384MOL0     O50564   8.982   0.217   8.845 -0.0013  0.1696  0.7857
  384MOL0     C50565   8.892   0.133   8.913  0.2160 -0.2996  0.0304
  384MOL0     C50566   8.952   0.076   9.045  0.6875 -0.5890  0.2381
  384MOL0     C50567   8.856   0.013   9.149  1.0403  0.3750  0.9368
  384MOL0     C50568   8.767   0.105   9.236  0.3016 -0.4508  0.1506
  384MOL0     C50569   8.699   0.047   9.355 -0.1575 -0.5497  0.9521
  384MOL0     C50570   8.686   0.138   9.473 -0.3782  0.2417 -0.4982
  384MOL0     C50571   8.619   0.074   9.598 -0.8395  0.1034 -0.0870
  384MOL0     C50572   8.472   0.052   9.569  0.0341  0.0925 -1.2064
  384MOL0     N50573   8.391   0.020   9.687 -0.7980  0.0580  0.3665
  384MOL0     C50574   8.399   0.091   9.804 -0.4650  0.3647 -0.0885
  384MOL0     C50575   8.288   0.042   9.883  0.3753 -0.4568 -0.3570
  384MOL0     C50576   8.249   0.096  10.011  0.0252 -0.8446 -0.0086
  384MOL0     C50577   8.237  -0.004  10.124 -0.0118  0.8465  0.3310
  384MOL0     C50578   8.231   0.067  10.264  0.5349 -0.2750  0.3182
  384MOL0     C50579   8.288  -0.017  10.382 -0.0547  0.4289 -0.6417
  384MOL0     O50580   8.210  -0.123  10.431 -0.5955  0.1757  0.1381
  384MOL0     C50581   8.248  -0.177  10.551  1.3350  0.5966  0.3125
  384MOL0     C50582   8.365  -0.149  10.622  0.6493 -0.0349 -0.1711
  384MOL0     C50583   8.402  -0.206  10.743  0.7649  0.9473  0.5666
  384MOL0     C50584   8.311  -0.289  10.813  0.3449  0.6861  0.0037
  384MOL0     C50585   8.357  -0.346  10.946 -0.8121  0.0912 -0.9621
  384MOL0     O50586   8.272  -0.429  11.019 -0.4121 -1.3650 -0.1453
  384MOL0     C50587   8.314  -0.467  11.144  0.2659 -1.4241 -0.0016
  384MOL0     C50588   8.433  -0.543  11.158 -0.1013  0.8671 -0.3587
  384MOL0     C50589   8.470  -0.589  11.291 -1.0872 -0.5762  0.8227
  384MOL0     C50590   8.397  -0.552  11.405  0.6426 -0.0361 -0.4568
  384MOL0     O50591   8.411  -0.607  11.531  0.0174  0.0146 -0.3047
  384MOL0     C50592   8.523  -0.706  11.544 -0.0523 -0.3393 -0.9580
  384MOL0     C50593   8.549  -0.759  11.687  0.4728  0.0721  0.0963
  384MOL0     C50594   8.658  -0.856  11.662  0.5915  0.7080  0.2445
  384MOL0     C50595   8.692  -0.933  11.794 -0.3980 -0.4556 -1.0588
  384MOL0     C50596   8.663  -1.089  11.809 -0.4462  0.3643 -0.5130
  384MOL0     C50597   8.727  -1.141  11.940 -0.2656  0.5900  0.7660
  384MOL0     C50598   8.719  -1.289  11.963  0.0994 -0.3624 -0.6252
  384MOL0     C50599   8.797  -1.327  12.090 -0.6054  0.4604 -0.0642
  384MOL0    Cl50600   8.817  -1.506  12.089 -0.0224  0.6590  0.1631
  384MOL0     C50601   8.286  -0.459  11.392  0.1930  0.6018 -0.2456
  384MOL0     C50602   8.253  -0.411  11.265 -0.6657 -0.1063  0.0687
  384MOL0     O50603   8.472  -0.332  10.973  0.1619  0.0978  0.5006
  384MOL0     C50604   8.188  -0.324  10.747  0.6805  0.3362 -0.1607
  384MOL0     C50605   8.165  -0.276  10.615  0.3908 -0.7498  0.3667
  384MOL0     N50606   8.221  -0.053   9.804  0.1579  0.3494 -0.0446
  384MOL0     N50607   8.276  -0.056   9.688  0.2097  1.0357  0.1280
  384MOL0     C50608   8.870   0.255   8.624 -0.2696  0.3880 -0.6993
  384MOL0     C50609   8.871   0.266   8.494 -0.4674  0.0402  0.2138
  384MOL0     C50610   8.949   0.358   8.052  0.4257 -0.4275 -0.3110
  384MOL0     C50611   9.048   0.284   7.989 -0.1126 -0.0981 -0.0362
  384MOL0     C50612   9.075   0.287   7.851 -0.3982 -0.9337  0.2486
  384MOL0     C50613   8.983   0.359   7.771 -0.2026  0.5201  0.6304
  384MOL0     O50614   8.985   0.405   7.641 -0.4825 -0.3011 -0.0455
  384MOL0     C50615   9.045   0.325   7.542 -0.9278  0.1899  0.2166
  384MOL0     C50616   8.954   0.324   7.416 -0.1537 -0.2607  0.6739
  384MOL0     C50617   9.029   0.265   7.292 -0.8491 -0.1816 -0.2851
  384MOL0     C50618   9.095   0.123   7.287 -0.2411  1.2916 -0.2833
  384MOL0     C50619   9.226   0.122   7.350 -0.9378 -0.3742  1.6171
  384MOL0     C50620   9.342   0.141   7.391 -0.0386 -1.4063  0.1365
  384MOL0     C50621   8.875   0.417   7.827  0.9430  0.3968 -0.2966
  384MOL0     C50622   8.851   0.409   7.972 -0.6873 -0.0670  0.4578
  384MOL0     H50623   9.197   0.196   8.429 -1.3332 -1.4819 -2.0460
  384MOL0     H50624   9.197   0.180   8.673  0.2782 -1.0500 -0.9395
  384MOL0     H50625   8.854   0.056   8.845  1.9135  2.0766 -4.0162
  384MOL0     H50626   8.806   0.194   8.942  0.5147 -0.5444  1.4855
  384MOL0     H50627   9.002   0.157   9.098 -0.3305 -1.5825  2.9142
  384MOL0     H50628   9.020  -0.002   9.010  0.4342  1.0292 -4.4670
  384MOL0     H50629   8.910  -0.057   9.213 -0.5754 -1.1878  0.6768
  384MOL0     H50630   8.787  -0.053   9.097 -0.0047 -0.0601  2.7787
  384MOL0     H50631   8.834   0.179   9.281 -0.6823  0.4466  0.1457
  384MOL0     H50632   8.686   0.142   9.173  2.8378 -1.0267 -3.8310
  384MOL0     H50633   8.745  -0.046   9.389 -1.5973 -0.8238  2.2338
  384MOL0     H50634   8.600   0.024   9.314 -0.3301  1.3111  0.2399
  384MOL0     H50635   8.630   0.224   9.435 -0.5118  0.3614 -0.0340
  384MOL0     H50636   8.784   0.174   9.505 -1.5677  1.9259  1.4928
  384MOL0     H50637   8.664  -0.022   9.625 -0.0254  0.4487 -0.1887
  384MOL0     H50638   8.644   0.139   9.682 -1.6908  1.7366 -1.0461
  384MOL0     H50639   8.463  -0.026   9.493  0.4802  1.8319 -3.1269
  384MOL0     H50640   8.428   0.137   9.518 -2.2006  0.6467  1.4057
  384MOL0     H50641   8.481   0.150   9.843  2.2962 -2.6958 -0.8340
  384MOL0     H50642   8.157   0.150   9.985 -0.3195 -1.8014 -0.8769
  384MOL0     H50643   8.314   0.181  10.033 -1.0090  0.5637 -2.1002
  384MOL0     H50644   8.336  -0.051  10.126  0.8204  2.5179  0.5080
  384MOL0     H50645   8.156  -0.077  10.114  1.1342 -0.8671  2.5002
  384MOL0     H50646   8.287   0.160  10.277 -0.4064  0.1106  1.7558
  384MOL0     H50647   8.129   0.098  10.291 -0.4076 -0.2404 -2.8507
  384MOL0     H50648   8.310   0.058  10.458 -0.9368  0.9049 -0.8447
  384MOL0     H50649   8.381  -0.061  10.345 -0.6570 -1.5825  0.0915
  384MOL0     H50650   8.434  -0.080  10.575 -1.2427 -0.2723 -3.6273
  384MOL0     H50651   8.497  -0.184  10.792  0.4210  1.4734  0.9977
  384MOL0     H50652   8.489  -0.572  11.070  2.3844 -4.0266  2.3837
  384MOL0     H50653   8.557  -0.652  11.302 -0.4252  0.3614  0.9844
  384MOL0     H50654   8.616  -0.654  11.518 -0.5323  2.9589  2.9161
  384MOL0     H50655   8.499  -0.792  11.481 -2.2130 -0.5491  0.0703
  384MOL0     H50656   8.467  -0.819  11.727 -1.1741 -0.6101 -3.8644
  384MOL0     H50657   8.572  -0.680  11.758 -2.4767 -1.1980  2.6997
  384MOL0     H50658   8.744  -0.820  11.604 -0.8305  1.6237 -1.3796
  384MOL0     H50659   8.607  -0.929  11.598 -1.8102  0.2285  2.5761
  384MOL0     H50660   8.789  -0.894  11.826 -1.9963  1.7895  1.5378
  384MOL0     H50661   8.627  -0.901  11.876  1.0947 -0.5206  0.1970
  384MOL0     H50662   8.717  -1.145  11.733  3.1958  1.0670  1.3214
  384MOL0     H50663   8.556  -1.104  11.823 -0.0140 -3.3983 -0.2152
  384MOL0     H50664   8.675  -1.089  12.020 -0.6215 -1.2485  1.7797
  384MOL0     H50665   8.833  -1.116  11.945 -0.0217 -0.2465  0.1009
  384MOL0     H50666   8.618  -1.330  11.966 -0.1160 -0.1867 -3.1591
  384MOL0     H50667   8.774  -1.337  11.882  2.5200 -2.3438  2.0166
  384MOL0     H50668   8.754  -1.298  12.186 -1.1171  0.1493 -0.1911
  384MOL0     H50669   8.897  -1.285  12.078  0.3344 -1.7181 -0.1848
  384MOL0     H50670   8.225  -0.429  11.476 -1.8816 -0.5571 -1.2768
  384MOL0     H50671   8.171  -0.340  11.271  1.0010  1.7569  3.6223
  384MOL0     H50672   8.108  -0.370  10.804 -0.8113  3.3989  0.4221
  384MOL0     H50673   8.068  -0.300  10.572  0.7955 -2.1893  0.2135
  384MOL0     H50674   8.779   0.280   8.679 -0.0086 -0.0275 -0.0724
  384MOL0     H50675   8.775   0.288   8.448 -2.1838 -2.2663  2.3706
  384MOL0     H50676   9.104   0.218   8.054 -0.0101 -1.0674 -1.0868
  384MOL0     H50677   9.159   0.230   7.813  0.2190 -1.7331  2.5969
  384MOL0     H50678   9.056   0.223   7.580  2.0667  0.4078  0.1798
  384MOL0     H50679   9.144   0.368   7.521 -1.4571  1.2870 -0.1289
  384MOL0     H50680   8.863   0.269   7.442 -0.3712  0.5229  1.6710
  384MOL0     H50681   8.932   0.429   7.396 -1.2999 -0.4214  1.0320
  384MOL0     H50682   9.112   0.335   7.277 -1.9835  1.0035 -1.3387
  384MOL0     H50683   8.958   0.253   7.210 -1.2141 -2.1245  0.2676
  384MOL0     H50684   9.037   0.058   7.353  0.8601 -0.0428 -0.5662
  384MOL0     H50685   9.101   0.081   7.187 -1.5436 -0.1719  0.2244
  384MOL0     H50686   9.445   0.149   7.420  0.8848  0.8130 -3.2078
  384MOL0     H50687   8.809   0.480   7.769  0.8597  1.2724  0.7116
  384MOL0     H50688   8.761   0.458   8.008 -2.3484 -0.7948 -2.3410
  385MOL0     O50689   8.824   8.851   6.514 -0.0668  0.0655 -0.2454
  385MOL0     C50690   8.789   8.966   6.488 -0.8445 -0.5149 -1.4296
  385MOL0     O50691   8.800   9.070   6.580 -0.4866  0.3990  0.0033
  385MOL0     C50692   8.851   9.059   6.704 -0.2579  0.4756 -0.5631
  385MOL0     C50693   8.788   9.135   6.793  0.3166  0.8013 -1.1349
  385MOL0     C50694   8.816   9.130   6.929 -0.2797  1.3329 -0.4657
  385MOL0     C50695   8.926   9.054   6.974  0.5264  0.7793  0.1325
  385MOL0     O50696   8.963   9.024   7.104 -0.2973 -0.3920 -0.5073
  385MOL0     C50697   8.961   9.139   7.188  0.1055  0.1673 -0.0994
  385MOL0     C50698   8.950   9.094   7.333 -0.2949  0.8623 -0.3007
  385MOL0     C50699   9.091   9.108   7.398 -0.4924 -0.4576 -0.4613
  385MOL0     C50700   9.098   9.022   7.525 -0.1242 -0.4467  0.6689
  385MOL0     C50701   9.238   9.021   7.598  0.0524 -1.0289  0.9865
  385MOL0     C50702   9.222   8.958   7.736  0.4136  0.5404  0.0547
  385MOL0     C50703   9.355   8.974   7.808  0.4763  0.8965 -0.5608
  385MOL0     C50704   9.353   8.894   7.946  0.2899  0.5963  0.0912
  385MOL0     N50705   9.259   8.950   8.034  0.4856 -0.2046  0.0878
  385MOL0     C50706   9.271   9.076   8.094  0.6779 -0.4000 -0.0975
  385MOL0     C50707   9.151   9.081   8.159 -0.2876 -0.6179 -0.5512
  385MOL0     C50708   9.093   9.201   8.231  0.2368  0.3273 -0.2112
  385MOL0     C50709   9.134   9.210   8.378 -0.6258  0.2277 -0.0286
  385MOL0     C50710   9.094   9.346   8.442 -0.3739  0.4652  0.1637
  385MOL0     C50711   9.127   9.346   8.593  0.8041  0.1708  0.3803
  385MOL0     O50712   9.275   9.328   8.615 -0.7195  0.1536  0.6109
  385MOL0     C50713   9.337   9.385   8.717  0.6520  0.0343 -1.1338
  385MOL0     C50714   9.272   9.432   8.823  0.3119 -0.2673 -0.4583
  385MOL0     C50715   9.341   9.479   8.937 -0.3610  0.4751 -0.4434
  385MOL0     C50716   9.480   9.470   8.949  0.1320 -0.3445 -0.3467
  385MOL0     C50717   9.555   9.540   9.067 -0.5506  0.5589  0.2872
  385MOL0     O50718   9.477   9.581   9.167 -0.3416 -0.1536  0.3612
  385MOL0     C50719   9.521   9.674   9.254  0.4414 -0.2735 -0.2427
  385MOL0     C50720   9.462   9.656   9.385 -0.2137  0.2685  0.5907
  385MOL0     C50721   9.491   9.749   9.485  0.6563 -0.5142 -0.0046
  385MOL0     C50722   9.581   9.853   9.462 -0.1379 -0.5321 -0.2242
  385MOL0     O50723   9.625   9.922   9.574  0.1417  0.6966  0.2005
  385MOL0     C50724   9.671  10.059   9.557  1.0422 -0.1840 -0.0256
  385MOL0     C50725   9.587  10.155   9.647  0.1383  0.5656 -0.3535
  385MOL0     C50726   9.597  10.135   9.797 -0.7455  0.0485 -0.2032
  385MOL0     C50727   9.482  10.208   9.870 -0.4993 -0.1558  0.2112
  385MOL0     C50728   9.460  10.182  10.022  0.3541 -0.3943  0.0310
  385MOL0     C50729   9.332  10.220  10.083 -0.5865  0.0503 -0.1366
  385MOL0     C50730   9.290  10.374  10.074  0.4094  0.4626 -0.3067
  385MOL0     C50731   9.157  10.406  10.152 -0.3102 -0.3184 -0.7847
  385MOL0    Cl50732   9.183  10.386  10.326  0.1909 -0.2479  0.0077
  385MOL0     C50733   9.643   9.873   9.333 -0.4399  0.9455  0.5550
  385MOL0     C50734   9.612   9.778   9.233 -0.2268  0.3652  0.3178
  385MOL0     O50735   9.679   9.564   9.052  0.6356  0.3942  0.0958
  385MOL0     C50736   9.547   9.423   8.828  0.5356 -0.1480 -0.2112
  385MOL0     C50737   9.480   9.394   8.713 -0.2414  0.1243 -0.7635
  385MOL0     N50738   9.099   8.956   8.166  0.3092 -0.7255 -0.0341
  385MOL0     N50739   9.167   8.872   8.096 -0.0510  0.6983  0.3142
  385MOL0     C50740   8.994   8.970   6.886  0.4959  0.4890 -0.6230
  385MOL0     C50741   8.962   8.980   6.750  1.1141  0.1722  1.2717
  385MOL0     C50742   8.717   8.995   6.364  0.2304 -0.1448  0.0694
  385MOL0     C50743   8.751   8.911   6.255  0.5060  0.7122  0.2401
  385MOL0     C50744   8.680   8.912   6.132 -0.7781  0.0742  0.5526
  385MOL0     C50745   8.582   8.999   6.119  0.5065 -0.6121  0.0050
  385MOL0     O50746   8.501   8.995   6.007 -0.7315 -0.2872 -0.0629
  385MOL0     C50747   8.361   8.964   6.012  1.3999  0.0797 -0.4286
  385MOL0     C50748   8.274   9.093   5.986  0.1308 -0.3245 -1.0353
  385MOL0     C50749   8.118   9.045   5.994  0.7170  0.7075 -0.1816
  385MOL0     C50750   8.023   9.153   5.971  0.8288 -0.3622 -0.5196
  385MOL0     C50751   7.887   9.097   5.963  0.1611 -0.8611 -0.6818
  385MOL0     C50752   7.780   9.049   5.933  0.1446 -0.2207 -0.9710
  385MOL0     C50753   8.555   9.096   6.221 -0.5077 -0.6915 -0.2369
  385MOL0     C50754   8.620   9.096   6.346 -0.5041 -0.0225  1.1022
  385MOL0     H50755   8.701   9.193   6.763 -0.5531  0.3528  0.3816
  385MOL0     H50756   8.761   9.182   7.007  0.4319  0.5270  0.6026
  385MOL0     H50757   8.870   9.197   7.169  1.5149  2.8030  0.7838
  385MOL0     H50758   9.048   9.203   7.170 -0.2517  0.6397 -0.1625
  385MOL0     H50759   8.919   8.989   7.337  4.0469 -0.5914  0.5937
  385MOL0     H50760   8.874   9.145   7.392 -1.9758 -1.3970 -0.3690
  385MOL0     H50761   9.095   9.217   7.401 -0.6199 -0.2797 -3.4553
  385MOL0     H50762   9.167   9.083   7.322 -0.4191 -2.6044  0.2443
  385MOL0     H50763   9.022   9.069   7.590  0.3674  1.7615 -0.2541
  385MOL0     H50764   9.075   8.918   7.501 -0.2622 -0.2323 -0.1607
  385MOL0     H50765   9.274   9.122   7.621  0.1515 -1.1509  1.3573
  385MOL0     H50766   9.307   8.966   7.533  0.5072  1.8894 -1.2213
  385MOL0     H50767   9.208   8.850   7.725  3.8613  0.2165 -3.0905
  385MOL0     H50768   9.145   9.007   7.796 -1.4375  1.2300 -2.6782
  385MOL0     H50769   9.441   8.932   7.755  0.7737  1.5731 -0.6232
  385MOL0     H50770   9.378   9.080   7.821  0.9986  0.8836 -1.3340
  385MOL0     H50771   9.450   8.886   7.995 -1.0744 -0.5458  2.8882
  385MOL0     H50772   9.332   8.788   7.927  3.1024 -0.6099  2.8541
  385MOL0     H50773   9.341   9.156   8.072 -0.1442  0.7537  1.2463
  385MOL0     H50774   8.984   9.203   8.235  0.2324  1.4093 -0.6539
  385MOL0     H50775   9.122   9.296   8.185  3.7763  0.2322  1.4545
  385MOL0     H50776   9.237   9.184   8.401 -1.2866 -3.7973 -0.9265
  385MOL0     H50777   9.084   9.127   8.429 -0.6744  0.9707  1.1504
  385MOL0     H50778   9.133   9.434   8.389 -2.1937  1.3187  0.1657
  385MOL0     H50779   8.985   9.348   8.433 -0.4800 -3.3380 -1.3071
  385MOL0     H50780   9.067   9.270   8.644 -4.6614  3.2210 -0.6497
  385MOL0     H50781   9.099   9.442   8.637 -0.1766 -1.7667  4.4241
  385MOL0     H50782   9.165   9.447   8.835  0.0626 -1.9365 -0.3364
  385MOL0     H50783   9.292   9.530   9.019 -3.7534  1.3275 -2.7781
  385MOL0     H50784   9.389   9.579   9.409 -1.3059  0.2522 -2.3849
  385MOL0     H50785   9.440   9.764   9.580 -1.5365  3.0779 -1.5171
  385MOL0     H50786   9.661  10.091   9.453  1.0076 -2.6096 -0.8367
  385MOL0     H50787   9.777  10.073   9.582  1.1818  0.7334 -1.0537
  385MOL0     H50788   9.484  10.147   9.612 -0.3512 -3.8781  1.4320
  385MOL0     H50789   9.624  10.256   9.630  0.2260 -0.0474 -5.3831
  385MOL0     H50790   9.690  10.179   9.836 -1.3733 -0.8243  2.5028
  385MOL0     H50791   9.606  10.027   9.815  1.8393 -0.6373 -4.3225
  385MOL0     H50792   9.484  10.314   9.842 -2.8101 -0.5866 -1.8899
  385MOL0     H50793   9.391  10.174   9.820 -0.3632 -0.3508  0.0954
  385MOL0     H50794   9.543  10.239  10.066 -0.6304  0.5436  0.7366
  385MOL0     H50795   9.475  10.077  10.046  0.0857 -0.4523 -0.0552
  385MOL0     H50796   9.340  10.191  10.188  0.8956 -0.1505 -0.2881
  385MOL0     H50797   9.242  10.176  10.040 -0.9950  1.4506 -0.7955
  385MOL0     H50798   9.369  10.442  10.105  0.2664  1.5955 -2.2519
  385MOL0     H50799   9.285  10.397   9.967  1.1238  0.1560 -0.4153
  385MOL0     H50800   9.071  10.348  10.118 -2.5382  1.6472  1.1476
  385MOL0     H50801   9.122  10.509  10.138  2.5341  0.9952  0.8856
  385MOL0     H50802   9.711   9.957   9.316  0.2897  0.2815  0.1305
  385MOL0     H50803   9.658   9.795   9.136 -2.2132 -1.0328 -0.9320
  385MOL0     H50804   9.655   9.413   8.836  0.3428 -5.0607 -0.7673
  385MOL0     H50805   9.526   9.352   8.624 -1.6137 -1.0247 -0.9509
  385MOL0     H50806   9.075   8.920   6.937 -0.7234  0.8055  1.8148
  385MOL0     H50807   9.018   8.922   6.678 -0.3994 -1.9329  1.6768
  385MOL0     H50808   8.826   8.833   6.267  1.7444  1.4629 -1.9336
  385MOL0     H50809   8.686   8.840   6.052 -0.1931  1.5647 -0.8076
  385MOL0     H50810   8.343   8.928   6.114 -1.4325  0.3658 -0.7583
  385MOL0     H50811   8.336   8.879   5.948  2.5441 -0.4673 -0.1740
  385MOL0     H50812   8.313   9.159   6.063  2.9216 -2.0904 -0.7774
  385MOL0     H50813   8.293   9.142   5.890  0.5461  3.7602  0.9500
  385MOL0     H50814   8.089   8.974   6.072  1.7441 -2.0437 -2.1225
  385MOL0     H50815   8.124   8.972   5.913  0.9093  1.8792 -1.2376
  385MOL0     H50816   8.021   9.221   6.056  0.1477  1.6080 -2.0251
  385MOL0     H50817   8.040   9.219   5.885 -2.4987 -0.1036 -1.1199
  385MOL0     H50818   7.684   9.005   5.911  0.0640 -0.5639  0.0234
  385MOL0     H50819   8.479   9.172   6.230  0.1789 -0.2434  2.9447
  385MOL0     H50820   8.583   9.170   6.417 -3.7215  3.0955 -3.2821
  386MOL0     O50821   5.453   9.195   4.626  0.1339 -0.3064 -0.1811
  386MOL0     C50822   5.480   9.195   4.511  0.5567  0.6244 -0.0895
  386MOL0     O50823   5.458   9.096   4.418  0.1670  0.5497 -0.2239
  386MOL0     C50824   5.393   8.982   4.449  0.3648 -0.7629  1.0688
  386MOL0     C50825   5.465   8.867   4.484 -0.6634  0.7695 -0.6872
  386MOL0     C50826   5.399   8.749   4.515 -0.1109  1.2639 -1.2560
  386MOL0     C50827   5.261   8.744   4.532  0.2991  0.0709 -0.4206
  386MOL0     O50828   5.191   8.633   4.534  0.2002 -0.1699  1.0273
  386MOL0     C50829   5.254   8.507   4.577 -0.6050 -0.4493  0.4822
  386MOL0     C50830   5.311   8.435   4.455 -0.7501  0.9435 -0.1045
  386MOL0     C50831   5.303   8.268   4.469 -0.0711 -0.4708 -0.6267
  386MOL0     C50832   5.329   8.193   4.342  0.7806 -0.4339  0.9565
  386MOL0     C50833   5.342   8.039   4.361 -0.6789  0.1369  0.7640
  386MOL0     C50834   5.205   7.976   4.400 -0.9051  0.2629  0.3463
  386MOL0     C50835   5.227   7.824   4.424  0.2833  0.1471  0.7270
  386MOL0     C50836   5.089   7.757   4.436  0.1403  0.8978 -0.4723
  386MOL0     N50837   5.110   7.616   4.466  1.5636  0.4417  0.2900
  386MOL0     C50838   5.174   7.554   4.570  0.1073 -0.1063 -0.3007
  386MOL0     C50839   5.139   7.426   4.568  0.6487  0.0846  0.6809
  386MOL0     C50840   5.197   7.313   4.654  0.1079  0.6151 -0.7639
  386MOL0     C50841   5.105   7.286   4.770  0.2398 -0.5190 -0.0251
  386MOL0     C50842   5.180   7.221   4.884 -0.5031 -0.6747 -1.2278
  386MOL0     C50843   5.079   7.177   4.996  0.2315 -0.0555 -0.1750
  386MOL0     O50844   5.145   7.115   5.103  0.4890 -0.0898  0.5176
  386MOL0     C50845   5.072   7.074   5.214 -0.7884 -0.7503  0.1245
  386MOL0     C50846   4.934   7.028   5.209  0.4384  0.0890  0.9894
  386MOL0     C50847   4.869   6.999   5.331 -0.2299 -0.7313  0.2486
  386MOL0     C50848   4.934   7.010   5.455 -0.0607 -0.9003  0.5676
  386MOL0     C50849   4.874   6.963   5.578 -0.3239  0.1929  0.5472
  386MOL0     O50850   4.928   7.010   5.692 -0.2205  0.1238 -0.4493
  386MOL0     C50851   4.858   6.988   5.808 -0.4425 -0.4651 -0.4665
  386MOL0     C50852   4.858   6.856   5.850  0.2486  0.3589  0.4670
  386MOL0     C50853   4.801   6.816   5.971 -1.4514 -0.8364  1.3000
  386MOL0     C50854   4.741   6.910   6.050  0.2143 -0.8838 -0.4880
  386MOL0     O50855   4.676   6.879   6.174 -1.1951 -0.0407  0.3361
  386MOL0     C50856   4.578   6.775   6.173 -0.0428 -0.3655  0.4677
  386MOL0     C50857   4.572   6.719   6.322 -0.6388 -0.3883 -0.1109
  386MOL0     C50858   4.440   6.652   6.336  0.8745 -0.1616 -0.1604
  386MOL0     C50859   4.435   6.575   6.463  0.5287  0.8952 -0.6355
  386MOL0     C50860   4.293   6.537   6.512 -0.1050  0.0119 -0.3494
  386MOL0     C50861   4.209   6.437   6.423  0.0438 -0.8670  0.6159
  386MOL0     C50862   4.091   6.392   6.511 -1.5391  0.4026 -0.0365
  386MOL0     C50863   3.994   6.502   6.538 -0.5749  0.6878 -0.0756
  386MOL0    Cl50864   3.944   6.565   6.378  0.6677 -0.4000 -0.0961
  386MOL0     C50865   4.747   7.056   6.013 -0.2991  0.8578  0.6956
  386MOL0     C50866   4.806   7.087   5.886  0.2811  0.3460 -0.0718
  386MOL0     O50867   4.777   6.885   5.565  0.3465  0.7233 -0.4448
  386MOL0     C50868   5.069   7.048   5.461  0.0277  0.8699 -0.1317
  386MOL0     C50869   5.137   7.083   5.340  0.6197 -0.1039  0.5370
  386MOL0     N50870   5.049   7.408   4.467  0.2355 -0.1375  0.1241
  386MOL0     N50871   5.029   7.523   4.406  0.1505  0.4864  0.2036
  386MOL0     C50872   5.191   8.863   4.508 -0.5426 -0.1825  0.8708
  386MOL0     C50873   5.253   8.980   4.464 -0.9080 -0.2853 -0.1397
  386MOL0     C50874   5.547   9.317   4.458  0.6191  0.4622  0.2464
  386MOL0     C50875   5.604   9.307   4.330  0.3528 -0.6570  0.3636
  386MOL0     C50876   5.693   9.407   4.282 -0.1162  0.2319 -0.3311
  386MOL0     C50877   5.708   9.521   4.355  0.2989 -0.6565  1.3213
  386MOL0     O50878   5.791   9.613   4.294  0.2632 -0.4596 -0.7000
  386MOL0     C50879   5.730   9.715   4.224  0.6750 -0.3495 -0.8802
  386MOL0     C50880   5.842   9.810   4.173  0.4193 -0.1519 -0.8438
  386MOL0     C50881   5.914   9.883   4.287 -0.1958  0.4992  0.3463
  386MOL0     C50882   5.854  10.025   4.321  0.2321  0.2550  0.4413
  386MOL0     C50883   5.721  10.018   4.388  1.1755  0.1077  0.9538
  386MOL0     C50884   5.603  10.008   4.431  0.6197 -0.4238 -0.0367
  386MOL0     C50885   5.648   9.543   4.474  1.2138 -0.5252 -0.2745
  386MOL0     C50886   5.563   9.444   4.527 -0.2791  0.1576  0.4554
  386MOL0     H50887   5.572   8.875   4.475 -0.3703 -1.0046  0.6114
  386MOL0     H50888   5.455   8.658   4.532 -1.3527  0.7868  0.6173
  386MOL0     H50889   5.171   8.456   4.626 -2.9933  0.4888 -2.2775
  386MOL0     H50890   5.328   8.519   4.657 -1.0168 -1.5593  1.0422
  386MOL0     H50891   5.418   8.456   4.445  0.3406 -3.7233 -0.8561
  386MOL0     H50892   5.249   8.459   4.368 -2.4931 -2.1156  0.1504
  386MOL0     H50893   5.206   8.244   4.515 -0.3621  1.7540  0.0177
  386MOL0     H50894   5.379   8.242   4.543  0.8118 -2.8261 -2.2191
  386MOL0     H50895   5.250   8.212   4.269  1.7899 -4.0750 -1.3522
  386MOL0     H50896   5.422   8.218   4.290 -0.6940 -0.9727 -2.1224
  386MOL0     H50897   5.404   8.036   4.451 -3.7299 -2.7831  3.0132
  386MOL0     H50898   5.365   8.008   4.259 -4.3316  2.9059 -1.1572
  386MOL0     H50899   5.132   7.988   4.319 -0.1789 -1.1365 -0.5559
  386MOL0     H50900   5.172   8.021   4.494 -2.9306 -1.2618  0.4235
  386MOL0     H50901   5.270   7.782   4.333  1.1737  0.7009  0.8902
  386MOL0     H50902   5.296   7.807   4.507  1.7622 -1.9788 -0.8562
  386MOL0     H50903   5.038   7.756   4.339 -0.3080  0.7409 -0.2400
  386MOL0     H50904   5.021   7.801   4.510 -1.9618 -2.0370 -0.4905
  386MOL0     H50905   5.245   7.604   4.635 -0.9974 -0.1736  0.9984
  386MOL0     H50906   5.295   7.353   4.681 -1.0812  1.6097  2.6381
  386MOL0     H50907   5.214   7.223   4.595 -0.0030  0.4001 -0.4663
  386MOL0     H50908   5.029   7.220   4.726  1.5559 -1.0692 -1.5911
  386MOL0     H50909   5.058   7.382   4.795  0.1330 -0.4957 -0.3154
  386MOL0     H50910   5.233   7.132   4.848  0.2578  0.7517 -3.9149
  386MOL0     H50911   5.258   7.275   4.938  0.0341 -1.1418 -1.5254
  386MOL0     H50912   5.000   7.121   4.945 -0.7686  2.7234 -1.8985
  386MOL0     H50913   5.030   7.267   5.034  2.0372  0.1347  1.9035
  386MOL0     H50914   4.875   7.020   5.119 -2.0168 -2.0520  2.6454
  386MOL0     H50915   4.763   6.976   5.335 -0.6311  1.1477  2.5249
  386MOL0     H50916   4.896   6.789   5.773 -4.6161  0.5298 -2.5306
  386MOL0     H50917   4.800   6.712   6.003  1.0055 -0.7789  1.7882
  386MOL0     H50918   4.594   6.695   6.100 -2.3386 -0.7973  0.3660
  386MOL0     H50919   4.482   6.821   6.147 -0.3206 -0.9649  0.4391
  386MOL0     H50920   4.584   6.793   6.401  1.7792  0.4972 -1.2330
  386MOL0     H50921   4.660   6.655   6.330 -1.5062 -1.6182 -0.0973
  386MOL0     H50922   4.442   6.582   6.252  0.7665 -0.1069 -0.2082
  386MOL0     H50923   4.350   6.713   6.323 -1.1877 -2.3339  2.6303
  386MOL0     H50924   4.487   6.479   6.461 -1.7326 -0.4244 -2.9334
  386MOL0     H50925   4.485   6.632   6.541  1.2499 -0.4047 -0.1226
  386MOL0     H50926   4.233   6.627   6.527 -0.6261 -0.3420 -0.2659
  386MOL0     H50927   4.299   6.485   6.609  0.6497  1.0836  0.1932
  386MOL0     H50928   4.270   6.351   6.393 -0.3505 -1.3197  1.0944
  386MOL0     H50929   4.174   6.484   6.330  2.1769 -0.3590  0.0281
  386MOL0     H50930   4.028   6.320   6.458  0.4376  1.2720 -3.9418
  386MOL0     H50931   4.135   6.346   6.600  5.1738 -0.9763 -3.4286
  386MOL0     H50932   4.040   6.591   6.582  0.6412  0.8917 -1.6592
  386MOL0     H50933   3.908   6.473   6.599  1.3866 -0.7320  2.1761
  386MOL0     H50934   4.708   7.129   6.082 -2.5421 -1.0404  1.5626
  386MOL0     H50935   4.829   7.190   5.860  0.3199  0.9082  2.0199
  386MOL0     H50936   5.126   7.056   5.554  0.9797  0.3428 -0.6550
  386MOL0     H50937   5.243   7.110   5.342  1.8666 -4.3711  3.0595
  386MOL0     H50938   5.085   8.850   4.523 -0.4727 -3.1354 -0.3344
  386MOL0     H50939   5.201   9.072   4.442 -3.0118 -1.3653  0.0119
  386MOL0     H50940   5.594   9.215   4.272 -1.3354  1.6325 -3.3301
  386MOL0     H50941   5.764   9.400   4.200 -1.2273 -2.8321 -1.1709
  386MOL0     H50942   5.666   9.779   4.286  0.6020 -1.3343  0.0964
  386MOL0     H50943   5.675   9.680   4.137  0.3118 -1.1422 -0.3473
  386MOL0     H50944   5.907   9.739   4.121 -0.0809  0.0976 -1.8233
  386MOL0     H50945   5.796   9.884   4.109  0.6962  1.7043  0.9995
  386MOL0     H50946   6.016   9.904   4.254 -1.6076  1.8261 -3.8770
  386MOL0     H50947   5.899   9.812   4.369 -3.7828 -0.5890 -1.0273
  386MOL0     H50948   5.916  10.077   4.394  2.4770  0.0769 -1.2408
  386MOL0     H50949   5.854  10.077   4.225  1.8835  2.5897  1.6217
  386MOL0     H50950   5.509   9.997   4.482 -0.5866  0.4382 -1.9263
  386MOL0     H50951   5.660   9.641   4.519 -2.5188  0.2921 -0.7451
  386MOL0     H50952   5.506   9.461   4.619  0.0737  1.2557  0.4870
  387MOL0     O50953   6.502   4.492   2.073 -0.1080 -1.0249  0.2342
  387MOL0     C50954   6.625   4.487   2.076 -0.7489 -0.8676 -0.0476
  387MOL0     O50955   6.700   4.374   2.095 -0.1099 -0.3643  0.3912
  387MOL0     C50956   6.651   4.262   2.161 -0.0168  0.0200  0.1131
  387MOL0     C50957   6.705   4.138   2.112  0.0348 -0.6497  0.4563
  387MOL0     C50958   6.651   4.013   2.154 -0.8129 -0.0037  0.6376
  387MOL0     C50959   6.571   4.008   2.271  0.7615 -0.2710 -0.3086
  387MOL0     O50960   6.526   3.886   2.316  0.1338 -0.5595 -0.2940
  387MOL0     C50961   6.624   3.811   2.388  0.4597  0.8732 -0.1097
  387MOL0     C50962   6.570   3.668   2.404  0.8410  0.8130  0.7621
  387MOL0     C50963   6.678   3.562   2.427 -0.5067  0.5813  0.3784
  387MOL0     C50964   6.655   3.486   2.566 -0.8036 -0.4912 -0.2193
  387MOL0     C50965   6.750   3.376   2.577  0.5482  0.1028 -0.4245
  387MOL0     C50966   6.768   3.278   2.460  0.6777 -0.7313 -0.3090
  387MOL0     C50967   6.870   3.166   2.498 -0.7093 -0.4206 -0.7443
  387MOL0     C50968   6.893   3.065   2.386 -0.1956 -0.4339  0.7781
  387MOL0     N50969   6.992   3.134   2.295  0.4997 -0.0447 -0.3613
  387MOL0     C50970   7.129   3.146   2.321 -0.1330 -0.9102 -0.1194
  387MOL0     C50971   7.166   3.255   2.258 -0.6986  0.1905  0.6417
  387MOL0     C50972   7.297   3.335   2.264 -0.5160  0.4563  0.8498
  387MOL0     C50973   7.359   3.350   2.125 -0.4169  0.1257  0.0116
  387MOL0     C50974   7.369   3.215   2.051 -0.8731  0.4146 -0.1295
  387MOL0     C50975   7.461   3.226   1.925  0.0118  0.5625 -0.0637
  387MOL0     O50976   7.598   3.242   1.952 -0.0155  0.4576  0.4059
  387MOL0     C50977   7.656   3.364   1.964  0.2392  0.2336  0.2172
  387MOL0     C50978   7.589   3.491   1.938 -0.4585 -0.2801  0.5845
  387MOL0     C50979   7.650   3.613   1.935  0.0366 -0.6746  0.4991
  387MOL0     C50980   7.793   3.624   1.965  0.8789  0.5024 -0.2382
  387MOL0     C50981   7.853   3.753   1.950 -0.1200 -0.6767  0.4894
  387MOL0     O50982   7.777   3.865   1.934 -0.1218 -0.0375  0.0787
  387MOL0     C50983   7.818   3.994   1.958  0.8210  0.8474 -0.9162
  387MOL0     C50984   7.709   4.083   1.948 -0.1388 -0.2450 -0.1692
  387MOL0     C50985   7.741   4.221   1.954 -0.2146  0.0938 -1.5236
  387MOL0     C50986   7.859   4.274   1.979  0.8703 -0.0550 -1.1760
  387MOL0     O50987   7.869   4.407   1.991 -0.0462 -0.1984  0.3346
  387MOL0     C50988   7.978   4.479   1.926  0.1872  0.4893 -0.8288
  387MOL0     C50989   7.980   4.446   1.777 -0.5552  0.2384  0.1956
  387MOL0     C50990   8.122   4.460   1.714  0.5171 -0.3884 -0.1674
  387MOL0     C50991   8.175   4.611   1.706 -0.3758 -0.6646  0.4140
  387MOL0     C50992   8.319   4.624   1.669  0.3633  0.6172  0.1979
  387MOL0     C50993   8.423   4.546   1.741 -0.1887  0.1311  0.1434
  387MOL0     C50994   8.395   4.533   1.896 -0.0245  0.0961 -0.2658
  387MOL0     C50995   8.540   4.512   1.956  0.6542 -0.1199 -0.4780
  387MOL0    Cl50996   8.634   4.384   1.859  0.0253  0.1929 -0.0552
  387MOL0     C50997   7.968   4.184   2.001  0.3428 -0.2883  0.5299
  387MOL0     C50998   7.949   4.047   1.977 -0.1900  0.2811 -0.4492
  387MOL0     O50999   7.971   3.752   1.974  0.2942  0.2945  0.8355
  387MOL0     C51000   7.858   3.507   1.993  0.6225  0.7914 -0.9639
  387MOL0     C51001   7.787   3.382   1.999 -0.5784  0.5409 -1.0136
  387MOL0     N51002   7.065   3.296   2.171  0.8519 -1.1736 -0.6314
  387MOL0     N51003   6.962   3.225   2.205 -0.5099 -0.5894 -0.1945
  387MOL0     C51004   6.517   4.128   2.316  0.8153 -0.5519 -1.1840
  387MOL0     C51005   6.552   4.251   2.263 -0.1630 -0.5841  0.5785
  387MOL0     C51006   6.703   4.606   2.042 -0.3384 -0.2360  0.2099
  387MOL0     C51007   6.643   4.738   2.039  0.2239  0.2366  0.7889
  387MOL0     C51008   6.717   4.847   1.988  0.5350  0.3393 -1.3478
  387MOL0     C51009   6.841   4.821   1.924 -0.9154 -1.2644 -0.0363
  387MOL0     O51010   6.905   4.919   1.856  0.0100 -0.4418 -0.3245
  387MOL0     C51011   6.910   5.048   1.914 -0.4985 -0.6957 -0.3065
  387MOL0     C51012   7.052   5.106   1.886  0.7563 -0.7136 -0.3636
  387MOL0     C51013   7.119   5.180   2.001 -0.1544 -0.3071 -1.0607
  387MOL0     C51014   7.266   5.210   1.973  0.7806  0.1097  0.1778
  387MOL0     C51015   7.328   5.260   2.093  0.0617 -0.0227  0.2058
  387MOL0     C51016   7.363   5.295   2.203 -0.9229 -0.3528  0.2595
  387MOL0     C51017   6.894   4.695   1.931 -0.5166  0.3730 -1.1280
  387MOL0     C51018   6.831   4.585   1.990 -0.0101  0.8168 -1.0425
  387MOL0     H51019   6.770   4.145   2.026  1.8591 -1.1511  1.7488
  387MOL0     H51020   6.682   3.924   2.101 -1.5854  0.0656  0.0639
  387MOL0     H51021   6.647   3.840   2.491  0.0012  1.4857 -0.1696
  387MOL0     H51022   6.715   3.815   2.329 -0.7228 -0.7065 -2.1879
  387MOL0     H51023   6.525   3.653   2.306 -0.6025 -0.3949  1.5614
  387MOL0     H51024   6.495   3.656   2.483  0.5719 -1.8228  0.2114
  387MOL0     H51025   6.768   3.623   2.440 -1.0225  1.0684  2.0301
  387MOL0     H51026   6.694   3.496   2.342 -3.3062 -1.0950  1.0245
  387MOL0     H51027   6.687   3.561   2.639  1.0005 -2.4999  1.1735
  387MOL0     H51028   6.551   3.455   2.577 -1.3182  1.5634  1.2394
  387MOL0     H51029   6.722   3.312   2.661 -1.3867 -1.9418 -2.4704
  387MOL0     H51030   6.849   3.410   2.609  0.4913 -1.2335  1.2897
  387MOL0     H51031   6.792   3.322   2.362 -1.7444 -1.0909 -1.1412
  387MOL0     H51032   6.669   3.231   2.459  0.5753 -0.6549  1.9828
  387MOL0     H51033   6.960   3.211   2.540 -1.1094 -0.4838  0.2136
  387MOL0     H51034   6.819   3.116   2.582 -1.0339  0.8574 -0.1630
  387MOL0     H51035   6.798   3.040   2.339 -0.9629 -3.5573  3.5907
  387MOL0     H51036   6.931   2.970   2.427  0.9086 -0.4655 -0.2411
  387MOL0     H51037   7.183   3.083   2.390  0.3175  0.1368  0.5078
  387MOL0     H51038   7.361   3.280   2.334 -0.4542  1.2991  1.4719
  387MOL0     H51039   7.280   3.433   2.311  1.5159  1.7816 -0.9989
  387MOL0     H51040   7.463   3.381   2.139  0.5241 -3.0144  0.8846
  387MOL0     H51041   7.291   3.414   2.070 -0.9238 -1.1650 -0.8924
  387MOL0     H51042   7.405   3.137   2.119 -0.7817  0.6617  0.1090
  387MOL0     H51043   7.265   3.195   2.024 -1.1122  1.1607  0.2067
  387MOL0     H51044   7.413   3.290   1.850 -0.5211 -1.3633 -1.4476
  387MOL0     H51045   7.449   3.136   1.864 -1.1473  0.7892 -0.1932
  387MOL0     H51046   7.493   3.506   1.890  0.3900  2.4192 -0.4232
  387MOL0     H51047   7.587   3.700   1.923  0.0915 -0.2652  2.6602
  387MOL0     H51048   7.614   4.037   1.924 -0.2860 -1.5844  2.5753
  387MOL0     H51049   7.666   4.298   1.939  0.7470  2.4934  3.7600
  387MOL0     H51050   8.082   4.471   1.959  0.4770  1.7145 -1.3906
  387MOL0     H51051   7.960   4.586   1.938  1.2630  0.9908 -3.0409
  387MOL0     H51052   7.904   4.502   1.723  0.2535  0.3045 -0.8977
  387MOL0     H51053   7.965   4.338   1.768  1.1771 -0.1998  1.7668
  387MOL0     H51054   8.129   4.417   1.614  0.7919 -4.3488  1.3773
  387MOL0     H51055   8.196   4.402   1.770 -0.2168 -0.8877  0.3249
  387MOL0     H51056   8.115   4.669   1.635 -0.8160 -2.9117 -1.1954
  387MOL0     H51057   8.170   4.654   1.806 -0.4401  0.0435  0.1124
  387MOL0     H51058   8.344   4.731   1.668 -1.9967  1.2233 -0.1028
  387MOL0     H51059   8.325   4.597   1.563 -2.6035  1.3535 -0.2614
  387MOL0     H51060   8.512   4.605   1.718 -1.5878  1.7848 -1.3608
  387MOL0     H51061   8.434   4.449   1.692  0.8856  0.0632  0.4894
  387MOL0     H51062   8.367   4.630   1.937  0.9310  0.5124 -0.5741
  387MOL0     H51063   8.340   4.446   1.933 -1.6372  2.0008  2.1721
  387MOL0     H51064   8.533   4.490   2.063 -2.8277 -1.0352 -0.7929
  387MOL0     H51065   8.598   4.604   1.947  2.6778 -0.8413  3.0408
  387MOL0     H51066   8.061   4.225   2.039  1.0278 -0.6669 -0.6941
  387MOL0     H51067   8.041   3.990   1.986  0.5381  1.7091  2.2823
  387MOL0     H51068   7.965   3.507   2.013  1.0988  5.1117 -2.3983
  387MOL0     H51069   7.846   3.294   2.022 -0.4131  0.7153 -0.7604
  387MOL0     H51070   6.448   4.124   2.400  2.7663 -1.0500  0.4839
  387MOL0     H51071   6.516   4.350   2.288 -0.3987 -0.3357 -0.6790
  387MOL0     H51072   6.537   4.744   2.058 -0.0964 -1.5482 -0.2705
  387MOL0     H51073   6.664   4.939   2.011 -1.8455 -1.9836  4.2859
  387MOL0     H51074   6.895   5.039   2.022  2.5011  0.4841  0.3109
  387MOL0     H51075   6.828   5.115   1.886  1.3683  1.4842 -0.8812
  387MOL0     H51076   7.115   5.023   1.854  6.6698  2.4460  1.5489
  387MOL0     H51077   7.049   5.167   1.795 -0.7315  1.4068  0.9974
  387MOL0     H51078   7.123   5.124   2.095 -1.5957  0.9691 -0.1957
  387MOL0     H51079   7.069   5.275   2.016  1.5727  0.2759  1.5935
  387MOL0     H51080   7.326   5.123   1.943 -0.7461 -0.6963 -0.6463
  387MOL0     H51081   7.278   5.278   1.889  2.8810 -4.3195 -3.5124
  387MOL0     H51082   7.400   5.324   2.299 -2.5360  1.0038  0.5124
  387MOL0     H51083   6.988   4.667   1.885  0.2057 -2.1075  1.5747
  387MOL0     H51084   6.886   4.492   1.998 -1.6952 -0.0812  1.2909
  388MOL0     O51085   6.333   0.846   5.662  0.1172 -0.0033 -0.1491
  388MOL0     C51086   6.214   0.822   5.672 -0.3553  0.2945  0.1975
  388MOL0     O51087   6.110   0.913   5.675  0.1824  0.6784  0.3285
  388MOL0     C51088   6.118   1.046   5.638  0.3337  0.8663  0.4214
  388MOL0     C51089   6.240   1.116   5.638  0.0402 -0.5004 -0.2568
  388MOL0     C51090   6.238   1.253   5.597  0.0860  0.2343  0.4328
  388MOL0     C51091   6.120   1.316   5.557 -0.4183 -0.5080  0.4917
  388MOL0     O51092   6.120   1.445   5.511  0.1067 -0.8659 -0.0666
  388MOL0     C51093   6.034   1.467   5.403 -0.3899 -0.4336  0.1014
  388MOL0     C51094   6.117   1.437   5.276 -0.3775  0.4087  0.2211
  388MOL0     C51095   6.245   1.522   5.264  0.7558 -0.9781 -0.2822
  388MOL0     C51096   6.208   1.669   5.267 -0.2669  0.1531  0.9412
  388MOL0     C51097   6.320   1.748   5.211  0.4414 -0.2944 -0.1187
  388MOL0     C51098   6.463   1.737   5.281 -0.4091  0.2030 -0.3503
  388MOL0     C51099   6.451   1.820   5.408 -0.3672 -0.0626  0.1817
  388MOL0     C51100   6.584   1.825   5.483 -0.8616 -0.6201 -0.3061
  388MOL0     N51101   6.605   1.699   5.549  0.7206  1.1294  1.3961
  388MOL0     C51102   6.541   1.653   5.665  0.4190 -0.6348  0.3325
  388MOL0     C51103   6.599   1.534   5.685 -1.0624 -0.2116 -0.5413
  388MOL0     C51104   6.559   1.433   5.793 -0.2511  0.7065  0.1917
  388MOL0     C51105   6.623   1.458   5.935  0.0097 -0.0058  0.2668
  388MOL0     C51106   6.771   1.429   5.942  0.0157  0.9612  0.2747
  388MOL0     C51107   6.803   1.282   5.924 -0.4102  0.3322 -0.5428
  388MOL0     O51108   6.723   1.203   6.006  0.6179  0.8188  0.2945
  388MOL0     C51109   6.707   1.072   5.979 -0.0651 -0.6970  0.0424
  388MOL0     C51110   6.728   1.013   5.854  0.6754  0.4948  0.5513
  388MOL0     C51111   6.703   0.876   5.837  0.8585  0.1815  0.2081
  388MOL0     C51112   6.654   0.786   5.939  0.2851 -0.8770  0.4023
  388MOL0     C51113   6.617   0.642   5.912 -0.8277 -1.0508  0.0850
  388MOL0     O51114   6.591   0.566   6.025 -0.2960 -0.4323  0.0527
  388MOL0     C51115   6.634   0.434   6.016 -0.5524  0.6778  0.1499
  388MOL0     C51116   6.600   0.346   5.912 -0.3392  0.0247 -0.2217
  388MOL0     C51117   6.648   0.212   5.911 -0.5869 -0.6080  0.6112
  388MOL0     C51118   6.730   0.161   6.013  0.2717  0.1626 -0.1847
  388MOL0     O51119   6.775   0.040   6.028 -0.4491 -0.5728 -0.6947
  388MOL0     C51120   6.775  -0.049   5.923 -0.7462  0.9929  0.8090
  388MOL0     C51121   6.860  -0.177   5.961  0.4268  0.3936  0.0745
  388MOL0     C51122   6.779  -0.257   6.059 -0.7647  0.0113  0.1260
  388MOL0     C51123   6.844  -0.395   6.080 -0.8449  0.7891  0.3803
  388MOL0     C51124   6.768  -0.482   6.176 -0.7826  0.1999 -0.2987
  388MOL0     C51125   6.861  -0.516   6.299 -0.1769 -0.3599 -0.1769
  388MOL0     C51126   6.806  -0.613   6.392 -0.0686  0.1820 -0.2584
  388MOL0     C51127   6.895  -0.654   6.516 -0.3920 -0.4022 -0.1108
  388MOL0    Cl51128   7.061  -0.695   6.470 -0.1548  0.1654  0.3106
  388MOL0     C51129   6.758   0.246   6.117  0.9410 -0.3499  0.3674
  388MOL0     C51130   6.711   0.379   6.124 -0.1931  0.0480 -0.0491
  388MOL0     O51131   6.621   0.607   5.796  1.1010  0.2079  0.4863
  388MOL0     C51132   6.645   0.845   6.066  0.5154  0.5517 -0.0568
  388MOL0     C51133   6.669   0.985   6.079  0.2353  0.1298  1.1434
  388MOL0     N51134   6.702   1.513   5.585  0.2852 -0.1739 -0.2861
  388MOL0     N51135   6.699   1.611   5.504  0.1992 -0.8645 -0.4323
  388MOL0     C51136   6.010   1.241   5.572 -0.0718  0.2739 -0.1102
  388MOL0     C51137   6.006   1.114   5.594  0.6553  0.1785 -0.1515
  388MOL0     C51138   6.188   0.681   5.684  0.1995 -0.4526  0.1354
  388MOL0     C51139   6.265   0.590   5.760 -0.3817  0.4253  0.6341
  388MOL0     C51140   6.224   0.451   5.772  0.5321  0.3721 -0.4420
  388MOL0     C51141   6.114   0.400   5.700 -0.6989  0.2589  0.0924
  388MOL0     O51142   6.081   0.269   5.713 -0.3638 -0.1689 -0.3069
  388MOL0     C51143   5.943   0.215   5.682  0.7351  0.4590 -0.7051
  388MOL0     C51144   5.942   0.056   5.688  0.1591  0.1147 -0.2947
  388MOL0     C51145   6.004   0.003   5.813  0.5627 -0.3367 -0.8074
  388MOL0     C51146   6.049  -0.145   5.806 -0.2551 -0.8078  0.4595
  388MOL0     C51147   6.150  -0.145   5.706 -1.1601  0.0021 -0.0149
  388MOL0     C51148   6.243  -0.159   5.624 -0.5982 -0.3699 -0.2527
  388MOL0     C51149   6.034   0.492   5.634 -0.0040  0.9580  0.6841
  388MOL0     C51150   6.070   0.627   5.624 -0.0322  0.4668  0.1217
  388MOL0     H51151   6.336   1.074   5.667 -1.4435 -2.5212  2.1053
  388MOL0     H51152   6.324   1.318   5.611  0.3727 -0.2754  1.0992
  388MOL0     H51153   5.991   1.566   5.423 -0.7926 -0.8189  1.1917
  388MOL0     H51154   5.945   1.404   5.399  1.0125 -2.7819  2.8296
  388MOL0     H51155   6.049   1.461   5.194 -1.4869  0.1856  1.0491
  388MOL0     H51156   6.136   1.330   5.270  0.9151  0.7202 -3.1110
  388MOL0     H51157   6.290   1.500   5.167 -1.7031  0.1296 -1.7881
  388MOL0     H51158   6.314   1.493   5.344  3.0705 -1.2439 -2.2711
  388MOL0     H51159   6.135   1.686   5.188  1.4284 -1.2779 -1.0462
  388MOL0     H51160   6.165   1.706   5.361 -2.3395  0.7614 -0.1809
  388MOL0     H51161   6.295   1.853   5.196  0.2407 -0.3270 -0.0198
  388MOL0     H51162   6.349   1.718   5.110 -1.4926  1.5325 -1.3192
  388MOL0     H51163   6.531   1.780   5.208 -0.8078  0.4771 -0.5646
  388MOL0     H51164   6.485   1.633   5.306  0.7898  0.1528 -1.4997
  388MOL0     H51165   6.410   1.919   5.391  0.1176  0.2710  0.8774
  388MOL0     H51166   6.385   1.767   5.477  3.8879 -0.1764  4.7355
  388MOL0     H51167   6.572   1.888   5.572  0.5821 -1.3483  0.4491
  388MOL0     H51168   6.662   1.857   5.413  1.8913 -2.4459  1.7276
  388MOL0     H51169   6.460   1.690   5.727  1.6386  1.8305  0.5635
  388MOL0     H51170   6.580   1.330   5.762 -0.6677  0.0173  2.0951
  388MOL0     H51171   6.451   1.446   5.807 -0.1904  1.3869  0.1012
  388MOL0     H51172   6.561   1.405   6.008 -0.5761 -0.5266 -0.5818
  388MOL0     H51173   6.593   1.562   5.953  0.7114  0.3201 -0.3944
  388MOL0     H51174   6.839   1.488   5.880  2.2780  0.2812  1.9788
  388MOL0     H51175   6.800   1.440   6.047 -2.0829 -0.9953  1.1692
  388MOL0     H51176   6.912   1.269   5.927 -0.4021  0.3410 -0.8100
  388MOL0     H51177   6.791   1.265   5.817 -0.7225 -1.1622 -0.2863
  388MOL0     H51178   6.769   1.070   5.771  0.0198  1.3959  0.8286
  388MOL0     H51179   6.714   0.830   5.739  1.7084 -2.7523  1.5656
  388MOL0     H51180   6.541   0.375   5.826 -0.9101  0.6927  0.3708
  388MOL0     H51181   6.631   0.146   5.827  2.1343 -2.1967  1.1962
  388MOL0     H51182   6.835  -0.008   5.841  1.9694 -2.9688  0.5125
  388MOL0     H51183   6.674  -0.070   5.888 -1.0740 -0.4642  2.4989
  388MOL0     H51184   6.959  -0.144   5.993 -0.1930  0.7294  1.7217
  388MOL0     H51185   6.868  -0.234   5.868  1.4482  1.1652 -0.3406
  388MOL0     H51186   6.686  -0.268   6.002 -0.4605  0.6076 -0.5173
  388MOL0     H51187   6.756  -0.196   6.147  0.9793  2.3120 -0.8729
  388MOL0     H51188   6.857  -0.447   5.985  6.0030 -0.0411  1.2888
  388MOL0     H51189   6.947  -0.386   6.117 -1.2760 -1.4306  2.3295
  388MOL0     H51190   6.744  -0.575   6.124  1.0578 -0.0961 -0.7054
  388MOL0     H51191   6.675  -0.430   6.200 -0.2028  2.4330 -2.4866
  388MOL0     H51192   6.880  -0.420   6.348 -0.3566 -1.5547  2.3829
  388MOL0     H51193   6.955  -0.562   6.268 -0.0620 -0.4848  0.3435
  388MOL0     H51194   6.714  -0.581   6.442 -0.9686 -1.4575 -0.7971
  388MOL0     H51195   6.765  -0.694   6.331  0.3768 -0.8258  0.7394
  388MOL0     H51196   6.835  -0.726   6.570 -2.4556 -1.9643 -4.0557
  388MOL0     H51197   6.908  -0.560   6.570  1.5219  1.2296 -3.0932
  388MOL0     H51198   6.809   0.192   6.196  0.0046 -0.1275  1.1416
  388MOL0     H51199   6.748   0.445   6.201 -0.2509 -0.1442  0.1443
  388MOL0     H51200   6.596   0.787   6.143 -3.1647  3.4087  0.0302
  388MOL0     H51201   6.664   1.029   6.178 -2.2842  1.0378  0.6937
  388MOL0     H51202   5.914   1.288   5.551  0.6816  1.4989 -0.9119
  388MOL0     H51203   5.912   1.060   5.587  1.4084 -0.9388 -3.4430
  388MOL0     H51204   6.364   0.609   5.800  1.9770 -1.3402 -3.6058
  388MOL0     H51205   6.284   0.389   5.838 -1.1313  0.3992  1.1714
  388MOL0     H51206   5.904   0.241   5.583 -2.2731  0.1616  0.2937
  388MOL0     H51207   5.871   0.257   5.754 -0.9139 -0.2062 -1.8923
  388MOL0     H51208   5.843   0.010   5.681  0.3738 -0.9555  2.6583
  388MOL0     H51209   5.988   0.018   5.596 -1.9237  0.4340 -1.5278
  388MOL0     H51210   5.933   0.014   5.896  0.4343  4.4180 -1.2709
  388MOL0     H51211   6.088   0.059   5.856  0.4362 -1.0866  0.4492
  388MOL0     H51212   6.074  -0.176   5.907  0.8164 -0.8724  0.1903
  388MOL0     H51213   5.963  -0.207   5.779  1.2555 -1.4015 -3.7685
  388MOL0     H51214   6.332  -0.164   5.564  0.5536 -0.1129  1.3944
  388MOL0     H51215   5.944   0.458   5.583  0.0762 -0.9877  1.7727
  388MOL0     H51216   6.011   0.687   5.556  2.1825  2.1092 -0.4835
  389MOL0     O51217  10.102   2.688   7.965  0.1422  0.5897 -0.2388
  389MOL0     C51218  10.142   2.718   8.075  0.4151 -0.4842 -0.1915
  389MOL0     O51219  10.271   2.696   8.129  0.5837  0.1198 -0.5963
  389MOL0     C51220  10.376   2.621   8.077  0.3087  0.5312  0.1840
  389MOL0     C51221  10.483   2.596   8.170  1.0640  0.1737  0.2760
  389MOL0     C51222  10.603   2.535   8.113 -0.0179 -0.2035 -0.1077
  389MOL0     C51223  10.609   2.497   7.977  0.3490  1.1618  0.0931
  389MOL0     O51224  10.708   2.412   7.921  0.5992 -0.5239 -0.3275
  389MOL0     C51225  10.839   2.397   7.992 -0.1869  0.4686  0.5492
  389MOL0     C51226  10.927   2.347   7.886 -0.6919 -0.4473 -0.0541
  389MOL0     C51227  10.875   2.213   7.829  0.1908  0.3657  0.8762
  389MOL0     C51228  10.914   2.189   7.689  0.1032 -0.4080  0.2282
  389MOL0     C51229  11.056   2.128   7.661  0.0622  0.7466  0.1147
  389MOL0     C51230  11.061   1.969   7.683 -0.7331 -0.5370  0.0220
  389MOL0     C51231  11.200   1.915   7.669  0.2356 -0.2160 -0.4620
  389MOL0     C51232  11.243   1.895   7.524  0.1987  0.3177 -0.1091
  389MOL0     N51233  11.377   1.820   7.500  0.3880 -0.5041  0.0556
  389MOL0     C51234  11.422   1.724   7.584  1.4726  0.3000  0.5611
  389MOL0     C51235  11.541   1.704   7.531  0.2318 -0.0212 -0.4471
  389MOL0     C51236  11.635   1.606   7.597  0.5337 -0.1040 -0.0968
  389MOL0     C51237  11.627   1.453   7.567 -0.5118 -0.3478 -0.2464
  389MOL0     C51238  11.727   1.358   7.643  0.3867  0.3286  0.1093
  389MOL0     C51239  11.730   1.225   7.583  0.4735 -0.7592 -0.1754
  389MOL0     O51240  11.808   1.131   7.648 -0.2914  0.5380  0.0189
  389MOL0     C51241  11.880   1.042   7.577  0.0333  0.6465 -1.0589
  389MOL0     C51242  12.013   1.013   7.618  0.4581 -0.4328 -0.4641
  389MOL0     C51243  12.091   0.933   7.542  0.4348  0.2474  0.0315
  389MOL0     C51244  12.038   0.879   7.422 -0.6455  0.0279 -1.1200
  389MOL0     C51245  12.129   0.787   7.339  0.6946 -0.5750 -0.5286
  389MOL0     O51246  12.090   0.760   7.208  0.0331 -0.2214 -1.1963
  389MOL0     C51247  12.172   0.706   7.114  1.3566 -0.1673  0.2118
  389MOL0     C51248  12.275   0.609   7.139 -0.2284  0.0763 -0.8311
  389MOL0     C51249  12.362   0.563   7.042 -0.3859  0.2605  0.7704
  389MOL0     C51250  12.350   0.598   6.908  0.4499 -0.0953  0.1109
  389MOL0     O51251  12.419   0.531   6.810 -0.2351  0.1678  0.6917
  389MOL0     C51252  12.358   0.507   6.690 -0.1131 -0.0083 -0.4476
  389MOL0     C51253  12.444   0.433   6.587  0.2237 -1.3005 -0.2309
  389MOL0     C51254  12.367   0.424   6.454  0.5244  0.0755  0.5861
  389MOL0     C51255  12.364   0.546   6.355 -0.1967 -0.3024  0.1435
  389MOL0     C51256  12.328   0.507   6.209  0.3730 -0.0701  0.3805
  389MOL0     C51257  12.274   0.638   6.137 -0.0652  0.0496 -0.2575
  389MOL0     C51258  12.372   0.741   6.119 -0.2027  0.6309 -0.2180
  389MOL0     C51259  12.347   0.863   6.035 -1.0313 -0.1071  1.1437
  389MOL0    Cl51260  12.383   1.012   6.135 -0.2717 -0.5937  0.3724
  389MOL0     C51261  12.243   0.694   6.882  0.2490 -0.3185 -0.4150
  389MOL0     C51262  12.154   0.746   6.987  0.4310  0.6229 -0.1218
  389MOL0     O51263  12.238   0.751   7.389  0.8484 -0.5800 -0.1585
  389MOL0     C51264  11.916   0.917   7.372 -0.2223  0.1244  0.3449
  389MOL0     C51265  11.835   0.993   7.457  0.5514 -0.3457  0.3132
  389MOL0     N51266  11.563   1.783   7.417 -0.0189 -0.1793  0.2148
  389MOL0     N51267  11.458   1.859   7.403  0.0104  0.0717 -0.0775
  389MOL0     C51268  10.498   2.518   7.895 -0.7418  0.3526  0.6729
  389MOL0     C51269  10.392   2.581   7.939  0.4399  0.0987 -0.7424
  389MOL0     C51270  10.050   2.801   8.157  0.5908  0.3869  0.4278
  389MOL0     C51271   9.916   2.822   8.117 -0.2897 -0.2008  0.5214
  389MOL0     C51272   9.831   2.890   8.204 -0.1963  0.8879 -0.5261
  389MOL0     C51273   9.877   2.947   8.321 -0.2879  0.4810  0.0959
  389MOL0     O51274   9.803   3.023   8.405  0.0668 -0.0551 -0.1533
  389MOL0     C51275   9.670   3.069   8.363 -0.2760  0.7057 -0.4617
  389MOL0     C51276   9.619   3.181   8.459 -0.3371 -0.1842 -0.2323
  389MOL0     C51277   9.634   3.321   8.403 -0.6651  0.1779  0.4180
  389MOL0     C51278   9.785   3.350   8.378 -0.5174 -0.4920  0.7561
  389MOL0     C51279   9.798   3.483   8.319  0.5970 -0.3460  0.0638
  389MOL0     C51280   9.802   3.593   8.282  1.0312 -0.2219  0.3457
  389MOL0     C51281  10.009   2.925   8.360  1.0109  0.2516  0.2216
  389MOL0     C51282  10.093   2.851   8.282  0.0753 -0.0487  0.5398
  389MOL0     H51283  10.458   2.636   8.268 -1.9098 -0.3687 -0.1695
  389MOL0     H51284  10.687   2.522   8.181  0.1550 -1.7288 -0.5581
  389MOL0     H51285  10.831   2.334   8.081  4.0333  0.6820  1.2834
  389MOL0     H51286  10.879   2.488   8.038 -2.9445  1.3906  1.3273
  389MOL0     H51287  11.019   2.332   7.943 -3.2113  0.5394  4.8380
  389MOL0     H51288  10.944   2.430   7.817 -2.9314  0.7645  0.7427
  389MOL0     H51289  10.766   2.209   7.819  0.0868  2.8209  0.4183
  389MOL0     H51290  10.914   2.138   7.898  3.0277  1.1285  0.1988
  389MOL0     H51291  10.847   2.124   7.632  2.1357 -1.2753 -1.3103
  389MOL0     H51292  10.911   2.284   7.636 -3.1847  0.0011  0.9570
  389MOL0     H51293  11.120   2.181   7.732  0.0074  1.3857 -0.3062
  389MOL0     H51294  11.095   2.151   7.561 -1.8194  0.1460 -0.8078
  389MOL0     H51295  11.002   1.913   7.609 -1.2408 -1.6788  1.2380
  389MOL0     H51296  11.014   1.949   7.781  0.4829  5.3395  2.1928
  389MOL0     H51297  11.271   1.972   7.729 -1.8268  1.4318  0.4990
  389MOL0     H51298  11.196   1.810   7.699 -0.6613  0.2466  1.1539
  389MOL0     H51299  11.238   1.986   7.464 -2.1516  0.3044 -0.0411
  389MOL0     H51300  11.172   1.827   7.475  2.0017  0.3734 -2.9973
  389MOL0     H51301  11.374   1.681   7.671 -3.1401  0.5805 -1.4940
  389MOL0     H51302  11.625   1.619   7.705 -1.0666 -1.0929 -0.0868
  389MOL0     H51303  11.737   1.625   7.565  0.6606 -0.4004  0.1317
  389MOL0     H51304  11.641   1.442   7.460  0.7972 -2.1768  0.0744
  389MOL0     H51305  11.525   1.420   7.589  0.0838 -4.1026 -2.3448
  389MOL0     H51306  11.825   1.403   7.628  1.7353 -3.0752 -2.4591
  389MOL0     H51307  11.705   1.346   7.749  0.6513 -0.1681  0.1105
  389MOL0     H51308  11.767   1.249   7.483  4.1101  0.1834  1.2553
  389MOL0     H51309  11.630   1.184   7.562  0.9103 -1.8567 -0.1712
  389MOL0     H51310  12.050   1.053   7.712  2.1526 -0.5130 -1.0692
  389MOL0     H51311  12.186   0.908   7.588  1.8225 -1.4360 -3.4135
  389MOL0     H51312  12.286   0.562   7.237  0.5426 -1.6344 -1.6984
  389MOL0     H51313  12.429   0.484   7.075  2.4018  1.5957 -1.2246
  389MOL0     H51314  12.320   0.601   6.649 -0.7132 -0.5198 -1.0869
  389MOL0     H51315  12.268   0.444   6.692  0.3261 -0.8950 -3.5168
  389MOL0     H51316  12.472   0.332   6.618 -0.4915 -1.6079 -0.5545
  389MOL0     H51317  12.539   0.485   6.581 -1.0015  1.1021  0.1725
  389MOL0     H51318  12.260   0.404   6.467  0.6959 -0.8740  0.6456
  389MOL0     H51319  12.407   0.339   6.397 -1.8446 -0.6321 -0.1809
  389MOL0     H51320  12.297   0.625   6.389 -2.5113 -2.4064  0.7622
  389MOL0     H51321  12.469   0.577   6.351  0.5539 -2.6298 -3.1993
  389MOL0     H51322  12.248   0.434   6.223  0.7977 -0.2156  2.4236
  389MOL0     H51323  12.407   0.456   6.153 -2.5359 -1.3215 -2.9352
  389MOL0     H51324  12.181   0.679   6.178  0.2509  1.9509 -1.3284
  389MOL0     H51325  12.260   0.594   6.038 -2.0006  0.7520 -0.3251
  389MOL0     H51326  12.399   0.787   6.215 -1.5867  2.4333 -0.6498
  389MOL0     H51327  12.462   0.696   6.076 -0.7760  0.1803 -0.9649
  389MOL0     H51328  12.240   0.879   6.022 -0.8371  1.5160  1.3500
  389MOL0     H51329  12.405   0.860   5.942  1.0309  1.3022  2.3048
  389MOL0     H51330  12.229   0.737   6.784  1.1367  2.7542  0.7017
  389MOL0     H51331  12.074   0.815   6.960  2.9035  2.1889 -4.6586
  389MOL0     H51332  11.871   0.889   7.277  0.0542 -1.4828  0.6602
  389MOL0     H51333  11.736   1.023   7.425  1.3181  0.9892 -0.9596
  389MOL0     H51334  10.499   2.473   7.797 -0.8876  3.5280 -0.9212
  389MOL0     H51335  10.311   2.594   7.869  1.4333  1.0347 -1.7588
  389MOL0     H51336   9.897   2.789   8.016  2.8199  0.6322 -0.4482
  389MOL0     H51337   9.730   2.920   8.176 -0.4630  2.0305  1.4934
  389MOL0     H51338   9.600   2.986   8.372 -0.6748  1.2948  3.3212
  389MOL0     H51339   9.677   3.099   8.258  1.1198 -1.9764 -1.2340
  389MOL0     H51340   9.509   3.176   8.467 -0.7255 -0.6872 -4.1763
  389MOL0     H51341   9.677   3.196   8.550 -0.7082  0.5547 -0.1101
  389MOL0     H51342   9.594   3.406   8.459 -0.9557  0.9685 -0.9287
  389MOL0     H51343   9.563   3.330   8.319 -2.5150  0.6448  1.9585
  389MOL0     H51344   9.846   3.354   8.468  2.2659  0.4197 -1.0559
  389MOL0     H51345   9.832   3.272   8.317 -4.7339  0.1202 -4.0619
  389MOL0     H51346   9.818   3.696   8.256 -0.6988 -0.1345 -0.4521
  389MOL0     H51347  10.048   2.974   8.448 -2.3711  2.3516  0.7348
  389MOL0     H51348  10.198   2.850   8.310  0.2155  1.6803  0.2052
  390MOL0     O51349   4.327   2.571   6.565  0.1658  0.3533  0.1341
  390MOL0     C51350   4.416   2.592   6.485 -0.1174 -0.4803 -0.0029
  390MOL0     O51351   4.464   2.717   6.460  0.1936 -0.2724 -1.1812
  390MOL0     C51352   4.445   2.825   6.548  0.5833 -0.0262 -0.3696
  390MOL0     C51353   4.337   2.918   6.522 -0.1296 -0.1572 -0.3408
  390MOL0     C51354   4.323   3.045   6.590 -0.4969  0.2227 -0.0897
  390MOL0     C51355   4.428   3.076   6.683 -0.2329 -0.9437  0.9663
  390MOL0     O51356   4.431   3.200   6.750 -0.5885 -0.4012 -0.2984
  390MOL0     C51357   4.348   3.197   6.871 -0.2956 -0.8394 -0.2576
  390MOL0     C51358   4.366   3.320   6.962 -0.2934  0.2693 -0.3230
  390MOL0     C51359   4.263   3.308   7.066 -0.1276  0.2483  1.1855
  390MOL0     C51360   4.282   3.409   7.174 -0.0045 -0.9264 -0.9387
  390MOL0     C51361   4.180   3.369   7.287 -1.5344 -0.5091  0.7982
  390MOL0     C51362   4.199   3.458   7.409 -0.4300 -0.5840 -0.3662
  390MOL0     C51363   4.115   3.409   7.531  0.5844  0.8274 -0.0440
  390MOL0     C51364   4.156   3.277   7.601 -1.2391 -0.7200  0.1745
  390MOL0     N51365   4.095   3.266   7.734  0.2162 -0.5348  0.5914
  390MOL0     C51366   4.106   3.350   7.845  0.1738  0.4470 -0.6786
  390MOL0     C51367   4.029   3.294   7.940 -0.6375  1.0533 -0.9727
  390MOL0     C51368   4.023   3.334   8.083  0.1669  0.5413  0.4705
  390MOL0     C51369   4.012   3.485   8.095  0.7382 -0.1989  0.5597
  390MOL0     C51370   3.973   3.540   8.230 -0.0717  0.2322 -0.4915
  390MOL0     C51371   4.053   3.497   8.351 -0.6678 -0.1892 -0.0768
  390MOL0     O51372   4.198   3.509   8.320  0.3293 -0.2139 -0.2626
  390MOL0     C51373   4.256   3.629   8.361  0.4157 -0.7548  0.3551
  390MOL0     C51374   4.395   3.632   8.384 -0.5357 -0.1396 -0.2915
  390MOL0     C51375   4.457   3.756   8.409 -1.5379 -0.6186 -0.4165
  390MOL0     C51376   4.396   3.878   8.414  0.6413 -0.6069 -0.4070
  390MOL0     C51377   4.465   4.009   8.434  0.2102 -0.1218 -0.3163
  390MOL0     O51378   4.400   4.134   8.431 -0.7975  0.2771  0.3787
  390MOL0     C51379   4.483   4.247   8.454  0.1246 -0.0292  0.5225
  390MOL0     C51380   4.617   4.269   8.396  0.7686  0.6665 -0.4768
  390MOL0     C51381   4.679   4.391   8.428  0.0356  0.7358  0.1404
  390MOL0     C51382   4.608   4.492   8.503  0.4288 -0.4356 -0.2530
  390MOL0     O51383   4.664   4.616   8.530 -0.3129 -0.2827  0.0628
  390MOL0     C51384   4.698   4.697   8.416 -0.2109  0.6350  0.3593
  390MOL0     C51385   4.679   4.846   8.461 -0.2452  0.2828  0.2928
  390MOL0     C51386   4.797   4.896   8.555  0.2534 -0.7162  0.4821
  390MOL0     C51387   4.790   5.050   8.570 -0.4756 -1.3527 -0.5885
  390MOL0     C51388   4.926   5.118   8.548  0.0527 -0.8227  0.0690
  390MOL0     C51389   4.972   5.104   8.404 -0.2451 -0.1792 -0.2099
  390MOL0     C51390   5.039   5.235   8.359 -0.6737  0.6639 -0.1474
  390MOL0     C51391   5.162   5.283   8.443 -0.2379  0.6594  0.5985
  390MOL0    Cl51392   5.282   5.158   8.455 -0.0548  0.0187  0.4288
  390MOL0     C51393   4.477   4.461   8.545  0.2131 -0.3023  0.4886
  390MOL0     C51394   4.422   4.338   8.534  0.9404 -1.0130 -0.1531
  390MOL0     O51395   4.580   3.990   8.467 -0.9973 -0.0105 -0.3541
  390MOL0     C51396   4.254   3.870   8.397  0.0964  0.3337  0.3907
  390MOL0     C51397   4.183   3.751   8.365 -0.3843 -0.3652  0.2356
  390MOL0     N51398   3.973   3.182   7.888 -0.2415  1.4998  0.4233
  390MOL0     N51399   4.013   3.167   7.763  1.0003 -0.3252 -0.4748
  390MOL0     C51400   4.537   2.989   6.699 -0.0562  0.5433  0.1078
  390MOL0     C51401   4.541   2.863   6.635 -0.3477  1.2603 -0.6548
  390MOL0     C51402   4.462   2.484   6.401  0.2180  0.3809 -0.8610
  390MOL0     C51403   4.461   2.350   6.444  0.6237  0.2918 -0.1662
  390MOL0     C51404   4.498   2.259   6.357 -0.3316  0.5851  0.0265
  390MOL0     C51405   4.569   2.282   6.240 -0.5428 -1.2503 -1.0678
  390MOL0     O51406   4.605   2.183   6.153  0.8179  0.0851 -0.0830
  390MOL0     C51407   4.748   2.170   6.136  0.4244  0.4524 -0.2909
  390MOL0     C51408   4.779   2.097   6.011  0.3799  0.4968  0.3785
  390MOL0     C51409   4.713   1.958   6.010 -0.0968 -0.0347 -0.3772
  390MOL0     C51410   4.754   1.871   5.896 -0.6697  0.0953  0.5233
  390MOL0     C51411   4.667   1.892   5.770  0.0149  0.2114 -0.0746
  390MOL0     C51412   4.600   1.895   5.669  0.0629 -0.8302 -0.3360
  390MOL0     C51413   4.584   2.418   6.203 -0.0505  0.8967  0.1740
  390MOL0     C51414   4.506   2.509   6.270  0.3375  0.3161  0.4631
  390MOL0     H51415   4.273   2.888   6.440 -0.3423 -1.4262  0.2637
  390MOL0     H51416   4.233   3.105   6.579 -0.6905  0.6460  3.0189
  390MOL0     H51417   4.379   3.109   6.928  0.6591  0.8648  2.0206
  390MOL0     H51418   4.242   3.190   6.846 -0.7232  2.0155  0.4787
  390MOL0     H51419   4.344   3.405   6.895 -0.0550  1.7790  1.4428
  390MOL0     H51420   4.470   3.329   6.996 -0.5029 -1.5613  0.9366
  390MOL0     H51421   4.284   3.213   7.115  2.6724 -0.9943 -2.0827
  390MOL0     H51422   4.168   3.325   7.015  0.6992 -0.1522 -0.5519
  390MOL0     H51423   4.385   3.398   7.208 -0.3762  0.7775  0.9078
  390MOL0     H51424   4.271   3.512   7.138 -1.1933 -1.0999 -1.1196
  390MOL0     H51425   4.198   3.263   7.309 -2.1486 -0.5359  1.2074
  390MOL0     H51426   4.080   3.389   7.247  0.0142  1.1215 -2.6642
  390MOL0     H51427   4.162   3.560   7.392  3.0652  0.8203 -0.2322
  390MOL0     H51428   4.299   3.480   7.447  0.1395 -3.6361  0.1460
  390MOL0     H51429   4.114   3.495   7.599  3.0181  3.3189 -2.8480
  390MOL0     H51430   4.014   3.401   7.491 -1.0433 -1.5289  3.9728
  390MOL0     H51431   4.264   3.273   7.621 -0.1255  1.3594 -4.1529
  390MOL0     H51432   4.133   3.192   7.536 -1.5483 -0.1728 -0.4338
  390MOL0     H51433   4.180   3.429   7.851  0.6397  0.0961 -1.4898
  390MOL0     H51434   4.108   3.291   8.136 -0.7899  0.7308  2.2438
  390MOL0     H51435   3.928   3.289   8.114 -0.2944  1.0146 -0.2173
  390MOL0     H51436   3.931   3.541   8.048  1.5968  1.2036  0.6931
  390MOL0     H51437   4.104   3.536   8.067  3.2055 -2.4748  3.7100
  390MOL0     H51438   3.979   3.647   8.212  0.6999  0.7931  2.5941
  390MOL0     H51439   3.868   3.521   8.254 -0.2108  0.6116 -0.7916
  390MOL0     H51440   4.023   3.393   8.363 -0.7519 -0.1121  0.3938
  390MOL0     H51441   4.022   3.550   8.442 -1.5835  0.9953 -1.0522
  390MOL0     H51442   4.462   3.548   8.368  1.4762  0.9571  1.7408
  390MOL0     H51443   4.565   3.753   8.426 -1.9564 -0.8148  3.1334
  390MOL0     H51444   4.655   4.195   8.327 -0.1639  0.2610 -0.5746
  390MOL0     H51445   4.785   4.398   8.407  0.6781 -0.9800  2.3933
  390MOL0     H51446   4.619   4.682   8.342  0.5654 -1.1914 -0.1454
  390MOL0     H51447   4.797   4.670   8.377 -0.4982  0.5129 -0.2981
  390MOL0     H51448   4.586   4.846   8.519 -0.1591  5.2437  0.8139
  390MOL0     H51449   4.670   4.914   8.376  0.4873 -1.6360 -1.3948
  390MOL0     H51450   4.893   4.854   8.524 -0.8334 -2.7373 -0.3305
  390MOL0     H51451   4.778   4.849   8.652 -0.5968 -1.2181  0.0800
  390MOL0     H51452   4.720   5.086   8.495  1.7222 -0.1207 -2.1843
  390MOL0     H51453   4.757   5.086   8.668  2.2669  2.5149 -0.8515
  390MOL0     H51454   5.007   5.081   8.611  2.0787  1.1976 -1.2299
  390MOL0     H51455   4.917   5.222   8.580 -1.3756 -1.4461  1.9088
  390MOL0     H51456   4.898   5.109   8.324  2.0476  2.5591 -2.4014
  390MOL0     H51457   5.045   5.022   8.407  1.7326  1.4315 -1.7240
  390MOL0     H51458   5.088   5.197   8.268  2.7204  0.5147  1.5682
  390MOL0     H51459   4.961   5.306   8.333  0.2109  1.8487  0.3548
  390MOL0     H51460   5.125   5.316   8.540 -3.0393  3.1422 -1.1240
  390MOL0     H51461   5.201   5.368   8.386  0.3479 -0.4854 -0.7652
  390MOL0     H51462   4.420   4.541   8.593 -1.1851 -0.2202 -1.2114
  390MOL0     H51463   4.332   4.299   8.580  1.4461  0.2014  1.9895
  390MOL0     H51464   4.184   3.952   8.406 -3.0592 -2.1612  0.3307
  390MOL0     H51465   4.078   3.750   8.338 -0.5009 -2.8958  0.5268
  390MOL0     H51466   4.623   3.021   6.757 -0.5236  1.4179  0.3299
  390MOL0     H51467   4.625   2.797   6.657  1.8658  3.0865 -3.1316
  390MOL0     H51468   4.406   2.319   6.532  0.7274  0.9088  0.1179
  390MOL0     H51469   4.493   2.155   6.388 -1.3522  0.5013 -0.3940
  390MOL0     H51470   4.786   2.103   6.213 -0.9218 -3.5890 -2.8065
  390MOL0     H51471   4.791   2.270   6.140 -0.3457  0.9486 -2.6427
  390MOL0     H51472   4.753   2.166   5.930  0.9941  1.1243  0.7099
  390MOL0     H51473   4.887   2.085   6.012  0.2478 -0.8385  1.3771
  390MOL0     H51474   4.606   1.970   6.028  0.2742  0.7986  1.4672
  390MOL0     H51475   4.753   1.918   6.104 -0.5708  2.4033  0.9421
  390MOL0     H51476   4.861   1.875   5.875 -0.5120 -2.4091  0.6256
  390MOL0     H51477   4.724   1.772   5.931 -1.8840  0.4258  0.4891
  390MOL0     H51478   4.545   1.915   5.580 -0.3361  1.2634  0.3276
  390MOL0     H51479   4.637   2.445   6.112 -2.1775  0.4947 -1.2559
  390MOL0     H51480   4.504   2.613   6.241  0.8516 -0.4921 -2.8111
  391MOL0     O51481   8.515   3.171   9.433 -0.2196  0.3490  0.2125
  391MOL0     C51482   8.464   3.268   9.385  0.8331  0.0188  0.1805
  391MOL0     O51483   8.420   3.284   9.255 -0.3011 -0.7842 -0.4496
  391MOL0     C51484   8.436   3.184   9.157  0.2862 -0.5931  1.0075
  391MOL0     C51485   8.355   3.196   9.042  0.0646 -0.2014  0.0087
  391MOL0     C51486   8.358   3.102   8.937  0.7886  0.2050 -0.6614
  391MOL0     C51487   8.450   3.001   8.943  0.3180  0.0688  0.0728
  391MOL0     O51488   8.467   2.908   8.837  0.6404 -0.2319  0.4674
  391MOL0     C51489   8.562   2.925   8.730 -0.3372  0.4355 -0.5099
  391MOL0     C51490   8.563   2.819   8.620 -0.2485  0.4804  0.0949
  391MOL0     C51491   8.434   2.785   8.561  0.3756  0.1235  0.5680
  391MOL0     C51492   8.370   2.907   8.492 -0.2678  0.0042  1.0674
  391MOL0     C51493   8.417   2.897   8.342 -0.2165 -0.3355  0.0299
  391MOL0     C51494   8.358   2.987   8.245 -0.1459  0.1572  0.7217
  391MOL0     C51495   8.380   2.944   8.095 -0.4209 -0.4316 -0.6015
  391MOL0     C51496   8.304   2.811   8.058  0.2636  0.6400  1.2988
  391MOL0     N51497   8.335   2.791   7.909  0.7711  0.1334  0.1350
  391MOL0     C51498   8.358   2.659   7.864 -0.7537  0.1501 -0.0501
  391MOL0     C51499   8.357   2.673   7.728  0.7847 -0.2938  0.1801
  391MOL0     C51500   8.359   2.561   7.632  0.4425  0.1234  0.3599
  391MOL0     C51501   8.508   2.496   7.631  0.3684 -0.1700  0.6908
  391MOL0     C51502   8.609   2.605   7.589  0.3904  0.7539 -0.8641
  391MOL0     C51503   8.756   2.547   7.579 -0.4083  0.2985  0.7216
  391MOL0     O51504   8.801   2.487   7.702 -0.7773  0.2730  0.4015
  391MOL0     C51505   8.795   2.553   7.828  1.0270  0.2569  0.2802
  391MOL0     C51506   8.742   2.474   7.933 -0.0176 -0.8122 -0.2147
  391MOL0     C51507   8.726   2.528   8.056 -0.2616 -0.4153 -0.7157
  391MOL0     C51508   8.762   2.660   8.070  0.1618 -0.2388  0.3586
  391MOL0     C51509   8.760   2.722   8.205 -0.0003  0.1141  1.0036
  391MOL0     O51510   8.828   2.852   8.217  0.1820 -0.2079 -0.7859
  391MOL0     C51511   8.850   2.917   8.333  0.6453  0.1643  0.7331
  391MOL0     C51512   8.780   3.041   8.358 -0.3100  0.5852 -0.3773
  391MOL0     C51513   8.789   3.108   8.480 -0.5444  0.3029 -0.5732
  391MOL0     C51514   8.876   3.058   8.570  0.0777  0.1440  0.4106
  391MOL0     O51515   8.894   3.148   8.675 -0.2919 -0.0763 -0.8461
  391MOL0     C51516   8.949   3.097   8.803 -0.6661 -0.5015  0.3190
  391MOL0     C51517   8.981   3.211   8.900 -0.0584 -0.7363  0.2803
  391MOL0     C51518   8.980   3.164   9.039  0.3553 -0.3246  0.0484
  391MOL0     C51519   9.102   3.075   9.071  0.1796  0.1404  0.4306
  391MOL0     C51520   9.081   2.986   9.198  0.1137 -0.5605 -0.4587
  391MOL0     C51521   8.939   2.915   9.206 -0.6179 -0.0858  0.1877
  391MOL0     C51522   8.918   2.819   9.335  0.2436  0.6446  0.9172
  391MOL0     C51523   8.888   2.917   9.445  1.0226  0.4265 -0.0553
  391MOL0    Cl51524   8.826   2.821   9.590 -0.4989  0.5528  0.2343
  391MOL0     C51525   8.951   2.936   8.551 -0.4440 -0.5100  0.9508
  391MOL0     C51526   8.929   2.871   8.431 -0.0699  0.1053  0.3892
  391MOL0     O51527   8.692   2.665   8.292  0.1869 -1.1583 -0.5679
  391MOL0     C51528   8.796   2.743   7.967  0.8279 -0.0404 -0.4734
  391MOL0     C51529   8.814   2.687   7.841  0.4536 -0.7896 -1.1535
  391MOL0     N51530   8.352   2.813   7.693  0.5116 -0.1435 -0.8746
  391MOL0     N51531   8.327   2.876   7.804 -0.2870 -0.8781  0.1477
  391MOL0     C51532   8.527   2.977   9.060 -1.5377  0.1638 -0.2465
  391MOL0     C51533   8.530   3.072   9.160  0.2670  0.3445 -0.1498
  391MOL0     C51534   8.445   3.379   9.475 -0.2476 -0.3440  0.0032
  391MOL0     C51535   8.502   3.384   9.604 -0.3208  0.8510 -0.2241
  391MOL0     C51536   8.508   3.490   9.684  0.4147 -0.0772  0.7594
  391MOL0     C51537   8.446   3.611   9.632 -0.4146  0.2913 -0.8711
  391MOL0     O51538   8.430   3.721   9.712  0.4176  0.0837  0.4882
  391MOL0     C51539   8.459   3.736   9.859 -0.2066 -0.0932  0.3488
  391MOL0     C51540   8.610   3.743   9.876  0.1509  0.4549  1.1203
  391MOL0     C51541   8.637   3.785  10.015 -0.4580  1.3382  0.6183
  391MOL0     C51542   8.590   3.931  10.041 -0.1648  0.2802  0.0937
  391MOL0     C51543   8.621   3.965  10.179  0.4950  1.5152  0.5433
  391MOL0     C51544   8.634   3.984  10.294 -1.2793 -0.1403  0.0701
  391MOL0     C51545   8.376   3.604   9.512 -0.3295 -1.0423 -0.6334
  391MOL0     C51546   8.378   3.494   9.425 -0.1940 -0.6559  0.9898
  391MOL0     H51547   8.270   3.264   9.038 -1.8849 -2.5409 -2.4818
  391MOL0     H51548   8.280   3.109   8.862  1.0409 -0.0696 -0.9550
  391MOL0     H51549   8.662   2.930   8.773  0.3616 -0.3554 -1.9693
  391MOL0     H51550   8.558   3.029   8.697 -0.4967  1.7617  3.1481
  391MOL0     H51551   8.585   2.724   8.670 -0.3668  0.4219  0.0365
  391MOL0     H51552   8.640   2.843   8.547  0.7134 -0.0828  0.9002
  391MOL0     H51553   8.362   2.752   8.637  0.2344  2.8085  1.6816
  391MOL0     H51554   8.448   2.705   8.487  2.1770 -0.2182  1.2466
  391MOL0     H51555   8.264   2.883   8.500  0.3148 -5.0541 -1.7543
  391MOL0     H51556   8.389   3.009   8.527  1.4548  0.3609 -0.6984
  391MOL0     H51557   8.384   2.803   8.299  0.0563  0.8425 -3.0084
  391MOL0     H51558   8.525   2.917   8.335 -0.3475  0.3620 -0.0596
  391MOL0     H51559   8.382   3.092   8.264  2.5435 -0.6622  2.4345
  391MOL0     H51560   8.252   2.976   8.269  0.3080  0.8502  3.3103
  391MOL0     H51561   8.336   3.020   8.030 -0.4684  0.6949  0.6987
  391MOL0     H51562   8.485   2.934   8.066 -0.2440 -0.0544 -0.0981
  391MOL0     H51563   8.197   2.813   8.080  0.4878  0.6250  2.4400
  391MOL0     H51564   8.344   2.721   8.106 -1.2474 -2.9917 -3.4077
  391MOL0     H51565   8.365   2.565   7.917  2.4107 -0.1637 -0.8586
  391MOL0     H51566   8.330   2.588   7.530 -3.0367 -0.1496  1.1616
  391MOL0     H51567   8.290   2.481   7.659 -0.8264  0.8309 -0.6488
  391MOL0     H51568   8.513   2.420   7.553 -2.0526  2.3203 -2.1533
  391MOL0     H51569   8.543   2.461   7.728  1.4954 -3.2944 -0.7082
  391MOL0     H51570   8.572   2.650   7.496  2.3680 -0.4252 -2.2870
  391MOL0     H51571   8.607   2.682   7.667 -2.2721 -1.3981  1.4015
  391MOL0     H51572   8.815   2.634   7.550 -0.5944  1.2360  2.9695
  391MOL0     H51573   8.752   2.472   7.498 -1.1446  0.1962  0.8422
  391MOL0     H51574   8.720   2.368   7.926 -2.0680 -0.5367  1.1321
  391MOL0     H51575   8.688   2.475   8.142 -2.2843 -2.1753 -2.5755
  391MOL0     H51576   8.711   3.075   8.281  0.5519 -2.0108 -2.4271
  391MOL0     H51577   8.744   3.203   8.505  0.7741  0.8181 -0.0694
  391MOL0     H51578   9.040   3.041   8.778 -1.0095 -0.9064 -0.0213
  391MOL0     H51579   8.889   3.016   8.844  0.5981 -1.9123 -0.5205
  391MOL0     H51580   8.905   3.289   8.896  0.0789 -0.6157 -0.0149
  391MOL0     H51581   9.080   3.248   8.872  0.0233 -0.6336  0.6871
  391MOL0     H51582   8.877   3.128   9.036 -0.1526  1.0296 -2.9134
  391MOL0     H51583   8.976   3.251   9.104  1.0111  0.8690 -1.4458
  391MOL0     H51584   9.107   3.002   8.989  1.9575 -1.3309  1.7701
  391MOL0     H51585   9.200   3.124   9.075 -0.3373  1.2892 -0.4155
  391MOL0     H51586   9.088   3.054   9.284  0.2617 -0.0272 -0.8871
  391MOL0     H51587   9.168   2.921   9.211 -1.0848 -2.1289  0.1170
  391MOL0     H51588   8.925   2.849   9.120 -1.0270  0.0056  0.1793
  391MOL0     H51589   8.852   2.981   9.210 -0.7926 -0.0524 -2.5696
  391MOL0     H51590   8.832   2.760   9.302 -0.0834  1.1633  0.8158
  391MOL0     H51591   9.011   2.765   9.354  0.4822  0.9472  0.6176
  391MOL0     H51592   8.808   2.985   9.415 -2.8410 -2.8917  1.9246
  391MOL0     H51593   8.982   2.970   9.468  0.0890  1.8786  0.5517
  391MOL0     H51594   9.030   2.903   8.618 -1.4345 -2.8550  1.0473
  391MOL0     H51595   8.987   2.782   8.411 -0.8429 -0.2298 -0.3776
  391MOL0     H51596   8.815   2.849   7.979  2.3500 -0.3275 -0.2018
  391MOL0     H51597   8.834   2.767   7.772  3.4683  2.1888  2.6886
  391MOL0     H51598   8.577   2.880   9.063 -0.7773  0.3083 -3.5273
  391MOL0     H51599   8.597   3.064   9.245  2.3231  1.2910 -1.5866
  391MOL0     H51600   8.545   3.299   9.656  2.4427  2.6361  0.6599
  391MOL0     H51601   8.547   3.478   9.784 -3.2107 -0.4692  2.2983
  391MOL0     H51602   8.415   3.642   9.896 -0.6243  0.0203  0.1396
  391MOL0     H51603   8.405   3.814   9.913 -0.2622 -0.4827  0.8690
  391MOL0     H51604   8.664   3.655   9.839  1.5134  2.3164 -1.6409
  391MOL0     H51605   8.647   3.826   9.816  1.4204  0.8690  2.4145
  391MOL0     H51606   8.743   3.770  10.039  0.1023  1.0872 -1.7404
  391MOL0     H51607   8.582   3.723  10.085  2.9667 -1.7266  0.9187
  391MOL0     H51608   8.629   4.010   9.976 -0.4820  1.5402  1.3726
  391MOL0     H51609   8.482   3.941  10.040 -0.1947  1.2872 -4.3053
  391MOL0     H51610   8.647   3.993  10.400  2.1877 -3.2461  0.1050
  391MOL0     H51611   8.324   3.695   9.483  3.7588  1.3999 -1.0194
  391MOL0     H51612   8.336   3.503   9.325  1.4085  0.5961  0.3809
  392MOL0     O51613   5.664   3.299   3.617  0.4168 -0.1280  0.1283
  392MOL0     C51614   5.655   3.346   3.506  0.3371  1.1374 -0.3352
  392MOL0     O51615   5.723   3.465   3.471  0.0849  0.7977 -0.0875
  392MOL0     C51616   5.756   3.567   3.566 -0.1220 -0.2547  0.4651
  392MOL0     C51617   5.813   3.681   3.530 -0.4319  1.0519  0.8862
  392MOL0     C51618   5.824   3.795   3.609 -0.1248  0.4200 -0.3289
  392MOL0     C51619   5.774   3.794   3.740  0.1051  0.2562 -0.3373
  392MOL0     O51620   5.783   3.907   3.818  0.3499  0.2881 -0.0609
  392MOL0     C51621   5.764   3.916   3.960  0.1164  0.3751 -1.4140
  392MOL0     C51622   5.740   4.059   4.015  0.7120  1.3933 -0.2990
  392MOL0     C51623   5.860   4.159   3.998  0.1265 -0.1910  0.2429
  392MOL0     C51624   5.804   4.307   3.999  0.2894  0.1101  0.5716
  392MOL0     C51625   5.934   4.388   3.975  0.2269 -0.1573 -0.6019
  392MOL0     C51626   6.015   4.418   4.113  0.6336  0.0143 -0.1907
  392MOL0     C51627   6.113   4.538   4.099 -0.1097  1.1491 -0.2324
  392MOL0     C51628   6.222   4.547   3.982  0.5071 -0.4531  0.2282
  392MOL0     N51629   6.293   4.672   3.990  0.2175 -1.4072 -0.3246
  392MOL0     C51630   6.382   4.714   4.089 -0.0361 -0.0662  0.4398
  392MOL0     C51631   6.369   4.845   4.102 -0.1992  0.6913  0.5001
  392MOL0     C51632   6.426   4.925   4.215  0.0492  0.3054 -0.3738
  392MOL0     C51633   6.565   4.972   4.172  0.4499  0.1881 -0.0129
  392MOL0     C51634   6.566   5.118   4.112  0.0384  0.2169 -1.0642
  392MOL0     C51635   6.706   5.165   4.088 -1.4320  0.2843 -0.0322
  392MOL0     O51636   6.766   5.079   3.991 -0.2785 -0.1117 -0.1133
  392MOL0     C51637   6.886   5.127   3.934 -0.4657 -0.7875 -0.6570
  392MOL0     C51638   6.916   5.262   3.892 -0.1257  0.8222 -0.7304
  392MOL0     C51639   7.028   5.301   3.829 -1.1389 -0.1099  0.1417
  392MOL0     C51640   7.135   5.202   3.817  0.1920 -0.6411  0.3967
  392MOL0     C51641   7.253   5.257   3.758  0.3727 -0.0793  0.1209
  392MOL0     O51642   7.267   5.404   3.751  0.4899  0.4103 -0.1602
  392MOL0     C51643   7.400   5.440   3.739  1.1630  0.0922  0.5932
  392MOL0     C51644   7.461   5.432   3.612  0.9098 -0.4018 -0.9989
  392MOL0     C51645   7.587   5.494   3.608 -0.6010  0.4241  0.3979
  392MOL0     C51646   7.647   5.549   3.723 -0.2211 -0.4672  0.1787
  392MOL0     O51647   7.776   5.602   3.710  0.6896  0.0038 -0.1842
  392MOL0     C51648   7.855   5.631   3.822 -0.0126  0.3087 -0.8315
  392MOL0     C51649   7.853   5.784   3.840 -0.7716  0.1509 -0.7761
  392MOL0     C51650   7.903   5.866   3.725  1.1428 -0.4923 -0.3475
  392MOL0     C51651   7.867   6.019   3.766 -0.3961  0.5040  0.4648
  392MOL0     C51652   7.912   6.124   3.675 -0.3254  0.7380  0.7377
  392MOL0     C51653   7.836   6.120   3.539 -0.5751  0.1082  0.1393
  392MOL0     C51654   7.849   6.259   3.460  0.0668  0.2305  0.1744
  392MOL0     C51655   7.731   6.316   3.389 -0.0991  0.6499 -0.3855
  392MOL0    Cl51656   7.800   6.448   3.278  0.1856  0.2953 -0.0758
  392MOL0     C51657   7.572   5.563   3.845 -1.2870  0.1817  0.2168
  392MOL0     C51658   7.451   5.501   3.855 -0.0806 -0.4247  0.0556
  392MOL0     O51659   7.348   5.178   3.748  0.1103 -0.6301 -0.3935
  392MOL0     C51660   7.108   5.067   3.859 -0.0827 -0.0961  0.1291
  392MOL0     C51661   6.983   5.033   3.913 -0.4120  0.3778  0.0838
  392MOL0     N51662   6.290   4.885   3.991  0.0791  0.7550  0.7066
  392MOL0     N51663   6.234   4.780   3.931 -0.2348 -0.7640  0.2894
  392MOL0     C51664   5.714   3.680   3.780 -1.2298 -0.1338 -0.4268
  392MOL0     C51665   5.702   3.568   3.699  0.1316  0.1867 -0.2581
  392MOL0     C51666   5.616   3.254   3.402 -0.4944 -0.2035  0.6804
  392MOL0     C51667   5.529   3.143   3.416 -0.1255  0.0630  0.2185
  392MOL0     C51668   5.494   3.063   3.313  0.2692 -0.2571 -0.0008
  392MOL0     C51669   5.547   3.079   3.182 -0.3851  0.6391 -0.0546
  392MOL0     O51670   5.514   3.004   3.071  0.3733  0.0261 -0.3211
  392MOL0     C51671   5.376   2.971   3.037  0.1477  0.3451 -0.2669
  392MOL0     C51672   5.368   2.936   2.891  0.4019 -0.5097  1.1194
  392MOL0     C51673   5.230   2.889   2.836 -0.4431  0.3581  0.1424
  392MOL0     C51674   5.234   2.864   2.681  0.2504 -0.0350  0.1932
  392MOL0     C51675   5.322   2.752   2.637  0.9856 -0.1572  0.1009
  392MOL0     C51676   5.373   2.651   2.608  0.2332  0.3192 -0.1476
  392MOL0     C51677   5.635   3.189   3.170 -0.7566 -0.2871  0.2841
  392MOL0     C51678   5.662   3.279   3.273 -0.7575 -0.1664  0.1095
  392MOL0     H51679   5.865   3.675   3.435  1.6487  0.0979  2.0026
  392MOL0     H51680   5.878   3.881   3.570  0.4497  0.8040  1.2757
  392MOL0     H51681   5.859   3.885   4.006  1.4903  3.5867 -1.7682
  392MOL0     H51682   5.680   3.855   3.994  0.2986 -0.4412 -2.3582
  392MOL0     H51683   5.707   4.030   4.115 -0.4212 -3.6638 -1.8423
  392MOL0     H51684   5.655   4.104   3.964 -0.8056 -0.1370  0.7761
  392MOL0     H51685   5.905   4.131   3.902 -0.5007 -3.4541  0.7763
  392MOL0     H51686   5.927   4.135   4.081 -0.6538  2.4306  1.7319
  392MOL0     H51687   5.732   4.311   3.917  0.6902  1.4522  0.2504
  392MOL0     H51688   5.747   4.330   4.089 -4.1872 -1.2160 -1.6130
  392MOL0     H51689   5.896   4.484   3.938 -0.5387 -0.2914 -0.1831
  392MOL0     H51690   5.995   4.333   3.902  2.5026 -0.6601  1.5319
  392MOL0     H51691   6.066   4.332   4.157 -2.6339 -0.2896  3.6393
  392MOL0     H51692   5.932   4.439   4.182  0.7842 -0.5494  0.1713
  392MOL0     H51693   6.061   4.634   4.103  0.6475  1.5392  0.5484
  392MOL0     H51694   6.164   4.535   4.195  2.7009 -0.0259 -1.6326
  392MOL0     H51695   6.176   4.531   3.883 -0.4741  1.7524  0.2637
  392MOL0     H51696   6.298   4.472   4.005 -0.8345 -1.3568  1.8775
  392MOL0     H51697   6.435   4.642   4.151  3.1210  0.5631 -1.2957
  392MOL0     H51698   6.444   4.862   4.303  3.8843  2.4482  0.6016
  392MOL0     H51699   6.353   5.004   4.230  0.0942  0.3019 -0.1357
  392MOL0     H51700   6.620   4.898   4.112 -0.4655 -0.2528 -0.3393
  392MOL0     H51701   6.624   4.965   4.263  0.0108 -0.5940  0.2242
  392MOL0     H51702   6.495   5.138   4.031 -1.9165  2.3807  1.0079
  392MOL0     H51703   6.537   5.186   4.193  1.2008 -0.4965 -0.0200
  392MOL0     H51704   6.768   5.173   4.177  1.4916 -2.4971 -1.6322
  392MOL0     H51705   6.706   5.271   4.060 -1.2773  0.4645  0.6289
  392MOL0     H51706   6.847   5.346   3.898  0.8277  1.5455  0.5017
  392MOL0     H51707   7.025   5.399   3.782 -0.1375 -1.0108 -1.9186
  392MOL0     H51708   7.416   5.383   3.526  0.5419  1.9994 -2.2398
  392MOL0     H51709   7.631   5.486   3.509 -2.5565 -2.8140 -0.3776
  392MOL0     H51710   7.954   5.588   3.807 -0.1547 -1.1964  1.9093
  392MOL0     H51711   7.822   5.587   3.917  2.4909  0.8544  0.3628
  392MOL0     H51712   7.927   5.800   3.918 -0.2216 -3.9231 -0.2477
  392MOL0     H51713   7.749   5.807   3.865  0.0300  2.0263  1.1666
  392MOL0     H51714   7.842   5.832   3.641 -0.0252  0.1102  0.2299
  392MOL0     H51715   8.011   5.854   3.713  1.2253  0.0448 -0.1800
  392MOL0     H51716   7.761   6.040   3.780 -0.9772 -0.4117 -2.1198
  392MOL0     H51717   7.934   6.028   3.853  1.0369  0.4746 -0.5913
  392MOL0     H51718   8.021   6.116   3.668 -0.3871  0.0912  0.4872
  392MOL0     H51719   7.884   6.213   3.732  0.4474  0.7725  1.0805
  392MOL0     H51720   7.729   6.101   3.547 -1.0587  2.7945  0.7640
  392MOL0     H51721   7.870   6.030   3.486 -0.2545 -0.2610  0.9473
  392MOL0     H51722   7.882   6.339   3.527  0.8723 -0.0544  0.1276
  392MOL0     H51723   7.922   6.250   3.380 -2.2384  0.2942 -2.0463
  392MOL0     H51724   7.668   6.350   3.471 -2.0903 -0.2567 -1.4491
  392MOL0     H51725   7.688   6.237   3.327  0.1274 -0.9173  1.3707
  392MOL0     H51726   7.613   5.613   3.932 -1.0181  1.7846 -0.7764
  392MOL0     H51727   7.404   5.507   3.953  2.3752  0.7630  1.2753
  392MOL0     H51728   7.186   4.991   3.854  1.2692  1.0107  2.3372
  392MOL0     H51729   6.974   4.930   3.944 -3.1476  0.1944 -1.0156
  392MOL0     H51730   5.655   3.674   3.871  0.9424 -4.2410  0.9579
  392MOL0     H51731   5.647   3.483   3.736  1.3495 -0.2745  0.5661
  392MOL0     H51732   5.509   3.111   3.517  1.7969  1.0956  0.9912
  392MOL0     H51733   5.426   2.981   3.331 -0.0512 -0.3996 -1.6859
  392MOL0     H51734   5.313   3.051   3.076 -0.8470 -1.2800  1.6283
  392MOL0     H51735   5.340   2.884   3.091  1.0524 -0.6477 -1.2054
  392MOL0     H51736   5.394   3.029   2.838  0.6328 -1.4347 -0.4409
  392MOL0     H51737   5.429   2.850   2.862 -1.2704 -1.7824  1.2872
  392MOL0     H51738   5.154   2.965   2.859 -1.4965 -1.2935  2.4104
  392MOL0     H51739   5.196   2.793   2.876 -0.4188 -0.2332 -1.1956
  392MOL0     H51740   5.133   2.836   2.649  0.7262 -0.7104 -0.7785
  392MOL0     H51741   5.273   2.948   2.623  0.1117 -1.5594 -2.2830
  392MOL0     H51742   5.438   2.569   2.583  0.2962  0.5187 -0.6491
  392MOL0     H51743   5.665   3.204   3.067  1.1520 -3.2682  0.2779
  392MOL0     H51744   5.716   3.367   3.237 -3.0986  1.5734  0.6235
  393MOL0     O51745   0.473   9.566   4.735 -0.5608 -0.3132 -0.3149
  393MOL0     C51746   0.537   9.555   4.632 -0.0125  0.1504  0.0958
  393MOL0     O51747   0.589   9.438   4.583  0.5733 -0.1595  0.1992
  393MOL0     C51748   0.570   9.326   4.662 -0.0948 -0.1935 -1.0794
  393MOL0     C51749   0.680   9.258   4.712 -0.1269  0.9256 -0.9114
  393MOL0     C51750   0.670   9.148   4.803 -0.9336 -0.2021  0.3821
  393MOL0     C51751   0.547   9.080   4.817  0.3127 -0.1208 -0.1838
  393MOL0     O51752   0.543   8.969   4.903 -0.7814  0.3088 -0.7151
  393MOL0     C51753   0.422   8.889   4.919  0.1449  0.5314  0.8912
  393MOL0     C51754   0.374   8.808   4.792 -0.3051 -0.2647 -0.4819
  393MOL0     C51755   0.243   8.739   4.817 -0.1217  0.4606  0.3447
  393MOL0     C51756   0.215   8.624   4.723 -0.6010  0.1508  0.3147
  393MOL0     C51757   0.115   8.523   4.776 -0.0152 -0.1927 -0.0798
  393MOL0     C51758   0.093   8.408   4.679 -0.4394  0.1082 -0.3383
  393MOL0     C51759   0.075   8.440   4.525 -0.0560 -0.0517  0.7276
  393MOL0     C51760  -0.029   8.556   4.510  0.3766 -0.5647  0.4262
  393MOL0     N51761  -0.155   8.502   4.555 -0.1086 -0.2372  0.9053
  393MOL0     C51762  -0.219   8.396   4.488  0.4675 -0.0667  0.1877
  393MOL0     C51763  -0.337   8.393   4.548 -0.6391  0.5718 -0.8888
  393MOL0     C51764  -0.451   8.301   4.541  0.3640 -0.7316 -0.4415
  393MOL0     C51765  -0.431   8.183   4.440 -0.7708  0.0377  0.3004
  393MOL0     C51766  -0.355   8.076   4.508  0.7162  0.1989  0.2260
  393MOL0     C51767  -0.341   7.951   4.431 -0.6721  0.7191 -0.5046
  393MOL0     O51768  -0.299   7.845   4.523 -0.1711  0.0258  0.7848
  393MOL0     C51769  -0.171   7.791   4.524 -0.3998 -0.6823  0.8224
  393MOL0     C51770  -0.156   7.666   4.581  0.5482 -0.1914 -0.3670
  393MOL0     C51771  -0.031   7.612   4.584 -0.4017  0.2190 -0.0422
  393MOL0     C51772   0.086   7.669   4.546  0.3690  0.3125 -0.6525
  393MOL0     C51773   0.220   7.610   4.547 -0.1639  0.4488  0.2559
  393MOL0     O51774   0.227   7.476   4.567  0.0749 -0.2560  0.0555
  393MOL0     C51775   0.337   7.404   4.557 -0.9842 -0.9497  0.3113
  393MOL0     C51776   0.357   7.313   4.662  0.3626  0.3203 -0.5970
  393MOL0     C51777   0.467   7.233   4.668 -0.6793 -1.0258 -0.1780
  393MOL0     C51778   0.569   7.237   4.576 -0.6463 -0.2376  0.4339
  393MOL0     O51779   0.675   7.153   4.562 -0.1618  0.2348 -0.1483
  393MOL0     C51780   0.690   7.049   4.662  0.2241  0.9298 -0.4964
  393MOL0     C51781   0.793   6.951   4.609 -0.2142  0.1196 -0.0687
  393MOL0     C51782   0.818   6.831   4.709  0.0225  0.4210  0.6079
  393MOL0     C51783   0.693   6.762   4.762 -0.1506 -0.7075 -0.0693
  393MOL0     C51784   0.720   6.634   4.851 -0.1799  0.2486 -0.2469
  393MOL0     C51785   0.754   6.517   4.773  0.6212  0.2445 -0.2654
  393MOL0     C51786   0.797   6.400   4.864  0.6568 -0.0987  0.3500
  393MOL0     C51787   0.953   6.372   4.848 -0.7132  0.9936 -0.8633
  393MOL0    Cl51788   0.960   6.269   4.698  0.1541 -0.2096  0.3871
  393MOL0     C51789   0.560   7.341   4.474 -0.2643  0.1156 -0.6662
  393MOL0     C51790   0.449   7.426   4.468  0.1856  0.9659  1.0386
  393MOL0     O51791   0.317   7.692   4.528 -0.3451  0.3569 -0.6465
  393MOL0     C51792   0.065   7.806   4.497  0.0630  1.1398 -0.8201
  393MOL0     C51793  -0.053   7.867   4.480 -0.0608 -0.0897 -0.4514
  393MOL0     N51794  -0.344   8.486   4.642 -0.0538  0.3404 -0.0844
  393MOL0     N51795  -0.234   8.552   4.646  0.0149 -0.1353 -0.1241
  393MOL0     C51796   0.434   9.144   4.754  0.4174 -0.9883  0.5502
  393MOL0     C51797   0.446   9.270   4.687 -1.5165  0.3433  0.6655
  393MOL0     C51798   0.562   9.674   4.553  0.2233  0.0842  0.0748
  393MOL0     C51799   0.615   9.651   4.424 -0.7553 -0.4356 -0.2014
  393MOL0     C51800   0.633   9.756   4.333 -0.2341 -0.6805 -0.7534
  393MOL0     C51801   0.581   9.881   4.355  0.0716 -0.4421  0.5153
  393MOL0     O51802   0.582   9.980   4.264  0.2717  0.1645  0.3263
  393MOL0     C51803   0.644   9.968   4.135  0.8986  0.0536 -0.3399
  393MOL0     C51804   0.793   9.978   4.141 -0.5813 -0.4091  0.7320
  393MOL0     C51805   0.841  10.123   4.140 -0.2089  0.0112  0.2420
  393MOL0     C51806   0.801  10.216   4.264  0.2408  1.0557  0.9183
  393MOL0     C51807   0.848  10.162   4.393  0.2484  0.2249  0.0050
  393MOL0     C51808   0.907  10.121   4.487  0.3489  1.0604  0.6327
  393MOL0     C51809   0.526   9.901   4.480  0.1905 -0.2090 -0.0154
  393MOL0     C51810   0.515   9.804   4.577  0.1596  0.8233 -0.7166
  393MOL0     H51811   0.775   9.308   4.693  1.1938 -1.2100 -0.2286
  393MOL0     H51812   0.767   9.120   4.841  0.6665 -0.4428 -3.4179
  393MOL0     H51813   0.347   8.962   4.952  1.1186  2.9121 -1.7687
  393MOL0     H51814   0.431   8.815   5.000  3.3732 -0.1757 -0.0023
  393MOL0     H51815   0.439   8.726   4.762 -0.6418 -1.3834  1.6329
  393MOL0     H51816   0.372   8.872   4.703  4.4197 -1.5318 -1.7749
  393MOL0     H51817   0.158   8.808   4.811 -1.8887 -1.4871  1.7125
  393MOL0     H51818   0.241   8.699   4.919  0.0210 -1.2952 -0.3054
  393MOL0     H51819   0.186   8.668   4.627 -1.7438  1.3614  1.1756
  393MOL0     H51820   0.306   8.566   4.705 -0.7729  0.3436 -1.3631
  393MOL0     H51821   0.017   8.566   4.800  0.8379  0.8615  1.7414
  393MOL0     H51822   0.140   8.487   4.877 -1.6971  1.4323  0.9923
  393MOL0     H51823   0.000   8.355   4.704 -0.0917  0.1572  1.1541
  393MOL0     H51824   0.172   8.333   4.678 -1.2827 -0.8390 -2.2879
  393MOL0     H51825   0.169   8.480   4.486 -0.4644 -1.8956 -2.5355
  393MOL0     H51826   0.050   8.348   4.472  1.6755  0.4769 -1.1194
  393MOL0     H51827  -0.048   8.590   4.408 -0.3240  1.7552  1.2609
  393MOL0     H51828   0.002   8.644   4.567  3.1878  0.1792 -2.0054
  393MOL0     H51829  -0.165   8.331   4.420  0.8194 -2.1549  2.3088
  393MOL0     H51830  -0.539   8.344   4.493  1.0094 -0.0773 -1.0822
  393MOL0     H51831  -0.469   8.263   4.642 -1.0004 -0.3395 -0.5188
  393MOL0     H51832  -0.371   8.222   4.357  0.2780 -1.2840  0.3992
  393MOL0     H51833  -0.525   8.146   4.399 -0.8656 -1.5730  1.8391
  393MOL0     H51834  -0.255   8.111   4.533 -0.6118  3.5402  1.4303
  393MOL0     H51835  -0.406   8.052   4.602 -1.5577  1.2553 -0.6791
  393MOL0     H51836  -0.272   7.975   4.349  1.0203  3.0211  1.4288
  393MOL0     H51837  -0.440   7.926   4.391 -0.3638 -1.2921 -0.1200
  393MOL0     H51838  -0.236   7.610   4.628 -2.1158  1.3473 -2.7599
  393MOL0     H51839  -0.017   7.516   4.631  1.1586 -0.7711 -2.3406
  393MOL0     H51840   0.271   7.295   4.725  0.5481 -1.3340 -0.7568
  393MOL0     H51841   0.457   7.159   4.747 -1.7761 -0.1767  0.5100
  393MOL0     H51842   0.606   6.981   4.672  2.7468 -2.3005  0.5998
  393MOL0     H51843   0.729   7.078   4.760  1.6234  0.4301 -0.8804
  393MOL0     H51844   0.885   7.005   4.585 -1.4955  1.3756 -2.6706
  393MOL0     H51845   0.750   6.896   4.524  0.1558 -2.7845  1.5141
  393MOL0     H51846   0.877   6.859   4.796  1.2910 -5.0017  1.8666
  393MOL0     H51847   0.870   6.754   4.650 -3.3380 -1.4999 -0.1349
  393MOL0     H51848   0.665   6.842   4.831 -0.6280  0.0242 -1.0871
  393MOL0     H51849   0.616   6.751   4.685  0.7252  1.4090 -1.3162
  393MOL0     H51850   0.629   6.609   4.905  0.8903  0.5146  1.7644
  393MOL0     H51851   0.789   6.659   4.932 -0.1663  1.9129 -0.7285
  393MOL0     H51852   0.830   6.539   4.697  0.4624  0.6245 -0.3154
  393MOL0     H51853   0.665   6.478   4.723  0.9176 -2.1674  0.9533
  393MOL0     H51854   0.779   6.425   4.969 -0.1696 -0.4875  0.3083
  393MOL0     H51855   0.730   6.316   4.845 -2.2099  0.7721  4.9641
  393MOL0     H51856   1.001   6.324   4.934  2.3005 -0.9872 -3.4061
  393MOL0     H51857   1.008   6.465   4.830 -0.4586  1.0211  0.0048
  393MOL0     H51858   0.633   7.335   4.395 -0.1300 -0.8241 -0.4782
  393MOL0     H51859   0.433   7.507   4.398  0.9298  0.2756  0.0502
  393MOL0     H51860   0.154   7.854   4.458  0.8061  0.0401 -0.5183
  393MOL0     H51861  -0.065   7.956   4.419 -2.5558  1.8493  2.5317
  393MOL0     H51862   0.330   9.118   4.766 -0.9946  1.7201 -3.5392
  393MOL0     H51863   0.371   9.334   4.642  1.0206  3.1401  0.0639
  393MOL0     H51864   0.656   9.555   4.395 -0.9750  0.4220 -3.9927
  393MOL0     H51865   0.691   9.740   4.243 -1.5573  0.1845 -1.7959
  393MOL0     H51866   0.602  10.050   4.077  2.1627  2.0775  1.4240
  393MOL0     H51867   0.618   9.870   4.092 -1.6014  0.9672 -1.0695
  393MOL0     H51868   0.830   9.944   4.238  0.7439 -2.5972 -0.4764
  393MOL0     H51869   0.841   9.933   4.054  0.6164  2.2592 -0.1213
  393MOL0     H51870   0.807  10.171   4.048 -0.6017 -1.0471 -0.1884
  393MOL0     H51871   0.950  10.125   4.140 -0.2111  0.1669 -0.1209
  393MOL0     H51872   0.829  10.320   4.243  2.0221  0.3219 -0.7005
  393MOL0     H51873   0.692  10.214   4.263  0.2028  2.1923  1.3603
  393MOL0     H51874   0.983  10.101   4.560  2.6002 -0.8952 -1.9913
  393MOL0     H51875   0.510  10.006   4.502  0.4753  0.0545 -1.0119
  393MOL0     H51876   0.452   9.822   4.664 -3.2621 -4.7352 -1.5841
  394MOL0     O51877   0.575  11.142   3.153 -0.2920 -0.1061 -0.0463
  394MOL0     C51878   0.587  11.103   3.039 -0.4044  0.6628  0.5915
  394MOL0     O51879   0.493  11.040   2.961 -0.4689 -0.0166 -0.6924
  394MOL0     C51880   0.373  11.035   3.006  0.5620 -0.1043 -1.0275
  394MOL0     C51881   0.301  10.916   2.995  0.0723 -0.6132  0.3247
  394MOL0     C51882   0.164  10.904   3.007 -0.0917 -0.9980  0.6586
  394MOL0     C51883   0.091  11.011   3.052 -0.2858  0.8959  0.4148
  394MOL0     O51884  -0.039  10.979   3.096 -0.3995 -0.5608 -0.0805
  394MOL0     C51885  -0.085  11.062   3.200  0.3433 -0.0684  0.5481
  394MOL0     C51886  -0.212  11.008   3.278 -0.7744  0.3838 -0.4568
  394MOL0     C51887  -0.236  11.074   3.413  0.1580  1.2675 -0.6142
  394MOL0     C51888  -0.244  11.224   3.395 -0.6813 -0.3365 -0.4392
  394MOL0     C51889  -0.230  11.301   3.530  0.4360 -0.2833 -0.5948
  394MOL0     C51890  -0.206  11.453   3.515  0.5824 -0.3846  1.4884
  394MOL0     C51891  -0.330  11.529   3.449 -0.7661  0.7031 -0.5190
  394MOL0     C51892  -0.444  11.556   3.544  0.1549 -0.2429 -0.0030
  394MOL0     N51893  -0.550  11.615   3.463 -0.9431  0.8518  0.1807
  394MOL0     C51894  -0.561  11.740   3.413  0.6795 -0.1936 -0.2888
  394MOL0     C51895  -0.677  11.745   3.346 -0.7757  0.2949  0.5435
  394MOL0     C51896  -0.741  11.859   3.268  0.2021 -0.3887 -0.7692
  394MOL0     C51897  -0.765  11.994   3.342 -0.3571 -0.9203 -0.8738
  394MOL0     C51898  -0.891  12.076   3.296 -0.5247 -0.2825 -0.1822
  394MOL0     C51899  -0.921  12.097   3.138 -0.2906 -0.0850  0.1740
  394MOL0     O51900  -0.810  12.164   3.072  0.2675  0.1743  0.0309
  394MOL0     C51901  -0.766  12.279   3.125  0.1888 -0.3979  1.1956
  394MOL0     C51902  -0.851  12.380   3.180 -0.1402 -0.7298  0.0663
  394MOL0     C51903  -0.798  12.503   3.228  0.0995 -0.2825 -0.7163
  394MOL0     C51904  -0.654  12.518   3.250  0.8588  0.2958 -0.2252
  394MOL0     C51905  -0.610  12.637   3.337 -0.3699  0.1716  0.2173
  394MOL0     O51906  -0.711  12.698   3.410  0.2127  0.4266 -0.0268
  394MOL0     C51907  -0.661  12.790   3.495  0.1487 -0.4755  0.4602
  394MOL0     C51908  -0.619  12.924   3.466  1.1826 -0.3804 -0.2732
  394MOL0     C51909  -0.584  13.015   3.569 -0.2006  0.1983  0.8488
  394MOL0     C51910  -0.599  12.973   3.704 -1.3446 -0.5409  0.4181
  394MOL0     O51911  -0.565  13.044   3.816 -0.5015  0.5604  0.0500
  394MOL0     C51912  -0.572  13.184   3.813  0.1225 -0.0852  0.5931
  394MOL0     C51913  -0.597  13.244   3.946  0.0836 -0.0776 -0.4096
  394MOL0     C51914  -0.584  13.394   3.946 -0.1715 -0.9239 -0.5408
  394MOL0     C51915  -0.545  13.443   4.086 -0.9476  0.7775  0.7297
  394MOL0     C51916  -0.556  13.594   4.096  0.1437  0.7264 -1.0642
  394MOL0     C51917  -0.693  13.636   4.131 -0.8319  0.4297  0.5641
  394MOL0     C51918  -0.715  13.784   4.100 -0.0175  0.2183 -0.3374
  394MOL0     C51919  -0.860  13.832   4.144  0.8063  0.0748 -1.0565
  394MOL0    Cl51920  -0.982  13.759   4.038  0.1108  0.3097 -0.4865
  394MOL0     C51921  -0.623  12.839   3.727 -0.1414  0.3945  0.1834
  394MOL0     C51922  -0.654  12.747   3.623  0.3639 -0.1947 -0.0210
  394MOL0     O51923  -0.499  12.677   3.310  0.0980  0.2729  0.5017
  394MOL0     C51924  -0.562  12.429   3.197  0.0456  0.1451  0.2404
  394MOL0     C51925  -0.630  12.318   3.120  0.2043  0.2882  0.9696
  394MOL0     N51926  -0.743  11.629   3.367 -0.3992 -1.0935 -0.4641
  394MOL0     N51927  -0.664  11.546   3.433 -0.4467 -0.3070 -0.7152
  394MOL0     C51928   0.152  11.135   3.064 -0.2950  0.7225 -0.9732
  394MOL0     C51929   0.291  11.150   3.041 -0.2427  0.8267  0.1068
  394MOL0     C51930   0.732  11.136   2.969  0.6425  0.2854  0.0790
  394MOL0     C51931   0.824  11.212   3.044 -0.2660 -0.6291 -0.2597
  394MOL0     C51932   0.948  11.247   2.985  0.4991 -0.2282 -1.6477
  394MOL0     C51933   0.979  11.213   2.857  0.4045 -0.5953 -0.3205
  394MOL0     O51934   1.106  11.252   2.816  0.8969 -0.0592  0.4979
  394MOL0     C51935   1.137  11.220   2.675  0.3221 -0.1739  0.5171
  394MOL0     C51936   1.289  11.248   2.635  0.1305 -0.7107  0.0834
  394MOL0     C51937   1.392  11.223   2.753  0.0217 -0.5549  0.1252
  394MOL0     C51938   1.538  11.269   2.725  0.6067  0.3205 -0.3407
  394MOL0     C51939   1.610  11.255   2.852 -0.3663 -0.3708 -1.6254
  394MOL0     C51940   1.666  11.239   2.956 -0.7769  1.0605  0.0976
  394MOL0     C51941   0.886  11.139   2.784  0.5372  0.3433  0.0495
  394MOL0     C51942   0.764  11.103   2.837  0.7118 -0.0506  0.0966
  394MOL0     H51943   0.366  10.829   3.000 -1.1276 -1.4759  2.0475
  394MOL0     H51944   0.111  10.810   3.001 -2.4285  0.3622 -3.8749
  394MOL0     H51945  -0.096  11.165   3.164  1.3214  0.2499  1.1070
  394MOL0     H51946  -0.015  11.072   3.284  1.3187 -3.4491  0.2655
  394MOL0     H51947  -0.192  10.903   3.303 -2.2154  1.0132  4.3128
  394MOL0     H51948  -0.308  11.013   3.225 -1.0177  1.3235  0.0549
  394MOL0     H51949  -0.147  11.043   3.468 -1.1199 -2.0700 -0.1868
  394MOL0     H51950  -0.322  11.032   3.464 -0.6829  3.5091 -0.1004
  394MOL0     H51951  -0.165  11.258   3.328 -0.6936 -1.0407 -0.8228
  394MOL0     H51952  -0.340  11.244   3.347 -3.4310  0.8425  4.7410
  394MOL0     H51953  -0.149  11.255   3.588  2.5905  3.4579 -0.3375
  394MOL0     H51954  -0.313  11.276   3.596  1.8270  0.7051  1.6425
  394MOL0     H51955  -0.112  11.466   3.459  0.1531  0.7135  0.9856
  394MOL0     H51956  -0.195  11.499   3.613  3.4158 -0.6212  1.3829
  394MOL0     H51957  -0.300  11.627   3.412  1.1466  0.2556 -0.2717
  394MOL0     H51958  -0.365  11.466   3.367  3.3258 -0.6432 -1.4457
  394MOL0     H51959  -0.408  11.628   3.619  0.7022 -1.3706  0.8584
  394MOL0     H51960  -0.470  11.461   3.590  2.5419 -1.9429 -1.8875
  394MOL0     H51961  -0.495  11.824   3.432  0.4398 -0.2046  0.6656
  394MOL0     H51962  -0.840  11.823   3.241  1.0616 -1.1929 -3.1004
  394MOL0     H51963  -0.684  11.879   3.177  1.9542  0.5797  0.4935
  394MOL0     H51964  -0.673  12.052   3.334  0.5879 -1.6884  2.7316
  394MOL0     H51965  -0.774  11.991   3.451  0.5392  1.6116 -0.6697
  394MOL0     H51966  -0.985  12.034   3.330 -0.7179  0.9065  0.8172
  394MOL0     H51967  -0.875  12.175   3.339  2.2064  0.8850 -3.4359
  394MOL0     H51968  -1.010  12.157   3.119  1.4599  2.1989 -1.4748
  394MOL0     H51969  -0.923  11.995   3.101  0.1785  0.1610 -0.5535
  394MOL0     H51970  -0.959  12.371   3.178 -0.1027 -1.1569 -0.7901
  394MOL0     H51971  -0.861  12.583   3.266  0.8816 -1.0792  2.5819
  394MOL0     H51972  -0.614  12.961   3.365 -1.2910 -0.3836 -0.4613
  394MOL0     H51973  -0.562  13.118   3.546 -1.0669  0.2305  0.0987
  394MOL0     H51974  -0.649  13.213   3.741  0.2024  1.3065  1.0256
  394MOL0     H51975  -0.474  13.214   3.773  0.0090  2.3118  1.9125
  394MOL0     H51976  -0.518  13.203   4.008 -0.3090  0.4523  0.4610
  394MOL0     H51977  -0.687  13.211   3.998  0.3584  0.5554  0.4867
  394MOL0     H51978  -0.676  13.443   3.913 -1.2505 -3.1984 -1.0860
  394MOL0     H51979  -0.505  13.438   3.885  1.3257 -2.5616  0.1542
  394MOL0     H51980  -0.597  13.395   4.169 -2.6968 -0.2286 -0.8563
  394MOL0     H51981  -0.442  13.407   4.093 -0.7958  0.2310 -2.5869
  394MOL0     H51982  -0.514  13.638   4.005  0.9710  1.7715 -0.2098
  394MOL0     H51983  -0.495  13.633   4.178  1.8086 -1.4912 -1.1684
  394MOL0     H51984  -0.717  13.614   4.235  1.3190 -2.1425  0.6337
  394MOL0     H51985  -0.764  13.585   4.064 -0.5831  2.6929 -1.5934
  394MOL0     H51986  -0.633  13.823   4.160 -0.6422  0.9905  0.0366
  394MOL0     H51987  -0.689  13.816   3.998  0.5598  2.8625  0.5487
  394MOL0     H51988  -0.868  13.940   4.129 -1.9406  0.0430 -0.2924
  394MOL0     H51989  -0.866  13.820   4.253  0.1787 -2.5170 -1.3258
  394MOL0     H51990  -0.622  12.807   3.831 -1.4579  2.7484  0.9921
  394MOL0     H51991  -0.679  12.644   3.648  1.3117 -0.1422  1.2725
  394MOL0     H51992  -0.455  12.438   3.215 -0.1529  1.5274  0.8508
  394MOL0     H51993  -0.569  12.240   3.076 -1.8310 -0.5734 -0.4742
  394MOL0     H51994   0.098  11.227   3.088 -1.8855 -0.5605  0.6581
  394MOL0     H51995   0.320  11.252   3.061 -1.9524  0.9790  2.1024
  394MOL0     H51996   0.819  11.251   3.145  2.1813  0.5285 -0.5229
  394MOL0     H51997   1.022  11.310   3.033  2.2998 -2.8661 -0.7262
  394MOL0     H51998   1.067  11.265   2.604  0.6991  0.0110  0.2592
  394MOL0     H51999   1.114  11.114   2.660 -0.9454  0.2795 -0.9782
  394MOL0     H52000   1.320  11.202   2.541  0.4255  2.5591 -1.5856
  394MOL0     H52001   1.292  11.356   2.618 -0.0920 -0.2561  2.5668
  394MOL0     H52002   1.397  11.116   2.772  2.4681 -0.4621  0.3068
  394MOL0     H52003   1.360  11.278   2.842 -1.0401 -2.5258  1.0296
  394MOL0     H52004   1.584  11.203   2.650  0.3337 -2.2123  1.5573
  394MOL0     H52005   1.533  11.377   2.709  1.8491  1.6493  5.7156
  394MOL0     H52006   1.710  11.227   3.054 -0.0833 -3.4406 -0.5265
  394MOL0     H52007   0.905  11.110   2.682  0.9608 -0.7714  0.4281
  394MOL0     H52008   0.696  11.038   2.783 -0.1603  0.6030  0.3863
  395MOL0     O52009   5.179   4.017   1.629  0.0696  0.2412  0.2046
  395MOL0     C52010   5.293   3.995   1.661 -0.8839  1.3279 -0.4787
  395MOL0     O52011   5.350   4.033   1.786 -0.1684 -0.2290 -0.4220
  395MOL0     C52012   5.273   4.115   1.861  0.0016 -0.4156 -0.4446
  395MOL0     C52013   5.231   4.243   1.813 -0.4029  0.3974 -0.0935
  395MOL0     C52014   5.146   4.324   1.888  0.6762 -0.1521 -0.7414
  395MOL0     C52015   5.113   4.284   2.022 -0.0319 -0.1837  0.3804
  395MOL0     O52016   5.027   4.352   2.101  0.4005  0.2343  0.0428
  395MOL0     C52017   4.918   4.419   2.031 -0.3207 -1.3587 -1.1627
  395MOL0     C52018   4.804   4.440   2.127 -0.2975  1.3207 -0.5841
  395MOL0     C52019   4.791   4.581   2.178  0.0017  0.5968  0.7737
  395MOL0     C52020   4.924   4.628   2.256 -0.4894 -0.8410  0.4038
  395MOL0     C52021   4.911   4.766   2.334 -0.6360 -0.8307 -0.6092
  395MOL0     C52022   4.953   4.883   2.236  1.0978 -0.0142  0.7988
  395MOL0     C52023   4.940   5.030   2.282  1.0482  0.1909  0.6199
  395MOL0     C52024   5.041   5.071   2.393  0.2521  0.2703  0.2300
  395MOL0     N52025   5.042   5.218   2.404  0.1576  0.3401  0.4129
  395MOL0     C52026   5.109   5.297   2.320 -0.5148 -0.3459  0.5772
  395MOL0     C52027   5.132   5.410   2.394 -0.4924  0.4712 -0.7872
  395MOL0     C52028   5.213   5.525   2.351  0.3472 -0.0730 -0.1717
  395MOL0     C52029   5.178   5.600   2.218 -0.2691  0.2294  0.3876
  395MOL0     C52030   5.035   5.662   2.233  0.6664 -0.3824  0.0505
  395MOL0     C52031   4.992   5.724   2.101 -0.5795 -0.4148  0.8259
  395MOL0     O52032   5.001   5.632   1.992 -0.9444  0.0165 -0.4236
  395MOL0     C52033   4.915   5.527   2.002  0.3899  0.4714  0.3719
  395MOL0     C52034   4.972   5.401   1.988  0.4135 -0.6253 -1.1932
  395MOL0     C52035   4.881   5.294   1.982  0.3687 -0.0640  0.7137
  395MOL0     C52036   4.743   5.310   1.970 -0.2647 -0.1821 -0.9840
  395MOL0     C52037   4.660   5.187   1.946  0.0393  0.5284 -0.1969
  395MOL0     O52038   4.715   5.057   1.945 -0.1305  0.5604  0.3030
  395MOL0     C52039   4.627   4.953   1.925 -0.8683  0.3811  1.3130
  395MOL0     C52040   4.602   4.857   2.027  0.5140 -1.1215 -0.2047
  395MOL0     C52041   4.532   4.738   1.999  0.2910  0.3975  0.8705
  395MOL0     C52042   4.498   4.701   1.868  0.5519  0.7143 -0.3946
  395MOL0     O52043   4.440   4.583   1.838  0.4260  0.5266  0.0161
  395MOL0     C52044   4.447   4.527   1.709 -0.0295  0.6167  0.0680
  395MOL0     C52045   4.398   4.386   1.713 -0.4135 -0.6424 -0.1937
  395MOL0     C52046   4.424   4.321   1.568  0.3859 -0.3522 -1.3602
  395MOL0     C52047   4.363   4.185   1.559  0.6259 -0.0264 -0.3756
  395MOL0     C52048   4.415   4.105   1.439  0.1261 -0.4538 -0.0130
  395MOL0     C52049   4.337   4.156   1.314  0.0056  0.8577  0.5179
  395MOL0     C52050   4.305   4.047   1.213 -0.8390  0.6033 -0.0014
  395MOL0     C52051   4.255   4.089   1.069  0.4931 -0.4992 -0.3336
  395MOL0    Cl52052   4.223   4.266   1.061 -0.1680  0.6688 -0.2145
  395MOL0     C52053   4.536   4.791   1.768 -0.1203  0.1140  0.2598
  395MOL0     C52054   4.602   4.912   1.793  0.3819  0.7954  0.4561
  395MOL0     O52055   4.542   5.218   1.926  0.2005 -0.4146 -0.5212
  395MOL0     C52056   4.693   5.441   1.971  0.1601 -0.7206 -0.4628
  395MOL0     C52057   4.783   5.543   1.995  0.3062 -0.8583  0.1423
  395MOL0     N52058   5.060   5.401   2.510 -0.2778 -0.3074  0.1145
  395MOL0     N52059   4.990   5.292   2.513 -0.8594  0.4192  0.7446
  395MOL0     C52060   5.176   4.175   2.078 -0.1542  0.3875  0.8375
  395MOL0     C52061   5.251   4.093   1.994  0.2275  0.2241  0.6111
  395MOL0     C52062   5.382   3.938   1.561 -0.0740  0.1833 -0.5770
  395MOL0     C52063   5.503   3.890   1.619 -1.0020  0.6660  0.0142
  395MOL0     C52064   5.585   3.806   1.545 -0.1595 -0.9882  0.2827
  395MOL0     C52065   5.568   3.785   1.418 -1.0485  1.5986  1.2692
  395MOL0     O52066   5.669   3.727   1.342  0.2076 -0.0778 -0.4106
  395MOL0     C52067   5.646   3.716   1.199 -0.2348  0.0782  0.0587
  395MOL0     C52068   5.767   3.640   1.128  0.1047 -1.2464  0.6571
  395MOL0     C52069   5.762   3.606   0.974 -1.0633  0.0284  0.2744
  395MOL0     C52070   5.708   3.712   0.880  0.4587  1.1498  0.3130
  395MOL0     C52071   5.788   3.714   0.759 -0.1486 -1.9591  0.1458
  395MOL0     C52072   5.863   3.732   0.658 -0.5158  0.1043 -0.2974
  395MOL0     C52073   5.460   3.842   1.352  1.1799 -0.2428  0.4925
  395MOL0     C52074   5.368   3.915   1.425 -0.2537 -0.1317 -0.2760
  395MOL0     H52075   5.261   4.279   1.715 -0.6691  0.8752 -0.0061
  395MOL0     H52076   5.102   4.414   1.846 -4.5886 -1.2435  1.5286
  395MOL0     H52077   4.878   4.358   1.950 -1.6539 -1.9852 -0.0695
  395MOL0     H52078   4.963   4.513   1.998  0.0170 -0.6376  1.1465
  395MOL0     H52079   4.801   4.374   2.215 -0.5281  3.5988  1.2217
  395MOL0     H52080   4.710   4.427   2.073  0.1558  3.3455 -1.9670
  395MOL0     H52081   4.697   4.594   2.231 -0.8486 -1.5149 -0.1367
  395MOL0     H52082   4.784   4.646   2.090  0.7352  3.4565  2.6456
  395MOL0     H52083   4.940   4.544   2.324 -0.2474  0.9598  2.6973
  395MOL0     H52084   5.013   4.637   2.193 -0.5748 -2.5953 -0.0162
  395MOL0     H52085   4.973   4.757   2.424 -0.2038 -1.4971 -0.9646
  395MOL0     H52086   4.808   4.796   2.357  0.2602  0.7692  1.7251
  395MOL0     H52087   4.898   4.865   2.143  0.6857 -1.9591  1.3744
  395MOL0     H52088   5.054   4.873   2.196 -1.0441  0.9779 -6.2286
  395MOL0     H52089   4.956   5.099   2.199  1.6055 -1.3838 -0.6186
  395MOL0     H52090   4.842   5.048   2.329  2.5342  1.4364  3.5570
  395MOL0     H52091   5.137   5.035   2.354 -0.3872 -0.2026 -0.9440
  395MOL0     H52092   5.027   5.015   2.486  1.7779 -0.6811 -0.0754
  395MOL0     H52093   5.154   5.279   2.223  1.7089 -0.3949  1.5376
  395MOL0     H52094   5.314   5.490   2.330  0.4686  0.1636  0.0115
  395MOL0     H52095   5.214   5.603   2.427  0.5931 -1.4847  1.3398
  395MOL0     H52096   5.177   5.516   2.147  0.4862  1.0776 -0.6543
  395MOL0     H52097   5.260   5.669   2.196  0.6487 -0.8249  0.4055
  395MOL0     H52098   4.966   5.579   2.253  1.7100 -1.5086 -0.9035
  395MOL0     H52099   5.020   5.730   2.317 -0.0422 -0.4092 -0.0444
  395MOL0     H52100   5.049   5.814   2.079 -1.6739 -0.0878 -0.8315
  395MOL0     H52101   4.890   5.762   2.103 -0.4173  0.0220  0.9596
  395MOL0     H52102   5.080   5.393   1.986  0.5762  1.0980 -2.2031
  395MOL0     H52103   4.933   5.199   1.987 -0.9750 -0.7708  2.1216
  395MOL0     H52104   4.634   4.882   2.128 -1.8104 -0.6416  0.4805
  395MOL0     H52105   4.509   4.658   2.068  0.5963 -2.4057 -2.0265
  395MOL0     H52106   4.553   4.521   1.682 -0.0833 -2.7524  0.2164
  395MOL0     H52107   4.388   4.588   1.639  1.0127  1.8786  0.2341
  395MOL0     H52108   4.292   4.383   1.741 -0.1690 -3.7598  0.7574
  395MOL0     H52109   4.465   4.334   1.782  0.4637 -0.7639 -1.1148
  395MOL0     H52110   4.529   4.298   1.550  0.6013  0.8251 -1.7023
  395MOL0     H52111   4.382   4.386   1.491 -4.1083 -0.3629  0.7417
  395MOL0     H52112   4.390   4.125   1.646 -1.3255 -1.0949 -0.4559
  395MOL0     H52113   4.255   4.178   1.575  0.8602 -4.4509  0.4781
  395MOL0     H52114   4.394   4.001   1.467  0.2268 -0.7540 -1.0174
  395MOL0     H52115   4.521   4.114   1.412 -0.4444  1.2883 -1.8655
  395MOL0     H52116   4.393   4.239   1.268  3.2412 -0.9597  0.8970
  395MOL0     H52117   4.237   4.195   1.338 -0.2974  0.2913  0.1943
  395MOL0     H52118   4.387   3.974   1.214 -0.6824  0.5510  4.4365
  395MOL0     H52119   4.227   3.986   1.257  0.2768 -1.3898 -0.6831
  395MOL0     H52120   4.171   4.030   1.032  1.6237 -1.7150 -1.0793
  395MOL0     H52121   4.340   4.067   1.003  0.5438 -1.0390 -0.0924
  395MOL0     H52122   4.520   4.759   1.666 -3.7172 -0.3086  0.8294
  395MOL0     H52123   4.634   4.972   1.708 -1.5688 -1.1395 -1.8054
  395MOL0     H52124   4.586   5.457   1.957  0.3483 -0.7296 -2.0559
  395MOL0     H52125   4.741   5.643   2.002 -2.2656 -1.7358 -1.4465
  395MOL0     H52126   5.167   4.149   2.183 -2.0338 -1.3342  0.3244
  395MOL0     H52127   5.313   4.019   2.043 -0.2281  0.5278  1.6883
  395MOL0     H52128   5.537   3.889   1.722  3.1019  0.7640 -1.1460
  395MOL0     H52129   5.679   3.766   1.583 -0.5663 -1.4616  0.8236
  395MOL0     H52130   5.631   3.808   1.142  0.5145 -0.7305 -1.4670
  395MOL0     H52131   5.556   3.657   1.178 -0.3266  0.8060 -1.7232
  395MOL0     H52132   5.865   3.689   1.133  0.5721 -2.2492  1.8486
  395MOL0     H52133   5.792   3.547   1.180  0.9179 -2.2290 -1.3701
  395MOL0     H52134   5.690   3.524   0.977  1.6873 -2.6260 -1.2883
  395MOL0     H52135   5.863   3.578   0.945 -0.7289 -0.3714  1.7749
  395MOL0     H52136   5.605   3.694   0.846  0.9147  1.2872 -1.1945
  395MOL0     H52137   5.713   3.810   0.927  5.2820  0.6067  1.4384
  395MOL0     H52138   5.910   3.753   0.564 -0.1060 -2.4793 -0.7410
  395MOL0     H52139   5.431   3.833   1.248 -1.8147  0.9213  1.1166
  395MOL0     H52140   5.269   3.953   1.399 -0.6599  0.9311  2.4948
  396MOL0     O52141   5.722   2.002   3.845 -0.1854 -0.0605  0.2216
  396MOL0     C52142   5.636   2.053   3.908 -0.5993  0.3679  0.1599
  396MOL0     O52143   5.506   2.067   3.865  0.4223 -0.7108 -0.7997
  396MOL0     C52144   5.476   2.026   3.738 -0.8931 -0.2401  0.0854
  396MOL0     C52145   5.493   2.095   3.615 -0.1032  0.0437  0.4306
  396MOL0     C52146   5.441   2.055   3.488  0.4531 -0.1092  0.4006
  396MOL0     C52147   5.386   1.932   3.473 -0.1154  0.1623  0.2101
  396MOL0     O52148   5.341   1.897   3.349  0.7979  0.0694 -0.8654
  396MOL0     C52149   5.357   1.756   3.300 -0.0188  1.0028 -0.6116
  396MOL0     C52150   5.300   1.756   3.161  0.6218  0.6118 -0.6756
  396MOL0     C52151   5.404   1.810   3.061  0.2185 -0.4095  0.4567
  396MOL0     C52152   5.333   1.833   2.927 -0.5805 -0.8867  0.1857
  396MOL0     C52153   5.422   1.895   2.822  0.3194 -0.0558 -0.2693
  396MOL0     C52154   5.344   1.925   2.688  0.3783 -0.1461 -1.1580
  396MOL0     C52155   5.370   1.816   2.581 -0.1326  0.2464 -0.7548
  396MOL0     C52156   5.502   1.835   2.518  0.1892 -0.3395 -0.5187
  396MOL0     N52157   5.530   1.742   2.406  0.1284  0.3044  0.2497
  396MOL0     C52158   5.480   1.770   2.279  0.5452  0.0076  0.4372
  396MOL0     C52159   5.536   1.676   2.198  0.4636 -0.9745  0.9870
  396MOL0     C52160   5.527   1.642   2.052 -0.4804  0.1153 -0.2691
  396MOL0     C52161   5.643   1.708   1.977 -0.3780  0.1066 -0.5754
  396MOL0     C52162   5.618   1.727   1.828 -0.6177  0.1494  0.1500
  396MOL0     C52163   5.745   1.784   1.766 -0.1367  0.5946 -0.3545
  396MOL0     O52164   5.728   1.795   1.628  1.0807  0.2450  0.8410
  396MOL0     C52165   5.815   1.740   1.540 -0.0941  1.1858 -0.2930
  396MOL0     C52166   5.811   1.780   1.411 -0.7175 -1.3509  0.2295
  396MOL0     C52167   5.900   1.741   1.313 -0.0573 -0.3942  0.4847
  396MOL0     C52168   6.003   1.651   1.341  0.5014 -0.3980 -1.5891
  396MOL0     C52169   6.101   1.603   1.236  0.7676  0.6008  0.3304
  396MOL0     O52170   6.215   1.545   1.275  0.1858 -0.0887  0.9601
  396MOL0     C52171   6.300   1.500   1.181  0.4952 -0.3651 -0.8332
  396MOL0     C52172   6.284   1.389   1.099 -0.8353  0.2317 -0.8018
  396MOL0     C52173   6.386   1.336   1.016  0.3234 -0.3525  0.7365
  396MOL0     C52174   6.502   1.413   1.006 -0.4285  0.1886  0.7428
  396MOL0     O52175   6.605   1.369   0.919 -0.4830 -0.1424  0.1983
  396MOL0     C52176   6.729   1.322   0.991  1.1187 -1.2042  0.2349
  396MOL0     C52177   6.851   1.309   0.899  0.7820  0.0377 -0.0066
  396MOL0     C52178   6.889   1.444   0.832  0.3602  0.7389  0.1998
  396MOL0     C52179   7.024   1.456   0.769 -0.4554  0.5704 -0.6654
  396MOL0     C52180   7.038   1.606   0.722 -0.2814  0.5176  0.2612
  396MOL0     C52181   7.163   1.618   0.621 -0.6299  0.2793 -1.1666
  396MOL0     C52182   7.218   1.765   0.604 -1.4115 -0.6005  0.7463
  396MOL0     C52183   7.321   1.766   0.493  0.6871 -0.6428 -0.2597
  396MOL0    Cl52184   7.460   1.653   0.528  0.2270  0.3053 -0.5239
  396MOL0     C52185   6.511   1.536   1.087 -0.1328 -1.1104  0.6317
  396MOL0     C52186   6.410   1.578   1.166  0.6013  0.3861  0.2135
  396MOL0     O52187   6.063   1.618   1.117 -1.0984  0.1013 -0.4931
  396MOL0     C52188   6.020   1.607   1.470 -0.6366  0.4443  0.2434
  396MOL0     C52189   5.932   1.650   1.570  0.2591 -0.4362  0.0482
  396MOL0     N52190   5.623   1.602   2.274  0.9536 -0.6079  0.6723
  396MOL0     N52191   5.620   1.643   2.400 -0.4141 -0.3373 -0.1964
  396MOL0     C52192   5.373   1.860   3.588 -0.2891  0.1791  0.2264
  396MOL0     C52193   5.415   1.903   3.720 -0.7719 -0.4723  0.4873
  396MOL0     C52194   5.670   2.093   4.047  0.5926 -0.0890 -0.2911
  396MOL0     C52195   5.579   2.159   4.135 -0.3515 -0.2411  0.1907
  396MOL0     C52196   5.613   2.185   4.269 -0.4258 -0.5528  0.3147
  396MOL0     C52197   5.727   2.140   4.334  0.9392 -0.5068  1.5140
  396MOL0     O52198   5.755   2.162   4.462  0.6200  0.1232 -0.2055
  396MOL0     C52199   5.731   2.060   4.562  0.4148  0.4314 -0.1224
  396MOL0     C52200   5.588   2.068   4.610 -0.2368 -0.0808  0.3467
  396MOL0     C52201   5.569   2.142   4.738  0.3319 -0.0737 -0.5867
  396MOL0     C52202   5.633   2.280   4.747  0.3681 -0.2736  0.1435
  396MOL0     C52203   5.582   2.366   4.856  0.4494 -0.1767  0.1370
  396MOL0     C52204   5.513   2.423   4.937 -1.3188 -0.1648  0.3967
  396MOL0     C52205   5.810   2.053   4.258  0.1121  0.2149 -0.0130
  396MOL0     C52206   5.783   2.036   4.119  0.3525 -0.5289  0.4134
  396MOL0     H52207   5.543   2.189   3.636  0.5235  0.3846 -2.2703
  396MOL0     H52208   5.439   2.128   3.408 -1.5096 -1.3565 -0.7707
  396MOL0     H52209   5.309   1.681   3.363 -1.5955  1.4938 -1.1583
  396MOL0     H52210   5.456   1.710   3.302 -0.8622 -1.0108  2.5059
  396MOL0     H52211   5.207   1.815   3.164 -1.7396 -2.8241  0.3632
  396MOL0     H52212   5.271   1.654   3.131 -2.3207  0.5071  2.0046
  396MOL0     H52213   5.487   1.742   3.043  1.1848  0.0760  2.7969
  396MOL0     H52214   5.445   1.905   3.098  2.1661 -1.4322  1.0331
  396MOL0     H52215   5.301   1.736   2.888 -0.8040 -0.0157 -1.8942
  396MOL0     H52216   5.247   1.900   2.941  0.1626  0.5689 -1.8233
  396MOL0     H52217   5.505   1.826   2.804  1.4911  1.3939 -0.5754
  396MOL0     H52218   5.464   1.987   2.862  0.6163  0.2094 -1.1590
  396MOL0     H52219   5.370   2.027   2.657  1.0761  0.0199 -0.0605
  396MOL0     H52220   5.237   1.918   2.710  0.6765  1.7449  1.3950
  396MOL0     H52221   5.351   1.717   2.623 -1.1569  1.1030  0.8878
  396MOL0     H52222   5.294   1.832   2.503 -2.0372 -0.5710  0.8476
  396MOL0     H52223   5.581   1.815   2.591  0.5465  0.6001 -0.6400
  396MOL0     H52224   5.518   1.938   2.484  3.6379 -0.5592  0.0639
  396MOL0     H52225   5.404   1.844   2.255 -2.1217 -2.8204 -0.4242
  396MOL0     H52226   5.432   1.678   2.011  0.2289  0.6807 -1.4461
  396MOL0     H52227   5.535   1.534   2.037 -4.1766 -0.3300  0.0275
  396MOL0     H52228   5.730   1.642   1.988 -1.5032 -1.8379 -2.7264
  396MOL0     H52229   5.663   1.807   2.021 -2.3391  0.9085 -1.3705
  396MOL0     H52230   5.590   1.635   1.777  0.0433  1.3616 -2.5433
  396MOL0     H52231   5.525   1.782   1.813 -1.6439 -0.5119  3.3485
  396MOL0     H52232   5.831   1.722   1.792  0.7567  2.4080  1.2889
  396MOL0     H52233   5.764   1.883   1.809 -1.6745  1.1013 -0.7795
  396MOL0     H52234   5.733   1.854   1.398 -1.8032 -2.1767  1.7878
  396MOL0     H52235   5.884   1.785   1.215  0.9169  3.7042  1.9712
  396MOL0     H52236   6.189   1.340   1.121  0.4420 -1.1002  2.4231
  396MOL0     H52237   6.363   1.239   0.974 -1.4920  0.5488 -0.4974
  396MOL0     H52238   6.692   1.226   1.027 -0.8317 -0.6974 -0.3007
  396MOL0     H52239   6.746   1.397   1.068 -0.2501  1.3488 -1.7857
  396MOL0     H52240   6.836   1.236   0.819  1.6777  0.3447 -0.4651
  396MOL0     H52241   6.929   1.277   0.967  1.5885  0.4668 -0.7082
  396MOL0     H52242   6.881   1.509   0.920  1.0865 -2.3531  2.7615
  396MOL0     H52243   6.816   1.482   0.760 -0.9020 -0.3062  0.8821
  396MOL0     H52244   7.109   1.438   0.835 -0.4628  0.7631 -0.6034
  396MOL0     H52245   7.026   1.378   0.693 -0.1138 -1.4567  1.3224
  396MOL0     H52246   7.049   1.656   0.818 -1.3837 -3.2318  2.5669
  396MOL0     H52247   6.950   1.650   0.673  0.4058  0.9539 -0.6146
  396MOL0     H52248   7.129   1.577   0.526 -0.1806 -0.2062 -1.1235
  396MOL0     H52249   7.250   1.570   0.667  1.1887  1.3549 -3.2948
  396MOL0     H52250   7.135   1.827   0.569 -0.1453 -0.2694 -1.9050
  396MOL0     H52251   7.269   1.796   0.696  0.1952  2.1428 -0.9241
  396MOL0     H52252   7.364   1.866   0.484  1.5475 -0.4643  4.0357
  396MOL0     H52253   7.280   1.743   0.394 -0.4348  1.6589 -0.4040
  396MOL0     H52254   6.595   1.602   1.067 -1.8883  1.1545  0.2644
  396MOL0     H52255   6.413   1.677   1.211  0.4397  1.9127 -2.8663
  396MOL0     H52256   6.088   1.528   1.499 -1.4858 -0.4616 -0.1902
  396MOL0     H52257   5.949   1.607   1.668  2.3964 -0.9745 -0.4874
  396MOL0     H52258   5.312   1.772   3.572 -1.3324  1.1787 -1.6393
  396MOL0     H52259   5.394   1.833   3.800 -0.4597 -1.1971 -0.0506
  396MOL0     H52260   5.486   2.196   4.094  1.2082  1.8148 -1.7434
  396MOL0     H52261   5.537   2.236   4.328  0.4012  0.2751  0.6736
  396MOL0     H52262   5.794   2.077   4.649  2.0785  0.8183 -1.3617
  396MOL0     H52263   5.749   1.958   4.527  1.7979 -1.0409  4.2382
  396MOL0     H52264   5.532   2.121   4.532  0.5164  0.4639  0.1619
  396MOL0     H52265   5.548   1.966   4.609 -1.6278  0.3599 -2.7229
  396MOL0     H52266   5.592   2.079   4.825  2.3608 -0.2082 -1.1626
  396MOL0     H52267   5.462   2.164   4.737  0.8923  3.2418 -3.1236
  396MOL0     H52268   5.742   2.272   4.752  0.1804 -2.7859  1.6992
  396MOL0     H52269   5.622   2.336   4.653 -1.6947 -0.9619 -0.0859
  396MOL0     H52270   5.459   2.490   5.001  2.1090  3.7909 -0.4031
  396MOL0     H52271   5.896   2.001   4.299 -0.2281 -1.8792 -1.7786
  396MOL0     H52272   5.861   1.988   4.061  1.4714  2.1699 -0.4449
  397MOL0     O52273   5.041   4.923   1.684 -0.4711 -0.1094 -0.7929
  397MOL0     C52274   5.143   4.932   1.624  0.3217 -0.4939 -0.0785
  397MOL0     O52275   5.190   5.041   1.560 -0.1812  0.3890  0.5474
  397MOL0     C52276   5.130   5.164   1.581  0.9934  0.0882 -0.1430
  397MOL0     C52277   5.204   5.278   1.540 -0.0708 -0.5133 -0.4687
  397MOL0     C52278   5.148   5.406   1.534  0.0098  0.4697 -0.3374
  397MOL0     C52279   5.018   5.435   1.588  0.2059  0.2838  0.3521
  397MOL0     O52280   4.964   5.564   1.579 -0.4710 -0.3066 -0.4231
  397MOL0     C52281   4.841   5.592   1.650 -0.1887 -0.5638  0.5708
  397MOL0     C52282   4.842   5.748   1.675  0.0789 -0.3775 -0.2899
  397MOL0     C52283   4.830   5.839   1.545  0.2373 -0.9743 -0.5141
  397MOL0     C52284   4.695   5.814   1.471  0.0106 -0.0920 -0.3566
  397MOL0     C52285   4.674   5.917   1.367 -0.1015  0.1192  0.8076
  397MOL0     C52286   4.528   5.912   1.316  0.7187  0.5331  0.6877
  397MOL0     C52287   4.515   6.023   1.210  0.3070 -0.3692 -0.3845
  397MOL0     C52288   4.375   6.055   1.147 -0.0620 -1.0463  0.1571
  397MOL0     N52289   4.262   6.101   1.224 -0.5140  0.7456  0.6152
  397MOL0     C52290   4.280   6.201   1.311  0.3727  0.5889  0.0928
  397MOL0     C52291   4.181   6.181   1.404  0.4780  0.4852 -0.5312
  397MOL0     C52292   4.150   6.274   1.517  0.3330  0.2321  0.7146
  397MOL0     C52293   4.229   6.241   1.640  0.5309 -0.4016 -0.2373
  397MOL0     C52294   4.374   6.227   1.608  0.0267  0.1118  0.9156
  397MOL0     C52295   4.450   6.210   1.740  0.0285  0.2994  0.3825
  397MOL0     O52296   4.587   6.209   1.701  0.2259 -0.4384  0.5916
  397MOL0     C52297   4.681   6.189   1.799 -0.5760  0.0038  0.7904
  397MOL0     C52298   4.663   6.161   1.939  0.3155 -0.5085  0.3343
  397MOL0     C52299   4.772   6.134   2.031  0.6738  0.4451  0.9060
  397MOL0     C52300   4.901   6.138   1.965 -0.8061  0.2216  0.0405
  397MOL0     C52301   5.020   6.102   2.047  0.0660  0.5887  0.2058
  397MOL0     O52302   5.009   6.094   2.182  0.7000  0.0747 -0.6111
  397MOL0     C52303   5.104   6.068   2.274 -0.9732  0.9387  0.3386
  397MOL0     C52304   5.247   6.080   2.247  0.4559  0.4375  0.0534
  397MOL0     C52305   5.344   6.045   2.354 -0.1306  0.2492  0.4987
  397MOL0     C52306   5.305   5.986   2.474  0.5927 -0.4565  0.7975
  397MOL0     O52307   5.394   5.937   2.571  0.7459 -0.5546 -0.0543
  397MOL0     C52308   5.487   6.034   2.629  0.0832 -0.3604  0.1983
  397MOL0     C52309   5.550   5.971   2.761  0.1616 -0.7040  0.3579
  397MOL0     C52310   5.629   6.086   2.836 -0.1684 -0.2462  0.0052
  397MOL0     C52311   5.684   6.046   2.969  0.3509  0.4629 -0.2365
  397MOL0     C52312   5.735   6.167   3.033 -0.0637 -0.3549  0.7136
  397MOL0     C52313   5.807   6.159   3.166  0.6026  0.3745  0.1193
  397MOL0     C52314   5.924   6.067   3.170 -0.8788 -0.3261  0.0825
  397MOL0     C52315   6.031   6.114   3.059  0.3423  0.4988  0.1045
  397MOL0    Cl52316   6.160   5.987   3.082 -0.2360 -0.3089  0.0399
  397MOL0     C52317   5.164   5.977   2.497 -0.2967  0.9462  0.6295
  397MOL0     C52318   5.076   6.018   2.399  0.7857  0.4323 -0.2493
  397MOL0     O52319   5.133   6.098   1.986 -0.1797  0.7711  0.9602
  397MOL0     C52320   4.922   6.182   1.834  0.6398 -0.4968 -0.0641
  397MOL0     C52321   4.810   6.192   1.754  0.4373 -0.5508 -0.3517
  397MOL0     N52322   4.109   6.071   1.364 -1.1371 -0.8290 -0.5826
  397MOL0     N52323   4.154   6.027   1.251 -0.5728  0.6895 -0.6665
  397MOL0     C52324   4.938   5.315   1.634  0.3082 -0.6214  0.6977
  397MOL0     C52325   4.998   5.192   1.639  0.4387  0.1772  0.7015
  397MOL0     C52326   5.208   4.804   1.589  0.3985  0.0312  0.3096
  397MOL0     C52327   5.224   4.699   1.686  1.2221 -0.9316  0.2601
  397MOL0     C52328   5.290   4.588   1.665  0.5965  0.0943 -0.4217
  397MOL0     C52329   5.358   4.555   1.546 -0.4655 -0.1525  0.2162
  397MOL0     O52330   5.409   4.423   1.545 -0.6444  1.2687 -0.6818
  397MOL0     C52331   5.535   4.401   1.469  0.7244 -0.4660  0.3852
  397MOL0     C52332   5.630   4.393   1.589 -0.5214 -0.0823  0.6141
  397MOL0     C52333   5.623   4.254   1.650  0.2077  0.2399 -0.6605
  397MOL0     C52334   5.745   4.163   1.602  1.3116  0.3453  0.5210
  397MOL0     C52335   5.714   4.109   1.465  0.6630  0.2716  1.0373
  397MOL0     C52336   5.680   4.069   1.353  0.1652 -0.1079  0.0070
  397MOL0     C52337   5.359   4.659   1.451 -0.4107  0.5002 -0.5535
  397MOL0     C52338   5.280   4.779   1.465 -1.0480 -0.8407 -0.6514
  397MOL0     H52339   5.291   5.260   1.477 -0.6391 -2.4085 -0.7774
  397MOL0     H52340   5.186   5.494   1.483 -3.4117  1.2371 -1.8709
  397MOL0     H52341   4.846   5.549   1.751  0.5033  2.5240  1.9512
  397MOL0     H52342   4.764   5.540   1.591  1.0380 -1.0084 -0.7118
  397MOL0     H52343   4.940   5.784   1.708  0.0984 -0.5722 -0.1345
  397MOL0     H52344   4.774   5.777   1.756 -0.8683  0.4927 -1.3516
  397MOL0     H52345   4.906   5.821   1.469  1.5779  0.9164  0.2783
  397MOL0     H52346   4.845   5.946   1.563  2.1145 -0.0967 -5.6892
  397MOL0     H52347   4.713   5.715   1.428 -1.1754 -1.2013  1.5519
  397MOL0     H52348   4.611   5.807   1.541  4.0850 -0.8598  5.0979
  397MOL0     H52349   4.736   5.898   1.280  0.9619 -1.5888  1.8858
  397MOL0     H52350   4.689   6.013   1.417 -0.2889  0.5178  0.1111
  397MOL0     H52351   4.456   5.922   1.398  1.7859 -0.4287  1.7826
  397MOL0     H52352   4.515   5.810   1.278  1.2741  0.5614  0.4164
  397MOL0     H52353   4.544   6.114   1.264 -1.8039  1.0674 -1.5442
  397MOL0     H52354   4.589   6.006   1.132  1.2825  0.5670  0.2964
  397MOL0     H52355   4.358   5.974   1.075  2.7051 -2.0011  0.4526
  397MOL0     H52356   4.393   6.137   1.076  0.2717  0.5563  2.0108
  397MOL0     H52357   4.356   6.278   1.301  0.7461  0.7553  3.0768
  397MOL0     H52358   4.041   6.279   1.524  0.2618  0.1926 -0.2393
  397MOL0     H52359   4.188   6.368   1.475  1.0443  1.6407  4.1326
  397MOL0     H52360   4.191   6.148   1.684  0.3628 -0.1375  0.1881
  397MOL0     H52361   4.213   6.317   1.718 -3.5678 -2.9141  1.7094
  397MOL0     H52362   4.384   6.142   1.540 -2.0774 -1.8655  2.8878
  397MOL0     H52363   4.418   6.314   1.559 -1.4560  1.1369  1.3136
  397MOL0     H52364   4.424   6.115   1.789  1.1660  1.9096  4.5323
  397MOL0     H52365   4.430   6.288   1.814  3.5472  2.1102 -0.3872
  397MOL0     H52366   4.561   6.159   1.975  0.4383 -0.6321  0.6787
  397MOL0     H52367   4.763   6.109   2.136  2.8540 -3.4092  0.3873
  397MOL0     H52368   5.282   6.118   2.152  0.5257  1.5203  0.4914
  397MOL0     H52369   5.447   6.071   2.334 -0.8505  1.1916 -2.5461
  397MOL0     H52370   5.423   6.121   2.649  1.9294  1.2407 -0.4828
  397MOL0     H52371   5.558   6.057   2.550 -1.8782 -0.4563 -1.7000
  397MOL0     H52372   5.620   5.893   2.731  1.4847  0.6892 -0.3284
  397MOL0     H52373   5.465   5.930   2.817 -0.2292 -1.7106 -0.9048
  397MOL0     H52374   5.570   6.178   2.841  2.6561  1.9318 -2.6243
  397MOL0     H52375   5.715   6.123   2.780  0.6920  2.2083  2.6565
  397MOL0     H52376   5.596   6.011   3.023  0.1048 -0.0016 -0.9253
  397MOL0     H52377   5.757   5.964   2.966  2.7167  2.4648 -0.2159
  397MOL0     H52378   5.651   6.236   3.039  0.6479  0.8028 -1.3770
  397MOL0     H52379   5.799   6.224   2.964 -1.8655 -0.7037 -1.3467
  397MOL0     H52380   5.738   6.115   3.239  1.0033 -0.6199 -0.0848
  397MOL0     H52381   5.840   6.261   3.184  3.7371 -0.7295  1.2954
  397MOL0     H52382   5.965   6.055   3.271 -0.9699 -0.3377  0.1177
  397MOL0     H52383   5.886   5.967   3.145  0.3882 -1.1666  1.2983
  397MOL0     H52384   6.054   6.220   3.065 -1.4197  0.9328 -0.3116
  397MOL0     H52385   5.987   6.092   2.961  0.3016 -0.5043  0.3325
  397MOL0     H52386   5.122   5.944   2.592 -0.2400  1.5802  0.8793
  397MOL0     H52387   4.969   6.007   2.416  0.6408  2.2206  0.2211
  397MOL0     H52388   5.022   6.190   1.794  0.9463 -1.6532  0.4383
  397MOL0     H52389   4.827   6.209   1.648  0.2441 -3.7561 -0.9996
  397MOL0     H52390   4.841   5.314   1.682 -0.1712 -3.1289 -0.1439
  397MOL0     H52391   4.932   5.114   1.676  2.4878 -1.2755  1.5027
  397MOL0     H52392   5.193   4.718   1.788  0.2990  1.3023 -0.3760
  397MOL0     H52393   5.301   4.515   1.745  2.2332  0.2100 -0.5012
  397MOL0     H52394   5.562   4.491   1.412 -1.2057 -0.3754 -0.4817
  397MOL0     H52395   5.537   4.322   1.394 -0.0838  0.5208 -0.7097
  397MOL0     H52396   5.733   4.413   1.559 -0.9856 -0.1948 -1.1933
  397MOL0     H52397   5.599   4.469   1.661  0.6214  2.8873 -1.7972
  397MOL0     H52398   5.527   4.208   1.626  0.6264 -2.4091  2.1544
  397MOL0     H52399   5.623   4.262   1.759 -1.7715 -0.4627 -0.5687
  397MOL0     H52400   5.838   4.219   1.586  0.0508  2.2275 -0.6459
  397MOL0     H52401   5.757   4.077   1.669 -1.0165 -0.4688 -0.0128
  397MOL0     H52402   5.654   4.046   1.252  1.2615  0.2586 -0.3750
  397MOL0     H52403   5.424   4.646   1.365 -0.2552  1.9025 -0.6858
  397MOL0     H52404   5.269   4.852   1.386  2.4449 -2.7796 -3.2180
  398MOL0     O52405   4.430   6.046   2.793 -0.6560  0.0697 -0.3049
  398MOL0     C52406   4.367   5.986   2.875  0.2952 -0.3957 -0.2751
  398MOL0     O52407   4.317   6.050   2.990  0.0266 -0.5796  0.1718
  398MOL0     C52408   4.367   6.172   3.021  0.5090 -0.0496 -0.0281
  398MOL0     C52409   4.338   6.291   2.947 -0.5346 -0.5270 -0.7756
  398MOL0     C52410   4.412   6.406   2.973 -0.6874 -0.3537 -0.0550
  398MOL0     C52411   4.504   6.412   3.084  0.6718 -0.7285  0.0256
  398MOL0     O52412   4.572   6.531   3.098 -0.2771 -0.2101  0.9495
  398MOL0     C52413   4.632   6.564   3.232  1.4901 -0.4522 -0.2362
  398MOL0     C52414   4.703   6.688   3.216 -0.4864 -0.4377  0.1960
  398MOL0     C52415   4.621   6.795   3.147  0.2183  0.5182  0.8751
  398MOL0     C52416   4.708   6.924   3.161  0.4572  0.2925  0.4344
  398MOL0     C52417   4.637   7.065   3.137  0.0646 -0.0448  0.4807
  398MOL0     C52418   4.741   7.168   3.132 -0.3277 -0.4721 -0.0537
  398MOL0     C52419   4.682   7.306   3.154 -0.5269 -0.2887  0.2281
  398MOL0     C52420   4.774   7.424   3.101  0.5468  0.5258 -0.2967
  398MOL0     N52421   4.902   7.398   3.161  0.1072  0.0480  0.1624
  398MOL0     C52422   5.011   7.330   3.111  0.3537  1.0201 -0.2934
  398MOL0     C52423   5.091   7.300   3.216  0.7019  1.1045 -0.2709
  398MOL0     C52424   5.223   7.229   3.200  0.4505 -1.3489  0.2416
  398MOL0     C52425   5.221   7.096   3.268  0.9451  0.8862 -0.1730
  398MOL0     C52426   5.197   6.982   3.158  0.5024  0.7597  0.2155
  398MOL0     C52427   5.159   6.852   3.231 -0.2349  1.0894 -0.4436
  398MOL0     O52428   5.132   6.760   3.127 -0.3656  0.2378 -0.4528
  398MOL0     C52429   5.074   6.637   3.158 -0.2447  0.0494  0.0092
  398MOL0     C52430   5.055   6.544   3.059  0.2691  0.0041  0.0022
  398MOL0     C52431   4.992   6.418   3.099 -0.0650 -0.2199 -0.2405
  398MOL0     C52432   4.959   6.383   3.235 -0.4978  0.2099 -0.0195
  398MOL0     C52433   4.921   6.250   3.274 -0.5544 -0.8268 -1.6275
  398MOL0     O52434   4.869   6.176   3.173 -0.5056  0.0639  0.5394
  398MOL0     C52435   4.800   6.058   3.197 -1.1674  0.9990 -0.2081
  398MOL0     C52436   4.784   5.981   3.092 -0.4891 -0.3981 -0.1728
  398MOL0     C52437   4.708   5.862   3.098  0.2526  0.3612  0.0622
  398MOL0     C52438   4.652   5.827   3.228  0.3910 -0.1691 -0.3026
  398MOL0     O52439   4.583   5.713   3.252  0.0804  0.7950 -0.1807
  398MOL0     C52440   4.557   5.659   3.386  0.1335  0.3861 -0.5008
  398MOL0     C52441   4.529   5.512   3.380  0.2828 -0.2683  0.3996
  398MOL0     C52442   4.530   5.458   3.529  0.0192 -0.3914  0.6236
  398MOL0     C52443   4.406   5.496   3.611 -0.2821  0.0932 -1.1041
  398MOL0     C52444   4.390   5.424   3.748  0.1399 -0.1666  0.0951
  398MOL0     C52445   4.385   5.275   3.750 -1.0414 -0.5726 -0.1115
  398MOL0     C52446   4.302   5.236   3.877 -0.9782 -0.2878  0.9368
  398MOL0     C52447   4.298   5.091   3.908  0.2074  0.4345 -0.0739
  398MOL0    Cl52448   4.252   5.007   3.756 -0.2780 -0.1840 -0.1276
  398MOL0     C52449   4.658   5.919   3.332  0.2286 -0.1391  0.5015
  398MOL0     C52450   4.739   6.024   3.316 -0.5337 -0.4415 -0.0310
  398MOL0     O52451   4.934   6.216   3.389  0.0077  0.3144 -0.0768
  398MOL0     C52452   4.984   6.487   3.329  0.5056 -0.5166  0.4410
  398MOL0     C52453   5.028   6.609   3.295  0.6619 -0.7117 -0.1321
  398MOL0     N52454   5.039   7.366   3.325 -0.3038 -0.3833 -0.9230
  398MOL0     N52455   4.928   7.420   3.292 -0.2257  1.1151 -0.2019
  398MOL0     C52456   4.517   6.301   3.161 -0.8736 -0.4541  0.2683
  398MOL0     C52457   4.456   6.185   3.130 -0.5113  0.2959  1.4776
  398MOL0     C52458   4.327   5.852   2.830 -0.0680  0.2991  0.1538
  398MOL0     C52459   4.190   5.811   2.851  0.3401 -1.1668  0.2338
  398MOL0     C52460   4.147   5.693   2.794  0.0126  0.1314 -0.4422
  398MOL0     C52461   4.228   5.595   2.732 -0.6359  0.5646  0.1962
  398MOL0     O52462   4.183   5.474   2.680 -0.5190  0.5069 -0.1319
  398MOL0     C52463   4.039   5.469   2.645 -0.2507 -0.1893  0.0486
  398MOL0     C52464   4.017   5.331   2.579  0.3275  0.3578  0.0274
  398MOL0     C52465   3.870   5.312   2.529 -0.4326 -0.2958  0.2580
  398MOL0     C52466   3.860   5.279   2.381 -0.0501  0.0302  0.6292
  398MOL0     C52467   3.880   5.134   2.365  0.1930 -0.6823 -0.1805
  398MOL0     C52468   3.903   5.018   2.351 -0.1205 -0.1605 -0.4281
  398MOL0     C52469   4.371   5.629   2.730  0.3184  0.5405 -0.0307
  398MOL0     C52470   4.415   5.760   2.771  0.6691  0.1421 -0.1285
  398MOL0     H52471   4.268   6.299   2.864 -1.3917 -2.0259 -0.2252
  398MOL0     H52472   4.402   6.497   2.916 -0.3943  0.5208  1.2302
  398MOL0     H52473   4.714   6.502   3.271  1.5148  2.8236  6.1910
  398MOL0     H52474   4.562   6.579   3.314  0.6238 -2.3224 -0.5758
  398MOL0     H52475   4.793   6.667   3.157  0.4165  1.7009  0.7130
  398MOL0     H52476   4.745   6.720   3.312  2.7252  0.0763 -1.2482
  398MOL0     H52477   4.526   6.816   3.196 -1.8110 -3.0784 -1.1133
  398MOL0     H52478   4.603   6.765   3.043 -1.8433  0.2165  1.2866
  398MOL0     H52479   4.749   6.935   3.261  3.7783  2.2104 -0.9789
  398MOL0     H52480   4.784   6.923   3.082  0.7202  3.6030  0.5022
  398MOL0     H52481   4.567   7.086   3.218  0.3314 -0.3901  0.8022
  398MOL0     H52482   4.594   7.069   3.036 -1.3533  0.7542  1.0975
  398MOL0     H52483   4.800   7.152   3.041  0.8798 -4.0160  1.1832
  398MOL0     H52484   4.812   7.154   3.214 -1.5480 -0.2620  1.0789
  398MOL0     H52485   4.583   7.312   3.108 -1.7612 -3.9885  1.9766
  398MOL0     H52486   4.651   7.313   3.259 -0.7737 -2.0881  0.3019
  398MOL0     H52487   4.723   7.512   3.141  0.3301 -0.6591  2.1815
  398MOL0     H52488   4.775   7.411   2.992  0.9834 -1.5273 -0.0919
  398MOL0     H52489   5.025   7.294   3.009 -1.2893  1.3413 -0.6781
  398MOL0     H52490   5.305   7.295   3.232 -1.9512  1.6572  0.6220
  398MOL0     H52491   5.251   7.213   3.095 -0.4050  0.0827 -0.2365
  398MOL0     H52492   5.142   7.090   3.344 -0.2875  1.0297 -1.3951
  398MOL0     H52493   5.313   7.072   3.323  0.2894 -0.2163  0.4880
  398MOL0     H52494   5.121   7.006   3.083  0.2908 -0.3755  0.0509
  398MOL0     H52495   5.289   6.962   3.102  0.0215 -1.9536  0.2507
  398MOL0     H52496   5.069   6.869   3.290  0.3912  1.3528  0.4525
  398MOL0     H52497   5.243   6.810   3.286  2.3384  2.8474 -2.7467
  398MOL0     H52498   5.074   6.564   2.954 -1.1988  2.8864  0.1763
  398MOL0     H52499   4.981   6.341   3.022  1.5277  0.5271 -1.2831
  398MOL0     H52500   4.850   5.998   3.008  0.3193 -0.9972  0.3173
  398MOL0     H52501   4.690   5.814   3.002 -0.3946  1.3362 -0.3171
  398MOL0     H52502   4.465   5.709   3.420 -1.9296 -2.0256 -2.1492
  398MOL0     H52503   4.639   5.680   3.454 -0.9180  0.4936  0.7773
  398MOL0     H52504   4.603   5.471   3.311  1.3467 -0.1522  1.4290
  398MOL0     H52505   4.432   5.482   3.341  0.7708 -2.2503  0.5704
  398MOL0     H52506   4.623   5.502   3.566 -0.0453 -1.7249  2.5198
  398MOL0     H52507   4.523   5.349   3.518 -3.7975 -0.0188 -5.7922
  398MOL0     H52508   4.412   5.604   3.623  0.5362 -0.0218 -0.4594
  398MOL0     H52509   4.322   5.481   3.542 -0.4311  0.1742 -0.9424
  398MOL0     H52510   4.299   5.468   3.790  1.5275  0.0018  3.2114
  398MOL0     H52511   4.474   5.458   3.809 -0.0403  2.2913 -0.9139
  398MOL0     H52512   4.483   5.229   3.767 -0.3877 -0.3618 -2.8866
  398MOL0     H52513   4.336   5.228   3.664 -1.8218 -2.4190  1.2559
  398MOL0     H52514   4.346   5.291   3.960 -0.3541  0.6770 -0.0129
  398MOL0     H52515   4.201   5.277   3.865 -1.1326 -1.0414 -0.7502
  398MOL0     H52516   4.243   5.072   4.001  0.9418 -2.4496 -0.1456
  398MOL0     H52517   4.395   5.048   3.932 -1.2395 -1.8597  2.3139
  398MOL0     H52518   4.613   5.897   3.429  2.5013  0.0600  1.6640
  398MOL0     H52519   4.754   6.084   3.405 -0.9250 -0.8532  0.3122
  398MOL0     H52520   4.977   6.478   3.437 -1.3374  1.6228  0.5909
  398MOL0     H52521   5.033   6.684   3.374 -1.5345 -1.2088  0.5721
  398MOL0     H52522   4.587   6.302   3.244  0.9696  2.2732 -1.1805
  398MOL0     H52523   4.473   6.092   3.184 -2.6371 -1.0391 -0.0011
  398MOL0     H52524   4.119   5.879   2.896 -0.6199 -0.4268 -2.2000
  398MOL0     H52525   4.042   5.669   2.810  0.1917  0.4330  1.3953
  398MOL0     H52526   4.010   5.544   2.571 -2.1536  1.1222  1.9872
  398MOL0     H52527   3.981   5.471   2.738  0.9702 -0.2777  0.8479
  398MOL0     H52528   4.088   5.329   2.495  0.0111 -1.8243 -0.2294
  398MOL0     H52529   4.035   5.244   2.642  2.2202 -0.1847 -1.1716
  398MOL0     H52530   3.821   5.409   2.544  2.8337  2.3314 -3.8528
  398MOL0     H52531   3.819   5.233   2.585 -0.1245 -1.7915 -1.4744
  398MOL0     H52532   3.765   5.315   2.339  0.8994  1.4438 -0.3912
  398MOL0     H52533   3.943   5.320   2.323  0.2965 -0.1804  0.9714
  398MOL0     H52534   3.921   4.912   2.345 -2.4188 -0.5082 -3.9695
  398MOL0     H52535   4.434   5.546   2.698 -0.9464 -2.2490  3.9191
  398MOL0     H52536   4.519   5.789   2.759  0.8369  1.1218  2.8470
  399MOL0     O52537  10.575   6.380   6.965  0.1289  0.2326  0.2067
  399MOL0     C52538  10.469   6.393   7.015  0.4225  0.3222 -0.1095
  399MOL0     O52539  10.401   6.498   7.013  0.0842  1.1657  0.2523
  399MOL0     C52540  10.447   6.606   6.937 -0.7037 -0.2490 -0.7074
  399MOL0     C52541  10.487   6.730   6.994 -0.8440  0.2138 -0.4529
  399MOL0     C52542  10.516   6.846   6.913 -0.4529  0.3181  0.6456
  399MOL0     C52543  10.504   6.843   6.772  0.5819 -0.2622 -0.3627
  399MOL0     O52544  10.529   6.950   6.695 -0.5159  0.9508  0.5331
  399MOL0     C52545  10.524   6.941   6.554 -0.2855  0.3601 -0.8173
  399MOL0     C52546  10.529   7.085   6.497 -0.2050  0.1005  0.3602
  399MOL0     C52547  10.514   7.071   6.339  0.7491 -0.9461 -0.1536
  399MOL0     C52548  10.533   7.206   6.265 -0.5555  0.2010  0.1584
  399MOL0     C52549  10.674   7.245   6.263 -0.2117  0.6414 -0.6458
  399MOL0     C52550  10.674   7.378   6.192 -0.7369  0.5571  0.4442
  399MOL0     C52551  10.812   7.444   6.195 -1.3278  0.0535 -0.1972
  399MOL0     C52552  10.919   7.366   6.119 -0.5243  0.5219  0.7404
  399MOL0     N52553  11.042   7.431   6.070  0.7972  0.6086 -0.7651
  399MOL0     C52554  11.042   7.491   5.947 -0.0224  0.4973 -0.5263
  399MOL0     C52555  11.169   7.520   5.921  1.2526  0.2976  0.1423
  399MOL0     C52556  11.219   7.604   5.809  0.4927 -0.0040 -0.6373
  399MOL0     C52557  11.152   7.739   5.839  0.1496 -0.4192  0.3221
  399MOL0     C52558  11.244   7.830   5.931  0.2557 -0.5007 -0.5018
  399MOL0     C52559  11.175   7.956   5.964 -0.6630  0.7297  0.2270
  399MOL0     O52560  11.050   7.939   6.036 -0.0113 -0.4593 -0.8597
  399MOL0     C52561  11.050   7.939   6.179  0.2008 -0.6021  0.2284
  399MOL0     C52562  10.934   7.903   6.243 -0.4884  0.1222 -0.0123
  399MOL0     C52563  10.921   7.909   6.381  0.1094  0.2963 -0.9063
  399MOL0     C52564  11.028   7.957   6.464  0.1251 -0.6481  0.7631
  399MOL0     C52565  11.008   7.993   6.601  0.0276  0.5642 -0.8590
  399MOL0     O52566  10.879   7.982   6.651  0.0689 -0.8586  0.2470
  399MOL0     C52567  10.846   8.029   6.771 -0.9817  0.7596  0.6377
  399MOL0     C52568  10.918   8.120   6.856 -0.3436 -0.0082  0.7315
  399MOL0     C52569  10.856   8.174   6.967  0.1705  0.2675  0.0272
  399MOL0     C52570  10.721   8.144   6.998  0.4800 -0.4933 -0.5542
  399MOL0     O52571  10.653   8.199   7.111  0.6340 -0.3156  0.0876
  399MOL0     C52572  10.509   8.196   7.120 -0.0286  0.2263  0.4529
  399MOL0     C52573  10.437   8.264   6.996  0.1304 -0.3733  0.2683
  399MOL0     C52574  10.468   8.419   6.994 -1.3708  0.4261 -0.3793
  399MOL0     C52575  10.351   8.481   6.924 -0.1409 -0.4451  0.4024
  399MOL0     C52576  10.376   8.633   6.898  1.6305 -0.5152  0.3106
  399MOL0     C52577  10.392   8.724   7.015  0.0031 -0.2533  0.5198
  399MOL0     C52578  10.420   8.862   6.959  0.3329  0.2224  0.0816
  399MOL0     C52579  10.490   8.970   7.054  0.2653 -0.3188 -0.5104
  399MOL0    Cl52580  10.657   8.960   7.088 -0.2262  0.5136 -0.3265
  399MOL0     C52581  10.654   8.044   6.923  0.5738 -1.0806 -0.5786
  399MOL0     C52582  10.709   8.010   6.795 -1.1916 -0.4030 -0.4831
  399MOL0     O52583  11.107   8.028   6.663 -0.1757  0.5214 -0.3710
  399MOL0     C52584  11.148   7.973   6.398 -0.3150 -0.5769 -0.0658
  399MOL0     C52585  11.168   7.950   6.259  1.0936 -1.0975 -0.3621
  399MOL0     N52586  11.238   7.481   6.026 -0.8313 -0.4128 -0.0921
  399MOL0     N52587  11.172   7.418   6.107  0.0866  0.1509 -0.3702
  399MOL0     C52588  10.457   6.716   6.725  0.0104 -0.2463 -0.4488
  399MOL0     C52589  10.436   6.606   6.798  0.5201  0.6301  0.4605
  399MOL0     C52590  10.411   6.271   7.093  0.2756  0.0365  0.2143
  399MOL0     C52591  10.320   6.281   7.200 -0.5762  0.8279  0.4844
  399MOL0     C52592  10.281   6.163   7.270 -0.2512 -0.2577 -0.1315
  399MOL0     C52593  10.309   6.040   7.217 -0.5070 -0.9259  0.5986
  399MOL0     O52594  10.277   5.919   7.273 -0.0319  0.4452  0.0333
  399MOL0     C52595  10.184   5.921   7.376 -0.1016  0.2581  0.6493
  399MOL0     C52596  10.159   5.774   7.422  0.9054  0.5905  0.3731
  399MOL0     C52597  10.074   5.705   7.314  0.5816  0.2449  0.5767
  399MOL0     C52598  10.054   5.553   7.330  0.3168 -0.3888  0.6513
  399MOL0     C52599  10.018   5.528   7.466  0.4181 -0.3470 -0.0094
  399MOL0     C52600   9.965   5.507   7.566  0.8960  0.5446  0.0183
  399MOL0     C52601  10.392   6.026   7.105  0.6539 -0.7647  0.3572
  399MOL0     C52602  10.444   6.141   7.046  0.2604  1.0942  0.1519
  399MOL0     H52603  10.515   6.731   7.098  2.6191 -0.8956 -1.2207
  399MOL0     H52604  10.544   6.937   6.965  1.2264 -0.7436  1.6911
  399MOL0     H52605  10.430   6.891   6.527 -1.0413  0.1484  1.8913
  399MOL0     H52606  10.609   6.880   6.523 -0.5462  1.4666 -4.0523
  399MOL0     H52607  10.617   7.136   6.539  0.7811  0.6799 -2.1912
  399MOL0     H52608  10.442   7.143   6.526  0.4160  1.1142  0.2440
  399MOL0     H52609  10.418   7.028   6.309  0.8818 -2.0785  0.9587
  399MOL0     H52610  10.594   7.000   6.313  0.6171 -1.7033  1.4007
  399MOL0     H52611  10.487   7.203   6.166  0.5887 -1.7691 -0.3568
  399MOL0     H52612  10.484   7.284   6.325 -2.2767  1.4971 -2.6937
  399MOL0     H52613  10.733   7.170   6.211 -2.6152 -2.4005  0.7205
  399MOL0     H52614  10.711   7.251   6.366  1.3716  0.7612 -1.1941
  399MOL0     H52615  10.599   7.450   6.225  0.1529  3.7944 -3.6686
  399MOL0     H52616  10.656   7.365   6.084  0.6606  0.6711  0.1748
  399MOL0     H52617  10.815   7.542   6.146 -0.4658 -0.0818 -0.4320
  399MOL0     H52618  10.864   7.453   6.291 -0.6320 -2.6073 -0.2493
  399MOL0     H52619  10.870   7.315   6.035  0.2111 -2.2193  1.8565
  399MOL0     H52620  10.957   7.281   6.177  2.2612  0.2771 -1.2310
  399MOL0     H52621  10.955   7.528   5.894 -0.5640  2.4753  1.5439
  399MOL0     H52622  11.181   7.548   5.723  3.8250 -2.4786 -0.7217
  399MOL0     H52623  11.328   7.610   5.803  0.5931 -0.1734  0.7119
  399MOL0     H52624  11.053   7.732   5.883 -0.2873  0.3913 -0.4875
  399MOL0     H52625  11.140   7.797   5.747 -1.3996  3.1976  2.5731
  399MOL0     H52626  11.279   7.772   6.017  0.3144  1.3208  0.7476
  399MOL0     H52627  11.329   7.859   5.868 -0.8286  3.9004 -0.2268
  399MOL0     H52628  11.157   8.012   5.871  1.8450 -0.5833 -1.1681
  399MOL0     H52629  11.251   8.019   6.011  1.9038 -1.8267 -0.2358
  399MOL0     H52630  10.843   7.876   6.190 -1.6754 -5.9749  4.0270
  399MOL0     H52631  10.821   7.885   6.416  0.2320  0.5217 -0.3885
  399MOL0     H52632  11.025   8.132   6.852 -0.4593  1.2888  1.1098
  399MOL0     H52633  10.911   8.242   7.031  0.2955 -0.9149  1.2382
  399MOL0     H52634  10.476   8.251   7.209  0.0243 -1.9010  1.8680
  399MOL0     H52635  10.471   8.093   7.130 -0.4900  0.4043  0.5660
  399MOL0     H52636  10.330   8.243   7.007  0.0062 -1.1475 -1.8578
  399MOL0     H52637  10.462   8.212   6.903  0.6544 -0.6633  0.5627
  399MOL0     H52638  10.560   8.437   6.939 -0.0628  1.4675  1.9724
  399MOL0     H52639  10.488   8.463   7.092 -1.8274 -4.4966  2.2314
  399MOL0     H52640  10.344   8.445   6.821  2.2522  1.2426 -0.4627
  399MOL0     H52641  10.261   8.464   6.983  0.2496 -2.1551  0.5488
  399MOL0     H52642  10.287   8.668   6.844  1.9627 -1.2292 -0.7236
  399MOL0     H52643  10.466   8.640   6.837  2.2880  0.5361  1.3544
  399MOL0     H52644  10.463   8.701   7.095 -0.2821 -1.1109  0.5379
  399MOL0     H52645  10.293   8.714   7.061  0.7534 -1.6538  1.9683
  399MOL0     H52646  10.480   8.864   6.868 -2.3511  0.8662 -1.8025
  399MOL0     H52647  10.328   8.912   6.926  0.3332 -0.8376 -1.6215
  399MOL0     H52648  10.432   8.969   7.147 -2.5930  1.7830 -2.1121
  399MOL0     H52649  10.471   9.072   7.019  2.7508  1.1663  1.9938
  399MOL0     H52650  10.556   8.003   6.943 -0.6744  0.5652 -2.8181
  399MOL0     H52651  10.655   7.939   6.733  1.2882 -1.4858 -1.5401
  399MOL0     H52652  11.232   8.005   6.460  1.6298 -0.2015 -2.6817
  399MOL0     H52653  11.272   7.961   6.228  1.1970  2.0493  0.7673
  399MOL0     H52654  10.421   6.713   6.623 -2.3380  3.0029  0.1315
  399MOL0     H52655  10.394   6.516   6.755  0.8431  1.5919 -2.0552
  399MOL0     H52656  10.306   6.381   7.240  0.1731  1.4924 -0.8333
  399MOL0     H52657  10.220   6.174   7.359 -0.0308 -1.7998  0.2347
  399MOL0     H52658  10.103   5.982   7.334  2.3466  2.1311 -1.6698
  399MOL0     H52659  10.215   5.989   7.457 -1.0537  0.6853  0.6697
  399MOL0     H52660  10.251   5.715   7.426 -0.1296 -1.0848  0.5576
  399MOL0     H52661  10.105   5.774   7.518  0.4620 -0.6648  0.1490
  399MOL0     H52662  10.116   5.718   7.214  3.8777  1.7644  1.9972
  399MOL0     H52663   9.969   5.736   7.322  0.7216  1.8900 -2.5409
  399MOL0     H52664   9.974   5.522   7.263  1.2675 -0.3757 -0.5267
  399MOL0     H52665  10.139   5.490   7.302  0.2280  0.9597 -3.2640
  399MOL0     H52666   9.920   5.499   7.664  0.0128  3.1215 -0.0901
  399MOL0     H52667  10.406   5.927   7.065  2.4635 -0.9239  1.3045
  399MOL0     H52668  10.504   6.125   6.957  2.0686  0.9970  1.3364
  400MOL0     O52669   5.793   1.302   6.935 -0.4916  0.2314 -0.5726
  400MOL0     C52670   5.742   1.313   6.821  0.3261  0.5043 -0.9775
  400MOL0     O52671   5.699   1.214   6.736 -0.3493 -0.2901 -0.3056
  400MOL0     C52672   5.708   1.086   6.770  0.2573 -0.1466  0.2002
  400MOL0     C52673   5.835   1.033   6.813 -0.1535 -0.0910 -0.8530
  400MOL0     C52674   5.856   0.899   6.851  0.7019 -0.5027  0.5466
  400MOL0     C52675   5.744   0.806   6.852  0.0584  0.5001 -0.1025
  400MOL0     O52676   5.749   0.669   6.900 -0.6886 -0.8953 -0.3305
  400MOL0     C52677   5.809   0.652   7.033 -0.1214 -0.0328  1.4713
  400MOL0     C52678   5.706   0.597   7.123  0.6976 -0.9859 -0.2502
  400MOL0     C52679   5.622   0.701   7.191  0.0650  0.2822  1.1970
  400MOL0     C52680   5.483   0.642   7.226 -0.1775 -0.8618  0.1458
  400MOL0     C52681   5.394   0.554   7.143 -0.1847 -0.0439 -1.2879
  400MOL0     C52682   5.342   0.632   7.020  0.6067  0.7589 -1.1161
  400MOL0     C52683   5.217   0.582   6.947 -0.1950  0.1802 -0.1397
  400MOL0     C52684   5.084   0.652   6.990 -0.2668 -0.1492  0.2579
  400MOL0     N52685   4.974   0.619   6.906  0.0285  0.1663  0.3210
  400MOL0     C52686   4.898   0.506   6.906  0.5521  0.6525  0.3822
  400MOL0     C52687   4.807   0.525   6.804 -0.1096  0.4073  0.8323
  400MOL0     C52688   4.689   0.447   6.762  0.2996 -0.3027 -0.7731
  400MOL0     C52689   4.717   0.371   6.629 -0.1935  0.4376 -0.2396
  400MOL0     C52690   4.835   0.279   6.625 -0.2394 -0.0490 -0.6923
  400MOL0     C52691   4.837   0.155   6.718  0.4103 -0.1336 -0.4717
  400MOL0     O52692   4.960   0.087   6.715  0.1570 -0.1482  0.2842
  400MOL0     C52693   4.974   0.008   6.603  0.6979  0.2196 -0.2056
  400MOL0     C52694   4.911  -0.112   6.589  0.7980  0.6269  0.6171
  400MOL0     C52695   4.928  -0.182   6.474 -0.3501  0.5741  0.1258
  400MOL0     C52696   5.020  -0.147   6.366  1.3591 -0.1938 -0.6155
  400MOL0     C52697   5.057  -0.231   6.259  0.6061 -0.2133  1.4699
  400MOL0     O52698   5.146  -0.177   6.163 -0.1850 -0.2804 -0.6939
  400MOL0     C52699   5.188  -0.252   6.059  0.0472  0.6827  0.4621
  400MOL0     C52700   5.205  -0.185   5.937  0.1707 -0.4012 -1.4516
  400MOL0     C52701   5.255  -0.256   5.828 -0.0245 -0.5292 -0.8526
  400MOL0     C52702   5.291  -0.389   5.836 -0.2536 -0.1290 -1.0371
  400MOL0     O52703   5.334  -0.442   5.720 -0.2388 -0.4841 -1.0239
  400MOL0     C52704   5.312  -0.384   5.583 -0.1067  0.1857 -0.7957
  400MOL0     C52705   5.306  -0.501   5.489 -0.7998 -0.4247  0.4407
  400MOL0     C52706   5.331  -0.462   5.338  0.1573 -0.9215 -0.2368
  400MOL0     C52707   5.476  -0.471   5.284  0.4541  0.5933  0.3468
  400MOL0     C52708   5.501  -0.448   5.130  0.0696  0.3024 -0.7375
  400MOL0     C52709   5.651  -0.478   5.090 -1.5307  0.1636  0.0180
  400MOL0     C52710   5.669  -0.489   4.936  0.4295 -1.0238 -1.1127
  400MOL0     C52711   5.813  -0.522   4.913 -1.2391 -0.4994  0.1983
  400MOL0    Cl52712   5.925  -0.387   4.924 -0.2914  0.0038 -0.4277
  400MOL0     C52713   5.284  -0.454   5.958  0.4970  0.8226 -0.4843
  400MOL0     C52714   5.226  -0.389   6.068 -0.5350 -0.0313  0.5725
  400MOL0     O52715   5.010  -0.347   6.256  0.3721 -0.4543  0.6358
  400MOL0     C52716   5.085  -0.026   6.394  0.0716 -1.2126  0.3235
  400MOL0     C52717   5.057   0.059   6.496  0.4284 -0.3230  0.4380
  400MOL0     N52718   4.837   0.640   6.737 -0.3270  1.5626 -0.2273
  400MOL0     N52719   4.934   0.692   6.798 -0.7503  0.6851  0.3135
  400MOL0     C52720   5.616   0.859   6.821  0.2375 -0.5006 -0.0599
  400MOL0     C52721   5.607   0.999   6.774  0.2033 -0.6711  0.1354
  400MOL0     C52722   5.737   1.441   6.755 -0.8329  0.1601  0.6097
  400MOL0     C52723   5.684   1.455   6.619  0.5325 -0.2119  0.5432
  400MOL0     C52724   5.666   1.578   6.556 -0.4171  0.5263  0.5348
  400MOL0     C52725   5.699   1.703   6.622  0.5875  0.9663 -0.1453
  400MOL0     O52726   5.670   1.825   6.568  0.5108  0.0836  0.3788
  400MOL0     C52727   5.680   1.948   6.643 -0.0248 -0.4688  0.5381
  400MOL0     C52728   5.624   2.071   6.569 -0.8923  0.1666 -0.4239
  400MOL0     C52729   5.502   2.038   6.477  0.9888 -0.0626 -0.3005
  400MOL0     C52730   5.448   2.156   6.398 -0.4657  0.3331  0.0030
  400MOL0     C52731   5.473   2.278   6.466  0.1211  0.4479 -0.9036
  400MOL0     C52732   5.502   2.382   6.518 -0.7459 -0.2154 -1.0607
  400MOL0     C52733   5.768   1.685   6.747 -0.8234 -0.9624 -0.8302
  400MOL0     C52734   5.784   1.565   6.812  1.0411  0.7597 -1.2350
  400MOL0     H52735   5.919   1.101   6.823 -0.0835 -0.2924 -0.0030
  400MOL0     H52736   5.960   0.872   6.868  1.0136 -0.9643 -1.8426
  400MOL0     H52737   5.844   0.745   7.078 -1.7160  0.4493  1.7880
  400MOL0     H52738   5.890   0.578   7.035 -1.1375 -1.1994  3.3161
  400MOL0     H52739   5.766   0.549   7.201 -0.2795 -0.5284  0.8206
  400MOL0     H52740   5.637   0.535   7.065  2.4667 -0.8145 -2.6755
  400MOL0     H52741   5.598   0.773   7.111  2.8076 -0.8465 -0.8084
  400MOL0     H52742   5.672   0.745   7.278  2.4218 -0.0733  0.1049
  400MOL0     H52743   5.495   0.593   7.323 -0.8910 -2.4421 -0.5280
  400MOL0     H52744   5.416   0.728   7.239 -0.2362 -0.2505 -3.3164
  400MOL0     H52745   5.314   0.515   7.207 -0.2928  0.4798 -1.0921
  400MOL0     H52746   5.453   0.470   7.104  1.5244  0.8578 -0.7551
  400MOL0     H52747   5.424   0.644   6.949  1.8315  0.7216  0.2425
  400MOL0     H52748   5.311   0.729   7.059 -1.3023 -1.4215  3.4705
  400MOL0     H52749   5.249   0.605   6.845  1.7725  2.9430  0.9837
  400MOL0     H52750   5.202   0.474   6.951 -4.3420  0.5956  0.1375
  400MOL0     H52751   5.102   0.760   7.002  1.4209 -0.3244 -0.3735
  400MOL0     H52752   5.080   0.608   7.090 -0.7887 -1.9192 -0.5142
  400MOL0     H52753   4.886   0.436   6.987 -2.8861  3.5876  2.7325
  400MOL0     H52754   4.601   0.510   6.754 -1.2827 -2.2034  0.5947
  400MOL0     H52755   4.646   0.380   6.837  0.5591 -0.6783 -0.9529
  400MOL0     H52756   4.729   0.456   6.562 -0.0731  1.9075  1.5792
  400MOL0     H52757   4.640   0.303   6.591  1.5304 -1.6813 -0.1771
  400MOL0     H52758   4.846   0.262   6.518  1.8313  2.2491 -0.9190
  400MOL0     H52759   4.926   0.331   6.655 -2.6572  1.7612  4.9177
  400MOL0     H52760   4.748   0.097   6.694  0.1756 -1.6118  3.3516
  400MOL0     H52761   4.813   0.175   6.822 -0.6999 -0.7051 -0.5994
  400MOL0     H52762   4.852  -0.156   6.669  1.0457 -0.5836  0.1580
  400MOL0     H52763   4.879  -0.275   6.448 -0.2791  0.9949 -1.6193
  400MOL0     H52764   5.192  -0.078   5.931  0.8212 -0.4235 -5.0959
  400MOL0     H52765   5.273  -0.196   5.739 -1.4254  1.6062  0.2263
  400MOL0     H52766   5.399  -0.325   5.555 -0.5953  0.6660 -1.3227
  400MOL0     H52767   5.224  -0.323   5.560  1.6049  2.5724 -1.3391
  400MOL0     H52768   5.209  -0.550   5.497 -0.0627 -2.2701 -1.1682
  400MOL0     H52769   5.379  -0.573   5.527 -1.2197 -1.4168 -0.5748
  400MOL0     H52770   5.306  -0.357   5.318 -0.2247 -0.9974 -0.1800
  400MOL0     H52771   5.264  -0.517   5.271  1.2845  2.9468 -5.1575
  400MOL0     H52772   5.534  -0.389   5.328  0.6986  0.6096  0.0001
  400MOL0     H52773   5.535  -0.553   5.327  0.1343 -1.2385 -2.4744
  400MOL0     H52774   5.477  -0.345   5.103  1.4912  0.7544 -0.3897
  400MOL0     H52775   5.443  -0.526   5.080 -2.1931  0.3623  1.6362
  400MOL0     H52776   5.692  -0.569   5.134  0.8214  1.0983 -0.1011
  400MOL0     H52777   5.717  -0.403   5.134  0.3472 -2.2017  1.4822
  400MOL0     H52778   5.618  -0.568   4.879  2.0027 -1.6104 -1.7912
  400MOL0     H52779   5.641  -0.397   4.883  3.1493  0.4616 -0.1348
  400MOL0     H52780   5.836  -0.573   4.819  0.3475 -1.8670  1.2589
  400MOL0     H52781   5.856  -0.589   4.989  2.9268  1.2964 -0.2988
  400MOL0     H52782   5.333  -0.550   5.970  0.5189  0.5517 -2.4657
  400MOL0     H52783   5.233  -0.435   6.167  0.7706 -0.7997  0.1537
  400MOL0     H52784   5.148   0.030   6.326 -0.3787  3.2219  3.1420
  400MOL0     H52785   5.096   0.159   6.510  0.6452 -0.2276 -0.7127
  400MOL0     H52786   5.524   0.806   6.846  0.9183 -0.4140  2.9708
  400MOL0     H52787   5.514   1.034   6.730  0.8970 -0.6467 -1.3493
  400MOL0     H52788   5.637   1.367   6.576  1.1704  0.0978 -0.8323
  400MOL0     H52789   5.643   1.591   6.450  1.0584  3.5473  0.4589
  400MOL0     H52790   5.784   1.974   6.665 -0.4650  2.9946 -0.8818
  400MOL0     H52791   5.623   1.937   6.736 -0.1580 -3.0308  0.2091
  400MOL0     H52792   5.600   2.144   6.647  0.0568 -0.8878  0.9024
  400MOL0     H52793   5.708   2.113   6.513  0.5673  1.4866  2.5686
  400MOL0     H52794   5.411   2.001   6.527  0.8551  2.4234  1.5006
  400MOL0     H52795   5.532   1.962   6.404 -1.8624 -1.8947  0.2501
  400MOL0     H52796   5.486   2.147   6.296  0.7159 -0.8887  0.5281
  400MOL0     H52797   5.339   2.157   6.388 -0.4665  2.6028 -0.2165
  400MOL0     H52798   5.510   2.465   6.585 -3.1250 -3.8779  4.4939
  400MOL0     H52799   5.788   1.775   6.805 -1.1309 -1.3925 -0.0449
  400MOL0     H52800   5.829   1.555   6.910  0.4806  1.9389 -0.8386
  401MOL0     O52801   7.943  11.031   3.836 -0.2141  0.5761  0.1663
  401MOL0     C52802   7.858  10.950   3.872  0.3073  0.6201 -0.2738
  401MOL0     O52803   7.780  10.877   3.796 -0.5475  0.1562  0.3801
  401MOL0     C52804   7.793  10.896   3.658  0.4036  0.8955 -0.2102
  401MOL0     C52805   7.908  10.877   3.586 -0.0296  0.8945  0.9041
  401MOL0     C52806   7.899  10.903   3.452  0.1372  0.3568  0.4631
  401MOL0     C52807   7.791  10.961   3.390 -0.3154 -0.1259  1.6058
  401MOL0     O52808   7.827  11.015   3.270  0.0236  0.6380 -0.0205
  401MOL0     C52809   7.718  11.077   3.190 -0.0948  1.0705 -0.3952
  401MOL0     C52810   7.773  11.083   3.047 -0.2187  0.3884 -0.5669
  401MOL0     C52811   7.679  11.158   2.961  0.6767  0.1095  1.2282
  401MOL0     C52812   7.726  11.192   2.819 -0.0644 -0.4527 -0.0626
  401MOL0     C52813   7.713  11.068   2.728  0.1599  0.3280 -0.2675
  401MOL0     C52814   7.769  11.078   2.585  1.0919  0.4909  0.4290
  401MOL0     C52815   7.657  11.112   2.485  0.3965  0.5869 -0.9446
  401MOL0     C52816   7.701  11.096   2.339 -0.0362 -0.0924 -0.1037
  401MOL0     N52817   7.586  11.086   2.251  0.6534  0.3940 -0.2141
  401MOL0     C52818   7.494  10.977   2.237 -0.1603  0.5315 -0.6875
  401MOL0     C52819   7.410  11.019   2.144  0.6103  0.5889  0.9544
  401MOL0     C52820   7.293  10.946   2.103  0.3272  1.1410  0.2812
  401MOL0     C52821   7.334  10.803   2.060 -0.0331 -0.7431 -0.4030
  401MOL0     C52822   7.413  10.807   1.929 -0.1176 -0.3063  0.1128
  401MOL0     C52823   7.358  10.715   1.823 -0.9450 -0.0015  0.1508
  401MOL0     O52824   7.235  10.750   1.770 -0.1066  0.0753 -0.0615
  401MOL0     C52825   7.231  10.863   1.688  0.6810  0.3343  0.2345
  401MOL0     C52826   7.105  10.920   1.680  0.7204 -0.0596 -0.7308
  401MOL0     C52827   7.081  11.025   1.585  0.2541  0.8860 -0.9330
  401MOL0     C52828   7.186  11.063   1.493 -0.3287  0.4402 -0.5815
  401MOL0     C52829   7.174  11.174   1.381 -0.4818  0.1635  0.7599
  401MOL0     O52830   7.067  11.259   1.398  0.1662 -0.4177 -0.1652
  401MOL0     C52831   7.089  11.392   1.359  0.4062  0.2873 -0.4593
  401MOL0     C52832   7.029  11.440   1.239 -0.6353  0.4762 -0.7872
  401MOL0     C52833   7.053  11.571   1.207 -0.2922 -0.0802 -0.2965
  401MOL0     C52834   7.147  11.651   1.276 -0.3123 -0.8826  0.7663
  401MOL0     O52835   7.177  11.778   1.232 -0.3663 -0.3377  0.2147
  401MOL0     C52836   7.261  11.779   1.115  0.1724 -0.4638 -0.1587
  401MOL0     C52837   7.195  11.886   1.022  0.2787  1.2281  0.5348
  401MOL0     C52838   7.297  11.983   0.976  0.0854 -0.0557 -0.2810
  401MOL0     C52839   7.232  12.071   0.871 -0.1639 -0.0444 -0.8037
  401MOL0     C52840   7.316  12.199   0.853  0.8584 -0.7349  0.6769
  401MOL0     C52841   7.236  12.305   0.781  0.0781 -1.0616  0.2029
  401MOL0     C52842   7.308  12.425   0.716 -0.3241  1.0944 -0.6877
  401MOL0     C52843   7.246  12.487   0.597 -0.5619  0.1691 -0.9416
  401MOL0    Cl52844   7.357  12.627   0.546 -0.0403  0.5765 -0.4621
  401MOL0     C52845   7.223  11.593   1.375 -0.0236 -0.0139 -0.7351
  401MOL0     C52846   7.197  11.462   1.421  0.5559  0.1407 -0.2786
  401MOL0     O52847   7.261  11.175   1.292 -0.1755 -0.9875 -0.4633
  401MOL0     C52848   7.311  10.997   1.498 -0.6146 -0.4443 -0.4215
  401MOL0     C52849   7.336  10.904   1.600  0.0714  0.5054 -0.5902
  401MOL0     N52850   7.458  11.137   2.093 -0.2558  0.8429 -0.5560
  401MOL0     N52851   7.565  11.176   2.155  0.5242 -0.3195  0.8782
  401MOL0     C52852   7.665  10.966   3.461  0.4643  0.6839  1.0526
  401MOL0     C52853   7.671  10.932   3.596 -0.4116 -0.0281 -0.3730
  401MOL0     C52854   7.833  10.954   4.018  0.1675  0.4301  0.0375
  401MOL0     C52855   7.917  11.014   4.108 -0.0057  0.5154 -0.5854
  401MOL0     C52856   7.901  11.024   4.246 -0.3808  0.8392  0.1839
  401MOL0     C52857   7.785  10.972   4.309  0.2646  0.7786 -0.3788
  401MOL0     O52858   7.745  10.984   4.434  0.3663 -0.0075  0.4775
  401MOL0     C52859   7.809  11.081   4.516 -0.3028 -0.2561 -0.0473
  401MOL0     C52860   7.741  11.086   4.660  0.7758  0.2442  0.3536
  401MOL0     C52861   7.620  11.169   4.648  0.2478 -0.5863 -0.1402
  401MOL0     C52862   7.530  11.135   4.760 -0.5546 -0.1837 -0.6055
  401MOL0     C52863   7.410  11.221   4.755  0.4540  0.5828 -0.3847
  401MOL0     C52864   7.305  11.281   4.748  0.6398  0.6913 -0.6504
  401MOL0     C52865   7.693  10.910   4.223 -0.3007 -0.1421 -0.1122
  401MOL0     C52866   7.714  10.900   4.084 -0.1320 -0.4714  0.3210
  401MOL0     H52867   8.000  10.840   3.630 -0.8319 -0.5126  1.4631
  401MOL0     H52868   7.986  10.895   3.388 -0.4578  0.1659 -0.3362
  401MOL0     H52869   7.689  11.173   3.233  0.8418  2.2826 -2.2920
  401MOL0     H52870   7.629  11.016   3.208 -1.0827  3.1497  2.3493
  401MOL0     H52871   7.787  10.984   3.002  0.3651  0.5333 -0.7011
  401MOL0     H52872   7.872  11.129   3.043 -0.1961  0.2987 -1.1628
  401MOL0     H52873   7.678  11.255   3.012  4.1684  2.0519 -1.8731
  401MOL0     H52874   7.580  11.114   2.946  1.2722 -0.6487 -0.7936
  401MOL0     H52875   7.661  11.273   2.787 -2.8279 -2.5331 -0.0829
  401MOL0     H52876   7.829  11.228   2.811 -0.6254  0.7816 -3.2018
  401MOL0     H52877   7.609  11.036   2.737  1.1482 -3.4224 -0.4740
  401MOL0     H52878   7.769  10.985   2.774  0.6516  1.3757  1.0974
  401MOL0     H52879   7.819  10.985   2.557  0.9326 -0.1912  2.3128
  401MOL0     H52880   7.849  11.153   2.581  1.1139  0.4316 -1.8760
  401MOL0     H52881   7.578  11.039   2.502  2.0970 -1.0450  0.2465
  401MOL0     H52882   7.617  11.214   2.496  0.8385  0.6119  0.5355
  401MOL0     H52883   7.762  11.006   2.326  0.8270  0.7509 -2.3530
  401MOL0     H52884   7.766  11.173   2.296 -3.4746  2.0402 -1.9423
  401MOL0     H52885   7.468  10.888   2.294 -3.7125 -0.9759 -4.1895
  401MOL0     H52886   7.230  10.995   2.028 -3.8919 -2.2865  1.1790
  401MOL0     H52887   7.239  10.938   2.198  2.9717 -0.4936  1.7860
  401MOL0     H52888   7.243  10.742   2.063 -1.1705  0.9097 -0.0376
  401MOL0     H52889   7.390  10.748   2.137 -1.2645 -5.5357 -2.5928
  401MOL0     H52890   7.409  10.910   1.891 -0.9240 -0.3612  0.0398
  401MOL0     H52891   7.515  10.773   1.951  0.3646 -1.4382 -3.2881
  401MOL0     H52892   7.348  10.616   1.867  2.6585 -0.2013  0.8013
  401MOL0     H52893   7.436  10.703   1.747  0.2845 -0.7953  1.4854
  401MOL0     H52894   7.022  10.888   1.743  0.1604 -0.4861 -1.6653
  401MOL0     H52895   6.981  11.067   1.593 -0.0255  0.0769 -0.0089
  401MOL0     H52896   6.947  11.387   1.191  0.4677 -0.9340 -1.1957
  401MOL0     H52897   6.992  11.596   1.120 -1.8326 -4.7665 -0.8158
  401MOL0     H52898   7.277  11.679   1.074 -0.6512 -0.6630 -0.0193
  401MOL0     H52899   7.359  11.814   1.149  0.4798  0.1958 -1.6595
  401MOL0     H52900   7.103  11.922   1.069  1.7027 -0.3890  5.0544
  401MOL0     H52901   7.161  11.832   0.933  0.0007  0.2014  1.2510
  401MOL0     H52902   7.382  11.936   0.926  1.2412  0.7161  0.8684
  401MOL0     H52903   7.330  12.049   1.057  0.9081 -1.0865  0.2527
  401MOL0     H52904   7.226  12.019   0.775  1.5767  0.8345 -1.4266
  401MOL0     H52905   7.126  12.091   0.888 -0.7945 -0.4210 -3.8225
  401MOL0     H52906   7.413  12.186   0.804  1.7187 -0.3936  2.2328
  401MOL0     H52907   7.334  12.236   0.955 -1.5189  0.2155  0.8055
  401MOL0     H52908   7.157  12.345   0.845 -1.4470  2.7907 -3.5422
  401MOL0     H52909   7.172  12.259   0.705 -2.1982  0.8848  0.7898
  401MOL0     H52910   7.319  12.496   0.798 -2.1186 -1.6655  2.1768
  401MOL0     H52911   7.411  12.406   0.685 -0.4858  0.7878 -1.0418
  401MOL0     H52912   7.146  12.530   0.609 -0.7216 -0.2005 -0.9214
  401MOL0     H52913   7.237  12.415   0.515 -1.8953  2.3077 -2.7929
  401MOL0     H52914   7.284  11.662   1.433 -1.3793  0.8588 -0.3115
  401MOL0     H52915   7.231  11.431   1.519 -3.6417 -1.2782  0.9706
  401MOL0     H52916   7.392  11.035   1.437  0.6312 -4.1064 -1.3463
  401MOL0     H52917   7.425  10.843   1.587 -0.0743  0.4784 -1.5664
  401MOL0     H52918   7.575  11.014   3.424 -0.3359  0.1010  2.1694
  401MOL0     H52919   7.579  10.944   3.652  0.3934  0.3636  0.8974
  401MOL0     H52920   8.004  11.059   4.059 -1.3840  0.8974 -2.8490
  401MOL0     H52921   7.972  11.067   4.316  0.1297 -1.0809  0.9357
  401MOL0     H52922   7.801  11.185   4.482 -0.1161  0.3091  1.5539
  401MOL0     H52923   7.910  11.041   4.517 -0.2754 -0.3429 -2.2086
  401MOL0     H52924   7.717  10.984   4.690  2.5987 -2.0086 -4.7863
  401MOL0     H52925   7.808  11.134   4.732  0.1396  3.4551 -0.9940
  401MOL0     H52926   7.568  11.138   4.556  0.6925 -2.3260  0.1619
  401MOL0     H52927   7.641  11.276   4.646  0.4944 -0.6318  0.0280
  401MOL0     H52928   7.493  11.033   4.753  0.7941 -0.5843 -3.5029
  401MOL0     H52929   7.576  11.145   4.859 -1.1049  1.0328 -0.4500
  401MOL0     H52930   7.218  11.343   4.751  1.5165  2.2169 -3.6500
  401MOL0     H52931   7.610  10.876   4.284  0.9494  3.0420  3.8263
  401MOL0     H52932   7.648  10.832   4.030 -1.1598 -0.7637  1.8630
  402MOL0     O52933   0.920   3.310   8.182  0.0801  0.2759 -0.9590
  402MOL0     C52934   0.948   3.417   8.122 -0.4913 -0.2242  0.9617
  402MOL0     O52935   1.011   3.431   7.994 -0.2302  0.1451  0.4820
  402MOL0     C52936   1.052   3.325   7.908  1.0535  0.3797 -0.3189
  402MOL0     C52937   1.029   3.188   7.937  0.1022 -0.2243 -0.5541
  402MOL0     C52938   1.081   3.095   7.844  0.7953  0.4737 -0.5896
  402MOL0     C52939   1.150   3.132   7.723 -0.0189 -0.0981  0.8302
  402MOL0     O52940   1.192   3.053   7.622  0.1387  0.3322 -0.0237
  402MOL0     C52941   1.183   2.909   7.626 -0.7061  0.3347 -0.3228
  402MOL0     C52942   1.068   2.842   7.544 -0.8749  0.3452 -0.0441
  402MOL0     C52943   1.054   2.894   7.393  1.3672  0.1148  1.1421
  402MOL0     C52944   0.935   2.836   7.311 -0.6912  0.8460  0.1795
  402MOL0     C52945   0.961   2.699   7.259  0.1064  0.1128  0.3374
  402MOL0     C52946   0.852   2.661   7.153 -0.2951 -0.0824 -0.8122
  402MOL0     C52947   0.870   2.528   7.084  0.2304  0.4080 -0.6779
  402MOL0     C52948   0.829   2.416   7.180 -0.1364 -0.1765  0.5492
  402MOL0     N52949   0.897   2.292   7.146  0.2696 -0.4944  0.6916
  402MOL0     C52950   1.013   2.246   7.200 -0.6276 -0.2643 -0.5599
  402MOL0     C52951   1.035   2.127   7.141  0.3476 -0.3693  0.7289
  402MOL0     C52952   1.144   2.026   7.177  0.2205 -0.2928  0.0003
  402MOL0     C52953   1.171   1.918   7.069  0.4283 -0.0588  0.4067
  402MOL0     C52954   1.262   1.813   7.131 -0.2827  0.0801 -0.1371
  402MOL0     C52955   1.312   1.697   7.043  0.1702  0.4373  0.0072
  402MOL0     O52956   1.381   1.610   7.133  0.4538  0.5822  0.4350
  402MOL0     C52957   1.378   1.473   7.092  0.1538 -0.1069  0.3861
  402MOL0     C52958   1.378   1.426   6.959  0.8799  0.0883  0.8240
  402MOL0     C52959   1.407   1.305   6.916 -0.2019  1.0767 -0.1084
  402MOL0     C52960   1.425   1.208   7.018  0.1554  0.7509 -0.5758
  402MOL0     C52961   1.433   1.066   6.979 -0.2450 -0.1384  0.2833
  402MOL0     O52962   1.404   0.977   7.073  0.3566  0.8709 -0.3474
  402MOL0     C52963   1.416   0.845   7.045  0.4078  0.5632  0.3656
  402MOL0     C52964   1.529   0.768   7.051  0.1381 -0.3660  1.1668
  402MOL0     C52965   1.535   0.637   7.014  0.2659 -0.0197 -0.0479
  402MOL0     C52966   1.430   0.569   6.970  0.3956  0.0942 -0.0263
  402MOL0     O52967   1.438   0.436   6.942 -0.2180  0.5335  0.3515
  402MOL0     C52968   1.335   0.344   6.907  0.7442  0.0264 -0.2821
  402MOL0     C52969   1.396   0.203   6.910 -1.0360 -0.6927  0.3591
  402MOL0     C52970   1.444   0.152   7.047 -0.3519  0.7653 -0.0377
  402MOL0     C52971   1.338   0.120   7.149  0.6557 -0.2558  1.0097
  402MOL0     C52972   1.410   0.084   7.269  0.3714  0.4118 -1.5116
  402MOL0     C52973   1.305   0.049   7.391 -0.2775  0.0876  0.7441
  402MOL0     C52974   1.217  -0.073   7.375  1.0449 -1.5624 -0.1830
  402MOL0     C52975   1.100  -0.065   7.485  0.0361  0.7164  0.0834
  402MOL0    Cl52976   0.966  -0.191   7.433  0.0182 -0.4012  0.2144
  402MOL0     C52977   1.312   0.648   6.945 -0.0304 -0.5853  0.2387
  402MOL0     C52978   1.307   0.780   6.989  0.3719 -1.0393 -0.4922
  402MOL0     O52979   1.482   1.037   6.865 -0.0609 -0.0563 -0.8606
  402MOL0     C52980   1.417   1.245   7.153  0.0096 -0.3034 -0.1832
  402MOL0     C52981   1.399   1.377   7.189 -0.8223 -0.4118  0.4788
  402MOL0     N52982   0.940   2.104   7.043  0.3932  0.5445  0.0262
  402MOL0     N52983   0.856   2.198   7.057  0.0530 -0.2126  0.8069
  402MOL0     C52984   1.161   3.268   7.690  0.8893  0.5686 -0.6498
  402MOL0     C52985   1.121   3.357   7.786  0.3912 -0.5325  0.2539
  402MOL0     C52986   0.914   3.539   8.195  0.3996 -0.7689  0.3148
  402MOL0     C52987   0.839   3.535   8.318 -0.2959 -0.0946  0.3831
  402MOL0     C52988   0.824   3.661   8.387  0.4960  0.0306 -0.3168
  402MOL0     C52989   0.868   3.787   8.341  0.3443  1.0312  0.9710
  402MOL0     O52990   0.843   3.895   8.423 -0.9765  0.2565  0.3236
  402MOL0     C52991   0.891   4.017   8.376  0.1125  0.6209 -0.2859
  402MOL0     C52992   0.899   4.118   8.491 -0.2294  0.5231  0.4133
  402MOL0     C52993   0.760   4.183   8.528 -0.0882 -1.0528 -0.3747
  402MOL0     C52994   0.787   4.310   8.616 -0.4385  0.0059 -0.0635
  402MOL0     C52995   0.665   4.374   8.678 -0.8229 -0.4677 -0.4576
  402MOL0     C52996   0.576   4.440   8.729  0.1621  0.5078 -0.5798
  402MOL0     C52997   0.942   3.788   8.221  0.1960  0.5112 -0.0410
  402MOL0     C52998   0.959   3.666   8.149 -0.8150 -0.0912  0.3504
  402MOL0     H52999   0.990   3.140   8.027 -1.9693  0.9965 -0.7515
  402MOL0     H53000   1.067   2.988   7.857  1.8519  0.6705  3.1814
  402MOL0     H53001   1.180   2.867   7.727 -1.0201  2.6385  0.6921
  402MOL0     H53002   1.273   2.876   7.575  1.7325  1.5976  2.8302
  402MOL0     H53003   0.977   2.876   7.595  1.1998  5.3048  1.0413
  402MOL0     H53004   1.092   2.736   7.544  0.2167  0.5608 -1.2639
  402MOL0     H53005   1.149   2.873   7.343  1.2002  0.1842  0.7907
  402MOL0     H53006   1.044   3.003   7.399 -1.6421  0.1595 -1.9609
  402MOL0     H53007   0.852   2.828   7.382 -0.1288 -3.7536  0.6184
  402MOL0     H53008   0.927   2.903   7.225 -0.2527 -0.6555 -1.0801
  402MOL0     H53009   0.955   2.634   7.347 -5.0630 -0.8083 -0.3887
  402MOL0     H53010   1.060   2.704   7.212  0.1460 -0.4292  0.3586
  402MOL0     H53011   0.852   2.741   7.078 -0.8614 -2.7028 -3.8088
  402MOL0     H53012   0.760   2.663   7.212  0.9200  2.9860  1.1899
  402MOL0     H53013   0.801   2.531   6.999 -1.6800 -2.0040  0.6548
  402MOL0     H53014   0.974   2.512   7.053  0.7415  0.3195  0.9704
  402MOL0     H53015   0.724   2.392   7.163  0.1258 -0.8669 -0.1803
  402MOL0     H53016   0.840   2.452   7.282 -1.6949  1.1865  0.2677
  402MOL0     H53017   1.065   2.298   7.279  1.4640 -2.7159 -0.2096
  402MOL0     H53018   1.118   1.985   7.275 -1.6124  1.3296  0.2566
  402MOL0     H53019   1.239   2.073   7.205 -2.2594  2.3001  5.4738
  402MOL0     H53020   1.224   1.971   6.989  0.3174  2.1471  1.7359
  402MOL0     H53021   1.076   1.873   7.038 -0.4900  0.6546  2.0499
  402MOL0     H53022   1.354   1.857   7.171  0.6204 -3.0159  1.5041
  402MOL0     H53023   1.224   1.767   7.222  0.6102  0.8141  0.6328
  402MOL0     H53024   1.392   1.731   6.977 -0.5317  1.6987 -0.2283
  402MOL0     H53025   1.237   1.650   6.980 -2.8929  3.3594  1.1480
  402MOL0     H53026   1.355   1.485   6.871 -1.3201  2.2953  2.7043
  402MOL0     H53027   1.431   1.277   6.814 -0.1236  0.2928  0.1145
  402MOL0     H53028   1.627   0.803   7.083  1.5026 -2.9243  0.0519
  402MOL0     H53029   1.629   0.586   7.030  2.0802  1.8312 -3.5351
  402MOL0     H53030   1.295   0.360   6.806  0.0295  1.9886  0.2772
  402MOL0     H53031   1.258   0.358   6.983  2.2017 -0.0039  1.2655
  402MOL0     H53032   1.475   0.191   6.835  1.1652 -1.7618  2.7220
  402MOL0     H53033   1.321   0.137   6.866  2.6363 -2.6771 -3.7107
  402MOL0     H53034   1.512   0.231   7.080  1.7620 -0.4510 -1.2706
  402MOL0     H53035   1.501   0.062   7.025  2.0949  2.3963 -0.8423
  402MOL0     H53036   1.275   0.208   7.163  0.5593  0.3897 -2.4844
  402MOL0     H53037   1.272   0.048   7.098 -0.9356  2.9391 -1.8454
  402MOL0     H53038   1.475   0.166   7.300 -3.2184  3.1357 -0.4818
  402MOL0     H53039   1.479   0.005   7.238 -0.9975 -0.7746 -1.6447
  402MOL0     H53040   1.241   0.136   7.405  1.5840  2.0723 -2.1051
  402MOL0     H53041   1.366   0.032   7.481 -0.3829 -1.8265  0.5008
  402MOL0     H53042   1.172  -0.074   7.275 -1.1865  0.5459  0.7080
  402MOL0     H53043   1.277  -0.164   7.385  2.9830 -0.4468 -1.1701
  402MOL0     H53044   1.047   0.031   7.481  0.8459  1.4361  3.2894
  402MOL0     H53045   1.143  -0.084   7.584 -2.2422 -2.0874  0.6784
  402MOL0     H53046   1.242   0.583   6.893 -0.6902 -1.5807  2.2428
  402MOL0     H53047   1.213   0.834   6.983 -0.1778 -2.1224 -3.7384
  402MOL0     H53048   1.426   1.162   7.222  0.6224 -1.2706 -1.3821
  402MOL0     H53049   1.418   1.414   7.289  1.7653 -0.9243  0.2669
  402MOL0     H53050   1.206   3.287   7.593  2.2551 -2.1211 -0.6219
  402MOL0     H53051   1.135   3.458   7.751  3.3938 -0.5879  1.0292
  402MOL0     H53052   0.794   3.450   8.368 -3.5942  2.4519  2.1485
  402MOL0     H53053   0.770   3.671   8.481  0.9180  2.0927 -0.2351
  402MOL0     H53054   0.804   4.050   8.319 -1.3881 -0.1813  1.4440
  402MOL0     H53055   0.982   4.025   8.316  2.2418 -2.4260  2.1893
  402MOL0     H53056   0.947   4.058   8.569 -1.6557 -3.1214 -1.2787
  402MOL0     H53057   0.968   4.197   8.459  2.1745 -1.2759  0.8848
  402MOL0     H53058   0.692   4.111   8.575  0.0293 -1.8464 -1.3889
  402MOL0     H53059   0.713   4.220   8.437  0.7715 -2.0573 -1.2569
  402MOL0     H53060   0.844   4.276   8.703  0.8245 -0.5875 -1.0879
  402MOL0     H53061   0.850   4.388   8.571 -1.2513  0.7596  0.0840
  402MOL0     H53062   0.500   4.500   8.776 -2.1602 -2.2076 -0.5837
  402MOL0     H53063   0.987   3.877   8.179 -0.4178  0.8705  0.0582
  402MOL0     H53064   1.009   3.679   8.054 -1.0403 -1.0991  0.0749
  403MOL0     O53065   5.026   9.358   8.583 -0.1830  0.0057  0.1671
  403MOL0     C53066   4.970   9.464   8.615 -0.2830  0.7585 -0.3581
  403MOL0     O53067   4.928   9.560   8.527  0.4048 -0.3126  0.0300
  403MOL0     C53068   4.972   9.570   8.398  0.0066  0.6628 -1.2956
  403MOL0     C53069   5.103   9.541   8.356  0.5501 -0.2156 -0.0257
  403MOL0     C53070   5.146   9.579   8.230  0.4880 -0.0209  0.3322
  403MOL0     C53071   5.057   9.643   8.140 -0.5287  0.2123 -0.5957
  403MOL0     O53072   5.092   9.695   8.016  0.3826 -0.4754 -0.0116
  403MOL0     C53073   5.106   9.834   8.008 -0.2353  0.1155 -0.0140
  403MOL0     C53074   5.084   9.887   7.866 -0.0684 -0.4837 -1.4298
  403MOL0     C53075   5.196   9.830   7.777 -1.1923 -0.5274 -0.5386
  403MOL0     C53076   5.185   9.915   7.643  0.2112  0.9357 -0.7005
  403MOL0     C53077   5.287   9.875   7.529  0.2739  0.3503 -1.1377
  403MOL0     C53078   5.309   9.723   7.519 -0.3539  0.5604 -0.5285
  403MOL0     C53079   5.440   9.687   7.442  0.3331  0.4634  0.0478
  403MOL0     C53080   5.428   9.697   7.288 -0.4665 -0.3572 -0.0471
  403MOL0     N53081   5.376   9.820   7.225  0.1946 -0.6080 -0.5488
  403MOL0     C53082   5.425   9.944   7.243 -0.1005 -0.3059  0.2278
  403MOL0     C53083   5.320  10.023   7.215 -0.7689 -0.9405  0.3554
  403MOL0     C53084   5.318  10.170   7.229 -0.7018  0.2561  0.2194
  403MOL0     C53085   5.250  10.211   7.358 -0.4628  0.2256  0.6462
  403MOL0     C53086   5.279  10.360   7.381 -0.3208 -0.1632 -0.2600
  403MOL0     C53087   5.230  10.418   7.515 -0.1464  1.8705 -0.2735
  403MOL0     O53088   5.285  10.546   7.532  0.4706 -0.5797  0.0365
  403MOL0     C53089   5.212  10.615   7.626 -0.1764  0.5429 -0.2307
  403MOL0     C53090   5.145  10.565   7.740  1.2360  0.0347 -0.0622
  403MOL0     C53091   5.058  10.648   7.823  0.7343 -0.0819 -0.2099
  403MOL0     C53092   5.067  10.790   7.803 -0.5944  0.3624  0.7959
  403MOL0     C53093   4.988  10.872   7.898 -0.2198 -0.2563 -0.3184
  403MOL0     O53094   5.008  11.018   7.887 -0.4943  0.4942  0.1982
  403MOL0     C53095   4.939  11.120   7.957  1.2404  0.2206 -0.6381
  403MOL0     C53096   4.961  11.253   7.912  0.6690  0.2406  0.0747
  403MOL0     C53097   4.899  11.365   7.982 -0.4144 -0.6732  0.5366
  403MOL0     C53098   4.820  11.335   8.088 -0.0752  0.0439  0.1276
  403MOL0     O53099   4.770  11.446   8.146 -0.4369  0.2993  0.3054
  403MOL0     C53100   4.633  11.471   8.126  0.2541  0.2056  0.4485
  403MOL0     C53101   4.593  11.456   8.273  0.1415  0.6682  0.1632
  403MOL0     C53102   4.620  11.581   8.355  0.2127 -0.2132 -0.5010
  403MOL0     C53103   4.521  11.694   8.326 -1.0124 -0.4937 -0.2695
  403MOL0     C53104   4.547  11.818   8.414  0.9627  0.3830  0.0581
  403MOL0     C53105   4.437  11.917   8.390 -0.4222 -0.2722  0.3803
  403MOL0     C53106   4.487  12.013   8.285  0.1194 -0.0887  0.3573
  403MOL0     C53107   4.392  12.119   8.243  0.8798 -0.0516 -0.6047
  403MOL0    Cl53108   4.248  12.058   8.139 -0.8361 -0.4009 -0.6251
  403MOL0     C53109   4.803  11.212   8.144  0.8833  0.3893  0.2476
  403MOL0     C53110   4.855  11.102   8.073 -0.5083 -0.3862 -0.3229
  403MOL0     O53111   4.915  10.815   7.973  0.5699  0.1252 -0.0733
  403MOL0     C53112   5.147  10.837   7.694 -0.1809  0.6725 -0.5941
  403MOL0     C53113   5.220  10.754   7.609 -0.3956 -0.3579  0.1097
  403MOL0     N53114   5.216   9.946   7.180  0.1874  0.4931  0.6235
  403MOL0     N53115   5.246   9.821   7.188  0.9285 -0.9744 -0.3866
  403MOL0     C53116   4.922   9.661   8.180  0.2299  0.6171  1.1133
  403MOL0     C53117   4.881   9.628   8.307 -0.5443  0.2229  0.5276
  403MOL0     C53118   4.943   9.478   8.762  0.4509 -0.1652  0.2693
  403MOL0     C53119   4.865   9.572   8.813  0.5503 -1.0239 -0.5516
  403MOL0     C53120   4.836   9.588   8.945 -0.1025  0.5940  0.4256
  403MOL0     C53121   4.905   9.506   9.039  0.6050  0.0170  0.2544
  403MOL0     O53122   4.883   9.512   9.182  0.3870  0.5160  0.6668
  403MOL0     C53123   4.802   9.618   9.243  0.1906  0.4595  0.5993
  403MOL0     C53124   4.658   9.569   9.252  0.3383  0.5020 -0.4243
  403MOL0     C53125   4.581   9.672   9.334  0.3012 -0.1731 -0.9586
  403MOL0     C53126   4.429   9.646   9.306  0.3165  0.6215 -0.3915
  403MOL0     C53127   4.383   9.676   9.170  1.0332  0.7024  0.3871
  403MOL0     C53128   4.367   9.687   9.050  0.3593  0.8569 -0.4817
  403MOL0     C53129   5.000   9.415   8.990  0.7848 -0.0994  0.1673
  403MOL0     C53130   5.017   9.406   8.854 -0.1988 -1.1172  0.5296
  403MOL0     H53131   5.167   9.484   8.424  0.8512 -0.4585 -0.5045
  403MOL0     H53132   5.249   9.565   8.198  0.4043  0.8316 -0.3616
  403MOL0     H53133   5.209   9.848   8.039 -1.5417  0.7936  4.8271
  403MOL0     H53134   5.040   9.889   8.076 -1.2333 -1.2109  0.1286
  403MOL0     H53135   5.080   9.994   7.884 -0.4695 -0.9521  1.9019
  403MOL0     H53136   4.992   9.849   7.819  1.3015 -4.3712 -1.3799
  403MOL0     H53137   5.182   9.722   7.763 -1.5831 -0.8098  1.6702
  403MOL0     H53138   5.290   9.848   7.830 -1.1686 -4.1432  0.9506
  403MOL0     H53139   5.089   9.892   7.596  1.8730 -2.2812 -2.8950
  403MOL0     H53140   5.191  10.022   7.665 -0.0943  0.8319 -0.0956
  403MOL0     H53141   5.380   9.929   7.547  0.2231  0.0073  0.2875
  403MOL0     H53142   5.244   9.918   7.438 -1.2559  0.9278 -0.1828
  403MOL0     H53143   5.220   9.679   7.473  2.0809 -3.7934 -1.7227
  403MOL0     H53144   5.323   9.674   7.616 -2.6952  1.7742  0.5008
  403MOL0     H53145   5.530   9.735   7.480  2.0137 -4.1092  2.5489
  403MOL0     H53146   5.468   9.586   7.470 -2.0637 -0.7840 -1.5982
  403MOL0     H53147   5.362   9.615   7.259 -2.0038  1.1740 -1.0729
  403MOL0     H53148   5.530   9.682   7.253 -0.7339  2.8170 -2.7087
  403MOL0     H53149   5.529   9.969   7.256  0.1501  0.2195 -2.2537
  403MOL0     H53150   5.268  10.203   7.138  4.1285  1.0389 -2.5153
  403MOL0     H53151   5.418  10.213   7.218  1.2378 -3.6972  0.5523
  403MOL0     H53152   5.291  10.156   7.443 -0.7176 -2.7972 -1.0285
  403MOL0     H53153   5.144  10.188   7.343 -0.2061  0.3110 -1.7083
  403MOL0     H53154   5.386  10.381   7.382 -0.6734  1.8368 -0.0661
  403MOL0     H53155   5.248  10.435   7.308  3.3278  1.9119  0.0898
  403MOL0     H53156   5.246  10.345   7.596  1.1221 -0.1272 -2.2058
  403MOL0     H53157   5.124  10.419   7.490  0.2815 -1.5217 -3.0874
  403MOL0     H53158   5.147  10.462   7.774  0.1312  0.1678  0.4687
  403MOL0     H53159   4.994  10.606   7.900 -0.9355  3.0455  0.2768
  403MOL0     H53160   5.021  11.289   7.828  3.9701 -0.7950  1.8227
  403MOL0     H53161   4.906  11.466   7.943  2.8010  0.5133  3.5787
  403MOL0     H53162   4.587  11.387   8.074 -3.8372  0.6531  2.9351
  403MOL0     H53163   4.608  11.567   8.079  1.2874  0.8547  1.1612
  403MOL0     H53164   4.632  11.366   8.320 -1.4692 -0.0522  0.2074
  403MOL0     H53165   4.484  11.445   8.280  0.4118 -2.6808  0.6937
  403MOL0     H53166   4.725  11.614   8.350  0.2183  0.1935  1.4019
  403MOL0     H53167   4.606  11.561   8.462 -1.8512 -1.4327 -0.9631
  403MOL0     H53168   4.536  11.746   8.230 -0.7002 -0.0925 -0.0068
  403MOL0     H53169   4.417  11.661   8.334 -1.4886  1.1682  0.7238
  403MOL0     H53170   4.645  11.851   8.377  1.0021 -1.3086 -1.5107
  403MOL0     H53171   4.553  11.785   8.518  1.7900  2.0804  0.5878
  403MOL0     H53172   4.400  11.978   8.473  0.9842  1.4773 -0.1977
  403MOL0     H53173   4.351  11.865   8.347  0.0447 -0.6920 -0.0688
  403MOL0     H53174   4.577  12.053   8.333  0.5901 -1.1900  0.4282
  403MOL0     H53175   4.525  11.967   8.193  3.0377  4.0429 -0.7889
  403MOL0     H53176   4.444  12.187   8.175 -0.7195  0.3254 -1.5022
  403MOL0     H53177   4.358  12.163   8.337 -0.3820  1.6911 -1.8241
  403MOL0     H53178   4.768  11.188   8.244 -0.8427  0.1756 -0.3634
  403MOL0     H53179   4.847  11.004   8.118 -1.9113 -1.2187 -2.2136
  403MOL0     H53180   5.158  10.944   7.676 -0.0773  1.3640  2.8459
  403MOL0     H53181   5.288  10.792   7.534  0.1452  0.0645  0.8016
  403MOL0     H53182   4.854   9.707   8.109 -1.2594 -0.4603  1.7877
  403MOL0     H53183   4.781   9.659   8.334 -0.1271  3.4644 -1.1701
  403MOL0     H53184   4.806   9.638   8.750  0.8107 -0.2517 -0.0047
  403MOL0     H53185   4.759   9.658   8.977 -1.9859 -1.5161  0.7645
  403MOL0     H53186   4.805   9.713   9.189 -0.9015  1.9200  2.9041
  403MOL0     H53187   4.845   9.636   9.342 -0.2207  0.1817  0.8321
  403MOL0     H53188   4.618   9.547   9.152 -0.6383  0.9277 -0.1278
  403MOL0     H53189   4.665   9.475   9.308  2.3525  1.8305  1.7130
  403MOL0     H53190   4.589   9.777   9.303 -0.8799  0.4086  0.5864
  403MOL0     H53191   4.616   9.662   9.437  0.6902 -2.5474 -1.2770
  403MOL0     H53192   4.399   9.544   9.331 -0.3814  0.5320 -1.5409
  403MOL0     H53193   4.373   9.708   9.377 -1.2963 -2.9440  1.7350
  403MOL0     H53194   4.358   9.692   8.944 -1.2008 -1.4297 -0.5218
  403MOL0     H53195   5.055   9.344   9.050  0.6195  0.2818  0.7741
  403MOL0     H53196   5.085   9.333   8.810 -1.4628 -1.1634 -1.4832
  404MOL0     O53197   5.198   0.160   5.449 -0.1411  1.0025 -0.1283
  404MOL0     C53198   5.308   0.200   5.405  0.2339  0.2771 -0.6723
  404MOL0     O53199   5.326   0.327   5.363 -0.1873  0.2290  0.9001
  404MOL0     C53200   5.247   0.435   5.392 -0.5057 -0.3763  0.9816
  404MOL0     C53201   5.112   0.424   5.406 -0.7151 -0.5957  0.1136
  404MOL0     C53202   5.036   0.548   5.435 -0.0263 -0.1267 -0.4025
  404MOL0     C53203   5.104   0.672   5.455  0.6946 -0.2108 -0.6283
  404MOL0     O53204   5.045   0.781   5.526  0.3623  0.1822 -0.0082
  404MOL0     C53205   5.087   0.910   5.473 -0.5622  1.1404 -1.6106
  404MOL0     C53206   4.991   1.013   5.530  0.5118  0.6427 -0.0180
  404MOL0     C53207   5.033   1.073   5.670 -0.0392  0.2769 -0.4053
  404MOL0     C53208   4.952   1.002   5.778  0.9153  0.2194 -0.1230
  404MOL0     C53209   4.983   1.078   5.909 -0.1316 -0.1238 -0.2008
  404MOL0     C53210   4.869   1.032   5.994 -0.3479 -0.1316  0.4340
  404MOL0     C53211   4.884   1.054   6.146 -0.4585 -0.2624  0.0558
  404MOL0     C53212   4.998   0.978   6.218  0.4001  0.2034 -0.6691
  404MOL0     N53213   5.107   1.049   6.287 -0.0469 -0.5709  0.1965
  404MOL0     C53214   5.114   1.176   6.335  0.3618  0.2271  1.1326
  404MOL0     C53215   5.233   1.175   6.399 -0.4862  0.9808  0.0228
  404MOL0     C53216   5.291   1.302   6.462  0.4266  0.6207 -0.7267
  404MOL0     C53217   5.302   1.420   6.365 -0.7793 -0.1403 -0.0099
  404MOL0     C53218   5.342   1.541   6.451 -0.2943  0.1111 -0.4611
  404MOL0     C53219   5.368   1.660   6.358 -0.0249 -1.1334 -0.2076
  404MOL0     O53220   5.248   1.744   6.354  0.0881 -0.0422 -0.4372
  404MOL0     C53221   5.246   1.858   6.272  0.4841 -0.6905 -1.1576
  404MOL0     C53222   5.341   1.897   6.174 -0.3659 -0.6155 -0.3789
  404MOL0     C53223   5.329   2.030   6.114  0.1847 -0.4056  1.3044
  404MOL0     C53224   5.222   2.112   6.146 -0.1225  0.2835  0.5634
  404MOL0     C53225   5.199   2.240   6.080 -0.5254  0.6099  0.5498
  404MOL0     O53226   5.075   2.295   6.110  0.1130 -1.0982 -0.5883
  404MOL0     C53227   5.011   2.388   6.033  0.4953 -0.8546 -0.8661
  404MOL0     C53228   5.026   2.392   5.894 -0.7250 -0.8977 -0.0020
  404MOL0     C53229   4.965   2.487   5.815 -0.3025  0.6499 -0.7259
  404MOL0     C53230   4.883   2.589   5.876  0.2440  0.1256  0.6967
  404MOL0     O53231   4.812   2.678   5.799 -0.0895 -0.0323 -0.7958
  404MOL0     C53232   4.859   2.709   5.669 -0.0967 -0.3860 -0.0828
  404MOL0     C53233   4.768   2.819   5.614  0.1312  0.2717  0.3358
  404MOL0     C53234   4.641   2.767   5.555  0.8172 -0.0417 -0.8745
  404MOL0     C53235   4.541   2.877   5.519 -1.2119 -0.3798 -0.1252
  404MOL0     C53236   4.413   2.820   5.445  0.2007  0.3318 -0.4155
  404MOL0     C53237   4.304   2.930   5.417  0.6529  0.6026  0.2682
  404MOL0     C53238   4.365   3.053   5.347  0.1329 -0.0668  0.2706
  404MOL0     C53239   4.260   3.147   5.310  0.8489  0.4495 -0.2809
  404MOL0    Cl53240   4.206   3.100   5.144  0.4383  0.2868  0.2293
  404MOL0     C53241   4.857   2.572   6.014  0.2418 -1.3064  0.3640
  404MOL0     C53242   4.938   2.481   6.094  0.1687 -0.1170  0.3273
  404MOL0     O53243   5.279   2.280   5.989  0.0435  0.2760  0.1710
  404MOL0     C53244   5.126   2.066   6.237 -0.8090  0.7472  0.4798
  404MOL0     C53245   5.141   1.944   6.301 -1.6652 -0.5011 -1.9799
  404MOL0     N53246   5.299   1.052   6.389 -1.1290 -0.0590  0.6772
  404MOL0     N53247   5.216   0.970   6.328 -0.2255 -0.0898  0.4460
  404MOL0     C53248   5.230   0.685   5.405 -0.0445  0.4687 -0.3076
  404MOL0     C53249   5.306   0.568   5.372  0.7754 -0.0008  0.0335
  404MOL0     C53250   5.421   0.112   5.405 -0.8788 -0.0730  0.5150
  404MOL0     C53251   5.428   0.005   5.494  0.0861 -0.2772 -0.3528
  404MOL0     C53252   5.539  -0.082   5.504  0.5015 -0.2499  0.1041
  404MOL0     C53253   5.640  -0.072   5.417 -0.6102  0.1630 -0.1405
  404MOL0     O53254   5.731  -0.161   5.434  0.1556  0.1744 -0.3669
  404MOL0     C53255   5.844  -0.144   5.347 -0.3551 -0.5483 -0.2361
  404MOL0     C53256   5.941  -0.267   5.356 -0.2547  1.0682 -0.2038
  404MOL0     C53257   6.088  -0.231   5.327 -0.5655 -0.8516 -0.2170
  404MOL0     C53258   6.110  -0.195   5.175 -0.4323  0.6303 -0.8422
  404MOL0     C53259   6.216  -0.103   5.153 -0.5754  0.0972 -0.7544
  404MOL0     C53260   6.310  -0.023   5.150  0.4214  0.9738 -0.3098
  404MOL0     C53261   5.639   0.034   5.320  0.0780 -1.1083 -0.5175
  404MOL0     C53262   5.536   0.137   5.324 -0.6982  0.0122 -0.5242
  404MOL0     H53263   5.054   0.333   5.413 -0.1089 -1.0807 -0.8592
  404MOL0     H53264   4.935   0.538   5.475  0.5326  1.7022  1.6528
  404MOL0     H53265   5.074   0.911   5.364 -0.6568 -0.6313 -1.6547
  404MOL0     H53266   5.188   0.934   5.506 -0.3341 -0.2118 -1.2705
  404MOL0     H53267   4.897   0.962   5.551  1.1619 -0.2174  0.8956
  404MOL0     H53268   4.970   1.082   5.447 -1.1120 -3.5315 -3.4679
  404MOL0     H53269   5.020   1.181   5.675  0.9437  0.3557  1.2829
  404MOL0     H53270   5.140   1.054   5.687 -0.0086  0.3611 -0.5001
  404MOL0     H53271   4.846   1.015   5.755  0.7733 -1.4667 -0.5574
  404MOL0     H53272   4.976   0.896   5.789 -1.2385 -0.1415  1.8848
  404MOL0     H53273   4.989   1.187   5.900 -1.2305 -0.0766 -0.5414
  404MOL0     H53274   5.081   1.052   5.949  0.8454  2.4331 -0.7680
  404MOL0     H53275   4.849   0.924   5.987 -0.3237 -0.1477  0.6127
  404MOL0     H53276   4.780   1.079   5.952  0.7069  0.4134 -1.2671
  404MOL0     H53277   4.891   1.162   6.164  0.8215 -0.4066  0.5571
  404MOL0     H53278   4.790   1.025   6.194  0.3674  1.3902  2.9269
  404MOL0     H53279   5.024   0.891   6.157  0.7085  2.2818 -3.7101
  404MOL0     H53280   4.952   0.935   6.308 -0.6394  2.9438  0.2407
  404MOL0     H53281   5.050   1.264   6.335 -1.8839 -1.2119 -2.2707
  404MOL0     H53282   5.387   1.268   6.502  0.3133 -1.7501 -2.2504
  404MOL0     H53283   5.230   1.335   6.547 -0.6252 -0.4159 -1.0500
  404MOL0     H53284   5.208   1.449   6.316 -0.0540  2.9196  0.1921
  404MOL0     H53285   5.373   1.401   6.284 -0.5103  0.8085 -0.0028
  404MOL0     H53286   5.258   1.570   6.514 -0.7184  0.7808 -1.3103
  404MOL0     H53287   5.435   1.536   6.508 -0.5996  0.1805  0.0440
  404MOL0     H53288   5.384   1.624   6.256  0.7924  3.4872 -1.9385
  404MOL0     H53289   5.454   1.719   6.389  0.6863 -2.3938  0.2983
  404MOL0     H53290   5.428   1.834   6.160  0.0048 -0.6318  1.7105
  404MOL0     H53291   5.387   2.064   6.029 -1.8764 -1.1265 -0.4618
  404MOL0     H53292   5.084   2.315   5.843  0.7296  0.6397 -0.7602
  404MOL0     H53293   4.969   2.490   5.707 -1.8879  2.0754 -0.7948
  404MOL0     H53294   4.868   2.621   5.605  0.5784 -0.4760  0.1260
  404MOL0     H53295   4.959   2.753   5.675 -1.2363  2.4380 -0.0395
  404MOL0     H53296   4.810   2.887   5.538 -0.5256  2.6369  2.0042
  404MOL0     H53297   4.743   2.889   5.694  0.1047 -1.0002  1.4786
  404MOL0     H53298   4.595   2.699   5.628  0.8853  0.2286 -0.5775
  404MOL0     H53299   4.650   2.699   5.470 -0.6338 -2.2479  0.6297
  404MOL0     H53300   4.500   2.921   5.611 -2.4670 -1.3038 -0.2188
  404MOL0     H53301   4.599   2.947   5.458  1.1603 -2.3857 -0.3212
  404MOL0     H53302   4.363   2.747   5.510 -0.8903  0.4325 -1.1219
  404MOL0     H53303   4.452   2.777   5.352  0.9539  0.2498 -0.0714
  404MOL0     H53304   4.240   2.951   5.504  0.8191  0.1759  0.4992
  404MOL0     H53305   4.235   2.882   5.347  0.7185  2.3187 -1.0247
  404MOL0     H53306   4.427   3.112   5.415 -0.3798 -0.0627  0.7469
  404MOL0     H53307   4.424   3.027   5.259  0.8910 -0.6567  0.9344
  404MOL0     H53308   4.277   3.254   5.296  0.5091  0.6533  0.7714
  404MOL0     H53309   4.179   3.144   5.384  1.7937 -0.0267  0.7459
  404MOL0     H53310   4.781   2.634   6.059  0.1473  0.6293 -2.1943
  404MOL0     H53311   4.939   2.481   6.202  3.0365 -0.7019  0.3939
  404MOL0     H53312   5.039   2.121   6.273 -1.1775  0.2318  0.3830
  404MOL0     H53313   5.074   1.912   6.380 -0.0706  1.6361  0.4119
  404MOL0     H53314   5.283   0.780   5.400 -1.5462  1.3655  0.1410
  404MOL0     H53315   5.410   0.585   5.349  1.7584 -2.4914  2.1406
  404MOL0     H53316   5.354  -0.015   5.571  1.4811  0.2708  1.2089
  404MOL0     H53317   5.528  -0.158   5.581 -3.6271  2.1798  2.3272
  404MOL0     H53318   5.904  -0.059   5.381  0.3030  0.7930 -4.2282
  404MOL0     H53319   5.819  -0.124   5.242  0.7341  3.7776  0.1680
  404MOL0     H53320   5.934  -0.296   5.462 -1.1795  2.0637  0.0270
  404MOL0     H53321   5.916  -0.357   5.300  0.3753  0.5920  0.2543
  404MOL0     H53322   6.155  -0.313   5.354  0.7003 -0.1609 -1.1510
  404MOL0     H53323   6.119  -0.143   5.385 -1.0336 -0.4652 -0.5466
  404MOL0     H53324   6.146  -0.285   5.124  0.3812  0.1073  0.6161
  404MOL0     H53325   6.021  -0.155   5.126 -0.4622  2.1835  0.4086
  404MOL0     H53326   6.366   0.065   5.126 -1.8013  1.6578 -3.6986
  404MOL0     H53327   5.727   0.052   5.259  1.1647 -3.8585  0.0954
  404MOL0     H53328   5.540   0.215   5.249  1.9620 -1.2043 -1.7863
  405MOL0     O53329   3.230  11.068  11.353  0.5609 -0.3638 -0.2332
  405MOL0     C53330   3.286  11.151  11.431  0.2473  0.5134  0.4395
  405MOL0     O53331   3.255  11.164  11.563  0.2624  0.1886  0.1025
  405MOL0     C53332   3.151  11.095  11.628  1.1727  0.4863 -0.2764
  405MOL0     C53333   3.054  11.169  11.701  0.0324  0.5232  1.3300
  405MOL0     C53334   2.938  11.109  11.756 -0.2132 -0.4581  0.4919
  405MOL0     C53335   2.910  10.972  11.732 -0.2218 -0.3250  0.9476
  405MOL0     O53336   2.806  10.905  11.793  0.6769  0.2676 -0.0010
  405MOL0     C53337   2.689  10.980  11.830 -0.0208  0.9015  0.9215
  405MOL0     C53338   2.579  10.884  11.868 -0.0052 -0.0575 -0.2422
  405MOL0     C53339   2.475  10.945  11.962  0.0439  0.3811  0.8118
  405MOL0     C53340   2.342  10.883  11.941  0.9314 -0.3267 -0.7493
  405MOL0     C53341   2.304  10.776  12.036  0.4040  0.0587  0.1515
  405MOL0     C53342   2.188  10.686  12.001 -0.2200 -0.6638 -1.1558
  405MOL0     C53343   2.077  10.761  11.929  0.7583 -0.3275 -0.8704
  405MOL0     C53344   1.946  10.675  11.925 -0.8241  0.0777 -0.9630
  405MOL0     N53345   1.839  10.729  11.851  0.1550  0.0396 -0.8544
  405MOL0     C53346   1.841  10.847  11.779  0.5926 -0.0757 -1.2223
  405MOL0     C53347   1.737  10.834  11.698 -0.1213  0.1552 -0.2552
  405MOL0     C53348   1.708  10.926  11.579 -0.0076 -0.5093 -0.2506
  405MOL0     C53349   1.584  11.019  11.569 -0.5633  0.3272 -0.3818
  405MOL0     C53350   1.483  10.941  11.484  1.3761  0.7032  1.1059
  405MOL0     C53351   1.406  10.844  11.581  0.3448  0.8025 -0.2223
  405MOL0     O53352   1.278  10.814  11.512 -0.9712  0.7851 -0.8231
  405MOL0     C53353   1.203  10.721  11.584  0.1526  1.1446 -0.6166
  405MOL0     C53354   1.189  10.728  11.720  0.6971  0.3946 -0.3516
  405MOL0     C53355   1.129  10.630  11.805  0.0143 -0.3059  0.1781
  405MOL0     C53356   1.076  10.508  11.741  0.0100  0.0331 -0.0207
  405MOL0     C53357   1.024  10.382  11.807 -0.5843 -0.2032  0.1673
  405MOL0     O53358   1.003  10.405  11.938  0.6692 -0.0309  0.0516
  405MOL0     C53359   0.950  10.307  12.018  0.4766  0.2255 -0.3258
  405MOL0     C53360   1.019  10.268  12.131 -0.9738 -0.3003 -0.3648
  405MOL0     C53361   0.957  10.183  12.221 -0.7732  0.5303  0.8358
  405MOL0     C53362   0.839  10.119  12.185  0.5159 -0.4379  0.3838
  405MOL0     O53363   0.767  10.026  12.258  0.4904  0.2294  0.7890
  405MOL0     C53364   0.840   9.979  12.377 -0.1085  0.1214  0.6600
  405MOL0     C53365   0.772   9.847  12.411 -0.6305  0.9079 -1.4690
  405MOL0     C53366   0.793   9.746  12.301  0.1983  0.3386  0.0712
  405MOL0     C53367   0.713   9.613  12.324 -0.2119  0.0342  0.5330
  405MOL0     C53368   0.662   9.529  12.198 -0.2685 -1.3674 -0.7001
  405MOL0     C53369   0.790   9.478  12.130  0.3413 -0.1975 -0.3636
  405MOL0     C53370   0.767   9.374  12.020  0.1818 -0.6638 -0.6513
  405MOL0     C53371   0.854   9.399  11.906 -0.8351  0.6779  0.0616
  405MOL0    Cl53372   0.779   9.526  11.802 -0.1812  0.3282 -0.1952
  405MOL0     C53373   0.777  10.151  12.064 -0.2894  0.3022  0.0593
  405MOL0     C53374   0.823  10.252  11.976 -0.8899  0.1709  0.1886
  405MOL0     O53375   1.023  10.277  11.749  0.7282  0.1116 -0.8472
  405MOL0     C53376   1.070  10.521  11.602  0.8713  1.0662 -0.2493
  405MOL0     C53377   1.130  10.621  11.522  0.8648  0.2769 -0.0175
  405MOL0     N53378   1.657  10.725  11.730  0.0542 -0.0667  0.3160
  405MOL0     N53379   1.718  10.669  11.822 -0.2814  0.6746  0.0721
  405MOL0     C53380   3.009  10.893  11.662  0.3747 -0.4402 -0.8117
  405MOL0     C53381   3.120  10.953  11.600  1.3944 -0.1196 -0.1366
  405MOL0     C53382   3.409  11.227  11.384  0.4103  0.3497  0.3530
  405MOL0     C53383   3.457  11.218  11.256  0.1413  0.1352 -0.1325
  405MOL0     C53384   3.577  11.288  11.233  0.4370 -0.5204  0.4876
  405MOL0     C53385   3.650  11.364  11.326  0.8500 -0.9925  0.3397
  405MOL0     O53386   3.767  11.426  11.305 -0.1194 -0.3966  0.0492
  405MOL0     C53387   3.756  11.549  11.219 -0.0431 -0.3319  0.1544
  405MOL0     C53388   3.718  11.680  11.305 -0.1508  0.2755 -0.2926
  405MOL0     C53389   3.740  11.807  11.215  0.8449 -0.1552 -1.0817
  405MOL0     C53390   3.735  11.932  11.304  0.0566 -0.2777 -0.1714
  405MOL0     C53391   3.748  12.055  11.217 -0.3046  0.9375  1.0818
  405MOL0     C53392   3.764  12.154  11.146  0.9181  0.2317  0.8137
  405MOL0     C53393   3.605  11.370  11.458 -0.2917  0.3670 -0.2219
  405MOL0     C53394   3.484  11.311  11.478  0.1010  0.4503 -0.3688
  405MOL0     H53395   3.052  11.278  11.697 -0.0419  0.4844 -0.0615
  405MOL0     H53396   2.865  11.168  11.810 -1.5079 -2.0106  0.5339
  405MOL0     H53397   2.639  11.042  11.755 -4.1826 -2.2911  0.7205
  405MOL0     H53398   2.709  11.050  11.912  1.0598  1.2663  0.3754
  405MOL0     H53399   2.599  10.796  11.930  0.4182  0.1012 -0.1532
  405MOL0     H53400   2.525  10.852  11.778 -1.4122 -0.1811  0.6152
  405MOL0     H53401   2.459  11.048  11.928 -2.5231 -0.5991 -1.2500
  405MOL0     H53402   2.519  10.928  12.061 -0.8184 -1.4809  0.9097
  405MOL0     H53403   2.263  10.957  11.960  0.7704 -0.9081  1.0745
  405MOL0     H53404   2.325  10.860  11.835  1.3807 -4.9104 -0.0235
  405MOL0     H53405   2.274  10.829  12.127 -3.8112  1.4584 -1.7930
  405MOL0     H53406   2.386  10.705  12.046 -0.0537 -0.8545 -1.9680
  405MOL0     H53407   2.142  10.654  12.095 -1.1174  2.6654 -0.3465
  405MOL0     H53408   2.231  10.597  11.953 -1.4753 -2.3781  0.7327
  405MOL0     H53409   2.052  10.853  11.983 -2.7961 -1.6241  0.0169
  405MOL0     H53410   2.113  10.788  11.829 -0.3701 -0.1744 -1.2555
  405MOL0     H53411   1.912  10.677  12.029 -0.5052 -0.0743 -0.8551
  405MOL0     H53412   1.959  10.571  11.895  1.2219  0.0208 -0.0996
  405MOL0     H53413   1.921  10.919  11.791 -0.3535  1.0054 -1.1462
  405MOL0     H53414   1.711  10.859  11.493 -3.9758  0.4067 -1.2991
  405MOL0     H53415   1.792  10.995  11.578 -1.3744  1.3212  1.9429
  405MOL0     H53416   1.614  11.109  11.515  1.4058 -2.0472 -3.6427
  405MOL0     H53417   1.543  11.051  11.665 -3.6378 -0.5653 -1.2829
  405MOL0     H53418   1.411  11.012  11.442  0.6295 -1.7340 -2.1142
  405MOL0     H53419   1.528  10.878  11.408  3.1978  0.8303  2.0205
  405MOL0     H53420   1.387  10.888  11.679 -0.7436 -1.1268  0.4699
  405MOL0     H53421   1.458  10.750  11.600  0.0086  0.9556  1.6734
  405MOL0     H53422   1.225  10.814  11.775  0.2610 -0.9513  2.1995
  405MOL0     H53423   1.131  10.639  11.913  0.1435  0.7492  0.0896
  405MOL0     H53424   1.119  10.303  12.156 -1.3731  1.6329 -1.2715
  405MOL0     H53425   1.009  10.168  12.316  0.7645 -1.3822 -0.2470
  405MOL0     H53426   0.832  10.048  12.462 -1.1890 -0.4716  1.0586
  405MOL0     H53427   0.944   9.947  12.366  0.3685  2.1285 -1.4227
  405MOL0     H53428   0.666   9.850  12.434 -0.0445  0.1619  1.8145
  405MOL0     H53429   0.825   9.811  12.500 -1.6235  0.8161 -0.9006
  405MOL0     H53430   0.901   9.735  12.289  0.3750  3.3764 -2.3516
  405MOL0     H53431   0.762   9.788  12.205  0.5965 -2.5001 -1.4194
  405MOL0     H53432   0.762   9.550  12.399  2.4431 -0.9535 -1.8412
  405MOL0     H53433   0.627   9.642  12.385  0.4476 -1.0217  2.0226
  405MOL0     H53434   0.601   9.586  12.128 -0.4444 -1.3351 -0.5188
  405MOL0     H53435   0.603   9.442  12.227 -2.5182 -0.4619 -2.3079
  405MOL0     H53436   0.865   9.451  12.204 -0.5176  0.0588  0.6220
  405MOL0     H53437   0.837   9.568  12.089  5.7513 -2.8630 -0.8096
  405MOL0     H53438   0.778   9.273  12.061 -3.0228 -0.4376  1.0738
  405MOL0     H53439   0.667   9.393  11.981  0.2257 -1.5109 -1.1961
  405MOL0     H53440   0.871   9.308  11.848  2.9397  0.3680  1.3499
  405MOL0     H53441   0.955   9.423  11.941 -0.0079 -0.2511 -1.5787
  405MOL0     H53442   0.690  10.091  12.037 -1.8931  1.4405  2.4148
  405MOL0     H53443   0.781  10.275  11.879  1.0496 -1.3394 -1.0832
  405MOL0     H53444   1.028  10.433  11.555 -0.5911  2.3234 -1.4065
  405MOL0     H53445   1.138  10.608  11.415  0.8569 -0.7728  0.0939
  405MOL0     H53446   2.998  10.786  11.651  0.3268 -0.6373  0.9047
  405MOL0     H53447   3.185  10.884  11.547 -0.6291 -1.3725 -1.0869
  405MOL0     H53448   3.399  11.172  11.176 -1.2132  2.7124 -0.7374
  405MOL0     H53449   3.616  11.276  11.132  1.9513 -1.8599  1.1845
  405MOL0     H53450   3.680  11.535  11.141 -1.6057  4.4616  0.4669
  405MOL0     H53451   3.856  11.566  11.178 -0.7381  1.1547 -1.0206
  405MOL0     H53452   3.610  11.690  11.321 -0.0632  2.7138 -0.8446
  405MOL0     H53453   3.784  11.685  11.393 -0.8009  0.0533  0.2168
  405MOL0     H53454   3.657  11.823  11.147  1.3189  2.9633 -1.0609
  405MOL0     H53455   3.839  11.801  11.168  2.1117  0.7958  1.2846
  405MOL0     H53456   3.645  11.930  11.366  0.4880  0.0657  0.4814
  405MOL0     H53457   3.811  11.931  11.383 -0.6672  0.1240  0.5366
  405MOL0     H53458   3.770  12.234  11.076  0.7132 -0.4865 -0.0490
  405MOL0     H53459   3.648  11.434  11.533  0.9752 -1.3830  0.6162
  405MOL0     H53460   3.435  11.332  11.572  1.4513  0.6051  0.3250
  406MOL0     O53461  10.025   8.880   3.771  0.0475 -0.3499 -0.2579
  406MOL0     C53462  10.105   8.786   3.769  0.4287 -0.4824  0.5045
  406MOL0     O53463  10.218   8.783   3.846 -0.3611 -0.1014 -0.0539
  406MOL0     C53464  10.251   8.896   3.916 -0.5247  0.9372 -0.0960
  406MOL0     C53465  10.304   9.007   3.852 -0.2813  0.1188 -0.1280
  406MOL0     C53466  10.303   9.126   3.925  0.4493  0.6237 -0.5547
  406MOL0     C53467  10.269   9.127   4.060 -0.5121 -0.1037  0.0338
  406MOL0     O53468  10.273   9.239   4.143  0.1605 -0.4432  0.3994
  406MOL0     C53469  10.264   9.362   4.079 -0.1231 -0.0259  0.1125
  406MOL0     C53470  10.250   9.466   4.188  0.9637  0.6605  0.0802
  406MOL0     C53471  10.375   9.450   4.276  0.1700 -0.0779 -0.8823
  406MOL0     C53472  10.379   9.560   4.392  0.1167  0.4457  0.5853
  406MOL0     C53473  10.438   9.504   4.530  0.4445 -0.3801  0.0881
  406MOL0     C53474  10.586   9.461   4.514  0.3891 -0.0696 -0.3062
  406MOL0     C53475  10.599   9.322   4.485 -0.4696  0.3527 -0.3683
  406MOL0     C53476  10.756   9.284   4.477  0.3392 -0.9664 -0.1319
  406MOL0     N53477  10.839   9.320   4.593  0.3113  0.7561  0.9620
  406MOL0     C53478  10.799   9.330   4.721  0.5718 -0.3816  0.9925
  406MOL0     C53479  10.906   9.372   4.788  0.9260 -0.0997  0.4498
  406MOL0     C53480  10.913   9.395   4.936  0.2345 -0.1779  1.2252
  406MOL0     C53481  10.969   9.535   4.968 -0.8725 -0.7605 -0.0091
  406MOL0     C53482  11.123   9.540   4.972  0.7516  0.5404  0.7608
  406MOL0     C53483  11.164   9.682   5.010 -0.4880  0.0178  0.9940
  406MOL0     O53484  11.305   9.696   5.056 -0.4413 -0.4468  0.2403
  406MOL0     C53485  11.336   9.643   5.178  0.9234  0.0956  0.7101
  406MOL0     C53486  11.245   9.634   5.288  0.3276  0.6549  0.4495
  406MOL0     C53487  11.265   9.576   5.410 -0.2456 -0.2946 -0.5728
  406MOL0     C53488  11.399   9.537   5.434  0.9017 -0.8396  0.4645
  406MOL0     C53489  11.423   9.449   5.551 -0.7654 -0.8627 -0.5730
  406MOL0     O53490  11.323   9.437   5.645 -0.6525  0.5163 -0.1887
  406MOL0     C53491  11.361   9.373   5.766 -0.0380  0.2987 -0.4035
  406MOL0     C53492  11.379   9.236   5.760 -0.4902 -0.2014  0.0628
  406MOL0     C53493  11.398   9.164   5.884 -0.3418  0.1021 -0.2799
  406MOL0     C53494  11.417   9.230   6.015  0.3559 -0.4481 -0.0824
  406MOL0     O53495  11.432   9.150   6.133  0.4468  0.0570  0.6416
  406MOL0     C53496  11.532   9.039   6.126 -0.2695  0.4732 -0.5942
  406MOL0     C53497  11.525   8.952   6.256 -0.0376  0.5022 -0.5074
  406MOL0     C53498  11.572   9.034   6.382 -0.5280 -1.0546  0.6231
  406MOL0     C53499  11.544   8.957   6.504  0.0474 -0.2132 -1.1592
  406MOL0     C53500  11.617   9.020   6.630  1.3747 -0.5964 -0.2442
  406MOL0     C53501  11.773   9.015   6.632 -0.5751 -1.1701 -0.1290
  406MOL0     C53502  11.820   8.872   6.641 -0.0759  0.2815  0.3654
  406MOL0     C53503  11.975   8.878   6.667  0.7380  0.5185 -0.3587
  406MOL0    Cl53504  12.061   8.901   6.516  0.4582 -0.0640 -0.3884
  406MOL0     C53505  11.391   9.368   6.013  0.1643  0.1792  0.4000
  406MOL0     C53506  11.357   9.438   5.889  0.3661  0.8309 -0.2526
  406MOL0     O53507  11.543   9.413   5.568  0.1292 -0.3117 -0.0323
  406MOL0     C53508  11.500   9.549   5.332 -0.5715  0.6456 -0.0773
  406MOL0     C53509  11.471   9.605   5.200  0.0565 -0.9040  0.0635
  406MOL0     N53510  11.010   9.391   4.702 -0.6183  0.6844  0.6474
  406MOL0     N53511  10.973   9.346   4.588  0.1388 -0.2523  0.0892
  406MOL0     C53512  10.217   9.013   4.118  0.1532  0.2373  0.4744
  406MOL0     C53513  10.206   8.896   4.049  0.6975 -0.9295  0.3777
  406MOL0     C53514  10.080   8.664   3.682 -0.0881  0.7499  0.6513
  406MOL0     C53515   9.968   8.675   3.605 -0.4158 -0.2675  0.3433
  406MOL0     C53516   9.914   8.573   3.530 -0.5125  0.8433  0.2044
  406MOL0     C53517   9.978   8.447   3.527  0.6498 -0.2548  0.0294
  406MOL0     O53518   9.936   8.341   3.452 -0.2740  0.4718  0.4261
  406MOL0     C53519   9.810   8.359   3.381  0.0571  0.7471 -0.5418
  406MOL0     C53520   9.781   8.237   3.292 -0.0890 -0.1696  0.0803
  406MOL0     C53521   9.631   8.245   3.251  0.3677 -0.6079 -0.9329
  406MOL0     C53522   9.598   8.224   3.100  0.6010  0.2114 -0.0679
  406MOL0     C53523   9.453   8.229   3.100  0.8347 -0.6720 -0.2406
  406MOL0     C53524   9.326   8.246   3.100 -0.2137 -0.1118  0.3865
  406MOL0     C53525  10.094   8.435   3.602 -0.4748  0.5900  0.3030
  406MOL0     C53526  10.152   8.543   3.678  0.9400 -0.2475 -0.3851
  406MOL0     H53527  10.334   8.991   3.749 -0.5551  5.1262 -1.2473
  406MOL0     H53528  10.337   9.220   3.882  0.6586  1.2711  0.9586
  406MOL0     H53529  10.177   9.351   4.013 -1.4350  0.1066  1.7411
  406MOL0     H53530  10.355   9.386   4.024 -0.3937 -2.1785 -1.4056
  406MOL0     H53531  10.154   9.446   4.236 -0.4369  0.4439 -2.6564
  406MOL0     H53532  10.250   9.563   4.138  4.4715 -1.2301 -4.2645
  406MOL0     H53533  10.470   9.455   4.223  2.4349 -0.2379  2.8018
  406MOL0     H53534  10.373   9.360   4.337  2.5648  0.3068 -0.1529
  406MOL0     H53535  10.437   9.647   4.362  2.8686 -2.1309 -2.4370
  406MOL0     H53536  10.275   9.589   4.407 -1.2441 -3.5019  0.0505
  406MOL0     H53537  10.370   9.427   4.569 -3.2074  1.8271 -1.4359
  406MOL0     H53538  10.447   9.584   4.605  1.2826 -0.9847  0.6589
  406MOL0     H53539  10.628   9.491   4.610  3.8443  2.2114 -2.2790
  406MOL0     H53540  10.626   9.520   4.431  0.9439  0.5069  0.3614
  406MOL0     H53541  10.544   9.257   4.554 -1.3718  1.6293  0.1431
  406MOL0     H53542  10.563   9.293   4.386  2.1530  1.1226 -1.6490
  406MOL0     H53543  10.806   9.334   4.394  1.3264 -2.1657 -0.2920
  406MOL0     H53544  10.779   9.178   4.460  1.6906 -0.5030 -1.3363
  406MOL0     H53545  10.703   9.309   4.768  0.3693  1.9488  1.7532
  406MOL0     H53546  10.989   9.324   4.969  3.0069  0.4456 -3.0837
  406MOL0     H53547  10.813   9.387   4.981 -0.2519 -1.3429 -0.0030
  406MOL0     H53548  10.924   9.577   5.058  2.4067  1.8181  0.6351
  406MOL0     H53549  10.940   9.601   4.885  0.4807  1.2575  1.0267
  406MOL0     H53550  11.152   9.462   5.043 -2.0476 -2.3332 -1.0026
  406MOL0     H53551  11.148   9.511   4.869 -4.8681 -1.4745 -0.3814
  406MOL0     H53552  11.091   9.731   5.075 -1.9220  0.8227 -1.1394
  406MOL0     H53553  11.164   9.755   4.929 -0.4088  1.4169  2.2208
  406MOL0     H53554  11.140   9.648   5.266  0.4287  0.5136 -0.1360
  406MOL0     H53555  11.190   9.547   5.483 -0.7774  0.3206 -0.8660
  406MOL0     H53556  11.352   9.182   5.670  0.5215 -1.4889  0.4991
  406MOL0     H53557  11.398   9.056   5.886  0.4763  0.0892  2.0367
  406MOL0     H53558  11.635   9.075   6.116 -0.6213  1.9596  0.8063
  406MOL0     H53559  11.513   8.963   6.050 -0.7215 -1.4845  1.3789
  406MOL0     H53560  11.572   8.853   6.251 -1.3482 -0.1771  0.1294
  406MOL0     H53561  11.419   8.935   6.276  0.1123  2.1389  2.2396
  406MOL0     H53562  11.509   9.123   6.393  0.5277 -0.3554  1.1333
  406MOL0     H53563  11.677   9.052   6.357 -1.3866  0.1949 -2.6683
  406MOL0     H53564  11.437   8.956   6.529  0.5667 -1.5936  1.3275
  406MOL0     H53565  11.573   8.853   6.488  2.1172  0.7756 -4.7897
  406MOL0     H53566  11.580   8.960   6.713  0.8161 -0.4121 -0.3512
  406MOL0     H53567  11.591   9.123   6.658  0.3758 -0.5765 -1.1436
  406MOL0     H53568  11.805   9.067   6.722 -1.0593  2.4930 -1.8868
  406MOL0     H53569  11.825   9.064   6.549  1.5738 -0.7306  1.3848
  406MOL0     H53570  11.776   8.822   6.727 -0.8802 -2.1136 -1.3519
  406MOL0     H53571  11.791   8.830   6.544 -0.6037  3.0976 -0.8061
  406MOL0     H53572  12.005   8.781   6.708  2.3194  1.8333  1.8148
  406MOL0     H53573  12.000   8.956   6.739  0.7988  1.5730 -1.5049
  406MOL0     H53574  11.385   9.418   6.109 -1.1234  0.2656  0.2972
  406MOL0     H53575  11.334   9.542   5.910  1.8853  0.9318  1.1217
  406MOL0     H53576  11.595   9.499   5.344 -1.6072 -1.2608  0.6376
  406MOL0     H53577  11.562   9.619   5.142  0.9149 -0.6840  1.4020
  406MOL0     H53578  10.180   9.026   4.219  0.1241  0.8473  0.3918
  406MOL0     H53579  10.169   8.804   4.095 -0.6129 -0.8810 -0.5298
  406MOL0     H53580   9.920   8.772   3.602  0.6524  0.2967  0.8243
  406MOL0     H53581   9.822   8.585   3.472 -0.4707 -3.9446 -1.2946
  406MOL0     H53582   9.804   8.455   3.330 -0.1816 -0.2615 -2.5121
  406MOL0     H53583   9.736   8.358   3.462 -1.2173 -0.8993 -1.6490
  406MOL0     H53584   9.858   8.239   3.214  1.8151 -2.8439  1.7447
  406MOL0     H53585   9.807   8.148   3.349  0.8242  2.0978  3.5402
  406MOL0     H53586   9.603   8.347   3.278  3.9641  0.2747  0.0658
  406MOL0     H53587   9.573   8.174   3.311 -2.8221  3.2691  1.0503
  406MOL0     H53588   9.622   8.312   3.039 -1.2629 -0.3995 -1.7933
  406MOL0     H53589   9.645   8.128   3.078  1.2563 -0.1801  2.6235
  406MOL0     H53590   9.223   8.270   3.085  0.0664  0.3274 -1.0274
  406MOL0     H53591  10.141   8.338   3.601 -1.8742 -0.1304 -0.8860
  406MOL0     H53592  10.236   8.532   3.747 -0.4186  1.1959  1.5968
  407MOL0     O53593   6.844   1.630   2.221  0.2861  0.6386 -0.2333
  407MOL0     C53594   6.773   1.583   2.131 -0.4480  0.6534  0.4904
  407MOL0     O53595   6.791   1.606   1.998  0.7041  0.0836  0.2131
  407MOL0     C53596   6.876   1.703   1.944  1.0952  0.2070  1.0145
  407MOL0     C53597   6.868   1.696   1.808  0.2703  0.5745  0.3882
  407MOL0     C53598   6.951   1.780   1.737 -0.0733 -0.1000  0.6037
  407MOL0     C53599   7.029   1.892   1.791  0.1947 -0.6284 -0.7206
  407MOL0     O53600   7.085   1.990   1.712 -0.6674 -0.1876  0.2228
  407MOL0     C53601   7.176   1.944   1.608 -1.4307 -0.4414 -0.0366
  407MOL0     C53602   7.311   2.021   1.628 -0.1908 -0.1256 -0.1945
  407MOL0     C53603   7.362   2.057   1.486 -0.1096 -0.4510  1.1364
  407MOL0     C53604   7.495   2.131   1.479 -0.3328 -0.7039 -0.1562
  407MOL0     C53605   7.485   2.273   1.532 -0.8497 -0.0718  0.1018
  407MOL0     C53606   7.621   2.340   1.530 -0.6260  0.5499 -0.0231
  407MOL0     C53607   7.616   2.497   1.541  0.2503 -0.2052 -0.3705
  407MOL0     C53608   7.598   2.549   1.398  0.5892  0.4171  0.1260
  407MOL0     N53609   7.563   2.689   1.402  0.0832  0.1434 -0.2435
  407MOL0     C53610   7.646   2.789   1.430 -1.1659  0.5545  0.8459
  407MOL0     C53611   7.576   2.900   1.421 -0.7606  0.0768 -0.4661
  407MOL0     C53612   7.629   3.045   1.437  0.4026  0.6119  0.2182
  407MOL0     C53613   7.681   3.102   1.311  0.3737  0.1651 -0.4382
  407MOL0     C53614   7.574   3.141   1.207 -0.9424 -0.1891  0.7691
  407MOL0     C53615   7.580   3.292   1.160 -0.8335  0.5274  0.0179
  407MOL0     O53616   7.450   3.321   1.109 -0.6613 -0.1821 -0.0421
  407MOL0     C53617   7.396   3.446   1.129 -0.9727  0.8735 -0.2072
  407MOL0     C53618   7.265   3.459   1.091  0.5996 -0.4239 -0.5713
  407MOL0     C53619   7.201   3.581   1.124  0.0303 -0.9008  0.1408
  407MOL0     C53620   7.257   3.692   1.185 -0.0853 -0.7237  0.9578
  407MOL0     C53621   7.188   3.807   1.233  0.3755 -0.2247 -0.0882
  407MOL0     O53622   7.262   3.907   1.284  0.1964  0.4035  0.6508
  407MOL0     C53623   7.189   4.020   1.318 -0.3583 -0.6554 -0.4803
  407MOL0     C53624   7.088   4.034   1.408 -0.4382  0.0452  0.4868
  407MOL0     C53625   7.041   4.163   1.442  0.6109  0.1036 -0.9943
  407MOL0     C53626   7.093   4.281   1.389 -0.2733 -0.0650 -0.0305
  407MOL0     O53627   7.044   4.408   1.427  0.1175 -0.4226  0.4977
  407MOL0     C53628   7.143   4.514   1.442  0.0151 -0.5153  0.0771
  407MOL0     C53629   7.092   4.628   1.535 -0.3998 -0.4657 -0.6624
  407MOL0     C53630   7.183   4.744   1.553 -0.9589 -0.0888  0.0553
  407MOL0     C53631   7.218   4.818   1.415  0.5298  0.1986 -0.2554
  407MOL0     C53632   7.271   4.958   1.448  0.4487 -0.1444  0.4209
  407MOL0     C53633   7.412   4.964   1.501  0.2618 -0.3089  0.1137
  407MOL0     C53634   7.481   5.098   1.533  0.2587  0.4631 -0.4567
  407MOL0     C53635   7.407   5.180   1.636 -0.1853 -0.9061 -0.6970
  407MOL0    Cl53636   7.538   5.261   1.725  0.1867 -0.0978  0.1136
  407MOL0     C53637   7.197   4.262   1.295  0.1014 -0.1334 -0.3531
  407MOL0     C53638   7.242   4.134   1.254  0.3545  0.6745  0.6160
  407MOL0     O53639   7.060   3.804   1.230 -0.2132 -0.5138 -0.2060
  407MOL0     C53640   7.393   3.681   1.207 -0.0315 -0.4791 -0.3086
  407MOL0     C53641   7.465   3.567   1.178  0.0027  0.7102  0.2723
  407MOL0     N53642   7.450   2.866   1.389  0.4895 -0.6902 -0.6655
  407MOL0     N53643   7.446   2.743   1.374  0.1968  0.1338 -0.8426
  407MOL0     C53644   7.020   1.907   1.926  0.6876  0.5621 -0.4982
  407MOL0     C53645   6.945   1.810   2.007 -0.2230  0.2132 -0.9034
  407MOL0     C53646   6.656   1.500   2.184 -0.4900 -0.2338 -0.5222
  407MOL0     C53647   6.649   1.474   2.323 -0.4009 -0.0230 -0.2427
  407MOL0     C53648   6.553   1.406   2.380  0.0158 -1.0383 -0.1373
  407MOL0     C53649   6.449   1.358   2.300  0.3564 -0.7615 -0.0335
  407MOL0     O53650   6.342   1.295   2.355 -0.2441 -0.4347 -0.3090
  407MOL0     C53651   6.353   1.154   2.364 -0.7498 -0.0870 -0.4715
  407MOL0     C53652   6.382   1.118   2.512  0.5403 -0.2887  0.3170
  407MOL0     C53653   6.266   1.173   2.603 -0.0227 -1.0869  0.1111
  407MOL0     C53654   6.303   1.203   2.749 -0.6611  0.0248  0.3166
  407MOL0     C53655   6.211   1.133   2.840 -0.0251 -0.0258  0.4738
  407MOL0     C53656   6.114   1.094   2.895 -0.4992  0.5499 -0.7899
  407MOL0     C53657   6.453   1.374   2.158 -0.2016  0.4025 -1.6292
  407MOL0     C53658   6.557   1.445   2.102 -0.3972  0.4248  0.0063
  407MOL0     H53659   6.808   1.626   1.752  2.0286 -0.6705 -0.0362
  407MOL0     H53660   6.963   1.774   1.630  4.4365 -2.8458  0.9747
  407MOL0     H53661   7.146   1.956   1.504 -0.5639 -1.3472 -0.4167
  407MOL0     H53662   7.206   1.839   1.617  2.2791  0.5155  0.4676
  407MOL0     H53663   7.398   1.963   1.658  0.8211  2.5448  2.5251
  407MOL0     H53664   7.297   2.107   1.694  3.4840 -1.0286  2.0513
  407MOL0     H53665   7.282   2.116   1.440  1.1972  2.3957  2.2592
  407MOL0     H53666   7.376   1.970   1.421 -1.1973  0.6917 -0.7449
  407MOL0     H53667   7.570   2.066   1.525 -0.0387  0.0385  0.4265
  407MOL0     H53668   7.539   2.136   1.379  2.2146 -1.2620  0.8579
  407MOL0     H53669   7.452   2.267   1.636  4.3122  2.1020  2.2448
  407MOL0     H53670   7.417   2.336   1.474  0.8046  1.2895 -0.4652
  407MOL0     H53671   7.687   2.318   1.445 -2.1819 -3.8736 -0.3642
  407MOL0     H53672   7.669   2.296   1.617  2.5717  2.7517 -0.4969
  407MOL0     H53673   7.542   2.531   1.614 -1.1547  0.4429 -2.0496
  407MOL0     H53674   7.716   2.528   1.574 -0.4260 -0.1278  1.7406
  407MOL0     H53675   7.517   2.488   1.356  1.5302 -2.2607  1.9325
  407MOL0     H53676   7.690   2.530   1.342  1.5460 -0.7685  2.0105
  407MOL0     H53677   7.749   2.775   1.462 -2.3854 -3.6931  3.8883
  407MOL0     H53678   7.722   3.045   1.495  1.2888 -0.6585 -1.1276
  407MOL0     H53679   7.552   3.107   1.483  1.4769  2.2144 -0.0717
  407MOL0     H53680   7.744   3.020   1.275 -1.8696 -2.4568  1.1905
  407MOL0     H53681   7.741   3.187   1.344  1.3381 -1.4758  2.4556
  407MOL0     H53682   7.616   3.092   1.119  1.1904 -1.7939  2.5540
  407MOL0     H53683   7.477   3.100   1.240 -1.3162 -1.6817 -1.9164
  407MOL0     H53684   7.650   3.308   1.077  0.4109 -0.2043  0.8920
  407MOL0     H53685   7.613   3.349   1.247  1.9469  0.5578 -0.9624
  407MOL0     H53686   7.219   3.372   1.046 -1.4666  0.9121 -1.2135
  407MOL0     H53687   7.098   3.581   1.089  0.1022 -0.0445 -0.0887
  407MOL0     H53688   7.054   3.953   1.472 -0.9138  0.8473  1.2715
  407MOL0     H53689   6.956   4.164   1.509  2.2511 -2.0077  1.3095
  407MOL0     H53690   7.184   4.547   1.346  3.0672 -3.4108  0.1637
  407MOL0     H53691   7.225   4.464   1.495  1.5645  0.9234 -0.8394
  407MOL0     H53692   7.080   4.582   1.634  0.1001  0.6425 -0.0764
  407MOL0     H53693   6.990   4.657   1.507  0.2364  1.4294 -1.1681
  407MOL0     H53694   7.275   4.705   1.597  0.1724  0.9595 -1.2664
  407MOL0     H53695   7.138   4.823   1.613 -1.3595  0.0124 -0.3728
  407MOL0     H53696   7.294   4.765   1.357  1.5276  1.4222 -0.0989
  407MOL0     H53697   7.118   4.829   1.372  0.4394 -0.9655 -0.3898
  407MOL0     H53698   7.204   5.005   1.521 -0.4997 -3.4689  1.9193
  407MOL0     H53699   7.288   5.006   1.351  1.6757 -3.0922 -0.9486
  407MOL0     H53700   7.481   4.910   1.435  1.3942  1.2437 -0.0348
  407MOL0     H53701   7.416   4.911   1.597 -2.2848 -0.0451  0.4425
  407MOL0     H53702   7.580   5.060   1.562 -0.1269 -0.9694 -0.9201
  407MOL0     H53703   7.502   5.152   1.440  2.9865  2.3237  1.0744
  407MOL0     H53704   7.360   5.127   1.720 -1.9732 -0.0150 -1.0695
  407MOL0     H53705   7.327   5.243   1.595  1.4456  2.1411  0.4605
  407MOL0     H53706   7.238   4.349   1.246 -1.1854  0.4888 -0.3730
  407MOL0     H53707   7.319   4.142   1.178 -3.3846  1.0522 -3.4953
  407MOL0     H53708   7.455   3.756   1.255  0.7613  0.6421 -2.9117
  407MOL0     H53709   7.570   3.568   1.207  0.0483 -1.5417  0.3950
  407MOL0     H53710   7.050   2.007   1.958 -2.7057  1.1789  1.2600
  407MOL0     H53711   6.929   1.837   2.111 -0.5631 -0.0592 -0.8845
  407MOL0     H53712   6.731   1.501   2.388  2.3486 -1.9454 -2.6142
  407MOL0     H53713   6.551   1.402   2.488  0.4490  0.6582 -0.0336
  407MOL0     H53714   6.437   1.096   2.326  0.1434 -1.4670  3.1196
  407MOL0     H53715   6.259   1.104   2.338 -1.7845 -0.4949  3.3458
  407MOL0     H53716   6.383   1.008   2.519 -0.3747 -0.3658 -0.4903
  407MOL0     H53717   6.474   1.159   2.555  0.6789  0.6295 -0.8114
  407MOL0     H53718   6.192   1.092   2.609  0.5979 -1.6129  0.9177
  407MOL0     H53719   6.208   1.257   2.564  2.2542  0.0591 -0.9916
  407MOL0     H53720   6.408   1.180   2.769 -0.4203  0.1226 -0.7774
  407MOL0     H53721   6.293   1.311   2.764 -2.4353  0.0301 -0.6242
  407MOL0     H53722   6.019   1.058   2.929 -0.7667 -0.0146 -2.0882
  407MOL0     H53723   6.368   1.329   2.108  0.2123 -0.1371 -1.8708
  407MOL0     H53724   6.552   1.450   1.993  0.4490 -2.3105 -0.2444
  408MOL0     O53725   6.402   1.354   7.369  0.0653 -0.6236 -0.7922
  408MOL0     C53726   6.428   1.416   7.266 -0.8359 -0.2715 -0.5981
  408MOL0     O53727   6.339   1.494   7.200  0.8759  0.2240  0.0117
  408MOL0     C53728   6.213   1.501   7.251 -0.4276  1.4977  0.1139
  408MOL0     C53729   6.186   1.574   7.369 -0.4264  0.3244 -0.3971
  408MOL0     C53730   6.062   1.566   7.441  0.3711  0.7585 -0.0796
  408MOL0     C53731   5.965   1.477   7.387  0.5440 -1.0818  0.4951
  408MOL0     O53732   5.837   1.473   7.439 -0.3473 -0.3815 -0.0378
  408MOL0     C53733   5.808   1.548   7.557  0.4324  0.5763  0.2874
  408MOL0     C53734   5.675   1.482   7.622  0.0398 -1.6354 -0.8263
  408MOL0     C53735   5.556   1.500   7.529 -0.9618  0.7194 -0.4053
  408MOL0     C53736   5.421   1.439   7.579  0.1480 -0.2350  0.6882
  408MOL0     C53737   5.303   1.510   7.520 -0.3944  0.2116  0.5269
  408MOL0     C53738   5.175   1.433   7.553  0.1588 -0.4844 -0.3564
  408MOL0     C53739   5.052   1.509   7.498  0.0207 -0.5709 -0.1709
  408MOL0     C53740   5.018   1.644   7.563 -0.1169 -0.1802  0.5228
  408MOL0     N53741   4.972   1.615   7.702 -0.6480 -0.3624 -0.0797
  408MOL0     C53742   4.846   1.594   7.745 -0.2705 -1.2845  0.6352
  408MOL0     C53743   4.859   1.567   7.876  0.8195 -0.7054  0.0627
  408MOL0     C53744   4.739   1.524   7.961 -0.3004  0.4259  0.0439
  408MOL0     C53745   4.747   1.389   8.045  0.0245 -0.3442 -0.3046
  408MOL0     C53746   4.630   1.385   8.140  0.3634 -0.0579 -0.1870
  408MOL0     C53747   4.629   1.246   8.206 -0.9834  0.0885 -0.4983
  408MOL0     O53748   4.619   1.137   8.118 -0.1706 -0.2220  0.0921
  408MOL0     C53749   4.502   1.098   8.064 -0.1006  0.1235  1.0064
  408MOL0     C53750   4.379   1.107   8.127  0.1175 -0.6193  0.0583
  408MOL0     C53751   4.258   1.078   8.057  0.4214 -0.2295  0.3011
  408MOL0     C53752   4.264   1.045   7.917 -0.6506 -0.4595 -0.7595
  408MOL0     C53753   4.138   1.025   7.833 -0.2083  0.0428  0.1779
  408MOL0     O53754   4.154   0.986   7.707 -0.5626 -0.4972  0.9181
  408MOL0     C53755   4.045   0.993   7.624 -1.3169 -0.3815 -0.0878
  408MOL0     C53756   3.969   1.108   7.599 -0.6808  0.0138  0.3196
  408MOL0     C53757   3.885   1.116   7.492  0.0951  0.1337  0.2936
  408MOL0     C53758   3.866   0.995   7.416 -0.0126 -0.2642  1.1665
  408MOL0     O53759   3.767   1.002   7.322  0.0186  0.0176  0.3098
  408MOL0     C53760   3.756   0.901   7.223 -0.0929 -1.4867 -0.8469
  408MOL0     C53761   3.633   0.909   7.160 -0.9038  0.6951  0.2268
  408MOL0     C53762   3.622   0.798   7.048  0.6856 -0.4335  0.3414
  408MOL0     C53763   3.487   0.763   6.990  0.2495 -0.4635 -0.4511
  408MOL0     C53764   3.486   0.668   6.877 -0.0995 -0.1628  0.2826
  408MOL0     C53765   3.346   0.616   6.839 -0.7362  0.5574 -0.0987
  408MOL0     C53766   3.274   0.734   6.769 -0.1931 -0.0298 -0.4901
  408MOL0     C53767   3.131   0.688   6.750  0.4736  0.7654 -0.0995
  408MOL0    Cl53768   3.008   0.811   6.789  0.2224  0.6382  0.0810
  408MOL0     C53769   3.931   0.879   7.444 -0.0097  0.0624  0.5719
  408MOL0     C53770   4.022   0.877   7.553 -0.3124 -0.7278  0.6234
  408MOL0     O53771   4.029   1.048   7.887  0.2993 -0.5358 -0.7639
  408MOL0     C53772   4.386   1.034   7.859 -0.3246  0.9019 -0.0652
  408MOL0     C53773   4.504   1.036   7.934 -0.0035 -0.0878 -0.4300
  408MOL0     N53774   4.992   1.565   7.910 -0.1223 -1.4170  0.1146
  408MOL0     N53775   5.059   1.608   7.810 -0.0395 -0.1321 -0.3585
  408MOL0     C53776   5.988   1.411   7.265  0.1575  0.2876  0.2870
  408MOL0     C53777   6.111   1.419   7.196  0.4523 -0.1870  0.0690
  408MOL0     C53778   6.564   1.410   7.209 -0.1965  0.4490  0.0670
  408MOL0     C53779   6.600   1.482   7.087  0.6196  0.5197  0.4595
  408MOL0     C53780   6.736   1.494   7.042 -0.3342  0.4011  0.6251
  408MOL0     C53781   6.836   1.445   7.123  0.7481 -0.3880 -0.2020
  408MOL0     O53782   6.968   1.448   7.102 -0.0919  0.7799  0.3481
  408MOL0     C53783   7.001   1.512   6.975 -1.3467  0.5280 -0.2480
  408MOL0     C53784   7.159   1.508   6.980 -0.6407  0.5678  0.4087
  408MOL0     C53785   7.219   1.605   7.069 -0.2716  0.0833  0.6921
  408MOL0     C53786   7.374   1.604   7.053  0.2482  0.5167 -0.3606
  408MOL0     C53787   7.401   1.687   6.939 -0.3695  0.0430  0.2005
  408MOL0     C53788   7.407   1.768   6.849 -0.0568 -0.1172  0.0707
  408MOL0     C53789   6.803   1.378   7.248  0.7586  0.7285  1.0609
  408MOL0     C53790   6.671   1.352   7.284 -0.2691 -0.1456 -0.7320
  408MOL0     H53791   6.263   1.635   7.416 -0.6229 -0.4996  1.0324
  408MOL0     H53792   6.054   1.619   7.535  0.6427 -1.2914  1.1808
  408MOL0     H53793   5.783   1.649   7.524  1.0311  0.2179 -1.3839
  408MOL0     H53794   5.889   1.549   7.630 -0.5110 -2.1224  1.5218
  408MOL0     H53795   5.658   1.538   7.714 -0.1136 -5.9997  2.1329
  408MOL0     H53796   5.695   1.377   7.647 -0.1882 -1.0672  2.0755
  408MOL0     H53797   5.575   1.459   7.429 -4.3442  1.5470 -1.5393
  408MOL0     H53798   5.552   1.607   7.506  2.7156  0.9047 -0.8529
  408MOL0     H53799   5.417   1.335   7.545 -0.6837  0.5763 -1.8578
  408MOL0     H53800   5.416   1.443   7.689 -1.0218  0.0667  0.6360
  408MOL0     H53801   5.318   1.527   7.413 -0.9465 -0.1215  0.3958
  408MOL0     H53802   5.300   1.610   7.564 -0.6266 -0.5925  2.4175
  408MOL0     H53803   5.163   1.433   7.662  0.1287  4.1991 -0.1821
  408MOL0     H53804   5.180   1.330   7.517  3.9616 -0.7289  0.4685
  408MOL0     H53805   5.075   1.509   7.391  2.1552  0.5415  0.2391
  408MOL0     H53806   4.960   1.450   7.512  0.4410 -1.6383 -1.6026
  408MOL0     H53807   4.942   1.711   7.521 -1.0937 -0.8188  1.2454
  408MOL0     H53808   5.108   1.706   7.563  0.7268 -1.2658  3.4036
  408MOL0     H53809   4.758   1.598   7.682 -0.3601 -2.2624  0.6773
  408MOL0     H53810   4.653   1.515   7.893  0.3611  0.6934 -0.8501
  408MOL0     H53811   4.722   1.606   8.031  0.7593 -0.5647  1.5300
  408MOL0     H53812   4.838   1.383   8.106 -1.2947 -2.6158  1.6388
  408MOL0     H53813   4.744   1.298   7.984 -0.0992 -1.4792  1.2973
  408MOL0     H53814   4.636   1.450   8.227  3.5589  0.2176 -0.4905
  408MOL0     H53815   4.542   1.414   8.082  0.1798  1.9942  1.0156
  408MOL0     H53816   4.548   1.246   8.280 -0.9031 -0.4469 -0.4125
  408MOL0     H53817   4.722   1.246   8.264 -2.6544  1.5513  2.4487
  408MOL0     H53818   4.372   1.146   8.228  0.5518 -2.1096  0.7003
  408MOL0     H53819   4.159   1.083   8.102 -0.6434  0.9236 -1.9986
  408MOL0     H53820   3.997   1.196   7.657 -0.2149 -0.6921  1.1942
  408MOL0     H53821   3.816   1.199   7.476 -2.2835 -1.1147  3.1790
  408MOL0     H53822   3.758   0.806   7.276  2.4694 -0.3057  1.3627
  408MOL0     H53823   3.830   0.904   7.143  0.0263 -2.3751 -0.7812
  408MOL0     H53824   3.603   1.006   7.118 -0.5228  0.7925  0.1787
  408MOL0     H53825   3.554   0.882   7.231  1.7367 -1.9319  2.4481
  408MOL0     H53826   3.664   0.706   7.091  1.7411  0.9525  2.3869
  408MOL0     H53827   3.683   0.834   6.965  3.6479  0.5349  2.7672
  408MOL0     H53828   3.431   0.707   7.066 -1.7746  0.2889 -1.3157
  408MOL0     H53829   3.427   0.850   6.961  1.0343 -0.4944 -2.3528
  408MOL0     H53830   3.545   0.586   6.917  0.0224  0.1732  0.7993
  408MOL0     H53831   3.527   0.708   6.784 -3.0471 -1.7312 -1.8670
  408MOL0     H53832   3.298   0.584   6.933  0.3009  0.0764  0.2809
  408MOL0     H53833   3.353   0.527   6.776 -0.7245 -1.5950  2.7069
  408MOL0     H53834   3.252   0.826   6.825  1.3278  3.1883 -4.6617
  408MOL0     H53835   3.330   0.766   6.681  1.4427  1.7000  1.0732
  408MOL0     H53836   3.100   0.602   6.810  2.3584  0.3058  0.2917
  408MOL0     H53837   3.118   0.651   6.648  0.4708 -1.0226  0.5178
  408MOL0     H53838   3.932   0.786   7.388 -1.3285  0.9712 -1.0687
  408MOL0     H53839   4.104   0.808   7.571  2.4593  2.4742  1.3774
  408MOL0     H53840   4.398   1.032   7.751 -1.6288  0.4363 -0.2256
  408MOL0     H53841   4.604   1.016   7.895 -1.2691 -3.9176 -2.2489
  408MOL0     H53842   5.904   1.361   7.219 -0.6139  0.8834  1.0226
  408MOL0     H53843   6.121   1.356   7.108  1.9888 -1.5373  1.1655
  408MOL0     H53844   6.511   1.518   7.036 -1.3250 -2.9282  1.1818
  408MOL0     H53845   6.765   1.549   6.953  0.4782 -0.4640  0.3310
  408MOL0     H53846   6.974   1.615   6.950  1.1955  1.0991 -0.9793
  408MOL0     H53847   6.970   1.444   6.895  1.4146 -3.4318  1.7176
  408MOL0     H53848   7.181   1.402   6.992  1.3865  0.3115 -3.6929
  408MOL0     H53849   7.194   1.541   6.882  1.4829 -2.2178  0.1330
  408MOL0     H53850   7.196   1.571   7.171  0.7818  0.0951  0.9483
  408MOL0     H53851   7.175   1.703   7.049 -0.1453  0.0012  0.0051
  408MOL0     H53852   7.416   1.657   7.139 -0.5734  1.3993 -0.4831
  408MOL0     H53853   7.424   1.507   7.045 -1.8127 -0.6754  0.4396
  408MOL0     H53854   7.419   1.856   6.790 -1.0323  0.2900  0.4617
  408MOL0     H53855   6.880   1.335   7.311  2.1669 -0.0993 -1.1225
  408MOL0     H53856   6.661   1.287   7.370 -0.8552 -2.1549 -2.2121
  409MOL0     O53857   4.445  10.916   7.315  0.6978  0.1598  0.2133
  409MOL0     C53858   4.359  10.999   7.277  0.2541 -0.5221 -0.3439
  409MOL0     O53859   4.353  11.039   7.149  0.7169 -0.3834 -0.3793
  409MOL0     C53860   4.452  11.025   7.056 -0.5093  0.5167 -0.1043
  409MOL0     C53861   4.592  11.059   7.085  0.0707  0.2962  0.6865
  409MOL0     C53862   4.683  11.065   6.980 -0.1601 -0.2189 -0.0708
  409MOL0     C53863   4.643  11.058   6.849  0.1712  1.0879 -0.2217
  409MOL0     O53864   4.745  11.064   6.750 -0.3149  0.7518 -0.5613
  409MOL0     C53865   4.727  10.976   6.635  0.5079  0.2243  0.6870
  409MOL0     C53866   4.853  10.908   6.599  0.5481 -0.1291  0.4882
  409MOL0     C53867   4.826  10.812   6.479 -0.1112 -0.1823  0.4994
  409MOL0     C53868   4.969  10.765   6.437  0.7086  0.3669  0.8738
  409MOL0     C53869   5.049  10.676   6.530  0.4168 -1.4237  0.1758
  409MOL0     C53870   4.991  10.549   6.578  0.3770 -0.3907  0.9973
  409MOL0     C53871   5.073  10.472   6.674  0.2458  0.4265  0.5776
  409MOL0     C53872   5.074  10.320   6.627  0.4589 -0.7266 -0.0297
  409MOL0     N53873   4.952  10.260   6.579  0.2746  0.1334 -0.1596
  409MOL0     C53874   4.824  10.273   6.638  0.5688 -0.2598 -0.5769
  409MOL0     C53875   4.741  10.222   6.542 -0.1244  0.0815  0.1074
  409MOL0     C53876   4.592  10.230   6.546  0.7090  0.6896  0.5335
  409MOL0     C53877   4.529  10.368   6.536  1.1398 -0.0095  0.8736
  409MOL0     C53878   4.504  10.439   6.681  0.4432  0.7991  1.1246
  409MOL0     C53879   4.378  10.399   6.760  0.7453  0.4575 -0.6141
  409MOL0     O53880   4.403  10.281   6.818  0.1879  0.7070  0.2931
  409MOL0     C53881   4.335  10.236   6.922 -0.8834  0.8195 -0.0224
  409MOL0     C53882   4.383  10.131   6.999  0.5695  1.3595 -0.6036
  409MOL0     C53883   4.318  10.080   7.111 -0.0020  0.5882 -0.7367
  409MOL0     C53884   4.201  10.137   7.154  0.7804 -1.4284 -0.8339
  409MOL0     C53885   4.122  10.099   7.283 -0.5909  0.8907 -1.1763
  409MOL0     O53886   3.998  10.155   7.305  0.2968 -0.0148  0.1256
  409MOL0     C53887   3.935  10.123   7.425 -0.1531  0.8847 -0.9464
  409MOL0     C53888   3.983  10.189   7.536  0.1651 -0.0594 -0.3637
  409MOL0     C53889   3.919  10.174   7.658  0.4185  0.6025  0.0011
  409MOL0     C53890   3.783  10.113   7.659  0.1309 -0.1974 -0.2340
  409MOL0     O53891   3.708  10.090   7.768  0.4124 -0.4568 -0.9469
  409MOL0     C53892   3.749  10.105   7.900  0.9305 -0.0150  0.3835
  409MOL0     C53893   3.764   9.966   7.963  0.1993  0.9989  0.1396
  409MOL0     C53894   3.861   9.875   7.893 -0.7372 -0.1881 -0.5911
  409MOL0     C53895   4.004   9.902   7.943 -0.2005 -0.4183 -0.4017
  409MOL0     C53896   4.116   9.837   7.853  0.7633 -0.2688  0.7568
  409MOL0     C53897   4.228   9.935   7.812  0.1043 -0.4336 -0.8287
  409MOL0     C53898   4.316   9.890   7.694 -0.1228  0.0717  0.1157
  409MOL0     C53899   4.410  10.013   7.661 -0.0593  0.5349 -0.3686
  409MOL0    Cl53900   4.563  10.009   7.755 -0.0764  0.3393 -0.4032
  409MOL0     C53901   3.723  10.070   7.546 -0.2315 -0.4168  0.3561
  409MOL0     C53902   3.804  10.070   7.431  0.3533  1.0436  1.1671
  409MOL0     O53903   4.183  10.024   7.364  1.3902 -0.4051  0.2016
  409MOL0     C53904   4.140  10.246   7.071 -0.0598  1.6750 -0.1478
  409MOL0     C53905   4.212  10.286   6.962  0.3270  0.4650  0.7301
  409MOL0     N53906   4.819  10.178   6.430 -0.2409  0.6380 -0.1505
  409MOL0     N53907   4.945  10.197   6.455  1.1147 -0.2310  0.6037
  409MOL0     C53908   4.507  11.031   6.826 -0.3936  0.7141  0.1118
  409MOL0     C53909   4.414  11.015   6.926  0.4137 -0.4554  0.1003
  409MOL0     C53910   4.259  11.054   7.379 -0.6000 -0.4111  0.8950
  409MOL0     C53911   4.151  11.135   7.344 -0.4292 -0.0380  1.0058
  409MOL0     C53912   4.075  11.206   7.437  0.8812 -0.4905 -0.2320
  409MOL0     C53913   4.090  11.178   7.574  0.5562 -0.9679  0.2809
  409MOL0     O53914   4.009  11.261   7.654  0.7643 -0.4896  0.1639
  409MOL0     C53915   4.028  11.252   7.794  0.4088  0.5181 -0.3853
  409MOL0     C53916   3.897  11.293   7.854  0.3769 -0.2111 -0.8390
  409MOL0     C53917   3.888  11.446   7.873 -0.1020  0.0608  0.5483
  409MOL0     C53918   3.848  11.519   7.743  0.9325 -0.1840 -1.3448
  409MOL0     C53919   3.700  11.506   7.717  0.0579  0.7416  0.7659
  409MOL0     C53920   3.592  11.500   7.676  0.2625  0.0902  0.3914
  409MOL0     C53921   4.198  11.096   7.613  0.0961 -1.5100 -0.2685
  409MOL0     C53922   4.280  11.035   7.517 -0.6213  0.0430 -0.5916
  409MOL0     H53923   4.614  11.092   7.186 -0.7454  1.5309  0.4793
  409MOL0     H53924   4.789  11.084   6.995 -0.3737  2.9630 -1.7744
  409MOL0     H53925   4.690  11.029   6.547  1.7459 -1.1022 -0.6838
  409MOL0     H53926   4.651  10.898   6.646 -1.0945  1.4053 -1.2789
  409MOL0     H53927   4.890  10.857   6.688  2.1099  0.5397  0.2554
  409MOL0     H53928   4.928  10.976   6.556 -0.9326 -0.3952 -2.8666
  409MOL0     H53929   4.778  10.862   6.394 -4.0159  1.0767  3.1050
  409MOL0     H53930   4.763  10.731   6.518  0.7675 -1.1180  0.0028
  409MOL0     H53931   4.962  10.707   6.345  1.3035  2.3040 -0.4506
  409MOL0     H53932   5.036  10.851   6.425  3.1454 -1.2666  1.8384
  409MOL0     H53933   5.063  10.736   6.621  2.4026 -0.1514 -0.8798
  409MOL0     H53934   5.138  10.648   6.472  0.7110 -0.9278  0.3765
  409MOL0     H53935   4.963  10.496   6.487  1.2099  3.1283 -1.5285
  409MOL0     H53936   4.899  10.575   6.632 -0.2639  1.8871 -1.0289
  409MOL0     H53937   5.176  10.510   6.679  1.4217 -2.6429  2.7641
  409MOL0     H53938   5.034  10.478   6.775  0.3189  1.2420  0.5667
  409MOL0     H53939   5.103  10.252   6.708  1.0843  0.9754  1.2274
  409MOL0     H53940   5.141  10.317   6.541 -0.3966  0.6435 -0.7960
  409MOL0     H53941   4.787  10.322   6.728 -1.5768  0.9251 -1.9985
  409MOL0     H53942   4.562  10.187   6.642 -2.5317 -0.6828 -0.9450
  409MOL0     H53943   4.538  10.159   6.483  2.5297 -0.5510  0.2981
  409MOL0     H53944   4.436  10.356   6.479  1.1583 -0.8094  1.0004
  409MOL0     H53945   4.596  10.431   6.477  0.5250 -2.2513 -2.4795
  409MOL0     H53946   4.584  10.412   6.750 -1.6399 -0.8118  3.0745
  409MOL0     H53947   4.509  10.547   6.666  1.4481  0.5936 -0.2312
  409MOL0     H53948   4.293  10.399   6.691 -1.1366 -1.9819  1.5071
  409MOL0     H53949   4.359  10.474   6.838 -1.1699 -1.1990  0.5969
  409MOL0     H53950   4.478  10.084   6.974  1.0327  1.5375  0.7526
  409MOL0     H53951   4.362   9.992   7.155 -0.4299  0.6264 -0.2254
  409MOL0     H53952   4.075  10.245   7.519  1.3678 -2.5446 -2.9422
  409MOL0     H53953   3.965  10.210   7.749 -1.1950 -0.8043  1.4473
  409MOL0     H53954   3.672  10.149   7.964  1.2016 -0.3493  0.9413
  409MOL0     H53955   3.843  10.160   7.908  1.2339 -0.2622 -1.2310
  409MOL0     H53956   3.669   9.912   7.966  0.7675 -0.3697  6.4675
  409MOL0     H53957   3.784   9.970   8.070 -0.7219 -1.8028  0.4851
  409MOL0     H53958   3.851   9.882   7.784 -1.4544 -0.0016 -0.5176
  409MOL0     H53959   3.843   9.768   7.903  2.3235 -0.5768  2.5546
  409MOL0     H53960   4.016  10.011   7.936 -1.4020  0.0595  3.1940
  409MOL0     H53961   4.021   9.880   8.048  4.9461  1.4940 -0.5317
  409MOL0     H53962   4.052   9.790   7.778 -0.5514 -0.8685  2.2076
  409MOL0     H53963   4.161   9.756   7.911  0.8260 -0.9338 -0.1996
  409MOL0     H53964   4.297   9.955   7.895 -0.5445  0.7172 -0.5450
  409MOL0     H53965   4.177  10.030   7.796 -0.9775 -0.5255  1.6147
  409MOL0     H53966   4.373   9.800   7.719  0.3087  0.6021  1.1023
  409MOL0     H53967   4.260   9.865   7.603  2.2499 -2.8238 -0.7118
  409MOL0     H53968   4.351  10.104   7.676  1.5342  1.3733  1.1916
  409MOL0     H53969   4.436  10.017   7.554  1.5106  1.9963  0.0295
  409MOL0     H53970   3.624  10.026   7.540 -0.7215  0.8364 -1.2847
  409MOL0     H53971   3.740  10.034   7.351  0.4594  1.1660  1.0270
  409MOL0     H53972   4.039  10.286   7.078 -1.2918 -1.1393 -0.2044
  409MOL0     H53973   4.154  10.349   6.895  0.4431 -2.6311 -2.5722
  409MOL0     H53974   4.471  11.027   6.724 -0.7355 -0.9396  0.2694
  409MOL0     H53975   4.309  11.018   6.900  1.0584  1.8608 -2.6402
  409MOL0     H53976   4.114  11.141   7.243  0.3047  1.4010  0.7963
  409MOL0     H53977   3.998  11.269   7.394 -1.5251 -2.8883  0.2414
  409MOL0     H53978   4.119  11.308   7.818  0.0208  2.2882 -2.6542
  409MOL0     H53979   4.038  11.146   7.818 -1.2183  0.7049  1.4055
  409MOL0     H53980   3.818  11.261   7.785 -0.8524 -1.3736  1.0004
  409MOL0     H53981   3.878  11.245   7.951  0.7111 -2.5359 -1.8746
  409MOL0     H53982   3.986  11.478   7.910  0.3890 -0.8456  0.0473
  409MOL0     H53983   3.810  11.477   7.944  2.1253  2.5969  2.0946
  409MOL0     H53984   3.868  11.624   7.768  3.5410 -0.8762 -0.1597
  409MOL0     H53985   3.915  11.480   7.666  2.9090 -1.5363  0.9150
  409MOL0     H53986   3.495  11.500   7.631  0.9256 -0.3414 -1.0659
  409MOL0     H53987   4.221  11.098   7.719 -1.5259  0.2112  0.1013
  409MOL0     H53988   4.365  10.977   7.552 -0.4696  0.9344  0.6081
  410MOL0     O53989   5.544   6.477   3.063 -0.6529 -0.5717 -0.3551
  410MOL0     C53990   5.529   6.568   3.146  0.3322  0.4248  0.0969
  410MOL0     O53991   5.475   6.557   3.261  0.3969 -0.2892  0.4369
  410MOL0     C53992   5.431   6.431   3.309  0.0894  0.4805  0.0820
  410MOL0     C53993   5.340   6.351   3.230  0.9833  0.9379  0.7016
  410MOL0     C53994   5.302   6.225   3.278  0.5221  0.1291  0.2259
  410MOL0     C53995   5.359   6.170   3.393 -0.7825 -0.2265 -1.3733
  410MOL0     O53996   5.349   6.044   3.439 -0.1618  0.6162  0.0149
  410MOL0     C53997   5.227   5.981   3.405 -1.2692 -0.8937 -0.1054
  410MOL0     C53998   5.240   5.851   3.479 -0.5444  0.5105  0.2437
  410MOL0     C53999   5.122   5.750   3.440 -0.1733  0.5696 -0.6660
  410MOL0     C54000   4.985   5.796   3.486 -0.1569  0.3126 -0.3940
  410MOL0     C54001   4.944   5.739   3.627  0.1012 -0.0054 -0.0606
  410MOL0     C54002   4.845   5.846   3.686  0.0922  0.7068  0.3587
  410MOL0     C54003   4.806   5.801   3.833  0.2653  0.1580 -0.3498
  410MOL0     C54004   4.693   5.879   3.894 -0.0912  0.1594  0.1082
  410MOL0     N54005   4.568   5.866   3.817  0.2338 -0.0896 -0.5199
  410MOL0     C54006   4.522   5.971   3.741  0.1531 -0.2684 -1.0489
  410MOL0     C54007   4.392   5.932   3.721  0.1767  0.7859 -0.2700
  410MOL0     C54008   4.314   5.996   3.609 -0.1360  0.4623 -0.0159
  410MOL0     C54009   4.198   6.072   3.669 -0.0572 -0.1578 -0.3266
  410MOL0     C54010   4.239   6.189   3.759 -0.1874 -0.5350 -0.2632
  410MOL0     C54011   4.299   6.293   3.657 -0.0519 -0.0681 -0.2442
  410MOL0     O54012   4.439   6.274   3.653  0.1682 -1.0741 -0.2361
  410MOL0     C54013   4.522   6.384   3.642  0.7544  0.7301  0.2422
  410MOL0     C54014   4.662   6.366   3.637  0.1619  0.3945 -0.3752
  410MOL0     C54015   4.746   6.476   3.621 -0.4423  0.3114 -1.2936
  410MOL0     C54016   4.699   6.603   3.613 -0.2278 -0.6243 -0.5994
  410MOL0     C54017   4.800   6.722   3.604 -0.2465  1.2167  0.1389
  410MOL0     O54018   4.745   6.846   3.619 -0.0239  0.0743  1.6520
  410MOL0     C54019   4.831   6.947   3.655  0.6198 -1.4713 -0.0283
  410MOL0     C54020   4.836   6.989   3.791  0.5036 -0.0858  0.5616
  410MOL0     C54021   4.924   7.081   3.841  0.2270 -0.2322 -0.1004
  410MOL0     C54022   5.007   7.141   3.749 -0.5952  0.1131 -0.0928
  410MOL0     O54023   5.095   7.239   3.778 -0.1861 -0.6447 -0.0710
  410MOL0     C54024   5.112   7.283   3.911 -0.4463 -0.5510 -0.6371
  410MOL0     C54025   5.230   7.372   3.943  0.2250  0.7931  0.0426
  410MOL0     C54026   5.226   7.512   3.881  0.6367  1.0726  0.4482
  410MOL0     C54027   5.336   7.607   3.925 -0.1096  0.8150 -0.3827
  410MOL0     C54028   5.310   7.754   3.892 -0.9083  0.2387  0.3311
  410MOL0     C54029   5.419   7.849   3.944  0.2911 -1.0856 -0.4771
  410MOL0     C54030   5.412   7.988   3.876  0.6886  0.5050  0.5002
  410MOL0     C54031   5.507   8.083   3.939  0.5146  0.5123 -0.0579
  410MOL0    Cl54032   5.681   8.015   3.940  0.4958 -0.0760 -0.0140
  410MOL0     C54033   5.004   7.109   3.612 -0.5520 -1.1421 -0.9797
  410MOL0     C54034   4.923   7.013   3.569  0.9766  0.3363 -0.7347
  410MOL0     O54035   4.921   6.706   3.579 -0.0655 -0.4568 -0.2891
  410MOL0     C54036   4.566   6.628   3.629  0.3516 -0.0287  0.0941
  410MOL0     C54037   4.477   6.519   3.639 -1.0526  0.3996 -0.7693
  410MOL0     N54038   4.354   5.824   3.796 -0.3162 -0.6720 -0.1816
  410MOL0     N54039   4.468   5.790   3.855  0.5746  0.6455  0.0326
  410MOL0     C54040   5.460   6.246   3.461 -0.8473  0.1272 -0.1939
  410MOL0     C54041   5.490   6.371   3.428 -0.3178  0.0150 -0.3887
  410MOL0     C54042   5.541   6.714   3.107  0.0604  0.4578 -0.4861
  410MOL0     C54043   5.523   6.820   3.194  0.0711  0.1455  0.2662
  410MOL0     C54044   5.560   6.947   3.156  0.3227  0.6037 -1.4456
  410MOL0     C54045   5.589   6.970   3.024  0.1075 -0.3246  0.0367
  410MOL0     O54046   5.607   7.108   2.990 -0.6371 -0.2434 -0.4134
  410MOL0     C54047   5.622   7.141   2.856  0.6232 -0.9588  0.3890
  410MOL0     C54048   5.773   7.157   2.831 -1.2371 -0.0443  0.1054
  410MOL0     C54049   5.834   7.288   2.896  0.3614  0.1216 -0.9011
  410MOL0     C54050   5.921   7.365   2.798  0.0516  0.0514 -0.3497
  410MOL0     C54051   5.946   7.494   2.852 -0.2783  0.0216 -1.0818
  410MOL0     C54052   5.982   7.597   2.905 -0.5995 -0.1985  0.1130
  410MOL0     C54053   5.610   6.863   2.936  0.6774 -0.4915  0.7138
  410MOL0     C54054   5.587   6.741   2.979  0.7471  0.7512 -0.2430
  410MOL0     H54055   5.291   6.391   3.143 -0.0961 -1.8773 -0.0859
  410MOL0     H54056   5.232   6.173   3.213  1.1913  0.0566 -0.4624
  410MOL0     H54057   5.217   5.961   3.298 -2.0402  2.2489 -0.7006
  410MOL0     H54058   5.144   6.039   3.445 -3.6470 -1.5683 -3.5686
  410MOL0     H54059   5.245   5.874   3.586  2.9214 -0.3447  0.3594
  410MOL0     H54060   5.334   5.802   3.456 -0.3994  0.4231  1.0085
  410MOL0     H54061   5.137   5.654   3.491 -5.4386 -0.6119 -0.7961
  410MOL0     H54062   5.138   5.724   3.335  1.7768  0.3854 -0.3545
  410MOL0     H54063   4.981   5.905   3.494  1.5375  0.4578 -1.1418
  410MOL0     H54064   4.908   5.761   3.417 -0.3381  0.9424 -0.5147
  410MOL0     H54065   5.035   5.737   3.688 -0.1593 -0.3442  0.3205
  410MOL0     H54066   4.893   5.643   3.610 -1.8384  1.4244 -3.1479
  410MOL0     H54067   4.755   5.854   3.624 -0.8243 -4.3637  0.6000
  410MOL0     H54068   4.888   5.946   3.697 -0.9933  1.6572 -2.9623
  410MOL0     H54069   4.772   5.698   3.841  2.8807 -0.6745  2.0542
  410MOL0     H54070   4.892   5.803   3.901 -1.2598  1.5610  1.6604
  410MOL0     H54071   4.721   5.984   3.906 -0.7988  0.3773 -0.0543
  410MOL0     H54072   4.679   5.837   3.994 -2.0400 -0.6070 -0.4352
  410MOL0     H54073   4.563   6.060   3.695 -2.5270  1.4622 -0.3099
  410MOL0     H54074   4.267   5.921   3.545  1.9233 -3.0959  2.3078
  410MOL0     H54075   4.372   6.062   3.544  1.6214 -0.1739  0.8581
  410MOL0     H54076   4.146   6.003   3.736  0.6291  1.6792  2.2254
  410MOL0     H54077   4.124   6.093   3.591 -0.6203  1.7324  0.6621
  410MOL0     H54078   4.149   6.231   3.806  0.0994  0.9654 -1.0159
  410MOL0     H54079   4.311   6.160   3.836  3.0174  0.8194 -2.5412
  410MOL0     H54080   4.262   6.391   3.690 -2.4479 -1.3391  1.0822
  410MOL0     H54081   4.255   6.277   3.558  1.0575 -3.1516 -0.3611
  410MOL0     H54082   4.703   6.266   3.647  0.2090  0.6197  2.9597
  410MOL0     H54083   4.854   6.463   3.616 -0.1664  0.8251  1.7785
  410MOL0     H54084   4.771   6.942   3.864  3.1692 -0.8060  2.6377
  410MOL0     H54085   4.920   7.104   3.947 -0.5295 -0.9972  0.0477
  410MOL0     H54086   5.142   7.198   3.973 -1.7573 -0.1199  0.6434
  410MOL0     H54087   5.021   7.333   3.948  0.5035  1.0298 -0.3182
  410MOL0     H54088   5.322   7.327   3.904 -1.0257 -0.5499 -1.4802
  410MOL0     H54089   5.232   7.374   4.052 -1.9003 -3.2096  0.3294
  410MOL0     H54090   5.132   7.559   3.909  0.6608 -0.2656  3.1842
  410MOL0     H54091   5.233   7.499   3.773  1.8058 -1.5881  0.7559
  410MOL0     H54092   5.362   7.612   4.031 -0.9187  0.6275 -0.1653
  410MOL0     H54093   5.414   7.567   3.859 -3.1155 -1.5778 -2.8255
  410MOL0     H54094   5.212   7.773   3.937 -1.4429  0.2414 -0.8031
  410MOL0     H54095   5.292   7.773   3.786 -0.0366  1.4892  0.3804
  410MOL0     H54096   5.521   7.811   3.936  0.3853 -1.4052  1.7599
  410MOL0     H54097   5.407   7.853   4.052  1.7727  0.4551 -0.3297
  410MOL0     H54098   5.451   7.972   3.775  1.6083  2.5754  0.4834
  410MOL0     H54099   5.311   8.030   3.877  1.1643  1.7634 -0.6004
  410MOL0     H54100   5.477   8.087   4.044  1.7917 -0.3565  0.3564
  410MOL0     H54101   5.505   8.184   3.895 -2.0746  1.0353  1.0751
  410MOL0     H54102   5.061   7.168   3.540 -0.8792  0.2529 -0.1459
  410MOL0     H54103   4.921   6.989   3.463  0.9088  1.3810 -0.9835
  410MOL0     H54104   4.526   6.728   3.618  0.5120 -0.0449 -0.7456
  410MOL0     H54105   4.373   6.549   3.642 -0.9530  0.7042 -0.3230
  410MOL0     H54106   5.508   6.200   3.548 -1.9982  1.3709  1.1540
  410MOL0     H54107   5.558   6.438   3.479  1.3349 -0.0741 -2.3135
  410MOL0     H54108   5.482   6.825   3.294  0.8668  0.5116  0.5872
  410MOL0     H54109   5.557   7.021   3.234  0.8651 -1.0970  0.2639
  410MOL0     H54110   5.585   7.242   2.834  0.3702 -1.4821 -1.8178
  410MOL0     H54111   5.579   7.071   2.784  0.8333  0.4903 -1.1902
  410MOL0     H54112   5.834   7.077   2.873  3.0583  1.2625 -2.8601
  410MOL0     H54113   5.790   7.148   2.723 -0.1474 -1.0092  0.3382
  410MOL0     H54114   5.889   7.265   2.988 -0.0338 -1.8854 -1.1243
  410MOL0     H54115   5.748   7.350   2.923 -1.5664 -3.6894  2.9644
  410MOL0     H54116   6.018   7.315   2.794 -0.4039 -0.7985 -1.8067
  410MOL0     H54117   5.883   7.365   2.695  2.2570 -2.2285 -1.2878
  410MOL0     H54118   6.014   7.691   2.945  1.6389 -0.0944 -1.7055
  410MOL0     H54119   5.618   6.873   2.828 -1.4031 -0.8409  0.4919
  410MOL0     H54120   5.606   6.654   2.916  2.0502 -1.8182  3.3913
  411MOL0     O54121   1.017   8.717   3.172  0.1770  0.2330  0.0679
  411MOL0     C54122   1.017   8.655   3.283  0.4036 -0.3615  0.2909
  411MOL0     O54123   1.055   8.707   3.408 -1.0766 -0.5454 -0.0362
  411MOL0     C54124   1.111   8.827   3.392  0.4914  0.0467  0.4622
  411MOL0     C54125   1.023   8.929   3.378 -0.1421  0.3170  0.1505
  411MOL0     C54126   1.063   9.065   3.388  0.1091  1.1101 -0.6944
  411MOL0     C54127   1.198   9.100   3.420 -0.1456  0.4596 -0.4585
  411MOL0     O54128   1.247   9.222   3.436 -0.2773  0.1232 -0.8951
  411MOL0     C54129   1.290   9.247   3.573  0.3414  0.1565  0.2724
  411MOL0     C54130   1.299   9.401   3.588 -0.3246  0.5329  0.2463
  411MOL0     C54131   1.374   9.487   3.475 -0.7846  0.6756 -0.3089
  411MOL0     C54132   1.524   9.462   3.465  0.6737  0.0588  0.3458
  411MOL0     C54133   1.571   9.526   3.334 -0.2942  0.1167 -0.3342
  411MOL0     C54134   1.722   9.504   3.324 -0.3599 -0.2216 -0.5820
  411MOL0     C54135   1.775   9.551   3.189  0.6601 -0.3208  0.7460
  411MOL0     C54136   1.924   9.583   3.183 -0.1323 -0.4786  0.5146
  411MOL0     N54137   2.002   9.465   3.230  0.9996  0.6403 -0.3554
  411MOL0     C54138   2.002   9.333   3.191  0.7422  0.0303 -0.4769
  411MOL0     C54139   2.088   9.268   3.265  0.4708 -0.7699 -0.3654
  411MOL0     C54140   2.128   9.123   3.237  0.0637 -0.4858 -0.9182
  411MOL0     C54141   2.263   9.111   3.166  0.4942  0.6402 -0.1974
  411MOL0     C54142   2.282   9.216   3.047  0.0108 -1.1223 -0.2228
  411MOL0     C54143   2.431   9.224   2.985  0.3270 -0.2831  0.1622
  411MOL0     O54144   2.461   9.093   2.936 -0.5430 -0.5438 -0.4939
  411MOL0     C54145   2.567   9.081   2.848  0.4304  0.0720 -0.4361
  411MOL0     C54146   2.694   9.144   2.869 -0.3785  0.1413  1.5335
  411MOL0     C54147   2.794   9.123   2.779 -0.4309  0.3488 -0.2568
  411MOL0     C54148   2.783   9.033   2.666  0.1043 -0.0432  0.0425
  411MOL0     C54149   2.904   9.009   2.588  0.0289  0.1160 -0.0491
  411MOL0     O54150   2.878   8.921   2.492 -1.3471 -0.4832  0.3511
  411MOL0     C54151   2.995   8.865   2.435  0.0236 -0.1739 -0.0164
  411MOL0     C54152   3.016   8.878   2.297  0.6732 -0.1848  0.5225
  411MOL0     C54153   3.121   8.819   2.225  0.6797  0.4225 -1.0039
  411MOL0     C54154   3.217   8.751   2.310  0.4791 -0.0962 -0.1312
  411MOL0     O54155   3.337   8.708   2.264  0.3152 -0.4098  0.4038
  411MOL0     C54156   3.346   8.651   2.134 -0.3703  0.5715 -0.9687
  411MOL0     C54157   3.489   8.610   2.105 -0.1726  0.9136  0.0080
  411MOL0     C54158   3.502   8.551   1.959 -0.2654  0.3864 -1.5576
  411MOL0     C54159   3.645   8.500   1.950  1.0648 -0.3787 -0.6622
  411MOL0     C54160   3.678   8.480   1.797  0.3596  0.4977 -1.0613
  411MOL0     C54161   3.580   8.380   1.743  0.0202  0.8081  0.5775
  411MOL0     C54162   3.594   8.356   1.588 -0.1509  0.1860  0.3349
  411MOL0     C54163   3.526   8.222   1.563  0.0048 -0.4480  0.4756
  411MOL0    Cl54164   3.643   8.095   1.604 -0.0913 -0.3074 -0.5276
  411MOL0     C54165   3.184   8.725   2.448 -0.5414  0.0790 -0.9174
  411MOL0     C54166   3.070   8.779   2.509 -0.2404 -0.6589 -0.4976
  411MOL0     O54167   3.011   9.059   2.614 -0.4008  0.5380 -0.6176
  411MOL0     C54168   2.645   8.973   2.645 -1.2079 -0.3164  0.1282
  411MOL0     C54169   2.549   8.993   2.742  0.4548  0.7269 -0.4349
  411MOL0     N54170   2.149   9.360   3.342 -0.1114  0.0580 -0.0523
  411MOL0     N54171   2.100   9.476   3.318 -0.0119  0.0634 -0.5991
  411MOL0     C54172   1.291   8.993   3.423 -0.3636  0.3786  0.0823
  411MOL0     C54173   1.248   8.859   3.426  0.1257  0.4862  0.5688
  411MOL0     C54174   0.933   8.533   3.288 -0.6851 -0.4898  0.2362
  411MOL0     C54175   0.838   8.514   3.182  0.1875 -0.1260  0.1162
  411MOL0     C54176   0.734   8.429   3.203  0.2747  0.3623 -0.1666
  411MOL0     C54177   0.716   8.353   3.321  0.4171  0.9357 -0.4605
  411MOL0     O54178   0.596   8.278   3.334 -0.5410 -0.2719 -0.5655
  411MOL0     C54179   0.568   8.240   3.467 -0.1566  0.0919  0.0034
  411MOL0     C54180   0.548   8.352   3.571 -0.0991 -1.0734  0.1078
  411MOL0     C54181   0.448   8.462   3.532 -0.5627 -0.2214 -0.1330
  411MOL0     C54182   0.300   8.428   3.534 -0.5035 -0.2752 -0.0603
  411MOL0     C54183   0.244   8.464   3.664  0.2461 -0.3501 -0.0994
  411MOL0     C54184   0.197   8.508   3.766 -0.3146 -0.5055 -0.3036
  411MOL0     C54185   0.820   8.354   3.411 -0.5764 -0.8223 -0.2286
  411MOL0     C54186   0.922   8.453   3.401  1.1910 -0.3691  0.0596
  411MOL0     H54187   0.921   8.901   3.353  1.2067 -2.0504 -3.5737
  411MOL0     H54188   0.989   9.144   3.382 -0.3030  0.9300  1.3788
  411MOL0     H54189   1.381   9.197   3.607  0.8998  0.2940 -0.9461
  411MOL0     H54190   1.209   9.208   3.635  2.5168 -1.1546  2.4551
  411MOL0     H54191   1.352   9.427   3.680  2.6391 -0.2025 -1.1425
  411MOL0     H54192   1.195   9.435   3.586 -0.9717 -1.0198  2.5900
  411MOL0     H54193   1.349   9.585   3.517 -1.8962 -1.2359  4.0617
  411MOL0     H54194   1.319   9.475   3.382  1.2139 -0.4347 -1.4129
  411MOL0     H54195   1.589   9.485   3.550  1.7805 -0.4020 -0.3440
  411MOL0     H54196   1.530   9.355   3.446 -0.2630  0.4991 -3.1437
  411MOL0     H54197   1.544   9.630   3.315  0.6200 -0.1822 -4.1095
  411MOL0     H54198   1.511   9.469   3.263  1.6635  0.9415 -2.7742
  411MOL0     H54199   1.753   9.399   3.330  3.0400  0.5133 -2.5023
  411MOL0     H54200   1.771   9.564   3.401  1.6367 -0.5463 -1.5233
  411MOL0     H54201   1.754   9.470   3.119 -0.4696 -0.9344  1.7455
  411MOL0     H54202   1.725   9.645   3.165  1.6269 -0.7734 -4.0071
  411MOL0     H54203   1.952   9.660   3.255  0.1751 -1.3795  1.3913
  411MOL0     H54204   1.954   9.610   3.082  0.5641 -1.7664  0.3483
  411MOL0     H54205   1.933   9.297   3.116  0.8653  0.5448 -0.8419
  411MOL0     H54206   2.047   9.077   3.179 -1.6697  0.9476  0.2757
  411MOL0     H54207   2.131   9.066   3.330  0.6788 -1.3152 -1.4343
  411MOL0     H54208   2.272   9.007   3.133  0.0403 -0.4712  2.9088
  411MOL0     H54209   2.338   9.134   3.241 -0.5183  1.4308  0.6048
  411MOL0     H54210   2.208   9.206   2.967  0.5015 -2.4230 -0.5324
  411MOL0     H54211   2.276   9.317   3.089  2.2216 -0.7962 -0.5876
  411MOL0     H54212   2.506   9.249   3.061  0.4334  1.6066 -0.5108
  411MOL0     H54213   2.443   9.303   2.910  2.0294  1.1719  1.8566
  411MOL0     H54214   2.719   9.212   2.950  0.8705 -1.0338  2.1785
  411MOL0     H54215   2.888   9.163   2.816 -0.9827  2.6588 -1.1919
  411MOL0     H54216   2.936   8.927   2.243 -1.1570 -1.2940  2.0712
  411MOL0     H54217   3.131   8.838   2.119  0.0737 -1.3644 -1.4165
  411MOL0     H54218   3.311   8.726   2.063 -2.2543 -1.1952 -2.0024
  411MOL0     H54219   3.283   8.562   2.129 -0.8695  0.8753 -0.4036
  411MOL0     H54220   3.520   8.527   2.170 -5.0136 -1.1133  0.1640
  411MOL0     H54221   3.555   8.695   2.124  0.2901  0.6168 -0.2515
  411MOL0     H54222   3.484   8.631   1.887  1.0065  3.0504  0.9104
  411MOL0     H54223   3.430   8.469   1.949 -0.7025  0.2290  1.7772
  411MOL0     H54224   3.706   8.576   2.000 -0.3121  0.9477 -0.8894
  411MOL0     H54225   3.665   8.410   2.009 -2.6237  0.5431  2.4292
  411MOL0     H54226   3.786   8.461   1.799  0.2290 -0.2825  0.4950
  411MOL0     H54227   3.667   8.577   1.749  0.1309  1.9883  1.7742
  411MOL0     H54228   3.475   8.412   1.750  0.1426  0.8327  2.7114
  411MOL0     H54229   3.600   8.285   1.792 -2.1944  0.4237  0.8427
  411MOL0     H54230   3.540   8.437   1.538 -2.5920 -2.1122 -1.0006
  411MOL0     H54231   3.699   8.361   1.559 -0.4385  0.7270 -0.6621
  411MOL0     H54232   3.490   8.208   1.461  1.1289 -4.8628  0.4761
  411MOL0     H54233   3.433   8.212   1.621 -0.9200 -0.1205 -0.9182
  411MOL0     H54234   3.251   8.666   2.509 -1.1925  1.3515  1.0976
  411MOL0     H54235   3.057   8.759   2.615  1.3609  1.4314  0.1532
  411MOL0     H54236   2.629   8.908   2.560 -3.0849  1.6097 -1.1076
  411MOL0     H54237   2.456   8.938   2.739  0.1562  0.5772  4.1654
  411MOL0     H54238   1.395   9.015   3.446 -0.6417 -2.7631  6.1682
  411MOL0     H54239   1.308   8.778   3.467 -2.9492 -1.5965  1.2631
  411MOL0     H54240   0.847   8.566   3.087  1.0644  0.3889  0.4654
  411MOL0     H54241   0.650   8.434   3.136  0.5054 -0.1036 -0.4935
  411MOL0     H54242   0.640   8.165   3.499  1.3778  1.7693  0.5986
  411MOL0     H54243   0.475   8.181   3.465  0.3883 -0.8192 -2.5418
  411MOL0     H54244   0.511   8.306   3.663  0.6304 -3.8734 -0.8799
  411MOL0     H54245   0.644   8.397   3.598 -1.6403  2.2117  0.5600
  411MOL0     H54246   0.473   8.483   3.427  1.8291 -0.4675  0.3223
  411MOL0     H54247   0.459   8.550   3.596  0.5537 -0.1706 -0.3644
  411MOL0     H54248   0.246   8.489   3.461 -1.0749 -0.4903  0.1847
  411MOL0     H54249   0.292   8.323   3.505  2.6675 -0.7485  0.3721
  411MOL0     H54250   0.150   8.555   3.850 -1.7408  0.6553 -1.6857
  411MOL0     H54251   0.820   8.289   3.497  0.6913  0.3939  0.7409
  411MOL0     H54252   0.999   8.454   3.477  2.1767  0.1418 -0.9162
  412MOL0     O54253   0.145   3.031   5.284  0.0313  0.7250 -0.6467
  412MOL0     C54254   0.093   3.149   5.286 -0.0201  0.2004  0.9995
  412MOL0     O54255   0.037   3.216   5.396 -0.3848  0.3608  0.1075
  412MOL0     C54256   0.058   3.158   5.519 -0.3610  0.2452 -0.5391
  412MOL0     C54257   0.194   3.122   5.566  0.3949 -0.0181  0.3619
  412MOL0     C54258   0.209   3.076   5.695 -0.9920 -0.4324 -0.6172
  412MOL0     C54259   0.103   3.067   5.785 -0.8433 -0.1885 -0.3786
  412MOL0     O54260   0.126   3.012   5.911 -0.0488 -0.4643 -0.2180
  412MOL0     C54261   0.038   2.913   5.953 -1.0500  0.8547 -0.2763
  412MOL0     C54262   0.135   2.825   6.039  0.0751  0.0553 -0.0509
  412MOL0     C54263   0.234   2.740   5.948 -0.3915 -0.6204 -0.1372
  412MOL0     C54264   0.289   2.601   6.011 -0.2642 -0.8066  0.0910
  412MOL0     C54265   0.394   2.632   6.117  0.2257 -0.5761  0.3273
  412MOL0     C54266   0.542   2.635   6.073 -0.5945 -0.9651 -0.0914
  412MOL0     C54267   0.632   2.658   6.187 -0.9106  0.2940  0.1107
  412MOL0     C54268   0.709   2.535   6.221 -0.7414 -1.0970 -0.4284
  412MOL0     N54269   0.631   2.427   6.287  0.6006  0.1327  0.5418
  412MOL0     C54270   0.574   2.310   6.236  0.6436 -0.9225 -0.1084
  412MOL0     C54271   0.479   2.271   6.328 -0.3628  0.4768 -0.8682
  412MOL0     C54272   0.412   2.138   6.326  1.2111 -0.1625  0.3252
  412MOL0     C54273   0.318   2.128   6.204 -0.4396  0.4735  1.4506
  412MOL0     C54274   0.228   2.247   6.179 -0.2808 -0.2118 -0.3041
  412MOL0     C54275   0.152   2.231   6.043  0.3753 -0.2087  0.4173
  412MOL0     O54276   0.056   2.123   6.043  0.0244  0.3710 -0.1209
  412MOL0     C54277  -0.070   2.154   6.097  0.0073  0.5879  0.6319
  412MOL0     C54278  -0.168   2.050   6.078 -0.0949 -0.0430 -0.5426
  412MOL0     C54279  -0.305   2.068   6.113 -0.3355 -0.2157  0.0218
  412MOL0     C54280  -0.356   2.190   6.156 -0.2447  0.3791  0.5010
  412MOL0     C54281  -0.495   2.211   6.184  0.6253 -0.3384 -0.4077
  412MOL0     O54282  -0.568   2.099   6.178 -0.1884 -0.5055 -0.0388
  412MOL0     C54283  -0.700   2.115   6.196 -0.0179  0.5121 -0.3481
  412MOL0     C54284  -0.798   2.175   6.115 -0.8747 -0.2269 -1.1099
  412MOL0     C54285  -0.924   2.206   6.164 -0.4883  0.1874 -0.7115
  412MOL0     C54286  -0.963   2.173   6.294 -0.1003 -0.1848  0.5856
  412MOL0     O54287  -1.073   2.221   6.357 -0.7563  0.0674  0.3945
  412MOL0     C54288  -1.193   2.206   6.281 -0.1761 -0.1512  0.5532
  412MOL0     C54289  -1.308   2.137   6.357 -0.7159 -0.2906 -0.0996
  412MOL0     C54290  -1.354   2.237   6.471  0.7066  0.7624 -0.1671
  412MOL0     C54291  -1.492   2.193   6.530  0.5751 -0.0945  0.3355
  412MOL0     C54292  -1.471   2.070   6.618 -0.2322 -0.0286  0.0354
  412MOL0     C54293  -1.588   2.031   6.706  0.6992 -0.2148 -1.2313
  412MOL0     C54294  -1.545   1.928   6.808 -0.1546 -0.0987  0.2924
  412MOL0     C54295  -1.663   1.900   6.905 -0.3773 -0.3481 -0.5674
  412MOL0    Cl54296  -1.675   2.009   7.048  0.0807 -0.0099 -0.1341
  412MOL0     C54297  -0.871   2.106   6.374 -0.2941  0.2039  0.4985
  412MOL0     C54298  -0.745   2.072   6.324 -0.4662  0.8822  0.0171
  412MOL0     O54299  -0.534   2.317   6.220 -0.0162 -0.3741 -0.6159
  412MOL0     C54300  -0.265   2.290   6.182  1.4996 -0.0728 -0.3567
  412MOL0     C54301  -0.123   2.277   6.151  0.5726  0.1706  0.1268
  412MOL0     N54302   0.481   2.360   6.435 -0.1194 -0.0298 -1.0625
  412MOL0     N54303   0.569   2.457   6.406  0.6686 -0.4896  0.1196
  412MOL0     C54304  -0.028   3.099   5.736 -0.0542 -0.0728  0.0169
  412MOL0     C54305  -0.040   3.159   5.606  0.7940 -0.2286 -0.2960
  412MOL0     C54306   0.090   3.222   5.156 -0.3230 -0.2709 -0.5576
  412MOL0     C54307   0.106   3.145   5.043 -1.1127  0.0643  0.8009
  412MOL0     C54308   0.107   3.218   4.918  0.8021 -0.2580 -0.3970
  412MOL0     C54309   0.091   3.355   4.911 -0.3912  0.6937  0.2773
  412MOL0     O54310   0.091   3.420   4.787  0.8151  0.5600  0.3590
  412MOL0     C54311   0.199   3.396   4.697 -0.2856 -0.7665 -0.5841
  412MOL0     C54312   0.225   3.527   4.616 -0.4729  0.0839 -0.2874
  412MOL0     C54313   0.340   3.496   4.523  0.3087  0.4945 -1.0400
  412MOL0     C54314   0.285   3.434   4.398  0.4096  0.3775  0.6277
  412MOL0     C54315   0.387   3.433   4.292 -0.8876 -0.2256 -0.4540
  412MOL0     C54316   0.468   3.439   4.206 -0.4982 -0.3923  0.3833
  412MOL0     C54317   0.062   3.421   5.028 -0.6168 -0.4940 -0.0339
  412MOL0     C54318   0.072   3.361   5.151 -0.3282 -0.4568 -0.0098
  412MOL0     H54319   0.274   3.142   5.496  0.2303 -1.5405 -0.3016
  412MOL0     H54320   0.306   3.049   5.735 -0.7995  1.0657 -0.0065
  412MOL0     H54321  -0.007   2.856   5.872  0.0784  0.0219 -0.3463
  412MOL0     H54322  -0.033   2.956   6.025 -0.4569  0.3241  0.6572
  412MOL0     H54323   0.074   2.767   6.108  0.3023  0.3261  0.3798
  412MOL0     H54324   0.191   2.888   6.109 -0.4984 -2.6939  3.1304
  412MOL0     H54325   0.326   2.797   5.935  0.7696 -2.5234 -0.5971
  412MOL0     H54326   0.196   2.723   5.847  0.4044  2.0254 -0.9786
  412MOL0     H54327   0.210   2.547   6.064 -0.1196  0.8070  2.1164
  412MOL0     H54328   0.327   2.541   5.928 -4.9487 -1.6595 -1.7043
  412MOL0     H54329   0.380   2.548   6.185 -3.9254  0.3578  0.9248
  412MOL0     H54330   0.364   2.724   6.168  2.8219  1.8388 -2.1719
  412MOL0     H54331   0.569   2.710   5.998 -0.3808 -1.0433 -0.0958
  412MOL0     H54332   0.554   2.535   6.030 -1.1415 -0.1853 -2.1745
  412MOL0     H54333   0.702   2.740   6.169 -0.7326  0.5567  1.8154
  412MOL0     H54334   0.581   2.697   6.276  0.9619  0.9215  0.9484
  412MOL0     H54335   0.790   2.581   6.280  0.3742  0.7685 -3.1993
  412MOL0     H54336   0.758   2.477   6.143  0.5394  0.0106 -0.4915
  412MOL0     H54337   0.610   2.263   6.145 -1.2648  1.7128 -2.3955
  412MOL0     H54338   0.358   2.116   6.419 -0.9256  2.7024 -0.1133
  412MOL0     H54339   0.490   2.062   6.327  0.9615 -0.4791  3.0954
  412MOL0     H54340   0.250   2.044   6.218 -2.4795  1.8705  0.3291
  412MOL0     H54341   0.376   2.120   6.112 -0.9226 -2.0262  1.2875
  412MOL0     H54342   0.157   2.270   6.259 -2.7059 -1.8465 -1.8276
  412MOL0     H54343   0.294   2.333   6.163 -0.8591  0.1231 -0.9533
  412MOL0     H54344   0.221   2.213   5.960  0.3095  0.8541  0.1182
  412MOL0     H54345   0.105   2.324   6.009  1.0184 -0.5411 -1.5483
  412MOL0     H54346  -0.128   1.957   6.039 -0.3610  0.1955 -1.4004
  412MOL0     H54347  -0.369   1.981   6.104 -1.1313 -0.1364  3.5828
  412MOL0     H54348  -0.758   2.231   6.031 -0.8373  0.0411 -0.9160
  412MOL0     H54349  -0.986   2.264   6.097 -1.8999  2.6212  2.4495
  412MOL0     H54350  -1.170   2.149   6.190  0.2480 -1.1704  1.2746
  412MOL0     H54351  -1.223   2.304   6.243  1.1713  1.1296  2.6131
  412MOL0     H54352  -1.272   2.045   6.403  3.0670  0.4067 -1.3315
  412MOL0     H54353  -1.383   2.106   6.284  0.6773  0.5836 -1.9814
  412MOL0     H54354  -1.371   2.339   6.437  0.1412  2.0681  3.5712
  412MOL0     H54355  -1.287   2.246   6.557  0.8620  2.8825 -0.4536
  412MOL0     H54356  -1.519   2.278   6.593  1.3220  0.9261 -0.6821
  412MOL0     H54357  -1.569   2.170   6.456 -0.2099 -0.3058  1.2080
  412MOL0     H54358  -1.386   2.088   6.684 -0.2428  0.3084 -0.0397
  412MOL0     H54359  -1.454   1.985   6.551 -2.2290  1.5200 -2.6285
  412MOL0     H54360  -1.674   1.999   6.647 -0.1729 -1.7673  0.7540
  412MOL0     H54361  -1.629   2.121   6.751  0.4024  1.8795 -5.2957
  412MOL0     H54362  -1.518   1.832   6.765 -0.8519 -1.0165  1.8025
  412MOL0     H54363  -1.456   1.962   6.861  0.5244  0.4910 -1.2025
  412MOL0     H54364  -1.640   1.796   6.931  0.3528 -0.5259 -1.8575
  412MOL0     H54365  -1.764   1.894   6.862 -1.2043  1.9058  0.8966
  412MOL0     H54366  -0.884   2.112   6.481 -0.3704  0.3052  0.4835
  412MOL0     H54367  -0.663   2.041   6.389  0.2295 -0.1628 -1.2997
  412MOL0     H54368  -0.294   2.387   6.223  1.9885 -0.3458  0.6698
  412MOL0     H54369  -0.053   2.359   6.166  2.6240 -1.4029 -0.3887
  412MOL0     H54370  -0.114   3.099   5.803  0.1732  3.1542  0.4817
  412MOL0     H54371  -0.135   3.208   5.586 -0.1111 -1.0312  1.7389
  412MOL0     H54372   0.096   3.037   5.048  3.3331 -0.5184  1.7423
  412MOL0     H54373   0.129   3.168   4.824  0.4603  1.6881 -1.5866
  412MOL0     H54374   0.181   3.309   4.633 -0.8553 -0.5706 -0.6949
  412MOL0     H54375   0.290   3.366   4.750  0.5131 -0.1423 -1.5611
  412MOL0     H54376   0.135   3.573   4.575 -3.2956 -0.8201  4.1969
  412MOL0     H54377   0.254   3.611   4.679 -1.9576 -0.3414  1.0188
  412MOL0     H54378   0.413   3.428   4.569  0.4937  2.0550  1.1589
  412MOL0     H54379   0.400   3.585   4.503  0.9205  1.3204  3.3436
  412MOL0     H54380   0.267   3.330   4.427 -3.2134  0.7053  0.0320
  412MOL0     H54381   0.198   3.481   4.351  1.3031  1.6984  0.2296
  412MOL0     H54382   0.539   3.429   4.127 -0.8147 -0.9040  0.1579
  412MOL0     H54383   0.055   3.529   5.023 -0.6187 -0.2430  3.2729
  412MOL0     H54384   0.042   3.403   5.247 -0.5653 -4.4612  1.8637
  413MOL0     O54385   2.497   3.006  11.060 -0.0465  0.0435 -0.0663
  413MOL0     C54386   2.449   2.892  11.095 -0.9110 -0.7708  0.4698
  413MOL0     O54387   2.384   2.800  11.008  0.1975 -0.7009  0.1615
  413MOL0     C54388   2.363   2.858  10.884  0.4755 -0.1788  0.3352
  413MOL0     C54389   2.456   2.837  10.775 -0.0494 -0.7903  0.3712
  413MOL0     C54390   2.437   2.905  10.663  0.9133  0.2339  0.3437
  413MOL0     C54391   2.323   2.986  10.648  0.4228  0.1212  0.1932
  413MOL0     O54392   2.320   3.064  10.530  0.6112  1.3273 -0.0124
  413MOL0     C54393   2.217   3.150  10.495  0.4919  0.5050 -1.0149
  413MOL0     C54394   2.132   3.083  10.386  0.4596 -0.0127  0.1992
  413MOL0     C54395   2.060   3.186  10.301 -0.3711  0.7015 -0.4097
  413MOL0     C54396   2.002   3.103  10.188 -0.1057  1.0587  0.3825
  413MOL0     C54397   1.901   3.181  10.111  0.0186  0.8727  0.3132
  413MOL0     C54398   1.969   3.302  10.047 -0.6889  0.0766 -0.7640
  413MOL0     C54399   1.881   3.377   9.945  0.3267  0.5059  0.2788
  413MOL0     C54400   1.953   3.503   9.893  0.0816  0.3146  0.1625
  413MOL0     N54401   1.926   3.617   9.984  0.0908  0.8112 -0.1791
  413MOL0     C54402   1.866   3.730   9.935  0.5412  0.0518  0.9644
  413MOL0     C54403   1.897   3.817  10.041  0.4580 -0.4302 -0.3836
  413MOL0     C54404   1.850   3.958  10.065  0.4158  0.4675 -0.1956
  413MOL0     C54405   1.700   3.976  10.050 -0.0742  0.5771 -0.2179
  413MOL0     C54406   1.650   4.003   9.911 -0.1202  0.5822  0.5814
  413MOL0     C54407   1.669   4.154   9.852 -0.2125 -0.0295  0.3294
  413MOL0     O54408   1.810   4.166   9.817 -0.1675  0.0014  0.2851
  413MOL0     C54409   1.856   4.106   9.702  0.5820 -0.7954  0.2707
  413MOL0     C54410   1.770   4.062   9.593 -0.3954 -0.4173  0.6238
  413MOL0     C54411   1.829   3.993   9.487  0.0773  0.0624  0.0751
  413MOL0     C54412   1.969   3.973   9.486 -0.7727 -0.8227  0.1218
  413MOL0     C54413   2.032   3.891   9.380  0.3394  0.3313 -0.0108
  413MOL0     O54414   1.945   3.840   9.290 -0.5301 -0.0326 -0.5446
  413MOL0     C54415   1.980   3.787   9.166  0.1939 -0.4230  0.7805
  413MOL0     C54416   2.096   3.712   9.147  0.1212 -0.4787 -0.2287
  413MOL0     C54417   2.128   3.663   9.024  0.0543 -0.2605  0.2209
  413MOL0     C54418   2.055   3.693   8.915  0.4771  0.3129 -0.3142
  413MOL0     O54419   2.107   3.637   8.799 -0.6696 -1.1299 -0.1677
  413MOL0     C54420   2.050   3.669   8.672 -0.4051 -0.1333 -0.4509
  413MOL0     C54421   2.039   3.543   8.579 -0.9678  0.1210 -0.0832
  413MOL0     C54422   2.157   3.456   8.579  0.0176  0.5818  0.4443
  413MOL0     C54423   2.126   3.332   8.485  0.9111  0.1039  0.4187
  413MOL0     C54424   2.242   3.239   8.443 -0.5347  1.3731  0.1679
  413MOL0     C54425   2.342   3.303   8.342 -1.1868 -0.1873 -0.6512
  413MOL0     C54426   2.440   3.190   8.298  1.1087 -0.0299  0.5419
  413MOL0     C54427   2.524   3.246   8.186  0.4552 -1.3473  0.8917
  413MOL0    Cl54428   2.411   3.251   8.046  0.1198 -0.2862  0.1301
  413MOL0     C54429   1.927   3.756   8.939  0.0542  0.5305 -0.4448
  413MOL0     C54430   1.892   3.802   9.066  0.4534  0.3010 -0.0286
  413MOL0     O54431   2.150   3.872   9.380 -0.4662 -0.3668 -0.4249
  413MOL0     C54432   2.038   4.012   9.598  0.0998  0.0765 -0.9789
  413MOL0     C54433   1.984   4.076   9.705 -0.2744  0.5632 -0.1354
  413MOL0     N54434   1.977   3.759  10.134  0.2144  0.9982 -0.5286
  413MOL0     N54435   1.990   3.636  10.099 -1.2976  0.0465 -0.3626
  413MOL0     C54436   2.226   2.999  10.743  0.1461  0.3345 -0.1400
  413MOL0     C54437   2.258   2.937  10.866  0.3766  0.0063  0.2266
  413MOL0     C54438   2.490   2.843  11.223  0.6527  0.1007 -1.1873
  413MOL0     C54439   2.406   2.764  11.301  0.0934  0.2601 -0.7421
  413MOL0     C54440   2.438   2.735  11.432  0.4395  0.5596  0.2752
  413MOL0     C54441   2.545   2.782  11.495 -0.5199 -0.7189  0.1612
  413MOL0     O54442   2.565   2.738  11.627 -0.3100  0.0169 -0.7679
  413MOL0     C54443   2.660   2.804  11.706 -0.0506  0.0647  0.9979
  413MOL0     C54444   2.681   2.718  11.827  0.4278 -0.4616 -0.7859
  413MOL0     C54445   2.789   2.771  11.914 -0.3140 -0.1517 -0.2504
  413MOL0     C54446   2.745   2.882  12.005  0.6218 -0.6268 -0.4019
  413MOL0     C54447   2.853   2.935  12.082 -0.5952 -0.0295  0.2350
  413MOL0     C54448   2.957   2.976  12.130 -0.4049  0.7936  0.1680
  413MOL0     C54449   2.634   2.864  11.419 -0.1568 -0.8898 -0.4831
  413MOL0     C54450   2.604   2.891  11.287 -0.0780 -0.1041  0.5696
  413MOL0     H54451   2.548   2.782  10.790  0.5866  0.4588  1.1703
  413MOL0     H54452   2.506   2.892  10.580  2.0704  0.1230  1.3133
  413MOL0     H54453   2.274   3.231  10.449 -2.3879  1.9426 -2.3068
  413MOL0     H54454   2.154   3.194  10.572  0.7587 -0.5346 -0.1786
  413MOL0     H54455   2.053   3.015  10.420  0.5065 -1.2284 -1.9582
  413MOL0     H54456   2.201   3.025  10.325 -2.7232 -2.4844 -1.3727
  413MOL0     H54457   2.133   3.258  10.261 -0.5822  0.7583 -0.6967
  413MOL0     H54458   1.990   3.241  10.365 -2.7503 -2.7431  0.2251
  413MOL0     H54459   2.078   3.072  10.115 -2.6133 -4.8645 -0.2143
  413MOL0     H54460   1.955   3.015  10.232  3.2092 -0.7297  0.6915
  413MOL0     H54461   1.820   3.221  10.172 -0.7747  1.5094 -1.0908
  413MOL0     H54462   1.860   3.112  10.037  1.8167 -1.0180  1.0172
  413MOL0     H54463   2.031   3.243   9.979 -3.0675 -2.3156 -1.0385
  413MOL0     H54464   2.009   3.377  10.115 -3.1952  1.6467 -0.9054
  413MOL0     H54465   1.855   3.300   9.871  1.2205 -5.6342  5.4686
  413MOL0     H54466   1.784   3.404   9.988 -0.1600 -2.7765  1.5164
  413MOL0     H54467   1.929   3.510   9.786  3.0077  0.8663 -0.5335
  413MOL0     H54468   2.061   3.493   9.883  0.2473  2.6169 -0.9361
  413MOL0     H54469   1.808   3.740   9.844  1.3936  3.1744  0.6462
  413MOL0     H54470   1.913   4.032  10.015  0.0886  0.9908  0.1515
  413MOL0     H54471   1.873   3.973  10.171 -1.0703 -0.2313  0.2562
  413MOL0     H54472   1.676   4.066  10.108 -2.8947  0.6829 -1.4057
  413MOL0     H54473   1.645   3.894  10.097  0.3080 -1.1715 -2.6559
  413MOL0     H54474   1.706   3.932   9.850  1.0323 -0.4190  2.6973
  413MOL0     H54475   1.542   3.991   9.911 -0.2546  1.6873 -0.2264
  413MOL0     H54476   1.647   4.226   9.931 -1.4832  2.4742 -2.1151
  413MOL0     H54477   1.595   4.168   9.773  0.4766 -0.6677 -0.4521
  413MOL0     H54478   1.662   4.058   9.597 -0.6119  0.3063 -2.1829
  413MOL0     H54479   1.768   3.955   9.406  0.3752 -1.0470  0.3558
  413MOL0     H54480   2.166   3.690   9.228 -1.6417 -2.0703  0.9553
  413MOL0     H54481   2.224   3.612   9.020 -0.0826 -0.9042  3.0586
  413MOL0     H54482   2.122   3.739   8.629 -0.8036 -0.6646 -2.0441
  413MOL0     H54483   1.952   3.715   8.685  0.2365  0.3213  6.2825
  413MOL0     H54484   2.011   3.578   8.479 -3.5009  2.7286  1.4052
  413MOL0     H54485   1.953   3.480   8.602  1.2222 -4.6274 -3.0342
  413MOL0     H54486   2.180   3.410   8.676  1.8210  0.8128  0.1634
  413MOL0     H54487   2.254   3.494   8.547 -0.1478 -0.0309 -0.8237
  413MOL0     H54488   2.052   3.275   8.542  0.7148 -1.8962 -1.6975
  413MOL0     H54489   2.073   3.359   8.394 -1.5404 -2.3133  0.9954
  413MOL0     H54490   2.198   3.154   8.390 -1.5578  2.1143 -0.2012
  413MOL0     H54491   2.291   3.216   8.538 -4.2200  0.8889  2.1218
  413MOL0     H54492   2.395   3.391   8.378  1.6375 -2.9184  2.5887
  413MOL0     H54493   2.281   3.332   8.256  0.6315 -0.4762 -2.0953
  413MOL0     H54494   2.504   3.163   8.382  2.1051 -3.3641 -1.0986
  413MOL0     H54495   2.387   3.098   8.270  1.0370  0.4106 -0.8604
  413MOL0     H54496   2.607   3.180   8.156  1.3017 -0.8682  2.0851
  413MOL0     H54497   2.561   3.346   8.211 -1.5822 -0.5992  1.0306
  413MOL0     H54498   1.866   3.778   8.852 -1.9268 -0.7841  0.5324
  413MOL0     H54499   1.796   3.845   9.094 -0.5209 -1.0147 -1.1916
  413MOL0     H54500   2.142   3.985   9.592 -0.5315 -3.4844  1.2281
  413MOL0     H54501   2.040   4.094   9.796 -2.9110  1.0442  1.4909
  413MOL0     H54502   2.136   3.060  10.743  0.4278  1.0390  4.0007
  413MOL0     H54503   2.175   2.938  10.936  0.3234  0.7160  0.1628
  413MOL0     H54504   2.310   2.730  11.263  0.1231 -0.9035  0.1650
  413MOL0     H54505   2.368   2.676  11.490  0.7813 -1.9873 -1.7414
  413MOL0     H54506   2.633   2.908  11.728 -4.4654 -0.3344 -1.4142
  413MOL0     H54507   2.755   2.808  11.652  0.7635 -0.6508  2.3120
  413MOL0     H54508   2.594   2.713  11.894  2.3469 -3.5077  1.7705
  413MOL0     H54509   2.714   2.616  11.804  0.4301 -0.4836 -0.6853
  413MOL0     H54510   2.878   2.801  11.858  0.7817 -2.5363  0.0828
  413MOL0     H54511   2.819   2.691  11.983 -2.1368  1.2193  2.2809
  413MOL0     H54512   2.697   2.957  11.942  0.3438  0.0947  0.6321
  413MOL0     H54513   2.668   2.844  12.074  0.0883  0.2034 -0.5212
  413MOL0     H54514   3.045   3.004  12.185 -0.2904 -2.0724  1.6427
  413MOL0     H54515   2.721   2.909  11.464 -1.6019 -0.3517  1.9338
  413MOL0     H54516   2.663   2.973  11.247  2.8990 -2.2376  0.2994
  414MOL0     O54517   7.118   8.125  11.082  0.5816  0.6688 -0.0250
  414MOL0     C54518   7.046   8.133  10.980 -0.0468  0.4018  0.1490
  414MOL0     O54519   7.041   8.238  10.898 -0.1111  0.6111 -0.3434
  414MOL0     C54520   7.117   8.348  10.926  0.0498 -0.0867  0.3357
  414MOL0     C54521   7.047   8.472  10.959 -0.2240 -0.2753  0.6474
  414MOL0     C54522   7.128   8.589  10.995  0.0410 -0.1542  0.1098
  414MOL0     C54523   7.264   8.591  10.992 -0.2030  0.0715  0.0853
  414MOL0     O54524   7.322   8.714  11.016 -0.3151  0.3322  0.1134
  414MOL0     C54525   7.372   8.725  11.152  0.6482 -0.3153  0.3540
  414MOL0     C54526   7.454   8.857  11.143 -0.5261 -0.1013 -0.3477
  414MOL0     C54527   7.551   8.879  11.018 -0.7894  0.0614  0.0175
  414MOL0     C54528   7.616   9.022  11.035  0.2094  0.3688  0.2778
  414MOL0     C54529   7.690   9.084  10.924  0.1682 -0.7062  0.5140
  414MOL0     C54530   7.798   8.992  10.863 -0.9081  0.4774 -0.0057
  414MOL0     C54531   7.894   9.076  10.776 -0.1527 -1.1617  0.4613
  414MOL0     C54532   7.981   9.169  10.858  0.4179 -0.2706  0.3626
  414MOL0     N54533   7.920   9.307  10.873 -0.3888  0.4635 -0.9194
  414MOL0     C54534   7.920   9.410  10.774  0.7345 -0.3812 -0.2534
  414MOL0     C54535   7.882   9.516  10.831  0.5154  0.8187 -0.8319
  414MOL0     C54536   7.859   9.649  10.769  0.1855 -0.4366  0.9131
  414MOL0     C54537   7.722   9.714  10.816  0.8806 -1.3307  0.6430
  414MOL0     C54538   7.709   9.839  10.726 -0.1948 -0.1463  1.1893
  414MOL0     C54539   7.566   9.874  10.673 -0.7528  1.1046  0.6497
  414MOL0     O54540   7.573   9.957  10.554 -0.4823 -0.4152  1.0445
  414MOL0     C54541   7.590   9.900  10.429  0.3477  0.0342 -0.2086
  414MOL0     C54542   7.602   9.985  10.321 -0.0658  1.0316 -0.2752
  414MOL0     C54543   7.646   9.939  10.196  0.4500  0.3005  0.3714
  414MOL0     C54544   7.669   9.802  10.170 -0.5807  0.5406  0.2630
  414MOL0     C54545   7.719   9.739  10.041  0.1612 -0.4400 -0.5398
  414MOL0     O54546   7.759   9.608  10.040 -0.7858 -0.0492  0.6113
  414MOL0     C54547   7.839   9.567   9.936 -0.5827  0.7426 -0.7948
  414MOL0     C54548   7.788   9.554   9.807 -0.2939 -0.5896  1.5474
  414MOL0     C54549   7.870   9.512   9.696 -0.0934  0.2041  0.0494
  414MOL0     C54550   8.000   9.468   9.725 -0.0618 -0.3993  0.1347
  414MOL0     O54551   8.079   9.419   9.618  1.0610  0.5231 -0.3372
  414MOL0     C54552   8.069   9.276   9.598 -0.1748 -0.1970 -0.0036
  414MOL0     C54553   7.959   9.211   9.521  0.5256  1.2431  0.2999
  414MOL0     C54554   7.944   9.238   9.364  0.2075  0.1790 -0.2711
  414MOL0     C54555   7.871   9.129   9.279  0.0212  0.0024 -0.6714
  414MOL0     C54556   7.724   9.109   9.312 -0.0416  0.5356 -1.1494
  414MOL0     C54557   7.626   9.227   9.315 -0.2443 -0.4571 -1.3116
  414MOL0     C54558   7.477   9.181   9.338 -0.4130 -1.1373 -0.2692
  414MOL0     C54559   7.441   9.203   9.486  0.4342  0.7381  0.0810
  414MOL0    Cl54560   7.269   9.153   9.510  0.3880  0.2814 -0.0085
  414MOL0     C54561   8.054   9.477   9.855 -0.4429 -0.1293 -0.0399
  414MOL0     C54562   7.970   9.522   9.955 -0.1556  1.1413  0.1729
  414MOL0     O54563   7.743   9.820   9.949  0.2190 -0.0454  0.1371
  414MOL0     C54564   7.639   9.714  10.276  1.0681 -0.3266 -0.5865
  414MOL0     C54565   7.600   9.764  10.399  0.3645 -0.4797 -0.0340
  414MOL0     N54566   7.843   9.487  10.960 -0.1977  0.1981 -0.4528
  414MOL0     N54567   7.895   9.376  10.994  0.1173  1.2775  0.0949
  414MOL0     C54568   7.331   8.470  10.953  0.1527  0.7590 -0.2366
  414MOL0     C54569   7.258   8.352  10.918  0.3904  0.2615 -0.7239
  414MOL0     C54570   6.932   8.039  10.954 -0.3974  0.1374  0.1244
  414MOL0     C54571   6.835   8.067  10.859 -0.2990  0.0245  0.1213
  414MOL0     C54572   6.742   7.967  10.826 -0.4475 -0.3561  1.0188
  414MOL0     C54573   6.744   7.841  10.898 -0.0232 -0.6860 -0.1430
  414MOL0     O54574   6.652   7.749  10.871  0.0305  0.6151 -0.0787
  414MOL0     C54575   6.624   7.628  10.944 -0.2257  0.5675 -0.3991
  414MOL0     C54576   6.718   7.517  10.895  0.2171  0.3436  0.3692
  414MOL0     C54577   6.679   7.372  10.956 -0.6147 -0.6078 -0.8407
  414MOL0     C54578   6.556   7.315  10.889  0.5567  0.1132 -0.4289
  414MOL0     C54579   6.526   7.187  10.947  0.4325  0.9241  0.5401
  414MOL0     C54580   6.488   7.074  10.994 -0.0720 -0.8461  1.3889
  414MOL0     C54581   6.833   7.824  11.008  0.7723  0.4603 -0.5634
  414MOL0     C54582   6.929   7.918  11.027 -0.0387  1.4021 -0.3202
  414MOL0     H54583   6.939   8.477  10.963 -0.3481  0.5298 -1.8710
  414MOL0     H54584   7.085   8.685  11.025  1.8140 -0.0293  2.5904
  414MOL0     H54585   7.455   8.655  11.165  1.8936  0.6825 -1.6934
  414MOL0     H54586   7.303   8.716  11.237  0.7297 -0.8997  0.3649
  414MOL0     H54587   7.516   8.869  11.233 -1.1407 -0.3851  0.1203
  414MOL0     H54588   7.383   8.940  11.145  2.8924  3.1375  0.8172
  414MOL0     H54589   7.503   8.872  10.920  0.0230  3.0369 -0.6761
  414MOL0     H54590   7.630   8.803  11.014  1.6832  2.4582  0.4519
  414MOL0     H54591   7.539   9.092  11.069  2.4420  3.2804 -0.2344
  414MOL0     H54592   7.697   9.007  11.108  1.6888  1.0733 -1.1666
  414MOL0     H54593   7.745   9.152  10.990  0.8838 -1.5563  0.8030
  414MOL0     H54594   7.626   9.122  10.844  0.2244 -1.3170  0.1793
  414MOL0     H54595   7.739   8.923  10.803  1.6083 -2.1949  0.3454
  414MOL0     H54596   7.842   8.926  10.939  0.5878  0.6078 -0.7122
  414MOL0     H54597   7.965   9.030  10.707  1.0220  0.7996  0.2903
  414MOL0     H54598   7.824   9.141  10.723  0.9900 -1.0909 -1.0288
  414MOL0     H54599   8.081   9.171  10.814 -0.0627  2.0630 -0.7678
  414MOL0     H54600   8.007   9.123  10.953  3.7654 -0.1067 -0.3658
  414MOL0     H54601   7.940   9.389  10.669 -1.2260 -4.8062  0.0171
  414MOL0     H54602   7.852   9.630  10.662 -1.3319  1.3287  0.6513
  414MOL0     H54603   7.947   9.713  10.777  0.3032 -0.4706 -0.0201
  414MOL0     H54604   7.708   9.741  10.921  1.9690  0.8747  0.2810
  414MOL0     H54605   7.647   9.642  10.781  1.4964 -1.6593 -0.0322
  414MOL0     H54606   7.739   9.933  10.775 -0.4501  0.3860  0.3342
  414MOL0     H54607   7.774   9.832  10.638  1.3900  2.0575  2.0693
  414MOL0     H54608   7.519   9.923  10.759 -1.2754 -0.8806  1.5724
  414MOL0     H54609   7.504   9.786  10.652 -0.9475  1.4899 -0.4380
  414MOL0     H54610   7.611  10.093  10.328 -1.4829  1.1459  0.0292
  414MOL0     H54611   7.675  10.006  10.115 -0.6605  0.8296  0.3878
  414MOL0     H54612   7.690   9.586   9.776  0.0762 -2.7755 -2.5169
  414MOL0     H54613   7.827   9.506   9.597 -0.2142  0.1927  0.1017
  414MOL0     H54614   8.062   9.225   9.694  0.5738  0.8768  0.6335
  414MOL0     H54615   8.162   9.253   9.545 -0.1433 -1.6588  0.6462
  414MOL0     H54616   7.864   9.230   9.572  0.4081  2.0277 -0.2004
  414MOL0     H54617   7.992   9.107   9.521  0.5756  1.2333 -1.7940
  414MOL0     H54618   8.041   9.241   9.314  1.1685 -4.0167  0.9486
  414MOL0     H54619   7.881   9.326   9.347 -1.8862 -0.5978  2.5732
  414MOL0     H54620   7.877   9.159   9.174  1.4687 -2.2987 -1.3081
  414MOL0     H54621   7.924   9.034   9.281  0.3818  0.1843 -1.1634
  414MOL0     H54622   7.708   9.065   9.411  1.0751 -0.5179 -1.4136
  414MOL0     H54623   7.700   9.024   9.247  2.2869  0.2768 -1.7625
  414MOL0     H54624   7.640   9.283   9.222  1.3553  1.2309 -0.1306
  414MOL0     H54625   7.658   9.297   9.393 -3.1118  0.0678 -0.5116
  414MOL0     H54626   7.410   9.247   9.282  2.9273 -0.7230 -4.2149
  414MOL0     H54627   7.468   9.075   9.316 -1.0950 -0.9837 -0.7641
  414MOL0     H54628   7.457   9.310   9.505  4.6639  0.6066 -1.5942
  414MOL0     H54629   7.504   9.147   9.555 -0.4677  0.6966  0.8798
  414MOL0     H54630   8.143   9.422   9.883 -0.1087 -1.3278 -3.1015
  414MOL0     H54631   8.016   9.527  10.054  0.7847  4.2557 -0.3004
  414MOL0     H54632   7.646   9.607  10.258  1.7269 -0.4968  0.5713
  414MOL0     H54633   7.586   9.696  10.482  1.7051 -1.6854 -0.7555
  414MOL0     H54634   7.438   8.467  10.934 -0.1936 -0.4585 -2.2817
  414MOL0     H54635   7.303   8.255  10.900 -1.0472 -0.5956  0.0374
  414MOL0     H54636   6.826   8.165  10.814 -2.6318 -0.2736 -0.1873
  414MOL0     H54637   6.663   7.979  10.753 -1.7668 -0.8381  2.3290
  414MOL0     H54638   6.517   7.606  10.936  0.2182 -1.9260 -0.3083
  414MOL0     H54639   6.642   7.634  11.052  1.4799 -0.0720 -0.6231
  414MOL0     H54640   6.703   7.515  10.787 -1.1057 -0.7892  0.5401
  414MOL0     H54641   6.822   7.547  10.913 -0.3539  1.4503  2.2044
  414MOL0     H54642   6.670   7.383  11.064  3.3589 -3.2771 -0.0187
  414MOL0     H54643   6.768   7.308  10.964 -1.7642 -1.9756  4.1371
  414MOL0     H54644   6.480   7.390  10.910  0.2963  0.1806 -1.5613
  414MOL0     H54645   6.561   7.313  10.780  0.7965 -2.1682 -0.4320
  414MOL0     H54646   6.463   6.971  11.009 -0.5222 -1.0024 -0.3362
  414MOL0     H54647   6.845   7.732  11.064 -0.1287  0.1259 -0.8935
  414MOL0     H54648   7.015   7.895  11.089 -1.0657  0.1913  0.6974
  415MOL0     O54649   6.125   5.692  10.070  0.2847 -0.3007  0.2560
  415MOL0     C54650   6.092   5.640   9.966 -0.5194 -1.2835 -0.2190
  415MOL0     O54651   6.107   5.512   9.936  0.2052 -0.3493 -0.2470
  415MOL0     C54652   6.112   5.409  10.037  0.5743  0.0272  0.8210
  415MOL0     C54653   6.096   5.421  10.172 -0.1420 -0.0011 -0.9599
  415MOL0     C54654   6.099   5.300  10.254 -0.2694 -0.1225  0.2557
  415MOL0     C54655   6.124   5.178  10.198 -0.8961  0.4357  0.5889
  415MOL0     O54656   6.133   5.066  10.279  1.1972  0.3211  0.0484
  415MOL0     C54657   6.153   4.935  10.232 -0.1747  0.5546  0.6312
  415MOL0     C54658   6.110   4.821  10.338 -0.0060 -0.3677 -0.2621
  415MOL0     C54659   6.170   4.832  10.475  0.2119 -0.1593 -0.0287
  415MOL0     C54660   6.113   4.724  10.570 -0.6176  0.0101  0.2266
  415MOL0     C54661   6.172   4.741  10.711  0.1330 -0.6729  0.5434
  415MOL0     C54662   6.320   4.697  10.717 -0.1547 -0.3115 -0.2395
  415MOL0     C54663   6.367   4.686  10.857  0.3316 -1.1433  0.7587
  415MOL0     C54664   6.342   4.807  10.942 -0.4834  0.1901  0.6764
  415MOL0     N54665   6.457   4.813  11.044 -0.0299 -0.4913  0.0860
  415MOL0     C54666   6.571   4.897  11.024 -0.3644  0.9586  0.7266
  415MOL0     C54667   6.627   4.913  11.143  0.4779 -0.4626 -0.4314
  415MOL0     C54668   6.756   4.989  11.181  0.0537  1.0984 -0.3475
  415MOL0     C54669   6.742   5.141  11.155 -1.1226  0.0269 -0.8223
  415MOL0     C54670   6.879   5.196  11.145 -1.2257  0.5829 -0.2102
  415MOL0     C54671   6.921   5.191  10.992 -0.5887 -0.5036 -0.0249
  415MOL0     O54672   6.842   5.287  10.915  0.4829 -0.3921 -0.5659
  415MOL0     C54673   6.905   5.411  10.899  1.0665  0.7754  1.0611
  415MOL0     C54674   7.014   5.465  10.953 -0.0743  0.0000 -0.8780
  415MOL0     C54675   7.064   5.592  10.923 -1.1062  0.0332  0.2352
  415MOL0     C54676   6.990   5.675  10.840  0.2537  0.0851  0.8974
  415MOL0     C54677   7.042   5.811  10.808  0.2114 -0.3371  0.1075
  415MOL0     O54678   6.969   5.896  10.726  0.4639 -0.5752  0.2448
  415MOL0     C54679   6.996   6.025  10.720  0.9015 -0.4988 -0.8850
  415MOL0     C54680   7.030   6.112  10.824 -0.1813  0.5836  0.9234
  415MOL0     C54681   7.058   6.250  10.795  0.3866  0.6272  0.3086
  415MOL0     C54682   7.018   6.295  10.667 -0.0887 -0.2097  0.3468
  415MOL0     O54683   7.040   6.423  10.632 -0.2774 -0.4438  0.6470
  415MOL0     C54684   7.176   6.425  10.581  0.5524  0.5084 -1.0879
  415MOL0     C54685   7.219   6.563  10.531 -0.0182 -0.8856 -0.5861
  415MOL0     C54686   7.210   6.664  10.645 -0.1767 -0.1797  0.0789
  415MOL0     C54687   7.276   6.639  10.772 -0.3004 -0.7318 -0.5177
  415MOL0     C54688   7.263   6.758  10.859 -0.2564 -0.4709  0.1414
  415MOL0     C54689   7.302   6.746  11.009 -0.1639 -0.6385 -1.2736
  415MOL0     C54690   7.310   6.879  11.090 -0.1506 -0.0066 -0.0008
  415MOL0     C54691   7.374   6.869  11.224 -0.1586  0.6265  0.3596
  415MOL0    Cl54692   7.300   6.720  11.300  0.2071  0.2780  0.5780
  415MOL0     C54693   6.977   6.211  10.566 -0.0400  0.3932  0.3254
  415MOL0     C54694   6.958   6.074  10.591  0.6798  0.3035  0.3832
  415MOL0     O54695   7.154   5.831  10.836 -1.0634 -0.6296 -0.5141
  415MOL0     C54696   6.861   5.625  10.797 -0.0753  0.8014  0.2263
  415MOL0     C54697   6.831   5.495  10.813 -0.8788 -0.1787  0.0752
  415MOL0     N54698   6.545   4.849  11.246 -0.1760 -0.0361  0.9154
  415MOL0     N54699   6.443   4.795  11.181  0.7192 -0.1829  0.1640
  415MOL0     C54700   6.144   5.170  10.063 -0.1639 -0.2070  0.6647
  415MOL0     C54701   6.142   5.282   9.978 -0.1815  1.4604  0.5171
  415MOL0     C54702   6.050   5.737   9.853 -0.4797 -0.1082 -0.2595
  415MOL0     C54703   5.996   5.865   9.885 -0.0805  0.2947  0.4912
  415MOL0     C54704   5.961   5.954   9.783  0.9028 -0.1652  0.3085
  415MOL0     C54705   5.987   5.916   9.646 -0.0381 -0.7935 -0.1592
  415MOL0     O54706   5.978   6.004   9.542  0.7567  1.0057  0.3115
  415MOL0     C54707   5.862   5.986   9.452 -0.5517  0.2910 -0.0597
  415MOL0     C54708   5.746   6.072   9.513 -0.0273 -0.6021 -0.2589
  415MOL0     C54709   5.635   6.088   9.409  0.0736 -0.0572  0.1590
  415MOL0     C54710   5.511   6.177   9.444  0.0473  0.9324 -0.4308
  415MOL0     C54711   5.550   6.320   9.472  0.2407 -0.2430 -0.6716
  415MOL0     C54712   5.566   6.434   9.504  0.5982 -0.4991  0.0250
  415MOL0     C54713   6.029   5.791   9.618 -0.1723  0.7032 -0.0902
  415MOL0     C54714   6.045   5.696   9.719 -0.2958  0.5138  0.6484
  415MOL0     H54715   6.072   5.512  10.225  1.0538 -0.0216 -0.3445
  415MOL0     H54716   6.071   5.296  10.359 -2.2124 -2.2804 -0.2837
  415MOL0     H54717   6.257   4.936  10.196 -0.7589  2.2315 -1.1634
  415MOL0     H54718   6.099   4.915  10.139 -0.8438  2.1350  0.6564
  415MOL0     H54719   6.127   4.721  10.299 -0.1262  0.1389 -1.6827
  415MOL0     H54720   6.002   4.832  10.354  0.3196 -0.1495  2.2315
  415MOL0     H54721   6.127   4.924  10.513 -0.5501  0.6339 -2.5802
  415MOL0     H54722   6.279   4.833  10.472  0.1942  0.9424 -2.2117
  415MOL0     H54723   6.004   4.718  10.577 -0.4625 -2.9777  1.4752
  415MOL0     H54724   6.134   4.623  10.532  0.1858 -0.4417  1.7957
  415MOL0     H54725   6.108   4.679  10.774 -2.3379  1.2813  0.0921
  415MOL0     H54726   6.151   4.842  10.749 -1.8389 -0.9948  0.3705
  415MOL0     H54727   6.384   4.755  10.649  0.1027  0.0724  0.3185
  415MOL0     H54728   6.318   4.596  10.677 -1.7281  0.0749 -1.2071
  415MOL0     H54729   6.314   4.596  10.891 -0.1540 -1.3991 -0.6344
  415MOL0     H54730   6.475   4.671  10.859  1.1229  3.1495  3.3057
  415MOL0     H54731   6.253   4.789  11.002 -0.1424 -0.7565  0.9213
  415MOL0     H54732   6.333   4.894  10.876 -4.4216 -0.4107  0.1898
  415MOL0     H54733   6.590   4.929  10.922  1.0896 -0.1355  0.6168
  415MOL0     H54734   6.832   4.925  11.134 -1.7902 -3.7473  2.5257
  415MOL0     H54735   6.768   4.971  11.289  0.8632 -0.2764 -0.6436
  415MOL0     H54736   6.691   5.185  11.241 -0.5141 -1.0471  0.1127
  415MOL0     H54737   6.677   5.167  11.070 -1.9702 -1.7406 -0.7483
  415MOL0     H54738   6.892   5.298  11.182 -4.1600  1.5195 -1.4863
  415MOL0     H54739   6.950   5.135  11.203  2.1570  0.1572 -4.3277
  415MOL0     H54740   6.885   5.097  10.950  0.5335 -0.5133 -0.9874
  415MOL0     H54741   7.027   5.210  10.977 -0.7865  0.7745  0.1319
  415MOL0     H54742   7.076   5.407  11.019  1.3419 -0.0197 -2.1767
  415MOL0     H54743   7.166   5.621  10.946 -0.3937 -2.6481  0.8314
  415MOL0     H54744   7.049   6.071  10.923  1.0286 -0.1779  0.4038
  415MOL0     H54745   7.101   6.312  10.873  0.4156 -2.3620  2.9095
  415MOL0     H54746   7.182   6.356  10.496  1.2108  0.6026 -1.1211
  415MOL0     H54747   7.239   6.385  10.661 -2.1940 -0.7346  0.6352
  415MOL0     H54748   7.157   6.592  10.446 -0.6214 -0.6846 -0.0818
  415MOL0     H54749   7.322   6.573  10.494 -0.9705  1.5699 -2.9154
  415MOL0     H54750   7.103   6.677  10.664 -0.1713 -0.3653  0.2443
  415MOL0     H54751   7.251   6.757  10.606  0.5172  0.1441  1.5113
  415MOL0     H54752   7.249   6.552  10.832  1.0844  0.4952  2.0345
  415MOL0     H54753   7.382   6.624  10.749 -0.1525  0.5244 -0.7447
  415MOL0     H54754   7.159   6.790  10.847  0.9088  2.6826 -4.4547
  415MOL0     H54755   7.315   6.840  10.809 -1.0972  0.3541  0.5782
  415MOL0     H54756   7.398   6.694  11.021 -0.3213 -0.5195  0.7727
  415MOL0     H54757   7.224   6.683  11.053 -1.1041  0.1755 -1.7601
  415MOL0     H54758   7.376   6.943  11.030 -0.9277  0.3549 -0.4903
  415MOL0     H54759   7.213   6.925  11.112  0.1534 -0.3975  2.4617
  415MOL0     H54760   7.343   6.964  11.271  2.7052  1.2006  1.2949
  415MOL0     H54761   7.483   6.861  11.227 -0.2914 -2.3066 -0.1298
  415MOL0     H54762   6.953   6.245  10.466  0.6392  1.1680  0.4166
  415MOL0     H54763   6.929   6.001  10.517  1.3238 -0.9334  1.3073
  415MOL0     H54764   6.819   5.700  10.729  1.8611 -0.6907 -2.8241
  415MOL0     H54765   6.738   5.453  10.774  0.3716 -3.4985  0.3629
  415MOL0     H54766   6.163   5.074  10.016 -2.9057 -0.6086  0.2439
  415MOL0     H54767   6.170   5.274   9.874 -0.4611  2.4502  0.3624
  415MOL0     H54768   5.991   5.902   9.987  4.6500 -0.1728  1.0738
  415MOL0     H54769   5.923   6.051   9.814  1.0704  0.8656 -2.4592
  415MOL0     H54770   5.836   5.880   9.456  0.6290 -0.0400 -0.8583
  415MOL0     H54771   5.889   6.012   9.349 -0.4037  1.7702  0.3321
  415MOL0     H54772   5.711   6.013   9.598  1.4158 -1.9352 -0.5526
  415MOL0     H54773   5.786   6.168   9.549 -2.3446 -0.0508  1.1042
  415MOL0     H54774   5.602   5.989   9.376  1.5521 -0.0474 -1.5347
  415MOL0     H54775   5.679   6.125   9.316 -1.5114 -1.9245 -1.4199
  415MOL0     H54776   5.436   6.187   9.365  0.8499  2.3283 -1.0525
  415MOL0     H54777   5.471   6.130   9.534  3.1288 -0.8579  0.1504
  415MOL0     H54778   5.579   6.533   9.545  0.3312  0.2814 -1.6689
  415MOL0     H54779   6.045   5.758   9.516 -3.0885  0.8234 -0.6736
  415MOL0     H54780   6.066   5.591   9.697 -1.8693  0.0610  1.1737
  416MOL0     O54781   6.686   4.519   4.336  0.0358 -0.2437 -0.7720
  416MOL0     C54782   6.796   4.521   4.397 -0.0373 -0.6712 -0.8068
  416MOL0     O54783   6.881   4.417   4.408  0.0768  0.2845 -0.0825
  416MOL0     C54784   6.854   4.308   4.327  0.5176  0.1809 -0.0581
  416MOL0     C54785   6.732   4.235   4.342 -0.3459 -0.6458  0.0629
  416MOL0     C54786   6.705   4.132   4.264 -0.6585  0.1593 -0.0832
  416MOL0     C54787   6.791   4.085   4.164 -0.0689  0.2099 -0.4628
  416MOL0     O54788   6.753   3.980   4.080  0.7630 -0.2105  0.8123
  416MOL0     C54789   6.837   3.864   4.104 -0.6166  0.3166  0.6386
  416MOL0     C54790   6.819   3.763   3.996 -0.6213  0.2821 -0.1802
  416MOL0     C54791   6.711   3.662   4.026 -0.4477 -0.9021  1.1032
  416MOL0     C54792   6.573   3.719   4.020 -0.0771 -0.3558  0.4285
  416MOL0     C54793   6.459   3.614   4.016 -0.2622  0.1524 -0.6058
  416MOL0     C54794   6.450   3.556   4.155  0.3582  0.6636 -0.3677
  416MOL0     C54795   6.335   3.454   4.188  0.4364 -0.0739 -0.3311
  416MOL0     C54796   6.193   3.515   4.185 -0.0894  0.4728 -0.6119
  416MOL0     N54797   6.175   3.579   4.319  0.2593 -0.8295  0.9519
  416MOL0     C54798   6.128   3.531   4.439 -0.5138 -0.2530  0.2667
  416MOL0     C54799   6.158   3.621   4.531  0.2122  0.6868  1.1769
  416MOL0     C54800   6.111   3.623   4.673  0.4975 -0.1057 -0.3815
  416MOL0     C54801   6.220   3.594   4.780  0.8790  0.3390  0.5188
  416MOL0     C54802   6.270   3.452   4.791 -0.5078 -0.1573  0.6197
  416MOL0     C54803   6.338   3.410   4.924 -0.3971 -0.0634  0.0144
  416MOL0     O54804   6.450   3.493   4.960 -0.0172 -0.0604  0.1369
  416MOL0     C54805   6.542   3.434   5.038  0.0899 -0.5787  0.6488
  416MOL0     C54806   6.518   3.356   5.148  0.1747 -0.7063  0.1363
  416MOL0     C54807   6.628   3.314   5.232  0.0423  0.4256  0.0208
  416MOL0     C54808   6.760   3.335   5.200 -0.3374  0.4120 -0.3703
  416MOL0     C54809   6.866   3.265   5.265 -0.2589 -0.6574  0.1803
  416MOL0     O54810   6.972   3.221   5.178 -0.5284  0.4924 -0.3479
  416MOL0     C54811   7.077   3.161   5.241  0.2615 -0.0558  0.5677
  416MOL0     C54812   7.205   3.228   5.231  0.9419 -0.3696 -0.3017
  416MOL0     C54813   7.311   3.156   5.300  0.9393  1.1681 -0.4521
  416MOL0     C54814   7.302   3.036   5.368  0.5203 -0.3435  0.4480
  416MOL0     O54815   7.408   2.980   5.438 -0.0804  0.5806 -0.1901
  416MOL0     C54816   7.421   2.838   5.430  0.5742 -0.1230  0.2019
  416MOL0     C54817   7.567   2.802   5.470 -0.2116 -0.1805  0.2380
  416MOL0     C54818   7.589   2.824   5.625 -0.2398 -0.2942 -1.4698
  416MOL0     C54819   7.733   2.774   5.679  0.6630 -0.7276 -0.4516
  416MOL0     C54820   7.759   2.825   5.834 -0.0105  0.0137  0.2839
  416MOL0     C54821   7.899   2.793   5.893 -0.7883 -0.1823 -0.1964
  416MOL0     C54822   7.927   2.638   5.907  0.1884  0.6176 -0.2004
  416MOL0     C54823   8.026   2.609   6.020 -0.2585 -0.0289  0.6201
  416MOL0    Cl54824   8.188   2.688   6.000 -0.4261 -0.0351  0.3655
  416MOL0     C54825   7.168   2.974   5.367 -0.5089 -0.4855  0.2510
  416MOL0     C54826   7.064   3.037   5.302 -0.1640  0.4327  0.2214
  416MOL0     O54827   6.870   3.262   5.386 -0.4565 -0.6600 -0.7857
  416MOL0     C54828   6.784   3.409   5.078 -0.5537  1.3722 -1.3516
  416MOL0     C54829   6.678   3.450   4.996  0.9061  0.2281 -0.3008
  416MOL0     N54830   6.219   3.727   4.477 -0.5637 -0.0550  0.6594
  416MOL0     N54831   6.235   3.698   4.353 -0.2459 -0.1046 -0.1820
  416MOL0     C54832   6.914   4.162   4.141  0.3390  0.4659 -1.5494
  416MOL0     C54833   6.942   4.274   4.223  0.3561 -0.3264  0.2758
  416MOL0     C54834   6.842   4.650   4.450  0.1777 -0.4304 -0.6434
  416MOL0     C54835   6.810   4.769   4.383  0.3070  0.8673 -0.0208
  416MOL0     C54836   6.883   4.881   4.417  0.3977 -1.0180 -0.2873
  416MOL0     C54837   6.983   4.891   4.511 -0.1947  0.0261 -0.1360
  416MOL0     O54838   7.031   5.017   4.540  0.2851  0.2709 -0.1394
  416MOL0     C54839   7.153   5.038   4.608 -0.3376 -0.1424  0.2311
  416MOL0     C54840   7.140   5.077   4.755 -0.7252  0.2090  1.1091
  416MOL0     C54841   7.038   4.998   4.836 -0.0554  0.0271  0.2816
  416MOL0     C54842   6.971   5.082   4.957 -0.1813  0.6143 -0.1289
  416MOL0     C54843   6.921   4.988   5.061  0.4773 -0.8340 -0.6025
  416MOL0     C54844   6.875   4.914   5.148  0.1594  0.0312 -0.3114
  416MOL0     C54845   7.008   4.771   4.581  0.2713 -0.3754 -0.6650
  416MOL0     C54846   6.939   4.653   4.556 -0.1607  0.3787  0.0128
  416MOL0     H54847   6.665   4.271   4.419  2.0701 -0.9001  2.4303
  416MOL0     H54848   6.614   4.078   4.288 -0.7483  1.3239  2.5472
  416MOL0     H54849   6.827   3.822   4.205  3.8768  0.7276  1.4281
  416MOL0     H54850   6.939   3.902   4.110  0.0633 -1.5332  1.6450
  416MOL0     H54851   6.911   3.704   4.003 -2.1712 -2.3090 -0.4265
  416MOL0     H54852   6.803   3.808   3.898  1.1074  0.7851 -0.2589
  416MOL0     H54853   6.726   3.625   4.128  1.8217  4.2056  2.9377
  416MOL0     H54854   6.720   3.588   3.946  1.6575  1.1015 -0.6664
  416MOL0     H54855   6.559   3.789   4.103  1.4686  2.8023 -1.7979
  416MOL0     H54856   6.573   3.782   3.931  3.7468  0.5988  0.9253
  416MOL0     H54857   6.481   3.539   3.939 -3.2176 -0.3106 -1.1417
  416MOL0     H54858   6.362   3.656   3.989 -0.5005 -1.2172 -2.0259
  416MOL0     H54859   6.443   3.642   4.223 -3.1223 -1.8147  2.8491
  416MOL0     H54860   6.540   3.498   4.177 -1.4818 -2.5885 -0.7055
  416MOL0     H54861   6.335   3.390   4.099  0.4937  1.8466 -1.7775
  416MOL0     H54862   6.347   3.388   4.274 -3.0008 -3.7603 -2.3405
  416MOL0     H54863   6.116   3.438   4.179 -2.3462  2.3882  1.1186
  416MOL0     H54864   6.171   3.589   4.108  1.2654  0.1622 -1.3068
  416MOL0     H54865   6.069   3.440   4.445 -1.8843  0.5832 -0.1302
  416MOL0     H54866   6.030   3.550   4.678  1.6493 -1.8032 -3.7912
  416MOL0     H54867   6.064   3.721   4.688 -3.4973 -1.7695 -0.7417
  416MOL0     H54868   6.184   3.617   4.881  0.8975 -1.9175  1.0949
  416MOL0     H54869   6.304   3.663   4.769  0.7906  0.0816 -2.4813
  416MOL0     H54870   6.187   3.382   4.786  2.5908 -4.1134 -1.1514
  416MOL0     H54871   6.339   3.441   4.707 -1.1254 -0.2198  0.1143
  416MOL0     H54872   6.376   3.309   4.907  0.7879  0.6721 -2.0071
  416MOL0     H54873   6.269   3.405   5.009 -1.6689  1.2495 -0.8881
  416MOL0     H54874   6.418   3.328   5.177 -0.5219  1.5532  0.1254
  416MOL0     H54875   6.607   3.247   5.314  0.0011  1.6858  1.0700
  416MOL0     H54876   7.218   3.327   5.190  6.6765 -0.5540  0.3485
  416MOL0     H54877   7.415   3.186   5.298  1.4956 -0.5588  0.2512
  416MOL0     H54878   7.405   2.790   5.333  0.2061 -3.4919  1.8191
  416MOL0     H54879   7.345   2.801   5.499  0.2490 -1.5173 -0.8624
  416MOL0     H54880   7.646   2.867   5.432  3.7416 -4.0276  1.0769
  416MOL0     H54881   7.588   2.698   5.445 -0.1921 -0.3769  1.0421
  416MOL0     H54882   7.518   2.765   5.683  0.9514 -1.9444 -1.6206
  416MOL0     H54883   7.576   2.931   5.645  1.3221 -0.3298  0.0414
  416MOL0     H54884   7.741   2.665   5.670 -1.9068 -1.2044  1.7522
  416MOL0     H54885   7.814   2.826   5.626 -0.4306  0.4420 -1.0089
  416MOL0     H54886   7.678   2.780   5.893 -0.4651  0.7359  0.2179
  416MOL0     H54887   7.751   2.934   5.837  1.7408  0.2240 -0.9285
  416MOL0     H54888   7.901   2.833   5.994 -4.3485  0.2994 -0.1809
  416MOL0     H54889   7.979   2.848   5.843  0.3016  2.3242  3.8218
  416MOL0     H54890   7.834   2.579   5.916 -0.2142  1.4272  1.4343
  416MOL0     H54891   7.972   2.593   5.818  1.8346  2.0129 -0.1160
  416MOL0     H54892   8.044   2.501   6.019 -0.4689 -0.0653 -0.7167
  416MOL0     H54893   7.984   2.638   6.117 -0.5806 -0.4057  0.5966
  416MOL0     H54894   7.155   2.879   5.418 -1.5016  0.4003  1.7311
  416MOL0     H54895   6.969   2.985   5.312  0.7407 -1.0462  1.5060
  416MOL0     H54896   6.890   3.425   5.060  0.8014 -2.6317  1.6659
  416MOL0     H54897   6.689   3.495   4.898  0.1832 -1.9725 -1.4383
  416MOL0     H54898   6.967   4.128   4.052 -0.8380  1.1130 -2.5321
  416MOL0     H54899   7.029   4.337   4.209  0.8124 -0.4901  2.1285
  416MOL0     H54900   6.737   4.765   4.303  0.2036  1.0277  0.0649
  416MOL0     H54901   6.864   4.966   4.353  0.8035  0.2386  1.1891
  416MOL0     H54902   7.200   5.124   4.559 -1.6177  0.8906  0.7349
  416MOL0     H54903   7.209   4.945   4.594 -0.5803 -0.1500 -0.7326
  416MOL0     H54904   7.242   5.071   4.794 -0.4570 -0.5777  0.3021
  416MOL0     H54905   7.126   5.185   4.756 -3.4043 -0.0479  0.6474
  416MOL0     H54906   7.081   4.905   4.876 -2.5714 -0.7765  1.3557
  416MOL0     H54907   6.965   4.960   4.765  2.4702  1.9324 -3.6390
  416MOL0     H54908   7.047   5.147   5.000  0.4289  1.0042 -1.7224
  416MOL0     H54909   6.888   5.137   4.911 -2.8307 -3.1054 -0.2492
  416MOL0     H54910   6.841   4.849   5.226  0.6364  0.8549  0.6021
  416MOL0     H54911   7.084   4.786   4.658 -1.7393 -0.0821  1.3661
  416MOL0     H54912   6.971   4.565   4.611  1.3028  0.8449 -0.0608
  417MOL0     O54913   6.698   7.946   5.047 -0.0668  0.1679 -0.3279
  417MOL0     C54914   6.748   8.037   4.985 -0.8515 -0.7847  0.0933
  417MOL0     O54915   6.817   8.025   4.870 -0.2435  0.2577 -0.7982
  417MOL0     C54916   6.833   7.905   4.811 -0.1502  0.2433 -0.1184
  417MOL0     C54917   6.764   7.868   4.699  0.2841  0.3142  0.4900
  417MOL0     C54918   6.791   7.751   4.626 -0.6356 -0.1888  1.3157
  417MOL0     C54919   6.908   7.677   4.663 -0.0908 -0.5526 -0.3242
  417MOL0     O54920   6.952   7.564   4.592 -0.3986 -0.1259 -0.2423
  417MOL0     C54921   6.961   7.567   4.446 -0.2515 -0.1818  0.3982
  417MOL0     C54922   6.839   7.477   4.389 -0.1834 -0.2490 -0.1611
  417MOL0     C54923   6.843   7.334   4.449 -0.2520  0.4489  0.0299
  417MOL0     C54924   6.738   7.246   4.374 -0.1195 -0.0277 -0.4174
  417MOL0     C54925   6.786   7.096   4.384  0.6318 -0.1365  0.3906
  417MOL0     C54926   6.783   7.043   4.532  0.1448  0.0660  0.3460
  417MOL0     C54927   6.856   6.913   4.539 -0.6131  1.4046  0.4700
  417MOL0     C54928   6.902   6.873   4.676 -0.6491  0.3982  0.1418
  417MOL0     N54929   6.924   6.731   4.696 -0.6199 -0.2155  0.5603
  417MOL0     C54930   7.011   6.640   4.638 -0.1915 -0.2159 -0.0345
  417MOL0     C54931   6.972   6.516   4.675  1.4955 -0.1128 -0.4563
  417MOL0     C54932   7.048   6.402   4.649 -0.2169  0.1527 -0.6696
  417MOL0     C54933   7.114   6.351   4.776 -1.1585 -0.3128 -0.5715
  417MOL0     C54934   7.218   6.243   4.748  0.5368  0.2957 -0.3039
  417MOL0     C54935   7.299   6.203   4.874  0.0343  0.7743  0.2857
  417MOL0     O54936   7.238   6.108   4.964 -0.6058  0.0385 -0.6336
  417MOL0     C54937   7.322   6.074   5.070 -0.5136  0.0695 -0.1670
  417MOL0     C54938   7.462   6.114   5.075  0.3047  0.4295  0.2750
  417MOL0     C54939   7.533   6.086   5.185  0.1983 -0.6608 -0.4924
  417MOL0     C54940   7.487   6.007   5.294  0.0222 -0.1982 -0.0117
  417MOL0     C54941   7.565   5.963   5.412 -0.3131  0.2586 -0.8724
  417MOL0     O54942   7.651   6.054   5.449  0.4706 -0.0572  0.1722
  417MOL0     C54943   7.736   6.013   5.548  0.0003 -0.6960 -0.6292
  417MOL0     C54944   7.805   5.894   5.531  0.8500  0.3146  0.1666
  417MOL0     C54945   7.896   5.854   5.625 -0.7422 -0.1907 -0.1398
  417MOL0     C54946   7.920   5.911   5.746 -0.6909 -0.8009  0.8328
  417MOL0     O54947   8.017   5.862   5.832 -0.0567 -0.3602  0.0965
  417MOL0     C54948   8.033   5.926   5.967 -0.1747  0.6660  0.3965
  417MOL0     C54949   8.082   5.818   6.073  0.3396  0.4687 -0.0514
  417MOL0     C54950   8.161   5.880   6.187  0.4206  0.4101  0.8416
  417MOL0     C54951   8.180   5.771   6.296  0.6684 -0.6900  0.0111
  417MOL0     C54952   8.236   5.828   6.428 -0.8861  0.4467  0.1916
  417MOL0     C54953   8.150   5.927   6.522  0.5026  0.4138 -0.1055
  417MOL0     C54954   8.215   5.934   6.668  0.0057 -0.7292  0.7205
  417MOL0     C54955   8.197   6.068   6.750  0.8752 -0.1120 -0.2603
  417MOL0    Cl54956   8.020   6.113   6.729 -0.0857 -0.5222 -0.1018
  417MOL0     C54957   7.851   6.029   5.765  1.1052 -0.5695  0.9774
  417MOL0     C54958   7.758   6.088   5.667 -0.8107 -0.0041  1.0790
  417MOL0     O54959   7.531   5.866   5.481  0.5435  0.4861 -0.0130
  417MOL0     C54960   7.356   5.951   5.272 -1.1859 -0.6586  0.2456
  417MOL0     C54961   7.268   5.994   5.169  0.7932  0.4501 -0.4924
  417MOL0     N54962   6.861   6.532   4.752 -0.5826  0.0206 -0.1315
  417MOL0     N54963   6.835   6.655   4.767  0.2169  0.0866 -0.8065
  417MOL0     C54964   6.969   7.713   4.787 -0.6752 -0.5914 -0.0293
  417MOL0     C54965   6.935   7.828   4.859 -0.2041 -0.5283  0.4387
  417MOL0     C54966   6.744   8.175   5.045  0.6366 -0.7586  0.4613
  417MOL0     C54967   6.839   8.271   5.025  0.0896 -1.0145  0.2197
  417MOL0     C54968   6.841   8.396   5.097  0.7819  0.3487  0.5285
  417MOL0     C54969   6.724   8.433   5.171  0.8632  0.4462  0.4675
  417MOL0     O54970   6.702   8.557   5.220  0.5115  0.6769 -0.3653
  417MOL0     C54971   6.798   8.664   5.224 -0.1214  0.8941  1.9985
  417MOL0     C54972   6.841   8.671   5.369 -0.4300 -0.3220  0.6311
  417MOL0     C54973   6.926   8.797   5.391  0.6204 -0.2513  0.7653
  417MOL0     C54974   6.981   8.811   5.528 -0.0473  0.2631  0.5832
  417MOL0     C54975   6.879   8.813   5.634  0.5242  0.3261  0.6633
  417MOL0     C54976   6.798   8.807   5.719  1.1356 -0.6069  0.3569
  417MOL0     C54977   6.614   8.330   5.185 -0.5752 -1.6886  0.2309
  417MOL0     C54978   6.624   8.208   5.121  0.7377  0.3536  0.4406
  417MOL0     H54979   6.681   7.937   4.683  0.4349  1.7387  4.6405
  417MOL0     H54980   6.728   7.710   4.547 -1.7333  2.1057  0.9263
  417MOL0     H54981   7.053   7.521   4.408 -0.2735 -1.0511  1.3349
  417MOL0     H54982   6.951   7.668   4.405 -3.4818 -0.5676 -0.0901
  417MOL0     H54983   6.836   7.473   4.279 -1.0262  0.9172 -0.2039
  417MOL0     H54984   6.739   7.519   4.404 -0.1369  0.4452 -1.5651
  417MOL0     H54985   6.807   7.331   4.553 -0.5021  0.3195 -0.0601
  417MOL0     H54986   6.943   7.290   4.449 -0.8728 -1.1345  2.0439
  417MOL0     H54987   6.639   7.267   4.415  0.2741  3.0541 -0.8442
  417MOL0     H54988   6.736   7.270   4.267  1.2685  0.3885 -0.3552
  417MOL0     H54989   6.894   7.091   4.365  0.9328 -2.3164  2.2316
  417MOL0     H54990   6.724   7.037   4.316 -2.6344  2.9170  0.4051
  417MOL0     H54991   6.678   7.032   4.561 -0.8458  2.1406 -2.0956
  417MOL0     H54992   6.832   7.108   4.606  2.1766 -0.4554 -0.4657
  417MOL0     H54993   6.795   6.834   4.493 -0.2417  0.6725  1.1915
  417MOL0     H54994   6.936   6.907   4.466  1.1538 -0.0934  2.4132
  417MOL0     H54995   6.816   6.887   4.741  1.5314 -2.1573  3.9286
  417MOL0     H54996   6.983   6.942   4.703  0.0005  0.0945 -0.9276
  417MOL0     H54997   7.084   6.673   4.565 -1.1573 -0.7830 -1.2915
  417MOL0     H54998   7.127   6.439   4.583 -0.2893 -2.0873 -2.1011
  417MOL0     H54999   6.989   6.326   4.598 -0.0427  1.4345 -2.9012
  417MOL0     H55000   7.027   6.308   4.827  0.2411 -1.4462  0.9694
  417MOL0     H55001   7.159   6.429   4.838 -2.5677 -0.8144  1.1747
  417MOL0     H55002   7.159   6.155   4.721 -0.7745  0.5157  1.6176
  417MOL0     H55003   7.276   6.270   4.659 -0.8367 -1.3155 -1.7882
  417MOL0     H55004   7.314   6.292   4.935 -2.0556  1.0475  0.4573
  417MOL0     H55005   7.391   6.161   4.831 -1.3377 -0.0202 -2.0044
  417MOL0     H55006   7.508   6.171   4.995  0.8970 -1.0536 -0.4832
  417MOL0     H55007   7.638   6.115   5.178 -0.0228  0.7851  1.3328
  417MOL0     H55008   7.793   5.845   5.435  0.3574  2.3582 -0.8734
  417MOL0     H55009   7.951   5.767   5.591 -2.9932 -1.5413 -0.5561
  417MOL0     H55010   7.937   5.965   6.002  0.2089  0.2952  1.9211
  417MOL0     H55011   8.105   6.007   5.963 -0.7518  1.1429 -1.7211
  417MOL0     H55012   8.121   5.727   6.027 -0.5210 -0.4090  0.8899
  417MOL0     H55013   7.986   5.789   6.118 -1.9374 -1.2430 -5.2493
  417MOL0     H55014   8.118   5.968   6.234 -0.5808 -0.2716  1.2473
  417MOL0     H55015   8.252   5.915   6.139 -0.8387  1.7524 -0.7144
  417MOL0     H55016   8.084   5.725   6.321  1.5680 -2.1506  0.8787
  417MOL0     H55017   8.227   5.682   6.252 -2.4058 -1.7223 -1.5139
  417MOL0     H55018   8.330   5.880   6.409 -0.5278  0.4165  1.7484
  417MOL0     H55019   8.266   5.739   6.483  0.6387  1.1947  0.6387
  417MOL0     H55020   8.045   5.895   6.522  0.6011 -0.2080 -2.9909
  417MOL0     H55021   8.148   6.028   6.481  0.4696  0.2291 -0.5711
  417MOL0     H55022   8.184   5.848   6.728  0.5236 -0.8052  0.8900
  417MOL0     H55023   8.324   5.923   6.670 -0.0675 -1.9065 -0.8427
  417MOL0     H55024   8.245   6.157   6.710  1.7616 -1.7546 -3.1208
  417MOL0     H55025   8.217   6.066   6.857  1.1374  1.2532 -0.2707
  417MOL0     H55026   7.862   6.103   5.843 -0.7260  1.9062 -0.9213
  417MOL0     H55027   7.711   6.185   5.681 -0.1871  1.1350 -3.1523
  417MOL0     H55028   7.320   5.883   5.349 -4.1787  1.0035  0.4649
  417MOL0     H55029   7.167   5.955   5.170  1.6794 -2.0687 -0.7920
  417MOL0     H55030   7.056   7.653   4.811  0.9823  0.4883 -2.8875
  417MOL0     H55031   6.988   7.865   4.946  0.5179 -1.8068  0.5674
  417MOL0     H55032   6.933   8.250   4.975 -0.2144 -1.5189 -0.1466
  417MOL0     H55033   6.922   8.462   5.069  2.1227 -1.6472 -0.4307
  417MOL0     H55034   6.738   8.751   5.197  0.2629  0.5636 -0.0692
  417MOL0     H55035   6.873   8.642   5.148 -2.1152 -1.9922  0.6737
  417MOL0     H55036   6.750   8.675   5.430  0.7674  1.3305  2.4276
  417MOL0     H55037   6.906   8.584   5.385  0.3665  0.1918  0.2667
  417MOL0     H55038   6.850   8.869   5.359 -0.4139 -2.5537 -2.3864
  417MOL0     H55039   7.004   8.810   5.316  1.4213  0.4373  1.6807
  417MOL0     H55040   7.044   8.722   5.535  0.1862 -0.2074 -4.1374
  417MOL0     H55041   7.049   8.895   5.540  1.4176 -0.8820  0.6026
  417MOL0     H55042   6.735   8.796   5.805 -0.2013  1.1367 -0.3458
  417MOL0     H55043   6.525   8.353   5.242 -0.3019 -0.7582  0.3104
  417MOL0     H55044   6.536   8.146   5.134 -1.5019  3.5966  2.1701
  418MOL0     O55045   8.137   7.423   1.874 -0.5390 -0.1349  0.4170
  418MOL0     C55046   8.234   7.400   1.805  0.1480  1.2716  0.0546
  418MOL0     O55047   8.344   7.322   1.842 -0.5706  0.6481  0.6830
  418MOL0     C55048   8.364   7.299   1.975 -0.9748  0.4160  0.5789
  418MOL0     C55049   8.279   7.275   2.089 -0.5974  0.8013  1.0450
  418MOL0     C55050   8.321   7.261   2.216 -0.4507 -0.5098 -0.2176
  418MOL0     C55051   8.462   7.259   2.242 -0.4055 -1.0444  0.6228
  418MOL0     O55052   8.517   7.241   2.366  0.3839  0.0647  0.0351
  418MOL0     C55053   8.466   7.121   2.430  0.4566 -0.5317  1.0173
  418MOL0     C55054   8.517   7.107   2.573  0.3873 -0.4927 -0.3840
  418MOL0     C55055   8.448   6.975   2.637 -0.3413 -0.2494  1.0770
  418MOL0     C55056   8.524   6.902   2.745 -0.9197  0.5115  0.2747
  418MOL0     C55057   8.575   6.977   2.862  0.3478  0.3673  0.3513
  418MOL0     C55058   8.669   6.909   2.960 -0.1252  0.1414  0.6749
  418MOL0     C55059   8.711   6.995   3.086  0.0127  0.1951 -0.3941
  418MOL0     C55060   8.834   6.930   3.158  0.5061 -0.0248 -0.1782
  418MOL0     N55061   8.786   6.804   3.221 -1.1132 -0.9423 -1.1774
  418MOL0     C55062   8.746   6.786   3.351 -0.1074 -0.4466  0.0335
  418MOL0     C55063   8.711   6.660   3.366 -0.0281 -0.3715 -0.4278
  418MOL0     C55064   8.656   6.592   3.496  0.7150  0.6506 -0.3290
  418MOL0     C55065   8.776   6.571   3.584 -0.1097 -0.3132 -0.3532
  418MOL0     C55066   8.759   6.466   3.694  1.1757  0.0455 -0.2533
  418MOL0     C55067   8.666   6.521   3.799  0.2624 -1.5260  0.1098
  418MOL0     O55068   8.580   6.417   3.848  0.3286 -0.2837 -1.0465
  418MOL0     C55069   8.457   6.461   3.894  0.3236  0.3513  0.5854
  418MOL0     C55070   8.354   6.377   3.864 -0.4107 -0.5871 -0.1817
  418MOL0     C55071   8.226   6.383   3.930  0.3094  0.6039 -0.3637
  418MOL0     C55072   8.200   6.504   3.993  0.1673  0.4179 -0.0985
  418MOL0     C55073   8.067   6.532   4.065 -0.2500 -0.9115 -0.4594
  418MOL0     O55074   8.041   6.662   4.115  0.2521 -0.1106 -0.6345
  418MOL0     C55075   7.910   6.690   4.147  0.0892  0.5428 -0.0681
  418MOL0     C55076   7.867   6.676   4.282  0.0673  0.0482 -0.6967
  418MOL0     C55077   7.734   6.697   4.316 -0.5209 -0.5038  0.6736
  418MOL0     C55078   7.644   6.746   4.223 -0.1544  0.9802  0.3198
  418MOL0     O55079   7.516   6.780   4.270  0.2572  0.0895 -0.3162
  418MOL0     C55080   7.420   6.829   4.185 -0.1760  0.1234  0.9057
  418MOL0     C55081   7.291   6.866   4.246  0.3034  0.3481  1.0043
  418MOL0     C55082   7.319   6.966   4.357 -0.6410  0.0336 -0.3039
  418MOL0     C55083   7.196   7.050   4.381 -0.1710 -0.0068  0.6570
  418MOL0     C55084   7.189   7.121   4.522  0.7581  0.4323  0.4880
  418MOL0     C55085   7.282   7.248   4.525  0.9822 -0.4054 -0.1043
  418MOL0     C55086   7.309   7.321   4.663 -0.0883  0.4944 -0.3110
  418MOL0     C55087   7.172   7.341   4.751  0.4534  0.0181  0.2366
  418MOL0    Cl55088   7.125   7.177   4.810  0.3249  0.3480 -0.2818
  418MOL0     C55089   7.691   6.761   4.092 -0.5886  0.4717  0.0077
  418MOL0     C55090   7.824   6.728   4.051 -0.4807 -0.0807  0.4761
  418MOL0     O55091   7.989   6.440   4.066 -0.0833  0.4282  0.3205
  418MOL0     C55092   8.299   6.607   4.008  0.3508  0.3348  0.5265
  418MOL0     C55093   8.421   6.584   3.956  0.3350  1.2171  0.7668
  418MOL0     N55094   8.734   6.599   3.243  0.3161  0.3574 -0.0330
  418MOL0     N55095   8.781   6.685   3.161  0.4265 -1.1058 -0.5897
  418MOL0     C55096   8.550   7.272   2.134 -0.3072  0.2683  0.5096
  418MOL0     C55097   8.501   7.300   2.003 -0.4009 -0.5926  0.1560
  418MOL0     C55098   8.239   7.463   1.669 -0.5779  0.3983  0.1493
  418MOL0     C55099   8.360   7.440   1.594  0.0345  0.3432  0.0712
  418MOL0     C55100   8.387   7.501   1.465  0.7284  0.5197 -0.5782
  418MOL0     C55101   8.290   7.584   1.416  0.6787 -0.4444 -0.2710
  418MOL0     O55102   8.309   7.653   1.294  0.5984  0.0594  0.0962
  418MOL0     C55103   8.443   7.676   1.245  0.1922  0.6953 -0.1001
  418MOL0     C55104   8.417   7.788   1.129  0.4081  0.8197  0.1861
  418MOL0     C55105   8.547   7.826   1.044 -0.3495 -0.2313 -0.7563
  418MOL0     C55106   8.552   7.747   0.909  0.1557  0.1915  0.1217
  418MOL0     C55107   8.591   7.603   0.911  0.8690  0.0570  0.1769
  418MOL0     C55108   8.602   7.478   0.904 -0.6704  1.0293  0.7350
  418MOL0     C55109   8.169   7.599   1.482 -0.5678 -0.1728 -0.8735
  418MOL0     C55110   8.150   7.540   1.604  0.3018  0.5164 -0.2524
  418MOL0     H55111   8.172   7.269   2.068 -0.6463 -0.5587  1.6141
  418MOL0     H55112   8.244   7.237   2.289 -0.9753 -0.1262 -0.6345
  418MOL0     H55113   8.489   7.030   2.375  0.4257  0.9896 -1.6652
  418MOL0     H55114   8.357   7.123   2.443  0.1489  1.7381 -1.1505
  418MOL0     H55115   8.476   7.194   2.625  1.2618 -0.4089  0.1882
  418MOL0     H55116   8.627   7.103   2.580  0.5717  1.5560 -1.3774
  418MOL0     H55117   8.396   6.911   2.565 -2.2231  1.1622  1.1041
  418MOL0     H55118   8.359   7.001   2.694 -0.5954  0.1639  0.5069
  418MOL0     H55119   8.461   6.817   2.772 -0.7589 -0.7024 -2.7871
  418MOL0     H55120   8.617   6.863   2.702  2.5919  5.7210  2.1649
  418MOL0     H55121   8.476   6.999   2.901 -1.5254  3.9942 -5.2145
  418MOL0     H55122   8.624   7.068   2.823 -3.7749  2.3318 -0.7660
  418MOL0     H55123   8.759   6.872   2.908 -1.6267 -1.8813 -0.6372
  418MOL0     H55124   8.620   6.816   2.991 -0.2908 -0.4801 -1.3005
  418MOL0     H55125   8.761   7.086   3.052  0.2261  0.1247 -0.2656
  418MOL0     H55126   8.624   7.032   3.141 -1.1931  1.3238 -2.8862
  418MOL0     H55127   8.883   6.996   3.230  2.0442  0.1157 -1.3078
  418MOL0     H55128   8.920   6.904   3.096  1.8839 -1.5810  2.1899
  418MOL0     H55129   8.745   6.860   3.432  1.4512  3.5578 -3.2387
  418MOL0     H55130   8.593   6.506   3.471 -2.5430  3.0117 -1.0033
  418MOL0     H55131   8.589   6.656   3.554 -0.6762 -1.8315  0.9790
  418MOL0     H55132   8.815   6.662   3.631  1.9862 -0.0434 -2.4083
  418MOL0     H55133   8.856   6.531   3.521 -1.2374 -1.7779 -0.9122
  418MOL0     H55134   8.717   6.376   3.648 -2.6797  1.0662  0.8651
  418MOL0     H55135   8.844   6.431   3.753  1.0205 -0.5936 -0.3990
  418MOL0     H55136   8.601   6.600   3.762  1.9307  0.3513  0.9898
  418MOL0     H55137   8.720   6.579   3.874 -4.6390  4.6066 -0.2923
  418MOL0     H55138   8.387   6.288   3.811 -2.5582 -0.9040 -1.0909
  418MOL0     H55139   8.155   6.302   3.921 -0.1771  1.1501 -1.7880
  418MOL0     H55140   7.941   6.641   4.353  0.5616 -1.2500 -1.8025
  418MOL0     H55141   7.710   6.676   4.420  0.9678 -2.2724  0.7172
  418MOL0     H55142   7.405   6.753   4.107 -1.0837  0.8241  0.3665
  418MOL0     H55143   7.465   6.915   4.134  4.1607 -1.7909  1.0763
  418MOL0     H55144   7.223   6.787   4.280 -0.7077  1.0713  0.7208
  418MOL0     H55145   7.226   6.905   4.167 -1.3743 -1.4686  1.4226
  418MOL0     H55146   7.405   7.027   4.330  1.8166 -2.7667  0.6588
  418MOL0     H55147   7.332   6.908   4.449 -3.7106 -1.6509 -0.7702
  418MOL0     H55148   7.203   7.123   4.299  1.8709 -2.2586 -1.3379
  418MOL0     H55149   7.107   6.989   4.364  0.2247 -0.2901 -0.5419
  418MOL0     H55150   7.215   7.046   4.598  1.0928 -0.9207 -0.9216
  418MOL0     H55151   7.085   7.151   4.536  0.2300 -0.2488 -1.6568
  418MOL0     H55152   7.240   7.304   4.441  1.3967 -2.3361 -1.6898
  418MOL0     H55153   7.383   7.227   4.488  1.7699 -0.6677  2.0896
  418MOL0     H55154   7.387   7.272   4.722 -2.1377 -1.8437  0.6391
  418MOL0     H55155   7.350   7.420   4.644  0.0141  0.9216  1.9212
  418MOL0     H55156   7.100   7.395   4.689 -0.6649  0.2064  1.6234
  418MOL0     H55157   7.207   7.396   4.839 -1.7627  2.0792 -0.0462
  418MOL0     H55158   7.627   6.794   4.011  0.2344  0.8375 -0.5168
  418MOL0     H55159   7.864   6.756   3.954 -3.0614  1.1714 -0.2931
  418MOL0     H55160   8.290   6.691   4.075  2.1901 -0.8651  2.3891
  418MOL0     H55161   8.501   6.658   3.967  3.0458 -0.9708 -2.1654
  418MOL0     H55162   8.655   7.265   2.161  0.7508  2.0782 -2.5536
  418MOL0     H55163   8.573   7.321   1.925 -0.5353  1.5932  0.5625
  418MOL0     H55164   8.437   7.378   1.639  0.9502  1.2366 -0.2268
  418MOL0     H55165   8.479   7.498   1.407 -0.9365  0.8749 -3.4173
  418MOL0     H55166   8.485   7.584   1.205 -0.7415  0.8039 -1.3905
  418MOL0     H55167   8.523   7.717   1.308  2.3339 -1.9822 -0.9347
  418MOL0     H55168   8.331   7.767   1.065 -0.0415 -1.1862  1.3552
  418MOL0     H55169   8.393   7.886   1.170 -1.0168  1.3544 -1.8035
  418MOL0     H55170   8.645   7.804   1.088  0.3594  0.8726 -1.7309
  418MOL0     H55171   8.539   7.932   1.022  0.9170 -0.4159 -2.2469
  418MOL0     H55172   8.448   7.765   0.880 -0.2159  1.1044  1.8653
  418MOL0     H55173   8.621   7.790   0.835 -1.8047  4.8051  0.6036
  418MOL0     H55174   8.603   7.371   0.912  2.4665  0.7641 -1.2967
  418MOL0     H55175   8.089   7.664   1.448  1.2301  2.3393 -0.5751
  418MOL0     H55176   8.057   7.552   1.658  0.5152 -0.6102  0.4053
  419MOL0     O55177  10.038   8.044   2.162  0.0592 -0.5465 -0.6271
  419MOL0     C55178  10.042   8.052   2.038  0.8556 -0.3073 -0.0031
  419MOL0     O55179  10.034   8.163   1.970 -0.7351 -0.1272 -0.9624
  419MOL0     C55180  10.011   8.282   2.041  0.2219  0.2430  0.1340
  419MOL0     C55181  10.079   8.399   1.994  0.2528  0.1420  0.3739
  419MOL0     C55182  10.055   8.519   2.044  0.6453  0.3676  0.0252
  419MOL0     C55183   9.952   8.540   2.129 -0.4486 -0.1941  1.3912
  419MOL0     O55184   9.924   8.669   2.171  0.3222 -0.0846 -0.2441
  419MOL0     C55185   9.862   8.761   2.079  0.3045  0.0760 -0.0069
  419MOL0     C55186   9.712   8.746   2.073  0.8199  0.1278 -1.0441
  419MOL0     C55187   9.644   8.855   1.990  0.1746 -0.6374 -0.6448
  419MOL0     C55188   9.694   9.005   2.007  0.3458 -0.3398  0.9244
  419MOL0     C55189   9.615   9.094   1.915  0.3702 -0.0678 -0.2015
  419MOL0     C55190   9.600   9.248   1.957 -0.6475  1.4943  0.0766
  419MOL0     C55191   9.509   9.274   2.075  0.5485 -0.5318 -0.4246
  419MOL0     C55192   9.368   9.233   2.030 -0.3047  0.9960  0.6264
  419MOL0     N55193   9.265   9.301   2.112  0.4977 -0.3755 -0.4298
  419MOL0     C55194   9.204   9.411   2.067  0.3685  0.2618  0.4146
  419MOL0     C55195   9.151   9.479   2.171  0.1116 -0.0020 -0.0825
  419MOL0     C55196   9.067   9.596   2.170  0.0939  0.0792  0.0984
  419MOL0     C55197   9.091   9.697   2.281  0.3157  0.6025  0.6093
  419MOL0     C55198   9.010   9.828   2.252 -0.6434  0.1040 -0.3990
  419MOL0     C55199   9.057   9.924   2.144  1.0213 -0.0058  1.0883
  419MOL0     O55200   9.201   9.925   2.157  0.0327  0.1508 -0.3885
  419MOL0     C55201   9.281   9.856   2.065 -0.2650 -0.4501 -0.3292
  419MOL0     C55202   9.401   9.815   2.114  0.1680  0.2106  0.1226
  419MOL0     C55203   9.489   9.745   2.036  0.7070  0.5947  0.2674
  419MOL0     C55204   9.454   9.714   1.903  0.4487 -0.0450  0.2554
  419MOL0     C55205   9.544   9.618   1.821 -0.2962 -0.5777 -0.9661
  419MOL0     O55206   9.496   9.573   1.705  0.6138 -0.6259 -0.1594
  419MOL0     C55207   9.575   9.496   1.624 -0.4742 -0.3640  0.2857
  419MOL0     C55208   9.673   9.559   1.536  0.5951 -0.2320  0.0646
  419MOL0     C55209   9.740   9.475   1.443 -0.0774 -0.4584  0.1673
  419MOL0     C55210   9.712   9.340   1.422 -0.0645  0.3662  0.5018
  419MOL0     O55211   9.774   9.270   1.320 -0.4826 -1.1439  0.5019
  419MOL0     C55212   9.901   9.316   1.284 -1.3782 -1.3359  0.7222
  419MOL0     C55213   9.979   9.203   1.222 -0.3756  0.2334  0.2550
  419MOL0     C55214  10.130   9.208   1.258 -0.0295  0.4692 -0.8330
  419MOL0     C55215  10.210   9.289   1.154 -0.7920 -0.3519  0.6541
  419MOL0     C55216  10.356   9.263   1.168  0.2169  0.7644  0.1747
  419MOL0     C55217  10.413   9.355   1.273 -0.5741  0.2494  0.5231
  419MOL0     C55218  10.562   9.345   1.292  0.0020  0.7461  0.8111
  419MOL0     C55219  10.601   9.219   1.366 -0.9341  0.1841 -1.2475
  419MOL0    Cl55220  10.767   9.219   1.415 -0.3405 -0.3330 -0.1229
  419MOL0     C55221   9.621   9.283   1.512  0.3533  0.0819  0.4855
  419MOL0     C55222   9.547   9.360   1.607  1.1038  0.0766  0.4159
  419MOL0     O55223   9.653   9.587   1.866  0.0048 -0.5043  0.3060
  419MOL0     C55224   9.330   9.759   1.848  0.1485 -0.9491  0.2172
  419MOL0     C55225   9.254   9.838   1.924 -0.1256 -0.1214  0.2267
  419MOL0     N55226   9.192   9.408   2.283  0.3090  0.6021 -0.5420
  419MOL0     N55227   9.255   9.302   2.246  0.3915  0.5623  0.3228
  419MOL0     C55228   9.874   8.428   2.181 -0.1272 -0.9800  0.8811
  419MOL0     C55229   9.916   8.301   2.146  0.0001 -0.0651  0.1674
  419MOL0     C55230  10.057   7.930   1.965 -1.1660  0.7077 -0.0954
  419MOL0     C55231  10.072   7.807   2.036  0.1861 -0.7541  0.0812
  419MOL0     C55232  10.096   7.688   1.969  1.2129  0.2829 -0.0997
  419MOL0     C55233  10.088   7.692   1.829 -0.4575 -0.7276  0.2562
  419MOL0     O55234  10.114   7.580   1.761  0.0398  0.0762  0.8138
  419MOL0     C55235  10.026   7.473   1.783  0.3847  0.3051 -0.0343
  419MOL0     C55236   9.890   7.504   1.735 -0.8262  0.1696  0.5808
  419MOL0     C55237   9.792   7.398   1.733  0.9285  0.1863  0.4966
  419MOL0     C55238   9.739   7.341   1.609  1.9536  0.1593  0.1627
  419MOL0     C55239   9.831   7.277   1.523 -0.1679  0.6306  0.1993
  419MOL0     C55240   9.908   7.209   1.454  0.6186  0.4879 -0.5365
  419MOL0     C55241  10.077   7.814   1.753 -0.5618  0.3015  0.1825
  419MOL0     C55242  10.072   7.935   1.826  0.2902  0.2537 -0.8549
  419MOL0     H55243  10.156   8.388   1.919 -2.1566 -3.4655 -1.9290
  419MOL0     H55244  10.117   8.605   2.024  1.9897 -0.7854 -0.9583
  419MOL0     H55245   9.913   8.751   1.982  3.0180  0.7471  1.2592
  419MOL0     H55246   9.888   8.860   2.118 -0.9893  0.3470  0.2164
  419MOL0     H55247   9.680   8.740   2.177 -0.5013 -1.3260 -1.5008
  419MOL0     H55248   9.689   8.655   2.016  0.5776 -0.1212 -0.5516
  419MOL0     H55249   9.536   8.842   2.003  0.3822  0.0353  2.6307
  419MOL0     H55250   9.671   8.841   1.885  1.0899  0.6399 -0.6040
  419MOL0     H55251   9.675   9.024   2.113 -1.4511 -2.7062  1.0991
  419MOL0     H55252   9.801   9.020   1.991  0.7091 -2.1367  1.5042
  419MOL0     H55253   9.519   9.053   1.883  0.1299  2.9915 -4.0377
  419MOL0     H55254   9.674   9.083   1.824  0.5837  0.8615 -0.1859
  419MOL0     H55255   9.571   9.310   1.872 -0.4459 -0.3293 -1.3816
  419MOL0     H55256   9.702   9.276   1.984 -0.6251 -2.1416  5.2851
  419MOL0     H55257   9.551   9.217   2.158  0.3709 -3.0281 -1.9562
  419MOL0     H55258   9.503   9.380   2.100 -1.1144 -0.4188 -1.1782
  419MOL0     H55259   9.364   9.125   2.047 -2.5785  1.0291  0.6207
  419MOL0     H55260   9.351   9.240   1.922 -2.6517  0.5072  0.9053
  419MOL0     H55261   9.203   9.430   1.960 -0.7632 -1.4018  0.0858
  419MOL0     H55262   8.964   9.560   2.158  0.6255 -1.2477 -0.7725
  419MOL0     H55263   9.096   9.651   2.080  1.4366  3.6389  2.4780
  419MOL0     H55264   9.196   9.722   2.298 -0.2092  2.2182  1.6286
  419MOL0     H55265   9.062   9.642   2.371 -0.3031  0.9662  0.6385
  419MOL0     H55266   8.902   9.807   2.246 -0.3661 -1.0896 -5.0574
  419MOL0     H55267   9.043   9.876   2.345 -0.7497 -1.6023  0.5618
  419MOL0     H55268   9.013  10.024   2.156 -1.2134 -0.6481 -0.9428
  419MOL0     H55269   9.017   9.896   2.046 -0.4964  2.1473  1.0001
  419MOL0     H55270   9.418   9.823   2.221  1.4058  0.6902 -0.0987
  419MOL0     H55271   9.588   9.714   2.069  1.1085  0.2151 -1.1857
  419MOL0     H55272   9.691   9.662   1.565  0.4932  0.1708 -1.2371
  419MOL0     H55273   9.830   9.525   1.408  0.3253 -0.8173  0.6822
  419MOL0     H55274   9.960   9.366   1.361  0.2562  0.1150 -1.3427
  419MOL0     H55275   9.889   9.384   1.200  1.3514 -1.6271 -0.0026
  419MOL0     H55276   9.953   9.192   1.116  0.3691 -1.7288  0.2358
  419MOL0     H55277   9.955   9.103   1.259 -0.6014 -0.4893 -1.6899
  419MOL0     H55278  10.164   9.106   1.277  1.2374  1.4674  3.3044
  419MOL0     H55279  10.136   9.258   1.355  0.4098  0.5272 -0.8892
  419MOL0     H55280  10.166   9.260   1.058  0.4555 -0.9253  0.2384
  419MOL0     H55281  10.171   9.392   1.155 -1.2667 -0.5302  0.8882
  419MOL0     H55282  10.403   9.287   1.072  2.8354 -1.5973  0.7345
  419MOL0     H55283  10.391   9.160   1.183  0.3855  0.9603  1.2257
  419MOL0     H55284  10.373   9.352   1.374  0.3708  0.2163  0.9070
  419MOL0     H55285  10.396   9.460   1.250  1.0470  0.7340  1.4007
  419MOL0     H55286  10.608   9.349   1.193 -3.9571  2.1538 -1.2109
  419MOL0     H55287  10.581   9.430   1.358 -2.3893  0.0761  2.5194
  419MOL0     H55288  10.574   9.131   1.308  2.1413  0.2686 -3.0011
  419MOL0     H55289  10.554   9.216   1.465  0.6544  1.2344 -0.4242
  419MOL0     H55290   9.593   9.178   1.511 -0.0450  0.1232  2.6605
  419MOL0     H55291   9.469   9.321   1.672  2.5503  1.7862  3.3998
  419MOL0     H55292   9.302   9.732   1.747 -1.0361  1.2780 -0.1081
  419MOL0     H55293   9.158   9.875   1.890 -1.6970 -4.0218 -0.0724
  419MOL0     H55294   9.806   8.469   2.255 -0.0544  1.8140 -0.4601
  419MOL0     H55295   9.864   8.215   2.189  0.8348  0.5969  2.6846
  419MOL0     H55296  10.055   7.794   2.142  2.4084 -1.8827  0.3486
  419MOL0     H55297  10.120   7.594   2.018 -0.7638 -0.2028  0.0452
  419MOL0     H55298  10.017   7.442   1.888  0.1720 -3.7907 -1.1143
  419MOL0     H55299  10.064   7.381   1.738  2.5014 -0.0039  2.1388
  419MOL0     H55300   9.842   7.576   1.802 -1.7471 -1.2163  1.4554
  419MOL0     H55301   9.892   7.537   1.630 -1.9021 -1.8674 -0.1407
  419MOL0     H55302   9.704   7.436   1.786 -0.1338 -2.3609  0.6989
  419MOL0     H55303   9.813   7.306   1.789 -0.1588 -0.7510 -0.5853
  419MOL0     H55304   9.653   7.277   1.630  0.3982  1.5117 -1.6927
  419MOL0     H55305   9.688   7.417   1.549 -0.2877 -0.5760  1.0359
  419MOL0     H55306   9.966   7.156   1.381 -1.6160 -0.4296 -1.7678
  419MOL0     H55307  10.063   7.804   1.646  1.6204 -0.0851 -0.1012
  419MOL0     H55308  10.076   8.031   1.776  0.4282  0.5991 -0.1921
  420MOL0     O55309   2.576   7.650   0.798  0.0947 -0.2230  0.6639
  420MOL0     C55310   2.491   7.611   0.884  0.1662 -0.7858 -0.0487
  420MOL0     O55311   2.391   7.679   0.924  0.2201  0.2973 -0.4386
  420MOL0     C55312   2.337   7.792   0.868 -0.1993  0.3319  0.2709
  420MOL0     C55313   2.238   7.849   0.939  0.2768 -0.9561 -0.2411
  420MOL0     C55314   2.170   7.964   0.885 -0.2590  0.7580 -0.1147
  420MOL0     C55315   2.200   8.020   0.761  1.0200  0.3495 -0.7587
  420MOL0     O55316   2.135   8.123   0.699 -0.0938  0.0817  0.1896
  420MOL0     C55317   2.012   8.172   0.749  0.2305  0.7642 -0.2119
  420MOL0     C55318   1.938   8.243   0.638  0.6827  0.1353 -0.1472
  420MOL0     C55319   1.801   8.302   0.685 -0.2400  0.9782 -0.3846
  420MOL0     C55320   1.731   8.352   0.563 -0.0915  0.4608  0.2506
  420MOL0     C55321   1.607   8.430   0.613 -0.1002  0.0477 -0.1497
  420MOL0     C55322   1.533   8.515   0.509  0.9406 -0.4485  0.2215
  420MOL0     C55323   1.413   8.573   0.578 -0.2213  1.0853  0.0856
  420MOL0     C55324   1.324   8.638   0.474  0.1246 -0.3425 -0.2224
  420MOL0     N55325   1.230   8.550   0.405 -0.3079  0.8742  0.4675
  420MOL0     C55326   1.174   8.426   0.423 -0.4985 -0.3479 -0.1543
  420MOL0     C55327   1.120   8.388   0.306 -0.0374  1.2075  0.2211
  420MOL0     C55328   1.062   8.253   0.287 -0.5149 -0.0369  0.7139
  420MOL0     C55329   1.039   8.213   0.142  0.3407  0.6507 -0.0531
  420MOL0     C55330   0.955   8.078   0.131  0.2996 -0.1963 -0.3179
  420MOL0     C55331   1.014   7.993   0.020  0.0652  0.1364  0.3053
  420MOL0     O55332   1.010   8.062  -0.112 -0.1693  0.4444  0.4116
  420MOL0     C55333   1.115   8.045  -0.197  0.1868  0.2715  0.0977
  420MOL0     C55334   1.182   8.158  -0.242  1.5808 -0.0491  1.4682
  420MOL0     C55335   1.294   8.152  -0.323 -0.9172 -0.1059  0.5848
  420MOL0     C55336   1.341   8.028  -0.353 -1.1469 -0.9099  1.0041
  420MOL0     C55337   1.472   8.016  -0.430 -0.7938  0.6166 -0.2454
  420MOL0     O55338   1.501   7.891  -0.487 -0.3300  0.2937 -0.2108
  420MOL0     C55339   1.591   7.901  -0.589  0.5740 -0.6856  0.5824
  420MOL0     C55340   1.541   7.965  -0.705 -0.2018 -0.1093 -0.3172
  420MOL0     C55341   1.632   7.986  -0.800  0.7037  0.5297  0.1119
  420MOL0     C55342   1.761   7.929  -0.798 -0.7763 -0.5154 -0.5477
  420MOL0     O55343   1.858   7.953  -0.891 -0.2445 -0.0955 -0.1205
  420MOL0     C55344   1.846   8.048  -0.995  1.1269 -0.1846 -0.2273
  420MOL0     C55345   1.929   8.001  -1.101  1.2601 -0.1103  0.2942
  420MOL0     C55346   2.085   8.017  -1.077 -0.5319  0.9141  0.4759
  420MOL0     C55347   2.159   7.985  -1.205 -1.0220 -1.4219 -0.2084
  420MOL0     C55348   2.310   8.001  -1.171 -0.7033  0.3841  0.1259
  420MOL0     C55349   2.412   8.015  -1.295  0.3429 -0.5507  0.4559
  420MOL0     C55350   2.545   7.976  -1.231  1.5829  0.5511  0.0584
  420MOL0     C55351   2.666   8.030  -1.300  0.7701 -0.5990  0.1005
  420MOL0    Cl55352   2.640   8.066  -1.474  0.1531 -0.2295 -0.3176
  420MOL0     C55353   1.795   7.848  -0.693  0.4854  0.0294  0.1538
  420MOL0     C55354   1.714   7.840  -0.577 -0.0416 -0.5051  0.2036
  420MOL0     O55355   1.529   8.125  -0.448  0.5066  0.3414 -0.7452
  420MOL0     C55356   1.282   7.912  -0.289 -0.0436  0.7088  0.5374
  420MOL0     C55357   1.168   7.921  -0.217 -0.8296  0.5469 -0.4052
  420MOL0     N55358   1.126   8.496   0.226  0.6782 -0.2814 -0.6345
  420MOL0     N55359   1.205   8.582   0.276 -0.2834 -0.0020 -0.4115
  420MOL0     C55360   2.297   7.951   0.692  0.4745  0.2252  1.2542
  420MOL0     C55361   2.359   7.837   0.735  0.0054  0.5364  0.6901
  420MOL0     C55362   2.512   7.478   0.937  0.8916 -0.9969 -0.4458
  420MOL0     C55363   2.400   7.398   0.987 -1.1881 -0.5359  0.2153
  420MOL0     C55364   2.418   7.261   1.017 -0.0798 -0.0699 -0.5958
  420MOL0     C55365   2.548   7.201   1.013 -0.3063  0.2184  0.2280
  420MOL0     O55366   2.568   7.065   1.045 -0.0250 -0.0475  0.2866
  420MOL0     C55367   2.688   6.986   1.012 -0.0005 -0.1129 -0.1174
  420MOL0     C55368   2.682   6.837   1.054  0.1132 -0.1683 -0.0844
  420MOL0     C55369   2.584   6.753   0.962  0.1263  0.2552 -0.9794
  420MOL0     C55370   2.607   6.607   0.992  0.2818 -0.4224 -0.6331
  420MOL0     C55371   2.570   6.552   1.121  0.3505 -0.2228 -0.1579
  420MOL0     C55372   2.539   6.515   1.237  0.2450  0.4936 -0.1631
  420MOL0     C55373   2.660   7.291   0.990  0.2818 -0.4336 -0.3329
  420MOL0     C55374   2.647   7.418   0.942 -0.5899 -0.4558 -0.1093
  420MOL0     H55375   2.225   7.809   1.040  0.1802 -1.8893 -0.6083
  420MOL0     H55376   2.079   7.991   0.938  0.2312 -2.7777  2.9466
  420MOL0     H55377   2.042   8.243   0.827  2.4879 -0.0274 -0.2736
  420MOL0     H55378   1.960   8.082   0.783  0.2093  0.5313 -0.8483
  420MOL0     H55379   1.930   8.174   0.554  0.3251  2.1912 -1.8736
  420MOL0     H55380   1.999   8.327   0.604  0.5021  0.2420 -0.2036
  420MOL0     H55381   1.807   8.371   0.770 -0.5371 -1.3399  1.6301
  420MOL0     H55382   1.748   8.212   0.718  1.8423 -0.9685 -1.9770
  420MOL0     H55383   1.802   8.408   0.501  2.2472 -1.4909  1.0007
  420MOL0     H55384   1.697   8.269   0.500 -1.9195  2.2096 -1.2002
  420MOL0     H55385   1.625   8.493   0.701 -0.6688  4.0073 -2.6230
  420MOL0     H55386   1.540   8.353   0.651  1.2949  0.4737  3.6258
  420MOL0     H55387   1.514   8.448   0.424  0.3673  1.2850 -1.0882
  420MOL0     H55388   1.596   8.593   0.466 -0.4777 -0.2443 -1.6553
  420MOL0     H55389   1.360   8.494   0.632  0.0379 -3.1707 -5.0167
  420MOL0     H55390   1.444   8.641   0.657 -1.0171 -0.4862  1.8348
  420MOL0     H55391   1.385   8.685   0.396 -0.9079  0.0403 -0.8214
  420MOL0     H55392   1.253   8.710   0.517 -1.3243 -1.5623 -0.4705
  420MOL0     H55393   1.195   8.368   0.513 -0.0752  2.3199  1.6125
  420MOL0     H55394   0.964   8.242   0.335 -0.7947  1.5717  0.5598
  420MOL0     H55395   1.124   8.178   0.337 -0.4922  0.8525  2.0834
  420MOL0     H55396   1.135   8.194   0.092  1.4376  3.9140  0.6006
  420MOL0     H55397   0.983   8.286   0.083  0.1865 -2.1579 -3.7660
  420MOL0     H55398   0.951   8.022   0.225  1.1062  1.0086  0.4610
  420MOL0     H55399   0.850   8.093   0.103 -0.6843 -3.3514  1.1840
  420MOL0     H55400   0.963   7.897   0.024  3.2415 -1.7893 -1.3661
  420MOL0     H55401   1.119   7.970   0.037  0.0800 -2.0707 -2.2225
  420MOL0     H55402   1.125   8.246  -0.215 -3.9187 -2.7055  0.0171
  420MOL0     H55403   1.327   8.249  -0.358  2.3805 -1.3985 -0.1929
  420MOL0     H55404   1.437   7.994  -0.712 -0.0478  0.4637 -0.2647
  420MOL0     H55405   1.607   8.049  -0.885  1.4931 -0.1413 -0.6366
  420MOL0     H55406   1.890   8.143  -0.963 -1.9851  0.9283  1.1297
  420MOL0     H55407   1.744   8.062  -1.035  0.8623 -1.7959 -0.1870
  420MOL0     H55408   1.901   8.045  -1.197  0.0207 -0.6915  0.3686
  420MOL0     H55409   1.905   7.895  -1.116  0.1890  0.4139 -2.1598
  420MOL0     H55410   2.114   7.954  -0.992  0.1316 -0.0744 -0.4462
  420MOL0     H55411   2.112   8.120  -1.056 -2.6080  1.6570 -0.2552
  420MOL0     H55412   2.141   7.887  -1.249  1.9014 -1.2771 -2.0310
  420MOL0     H55413   2.130   8.062  -1.277  0.5912 -1.1562 -0.6206
  420MOL0     H55414   2.344   7.913  -1.117 -0.2408  0.2389 -0.3896
  420MOL0     H55415   2.318   8.089  -1.106 -3.8927  1.4580 -0.7305
  420MOL0     H55416   2.414   8.115  -1.340 -0.5281  0.7089  2.9928
  420MOL0     H55417   2.379   7.943  -1.370  0.5676  2.4547 -2.8008
  420MOL0     H55418   2.551   8.011  -1.128 -0.7234 -1.2660  0.8982
  420MOL0     H55419   2.537   7.867  -1.221  1.0385  0.6523  0.8295
  420MOL0     H55420   2.757   7.970  -1.293 -0.6221 -2.9581 -0.8526
  420MOL0     H55421   2.688   8.123  -1.247 -0.6376  2.0161 -3.4258
  420MOL0     H55422   1.898   7.815  -0.692  0.5250  0.1528  0.0673
  420MOL0     H55423   1.750   7.805  -0.480  1.6301 -0.3409 -0.3304
  420MOL0     H55424   1.325   7.818  -0.323  0.2857  0.2049  2.2873
  420MOL0     H55425   1.125   7.829  -0.178  0.5241 -0.0902 -0.3328
  420MOL0     H55426   2.323   7.999   0.598 -0.7688 -0.8724  0.3086
  420MOL0     H55427   2.435   7.805   0.664 -1.6555  0.0340 -0.9254
  420MOL0     H55428   2.304   7.448   1.002 -1.1755 -0.2130 -0.7260
  420MOL0     H55429   2.334   7.200   1.047  0.8299 -1.9298 -1.6824
  420MOL0     H55430   2.762   7.043   1.069  2.4875 -0.8350 -2.4000
  420MOL0     H55431   2.716   6.988   0.906 -5.7642  1.2406 -1.9402
  420MOL0     H55432   2.782   6.793   1.053  1.0828  1.7855  1.8207
  420MOL0     H55433   2.638   6.853   1.153 -0.3744  0.8853 -0.4513
  420MOL0     H55434   2.605   6.767   0.856  2.5986 -3.1166 -1.1097
  420MOL0     H55435   2.480   6.779   0.985  0.1547  0.2195 -0.8044
  420MOL0     H55436   2.541   6.552   0.924 -0.8446 -0.0889  0.1562
  420MOL0     H55437   2.713   6.582   0.987  0.2042 -1.0702  0.6294
  420MOL0     H55438   2.512   6.490   1.337  0.9563 -0.2782 -0.1611
  420MOL0     H55439   2.761   7.252   0.982  0.6037  0.6674 -2.3571
  420MOL0     H55440   2.729   7.474   0.899 -1.4597  1.0230  0.0980
  421MOL0     O55441   9.935   9.311   4.096 -0.3664  0.8162 -0.2995
  421MOL0     C55442   9.821   9.264   4.130  0.3100 -0.4978 -0.1050
  421MOL0     O55443   9.783   9.249   4.263  0.4321 -0.2559 -0.2929
  421MOL0     C55444   9.859   9.305   4.366  0.1012 -0.5783 -0.0355
  421MOL0     C55445   9.800   9.379   4.467 -0.6846  0.1816  0.6839
  421MOL0     C55446   9.871   9.403   4.576  0.0166 -0.4005 -0.9068
  421MOL0     C55447  10.007   9.354   4.598 -0.0253  0.0566  0.1820
  421MOL0     O55448  10.091   9.386   4.704  0.3688  0.5973  0.0034
  421MOL0     C55449  10.037   9.434   4.822  1.0895  0.2368 -0.4478
  421MOL0     C55450  10.143   9.413   4.930  0.2690 -0.3169 -0.3304
  421MOL0     C55451  10.137   9.277   4.996  0.2433  0.0721 -0.4773
  421MOL0     C55452  10.228   9.256   5.117 -0.8871  0.1471 -0.8366
  421MOL0     C55453  10.227   9.108   5.178  0.2298  0.3439  0.6760
  421MOL0     C55454  10.273   8.986   5.101  0.6893 -0.3366  0.6852
  421MOL0     C55455  10.238   8.857   5.183 -0.6987  0.4621 -0.5902
  421MOL0     C55456  10.322   8.851   5.318  0.7144 -0.0976 -0.6242
  421MOL0     N55457  10.460   8.821   5.296  0.0250  0.9118 -0.2951
  421MOL0     C55458  10.580   8.881   5.343 -0.3417  0.0649 -0.1578
  421MOL0     C55459  10.684   8.820   5.279  0.3575 -0.0671  0.0108
  421MOL0     C55460  10.829   8.824   5.303  0.1132 -0.5085  0.8293
  421MOL0     C55461  10.858   8.793   5.450 -0.0833  1.1664  0.2325
  421MOL0     C55462  11.008   8.753   5.485  0.0463 -1.1135 -0.5212
  421MOL0     C55463  11.105   8.870   5.488  0.3534 -0.5837 -0.5224
  421MOL0     O55464  11.084   8.968   5.591 -0.6378  0.1628 -0.0099
  421MOL0     C55465  11.071   8.933   5.724  0.7617  0.7328 -0.5327
  421MOL0     C55466  10.946   8.946   5.782 -0.2237 -0.1684  0.3597
  421MOL0     C55467  10.918   8.917   5.914  0.8113  0.5620 -0.8470
  421MOL0     C55468  11.021   8.866   5.991 -0.2143  0.5342 -0.8083
  421MOL0     C55469  10.990   8.821   6.129 -1.3599  0.1953  0.3472
  421MOL0     O55470  10.870   8.850   6.176 -0.5381  0.1610 -0.1774
  421MOL0     C55471  10.844   8.842   6.308 -0.4151  0.5704 -0.6383
  421MOL0     C55472  10.830   8.722   6.381  0.5658  0.2759  0.9852
  421MOL0     C55473  10.821   8.716   6.522  0.2167  0.2608  0.4915
  421MOL0     C55474  10.813   8.831   6.590 -1.2218 -0.3178  0.0142
  421MOL0     O55475  10.801   8.834   6.736  0.4862 -0.5098  0.1410
  421MOL0     C55476  10.891   8.905   6.823  0.7268 -0.2399  0.0025
  421MOL0     C55477  10.966   8.816   6.924 -0.5269  0.6349 -0.2107
  421MOL0     C55478  11.043   8.912   7.019 -0.0199 -1.1053  0.1322
  421MOL0     C55479  11.132   8.835   7.112 -0.3303  0.5610 -0.9058
  421MOL0     C55480  11.266   8.800   7.060  0.4505  0.5926  0.2903
  421MOL0     C55481  11.368   8.917   7.046  0.5580  1.1722 -0.7204
  421MOL0     C55482  11.504   8.857   7.017 -0.0056  0.7157 -0.1567
  421MOL0     C55483  11.611   8.964   7.035  0.2536 -0.1524 -0.8498
  421MOL0    Cl55484  11.762   8.892   6.978 -0.2427 -0.5403 -0.3237
  421MOL0     C55485  10.826   8.949   6.524 -0.4696 -0.3976 -0.0988
  421MOL0     C55486  10.842   8.959   6.385 -0.7073  0.3067 -0.5091
  421MOL0     O55487  11.073   8.755   6.195 -0.6304 -0.6590 -0.1133
  421MOL0     C55488  11.151   8.843   5.939 -0.1840  0.2772  0.3714
  421MOL0     C55489  11.175   8.887   5.802  0.2304  1.1003 -0.8954
  421MOL0     N55490  10.623   8.718   5.198 -0.5881 -0.1517 -0.0178
  421MOL0     N55491  10.494   8.725   5.214 -0.1539 -0.1127 -0.0060
  421MOL0     C55492  10.065   9.281   4.489  0.1420 -0.8331  0.0859
  421MOL0     C55493   9.982   9.236   4.385  0.9499 -0.3680 -0.5507
  421MOL0     C55494   9.750   9.194   4.019 -0.2929 -0.6247  0.4091
  421MOL0     C55495   9.619   9.144   4.038  0.0339  0.2116 -0.2700
  421MOL0     C55496   9.554   9.089   3.931 -0.4581  0.1846  0.0449
  421MOL0     C55497   9.610   9.076   3.804  0.0934 -0.5401  0.2786
  421MOL0     O55498   9.525   9.018   3.716 -0.4071 -0.4684 -0.2846
  421MOL0     C55499   9.563   8.999   3.582 -0.3451  0.1383 -0.1118
  421MOL0     C55500   9.449   8.950   3.495  0.9326 -0.2566  0.0388
  421MOL0     C55501   9.341   9.047   3.446  0.1041  0.0661  0.8227
  421MOL0     C55502   9.260   9.130   3.553 -0.1145  0.3506  0.7176
  421MOL0     C55503   9.143   9.055   3.604  0.4688  0.0625 -0.0520
  421MOL0     C55504   9.050   8.979   3.638 -0.8996 -0.1350  0.4559
  421MOL0     C55505   9.743   9.114   3.787  0.1352 -1.1957  0.4974
  421MOL0     C55506   9.813   9.179   3.886 -0.2759 -0.3646 -0.1315
  421MOL0     H55507   9.697   9.413   4.454  0.1933  1.9891 -2.7560
  421MOL0     H55508   9.829   9.463   4.656  1.3868  1.3752 -1.4754
  421MOL0     H55509   9.946   9.378   4.847  0.4816  1.3275 -0.1504
  421MOL0     H55510  10.002   9.536   4.806 -3.6199 -0.8388  1.3653
  421MOL0     H55511  10.117   9.478   5.014  0.8507 -0.4773 -0.0189
  421MOL0     H55512  10.247   9.420   4.897  1.5809  1.2506  3.5114
  421MOL0     H55513  10.164   9.208   4.916 -2.9077 -0.5755 -1.1091
  421MOL0     H55514  10.036   9.254   5.032  0.0015 -3.5895 -2.9264
  421MOL0     H55515  10.326   9.276   5.074 -1.7615  0.8890 -2.5680
  421MOL0     H55516  10.215   9.322   5.204  1.5028 -2.1696  1.4216
  421MOL0     H55517  10.123   9.081   5.199  0.3266 -0.3263  0.3392
  421MOL0     H55518  10.284   9.116   5.270 -0.6246  1.1346  1.1563
  421MOL0     H55519  10.379   8.989   5.075  0.6170  1.5745  0.5189
  421MOL0     H55520  10.223   8.984   5.004 -0.9519 -1.3717  1.5165
  421MOL0     H55521  10.130   8.849   5.201 -1.5530  1.6759 -4.3649
  421MOL0     H55522  10.268   8.761   5.140 -1.5555 -0.2782  0.4031
  421MOL0     H55523  10.271   8.784   5.388 -0.0165  1.1805  0.1247
  421MOL0     H55524  10.327   8.949   5.368 -0.1092 -0.5558  0.4016
  421MOL0     H55525  10.589   8.957   5.420  1.1600 -0.5333  0.2956
  421MOL0     H55526  10.875   8.921   5.283 -1.0347 -0.4207 -1.8427
  421MOL0     H55527  10.870   8.744   5.240  1.5913  1.2190 -0.5024
  421MOL0     H55528  10.812   8.694   5.461 -1.1182  1.7936  1.9699
  421MOL0     H55529  10.811   8.855   5.527  2.9588 -0.2973  3.5539
  421MOL0     H55530  11.008   8.699   5.580 -0.9982  0.9132  0.7127
  421MOL0     H55531  11.039   8.684   5.405 -0.7832 -1.5284 -0.4953
  421MOL0     H55532  11.088   8.924   5.394 -0.5629  0.9838  0.4966
  421MOL0     H55533  11.203   8.820   5.486 -0.3558 -2.0172 -2.9708
  421MOL0     H55534  10.868   8.998   5.728 -3.3359 -0.5074  4.1403
  421MOL0     H55535  10.818   8.928   5.956 -0.9568  2.1538 -4.9581
  421MOL0     H55536  10.826   8.626   6.330 -1.6566  0.7629  0.1275
  421MOL0     H55537  10.796   8.620   6.565  2.5670 -1.1560 -1.0761
  421MOL0     H55538  10.836   8.980   6.880  3.0541  0.4628  1.4822
  421MOL0     H55539  10.962   8.941   6.748 -1.8554  0.4257 -2.2914
  421MOL0     H55540  11.020   8.748   6.858 -0.7464 -0.6079  0.8438
  421MOL0     H55541  10.885   8.767   6.980 -0.7130 -0.4670 -1.3845
  421MOL0     H55542  10.966   8.964   7.076  0.9156 -1.3115  1.6336
  421MOL0     H55543  11.092   8.987   6.955  0.3928 -2.6902 -1.4895
  421MOL0     H55544  11.148   8.888   7.206 -2.8440  1.8742 -1.1187
  421MOL0     H55545  11.082   8.745   7.148  1.9558  0.5426  2.7012
  421MOL0     H55546  11.252   8.747   6.966  0.9278 -0.2015  0.6546
  421MOL0     H55547  11.305   8.725   7.129 -0.5996  0.4315  0.7248
  421MOL0     H55548  11.367   8.962   7.145 -3.4466 -4.1751  2.1813
  421MOL0     H55549  11.351   8.992   6.968 -1.8128 -0.0947 -1.5021
  421MOL0     H55550  11.526   8.773   7.084 -0.7215 -0.6492 -1.5722
  421MOL0     H55551  11.507   8.834   6.910  2.8103  2.8443 -0.6453
  421MOL0     H55552  11.614   8.983   7.143 -5.0406 -2.9355  0.1220
  421MOL0     H55553  11.583   9.056   6.981  0.5394  1.0339  0.9286
  421MOL0     H55554  10.821   9.034   6.591 -1.6776  0.6133 -1.3845
  421MOL0     H55555  10.849   9.047   6.321 -0.7342  0.3419 -0.4641
  421MOL0     H55556  11.225   8.795   6.003 -2.5334 -3.6050  0.4779
  421MOL0     H55557  11.280   8.882   5.775  1.2376  0.2849  2.5890
  421MOL0     H55558  10.171   9.258   4.498  0.2636  0.0925  1.3241
  421MOL0     H55559  10.026   9.165   4.316 -0.4820 -0.7535 -1.0829
  421MOL0     H55560   9.582   9.146   4.140  2.5256  3.2855  0.7358
  421MOL0     H55561   9.448   9.067   3.940 -0.0797 -1.1823  1.6867
  421MOL0     H55562   9.645   8.928   3.572 -1.0607 -0.7414  0.1109
  421MOL0     H55563   9.598   9.094   3.539 -0.6553  0.0404 -0.5964
  421MOL0     H55564   9.496   8.897   3.412  4.0670 -0.0891  1.5667
  421MOL0     H55565   9.392   8.873   3.548 -1.4334 -1.1579 -3.4908
  421MOL0     H55566   9.260   8.996   3.392 -0.7735 -1.2111  3.1900
  421MOL0     H55567   9.393   9.121   3.384  1.4176  0.0982  1.9224
  421MOL0     H55568   9.328   9.145   3.637  1.4140 -0.2170 -0.3775
  421MOL0     H55569   9.230   9.230   3.519  0.6118  1.4273  3.0131
  421MOL0     H55570   8.978   8.904   3.663 -2.0434  0.8117  0.0958
  421MOL0     H55571   9.805   9.100   3.699  1.6183  2.3658  0.7895
  421MOL0     H55572   9.916   9.213   3.878 -0.9384  1.6863 -0.3529
  422MOL0     O55573   4.632   8.390   2.674 -0.3081 -0.1010 -0.3478
  422MOL0     C55574   4.689   8.284   2.700  0.8935  0.2018 -0.1982
  422MOL0     O55575   4.776   8.257   2.799  0.5391  0.2100 -0.2011
  422MOL0     C55576   4.816   8.338   2.900  0.5612  0.6939  0.0779
  422MOL0     C55577   4.760   8.450   2.967  0.4349  0.2474  0.1686
  422MOL0     C55578   4.838   8.515   3.063 -0.4346  0.0069 -0.2523
  422MOL0     C55579   4.969   8.474   3.096 -0.2194 -0.1437 -0.7646
  422MOL0     O55580   5.036   8.557   3.179 -0.6070  0.0604  0.1723
  422MOL0     C55581   5.148   8.500   3.256 -0.7261  0.6248  0.1329
  422MOL0     C55582   5.114   8.380   3.352  0.3529 -0.3460  1.6170
  422MOL0     C55583   5.208   8.328   3.450 -0.3584  1.2214 -0.1267
  422MOL0     C55584   5.320   8.252   3.379 -0.0993  0.2675 -0.9779
  422MOL0     C55585   5.426   8.202   3.479  0.3411 -0.1569  0.1200
  422MOL0     C55586   5.556   8.154   3.413 -1.0323  0.1629 -0.4592
  422MOL0     C55587   5.658   8.260   3.389  0.3002  0.2753  0.3730
  422MOL0     C55588   5.789   8.182   3.350 -0.2099 -0.0187  0.2296
  422MOL0     N55589   5.893   8.292   3.327  0.0795  0.3373 -0.3993
  422MOL0     C55590   5.910   8.336   3.204 -0.8072  0.6654 -0.0199
  422MOL0     C55591   6.003   8.444   3.214  1.4940  0.8408  0.7004
  422MOL0     C55592   6.054   8.540   3.108 -0.7440  0.3748 -0.0861
  422MOL0     C55593   6.170   8.465   3.036 -0.1634  0.1682 -0.0088
  422MOL0     C55594   6.287   8.414   3.134 -0.0360  0.3773  0.3462
  422MOL0     C55595   6.348   8.286   3.078 -0.8006  0.3981  1.5385
  422MOL0     O55596   6.427   8.289   2.954 -0.6605  0.5925 -0.3519
  422MOL0     C55597   6.529   8.376   2.946  0.0330 -1.2625  0.1244
  422MOL0     C55598   6.551   8.439   2.816  0.3681  0.1410  0.3640
  422MOL0     C55599   6.651   8.543   2.796  0.6163 -0.0291  0.1319
  422MOL0     C55600   6.720   8.593   2.908  0.6807  0.5573 -0.2260
  422MOL0     C55601   6.809   8.707   2.883  0.2250  0.1192 -0.4485
  422MOL0     O55602   6.837   8.750   2.756  0.9313  0.4779 -0.3525
  422MOL0     C55603   6.956   8.813   2.712 -0.2024  0.3163 -0.3212
  422MOL0     C55604   6.963   8.871   2.587 -0.1690  0.6270  0.0234
  422MOL0     C55605   7.077   8.932   2.545 -0.8209 -0.1306  0.7430
  422MOL0     C55606   7.191   8.940   2.626 -0.0921 -0.5507  0.3839
  422MOL0     O55607   7.290   9.018   2.583  0.2643  0.1330 -0.5846
  422MOL0     C55608   7.267   9.152   2.526 -0.6233 -0.0997 -0.0033
  422MOL0     C55609   7.185   9.241   2.622  0.0921  0.3391  0.3290
  422MOL0     C55610   7.274   9.285   2.741 -0.3665  0.0255 -0.0098
  422MOL0     C55611   7.183   9.365   2.833  0.6563 -0.4560  0.1712
  422MOL0     C55612   7.204   9.355   2.982 -0.2098  0.3668 -0.0686
  422MOL0     C55613   7.160   9.217   3.033 -0.5421 -0.1743 -0.4813
  422MOL0     C55614   7.007   9.191   3.045 -1.0365 -0.4412  0.5071
  422MOL0     C55615   6.979   9.057   3.113 -1.3710 -0.8405 -1.0705
  422MOL0    Cl55616   6.800   9.026   3.142 -0.1596 -0.0671 -0.1827
  422MOL0     C55617   7.187   8.883   2.750 -0.0267  1.2894 -0.5949
  422MOL0     C55618   7.076   8.799   2.789 -0.2917 -0.2946  0.0022
  422MOL0     O55619   6.868   8.746   2.988  0.8634  0.6630 -0.2807
  422MOL0     C55620   6.676   8.551   3.035 -0.5734  0.5607  0.2470
  422MOL0     C55621   6.585   8.442   3.055  0.1869 -0.7283 -0.2738
  422MOL0     N55622   6.026   8.456   3.353  0.1640 -0.1316 -0.1532
  422MOL0     N55623   5.957   8.375   3.413  0.7922 -0.5017 -0.7468
  422MOL0     C55624   5.013   8.361   3.031 -0.4173 -0.3030  0.2195
  422MOL0     C55625   4.939   8.291   2.939  0.2397  1.1162  1.0422
  422MOL0     C55626   4.648   8.159   2.622 -1.1153  0.8381  0.2226
  422MOL0     C55627   4.719   8.039   2.640  0.5490  0.3281 -0.1577
  422MOL0     C55628   4.673   7.924   2.559 -0.9773 -0.0517  0.1567
  422MOL0     C55629   4.580   7.940   2.462 -0.1120  0.0037 -0.4942
  422MOL0     O55630   4.538   7.820   2.411  0.2295  0.5151  0.5288
  422MOL0     C55631   4.520   7.824   2.266  0.8375 -0.6165  0.1762
  422MOL0     C55632   4.412   7.722   2.248 -0.4847 -0.7157  0.9948
  422MOL0     C55633   4.361   7.724   2.094  0.2607  0.2980  0.0114
  422MOL0     C55634   4.252   7.620   2.064 -0.6438  0.2911 -0.9117
  422MOL0     C55635   4.206   7.597   1.930 -0.4692  0.3363 -0.6536
  422MOL0     C55636   4.166   7.579   1.816  0.5628 -0.5282  0.8194
  422MOL0     C55637   4.521   8.065   2.438  0.3535  0.7927 -0.0688
  422MOL0     C55638   4.554   8.182   2.512 -0.3482  0.6399 -1.7455
  422MOL0     H55639   4.669   8.505   2.945  0.7176 -0.1392 -2.2737
  422MOL0     H55640   4.794   8.601   3.113 -3.2803 -0.6515 -1.4412
  422MOL0     H55641   5.192   8.580   3.315  0.0210 -0.3283  0.9152
  422MOL0     H55642   5.225   8.483   3.180 -1.5152 -0.1937 -0.5181
  422MOL0     H55643   5.088   8.297   3.285 -1.0708  1.1785  0.1824
  422MOL0     H55644   5.024   8.424   3.396  1.7731  2.1771  2.2299
  422MOL0     H55645   5.152   8.265   3.521 -0.2073  0.2428 -0.8560
  422MOL0     H55646   5.258   8.410   3.504  1.3319  0.7052 -0.8290
  422MOL0     H55647   5.291   8.168   3.315  0.5296  0.4333 -1.4831
  422MOL0     H55648   5.368   8.317   3.305  2.1430  0.7296  0.7688
  422MOL0     H55649   5.392   8.113   3.534 -0.2691  0.8661  1.4662
  422MOL0     H55650   5.453   8.277   3.553 -0.3898 -1.9974  2.3899
  422MOL0     H55651   5.533   8.116   3.313 -1.4105 -0.0358 -0.2994
  422MOL0     H55652   5.597   8.073   3.473 -0.2721  2.2896  2.0786
  422MOL0     H55653   5.612   8.305   3.300 -0.1377  0.6547  0.7853
  422MOL0     H55654   5.681   8.328   3.471  3.2013 -0.5478  0.3389
  422MOL0     H55655   5.790   8.137   3.250  2.3410  1.5834 -0.5674
  422MOL0     H55656   5.814   8.121   3.438  0.6735  1.8735  1.3528
  422MOL0     H55657   5.861   8.304   3.113 -1.2033 -3.6565  1.4843
  422MOL0     H55658   6.101   8.627   3.155 -0.4292  1.0072 -1.5156
  422MOL0     H55659   5.976   8.563   3.035 -0.4974  2.1578  0.1587
  422MOL0     H55660   6.215   8.538   2.969 -0.7837 -0.8533 -1.6007
  422MOL0     H55661   6.126   8.383   2.979 -2.6482  0.0555  1.8936
  422MOL0     H55662   6.360   8.489   3.166  0.5018 -0.5554  1.3776
  422MOL0     H55663   6.256   8.390   3.236 -0.7438  1.1131  0.3236
  422MOL0     H55664   6.275   8.211   3.047 -0.5514  0.6296  0.3479
  422MOL0     H55665   6.412   8.239   3.154 -0.9047 -0.4629  1.1068
  422MOL0     H55666   6.507   8.413   2.720  3.3834  0.4864 -1.2110
  422MOL0     H55667   6.668   8.590   2.700  2.4984  1.6933  1.2334
  422MOL0     H55668   6.873   8.890   2.530 -1.5215  0.3949  1.9916
  422MOL0     H55669   7.080   8.990   2.454 -0.0641 -0.7450  0.3624
  422MOL0     H55670   7.213   9.148   2.431 -3.8011  0.6457  1.6377
  422MOL0     H55671   7.358   9.211   2.516 -1.5526  1.7743  1.8288
  422MOL0     H55672   7.098   9.189   2.665 -0.2545  0.5740 -0.0908
  422MOL0     H55673   7.151   9.330   2.569  0.5981  0.6381  0.5001
  422MOL0     H55674   7.363   9.339   2.708  0.3025 -0.2184  1.3109
  422MOL0     H55675   7.317   9.208   2.806  1.1284  0.1337 -0.8316
  422MOL0     H55676   7.209   9.469   2.811  0.2366 -0.2010  0.8610
  422MOL0     H55677   7.075   9.359   2.813  0.6708  1.4731 -0.6940
  422MOL0     H55678   7.154   9.438   3.033  0.1714  1.0148 -0.7301
  422MOL0     H55679   7.306   9.382   3.009  0.1721  0.5408 -1.6240
  422MOL0     H55680   7.193   9.219   3.137 -0.5525  1.9917 -0.4790
  422MOL0     H55681   7.211   9.127   2.998 -1.3002 -0.7407 -0.1648
  422MOL0     H55682   6.959   9.266   3.108 -1.8859  0.3464 -1.0305
  422MOL0     H55683   6.961   9.206   2.947  1.6520 -0.5076 -0.8362
  422MOL0     H55684   7.038   9.047   3.205 -0.3917 -0.6323 -1.6588
  422MOL0     H55685   7.022   8.975   3.055 -1.8673 -1.1280 -1.0383
  422MOL0     H55686   7.273   8.897   2.815 -1.1931  0.2218  1.2572
  422MOL0     H55687   7.076   8.742   2.882  0.2853  4.3394  3.2085
  422MOL0     H55688   6.715   8.597   3.125  0.9043 -2.0921  1.0871
  422MOL0     H55689   6.572   8.414   3.159  0.9848  1.5687  0.5178
  422MOL0     H55690   5.108   8.311   3.044 -1.1384 -0.9982  4.6497
  422MOL0     H55691   4.975   8.207   2.880 -2.5772  0.9819 -0.6603
  422MOL0     H55692   4.785   8.015   2.723 -1.1624 -0.5755  0.9890
  422MOL0     H55693   4.711   7.823   2.572 -1.7552 -0.5888 -1.4489
  422MOL0     H55694   4.614   7.806   2.214  1.3352  3.2753 -0.5731
  422MOL0     H55695   4.482   7.923   2.239 -1.0093 -0.7516  2.0159
  422MOL0     H55696   4.451   7.625   2.280  2.2632  0.5115  1.6744
  422MOL0     H55697   4.325   7.755   2.305 -0.5713  4.3918 -1.5170
  422MOL0     H55698   4.448   7.712   2.028  0.0301  0.3548 -0.3051
  422MOL0     H55699   4.326   7.825   2.075  1.8914  0.7416 -0.8604
  422MOL0     H55700   4.269   7.523   2.112  0.5380  0.4512 -0.9605
  422MOL0     H55701   4.173   7.665   2.125  0.8492  1.4188  0.2816
  422MOL0     H55702   4.123   7.580   1.718 -2.1569  1.5015  1.8937
  422MOL0     H55703   4.429   8.061   2.380 -1.0315 -0.8355  2.0620
  422MOL0     H55704   4.493   8.271   2.506 -0.1834  0.9656  0.4993
  423MOL0     O55705   5.042   8.505   4.984  0.6714 -0.3625 -0.3486
  423MOL0     C55706   5.065   8.604   4.916  0.1897  0.1709  0.1400
  423MOL0     O55707   4.973   8.665   4.836  0.1628 -0.9051  0.3161
  423MOL0     C55708   4.856   8.600   4.814  1.1548 -0.1390  0.6626
  423MOL0     C55709   4.855   8.483   4.738  0.0506  1.1897  0.3493
  423MOL0     C55710   4.739   8.411   4.725 -0.2372  0.4432  0.3400
  423MOL0     C55711   4.613   8.463   4.775 -0.5358  1.1690  0.2274
  423MOL0     O55712   4.489   8.407   4.755 -0.3417 -0.1807  0.2598
  423MOL0     C55713   4.459   8.279   4.793  0.5794 -0.0611  0.3413
  423MOL0     C55714   4.307   8.233   4.784 -0.4110  0.6895  0.3878
  423MOL0     C55715   4.292   8.093   4.862 -0.0157 -0.2290  0.0775
  423MOL0     C55716   4.392   7.990   4.829 -0.4996 -0.4738 -0.0194
  423MOL0     C55717   4.362   7.852   4.880  0.0779 -0.3889  0.0647
  423MOL0     C55718   4.291   7.763   4.777  0.4176  0.7049  0.5137
  423MOL0     C55719   4.390   7.696   4.672  0.6903 -0.9636 -0.6999
  423MOL0     C55720   4.344   7.554   4.612 -0.6431 -0.4619  0.0201
  423MOL0     N55721   4.278   7.566   4.482  0.5537  0.3116 -0.0445
  423MOL0     C55722   4.146   7.593   4.456  0.3176 -0.3573 -0.2584
  423MOL0     C55723   4.138   7.608   4.320  0.0913  0.6690 -0.9748
  423MOL0     C55724   4.019   7.633   4.244 -0.0996  0.0681 -0.1838
  423MOL0     C55725   3.935   7.747   4.286  0.0994  0.0399  0.0224
  423MOL0     C55726   3.941   7.858   4.183  0.6806 -0.4006 -0.8956
  423MOL0     C55727   4.075   7.921   4.187 -0.3524 -0.7470  0.1013
  423MOL0     O55728   4.133   7.951   4.312 -0.3115  0.6800  0.5554
  423MOL0     C55729   4.093   8.058   4.387  1.0185  0.3469  0.4878
  423MOL0     C55730   4.095   8.034   4.526 -0.6680 -0.6736  0.3856
  423MOL0     C55731   4.047   8.146   4.598 -0.3523 -0.6351 -0.6279
  423MOL0     C55732   4.006   8.264   4.545  1.2759 -1.4528  0.1150
  423MOL0     C55733   3.976   8.378   4.632 -0.0321 -0.3704  0.2945
  423MOL0     O55734   4.015   8.374   4.764 -0.7346  0.3423 -0.7316
  423MOL0     C55735   3.979   8.490   4.837  0.0130 -0.1190  0.0233
  423MOL0     C55736   3.845   8.502   4.889  0.7813  0.0271 -0.1471
  423MOL0     C55737   3.809   8.628   4.947  0.7098 -0.3233 -1.0059
  423MOL0     C55738   3.910   8.729   4.970  0.8657 -0.3253  0.2801
  423MOL0     O55739   3.898   8.848   5.035  0.1149  0.1647  0.5217
  423MOL0     C55740   3.790   8.904   5.116 -0.1427  0.7005  0.4092
  423MOL0     C55741   3.796   8.831   5.248  0.2955 -0.0810  0.1003
  423MOL0     C55742   3.661   8.817   5.311  0.4681  0.3026 -0.8648
  423MOL0     C55743   3.664   8.734   5.434  0.0489  0.0211 -0.4339
  423MOL0     C55744   3.687   8.586   5.429  0.4564  0.0887  0.5608
  423MOL0     C55745   3.645   8.524   5.563  0.3537 -0.1047 -0.1851
  423MOL0     C55746   3.498   8.462   5.570  0.0505 -0.3435  0.2835
  423MOL0     C55747   3.424   8.460   5.704  0.0216 -0.9529  0.2553
  423MOL0    Cl55748   3.480   8.604   5.802  0.4164 -0.9762 -0.6543
  423MOL0     C55749   4.043   8.706   4.929 -0.5871 -0.4175  0.0697
  423MOL0     C55750   4.078   8.585   4.868 -0.0492  0.1791  0.6705
  423MOL0     O55751   3.920   8.476   4.582 -0.2140 -0.1056 -0.7323
  423MOL0     C55752   3.996   8.275   4.401  0.3289 -0.2052 -0.5820
  423MOL0     C55753   4.032   8.170   4.328  0.1802  0.3576  0.5494
  423MOL0     N55754   4.263   7.589   4.263  0.6464  0.6415  0.5318
  423MOL0     N55755   4.340   7.561   4.361  0.4041 -0.2694 -0.6912
  423MOL0     C55756   4.614   8.585   4.843  0.6391 -0.0392  0.2827
  423MOL0     C55757   4.726   8.653   4.865 -0.7323 -0.2098  0.7314
  423MOL0     C55758   5.211   8.653   4.906 -0.0102  0.1714  0.1455
  423MOL0     C55759   5.234   8.791   4.866 -0.1740 -0.0259 -0.2825
  423MOL0     C55760   5.371   8.831   4.857  0.4128 -0.0816 -0.1127
  423MOL0     C55761   5.479   8.730   4.865 -0.7963  0.2267  0.4956
  423MOL0     O55762   5.619   8.752   4.868 -0.1480 -0.0372  0.0990
  423MOL0     C55763   5.665   8.851   4.965 -0.1901  0.3504  0.1637
  423MOL0     C55764   5.671   8.793   5.109  0.0169  0.1304  0.3354
  423MOL0     C55765   5.795   8.704   5.134 -0.0100  0.5798  0.4297
  423MOL0     C55766   5.754   8.557   5.114 -0.0462  0.3850 -0.3666
  423MOL0     C55767   5.655   8.522   5.220 -0.4811  0.1659  0.1244
  423MOL0     C55768   5.572   8.477   5.291 -0.1143 -0.2834 -0.1510
  423MOL0     C55769   5.440   8.600   4.899 -0.6048 -0.2461 -0.1097
  423MOL0     C55770   5.315   8.563   4.930 -0.3430 -0.3123 -0.4129
  423MOL0     H55771   4.953   8.440   4.719 -0.5898 -0.6065  0.8444
  423MOL0     H55772   4.749   8.316   4.674 -0.5912  0.5921 -0.0135
  423MOL0     H55773   4.499   8.258   4.893  2.7878  1.7021 -0.0893
  423MOL0     H55774   4.511   8.209   4.727 -0.7667  1.5499 -2.5884
  423MOL0     H55775   4.272   8.209   4.683 -1.5839 -0.8003  1.1022
  423MOL0     H55776   4.248   8.300   4.848  1.2124  0.9728  1.6439
  423MOL0     H55777   4.194   8.053   4.834 -1.7383  1.8241  2.6591
  423MOL0     H55778   4.292   8.107   4.971  1.8576  0.6441  0.0089
  423MOL0     H55779   4.394   7.985   4.719 -1.1350 -2.4496  0.0217
  423MOL0     H55780   4.494   8.024   4.849 -1.1850  1.8781 -0.1876
  423MOL0     H55781   4.284   7.868   4.955  0.3196  0.2450  0.1866
  423MOL0     H55782   4.439   7.792   4.931 -1.9803 -1.4537  2.1471
  423MOL0     H55783   4.216   7.807   4.712 -1.4866 -3.3112 -0.3156
  423MOL0     H55784   4.242   7.684   4.835 -1.5192  1.8873  0.5845
  423MOL0     H55785   4.409   7.772   4.595  2.5188 -2.1114 -1.4450
  423MOL0     H55786   4.486   7.688   4.723 -1.4812  0.2979  4.1587
  423MOL0     H55787   4.272   7.516   4.685  0.9033  2.4329  3.3585
  423MOL0     H55788   4.430   7.490   4.591 -2.5264 -2.5815 -1.6687
  423MOL0     H55789   4.073   7.594   4.537  0.9143 -0.4558  0.2959
  423MOL0     H55790   3.953   7.547   4.254 -1.6403  1.1851 -0.4035
  423MOL0     H55791   4.053   7.639   4.140  0.3057  1.7683  0.0193
  423MOL0     H55792   3.954   7.785   4.387  1.0918  1.1864 -0.5657
  423MOL0     H55793   3.834   7.706   4.292 -0.7489  1.8702 -0.8514
  423MOL0     H55794   3.921   7.820   4.082 -2.4716 -1.0256 -0.1406
  423MOL0     H55795   3.858   7.930   4.186 -0.0402 -1.2455  0.0983
  423MOL0     H55796   4.078   8.006   4.119  1.6375  0.2826  1.3696
  423MOL0     H55797   4.147   7.857   4.136  1.5716  0.1753  1.5191
  423MOL0     H55798   4.147   7.955   4.578  4.7579  2.3562  0.2587
  423MOL0     H55799   4.060   8.128   4.704  1.1513  1.0623 -0.4930
  423MOL0     H55800   3.771   8.423   4.887 -2.1931  2.5274  2.0893
  423MOL0     H55801   3.710   8.636   4.992  1.7599 -1.7211  1.8055
  423MOL0     H55802   3.694   8.870   5.076  1.2479 -0.9971 -1.7882
  423MOL0     H55803   3.787   9.013   5.120  2.0776  0.8914 -1.3323
  423MOL0     H55804   3.862   8.888   5.315  0.2135 -0.6580  0.6865
  423MOL0     H55805   3.840   8.731   5.237  0.3330 -0.2111  1.3207
  423MOL0     H55806   3.590   8.764   5.247 -1.9825  1.3103  0.8259
  423MOL0     H55807   3.631   8.918   5.342 -1.0963 -0.0198 -1.2469
  423MOL0     H55808   3.731   8.777   5.510 -1.2141 -1.1629  1.4534
  423MOL0     H55809   3.571   8.754   5.488  0.0652 -3.4628  1.2010
  423MOL0     H55810   3.793   8.573   5.402  0.8950 -1.5892  2.8320
  423MOL0     H55811   3.634   8.535   5.348  1.4294 -1.0864  0.6256
  423MOL0     H55812   3.666   8.600   5.639 -2.7169  0.1970  0.5138
  423MOL0     H55813   3.712   8.441   5.582  0.9836  0.2787 -0.6957
  423MOL0     H55814   3.448   8.531   5.501  0.8296 -0.1956 -0.1474
  423MOL0     H55815   3.498   8.367   5.516 -0.7121  1.1450 -2.5228
  423MOL0     H55816   3.446   8.364   5.752 -0.3330 -2.4963 -2.4913
  423MOL0     H55817   3.316   8.462   5.687  0.4129 -0.9554 -2.7271
  423MOL0     H55818   4.120   8.782   4.943 -1.4116  0.3158  0.7313
  423MOL0     H55819   4.168   8.565   4.811 -1.4707 -2.5920 -0.8731
  423MOL0     H55820   3.979   8.364   4.341 -1.5324  0.4125  0.7714
  423MOL0     H55821   4.031   8.180   4.220 -4.7203 -0.1551  0.3080
  423MOL0     H55822   4.519   8.608   4.891  0.4594 -3.0906  1.6513
  423MOL0     H55823   4.721   8.745   4.922  0.5167 -1.3492  2.8138
  423MOL0     H55824   5.153   8.859   4.845  0.0121  1.2197  2.6773
  423MOL0     H55825   5.396   8.928   4.817 -0.6475  1.0030  1.7229
  423MOL0     H55826   5.602   8.940   4.955  1.8342  1.8361  0.1187
  423MOL0     H55827   5.764   8.893   4.945 -0.3514  0.7795  0.2487
  423MOL0     H55828   5.681   8.877   5.177  2.0259  1.0944 -1.0584
  423MOL0     H55829   5.578   8.737   5.125 -0.5362  0.4457 -1.4642
  423MOL0     H55830   5.842   8.724   5.231 -1.7495  2.0330  1.0349
  423MOL0     H55831   5.867   8.740   5.060 -1.5511 -0.3036 -1.5963
  423MOL0     H55832   5.703   8.532   5.020 -1.1671 -1.5135  0.6831
  423MOL0     H55833   5.842   8.493   5.132  2.1341  3.4720  0.7530
  423MOL0     H55834   5.501   8.443   5.364  0.1123  1.8023  1.1128
  423MOL0     H55835   5.520   8.527   4.897  0.1030  0.4694  0.9756
  423MOL0     H55836   5.296   8.459   4.955  0.0968 -0.0099  1.3093
  424MOL0     O55837   5.246   5.804   2.925 -0.1999 -0.2507 -0.0676
  424MOL0     C55838   5.146   5.877   2.903  0.5414 -1.3235  0.2412
  424MOL0     O55839   5.022   5.828   2.913  0.3918  0.0171  0.1364
  424MOL0     C55840   5.000   5.697   2.925 -0.5730 -1.5675 -0.0660
  424MOL0     C55841   5.023   5.608   2.820  0.3385 -0.4726 -0.5997
  424MOL0     C55842   5.013   5.472   2.835  0.9025 -0.2747 -0.9257
  424MOL0     C55843   4.970   5.417   2.956  0.4697 -0.9715 -0.3467
  424MOL0     O55844   4.948   5.286   2.971 -0.3251  0.5983  0.2540
  424MOL0     C55845   4.841   5.227   2.891 -1.2069  0.1478 -0.0378
  424MOL0     C55846   4.713   5.269   2.940  0.0409  0.3866  0.1365
  424MOL0     C55847   4.595   5.210   2.872  0.4028 -0.0248  0.4035
  424MOL0     C55848   4.570   5.062   2.889  0.5670  0.7482  0.3197
  424MOL0     C55849   4.446   5.024   2.802  0.3216  0.8230 -0.3040
  424MOL0     C55850   4.391   4.888   2.841 -0.8546 -0.8212  0.5468
  424MOL0     C55851   4.290   4.842   2.746  1.0950 -0.4795 -0.1104
  424MOL0     C55852   4.155   4.920   2.722  0.4329 -0.5441  0.2840
  424MOL0     N55853   4.058   4.909   2.829 -0.2561 -0.1171 -0.3901
  424MOL0     C55854   3.951   5.000   2.831  0.8396 -0.3963 -0.9686
  424MOL0     C55855   3.895   4.990   2.957 -0.3756  0.0106  0.3006
  424MOL0     C55856   3.795   5.071   3.024  0.4436  0.5796  0.4176
  424MOL0     C55857   3.871   5.181   3.114  0.8910  0.5503 -0.6295
  424MOL0     C55858   3.793   5.262   3.218  0.2094 -0.6459 -0.5285
  424MOL0     C55859   3.706   5.173   3.309 -0.3704 -0.4642 -0.0002
  424MOL0     O55860   3.639   5.252   3.409  0.4985  0.0266 -0.4252
  424MOL0     C55861   3.711   5.318   3.508  0.3522  1.5918  0.2387
  424MOL0     C55862   3.633   5.398   3.580 -0.5798 -0.1038 -0.2952
  424MOL0     C55863   3.700   5.481   3.682  0.7958 -0.1078  1.4897
  424MOL0     C55864   3.836   5.477   3.707 -0.0007  0.0498 -0.1782
  424MOL0     C55865   3.904   5.573   3.799 -0.1043  0.5916 -0.2653
  424MOL0     O55866   3.840   5.616   3.906  0.2355 -0.5639 -0.0008
  424MOL0     C55867   3.893   5.726   3.973  0.1955  0.4989 -0.3862
  424MOL0     C55868   3.948   5.845   3.918 -0.1315  0.0699 -0.5420
  424MOL0     C55869   3.997   5.951   3.989  0.3273 -0.3487  0.5401
  424MOL0     C55870   3.975   5.960   4.134 -0.1051  0.4696  0.3721
  424MOL0     O55871   3.992   6.076   4.201 -0.8981 -0.1233  0.2657
  424MOL0     C55872   4.035   6.194   4.127  0.2340 -0.9200  0.6206
  424MOL0     C55873   4.030   6.324   4.206  0.3184 -0.1637 -0.3735
  424MOL0     C55874   4.084   6.305   4.354 -0.4375  0.7410 -0.0151
  424MOL0     C55875   4.046   6.415   4.451 -0.0193  0.1137 -0.3191
  424MOL0     C55876   4.045   6.376   4.594  0.0618  0.5409 -0.1773
  424MOL0     C55877   4.043   6.504   4.675 -0.1484  0.2645 -0.4671
  424MOL0     C55878   4.112   6.466   4.812 -0.0173 -0.2142  1.1346
  424MOL0     C55879   4.133   6.601   4.890 -0.5143  0.4318 -0.3599
  424MOL0    Cl55880   3.987   6.691   4.914  0.1295 -0.0551 -0.0641
  424MOL0     C55881   3.907   5.853   4.186 -0.0198 -0.2138  0.6592
  424MOL0     C55882   3.871   5.736   4.105 -0.1239 -0.9126 -0.1723
  424MOL0     O55883   4.023   5.597   3.771  0.2525 -0.6832 -0.0164
  424MOL0     C55884   3.912   5.388   3.625  0.5423 -0.5129  0.3121
  424MOL0     C55885   3.842   5.306   3.536  0.0085 -0.2367 -0.1160
  424MOL0     N55886   3.955   4.880   3.016  0.1782  0.2967  0.0597
  424MOL0     N55887   4.058   4.836   2.941  0.1541 -0.5154  0.4515
  424MOL0     C55888   4.944   5.506   3.063 -0.2287 -1.1142  0.1742
  424MOL0     C55889   4.962   5.639   3.042 -0.6827 -0.4317  1.1870
  424MOL0     C55890   5.166   6.027   2.887  0.5624 -0.2526 -0.6077
  424MOL0     C55891   5.278   6.100   2.931 -0.2516 -0.0360 -0.1535
  424MOL0     C55892   5.294   6.235   2.910  0.0561  0.1778 -0.2504
  424MOL0     C55893   5.193   6.295   2.838  0.5129  0.8328  0.9023
  424MOL0     O55894   5.192   6.430   2.809  0.0565 -0.3377  0.1296
  424MOL0     C55895   5.309   6.510   2.774 -0.0875  0.3390  0.6375
  424MOL0     C55896   5.282   6.587   2.642  0.9422 -0.2898  0.0735
  424MOL0     C55897   5.174   6.698   2.664  0.1938 -0.0044 -0.1488
  424MOL0     C55898   5.256   6.830   2.726 -0.5135 -0.4462  1.0475
  424MOL0     C55899   5.344   6.883   2.627 -0.2465  0.8688  0.5503
  424MOL0     C55900   5.435   6.922   2.556 -0.2143 -0.1339 -0.0834
  424MOL0     C55901   5.074   6.232   2.801 -0.0734 -0.2005  0.7831
  424MOL0     C55902   5.068   6.097   2.823 -0.6892 -0.1656  0.4518
  424MOL0     H55903   5.046   5.650   2.723 -0.5328  0.2959 -0.4820
  424MOL0     H55904   5.048   5.405   2.756  0.0048  1.0690 -2.5296
  424MOL0     H55905   4.848   5.119   2.909 -1.3395  0.3909  1.6443
  424MOL0     H55906   4.848   5.255   2.785  1.3408  4.7325  1.0662
  424MOL0     H55907   4.711   5.376   2.920  1.7395  0.7463  1.6311
  424MOL0     H55908   4.697   5.247   3.046 -0.4834 -1.8395 -0.3609
  424MOL0     H55909   4.603   5.220   2.763 -1.0451 -2.8522 -0.0599
  424MOL0     H55910   4.512   5.272   2.908 -0.1081  1.0530 -2.3433
  424MOL0     H55911   4.663   5.013   2.861  0.6920  0.8372  0.5724
  424MOL0     H55912   4.553   5.034   2.994 -0.4035 -2.0946 -0.5014
  424MOL0     H55913   4.466   5.015   2.695  0.3828  1.4344 -0.3481
  424MOL0     H55914   4.362   5.095   2.801  0.2210  0.7028 -0.5626
  424MOL0     H55915   4.351   4.899   2.943  0.1055  1.7264  0.7421
  424MOL0     H55916   4.478   4.822   2.836  0.4397  0.8646 -3.1857
  424MOL0     H55917   4.323   4.837   2.642 -1.1778 -0.2812 -0.9144
  424MOL0     H55918   4.263   4.738   2.763  1.3439 -0.3208  1.4177
  424MOL0     H55919   4.115   4.890   2.624 -2.7413  0.9468  1.0036
  424MOL0     H55920   4.178   5.025   2.701  0.2847 -0.1830  1.8383
  424MOL0     H55921   3.928   5.087   2.771 -3.2180 -0.4689  0.2077
  424MOL0     H55922   3.744   5.011   3.099 -1.0885  0.8814 -0.3559
  424MOL0     H55923   3.725   5.118   2.954  1.4361 -1.0711 -1.8223
  424MOL0     H55924   3.917   5.248   3.040 -0.1947  0.0681 -1.7706
  424MOL0     H55925   3.958   5.131   3.157  1.1258 -0.1226 -1.8509
  424MOL0     H55926   3.857   5.332   3.273 -1.7480  2.7158 -2.2113
  424MOL0     H55927   3.726   5.327   3.162  1.1208  0.1100 -0.7755
  424MOL0     H55928   3.765   5.091   3.352 -0.6572  0.9511  3.4478
  424MOL0     H55929   3.625   5.128   3.251  0.9585  0.4310 -2.6797
  424MOL0     H55930   3.526   5.403   3.562 -0.6342 -0.8281 -0.1779
  424MOL0     H55931   3.640   5.550   3.741  0.8354 -0.2948  1.7475
  424MOL0     H55932   3.947   5.841   3.809  0.8191 -3.4142 -0.5607
  424MOL0     H55933   4.045   6.034   3.938 -0.1645  0.5007  1.4510
  424MOL0     H55934   3.979   6.201   4.034 -1.0964 -2.3222  1.2675
  424MOL0     H55935   4.140   6.183   4.097  0.2873  0.7347  0.1182
  424MOL0     H55936   3.922   6.341   4.208  0.6821  2.6836 -0.9350
  424MOL0     H55937   4.063   6.404   4.140 -1.3212  0.5675 -0.3526
  424MOL0     H55938   4.192   6.287   4.362 -0.8303 -3.5667 -1.8362
  424MOL0     H55939   4.023   6.224   4.393 -2.9469  2.5095 -0.0448
  424MOL0     H55940   4.108   6.503   4.431  0.4540 -0.6237 -2.3548
  424MOL0     H55941   3.941   6.442   4.432 -0.1477 -0.2772 -0.1689
  424MOL0     H55942   4.141   6.325   4.605 -0.5532 -0.0961  3.8193
  424MOL0     H55943   3.969   6.301   4.619 -0.9458  1.2593 -1.0062
  424MOL0     H55944   3.937   6.517   4.698  0.2195  1.7695  0.5319
  424MOL0     H55945   4.089   6.592   4.630 -1.7433  1.0911 -0.5576
  424MOL0     H55946   4.047   6.394   4.863  0.5241 -1.3615  0.2555
  424MOL0     H55947   4.202   6.406   4.800  1.3087  1.7538  0.9394
  424MOL0     H55948   4.203   6.670   4.842 -0.8896  0.9966 -0.1059
  424MOL0     H55949   4.171   6.562   4.985 -1.4817 -2.9563 -1.2122
  424MOL0     H55950   3.867   5.867   4.286  0.0709  1.1671  0.5205
  424MOL0     H55951   3.801   5.667   4.152  1.8304 -2.4560  0.6577
  424MOL0     H55952   4.019   5.377   3.639  0.7655  0.5958 -0.3618
  424MOL0     H55953   3.902   5.233   3.482  0.2656  0.4621 -0.7954
  424MOL0     H55954   4.924   5.467   3.163 -0.2539  0.4665  0.8043
  424MOL0     H55955   4.948   5.705   3.127  2.7744  3.4218 -0.9104
  424MOL0     H55956   5.352   6.048   2.991  2.3853  1.0866 -2.1851
  424MOL0     H55957   5.386   6.282   2.945  0.2576 -1.8974  2.2424
  424MOL0     H55958   5.393   6.445   2.747 -0.4925 -0.4932  1.3373
  424MOL0     H55959   5.344   6.569   2.860  1.7798 -0.7569  0.6801
  424MOL0     H55960   5.375   6.627   2.600  0.6161  1.0588  0.5645
  424MOL0     H55961   5.235   6.525   2.566  1.7618  0.1635 -0.8226
  424MOL0     H55962   5.087   6.675   2.726 -1.5597  1.3866 -1.9662
  424MOL0     H55963   5.116   6.722   2.575 -1.2324  0.9201  0.9656
  424MOL0     H55964   5.185   6.910   2.749 -0.4068 -0.4452  1.3881
  424MOL0     H55965   5.311   6.809   2.818 -1.0603 -0.4726  1.3723
  424MOL0     H55966   5.510   6.957   2.489 -1.0642  0.4894 -0.7421
  424MOL0     H55967   4.991   6.295   2.770 -0.6432 -0.4280  1.7986
  424MOL0     H55968   4.975   6.042   2.812  0.2854 -1.7112 -0.5717
  425MOL0     O55969   8.709   4.470   6.104  0.0989  0.4904 -0.4305
  425MOL0     C55970   8.655   4.553   6.037 -0.9219 -0.0107 -0.0214
  425MOL0     O55971   8.696   4.684   6.023  0.1449  0.1359 -0.3721
  425MOL0     C55972   8.815   4.739   6.080  0.3053 -1.2281 -0.0052
  425MOL0     C55973   8.839   4.871   6.041  0.0637 -0.6505  0.1909
  425MOL0     C55974   8.953   4.941   6.096  0.7550 -0.2356 -0.1585
  425MOL0     C55975   9.030   4.884   6.202  0.6873 -0.0404  0.7262
  425MOL0     O55976   9.140   4.935   6.263 -0.5592  0.1970  0.3306
  425MOL0     C55977   9.198   5.052   6.206 -0.0622 -0.5561  0.2961
  425MOL0     C55978   9.319   5.101   6.271  0.2944  0.2010  0.0453
  425MOL0     C55979   9.380   5.225   6.197 -0.1429  0.6115  1.2715
  425MOL0     C55980   9.386   5.236   6.044  0.7818 -0.1869 -0.0173
  425MOL0     C55981   9.439   5.367   5.987  0.0626  0.7138 -0.3967
  425MOL0     C55982   9.424   5.375   5.834  0.9560 -0.9336 -0.1718
  425MOL0     C55983   9.467   5.505   5.784 -0.7500 -0.6449  0.2494
  425MOL0     C55984   9.621   5.518   5.785  0.0740 -0.0373  0.0949
  425MOL0     N55985   9.669   5.639   5.706 -0.3040  0.8203  0.3271
  425MOL0     C55986   9.692   5.626   5.575  0.3014  0.2785  1.0200
  425MOL0     C55987   9.751   5.740   5.531  0.5583 -0.2503 -0.5345
  425MOL0     C55988   9.771   5.795   5.394  1.1866 -0.3425  0.0573
  425MOL0     C55989   9.915   5.800   5.351 -0.2588  0.7554  0.4651
  425MOL0     C55990   9.983   5.662   5.332 -0.2879  0.3013  1.1247
  425MOL0     C55991   9.952   5.593   5.207  0.1064 -0.3162  0.2701
  425MOL0     O55992  10.022   5.661   5.104  0.4604  0.1605  0.5030
  425MOL0     C55993  10.007   5.633   4.966  0.3106 -0.7559 -0.1484
  425MOL0     C55994  10.070   5.712   4.873  0.8021 -0.9290 -0.6212
  425MOL0     C55995  10.071   5.688   4.737  0.6292 -0.3556  0.3854
  425MOL0     C55996  10.000   5.575   4.692  0.6268 -0.6460 -0.0607
  425MOL0     C55997   9.990   5.536   4.555 -0.4175 -0.2540  0.4130
  425MOL0     O55998   9.946   5.416   4.520  0.2278 -0.2617 -0.8094
  425MOL0     C55999  10.008   5.356   4.414  1.2006 -0.0973 -0.1009
  425MOL0     C56000   9.951   5.252   4.345  0.6145  0.2126  0.6779
  425MOL0     C56001  10.016   5.172   4.253 -0.2678 -0.0195  0.2964
  425MOL0     C56002  10.152   5.197   4.221  0.4422 -0.6444 -0.3731
  425MOL0     O56003  10.200   5.137   4.104 -1.2289 -0.0560  0.1715
  425MOL0     C56004  10.342   5.107   4.098  0.2037  0.1588 -0.1482
  425MOL0     C56005  10.395   5.080   3.953 -0.4985  0.2386 -0.3623
  425MOL0     C56006  10.372   5.196   3.865  0.3507  0.3052  0.0423
  425MOL0     C56007  10.434   5.184   3.730  0.5124  0.5728 -0.8807
  425MOL0     C56008  10.376   5.068   3.634 -0.9334 -0.1951 -0.3241
  425MOL0     C56009  10.230   5.090   3.592 -0.4653  0.9270 -1.3313
  425MOL0     C56010  10.191   5.006   3.477 -0.5016 -0.0011 -0.1236
  425MOL0     C56011  10.043   5.005   3.448 -0.0444  0.3716  0.1224
  425MOL0    Cl56012   9.948   4.972   3.602 -0.1997 -0.2417  0.3278
  425MOL0     C56013  10.214   5.292   4.295 -0.2713 -0.7415 -0.1657
  425MOL0     C56014  10.141   5.380   4.379 -0.1850  0.3232 -0.4516
  425MOL0     O56015  10.012   5.630   4.479  0.7810 -0.2361 -0.9754
  425MOL0     C56016   9.932   5.487   4.778  0.6065  0.1026 -0.5741
  425MOL0     C56017   9.938   5.521   4.920 -1.0356  0.1237  0.0171
  425MOL0     N56018   9.772   5.820   5.644  0.3058  0.4773  0.7130
  425MOL0     N56019   9.744   5.745   5.749  0.1484 -0.4468  0.1112
  425MOL0     C56020   8.992   4.755   6.243 -0.9667  0.1692  1.3026
  425MOL0     C56021   8.894   4.682   6.184  0.1132 -0.2343 -0.8395
  425MOL0     C56022   8.527   4.512   5.972  0.0729  0.5554  0.1240
  425MOL0     C56023   8.467   4.382   5.988  0.6278  0.6417  0.1785
  425MOL0     C56024   8.335   4.356   5.944  0.2413 -0.4540  0.2013
  425MOL0     C56025   8.267   4.446   5.868 -0.1033 -0.3853  0.9067
  425MOL0     O56026   8.152   4.410   5.808  0.2886  0.1986 -0.1451
  425MOL0     C56027   8.091   4.500   5.719 -0.6001 -0.1619  0.9347
  425MOL0     C56028   7.950   4.458   5.687 -0.1800  0.0901 -0.4490
  425MOL0     C56029   7.945   4.323   5.616  0.2691 -0.6897  0.4937
  425MOL0     C56030   7.952   4.339   5.462 -0.1088 -0.0848 -0.6537
  425MOL0     C56031   7.843   4.417   5.412 -0.9114  0.3778  0.8334
  425MOL0     C56032   7.749   4.489   5.372  0.4701 -0.4727 -0.0801
  425MOL0     C56033   8.327   4.571   5.855 -0.7481 -0.5486  0.2326
  425MOL0     C56034   8.446   4.610   5.912  1.2202  0.3814  0.4037
  425MOL0     H56035   8.771   4.911   5.966 -1.6067 -1.8395  1.0210
  425MOL0     H56036   8.969   5.034   6.044 -1.3455  1.2785  1.7357
  425MOL0     H56037   9.134   5.140   6.215  0.1265 -0.2344 -1.2058
  425MOL0     H56038   9.213   5.042   6.098 -2.9699 -0.4275 -0.1915
  425MOL0     H56039   9.394   5.021   6.273  0.1117 -0.1883 -3.4749
  425MOL0     H56040   9.284   5.123   6.372 -4.8571  0.8769 -1.6111
  425MOL0     H56041   9.473   5.246   6.251 -0.2911 -0.4229  1.9469
  425MOL0     H56042   9.318   5.310   6.228  1.7815  2.1860  0.9962
  425MOL0     H56043   9.448   5.154   6.005  0.8481 -1.4109  2.4902
  425MOL0     H56044   9.284   5.225   6.007  0.9367  0.1797 -0.5786
  425MOL0     H56045   9.544   5.369   6.020 -0.4320 -0.1643  1.3305
  425MOL0     H56046   9.387   5.447   6.040 -3.7056 -3.2368  2.5674
  425MOL0     H56047   9.315   5.377   5.823  0.9254  2.6669 -0.2391
  425MOL0     H56048   9.459   5.288   5.778 -1.6362  0.1666 -3.8592
  425MOL0     H56049   9.434   5.510   5.680 -0.4589 -3.1865 -0.0235
  425MOL0     H56050   9.420   5.580   5.849  1.8712  1.1755  0.1927
  425MOL0     H56051   9.676   5.431   5.749 -0.8902 -0.0374 -1.4494
  425MOL0     H56052   9.659   5.532   5.887  1.7006 -2.2531 -0.1193
  425MOL0     H56053   9.648   5.542   5.522  3.3550 -0.2385 -0.9275
  425MOL0     H56054   9.735   5.898   5.389  0.5452 -0.4483  1.8706
  425MOL0     H56055   9.703   5.738   5.330  1.0924  0.6031 -0.6947
  425MOL0     H56056   9.978   5.839   5.431 -0.3181 -1.8299  1.8648
  425MOL0     H56057   9.913   5.866   5.263 -2.0548 -1.0994 -0.9903
  425MOL0     H56058  10.087   5.694   5.338 -0.2561  0.7674 -1.1356
  425MOL0     H56059   9.951   5.601   5.418 -1.5847 -1.9835 -0.8457
  425MOL0     H56060   9.844   5.585   5.191 -0.1235 -0.5564  1.7655
  425MOL0     H56061   9.996   5.493   5.217  0.2952 -0.2670 -0.0798
  425MOL0     H56062  10.124   5.795   4.918  1.5529 -1.1149 -1.1690
  425MOL0     H56063  10.140   5.743   4.672  0.1732 -0.0478  0.1556
  425MOL0     H56064   9.847   5.227   4.363  0.1937 -0.8689 -2.5434
  425MOL0     H56065   9.962   5.102   4.189 -0.6365 -0.6364  1.2561
  425MOL0     H56066  10.357   5.023   4.166 -2.1669 -0.6442 -0.5050
  425MOL0     H56067  10.407   5.188   4.133 -3.5046  2.2508  2.6148
  425MOL0     H56068  10.336   4.996   3.916 -1.6038  1.0792 -0.5355
  425MOL0     H56069  10.503   5.058   3.947 -0.7353 -0.6844 -2.1232
  425MOL0     H56070  10.391   5.292   3.913 -0.1282  0.4124  0.0166
  425MOL0     H56071  10.267   5.203   3.836  0.5110  2.3275 -0.1633
  425MOL0     H56072  10.410   5.276   3.677 -0.2995 -0.3972 -2.2316
  425MOL0     H56073  10.541   5.170   3.751  0.8369 -0.8657 -3.1409
  425MOL0     H56074  10.386   4.971   3.685  0.4698 -0.6244 -1.3350
  425MOL0     H56075  10.438   5.062   3.544  0.0353  3.2598 -0.0363
  425MOL0     H56076  10.215   5.194   3.565  1.4192  2.0529  1.4813
  425MOL0     H56077  10.169   5.066   3.680  0.2300  2.2569 -0.4551
  425MOL0     H56078  10.244   5.041   3.389  3.8557  1.9981  2.9190
  425MOL0     H56079  10.228   4.906   3.504  1.7076  0.8569  0.2804
  425MOL0     H56080  10.028   4.928   3.372 -1.9293  0.8088 -0.0017
  425MOL0     H56081  10.008   5.104   3.416 -0.7955 -0.6862 -2.6442
  425MOL0     H56082  10.314   5.321   4.263 -1.4556 -0.2349 -3.7957
  425MOL0     H56083  10.189   5.464   4.429  0.0555 -0.9147  1.5503
  425MOL0     H56084   9.875   5.399   4.751 -0.1741  0.3847  0.0899
  425MOL0     H56085   9.896   5.449   4.989  2.3552 -2.9380 -0.8119
  425MOL0     H56086   9.063   4.703   6.306  0.9501  1.5981  0.4168
  425MOL0     H56087   8.876   4.581   6.220  0.7140  0.1065  0.4449
  425MOL0     H56088   8.524   4.296   6.020  0.3121 -0.3299 -1.7135
  425MOL0     H56089   8.289   4.260   5.966 -0.3217  0.1642  1.9027
  425MOL0     H56090   8.151   4.507   5.628 -0.4985 -1.7421  0.8472
  425MOL0     H56091   8.088   4.600   5.763  1.5372  0.2541  0.2234
  425MOL0     H56092   7.898   4.442   5.782  2.6695 -0.1117  1.2050
  425MOL0     H56093   7.894   4.533   5.631 -2.4183 -1.8821 -1.0394
  425MOL0     H56094   7.849   4.278   5.642 -0.0762 -0.6541 -0.6636
  425MOL0     H56095   8.030   4.263   5.650  1.1270 -0.9323 -1.8703
  425MOL0     H56096   8.044   4.388   5.431  0.0857 -0.4333 -0.6236
  425MOL0     H56097   7.939   4.240   5.419  3.0646 -2.1506  2.5943
  425MOL0     H56098   7.668   4.548   5.335  1.1141  0.3774 -0.1748
  425MOL0     H56099   8.272   4.653   5.809 -0.6438  0.1866  1.3775
  425MOL0     H56100   8.483   4.712   5.912  1.7974  0.4409 -4.6163
  426MOL0     O56101   7.305   7.399   9.170 -0.5325 -0.4805  0.5671
  426MOL0     C56102   7.427   7.412   9.146  0.1259  0.0446  0.5804
  426MOL0     O56103   7.484   7.393   9.023  0.1889  0.4797 -0.4873
  426MOL0     C56104   7.410   7.295   8.951  0.1834 -1.0436 -0.2774
  426MOL0     C56105   7.456   7.167   8.943 -1.4092  0.0257  0.0407
  426MOL0     C56106   7.407   7.074   8.857  0.5015 -0.4194 -0.2426
  426MOL0     C56107   7.296   7.110   8.775  0.2814 -0.2356  0.7116
  426MOL0     O56108   7.242   7.033   8.683 -0.0267  0.5275  0.2358
  426MOL0     C56109   7.320   6.945   8.607  0.4184  0.0479 -0.1886
  426MOL0     C56110   7.306   6.798   8.672  0.0745 -0.7911 -0.4033
  426MOL0     C56111   7.172   6.744   8.656  0.6533 -0.9427 -0.1252
  426MOL0     C56112   7.130   6.723   8.518  0.1974 -0.0443  0.6702
  426MOL0     C56113   7.008   6.623   8.512 -0.3440  0.4588  0.1635
  426MOL0     C56114   6.914   6.664   8.394 -0.3549  0.5240  0.2998
  426MOL0     C56115   6.998   6.660   8.273 -0.4560 -0.0073 -0.3754
  426MOL0     C56116   6.936   6.676   8.133 -0.2469 -0.2616 -0.0702
  426MOL0     N56117   6.865   6.551   8.105 -0.1749 -0.7185  0.4488
  426MOL0     C56118   6.724   6.533   8.108  0.4642 -0.3880 -0.4326
  426MOL0     C56119   6.715   6.397   8.087  0.4430  0.1243  0.3707
  426MOL0     C56120   6.578   6.325   8.118  0.2726 -0.5187 -0.0533
  426MOL0     C56121   6.528   6.242   8.007  1.0668  0.4605  0.4623
  426MOL0     C56122   6.547   6.099   8.044 -0.2548  0.0451 -0.6124
  426MOL0     C56123   6.526   6.004   7.932  0.3139  0.7708  0.4449
  426MOL0     O56124   6.393   6.016   7.880 -0.1255  1.1927 -0.1921
  426MOL0     C56125   6.332   5.909   7.810 -0.3469 -0.1363  0.6432
  426MOL0     C56126   6.197   5.919   7.774  0.4454 -0.1351  0.7913
  426MOL0     C56127   6.147   5.828   7.684  0.9102  0.6221  0.1362
  426MOL0     C56128   6.218   5.727   7.625  0.1508 -0.0565 -0.6061
  426MOL0     C56129   6.151   5.625   7.547  0.1830  0.6154 -0.2048
  426MOL0     O56130   6.019   5.627   7.530 -0.0353  0.4340 -0.1150
  426MOL0     C56131   5.974   5.607   7.404 -0.7222  0.4762  0.1116
  426MOL0     C56132   5.859   5.540   7.380 -0.0348 -0.6247  0.2641
  426MOL0     C56133   5.806   5.516   7.255  0.0104  0.3646  0.2330
  426MOL0     C56134   5.864   5.566   7.138  0.3260 -0.3597  0.0383
  426MOL0     O56135   5.806   5.535   7.020 -0.1426 -0.2823 -0.2627
  426MOL0     C56136   5.885   5.523   6.907 -0.6510 -0.4665  0.8867
  426MOL0     C56137   5.810   5.502   6.773 -0.4969 -0.4191 -0.4759
  426MOL0     C56138   5.763   5.355   6.762  0.0991 -0.2604 -0.6281
  426MOL0     C56139   5.709   5.319   6.629  0.6268 -0.5364 -0.3784
  426MOL0     C56140   5.691   5.172   6.619  0.3882  0.6978  0.2915
  426MOL0     C56141   5.605   5.136   6.502  0.7755 -0.4550 -0.4152
  426MOL0     C56142   5.608   4.985   6.468 -0.0312  0.0344 -0.2315
  426MOL0     C56143   5.488   4.937   6.388 -0.7409 -1.0805 -0.0476
  426MOL0    Cl56144   5.437   5.040   6.249 -0.3590 -0.5538 -0.2998
  426MOL0     C56145   5.990   5.632   7.162  0.6520  0.7908 -0.9118
  426MOL0     C56146   6.039   5.648   7.295  0.3112 -0.4306  0.2091
  426MOL0     O56147   6.223   5.556   7.482 -0.0131  0.0954  0.3833
  426MOL0     C56148   6.349   5.721   7.669 -0.3591  0.9188  0.8120
  426MOL0     C56149   6.408   5.808   7.758  0.8398  0.4419 -0.1060
  426MOL0     N56150   6.838   6.346   8.060  0.0352 -0.5059  0.7981
  426MOL0     N56151   6.930   6.438   8.082  0.7728  0.4556 -0.8384
  426MOL0     C56152   7.238   7.231   8.786  0.4318  0.3366 -0.1639
  426MOL0     C56153   7.293   7.330   8.869  0.0089 -0.8434 -0.4042
  426MOL0     C56154   7.520   7.484   9.244  0.1976  0.3590 -0.0995
  426MOL0     C56155   7.655   7.480   9.219  0.6103 -0.0727 -0.0705
  426MOL0     C56156   7.748   7.520   9.306 -0.1228  0.3084 -0.5719
  426MOL0     C56157   7.710   7.585   9.421  1.7601  0.1917 -0.7573
  426MOL0     O56158   7.809   7.628   9.502  0.5437 -0.1123 -0.4124
  426MOL0     C56159   7.783   7.686   9.639  0.1376 -0.1645 -0.1005
  426MOL0     C56160   7.901   7.765   9.696 -0.8523 -0.2141  0.4605
  426MOL0     C56161   8.018   7.696   9.759  0.0140 -0.1253 -0.4155
  426MOL0     C56162   7.997   7.604   9.885 -0.8897 -0.3846  0.4436
  426MOL0     C56163   7.900   7.670   9.974  0.1142  0.0307 -0.6276
  426MOL0     C56164   7.804   7.696  10.041 -0.3624 -0.2359 -0.8517
  426MOL0     C56165   7.575   7.572   9.462 -1.3824 -0.4072  1.0999
  426MOL0     C56166   7.480   7.523   9.372  0.2198  0.2267  0.8896
  426MOL0     H56167   7.537   7.141   9.011 -3.0542 -0.6601  1.8325
  426MOL0     H56168   7.454   6.976   8.857 -2.3587 -1.8941  0.1057
  426MOL0     H56169   7.424   6.974   8.589  0.3842 -0.6529 -1.7011
  426MOL0     H56170   7.270   6.935   8.510  0.8671  2.0431 -0.6647
  426MOL0     H56171   7.320   6.806   8.781 -0.1430 -0.3022 -0.4107
  426MOL0     H56172   7.387   6.746   8.620  1.0233  0.0442  0.1847
  426MOL0     H56173   7.094   6.807   8.701  0.6054  2.3477 -4.1102
  426MOL0     H56174   7.171   6.645   8.701 -0.8017 -0.9641 -0.1597
  426MOL0     H56175   7.105   6.823   8.480  2.5728  1.1042  1.8965
  426MOL0     H56176   7.188   6.659   8.451 -4.7823 -1.4377 -2.8895
  426MOL0     H56177   6.952   6.622   8.606 -0.6947 -1.7264 -0.0201
  426MOL0     H56178   7.046   6.523   8.489 -1.2345  0.6889 -2.7670
  426MOL0     H56179   6.872   6.762   8.418 -1.3351 -0.0407  0.9324
  426MOL0     H56180   6.838   6.587   8.379  0.7867 -0.4443 -0.7456
  426MOL0     H56181   7.076   6.735   8.287  0.5799 -1.2492  0.7862
  426MOL0     H56182   7.051   6.565   8.280  2.2443  1.5111  1.4069
  426MOL0     H56183   7.024   6.682   8.067 -1.6590  1.2237 -1.9490
  426MOL0     H56184   6.874   6.766   8.127  0.7022  0.3363 -1.7633
  426MOL0     H56185   6.645   6.597   8.147  1.9409  3.0046 -2.5371
  426MOL0     H56186   6.496   6.390   8.150  0.9889 -0.5144  1.8682
  426MOL0     H56187   6.579   6.262   8.206 -2.4602 -0.8557 -0.1771
  426MOL0     H56188   6.567   6.264   7.907 -1.6225 -4.2005 -1.9098
  426MOL0     H56189   6.422   6.263   7.989  1.1118 -0.4309 -0.9777
  426MOL0     H56190   6.649   6.081   8.079 -0.2198  1.2220 -0.0865
  426MOL0     H56191   6.473   6.092   8.124  0.4982  2.4430  0.3862
  426MOL0     H56192   6.555   5.904   7.965 -1.6821 -0.9080 -2.4135
  426MOL0     H56193   6.600   6.026   7.855 -0.7346  0.7187 -0.6188
  426MOL0     H56194   6.137   5.994   7.823  0.6186 -0.3321  1.3104
  426MOL0     H56195   6.039   5.827   7.676  0.5877 -4.9482  1.3499
  426MOL0     H56196   5.790   5.513   7.460 -0.0983 -0.0561  0.4099
  426MOL0     H56197   5.710   5.466   7.244  1.0822 -1.2650 -3.2162
  426MOL0     H56198   5.966   5.450   6.912  1.9763  2.0591 -1.0489
  426MOL0     H56199   5.942   5.616   6.899  0.3163 -1.0590  0.7104
  426MOL0     H56200   5.875   5.525   6.688  0.2843 -0.6864  0.0311
  426MOL0     H56201   5.726   5.570   6.755 -1.5345 -0.8975  2.0766
  426MOL0     H56202   5.681   5.343   6.833 -0.0563  2.3682 -0.2577
  426MOL0     H56203   5.841   5.285   6.793  0.6452 -0.5332 -2.4581
  426MOL0     H56204   5.608   5.361   6.619 -1.4402 -3.1117  5.4444
  426MOL0     H56205   5.778   5.341   6.547  0.2231 -1.9983 -1.1372
  426MOL0     H56206   5.651   5.125   6.709  2.6680 -1.0508  0.4979
  426MOL0     H56207   5.794   5.136   6.605  1.1855  3.5450 -2.1529
  426MOL0     H56208   5.640   5.198   6.418 -2.3514  4.1127  1.2629
  426MOL0     H56209   5.509   5.179   6.532  2.1533  2.2068  0.5497
  426MOL0     H56210   5.702   4.963   6.416  1.2850 -0.5042  2.1951
  426MOL0     H56211   5.604   4.928   6.561 -1.2127 -2.0415 -1.4761
  426MOL0     H56212   5.411   4.971   6.458 -0.0859  2.1870 -0.7750
  426MOL0     H56213   5.477   4.830   6.365  1.2107 -1.2322 -0.4755
  426MOL0     H56214   6.051   5.673   7.081  2.0869  3.7483  1.4914
  426MOL0     H56215   6.120   5.719   7.310  0.8835 -1.1015  0.3687
  426MOL0     H56216   6.411   5.635   7.647 -2.9159 -0.6977 -0.4809
  426MOL0     H56217   6.510   5.778   7.781  0.3921 -0.3541  0.9636
  426MOL0     H56218   7.154   7.261   8.724  1.0165  1.0350 -0.6421
  426MOL0     H56219   7.248   7.429   8.873 -1.3033 -1.4382  0.3517
  426MOL0     H56220   7.701   7.438   9.130 -1.1897 -0.1365 -1.0047
  426MOL0     H56221   7.853   7.503   9.282 -1.3613 -2.6011 -5.1348
  426MOL0     H56222   7.757   7.621   9.723  0.0782  1.5722  1.2783
  426MOL0     H56223   7.699   7.756   9.633  0.2830 -0.0968 -1.8755
  426MOL0     H56224   7.928   7.829   9.611  0.8236  2.0704  2.5879
  426MOL0     H56225   7.872   7.846   9.763  0.0378  1.3152 -0.9233
  426MOL0     H56226   8.087   7.778   9.780  0.3775  0.6629 -3.9539
  426MOL0     H56227   8.070   7.630   9.690 -1.0594  1.0597 -2.4681
  426MOL0     H56228   7.953   7.510   9.849 -2.5784 -0.3178  2.1816
  426MOL0     H56229   8.090   7.585   9.940 -0.1930 -0.6370 -0.7769
  426MOL0     H56230   7.712   7.720  10.090 -0.2152 -0.0786 -0.6475
  426MOL0     H56231   7.566   7.594   9.568  0.5044 -0.4089  1.2855
  426MOL0     H56232   7.379   7.495   9.401  0.0830  0.1810  0.3829
  427MOL0     O56233   7.433   8.952   0.539  0.2593 -0.2167 -0.4647
  427MOL0     C56234   7.320   8.993   0.570 -0.0207  0.0810 -0.0604
  427MOL0     O56235   7.265   9.116   0.547  0.1753 -0.1825  0.1533
  427MOL0     C56236   7.327   9.218   0.489 -0.9142 -0.4877 -0.5688
  427MOL0     C56237   7.262   9.347   0.492  0.3387 -1.1734  0.2832
  427MOL0     C56238   7.315   9.461   0.436  0.4184 -0.5709  0.9337
  427MOL0     C56239   7.445   9.466   0.380 -0.7670  0.3860  0.1021
  427MOL0     O56240   7.504   9.568   0.308 -0.4485 -0.4300 -0.0539
  427MOL0     C56241   7.434   9.659   0.223  0.4174 -0.0550  0.1236
  427MOL0     C56242   7.527   9.784   0.214  0.1676 -0.5741  0.4334
  427MOL0     C56243   7.642   9.748   0.117 -0.1598  0.3382 -0.3734
  427MOL0     C56244   7.717   9.882   0.091 -0.9598 -0.9409 -0.0407
  427MOL0     C56245   7.783   9.885  -0.051  0.5346 -0.1370  0.0282
  427MOL0     C56246   7.871   9.760  -0.076 -0.8923  0.2937  0.0794
  427MOL0     C56247   7.935   9.759  -0.215 -0.9518 -0.8580  0.4721
  427MOL0     C56248   8.074   9.838  -0.205  0.8188 -0.6103 -0.6524
  427MOL0     N56249   8.140   9.832  -0.337  0.2377  0.4401  0.4911
  427MOL0     C56250   8.204   9.719  -0.386 -0.5392  0.9326  0.6870
  427MOL0     C56251   8.271   9.757  -0.499  0.1164  0.6480 -0.1304
  427MOL0     C56252   8.359   9.675  -0.588  0.3809 -0.3156  0.0267
  427MOL0     C56253   8.418   9.562  -0.499 -0.6948  0.2809 -0.4274
  427MOL0     C56254   8.501   9.452  -0.573 -0.3614 -0.0618 -0.8884
  427MOL0     C56255   8.398   9.363  -0.635  0.6249  0.0758 -0.3449
  427MOL0     O56256   8.455   9.252  -0.705 -0.2036 -0.4803  0.4701
  427MOL0     C56257   8.526   9.160  -0.632 -0.7867 -0.4027 -0.1796
  427MOL0     C56258   8.597   9.062  -0.695  0.2396 -0.1549  0.1632
  427MOL0     C56259   8.682   8.978  -0.625 -0.1211  0.0904 -0.0067
  427MOL0     C56260   8.688   8.970  -0.483  0.2009  0.4279  0.2078
  427MOL0     C56261   8.779   8.869  -0.417  0.7981 -0.1557 -0.1330
  427MOL0     O56262   8.848   8.792  -0.517 -0.1016 -0.5522  0.4274
  427MOL0     C56263   8.928   8.676  -0.483 -0.2230 -0.7007 -0.7061
  427MOL0     C56264   8.993   8.647  -0.357  0.3653  0.2963  0.0331
  427MOL0     C56265   9.065   8.529  -0.345 -0.8293 -0.7504  0.2853
  427MOL0     C56266   9.060   8.426  -0.442 -0.8031  0.4767  0.1821
  427MOL0     O56267   9.115   8.296  -0.425 -0.0998 -1.1554  0.2719
  427MOL0     C56268   9.129   8.250  -0.287  0.8770 -0.0234  0.3153
  427MOL0     C56269   9.114   8.092  -0.268 -0.4593  0.7568  0.5204
  427MOL0     C56270   8.992   8.027  -0.334  0.9273 -0.5648  0.7027
  427MOL0     C56271   8.976   7.876  -0.315  0.1641  0.3562 -0.2441
  427MOL0     C56272   8.862   7.826  -0.396 -0.6219  0.4344 -1.0705
  427MOL0     C56273   8.735   7.836  -0.308  0.1547 -0.0450 -0.2940
  427MOL0     C56274   8.696   7.688  -0.258  0.0988 -0.4248  1.2082
  427MOL0     C56275   8.560   7.707  -0.197 -0.1582  0.4672 -0.3667
  427MOL0    Cl56276   8.561   7.784  -0.023 -0.3665  0.1800  0.3672
  427MOL0     C56277   9.003   8.462  -0.568  0.4289  0.1078  0.0072
  427MOL0     C56278   8.937   8.581  -0.586 -1.0748 -0.0043  0.5929
  427MOL0     O56279   8.779   8.859  -0.299  0.7326  0.3088  0.2641
  427MOL0     C56280   8.611   9.068  -0.415 -0.1112 -0.1803  0.9547
  427MOL0     C56281   8.532   9.155  -0.488  0.3713 -0.8350 -0.3874
  427MOL0     N56282   8.235   9.887  -0.527  0.2512  0.1608  0.6014
  427MOL0     N56283   8.157   9.929  -0.425 -0.3097  0.2090  0.0281
  427MOL0     C56284   7.521   9.351   0.400  0.1118  0.3149 -0.4610
  427MOL0     C56285   7.463   9.228   0.454  0.0930 -0.5113  0.4472
  427MOL0     C56286   7.228   8.909   0.659 -0.4287  0.2346 -0.0405
  427MOL0     C56287   7.117   8.970   0.716  0.6376  0.0472 -0.6592
  427MOL0     C56288   7.033   8.903   0.805  0.6963 -0.4054 -0.1587
  427MOL0     C56289   7.048   8.761   0.819 -0.5705 -1.0101  0.2261
  427MOL0     O56290   6.972   8.710   0.918 -0.2319  0.1509 -0.1598
  427MOL0     C56291   6.967   8.571   0.935  0.1327  0.5102 -0.0134
  427MOL0     C56292   7.080   8.514   1.030 -0.4684  0.9675 -0.0870
  427MOL0     C56293   7.074   8.356   1.047 -0.6749  0.4978 -0.4327
  427MOL0     C56294   6.950   8.313   1.136  0.0503 -0.3444  0.2503
  427MOL0     C56295   6.982   8.305   1.276 -0.6505  0.0766  0.1783
  427MOL0     C56296   7.027   8.268   1.385  0.8498 -1.0230 -0.2540
  427MOL0     C56297   7.158   8.703   0.753 -0.0761  0.6660 -0.2349
  427MOL0     C56298   7.248   8.769   0.679  0.2447  0.6928 -0.2088
  427MOL0     H56299   7.164   9.343   0.538  0.0665  1.5606  0.1314
  427MOL0     H56300   7.252   9.550   0.437  1.5048  0.2104  1.7951
  427MOL0     H56301   7.338   9.695   0.261  1.4334  1.3365  1.4948
  427MOL0     H56302   7.425   9.621   0.121  0.3864  3.1542 -1.2162
  427MOL0     H56303   7.563   9.823   0.310  1.1988  0.7580 -0.4561
  427MOL0     H56304   7.470   9.868   0.173 -0.5356 -0.4805  1.5662
  427MOL0     H56305   7.604   9.704   0.023  1.7044  2.6998 -2.3658
  427MOL0     H56306   7.703   9.668   0.160 -0.5432 -1.4380 -2.8684
  427MOL0     H56307   7.652   9.970   0.081  1.3188  0.7424 -0.8774
  427MOL0     H56308   7.790   9.899   0.171 -0.0408 -2.6559 -0.4601
  427MOL0     H56309   7.838   9.979  -0.061  0.4395 -0.2322 -1.8487
  427MOL0     H56310   7.703   9.896  -0.124 -0.6521  0.1354  1.3379
  427MOL0     H56311   7.802   9.676  -0.068 -1.4221  0.5969 -1.0884
  427MOL0     H56312   7.944   9.755   0.005 -0.9908  0.6338  0.1902
  427MOL0     H56313   7.957   9.658  -0.253  0.1140 -0.8411  1.0049
  427MOL0     H56314   7.873   9.815  -0.285 -0.0649 -0.5215 -0.0654
  427MOL0     H56315   8.134   9.793  -0.125 -0.4193 -0.5647  0.3460
  427MOL0     H56316   8.063   9.942  -0.171  3.9736 -0.7813  1.2230
  427MOL0     H56317   8.201   9.623  -0.337  2.2101  0.5001  0.1793
  427MOL0     H56318   8.435   9.735  -0.638  0.8595 -0.3128  0.7449
  427MOL0     H56319   8.291   9.617  -0.651 -1.7159 -1.0757  2.7883
  427MOL0     H56320   8.347   9.512  -0.433 -0.6246  0.6470 -0.0733
  427MOL0     H56321   8.485   9.608  -0.427  5.8790 -2.0049 -4.1815
  427MOL0     H56322   8.559   9.503  -0.651  0.1193  0.8120  0.0179
  427MOL0     H56323   8.563   9.404  -0.498 -1.7908 -0.0128  0.3742
  427MOL0     H56324   8.358   9.434  -0.708  2.2905  3.5507  1.8569
  427MOL0     H56325   8.314   9.340  -0.568 -0.8512  1.3199 -1.6952
  427MOL0     H56326   8.601   9.070  -0.803 -1.9403  4.1363  0.1944
  427MOL0     H56327   8.753   8.917  -0.679 -0.6736 -0.3655 -0.2279
  427MOL0     H56328   9.006   8.727  -0.286 -0.4212  1.0734 -0.6797
  427MOL0     H56329   9.110   8.516  -0.247 -0.7527  0.2844  0.3962
  427MOL0     H56330   9.057   8.305  -0.226  0.9961  2.4382 -1.6088
  427MOL0     H56331   9.231   8.271  -0.253  0.7392 -0.6963  1.1879
  427MOL0     H56332   9.120   8.062  -0.163  0.7180  1.4282  0.6568
  427MOL0     H56333   9.197   8.044  -0.321  2.4769  3.3858  2.3795
  427MOL0     H56334   8.991   8.051  -0.441  0.4427  1.0556  1.0492
  427MOL0     H56335   8.903   8.077  -0.297  0.6376 -0.7319  0.2399
  427MOL0     H56336   9.068   7.819  -0.331  0.9156  1.1800  0.9421
  427MOL0     H56337   8.967   7.849  -0.209  1.7604  0.6979 -0.0005
  427MOL0     H56338   8.881   7.721  -0.421  0.5604  0.9060 -2.2744
  427MOL0     H56339   8.842   7.876  -0.491 -2.3265 -0.1507 -1.0560
  427MOL0     H56340   8.664   7.884  -0.376 -0.2436 -1.4555 -0.9147
  427MOL0     H56341   8.749   7.900  -0.221  3.5758  1.1924 -1.5802
  427MOL0     H56342   8.689   7.624  -0.347 -2.5756  1.4340 -0.0653
  427MOL0     H56343   8.776   7.647  -0.196  1.7875 -1.6360 -1.5768
  427MOL0     H56344   8.526   7.603  -0.182 -0.3199  0.4851 -0.6086
  427MOL0     H56345   8.479   7.750  -0.256 -1.1545 -3.5976 -2.3528
  427MOL0     H56346   8.989   8.394  -0.651 -3.0282  1.4599 -0.6746
  427MOL0     H56347   8.895   8.602  -0.683  0.6933  3.2379  0.3934
  427MOL0     H56348   8.615   9.067  -0.306 -1.3992 -4.1287  1.1077
  427MOL0     H56349   8.475   9.221  -0.424 -2.8185 -0.7212 -3.0485
  427MOL0     H56350   7.621   9.368   0.361 -0.3628 -0.8445 -2.2875
  427MOL0     H56351   7.538   9.151   0.469  2.2468  1.1011 -1.3823
  427MOL0     H56352   7.102   9.076   0.700  2.9736  0.5828  0.3049
  427MOL0     H56353   6.945   8.947   0.851 -0.2869 -0.7120 -1.6579
  427MOL0     H56354   6.959   8.510   0.844  1.5968  1.9718 -1.1687
  427MOL0     H56355   6.878   8.545   0.994 -1.2096  2.7429 -0.9485
  427MOL0     H56356   7.171   8.519   0.970 -1.1244 -0.9588 -1.3463
  427MOL0     H56357   7.084   8.579   1.117 -0.8764  1.8019 -0.6731
  427MOL0     H56358   7.160   8.307   1.093 -2.1103 -2.4599 -0.6698
  427MOL0     H56359   7.075   8.313   0.946  0.9395  0.7130 -0.5359
  427MOL0     H56360   6.873   8.391   1.135  1.8667  1.5504  0.7498
  427MOL0     H56361   6.904   8.223   1.096 -1.6328  0.8601 -0.6436
  427MOL0     H56362   7.060   8.248   1.484  0.3583 -2.3866 -0.3360
  427MOL0     H56363   7.176   8.596   0.753 -0.4768  0.5617  1.5624
  427MOL0     H56364   7.333   8.712   0.643  0.0577 -1.7268  2.7628
  428MOL0     O56365   5.927   6.887   4.035 -0.5490 -0.2291 -0.6525
  428MOL0     C56366   5.966   6.901   4.153  0.0214  0.8698 -0.3860
  428MOL0     O56367   6.065   6.991   4.190 -1.0044  0.7160 -0.5758
  428MOL0     C56368   6.115   7.084   4.094  0.2232 -0.4045 -0.6346
  428MOL0     C56369   6.248   7.096   4.065 -0.0732 -0.7240  1.2643
  428MOL0     C56370   6.295   7.193   3.975  0.2128  0.4204  0.3409
  428MOL0     C56371   6.217   7.299   3.939  0.0411  0.4684 -0.1665
  428MOL0     O56372   6.256   7.413   3.863 -0.3541  0.4730  0.2101
  428MOL0     C56373   6.362   7.398   3.772  0.3490  1.0367 -0.0070
  428MOL0     C56374   6.509   7.409   3.834  0.4827 -0.0316  0.3864
  428MOL0     C56375   6.538   7.546   3.900  0.5944  0.7423 -0.2546
  428MOL0     C56376   6.672   7.549   3.976  0.4999 -0.3090  0.0264
  428MOL0     C56377   6.707   7.694   4.023 -0.9693 -0.1068 -0.2031
  428MOL0     C56378   6.632   7.738   4.146 -0.8601  0.6079  0.1638
  428MOL0     C56379   6.673   7.876   4.197 -0.0150 -0.3799  0.8370
  428MOL0     C56380   6.597   7.904   4.326  0.2133 -0.0320  0.8480
  428MOL0     N56381   6.573   8.047   4.337  0.2133  0.1121  0.7678
  428MOL0     C56382   6.471   8.107   4.271 -0.5593  0.1075  0.0596
  428MOL0     C56383   6.469   8.235   4.318  0.0750 -0.5872 -0.1231
  428MOL0     C56384   6.372   8.347   4.283 -0.8334 -0.1161  0.2714
  428MOL0     C56385   6.426   8.409   4.151 -0.6195  0.4508  1.0409
  428MOL0     C56386   6.304   8.478   4.086 -0.4944  0.1130  0.3283
  428MOL0     C56387   6.353   8.597   4.004  1.0835 -0.6225  0.4979
  428MOL0     O56388   6.234   8.622   3.920 -0.2222  0.1418 -0.0624
  428MOL0     C56389   6.230   8.750   3.865  0.2383  0.2496 -0.3899
  428MOL0     C56390   6.328   8.846   3.866  1.2634 -1.0985 -0.7323
  428MOL0     C56391   6.320   8.962   3.787  0.0303  0.4802 -0.1860
  428MOL0     C56392   6.204   8.991   3.716  0.1505 -0.1345 -0.2370
  428MOL0     C56393   6.184   9.117   3.648 -0.3726 -0.3053 -0.3758
  428MOL0     O56394   6.051   9.146   3.625  0.8342 -0.9188 -0.3389
  428MOL0     C56395   6.011   9.256   3.551  0.0240  0.6823 -0.9091
  428MOL0     C56396   6.052   9.384   3.577 -0.7509 -0.1264 -0.1596
  428MOL0     C56397   6.007   9.490   3.507 -0.3616 -0.9099  0.7684
  428MOL0     C56398   5.922   9.481   3.396 -0.2335  0.2360  0.1239
  428MOL0     O56399   5.888   9.579   3.306  0.1844 -0.7569  0.3201
  428MOL0     C56400   5.981   9.693   3.299 -0.8303  0.8942 -0.3554
  428MOL0     C56401   5.961   9.803   3.190  0.6580  0.3576 -0.1594
  428MOL0     C56402   6.007   9.937   3.253 -0.3093 -0.3144  0.7341
  428MOL0     C56403   6.005  10.064   3.173  0.2801  0.4764 -0.7497
  428MOL0     C56404   6.051  10.185   3.258  0.8693  0.6647 -1.0696
  428MOL0     C56405   6.028  10.317   3.185 -0.2975  0.1453 -0.6142
  428MOL0     C56406   6.053  10.438   3.287 -0.7998 -0.0327 -0.1316
  428MOL0     C56407   6.088  10.579   3.213 -0.0117 -0.7845 -1.1803
  428MOL0    Cl56408   6.109  10.710   3.339 -0.1932 -0.2140 -0.0136
  428MOL0     C56409   5.896   9.345   3.359  0.3409  0.1935 -1.0943
  428MOL0     C56410   5.929   9.234   3.440 -0.2564 -0.4975 -0.6763
  428MOL0     O56411   6.279   9.192   3.635 -0.4664  0.5507  0.1018
  428MOL0     C56412   6.101   8.900   3.722 -0.1606 -1.5830 -0.0509
  428MOL0     C56413   6.118   8.776   3.786 -0.1669  0.5183  0.3870
  428MOL0     N56414   6.571   8.244   4.404  0.5217 -0.0428  0.5318
  428MOL0     N56415   6.637   8.136   4.415 -0.4209  0.3833 -0.4250
  428MOL0     C56416   6.087   7.307   3.987 -0.0771  0.6033  1.3388
  428MOL0     C56417   6.029   7.192   4.053 -0.0595 -0.4197 -0.0651
  428MOL0     C56418   5.885   6.848   4.257 -0.2189 -0.1974 -0.2009
  428MOL0     C56419   5.783   6.755   4.225  0.0340 -0.4078  0.0308
  428MOL0     C56420   5.706   6.701   4.323  0.1496  0.3253  0.5411
  428MOL0     C56421   5.727   6.738   4.455  0.6667 -0.1437 -0.2671
  428MOL0     O56422   5.641   6.694   4.548 -0.4282 -0.0374  0.3431
  428MOL0     C56423   5.523   6.781   4.575 -0.8370 -0.6716 -0.0650
  428MOL0     C56424   5.461   6.745   4.712  1.0820  0.5637  0.7768
  428MOL0     C56425   5.314   6.791   4.697  0.0039 -0.1447  0.5834
  428MOL0     C56426   5.260   6.824   4.838  0.2401 -0.2238  0.1759
  428MOL0     C56427   5.275   6.702   4.922 -0.7873  0.4387  0.3579
  428MOL0     C56428   5.263   6.595   4.979  0.2670  0.5213  0.7142
  428MOL0     C56429   5.829   6.820   4.490 -0.8967 -0.1931  0.0144
  428MOL0     C56430   5.906   6.884   4.392 -0.3846 -0.0295  0.3801
  428MOL0     H56431   6.311   7.016   4.102  2.0510  1.4135  2.5784
  428MOL0     H56432   6.398   7.190   3.938 -0.2130 -0.6028 -0.8329
  428MOL0     H56433   6.355   7.479   3.700 -0.5357  0.2340 -0.8644
  428MOL0     H56434   6.351   7.303   3.719  0.6363  1.3771 -0.6811
  428MOL0     H56435   6.575   7.392   3.748 -0.4637 -3.0704  0.1434
  428MOL0     H56436   6.520   7.333   3.911 -0.1359 -1.7016 -1.1042
  428MOL0     H56437   6.456   7.564   3.970  1.8924  1.3330  1.1805
  428MOL0     H56438   6.528   7.612   3.813 -0.8272  0.5424 -0.2729
  428MOL0     H56439   6.655   7.480   4.059  1.1208  0.5004  0.8434
  428MOL0     H56440   6.755   7.515   3.913 -0.1587 -1.9768  0.0022
  428MOL0     H56441   6.690   7.774   3.950 -0.9615 -0.5379 -0.6860
  428MOL0     H56442   6.816   7.695   4.036 -0.4670  1.0525 -3.4381
  428MOL0     H56443   6.653   7.664   4.224 -0.7641 -0.6371 -1.0101
  428MOL0     H56444   6.523   7.734   4.138 -0.9998 -0.1330  1.9586
  428MOL0     H56445   6.781   7.876   4.216 -0.4107 -0.6865  3.4841
  428MOL0     H56446   6.643   7.949   4.121 -3.2854 -0.4166  1.9123
  428MOL0     H56447   6.649   7.878   4.418 -2.5805 -0.4399  2.4346
  428MOL0     H56448   6.503   7.849   4.318  1.5993 -2.5465  0.9302
  428MOL0     H56449   6.403   8.062   4.200 -0.2069 -2.2209  1.1101
  428MOL0     H56450   6.374   8.425   4.360  2.5810  3.0428 -2.6421
  428MOL0     H56451   6.269   8.312   4.271 -0.1663 -2.2692  0.3972
  428MOL0     H56452   6.472   8.337   4.082 -0.8533 -0.5298  1.8695
  428MOL0     H56453   6.503   8.482   4.173 -1.3708  1.0672  1.6911
  428MOL0     H56454   6.238   8.401   4.045 -1.9482  1.1702  0.5872
  428MOL0     H56455   6.248   8.533   4.163  1.2041 -0.8534  2.3708
  428MOL0     H56456   6.446   8.569   3.955  1.1135  0.5340 -0.1186
  428MOL0     H56457   6.367   8.682   4.072  0.0817 -1.1688  1.4247
  428MOL0     H56458   6.416   8.840   3.929  2.0403  2.0027 -1.3544
  428MOL0     H56459   6.407   9.028   3.781 -0.0681  0.5820 -0.5287
  428MOL0     H56460   6.101   9.416   3.669  2.0344  2.4569 -2.3276
  428MOL0     H56461   6.044   9.587   3.539  1.8739 -0.9109 -1.4711
  428MOL0     H56462   6.083   9.652   3.292  0.9513  4.5438  1.5043
  428MOL0     H56463   5.968   9.739   3.397 -0.7762 -1.9120  1.0725
  428MOL0     H56464   5.855   9.801   3.165  0.5051 -2.2486  0.4549
  428MOL0     H56465   6.002   9.780   3.091 -0.2956 -0.8255 -0.3035
  428MOL0     H56466   6.107   9.918   3.295 -0.0177 -0.8524 -0.1854
  428MOL0     H56467   5.950   9.948   3.346 -0.7253 -0.0958  0.4587
  428MOL0     H56468   6.080  10.050   3.094 -0.3874  0.4048 -1.3782
  428MOL0     H56469   5.906  10.082   3.131 -0.6821 -3.8925 -0.7897
  428MOL0     H56470   6.158  10.185   3.282  0.2510 -1.7163  2.4751
  428MOL0     H56471   5.993  10.185   3.351 -0.6190  1.3002 -1.9525
  428MOL0     H56472   5.928  10.323   3.141 -0.0916  3.0622 -0.8978
  428MOL0     H56473   6.096  10.333   3.101  0.7812  3.7373  0.7730
  428MOL0     H56474   5.957  10.457   3.336 -1.0134 -0.3773 -0.4061
  428MOL0     H56475   6.131  10.420   3.361 -2.5030  0.5921  1.9408
  428MOL0     H56476   6.002  10.616   3.155 -1.1503  0.3794  1.1318
  428MOL0     H56477   6.177  10.570   3.149  1.7910 -0.3252  1.1163
  428MOL0     H56478   5.832   9.332   3.272 -2.1943 -1.5957  0.8763
  428MOL0     H56479   5.912   9.131   3.409  1.0286  0.2892 -4.4794
  428MOL0     H56480   6.014   8.933   3.666  1.0373 -1.6202 -2.0586
  428MOL0     H56481   6.036   8.706   3.771 -1.4529  1.8653  0.9430
  428MOL0     H56482   6.028   7.398   3.976 -2.7169 -1.1302 -0.1537
  428MOL0     H56483   5.931   7.201   4.099 -0.0546 -1.4593  0.1636
  428MOL0     H56484   5.751   6.721   4.127 -2.0009 -0.4841  0.6831
  428MOL0     H56485   5.619   6.642   4.295 -1.2880  1.8245  1.6887
  428MOL0     H56486   5.453   6.762   4.493 -0.7755 -1.4466  0.0596
  428MOL0     H56487   5.542   6.889   4.569 -0.6268 -0.4717  2.8410
  428MOL0     H56488   5.463   6.637   4.730 -0.2440 -0.1618 -2.7581
  428MOL0     H56489   5.523   6.793   4.789  2.5578  0.2270 -0.1549
  428MOL0     H56490   5.251   6.723   4.639 -0.2716  2.3647 -2.3663
  428MOL0     H56491   5.306   6.888   4.646 -2.9612  0.6675  2.3660
  428MOL0     H56492   5.307   6.911   4.884 -0.6529  0.0136  0.6525
  428MOL0     H56493   5.157   6.854   4.816  1.0622  0.4254 -3.4436
  428MOL0     H56494   5.244   6.493   5.007  1.4062  0.0082 -0.3202
  428MOL0     H56495   5.857   6.838   4.593 -1.1149  1.7406 -0.2121
  428MOL0     H56496   5.982   6.956   4.421  1.2851  0.2118 -3.8239
  429MOL0     O56497   2.534   0.206   7.205  0.3880  0.4827  0.1658
  429MOL0     C56498   2.599   0.116   7.164 -0.0422  1.0328 -0.0689
  429MOL0     O56499   2.660   0.105   7.045 -0.6453 -0.0818 -0.2031
  429MOL0     C56500   2.659   0.204   6.954  0.0305 -1.0480 -0.5322
  429MOL0     C56501   2.569   0.188   6.847 -0.2547 -0.2335  0.2623
  429MOL0     C56502   2.554   0.288   6.755  0.3026 -0.8641  0.7864
  429MOL0     C56503   2.628   0.411   6.761  0.3685  0.8672 -0.5619
  429MOL0     O56504   2.609   0.507   6.656 -0.0007  0.2408  0.0565
  429MOL0     C56505   2.605   0.644   6.689  0.3325  0.6348 -0.2305
  429MOL0     C56506   2.567   0.721   6.560 -0.0271  1.1814  0.2870
  429MOL0     C56507   2.668   0.709   6.443  0.1222 -0.0237 -0.6729
  429MOL0     C56508   2.814   0.747   6.480  0.2124 -0.0906  0.5356
  429MOL0     C56509   2.906   0.778   6.356 -0.5821 -0.4946 -0.1161
  429MOL0     C56510   2.900   0.670   6.240 -0.4402  0.4597  0.6450
  429MOL0     C56511   2.941   0.725   6.104  0.4259 -0.6271 -0.7045
  429MOL0     C56512   3.090   0.705   6.073 -1.1904 -0.3679 -0.3934
  429MOL0     N56513   3.117   0.569   6.040 -0.3019 -0.1006 -0.5952
  429MOL0     C56514   3.153   0.467   6.122  0.0468 -0.3824 -0.2296
  429MOL0     C56515   3.170   0.358   6.046 -0.4912 -0.2375  0.2599
  429MOL0     C56516   3.200   0.221   6.093  0.2475  0.2001  0.5775
  429MOL0     C56517   3.160   0.114   5.992  1.3938  0.0118 -0.0137
  429MOL0     C56518   3.173  -0.020   6.065  1.1473 -0.2581 -0.3879
  429MOL0     C56519   3.303  -0.053   6.137 -0.7291 -0.2374 -0.0361
  429MOL0     O56520   3.419  -0.022   6.066 -0.7954  0.0976 -0.9380
  429MOL0     C56521   3.458  -0.124   5.987 -0.1468 -0.2435 -0.9023
  429MOL0     C56522   3.525  -0.235   6.040 -0.4840 -0.0728 -0.3695
  429MOL0     C56523   3.555  -0.342   5.958  0.0331  1.1956 -0.9635
  429MOL0     C56524   3.505  -0.361   5.827 -1.0780 -0.1928 -0.1518
  429MOL0     C56525   3.537  -0.473   5.736 -0.5547  0.1836  0.3712
  429MOL0     O56526   3.551  -0.599   5.794 -0.7228  0.2691 -0.5080
  429MOL0     C56527   3.563  -0.712   5.721  0.0662 -0.3282 -0.2691
  429MOL0     C56528   3.511  -0.734   5.593  0.0072  0.0903  0.3382
  429MOL0     C56529   3.532  -0.856   5.525 -0.5476  0.4238 -0.0630
  429MOL0     C56530   3.593  -0.962   5.597  1.1983  0.7327  0.3884
  429MOL0     O56531   3.595  -1.088   5.540 -0.0034 -0.5562 -0.4722
  429MOL0     C56532   3.659  -1.107   5.415  0.6699  0.5078  0.3080
  429MOL0     C56533   3.731  -1.254   5.414 -0.2013  1.0022 -0.3186
  429MOL0     C56534   3.796  -1.262   5.274 -0.2061 -0.4784  0.2043
  429MOL0     C56535   3.877  -1.385   5.254  0.0731  0.5500 -0.2559
  429MOL0     C56536   3.915  -1.411   5.107 -0.2381  0.7863 -0.1024
  429MOL0     C56537   3.808  -1.432   5.003  0.3014 -0.3603  0.0268
  429MOL0     C56538   3.839  -1.537   4.891 -0.8435 -0.4066 -0.0062
  429MOL0     C56539   3.827  -1.682   4.935  0.2315  0.6212 -0.0890
  429MOL0    Cl56540   3.894  -1.780   4.789  0.3421 -0.0520 -0.0331
  429MOL0     C56541   3.648  -0.947   5.724  0.1816  0.3088  0.2731
  429MOL0     C56542   3.630  -0.823   5.786  0.2177 -0.2591  0.4923
  429MOL0     O56543   3.568  -0.444   5.624 -0.4976 -0.1008  0.5057
  429MOL0     C56544   3.445  -0.246   5.774  0.3111 -0.4343  0.2002
  429MOL0     C56545   3.430  -0.129   5.845  0.2287  0.0779 -0.5875
  429MOL0     N56546   3.142   0.394   5.915  0.1118  0.1372 -0.5226
  429MOL0     N56547   3.107   0.520   5.915 -0.4237 -0.3229 -0.4790
  429MOL0     C56548   2.720   0.423   6.862 -0.4852 -0.1733 -0.6258
  429MOL0     C56549   2.735   0.324   6.960 -0.1523 -0.1530  1.1034
  429MOL0     C56550   2.598  -0.006   7.251 -1.0497 -0.2129 -0.4181
  429MOL0     C56551   2.656  -0.129   7.215  0.3905  0.3182  0.2162
  429MOL0     C56552   2.624  -0.249   7.273 -0.7955  0.2722 -1.3756
  429MOL0     C56553   2.556  -0.243   7.400 -0.3883  0.0118  0.3394
  429MOL0     O56554   2.531  -0.353   7.478 -0.1885  0.0582  0.2488
  429MOL0     C56555   2.577  -0.349   7.615  0.2984 -0.0975  1.4245
  429MOL0     C56556   2.492  -0.449   7.701  0.6966  0.2585  0.3320
  429MOL0     C56557   2.534  -0.599   7.677  0.5218 -0.0939 -0.3131
  429MOL0     C56558   2.424  -0.665   7.605  0.7307  0.0793 -0.4642
  429MOL0     C56559   2.449  -0.801   7.566 -0.0462  0.5210  0.0492
  429MOL0     C56560   2.470  -0.915   7.543  0.9093  0.1911  0.1776
  429MOL0     C56561   2.506  -0.115   7.438  0.5553  0.6796 -0.1922
  429MOL0     C56562   2.519   0.000   7.365  0.4044 -0.2675  0.2295
  429MOL0     H56563   2.519   0.094   6.827  0.5488 -0.6871  0.3491
  429MOL0     H56564   2.468   0.276   6.689  0.2467 -0.4608  0.7828
  429MOL0     H56565   2.702   0.684   6.721  0.1428  0.6775  0.3029
  429MOL0     H56566   2.535   0.660   6.772 -0.4822 -0.8198 -0.6032
  429MOL0     H56567   2.534   0.825   6.565 -1.1196  0.7743  2.6608
  429MOL0     H56568   2.478   0.677   6.515  0.6923  1.3603 -1.3788
  429MOL0     H56569   2.629   0.776   6.365 -0.5164  1.0266  0.4963
  429MOL0     H56570   2.675   0.609   6.399 -0.6484  1.5333 -4.8612
  429MOL0     H56571   2.809   0.842   6.533  0.6342  1.5194 -2.1198
  429MOL0     H56572   2.872   0.677   6.542  0.5510 -0.5470 -0.2804
  429MOL0     H56573   3.011   0.785   6.384 -1.0607 -0.2215  1.7545
  429MOL0     H56574   2.873   0.873   6.313  1.4371 -0.0302 -0.7272
  429MOL0     H56575   2.799   0.632   6.225  0.2134 -2.0064  1.8554
  429MOL0     H56576   2.947   0.576   6.271 -0.1671  0.0110 -1.0663
  429MOL0     H56577   2.879   0.668   6.034 -1.1397 -1.7138  1.4304
  429MOL0     H56578   2.932   0.834   6.105 -0.7007 -0.7098 -0.3112
  429MOL0     H56579   3.136   0.737   6.168 -1.8018  0.2031 -0.2809
  429MOL0     H56580   3.123   0.774   5.994 -0.1894  0.0755  0.3792
  429MOL0     H56581   3.165   0.467   6.229 -1.1263 -1.4242 -0.0648
  429MOL0     H56582   3.131   0.208   6.177  0.0057  1.8844  0.6639
  429MOL0     H56583   3.303   0.209   6.127 -0.3603 -1.3306  2.0554
  429MOL0     H56584   3.221   0.109   5.901 -0.8935  0.0798 -1.6129
  429MOL0     H56585   3.059   0.139   5.960  0.9183  0.0037  1.4556
  429MOL0     H56586   3.095  -0.039   6.139  0.8757 -0.0058 -0.6093
  429MOL0     H56587   3.156  -0.099   5.991 -1.5304 -1.1665  1.0686
  429MOL0     H56588   3.297  -0.157   6.169  0.6518 -0.9433 -1.8835
  429MOL0     H56589   3.300   0.008   6.228  0.3448  2.5367 -1.7195
  429MOL0     H56590   3.568  -0.233   6.140  0.5749  3.5464 -0.7576
  429MOL0     H56591   3.609  -0.420   6.012 -1.4928  0.3250 -0.6485
  429MOL0     H56592   3.457  -0.655   5.541 -0.4625 -1.1427 -1.1131
  429MOL0     H56593   3.509  -0.872   5.420 -0.8886  0.5625 -0.0142
  429MOL0     H56594   3.733  -1.029   5.392 -2.5035  3.6955 -0.0704
  429MOL0     H56595   3.580  -1.114   5.340  0.5099  0.5749  0.4726
  429MOL0     H56596   3.661  -1.338   5.426  0.1023  0.8485  0.4206
  429MOL0     H56597   3.804  -1.259   5.495 -1.5284 -2.2585  0.8405
  429MOL0     H56598   3.856  -1.172   5.257  3.3292 -2.8964 -1.0136
  429MOL0     H56599   3.708  -1.247   5.210 -3.1245  5.0340  4.5844
  429MOL0     H56600   3.965  -1.369   5.317 -1.0911 -0.9493  1.8882
  429MOL0     H56601   3.836  -1.479   5.292  2.0345 -1.4409 -2.7107
  429MOL0     H56602   3.972  -1.504   5.107 -0.6988  0.4666  1.5242
  429MOL0     H56603   3.980  -1.331   5.073 -2.0335  2.3190 -0.1147
  429MOL0     H56604   3.786  -1.332   4.965 -0.0691 -0.0636  0.9740
  429MOL0     H56605   3.714  -1.464   5.051  0.9767 -0.1873  1.5263
  429MOL0     H56606   3.782  -1.528   4.798  1.2113 -4.2982 -1.9006
  429MOL0     H56607   3.940  -1.514   4.857 -0.6643  1.9669  1.8271
  429MOL0     H56608   3.724  -1.715   4.950  0.6321 -0.9708 -0.6849
  429MOL0     H56609   3.881  -1.697   5.030 -3.0107 -2.1396  1.5434
  429MOL0     H56610   3.697  -1.032   5.771 -0.3345 -0.8424 -1.1979
  429MOL0     H56611   3.662  -0.797   5.886 -3.8337  0.0506  1.8776
  429MOL0     H56612   3.405  -0.238   5.674  0.4292  0.5709  0.2286
  429MOL0     H56613   3.375  -0.045   5.802 -0.5489  1.2822  2.5186
  429MOL0     H56614   2.778   0.511   6.888  0.3745 -0.0989 -2.5691
  429MOL0     H56615   2.811   0.337   7.037 -1.8120  0.1079  2.7558
  429MOL0     H56616   2.712  -0.126   7.123 -0.8809 -0.0585 -0.5969
  429MOL0     H56617   2.646  -0.345   7.227 -1.3215  0.4577 -2.0350
  429MOL0     H56618   2.566  -0.247   7.652  1.8997  0.9089 -0.6724
  429MOL0     H56619   2.684  -0.365   7.626  0.5057  0.9041  0.9404
  429MOL0     H56620   2.518  -0.422   7.804  1.1032  0.8903  0.0695
  429MOL0     H56621   2.385  -0.443   7.681  1.0765  0.7285 -1.8667
  429MOL0     H56622   2.558  -0.635   7.777 -1.4503  0.6154  0.4658
  429MOL0     H56623   2.622  -0.597   7.612  0.2118  1.3907 -0.7232
  429MOL0     H56624   2.324  -0.657   7.650  0.6597 -0.1772 -0.5722
  429MOL0     H56625   2.420  -0.610   7.511  3.0383  0.1530 -0.5776
  429MOL0     H56626   2.497  -1.017   7.525 -0.8812 -0.5928  1.5364
  429MOL0     H56627   2.423  -0.111   7.507  0.5780 -2.1314  0.1436
  429MOL0     H56628   2.464   0.084   7.407 -1.0626 -1.5660  1.0072
  430MOL0     O56629   2.399  10.014  10.169 -0.0490  0.8852  0.6607
  430MOL0     C56630   2.454   9.967  10.265  0.6363 -0.8579  0.3912
  430MOL0     O56631   2.392   9.931  10.377 -0.4206  0.0226  0.2880
  430MOL0     C56632   2.268   9.980  10.396  0.4575 -0.0305  0.4825
  430MOL0     C56633   2.242  10.053  10.511 -0.0689 -0.1033 -0.5127
  430MOL0     C56634   2.108  10.080  10.557 -0.3371  1.4987  0.2676
  430MOL0     C56635   1.996  10.052  10.479 -0.2300 -0.1340  0.0092
  430MOL0     O56636   1.867  10.086  10.499  0.0567 -0.0308 -0.2490
  430MOL0     C56637   1.829  10.194  10.590 -0.6204  0.0898  0.2871
  430MOL0     C56638   1.764  10.298  10.508  0.4990 -0.1893  0.3911
  430MOL0     C56639   1.636  10.250  10.442 -0.0493 -0.3183 -0.6331
  430MOL0     C56640   1.571  10.350  10.348  0.8198  0.4541 -0.0627
  430MOL0     C56641   1.423  10.316  10.345 -0.4877  0.0593  1.2719
  430MOL0     C56642   1.342  10.418  10.264 -0.3009 -0.7652  1.2703
  430MOL0     C56643   1.198  10.382  10.267  0.9627 -0.6272  0.9607
  430MOL0     C56644   1.161  10.283  10.156 -0.2301 -0.4875 -1.0998
  430MOL0     N56645   1.019  10.274  10.121 -0.3697  0.2468  0.1865
  430MOL0     C56646   0.933  10.387  10.125  0.4061 -0.3040  0.4117
  430MOL0     C56647   0.811  10.330  10.115  0.4376 -0.2680  0.7831
  430MOL0     C56648   0.666  10.384  10.137 -0.2284 -0.4592 -0.2239
  430MOL0     C56649   0.609  10.421   9.996 -0.8132  0.2399 -0.3184
  430MOL0     C56650   0.668  10.558   9.949  0.2942  0.0135 -0.4843
  430MOL0     C56651   0.617  10.610   9.819 -0.5319  0.2094  0.3774
  430MOL0     O56652   0.680  10.739   9.789 -0.0210 -0.0222 -0.5704
  430MOL0     C56653   0.754  10.726   9.678 -0.1302  0.1796  0.1027
  430MOL0     C56654   0.695  10.760   9.549 -0.1176 -0.0353 -0.9792
  430MOL0     C56655   0.758  10.731   9.432 -0.1590  0.9400 -1.7356
  430MOL0     C56656   0.893  10.672   9.432 -0.1471  0.2527  0.0199
  430MOL0     C56657   0.957  10.634   9.309  0.0961 -0.9719  0.7482
  430MOL0     O56658   1.033  10.516   9.304 -0.5932  0.4640 -0.1502
  430MOL0     C56659   1.067  10.475   9.174  0.7170  0.7508  0.6673
  430MOL0     C56660   0.972  10.465   9.071  0.2732 -0.5048 -0.4133
  430MOL0     C56661   1.009  10.406   8.954 -0.4715 -0.0974  0.5352
  430MOL0     C56662   1.131  10.356   8.924 -0.8170 -0.1076 -0.4425
  430MOL0     O56663   1.154  10.307   8.800  0.0382 -0.0119 -0.4335
  430MOL0     C56664   1.283  10.282   8.748 -0.6612 -0.2088  0.4869
  430MOL0     C56665   1.271  10.291   8.597 -0.2080  0.2356  0.5708
  430MOL0     C56666   1.383  10.224   8.514  0.0019  0.5052 -0.4944
  430MOL0     C56667   1.364  10.247   8.363 -0.4534  0.1196  1.2797
  430MOL0     C56668   1.486  10.232   8.268 -0.0941 -1.0822 -0.1526
  430MOL0     C56669   1.453  10.231   8.119 -0.0661  0.5729 -0.4144
  430MOL0     C56670   1.582  10.214   8.034  0.5549 -0.8970 -0.0179
  430MOL0     C56671   1.550  10.219   7.875  0.2110  0.3701 -0.7942
  430MOL0    Cl56672   1.694  10.187   7.796 -0.0462  0.0705  0.3996
  430MOL0     C56673   1.225  10.353   9.029  0.4576 -0.7804 -0.8971
  430MOL0     C56674   1.194  10.418   9.149  0.1506  0.5763 -0.3198
  430MOL0     O56675   0.947  10.707   9.217  0.5679 -0.6848 -0.1262
  430MOL0     C56676   0.939  10.632   9.554 -0.5334 -0.7903  1.0529
  430MOL0     C56677   0.874  10.661   9.673 -0.2133  1.6270 -0.2696
  430MOL0     N56678   0.826  10.197  10.074 -0.0891  0.0379 -0.0005
  430MOL0     N56679   0.953  10.168  10.086 -0.1186  0.2635  0.3481
  430MOL0     C56680   2.023   9.993  10.354  0.1518  0.7887 -0.0996
  430MOL0     C56681   2.153   9.957  10.309 -0.8699  0.7052  0.8693
  430MOL0     C56682   2.597   9.921  10.245  0.0521 -0.5428  0.5577
  430MOL0     C56683   2.681  10.001  10.172 -1.7930  0.7688  0.3875
  430MOL0     C56684   2.820   9.979  10.166  0.3947 -0.7605  0.6634
  430MOL0     C56685   2.881   9.875  10.229  0.6493  0.6552 -0.0917
  430MOL0     O56686   3.019   9.873  10.231 -0.3306  0.5545 -0.2116
  430MOL0     C56687   3.094   9.788  10.329  0.5501  0.0418 -0.0250
  430MOL0     C56688   3.233   9.855  10.337  0.5296  0.8034  0.4828
  430MOL0     C56689   3.298   9.859  10.189 -0.1143  0.4125  0.6438
  430MOL0     C56690   3.442   9.900  10.196  0.0291  0.5534 -0.2479
  430MOL0     C56691   3.521   9.840  10.087  0.1320  0.0410 -0.1335
  430MOL0     C56692   3.599   9.805  10.008 -0.2504  0.6669  0.0807
  430MOL0     C56693   2.799   9.791  10.301  0.7311  0.0054  0.1805
  430MOL0     C56694   2.661   9.810  10.311  0.4127  0.5230 -0.1999
  430MOL0     H56695   2.316  10.079  10.585 -2.8780  2.9890  1.4705
  430MOL0     H56696   2.089  10.111  10.659 -1.1677 -1.5937  1.1650
  430MOL0     H56697   1.918  10.226  10.646 -1.6905  3.2559  0.3538
  430MOL0     H56698   1.757  10.148  10.658 -1.1444  1.1557  0.4653
  430MOL0     H56699   1.825  10.352  10.434  0.8512  1.2620  1.6862
  430MOL0     H56700   1.748  10.383  10.575  0.9143  0.5999 -0.4814
  430MOL0     H56701   1.566  10.215  10.518 -1.5177  1.4018 -1.1265
  430MOL0     H56702   1.664  10.165  10.379 -0.4013  1.4981 -3.4394
  430MOL0     H56703   1.574  10.451  10.392 -3.1006 -0.4995  2.9214
  430MOL0     H56704   1.615  10.342  10.248  0.9661 -1.2556  0.1156
  430MOL0     H56705   1.381  10.312  10.446 -0.7515 -1.1937  1.1330
  430MOL0     H56706   1.421  10.214  10.306  2.5664  0.3123  0.2203
  430MOL0     H56707   1.378  10.424  10.161 -4.0446 -1.5839 -0.2369
  430MOL0     H56708   1.347  10.522  10.295 -1.0754  0.5136 -2.3763
  430MOL0     H56709   1.178  10.330  10.361  1.4688 -1.1874  0.7648
  430MOL0     H56710   1.146  10.478  10.265 -0.0912 -1.1665 -1.7288
  430MOL0     H56711   1.210  10.188  10.181  4.3959  2.0399  0.8652
  430MOL0     H56712   1.220  10.314  10.069  2.2404  1.2642  1.0320
  430MOL0     H56713   0.962  10.487  10.155  3.9708 -0.5138 -1.7322
  430MOL0     H56714   0.674  10.468  10.208 -3.9606  0.3407 -0.5318
  430MOL0     H56715   0.597  10.312  10.182 -1.1221  0.7905  0.4763
  430MOL0     H56716   0.500  10.422  10.003 -0.8341  0.5532 -0.6930
  430MOL0     H56717   0.638  10.332   9.938  0.8625 -0.5903  1.6357
  430MOL0     H56718   0.642  10.635  10.022 -2.3011  0.7523 -2.0346
  430MOL0     H56719   0.776  10.549   9.940  0.7558  0.5772  3.2276
  430MOL0     H56720   0.508  10.624   9.819 -0.6675 -0.7403 -0.5372
  430MOL0     H56721   0.627  10.538   9.737 -4.8851  0.5817 -0.7692
  430MOL0     H56722   0.595  10.803   9.542 -0.1121 -0.0583 -1.2068
  430MOL0     H56723   0.718  10.759   9.335 -0.5369  0.2229 -1.7895
  430MOL0     H56724   0.869  10.497   9.081 -0.6526 -2.8964 -1.4607
  430MOL0     H56725   0.931  10.421   8.880  0.2732  0.6058 -0.1314
  430MOL0     H56726   1.325  10.183   8.766  0.9960  0.1366 -1.1425
  430MOL0     H56727   1.355  10.357   8.782  0.3624 -0.3768 -1.1987
  430MOL0     H56728   1.271  10.397   8.570 -2.1816  0.3974  1.0316
  430MOL0     H56729   1.178  10.248   8.558 -1.0150  1.6434  0.8827
  430MOL0     H56730   1.381  10.117   8.536  3.1867  0.8243  2.1113
  430MOL0     H56731   1.482  10.257   8.546  1.1925 -2.7958 -0.3565
  430MOL0     H56732   1.283  10.190   8.317 -1.9939  2.9832  0.2148
  430MOL0     H56733   1.333  10.351   8.353  0.9567  0.6232  1.8598
  430MOL0     H56734   1.543  10.146   8.303  0.9871  0.6335  2.6020
  430MOL0     H56735   1.554  10.317   8.279 -3.9036  2.4449 -1.0923
  430MOL0     H56736   1.403  10.326   8.099  0.2975  1.9384  4.0253
  430MOL0     H56737   1.385  10.150   8.091  0.1417  0.4889 -0.6837
  430MOL0     H56738   1.649  10.299   8.051  0.7660 -1.1831  0.6087
  430MOL0     H56739   1.628  10.117   8.057  0.8174 -0.6336  0.5931
  430MOL0     H56740   1.520  10.317   7.836  1.6032  1.0745 -0.1718
  430MOL0     H56741   1.473  10.147   7.846 -1.1465  1.6988 -0.6217
  430MOL0     H56742   1.319  10.301   9.012 -0.3946 -2.4919 -0.6084
  430MOL0     H56743   1.270  10.426   9.225 -0.0199  2.0447 -0.2703
  430MOL0     H56744   1.030  10.575   9.567  2.4492  3.8473  2.5600
  430MOL0     H56745   0.924  10.628   9.764  1.1904 -2.3911 -2.2530
  430MOL0     H56746   1.936   9.980  10.290  0.6772 -0.9730 -0.5142
  430MOL0     H56747   2.163   9.916  10.209 -0.2900  1.3512  0.6531
  430MOL0     H56748   2.646  10.095  10.130  1.8484  0.4955 -3.9152
  430MOL0     H56749   2.886  10.054  10.124  1.8270 -1.6193  1.3020
  430MOL0     H56750   3.101   9.685  10.293 -0.7029  1.0394 -3.5530
  430MOL0     H56751   3.052   9.789  10.430 -0.8374 -1.4670 -0.5537
  430MOL0     H56752   3.214   9.958  10.369 -1.1950  0.3179  1.1414
  430MOL0     H56753   3.307   9.797  10.392  0.1164 -1.3343 -1.1109
  430MOL0     H56754   3.242   9.922  10.120 -1.3040  0.5308  1.6914
  430MOL0     H56755   3.288   9.757  10.152 -4.0894  1.0576 -0.4681
  430MOL0     H56756   3.452  10.009  10.191 -1.1388  0.5953 -3.2168
  430MOL0     H56757   3.497   9.871  10.286  1.2946  0.5671 -0.9947
  430MOL0     H56758   3.681   9.756   9.959 -0.1075  1.2547 -0.2870
  430MOL0     H56759   2.857   9.722  10.360  2.1449 -0.2459 -1.4116
  430MOL0     H56760   2.612   9.729  10.364  3.4136 -1.3024 -0.0397
  431MOL0     O56761   7.178  10.227   4.755 -0.3458 -0.0457  0.7256
  431MOL0     C56762   7.257  10.130   4.768 -0.2497 -0.9166  1.0610
  431MOL0     O56763   7.341  10.116   4.873  0.3927  1.0278 -0.9436
  431MOL0     C56764   7.394  10.218   4.941 -0.9567  0.0970 -0.5344
  431MOL0     C56765   7.395  10.213   5.073 -1.0950 -0.1694 -0.2810
  431MOL0     C56766   7.437  10.328   5.148 -0.2181  0.3825  0.3628
  431MOL0     C56767   7.499  10.434   5.080 -0.6310 -1.0128  0.3528
  431MOL0     O56768   7.558  10.542   5.140  0.6671  0.2723 -0.4809
  431MOL0     C56769   7.543  10.569   5.279 -0.5952 -0.6032  0.5490
  431MOL0     C56770   7.626  10.690   5.319  0.3882  0.8853 -0.9316
  431MOL0     C56771   7.590  10.754   5.453 -0.7217  0.8303 -0.5597
  431MOL0     C56772   7.652  10.887   5.467 -1.5790  0.0378 -0.4587
  431MOL0     C56773   7.638  10.944   5.612 -0.0568 -0.2157 -0.6798
  431MOL0     C56774   7.749  10.888   5.698 -1.0335  0.7632 -0.4857
  431MOL0     C56775   7.736  10.918   5.851 -0.0044 -0.7588  0.2159
  431MOL0     C56776   7.838  10.830   5.932 -1.1421 -0.3715 -0.5856
  431MOL0     N56777   7.840  10.851   6.076  0.0599 -0.4710  0.4291
  431MOL0     C56778   7.844  10.966   6.130  0.0243 -0.5631  0.2093
  431MOL0     C56779   7.847  10.946   6.263 -1.0289  0.5406 -1.1541
  431MOL0     C56780   7.822  11.049   6.368 -0.1023 -0.7198 -0.0408
  431MOL0     C56781   7.677  11.109   6.352 -0.4095 -0.0352  0.3534
  431MOL0     C56782   7.654  11.217   6.445  0.0775  0.4063  0.4940
  431MOL0     C56783   7.636  11.180   6.594  0.8984 -0.1789  0.2927
  431MOL0     O56784   7.604  11.299   6.673  0.4378 -1.0397 -0.4618
  431MOL0     C56785   7.624  11.293   6.812  0.0809  0.1388 -0.3851
  431MOL0     C56786   7.577  11.180   6.873 -1.1102  0.3457 -0.3394
  431MOL0     C56787   7.628  11.142   7.005  0.0976 -0.1211  0.0218
  431MOL0     C56788   7.719  11.230   7.074 -0.9831 -0.6729 -0.3397
  431MOL0     C56789   7.774  11.177   7.199  0.2984 -0.4350  0.2472
  431MOL0     O56790   7.701  11.078   7.254  0.3177  0.0024 -0.2178
  431MOL0     C56791   7.755  11.019   7.365 -0.0102  0.7325 -1.0868
  431MOL0     C56792   7.791  10.881   7.352  0.2756 -0.4409  0.8523
  431MOL0     C56793   7.838  10.806   7.458 -0.0183  0.1722 -0.0482
  431MOL0     C56794   7.857  10.860   7.582  1.1514 -0.2640  0.7266
  431MOL0     O56795   7.897  10.792   7.690  0.5119  0.3904  0.1063
  431MOL0     C56796   7.967  10.666   7.682  0.2358  0.5288  1.0075
  431MOL0     C56797   8.005  10.636   7.819  0.1283  0.2361  0.0507
  431MOL0     C56798   8.105  10.511   7.810 -0.4459 -0.7903  0.3189
  431MOL0     C56799   8.153  10.477   7.959  0.1087  0.0928  0.0924
  431MOL0     C56800   8.282  10.404   7.955 -0.2491 -0.7547 -0.5544
  431MOL0     C56801   8.378  10.415   8.078  0.1275  0.4412  0.0987
  431MOL0     C56802   8.453  10.292   8.111 -0.1433  0.3431 -0.5938
  431MOL0     C56803   8.514  10.308   8.247 -0.2553  0.0179  0.6583
  431MOL0    Cl56804   8.625  10.165   8.285  0.2105  0.1069  0.5528
  431MOL0     C56805   7.824  10.998   7.602  0.5837  0.0316 -1.2211
  431MOL0     C56806   7.773  11.077   7.494 -0.6489  0.5613 -0.5552
  431MOL0     O56807   7.883  11.217   7.237 -0.0872 -0.3096  0.2034
  431MOL0     C56808   7.774  11.340   7.006  1.0216 -0.2169 -0.3211
  431MOL0     C56809   7.717  11.374   6.879 -0.5904  0.2199 -0.3626
  431MOL0     N56810   7.858  10.806   6.282  0.1739 -0.7026  0.5003
  431MOL0     N56811   7.849  10.748   6.165  0.1179  0.2525  0.6977
  431MOL0     C56812   7.510  10.431   4.939  0.1816  0.7448 -0.3201
  431MOL0     C56813   7.454  10.318   4.874 -0.6779 -0.7807  0.3365
  431MOL0     C56814   7.251  10.026   4.679 -1.0195  0.0047  0.3369
  431MOL0     C56815   7.212  10.054   4.546 -0.1096 -0.1857 -0.7445
  431MOL0     C56816   7.230   9.960   4.443  0.3226  0.0342 -1.1665
  431MOL0     C56817   7.280   9.829   4.475  0.6166 -1.0674 -0.7907
  431MOL0     O56818   7.306   9.729   4.384  0.4413 -0.1209  0.6173
  431MOL0     C56819   7.216   9.713   4.270 -0.7217  0.2635 -0.2740
  431MOL0     C56820   7.175   9.564   4.240  1.1523  0.8498 -0.1506
  431MOL0     C56821   7.095   9.492   4.351  0.3946  0.8476  0.7163
  431MOL0     C56822   7.043   9.360   4.310 -0.5039  0.1872 -0.4983
  431MOL0     C56823   7.011   9.264   4.420 -0.5704 -0.4910  0.1497
  431MOL0     C56824   6.990   9.195   4.517 -0.6695  0.2609 -0.8866
  431MOL0     C56825   7.319   9.798   4.605  0.4419 -0.4735 -0.3799
  431MOL0     C56826   7.314   9.898   4.706  0.3560 -0.5149 -0.0112
  431MOL0     H56827   7.355  10.125   5.122  1.8568 -0.4783  1.8543
  431MOL0     H56828   7.424  10.346   5.254  2.0202 -1.9763  1.1582
  431MOL0     H56829   7.571  10.476   5.330  0.0188 -2.4503 -2.8817
  431MOL0     H56830   7.441  10.594   5.308  0.0926  1.8563  1.0454
  431MOL0     H56831   7.609  10.763   5.240 -2.0571  1.9795  0.4854
  431MOL0     H56832   7.732  10.662   5.324  0.9752  2.6111 -2.7147
  431MOL0     H56833   7.620  10.693   5.538  0.0193  1.8186 -0.0910
  431MOL0     H56834   7.483  10.779   5.457 -0.9696  0.0610 -1.8853
  431MOL0     H56835   7.756  10.887   5.433 -1.7271 -2.6330 -1.1548
  431MOL0     H56836   7.605  10.963   5.404  0.1010  1.3122 -0.2484
  431MOL0     H56837   7.544  10.919   5.661  0.7526  1.9622  2.2860
  431MOL0     H56838   7.651  11.053   5.619 -0.0410 -0.3091  2.7037
  431MOL0     H56839   7.839  10.932   5.654 -0.3996  1.2831  1.2187
  431MOL0     H56840   7.763  10.780   5.693 -1.3559  0.7501 -1.2707
  431MOL0     H56841   7.757  11.019   5.886 -3.2656 -0.2708  1.0485
  431MOL0     H56842   7.631  10.904   5.879 -0.7806 -2.2191 -2.9363
  431MOL0     H56843   7.937  10.846   5.889 -0.2770 -1.2870  0.9999
  431MOL0     H56844   7.809  10.726   5.915 -0.3897 -0.7868  0.6129
  431MOL0     H56845   7.833  11.065   6.087  4.9105  0.0657 -0.2139
  431MOL0     H56846   7.889  11.135   6.352 -0.5069 -0.7286 -2.1473
  431MOL0     H56847   7.836  11.013   6.470  4.2657  0.4970  0.0104
  431MOL0     H56848   7.608  11.028   6.379 -0.0662 -0.1048  1.0431
  431MOL0     H56849   7.657  11.141   6.249 -0.2946 -2.3699 -0.4637
  431MOL0     H56850   7.730  11.294   6.425 -1.0493  1.0313 -1.6301
  431MOL0     H56851   7.565  11.277   6.425  0.7054  1.6022  1.1077
  431MOL0     H56852   7.728  11.139   6.636  0.4459 -1.0627  0.4511
  431MOL0     H56853   7.554  11.108   6.590 -1.3255  2.2218  0.3645
  431MOL0     H56854   7.510  11.104   6.836 -1.6534 -0.6533  2.4155
  431MOL0     H56855   7.583  11.054   7.049 -0.6038 -0.1769 -0.7819
  431MOL0     H56856   7.777  10.834   7.255 -1.5228 -1.8953  1.7508
  431MOL0     H56857   7.865  10.704   7.432  2.0720 -0.0856  2.6854
  431MOL0     H56858   8.054  10.671   7.615 -2.3402  3.7890 -2.5341
  431MOL0     H56859   7.910  10.588   7.631 -0.6469  0.6839  1.7249
  431MOL0     H56860   7.913  10.600   7.866  0.6571 -2.1321 -0.5662
  431MOL0     H56861   8.052  10.723   7.866 -0.3634  3.9955 -5.5053
  431MOL0     H56862   8.191  10.529   7.744 -0.8696 -0.9076 -0.2754
  431MOL0     H56863   8.045  10.430   7.767  0.6824 -2.0376  1.0110
  431MOL0     H56864   8.165  10.558   8.032 -2.0902 -0.7887  1.5523
  431MOL0     H56865   8.081  10.406   8.002 -4.0312  4.0440  0.5822
  431MOL0     H56866   8.334  10.443   7.868 -0.2023 -1.2228 -0.7428
  431MOL0     H56867   8.245  10.304   7.929 -2.5044 -0.1735  0.2284
  431MOL0     H56868   8.314  10.436   8.164 -1.6040 -1.0159 -0.7658
  431MOL0     H56869   8.451  10.495   8.059  2.5707 -1.8097 -0.5388
  431MOL0     H56870   8.391  10.202   8.125 -0.7036  0.6748 -0.8898
  431MOL0     H56871   8.534  10.262   8.045  1.5558  2.8340  0.2079
  431MOL0     H56872   8.436  10.334   8.320 -2.1307  2.7009 -2.0472
  431MOL0     H56873   8.587  10.390   8.252 -0.4428  0.2852 -0.6302
  431MOL0     H56874   7.846  11.033   7.703  2.1776 -1.4250 -1.0282
  431MOL0     H56875   7.766  11.182   7.520  0.3566 -0.0154  2.3675
  431MOL0     H56876   7.849  11.407   7.047  1.4562  0.5614 -2.2561
  431MOL0     H56877   7.762  11.453   6.820 -0.2157 -1.6010 -2.6716
  431MOL0     H56878   7.556  10.512   4.882 -2.1417  0.5746 -2.6340
  431MOL0     H56879   7.461  10.323   4.766  1.4476 -0.2754  0.4635
  431MOL0     H56880   7.186  10.158   4.529 -2.1402 -0.4519  0.4418
  431MOL0     H56881   7.203   9.991   4.343  0.2566  3.0945 -0.3062
  431MOL0     H56882   7.252   9.758   4.177  3.3792  0.7513  1.3343
  431MOL0     H56883   7.129   9.769   4.305  0.1179  0.5927  1.3917
  431MOL0     H56884   7.100   9.577   4.162  0.2666 -0.1485  0.5010
  431MOL0     H56885   7.263   9.501   4.227  1.2962  0.7242  1.2667
  431MOL0     H56886   7.004   9.552   4.367  0.1519  0.1830  1.9925
  431MOL0     H56887   7.164   9.482   4.435 -0.4440  0.1840  1.3412
  431MOL0     H56888   6.948   9.376   4.257 -0.9559  1.8232  0.7106
  431MOL0     H56889   7.110   9.307   4.242 -1.4303  1.7506 -2.7694
  431MOL0     H56890   6.960   9.151   4.609 -1.4959  4.4707  1.1235
  431MOL0     H56891   7.351   9.694   4.612  3.3744  0.3513 -0.1039
  431MOL0     H56892   7.362   9.864   4.797 -1.4483  0.7054  1.4478
  432MOL0     O56893   4.073   4.718   6.390  0.0810  0.2262 -0.8617
  432MOL0     C56894   4.035   4.664   6.287  0.1852  0.5673  0.3248
  432MOL0     O56895   3.999   4.724   6.174  0.2725 -0.0077 -0.7760
  432MOL0     C56896   3.995   4.861   6.183  1.2829  0.8948 -0.3902
  432MOL0     C56897   4.100   4.948   6.174 -0.4713  0.1451 -0.0916
  432MOL0     C56898   4.075   5.087   6.168 -0.1393  1.2331  0.2170
  432MOL0     C56899   3.954   5.146   6.192 -0.4196  0.2346 -0.2240
  432MOL0     O56900   3.945   5.278   6.217  0.1229  0.0124 -0.2243
  432MOL0     C56901   3.808   5.334   6.231 -0.1846  0.2739  0.6450
  432MOL0     C56902   3.804   5.486   6.207 -0.0472  1.0812  0.2648
  432MOL0     C56903   3.895   5.548   6.098 -0.0514 -1.0674 -0.3910
  432MOL0     C56904   3.848   5.507   5.960  0.7594  0.3996  0.0721
  432MOL0     C56905   3.961   5.534   5.853 -0.0077  0.2889 -0.1122
  432MOL0     C56906   4.014   5.678   5.844  0.4788  0.1613 -0.4673
  432MOL0     C56907   3.915   5.783   5.791  1.0237  0.7001  0.3961
  432MOL0     C56908   3.975   5.921   5.759  0.8899 -0.3711 -0.4140
  432MOL0     N56909   3.880   6.035   5.757  0.8443 -0.3100 -0.0591
  432MOL0     C56910   3.792   6.065   5.855 -1.1502 -0.0708  0.2107
  432MOL0     C56911   3.743   6.182   5.812  0.0726 -0.0082 -0.1457
  432MOL0     C56912   3.653   6.273   5.886 -0.0732 -0.0055 -0.5021
  432MOL0     C56913   3.535   6.203   5.951  1.0753  0.3879 -1.1640
  432MOL0     C56914   3.418   6.165   5.852 -0.3484  0.6588  0.0578
  432MOL0     C56915   3.322   6.286   5.835 -0.0058 -0.2464  0.2197
  432MOL0     O56916   3.245   6.300   5.952  0.3662  0.3030 -0.2919
  432MOL0     C56917   3.126   6.374   5.934 -0.6890  0.3228 -1.0949
  432MOL0     C56918   3.117   6.482   5.849 -0.1845  0.0521  0.5003
  432MOL0     C56919   2.995   6.550   5.823 -0.0424 -0.4363 -0.9465
  432MOL0     C56920   2.884   6.507   5.907  0.2090  0.1283  0.5914
  432MOL0     C56921   2.762   6.592   5.895 -0.0517 -0.5268  0.1754
  432MOL0     O56922   2.743   6.659   5.776  0.5905  0.8542 -0.2707
  432MOL0     C56923   2.629   6.740   5.747  0.6100 -0.6228 -0.2307
  432MOL0     C56924   2.504   6.690   5.772 -0.1310 -0.5393 -0.2236
  432MOL0     C56925   2.386   6.761   5.734 -0.9634 -0.9796  0.7470
  432MOL0     C56926   2.396   6.881   5.663  0.0879 -0.0187 -0.6600
  432MOL0     O56927   2.288   6.950   5.635  0.7719  0.5806 -0.0147
  432MOL0     C56928   2.168   6.885   5.578  0.1940 -0.2151 -0.3181
  432MOL0     C56929   2.189   6.884   5.423 -0.6651 -0.2689 -1.1059
  432MOL0     C56930   2.265   6.765   5.367  0.7281 -0.3028  0.7824
  432MOL0     C56931   2.263   6.749   5.205 -0.1922  0.6052 -1.2396
  432MOL0     C56932   2.341   6.616   5.175 -0.4816  0.0424 -0.7948
  432MOL0     C56933   2.342   6.566   5.023  0.1969  1.1947 -1.1190
  432MOL0     C56934   2.400   6.664   4.935 -0.6305 -0.3272 -0.1366
  432MOL0     C56935   2.353   6.667   4.787  0.1333 -0.2093  0.3705
  432MOL0    Cl56936   2.438   6.807   4.701 -0.0399 -0.0008  0.3309
  432MOL0     C56937   2.522   6.938   5.637 -0.0044  0.2290  0.8687
  432MOL0     C56938   2.635   6.864   5.670  0.7231  0.0757 -0.9378
  432MOL0     O56939   2.692   6.585   5.992  0.2733  0.0174 -0.1074
  432MOL0     C56940   2.907   6.404   6.003 -0.0780 -0.3678  0.3472
  432MOL0     C56941   3.016   6.333   6.009  0.4407 -0.3418 -0.4413
  432MOL0     N56942   3.792   6.224   5.688 -0.2518  0.1543 -0.6635
  432MOL0     N56943   3.888   6.133   5.666  0.5282 -0.1664 -0.5385
  432MOL0     C56944   3.849   5.060   6.210 -0.2887  1.0700 -0.4447
  432MOL0     C56945   3.873   4.924   6.201  0.3214  0.0683  0.3775
  432MOL0     C56946   4.022   4.519   6.278 -0.1076  1.0318 -0.3971
  432MOL0     C56947   4.004   4.450   6.156 -1.1085  0.6623 -0.1801
  432MOL0     C56948   4.003   4.301   6.154 -0.3514 -0.4992  0.3365
  432MOL0     C56949   4.025   4.232   6.269 -0.2894  0.9217 -0.4817
  432MOL0     O56950   4.048   4.092   6.283 -0.7303  0.5318  0.0963
  432MOL0     C56951   4.044   4.007   6.168 -0.5748  0.7985  0.9276
  432MOL0     C56952   3.912   3.970   6.116  0.2812 -0.2607 -0.8855
  432MOL0     C56953   3.831   3.883   6.213  0.5832  0.7918 -0.1685
  432MOL0     C56954   3.679   3.870   6.168 -1.0073  0.1722  0.5909
  432MOL0     C56955   3.594   3.881   6.282  0.0531 -0.1921 -0.5464
  432MOL0     C56956   3.535   3.897   6.389  0.0162  0.4837 -0.7750
  432MOL0     C56957   4.035   4.302   6.391  0.5009 -0.5076 -0.8988
  432MOL0     C56958   4.036   4.441   6.395  0.2314  0.1285 -0.0031
  432MOL0     H56959   4.197   4.905   6.152 -1.5652 -1.8210 -1.3685
  432MOL0     H56960   4.163   5.144   6.140 -0.6567  2.8195  1.6393
  432MOL0     H56961   3.773   5.303   6.329 -1.8424 -2.9785 -0.8257
  432MOL0     H56962   3.745   5.291   6.152  1.8865  0.4458 -1.2055
  432MOL0     H56963   3.825   5.529   6.305  0.2486  0.3724  0.5167
  432MOL0     H56964   3.702   5.519   6.186 -0.3723 -0.2036 -0.2485
  432MOL0     H56965   4.001   5.525   6.112  0.0390  0.8521  3.1104
  432MOL0     H56966   3.897   5.657   6.094 -1.0814 -1.0686 -2.9827
  432MOL0     H56967   3.829   5.402   5.981  0.8154  0.3148 -0.2921
  432MOL0     H56968   3.754   5.558   5.938 -0.9757 -2.0029  1.5068
  432MOL0     H56969   3.929   5.506   5.752  1.9800  2.8257 -1.5761
  432MOL0     H56970   4.044   5.466   5.874  1.3285  2.1985  1.1026
  432MOL0     H56971   4.099   5.682   5.774 -1.4258  0.5952 -2.8806
  432MOL0     H56972   4.045   5.710   5.944  2.5458  0.7332 -1.2420
  432MOL0     H56973   3.868   5.743   5.701  0.4845 -2.7726  2.0402
  432MOL0     H56974   3.827   5.772   5.855 -0.2234  0.8371 -1.2292
  432MOL0     H56975   4.020   5.909   5.660 -1.1539 -2.1267 -1.2231
  432MOL0     H56976   4.054   5.949   5.828 -0.5335  1.2375  0.6530
  432MOL0     H56977   3.769   6.011   5.946  2.3319 -1.2276  0.5196
  432MOL0     H56978   3.621   6.341   5.807  2.1446  1.5024 -0.2128
  432MOL0     H56979   3.704   6.338   5.957 -1.6983  0.4345  0.3139
  432MOL0     H56980   3.497   6.257   6.038 -3.1825  0.0045 -2.5849
  432MOL0     H56981   3.562   6.105   5.991 -1.0400 -0.2007 -1.1053
  432MOL0     H56982   3.466   6.141   5.757  1.2461  0.0868  0.9678
  432MOL0     H56983   3.366   6.080   5.898 -1.5371  1.6383  0.5817
  432MOL0     H56984   3.249   6.281   5.754 -0.0563  2.2561  0.0356
  432MOL0     H56985   3.384   6.375   5.819 -0.6964  0.4554  1.3115
  432MOL0     H56986   3.202   6.521   5.794 -0.5239  0.1706  0.0545
  432MOL0     H56987   2.991   6.632   5.752  0.6935 -0.6077 -1.1989
  432MOL0     H56988   2.483   6.608   5.840 -4.7468  1.3270  0.9984
  432MOL0     H56989   2.289   6.722   5.763 -0.7842 -0.0678  2.7043
  432MOL0     H56990   2.081   6.951   5.591  0.3903 -0.0707  0.3061
  432MOL0     H56991   2.141   6.789   5.624 -0.4002 -0.6346 -1.4939
  432MOL0     H56992   2.238   6.980   5.404 -0.2435 -0.0571  0.8032
  432MOL0     H56993   2.089   6.890   5.379 -1.6382 -1.3097  0.8349
  432MOL0     H56994   2.206   6.684   5.411  1.2634  0.5700  3.2944
  432MOL0     H56995   2.364   6.758   5.413 -0.2034  0.0517  3.0021
  432MOL0     H56996   2.165   6.734   5.158 -1.2306  0.3610  0.8851
  432MOL0     H56997   2.309   6.830   5.148  1.1817  0.9787  0.3455
  432MOL0     H56998   2.304   6.534   5.238 -1.7366 -1.6586 -3.5153
  432MOL0     H56999   2.444   6.627   5.208 -0.2259 -0.6837 -1.3217
  432MOL0     H57000   2.243   6.540   4.986 -0.7199  3.1198 -0.2065
  432MOL0     H57001   2.395   6.471   5.017 -0.3475  0.8085 -0.0766
  432MOL0     H57002   2.389   6.758   4.991 -2.7194  0.7756 -2.2351
  432MOL0     H57003   2.504   6.636   4.919 -0.6407  0.3660 -1.5895
  432MOL0     H57004   2.244   6.676   4.792  0.0892 -1.2263  1.9348
  432MOL0     H57005   2.365   6.569   4.739  0.2603  0.7494 -1.6822
  432MOL0     H57006   2.536   7.035   5.589  2.5299 -0.1137  0.8013
  432MOL0     H57007   2.729   6.898   5.628  0.7247  1.2666 -0.0237
  432MOL0     H57008   2.811   6.382   6.049 -0.9156 -0.5966 -1.4132
  432MOL0     H57009   3.023   6.238   6.061 -0.2107  0.4085  1.0883
  432MOL0     H57010   3.756   5.090   6.257 -0.0769 -1.5631  1.9475
  432MOL0     H57011   3.789   4.858   6.216 -1.4080  1.8799 -0.7709
  432MOL0     H57012   3.980   4.510   6.069 -1.0595  1.0887  0.0956
  432MOL0     H57013   3.994   4.262   6.053  3.2816  0.9340 -0.6742
  432MOL0     H57014   4.109   3.919   6.173 -1.5476 -0.1531 -1.6304
  432MOL0     H57015   4.099   4.056   6.087  0.4257 -0.1470  1.0023
  432MOL0     H57016   3.855   4.061   6.098  1.1937  0.2795 -1.1272
  432MOL0     H57017   3.901   3.913   6.023  0.5880 -0.2871 -0.9069
  432MOL0     H57018   3.841   3.946   6.301 -0.7559 -0.3103  0.8104
  432MOL0     H57019   3.877   3.785   6.226  0.4305  0.6040 -0.9808
  432MOL0     H57020   3.649   3.946   6.094 -0.2951 -0.7620 -0.6970
  432MOL0     H57021   3.665   3.773   6.121  3.3880 -0.2689 -0.2156
  432MOL0     H57022   3.494   3.922   6.484 -0.7130 -1.8757 -0.4018
  432MOL0     H57023   4.054   4.247   6.482  0.9851  1.1554  0.0483
  432MOL0     H57024   4.034   4.480   6.496 -1.9605  3.1515 -1.0620
  433MOL0     O57025   7.292   2.244   4.662  0.0511 -0.5478  0.0458
  433MOL0     C57026   7.400   2.285   4.661 -0.6682  0.5497 -0.4619
  433MOL0     O57027   7.474   2.321   4.562 -0.0348 -0.9694  0.2301
  433MOL0     C57028   7.475   2.263   4.431  0.6863  0.2623  0.4731
  433MOL0     C57029   7.389   2.158   4.388 -0.3897  0.5807 -0.9522
  433MOL0     C57030   7.391   2.106   4.255 -0.2722 -0.8086 -0.1664
  433MOL0     C57031   7.491   2.148   4.165 -0.1138 -0.2836  0.7152
  433MOL0     O57032   7.531   2.076   4.053  0.0096 -0.1445  0.1922
  433MOL0     C57033   7.453   1.973   3.991 -0.1817  0.1280  0.4421
  433MOL0     C57034   7.487   1.946   3.841  0.2710  0.6929  0.0136
  433MOL0     C57035   7.467   2.068   3.742 -0.7171  1.1737 -1.1811
  433MOL0     C57036   7.502   2.058   3.595  0.2692  0.0991 -0.8412
  433MOL0     C57037   7.399   1.982   3.521 -0.1037 -0.6288 -0.4508
  433MOL0     C57038   7.405   2.002   3.371 -0.0512 -0.3867  0.6147
  433MOL0     C57039   7.554   2.002   3.312  1.1115  0.4736 -0.1916
  433MOL0     C57040   7.579   2.049   3.173  0.5686  0.3147  0.0524
  433MOL0     N57041   7.483   1.999   3.075  0.0266  0.2174  0.2409
  433MOL0     C57042   7.361   2.051   3.036  0.7842 -0.3332 -0.5904
  433MOL0     C57043   7.312   1.968   2.942 -0.5267 -0.3404  0.4287
  433MOL0     C57044   7.173   1.991   2.887  0.2910  0.6303  0.6254
  433MOL0     C57045   7.163   2.042   2.749  0.5911 -0.4240  0.4569
  433MOL0     C57046   7.190   1.944   2.639  0.1216  0.5244  0.0307
  433MOL0     C57047   7.144   1.997   2.495  0.0431  0.8504 -0.4430
  433MOL0     O57048   7.138   1.878   2.407 -0.4552 -0.1252  0.1303
  433MOL0     C57049   7.252   1.818   2.362 -0.4715  1.0732 -0.4552
  433MOL0     C57050   7.391   1.861   2.355  1.0691  0.2258  0.5361
  433MOL0     C57051   7.486   1.772   2.316 -0.2979 -0.4405  0.3869
  433MOL0     C57052   7.454   1.640   2.272  0.7873  0.5580 -0.1851
  433MOL0     C57053   7.564   1.558   2.220 -0.5796  0.2643 -1.1469
  433MOL0     O57054   7.545   1.419   2.207  0.2168 -0.7119  0.0733
  433MOL0     C57055   7.647   1.344   2.152  0.1095  0.0055 -0.2478
  433MOL0     C57056   7.682   1.233   2.222 -0.1200 -0.0774 -0.5306
  433MOL0     C57057   7.792   1.152   2.188 -0.4810 -0.5690 -0.1783
  433MOL0     C57058   7.872   1.187   2.081  0.2307  0.5438 -0.0516
  433MOL0     O57059   7.967   1.111   2.037 -0.4605 -0.6218  0.1207
  433MOL0     C57060   7.937   0.975   2.033 -0.6061  0.6982 -0.5284
  433MOL0     C57061   7.969   0.910   1.898 -0.5096  0.0351 -0.6981
  433MOL0     C57062   7.949   0.753   1.911 -0.2121 -0.0389 -0.1537
  433MOL0     C57063   8.022   0.675   1.799  0.1301  0.0856 -0.7657
  433MOL0     C57064   7.971   0.531   1.796  0.4211  0.0481  0.4241
  433MOL0     C57065   7.865   0.529   1.683  0.9330 -0.8544 -0.9099
  433MOL0     C57066   7.820   0.388   1.655  0.7870 -0.2683  0.1497
  433MOL0     C57067   7.697   0.382   1.566  0.8202 -1.1239 -0.5785
  433MOL0    Cl57068   7.577   0.279   1.643  0.6427 -0.5760 -0.2462
  433MOL0     C57069   7.833   1.301   2.006 -0.5896 -1.0311  0.5218
  433MOL0     C57070   7.724   1.379   2.041  0.5130  0.2070  1.0024
  433MOL0     O57071   7.673   1.613   2.201 -0.0530 -0.0402 -0.9260
  433MOL0     C57072   7.319   1.598   2.273  0.7371 -0.1083 -0.4958
  433MOL0     C57073   7.223   1.691   2.310 -0.0965 -0.2679 -0.4517
  433MOL0     N57074   7.402   1.871   2.917 -0.2565  0.2752 -0.7102
  433MOL0     N57075   7.502   1.887   2.996 -0.3514  0.5098 -0.8151
  433MOL0     C57076   7.590   2.232   4.211 -0.9280 -1.1177  0.1332
  433MOL0     C57077   7.578   2.301   4.338  0.2010 -0.4715  0.0023
  433MOL0     C57078   7.469   2.292   4.793 -0.6756 -0.3695  0.3192
  433MOL0     C57079   7.399   2.287   4.913 -1.5021 -0.6233 -1.9268
  433MOL0     C57080   7.475   2.308   5.036  1.0852  0.1657 -0.0392
  433MOL0     C57081   7.612   2.318   5.039 -0.4436 -0.2255  0.4510
  433MOL0     O57082   7.673   2.339   5.164  0.4709  0.4204  0.6470
  433MOL0     C57083   7.800   2.395   5.183 -0.2899  0.0295  0.5820
  433MOL0     C57084   7.848   2.360   5.323 -0.5838 -0.0675 -0.8970
  433MOL0     C57085   7.783   2.437   5.437 -0.0024 -0.1639 -0.0056
  433MOL0     C57086   7.819   2.389   5.570  0.2426  0.1346  0.7392
  433MOL0     C57087   7.947   2.425   5.626 -0.3064 -0.1340  0.3335
  433MOL0     C57088   8.068   2.430   5.648 -0.3626  0.6505  0.2187
  433MOL0     C57089   7.675   2.318   4.917  0.3296 -0.2411 -0.8923
  433MOL0     C57090   7.608   2.311   4.802  0.2174  0.0296 -0.0399
  433MOL0     H57091   7.307   2.121   4.449  1.8631 -2.2717  0.6087
  433MOL0     H57092   7.324   2.021   4.247  0.8425 -2.0325  2.5603
  433MOL0     H57093   7.344   1.978   3.984 -0.0860  2.3747 -0.3831
  433MOL0     H57094   7.483   1.883   4.045  2.4955  1.1580  0.7894
  433MOL0     H57095   7.420   1.865   3.809  0.0190  0.7224  0.4538
  433MOL0     H57096   7.590   1.910   3.833  0.2943  0.9856 -1.0625
  433MOL0     H57097   7.533   2.146   3.781  1.3311 -0.6402 -0.8342
  433MOL0     H57098   7.368   2.113   3.758 -1.6158 -0.6399 -1.3779
  433MOL0     H57099   7.519   2.157   3.552 -0.5223 -0.2760 -2.0765
  433MOL0     H57100   7.596   2.002   3.586  1.5453  1.7027  1.4742
  433MOL0     H57101   7.297   2.005   3.553 -0.6399 -2.5850 -0.5883
  433MOL0     H57102   7.419   1.876   3.544  1.9528  0.0911  1.4262
  433MOL0     H57103   7.336   2.082   3.343  0.2022  1.4535  4.5945
  433MOL0     H57104   7.350   1.916   3.331 -0.0627 -1.6666  3.1431
  433MOL0     H57105   7.610   2.060   3.387  1.5289 -0.4141  0.2056
  433MOL0     H57106   7.612   1.909   3.318 -1.4153 -1.1477  0.3041
  433MOL0     H57107   7.681   2.028   3.140  0.3320 -2.1783  0.6851
  433MOL0     H57108   7.571   2.157   3.155  0.8638 -0.0596 -2.8625
  433MOL0     H57109   7.299   2.127   3.085  2.7729 -0.0204  1.6019
  433MOL0     H57110   7.115   2.058   2.951 -0.3188  0.7993 -0.0915
  433MOL0     H57111   7.126   1.893   2.898  0.2036  0.7703  1.5487
  433MOL0     H57112   7.242   2.117   2.735  0.9100 -0.1511  3.1912
  433MOL0     H57113   7.070   2.098   2.748  0.1203 -0.8559  4.1978
  433MOL0     H57114   7.297   1.925   2.631  0.3724  2.2830 -1.2610
  433MOL0     H57115   7.127   1.856   2.656 -0.6284  0.5371 -2.3184
  433MOL0     H57116   7.208   2.066   2.441  1.6598 -0.7965 -0.7231
  433MOL0     H57117   7.044   2.042   2.498  0.7240  2.3741  0.4515
  433MOL0     H57118   7.418   1.961   2.389  0.6910 -0.4414  3.0124
  433MOL0     H57119   7.590   1.801   2.325 -0.1892 -0.7747  0.2138
  433MOL0     H57120   7.620   1.202   2.305  1.2075  0.9851  0.9213
  433MOL0     H57121   7.841   1.076   2.249  2.0568  2.0833  1.3104
  433MOL0     H57122   7.839   0.940   2.065  0.0447  0.6921  1.6716
  433MOL0     H57123   8.009   0.924   2.099 -1.6571  3.5215  3.1934
  433MOL0     H57124   8.069   0.924   1.857 -0.6229 -0.2673 -1.0850
  433MOL0     H57125   7.901   0.959   1.827 -0.8024 -1.8139 -1.7595
  433MOL0     H57126   7.844   0.725   1.912 -0.3182  0.3119  1.5735
  433MOL0     H57127   7.974   0.728   2.015  2.1715  3.2581  0.2388
  433MOL0     H57128   8.000   0.727   1.705 -0.8754  2.2179  0.5602
  433MOL0     H57129   8.129   0.685   1.818  0.4920 -3.0730 -0.6541
  433MOL0     H57130   7.943   0.498   1.896  1.8511 -1.7407  0.2743
  433MOL0     H57131   8.052   0.476   1.747 -0.5232  0.0598 -1.2441
  433MOL0     H57132   7.902   0.571   1.589  0.0462 -0.8854 -1.2833
  433MOL0     H57133   7.777   0.584   1.717  2.4139  1.4686 -0.6223
  433MOL0     H57134   7.897   0.322   1.613  1.9717 -0.6986  2.8077
  433MOL0     H57135   7.804   0.334   1.749  0.0688 -1.1517 -0.4593
  433MOL0     H57136   7.718   0.342   1.467 -0.9019 -3.2621 -0.1580
  433MOL0     H57137   7.662   0.486   1.572  1.1107 -1.0863  0.9739
  433MOL0     H57138   7.900   1.323   1.923 -2.2168  2.8300  0.0169
  433MOL0     H57139   7.704   1.471   1.987  0.9032  0.5300  1.4084
  433MOL0     H57140   7.288   1.500   2.237  1.4814  0.5490 -3.1580
  433MOL0     H57141   7.115   1.677   2.313 -0.1168 -0.1743 -0.6998
  433MOL0     H57142   7.678   2.253   4.151 -2.5658  1.7587 -1.5104
  433MOL0     H57143   7.639   2.385   4.371 -1.4219  0.3239  1.1348
  433MOL0     H57144   7.296   2.255   4.917 -0.9566 -2.4876 -1.7497
  433MOL0     H57145   7.420   2.311   5.129  0.2088 -1.3664 -0.4723
  433MOL0     H57146   7.787   2.501   5.162  1.8259  0.0376 -0.9979
  433MOL0     H57147   7.870   2.356   5.109  2.8456  0.3781  3.1520
  433MOL0     H57148   7.817   2.256   5.337  3.7063 -1.4465 -0.1593
  433MOL0     H57149   7.957   2.366   5.332 -0.3676 -2.9526 -0.7513
  433MOL0     H57150   7.677   2.410   5.429  0.0275 -0.7519  1.2326
  433MOL0     H57151   7.795   2.545   5.431 -2.1420  0.2210  1.4267
  433MOL0     H57152   7.739   2.432   5.632  1.2356  0.5245  1.7861
  433MOL0     H57153   7.810   2.280   5.570  1.8512 -0.0707 -1.6988
  433MOL0     H57154   8.174   2.441   5.635  0.5055 -0.0333  5.0277
  433MOL0     H57155   7.780   2.345   4.912  0.2873  0.3881  1.0543
  433MOL0     H57156   7.661   2.313   4.707 -1.4790 -2.7422 -1.1779
  434MOL0     O57157   2.912   6.216   7.553 -0.7217  0.4309 -0.5732
  434MOL0     C57158   2.906   6.322   7.495 -0.4331  0.6678  0.1281
  434MOL0     O57159   2.994   6.427   7.499  1.5128 -0.4129 -0.0335
  434MOL0     C57160   3.075   6.427   7.608  0.9087 -0.0128  0.6182
  434MOL0     C57161   3.167   6.323   7.632 -0.5209 -0.6906  0.2564
  434MOL0     C57162   3.238   6.325   7.753  0.8410  0.1859  0.9101
  434MOL0     C57163   3.220   6.426   7.850 -0.2741  0.3429  0.1178
  434MOL0     O57164   3.297   6.422   7.960  0.2974  0.3170 -0.5160
  434MOL0     C57165   3.430   6.361   7.956  0.9435 -0.5837 -0.1837
  434MOL0     C57166   3.492   6.409   8.091  0.2733  0.7428 -0.3572
  434MOL0     C57167   3.631   6.371   8.097  0.8016 -0.3244  0.0945
  434MOL0     C57168   3.709   6.410   8.224 -0.4745 -0.2790  0.1240
  434MOL0     C57169   3.810   6.293   8.268 -0.4134 -0.9228  0.4636
  434MOL0     C57170   3.926   6.359   8.353 -0.1488  0.3505 -0.4296
  434MOL0     C57171   3.904   6.397   8.495 -0.1621  0.2082  0.2614
  434MOL0     C57172   3.802   6.311   8.564 -0.8163 -0.5790  0.2254
  434MOL0     N57173   3.807   6.304   8.707 -0.6975  0.2359  0.5956
  434MOL0     C57174   3.862   6.393   8.795 -0.3223 -0.6596  0.5344
  434MOL0     C57175   3.885   6.323   8.906 -1.5778  0.0129 -0.5744
  434MOL0     C57176   3.971   6.371   9.024  0.1775  0.4159  0.4548
  434MOL0     C57177   4.110   6.319   9.040  0.1904 -0.4606  0.0237
  434MOL0     C57178   4.107   6.169   9.088 -0.0514  0.0689 -0.7679
  434MOL0     C57179   4.250   6.106   9.077 -0.3711  0.4507 -0.6128
  434MOL0     O57180   4.229   5.961   9.093 -0.6420 -0.1224  0.2663
  434MOL0     C57181   4.236   5.885   8.982 -1.1367  0.5742  0.2267
  434MOL0     C57182   4.141   5.881   8.879 -0.3713  0.1388  0.7336
  434MOL0     C57183   4.141   5.796   8.767 -1.0995 -0.9399  0.1926
  434MOL0     C57184   4.241   5.694   8.762  0.4657 -0.1137 -0.4560
  434MOL0     C57185   4.235   5.590   8.667 -0.4387  0.2510  0.1519
  434MOL0     O57186   4.111   5.542   8.621 -1.1655  0.4839 -0.0403
  434MOL0     C57187   4.113   5.437   8.534  0.3794 -0.1892 -0.4507
  434MOL0     C57188   4.180   5.447   8.407  0.8201  0.5909 -0.1793
  434MOL0     C57189   4.161   5.361   8.303  0.0034  0.6059  1.0127
  434MOL0     C57190   4.060   5.260   8.306 -0.3868 -0.4388  0.0851
  434MOL0     O57191   4.038   5.161   8.221  0.1114  0.0547  0.0862
  434MOL0     C57192   4.133   5.144   8.113 -0.5491  0.1685  0.9833
  434MOL0     C57193   4.094   5.028   8.023  0.1312 -0.8127 -0.1358
  434MOL0     C57194   4.194   4.999   7.906 -0.1949 -0.0142  0.0046
  434MOL0     C57195   4.126   4.904   7.812  1.1485  0.6143 -0.1765
  434MOL0     C57196   4.197   4.889   7.674 -0.7350  0.8925 -0.3250
  434MOL0     C57197   4.137   4.789   7.578  0.8201  0.3110  0.7921
  434MOL0     C57198   4.263   4.706   7.515  0.3026 -0.0558 -1.2505
  434MOL0     C57199   4.204   4.596   7.433  0.7600  0.1678  0.4940
  434MOL0    Cl57200   4.316   4.460   7.430 -0.3469 -0.0315 -0.1369
  434MOL0     C57201   3.992   5.263   8.433 -0.2485 -0.4177  0.0598
  434MOL0     C57202   4.017   5.341   8.546  0.0459  0.0482  0.0585
  434MOL0     O57203   4.346   5.552   8.623  0.6980  0.2518  0.2732
  434MOL0     C57204   4.335   5.690   8.874 -0.3521 -0.0881 -0.1983
  434MOL0     C57205   4.339   5.786   8.975  0.7804  0.2255  0.3430
  434MOL0     N57206   3.858   6.198   8.883  0.6253  0.1549  0.1779
  434MOL0     N57207   3.800   6.186   8.764  0.6340  0.3075 -0.2566
  434MOL0     C57208   3.123   6.523   7.822 -0.0661 -0.5782  0.2991
  434MOL0     C57209   3.055   6.525   7.696  0.9871  1.3445 -0.0743
  434MOL0     C57210   2.785   6.329   7.406 -0.3056  0.4893 -0.4502
  434MOL0     C57211   2.748   6.460   7.367 -0.0573 -0.5470 -0.5350
  434MOL0     C57212   2.644   6.474   7.282 -0.0739 -0.1197  0.3261
  434MOL0     C57213   2.563   6.363   7.247  0.1609 -1.1969  0.1248
  434MOL0     O57214   2.454   6.409   7.165  0.3952  0.2533 -0.0207
  434MOL0     C57215   2.355   6.308   7.135  0.1669 -0.1336 -0.6536
  434MOL0     C57216   2.404   6.231   7.014 -0.5950  0.4513  0.4066
  434MOL0     C57217   2.291   6.135   6.960 -0.4469 -0.1491 -0.0909
  434MOL0     C57218   2.334   6.050   6.834 -0.0834  0.5929 -0.0632
  434MOL0     C57219   2.370   6.136   6.714 -0.6061  1.0869 -0.2361
  434MOL0     C57220   2.415   6.210   6.627 -0.0698 -0.0088  0.7653
  434MOL0     C57221   2.597   6.237   7.297  0.5575 -0.0178  0.2875
  434MOL0     C57222   2.712   6.217   7.374  0.1637  0.0555  0.0281
  434MOL0     H57223   3.170   6.237   7.566 -0.0220 -0.3865 -0.1294
  434MOL0     H57224   3.299   6.239   7.779  0.7794  0.5718  2.4248
  434MOL0     H57225   3.480   6.396   7.865 -0.8191 -1.6776 -1.6487
  434MOL0     H57226   3.428   6.252   7.948  1.2141 -0.4964 -1.8804
  434MOL0     H57227   3.448   6.363   8.180  2.1230  0.5804  0.5075
  434MOL0     H57228   3.483   6.518   8.088  0.0539  0.8601  2.1630
  434MOL0     H57229   3.682   6.418   8.012  2.6339 -1.3429  0.5651
  434MOL0     H57230   3.639   6.262   8.088 -2.8895 -0.8239  1.3857
  434MOL0     H57231   3.765   6.496   8.187  0.4073  0.3599  2.7333
  434MOL0     H57232   3.646   6.443   8.307 -2.3727 -0.4781 -1.1740
  434MOL0     H57233   3.863   6.246   8.185  1.0895 -1.1230  1.4886
  434MOL0     H57234   3.757   6.209   8.314 -1.9727 -1.0807 -1.5195
  434MOL0     H57235   3.960   6.452   8.306  0.2471  0.8684  0.8412
  434MOL0     H57236   4.011   6.290   8.353  0.1850  0.7343  1.2771
  434MOL0     H57237   3.998   6.388   8.550 -1.2484 -1.7645  1.9718
  434MOL0     H57238   3.880   6.503   8.510  2.6875  0.6367  2.8893
  434MOL0     H57239   3.830   6.213   8.526  3.6252  1.2830 -2.0694
  434MOL0     H57240   3.706   6.339   8.517 -0.3148 -0.1346 -0.5668
  434MOL0     H57241   3.880   6.495   8.762 -1.2024 -1.1498 -1.6012
  434MOL0     H57242   3.913   6.340   9.112  0.1099 -2.5462 -0.5025
  434MOL0     H57243   3.981   6.479   9.014  2.6168  0.1574 -0.7877
  434MOL0     H57244   4.158   6.381   9.117  0.1389 -0.2913 -0.0812
  434MOL0     H57245   4.162   6.327   8.944  0.0683 -0.1350 -0.0151
  434MOL0     H57246   4.098   6.167   9.196  3.9697 -0.3414 -0.2734
  434MOL0     H57247   4.028   6.113   9.038 -0.2597  0.5995 -1.0452
  434MOL0     H57248   4.311   6.144   9.160 -1.1236  1.8453 -0.6730
  434MOL0     H57249   4.290   6.124   8.977  1.5254 -0.7310 -0.1169
  434MOL0     H57250   4.052   5.944   8.882 -1.3480 -1.2050  0.9745
  434MOL0     H57251   4.071   5.808   8.684  1.1662  2.5730 -1.4312
  434MOL0     H57252   4.221   5.544   8.383  0.0476  0.5549 -1.8615
  434MOL0     H57253   4.213   5.369   8.208 -0.1757 -2.6511  0.5337
  434MOL0     H57254   4.231   5.128   8.159 -0.5411 -0.2845  0.8100
  434MOL0     H57255   4.125   5.234   8.051 -2.4362 -0.1584  0.6881
  434MOL0     H57256   3.990   5.043   7.992  0.0831  5.4848  1.7612
  434MOL0     H57257   4.075   4.945   8.091 -2.8589  1.2721  1.8290
  434MOL0     H57258   4.296   4.969   7.932  0.2975  1.1035 -0.5651
  434MOL0     H57259   4.222   5.089   7.850 -0.3056 -1.6138 -2.7688
  434MOL0     H57260   4.100   4.809   7.858  0.5400  0.1260 -1.4694
  434MOL0     H57261   4.034   4.956   7.781  0.3682  0.8650  2.3616
  434MOL0     H57262   4.302   4.872   7.698 -0.1584  1.2559 -2.4227
  434MOL0     H57263   4.208   4.988   7.628  4.5094  0.7808  0.1485
  434MOL0     H57264   4.063   4.822   7.506  0.8931  1.9471  1.4136
  434MOL0     H57265   4.084   4.709   7.629  1.3534 -0.1223  0.6781
  434MOL0     H57266   4.330   4.767   7.453 -0.5272  0.3726 -1.7486
  434MOL0     H57267   4.309   4.662   7.604 -2.1812  2.2727  1.3798
  434MOL0     H57268   4.181   4.642   7.337 -0.7723 -1.0189  0.2507
  434MOL0     H57269   4.107   4.564   7.472  0.2657  0.7631 -0.2266
  434MOL0     H57270   3.912   5.191   8.447  1.0042 -1.9588 -0.5031
  434MOL0     H57271   3.968   5.341   8.643  1.0190  1.6464  0.5822
  434MOL0     H57272   4.422   5.627   8.856 -1.3504 -1.7863  0.7042
  434MOL0     H57273   4.415   5.795   9.052 -1.1548  0.3996  2.3743
  434MOL0     H57274   3.122   6.621   7.869 -0.4774  0.1848 -1.2524
  434MOL0     H57275   2.974   6.590   7.663 -0.8058 -0.2353  1.0032
  434MOL0     H57276   2.806   6.551   7.379 -2.3984  1.0581 -0.7418
  434MOL0     H57277   2.620   6.576   7.253 -0.2300 -0.1014  0.5182
  434MOL0     H57278   2.258   6.351   7.109 -1.4234 -0.5715  3.6462
  434MOL0     H57279   2.349   6.242   7.223  1.1200 -0.7570 -1.0512
  434MOL0     H57280   2.445   6.292   6.933  0.7769 -4.0255 -2.6463
  434MOL0     H57281   2.495   6.174   7.037  1.5230  1.6842 -3.8711
  434MOL0     H57282   2.211   6.207   6.937 -0.4038 -0.2881 -0.6992
  434MOL0     H57283   2.250   6.073   7.040 -2.3429 -0.3724 -1.1693
  434MOL0     H57284   2.433   6.009   6.855  0.3102  0.9050 -1.2581
  434MOL0     H57285   2.265   5.968   6.812 -1.2119  1.4812  0.1214
  434MOL0     H57286   2.461   6.272   6.552  1.2737  2.1540  3.2307
  434MOL0     H57287   2.538   6.153   7.262 -1.5022  2.8476 -4.0244
  434MOL0     H57288   2.755   6.123   7.407  1.8096  1.2669  1.4963
  435MOL0     O57289   9.057   9.757   1.644 -0.3606 -0.2309  0.9631
  435MOL0     C57290   9.086   9.646   1.619 -0.3791 -0.3959  0.8966
  435MOL0     O57291   9.176   9.608   1.522  0.1588  0.5396  0.0533
  435MOL0     C57292   9.205   9.700   1.428 -0.8725 -0.4146 -1.1402
  435MOL0     C57293   9.337   9.731   1.408  0.1267 -0.3271 -0.7128
  435MOL0     C57294   9.362   9.841   1.318  0.8291  0.2681 -0.8563
  435MOL0     C57295   9.264   9.906   1.246 -0.2709 -0.5547 -0.1142
  435MOL0     O57296   9.289  10.013   1.164  0.7559 -0.0707  0.7585
  435MOL0     C57297   9.403  10.092   1.188 -0.7250  0.5889 -0.6234
  435MOL0     C57298   9.385  10.234   1.145 -0.7119 -0.5873  0.1087
  435MOL0     C57299   9.253  10.297   1.206 -0.0102 -0.5041 -0.8535
  435MOL0     C57300   9.254  10.442   1.167 -0.7354 -0.3010  1.1538
  435MOL0     C57301   9.141  10.494   1.241  0.6124 -0.2895 -0.0221
  435MOL0     C57302   9.144  10.651   1.226 -0.9141  0.2646 -0.1845
  435MOL0     C57303   9.057  10.727   1.324  0.1819 -0.9259  0.4306
  435MOL0     C57304   8.915  10.739   1.260 -0.2093 -0.2918 -0.2172
  435MOL0     N57305   8.820  10.817   1.353 -0.2352 -0.8303  0.3016
  435MOL0     C57306   8.798  10.819   1.489  0.3317  0.1812 -0.0388
  435MOL0     C57307   8.680  10.891   1.506 -0.0621 -0.0240  0.4953
  435MOL0     C57308   8.610  10.931   1.635  0.3252  0.2337 -0.2464
  435MOL0     C57309   8.493  10.831   1.657  0.0193  0.1368  0.6958
  435MOL0     C57310   8.369  10.904   1.609  0.7190 -0.1603 -0.2478
  435MOL0     C57311   8.247  10.804   1.600  0.5076  0.7611  0.7207
  435MOL0     O57312   8.215  10.746   1.724  0.9222 -0.5475  0.9090
  435MOL0     C57313   8.172  10.821   1.829  1.0129 -0.2136 -0.7889
  435MOL0     C57314   8.090  10.942   1.816  0.4463 -0.1145  0.1165
  435MOL0     C57315   8.042  11.010   1.929 -0.3401 -0.6361 -0.2576
  435MOL0     C57316   8.090  10.963   2.061 -0.1623  0.1121  0.3459
  435MOL0     C57317   8.062  11.045   2.179 -0.0490 -0.2413 -0.2262
  435MOL0     O57318   8.074  10.981   2.301  0.0621 -0.3393  0.0131
  435MOL0     C57319   8.096  11.063   2.409 -0.0248  0.6821 -0.0137
  435MOL0     C57320   8.100  11.000   2.540 -0.2512  0.7030 -0.0706
  435MOL0     C57321   8.116  11.074   2.660  0.3763  0.1189 -0.7226
  435MOL0     C57322   8.134  11.211   2.655  0.7140  0.2375  0.5066
  435MOL0     O57323   8.133  11.267   2.776 -0.0263 -0.0092 -0.0106
  435MOL0     C57324   8.112  11.413   2.770 -0.5772  0.4213  0.8326
  435MOL0     C57325   8.104  11.469   2.914 -0.2171 -0.6937 -0.0858
  435MOL0     C57326   7.980  11.421   2.985  0.1676 -0.7974 -0.2285
  435MOL0     C57327   7.965  11.498   3.114  1.1098  0.4372 -0.0181
  435MOL0     C57328   7.817  11.474   3.163 -0.5904  1.0222 -0.2252
  435MOL0     C57329   7.717  11.579   3.124  0.8530 -0.1273 -0.9538
  435MOL0     C57330   7.576  11.528   3.103  0.0362  0.2798  0.3901
  435MOL0     C57331   7.493  11.628   3.024 -0.1578 -0.6919 -0.5843
  435MOL0    Cl57332   7.325  11.571   3.035 -0.0673  0.0727 -0.1358
  435MOL0     C57333   8.142  11.271   2.530 -0.1253  0.1482  0.0005
  435MOL0     C57334   8.124  11.202   2.413  0.2617 -0.2136  1.2151
  435MOL0     O57335   8.015  11.157   2.158 -0.2835 -0.7546 -0.2532
  435MOL0     C57336   8.145  10.833   2.065  0.1377  0.1218  0.2897
  435MOL0     C57337   8.182  10.759   1.952  0.0909  0.5862  0.2988
  435MOL0     N57338   8.643  10.938   1.386  0.4499  1.2433  0.2870
  435MOL0     N57339   8.716  10.889   1.298 -0.6241  0.6928 -0.4661
  435MOL0     C57340   9.140   9.855   1.255 -0.0623  0.9118 -0.2748
  435MOL0     C57341   9.111   9.752   1.339 -0.2636  0.1637 -0.3599
  435MOL0     C57342   9.012   9.549   1.707  0.7361  0.4260  0.0352
  435MOL0     C57343   9.049   9.412   1.697  0.1247  0.1133 -0.1935
  435MOL0     C57344   9.005   9.313   1.788 -0.7499 -0.7225  0.1261
  435MOL0     C57345   8.913   9.348   1.888  0.0422  0.4445  0.3307
  435MOL0     O57346   8.863   9.238   1.957 -0.1812 -0.4934 -0.2844
  435MOL0     C57347   8.792   9.258   2.082 -0.1391  0.0063 -0.3114
  435MOL0     C57348   8.760   9.126   2.138  0.8936 -0.0131  0.6265
  435MOL0     C57349   8.886   9.041   2.173 -0.3775  0.2006  0.9148
  435MOL0     C57350   8.992   9.119   2.252  0.1649  0.2785  0.0462
  435MOL0     C57351   9.083   9.020   2.295  0.0088 -0.4727 -0.1818
  435MOL0     C57352   9.162   8.945   2.337  0.2703  0.2150  0.4644
  435MOL0     C57353   8.868   9.481   1.905 -1.5603  0.3986 -0.1545
  435MOL0     C57354   8.934   9.580   1.825  0.1767  0.1450  0.2453
  435MOL0     H57355   9.416   9.702   1.476  0.6860 -0.1568 -1.2795
  435MOL0     H57356   9.464   9.874   1.299  1.5252 -2.4120 -2.3081
  435MOL0     H57357   9.487  10.061   1.125 -1.3609  0.8347 -1.6185
  435MOL0     H57358   9.436  10.101   1.292 -0.2770 -1.0244 -0.5986
  435MOL0     H57359   9.371  10.231   1.037 -0.0408  3.6321 -0.2539
  435MOL0     H57360   9.475  10.286   1.180  0.4831 -3.0232  0.9352
  435MOL0     H57361   9.262  10.274   1.313 -0.5517  1.4932 -0.3265
  435MOL0     H57362   9.163  10.254   1.162 -1.5887 -0.6412  2.2568
  435MOL0     H57363   9.348  10.484   1.204  1.0793 -1.6191 -1.6751
  435MOL0     H57364   9.243  10.455   1.059  0.4074  2.6365  1.2916
  435MOL0     H57365   9.139  10.451   1.342 -0.5114  0.8881  0.4812
  435MOL0     H57366   9.051  10.457   1.192  0.4740 -3.1923  2.1184
  435MOL0     H57367   9.122  10.686   1.125 -0.0839 -2.4040 -1.3711
  435MOL0     H57368   9.248  10.683   1.234 -0.2838 -1.3057 -1.5228
  435MOL0     H57369   9.067  10.681   1.423  0.1459 -0.2160  0.7743
  435MOL0     H57370   9.101  10.827   1.331 -0.0831 -0.6439 -1.3962
  435MOL0     H57371   8.876  10.637   1.249 -2.7412  0.8090 -2.3898
  435MOL0     H57372   8.920  10.786   1.161 -1.5248  0.7180  0.1778
  435MOL0     H57373   8.863  10.788   1.570 -0.5186  0.5565  0.8144
  435MOL0     H57374   8.577  11.036   1.637  1.0142  0.6006 -3.3079
  435MOL0     H57375   8.684  10.925   1.715 -0.7842  0.1559  0.8044
  435MOL0     H57376   8.491  10.814   1.766  2.9951  2.6852  1.2741
  435MOL0     H57377   8.506  10.736   1.604  0.8226  0.7109 -0.1566
  435MOL0     H57378   8.337  10.980   1.681 -0.4040  1.5433 -2.4159
  435MOL0     H57379   8.380  10.955   1.513  0.5631  1.8145  0.7263
  435MOL0     H57380   8.265  10.723   1.529  0.4869  0.6789  0.8099
  435MOL0     H57381   8.159  10.860   1.565 -1.1426 -1.3155  1.2738
  435MOL0     H57382   8.050  10.978   1.721 -0.4262 -0.0634  0.5028
  435MOL0     H57383   7.979  11.098   1.919 -0.2516 -0.4673  0.6033
  435MOL0     H57384   8.109  10.892   2.549 -0.7721  0.8408  3.0003
  435MOL0     H57385   8.129  11.021   2.755  1.0435  2.0854  0.3392
  435MOL0     H57386   8.018  11.441   2.723  0.1832  0.1994 -0.9116
  435MOL0     H57387   8.191  11.464   2.715 -0.7511 -0.3686 -0.1727
  435MOL0     H57388   8.103  11.578   2.897  4.1466 -0.7037 -1.6192
  435MOL0     H57389   8.195  11.457   2.973  1.0149  0.2560 -1.6895
  435MOL0     H57390   7.991  11.314   3.005 -3.5212 -1.7623 -2.3603
  435MOL0     H57391   7.891  11.437   2.923  0.8100  2.6540 -0.4340
  435MOL0     H57392   8.039  11.456   3.182 -0.1426 -2.3948 -0.2638
  435MOL0     H57393   7.979  11.605   3.098  0.1309  0.2730 -2.5658
  435MOL0     H57394   7.829  11.486   3.271  0.6380 -2.8491  0.2331
  435MOL0     H57395   7.799  11.368   3.142  0.5092  0.8297 -0.2362
  435MOL0     H57396   7.755  11.617   3.029  0.1622  3.0584 -0.0755
  435MOL0     H57397   7.718  11.665   3.191 -2.5138  0.2417 -1.1748
  435MOL0     H57398   7.589  11.439   3.041  0.4004  1.3243 -1.0966
  435MOL0     H57399   7.532  11.496   3.197  0.5276  1.4058  1.0252
  435MOL0     H57400   7.527  11.639   2.920  2.3055 -1.6083  0.0573
  435MOL0     H57401   7.489  11.729   3.066 -1.5787 -0.6174 -0.8709
  435MOL0     H57402   8.169  11.375   2.514  0.3077  0.3662  1.9641
  435MOL0     H57403   8.147  11.258   2.323 -0.8906  1.1647  1.7338
  435MOL0     H57404   8.154  10.777   2.158  0.1794  0.4929  0.5129
  435MOL0     H57405   8.219  10.658   1.959 -1.8118 -0.1672  0.0319
  435MOL0     H57406   9.056   9.905   1.209 -2.3298 -0.7898  1.7761
  435MOL0     H57407   9.011   9.715   1.360  0.4861 -1.7050  0.1456
  435MOL0     H57408   9.114   9.369   1.622  1.0966 -1.0081  1.2431
  435MOL0     H57409   9.023   9.209   1.762  1.2520 -0.6040  0.9255
  435MOL0     H57410   8.706   9.320   2.056  1.7724  1.8379 -2.7964
  435MOL0     H57411   8.858   9.319   2.145 -3.4322  3.0125  0.5668
  435MOL0     H57412   8.704   9.142   2.230  1.3683 -1.0883  1.1195
  435MOL0     H57413   8.694   9.075   2.068 -2.5421  2.6696  1.6274
  435MOL0     H57414   8.926   8.998   2.081  0.3422  0.7614  0.9498
  435MOL0     H57415   8.845   8.955   2.226 -0.9448  1.4344  2.5611
  435MOL0     H57416   9.042   9.190   2.186  0.2891  1.9900  1.9007
  435MOL0     H57417   8.955   9.178   2.337  0.1096  1.4225 -0.7629
  435MOL0     H57418   9.218   8.870   2.390 -2.6909 -3.1734 -0.7954
  435MOL0     H57419   8.802   9.505   1.988  1.0095 -1.2351  2.5685
  435MOL0     H57420   8.919   9.682   1.858  2.0370  0.1871  1.0906
  436MOL0     O57421   1.784   4.753  11.327 -0.0806 -0.4651 -0.6783
  436MOL0     C57422   1.670   4.772  11.344  0.2081 -0.0346 -1.0546
  436MOL0     O57423   1.574   4.768  11.242  0.4037  0.0907 -0.1940
  436MOL0     C57424   1.589   4.712  11.115  0.0662  1.2099 -0.4297
  436MOL0     C57425   1.555   4.787  11.000  0.6235 -0.3135 -0.3177
  436MOL0     C57426   1.550   4.717  10.880 -0.0775 -0.1281  0.5953
  436MOL0     C57427   1.597   4.583  10.859 -0.8464  0.5021 -0.4958
  436MOL0     O57428   1.598   4.535  10.738 -0.6169  0.3140  0.4238
  436MOL0     C57429   1.643   4.401  10.726 -0.7807  0.7977  0.3112
  436MOL0     C57430   1.624   4.354  10.579  1.2276  0.1475 -0.5587
  436MOL0     C57431   1.479   4.304  10.559  0.0345  0.4527  0.5802
  436MOL0     C57432   1.446   4.312  10.411  0.7143 -0.1295  0.2537
  436MOL0     C57433   1.299   4.273  10.377 -0.0663 -0.6006  0.0141
  436MOL0     C57434   1.266   4.303  10.237 -0.4003 -0.0777 -0.0249
  436MOL0     C57435   1.112   4.298  10.209 -0.2965  0.1128  0.8501
  436MOL0     C57436   1.042   4.158  10.216  0.2861  0.5491  0.8429
  436MOL0     N57437   0.895   4.178  10.227  0.5568 -0.3388  0.2600
  436MOL0     C57438   0.802   4.096  10.175 -0.4538  0.0350 -0.1093
  436MOL0     C57439   0.687   4.161  10.210  0.6398 -0.3985  1.4053
  436MOL0     C57440   0.546   4.112  10.187 -0.0701 -0.4161  1.0644
  436MOL0     C57441   0.468   4.226  10.131  0.5288 -0.2352  0.7747
  436MOL0     C57442   0.330   4.188  10.097 -0.0866  0.8599 -0.1028
  436MOL0     C57443   0.250   4.122  10.213 -0.1967  0.2395  0.0888
  436MOL0     O57444   0.248   4.207  10.327 -0.1253 -0.4685  0.4559
  436MOL0     C57445   0.169   4.169  10.431  1.3409  0.4978  0.2861
  436MOL0     C57446   0.161   4.253  10.544 -0.6778 -0.2160  0.3202
  436MOL0     C57447   0.071   4.219  10.648 -0.2555 -0.8196  0.2397
  436MOL0     C57448  -0.004   4.102  10.649  0.0362  0.3648  0.3477
  436MOL0     C57449  -0.108   4.083  10.760  0.4882 -1.0828  0.2390
  436MOL0     O57450  -0.127   4.191  10.835 -0.0127 -0.2651  0.3671
  436MOL0     C57451  -0.191   4.193  10.950 -0.1293  0.5524 -1.3312
  436MOL0     C57452  -0.272   4.302  10.976  0.1181  0.1337  0.7583
  436MOL0     C57453  -0.362   4.303  11.093 -0.4290  0.4633  0.6186
  436MOL0     C57454  -0.370   4.184  11.167 -0.1305 -0.4004  0.6131
  436MOL0     O57455  -0.459   4.176  11.274 -0.9438  0.7680  0.1183
  436MOL0     C57456  -0.561   4.071  11.284  0.5476 -0.8250 -0.4572
  436MOL0     C57457  -0.594   4.034  11.424 -0.1049 -0.1990 -0.2614
  436MOL0     C57458  -0.479   3.978  11.508 -0.5274  0.3964 -0.6615
  436MOL0     C57459  -0.534   3.937  11.643  0.6061 -0.4546 -0.1536
  436MOL0     C57460  -0.429   3.904  11.748  0.8945  0.6946  0.5296
  436MOL0     C57461  -0.379   3.758  11.741 -0.0051 -0.0758 -0.4582
  436MOL0     C57462  -0.261   3.739  11.847 -0.3557  0.6726 -0.7292
  436MOL0     C57463  -0.180   3.605  11.827 -0.9643 -0.2241 -0.8444
  436MOL0    Cl57464  -0.081   3.588  11.963  0.1780 -0.7345 -0.4522
  436MOL0     C57465  -0.284   4.075  11.137 -0.6148 -0.3172 -0.1727
  436MOL0     C57466  -0.188   4.085  11.041  0.7274  0.0923 -0.0082
  436MOL0     O57467  -0.187   3.983  10.754  0.2008 -0.3414  0.2205
  436MOL0     C57468   0.005   4.015  10.543  0.0807  1.0442 -0.1825
  436MOL0     C57469   0.085   4.050  10.432 -0.1364  0.2718 -0.1563
  436MOL0     N57470   0.716   4.288  10.262  0.2684  0.0722  0.1550
  436MOL0     N57471   0.842   4.294  10.275  0.0729  0.2758  0.6016
  436MOL0     C57472   1.634   4.511  10.979  0.5476 -0.3557  0.4542
  436MOL0     C57473   1.632   4.580  11.105  0.0233 -0.8038 -0.6507
  436MOL0     C57474   1.643   4.813  11.480 -0.9138 -1.1041 -0.6024
  436MOL0     C57475   1.520   4.782  11.529 -0.2555  1.3979 -0.6355
  436MOL0     C57476   1.487   4.813  11.663  0.1606 -0.2858  0.1295
  436MOL0     C57477   1.580   4.893  11.740 -0.1160 -0.0637 -0.5758
  436MOL0     O57478   1.552   4.934  11.866  0.5007 -0.6483 -0.0669
  436MOL0     C57479   1.423   4.909  11.921  0.5299  0.2290 -0.2881
  436MOL0     C57480   1.424   4.981  12.055 -0.2647  0.2598 -1.2112
  436MOL0     C57481   1.523   4.923  12.149 -0.5935  0.6521 -0.3796
  436MOL0     C57482   1.533   5.009  12.273  0.7539 -0.3532 -0.5134
  436MOL0     C57483   1.405   5.022  12.348  0.4792  0.1158  0.6637
  436MOL0     C57484   1.305   5.028  12.423 -0.7187 -0.4414 -0.4799
  436MOL0     C57485   1.711   4.917  11.696  0.6412 -0.0178 -0.2766
  436MOL0     C57486   1.741   4.872  11.562 -0.0060 -0.7010  0.7923
  436MOL0     H57487   1.522   4.890  11.006 -0.0810 -0.4101 -2.1829
  436MOL0     H57488   1.525   4.780  10.795 -0.8248 -1.4926 -0.2195
  436MOL0     H57489   1.568   4.345  10.782 -0.5864  0.4995  0.2741
  436MOL0     H57490   1.748   4.384  10.753 -0.7345 -1.4321 -1.0128
  436MOL0     H57491   1.695   4.274  10.556  0.8369 -0.0071 -1.2629
  436MOL0     H57492   1.649   4.445  10.525  0.4913  1.1858  0.8014
  436MOL0     H57493   1.421   4.376  10.618  0.1724 -1.5172  3.2956
  436MOL0     H57494   1.474   4.202  10.597 -1.3925  0.1996 -0.2204
  436MOL0     H57495   1.463   4.419  10.394 -1.2990  0.3112  0.7689
  436MOL0     H57496   1.507   4.247  10.346 -0.3147  0.7399 -1.6772
  436MOL0     H57497   1.237   4.319  10.454  2.7838  2.1513  0.8783
  436MOL0     H57498   1.287   4.165  10.393 -1.3570 -0.4399  0.2523
  436MOL0     H57499   1.331   4.244  10.172  0.7915 -0.5113  1.5137
  436MOL0     H57500   1.289   4.408  10.216 -1.9766  0.1728 -0.6470
  436MOL0     H57501   1.063   4.357  10.286 -2.7569 -1.7142  0.8320
  436MOL0     H57502   1.101   4.342  10.109  4.7841  1.1339  0.5086
  436MOL0     H57503   1.085   4.094  10.295  0.9372 -0.7073 -0.4752
  436MOL0     H57504   1.070   4.110  10.122  0.3751  1.5835  0.3272
  436MOL0     H57505   0.811   4.010  10.110  0.6106  0.2943 -0.3132
  436MOL0     H57506   0.510   4.075  10.284 -0.9494  1.7721  1.6304
  436MOL0     H57507   0.544   4.028  10.118  0.2988  1.4805 -1.3852
  436MOL0     H57508   0.509   4.261  10.036  2.8555  0.9688  2.1326
  436MOL0     H57509   0.470   4.312  10.199  2.1632  1.2469 -1.0383
  436MOL0     H57510   0.278   4.281  10.074  0.2739  0.6205 -2.0247
  436MOL0     H57511   0.350   4.112  10.021  3.2405  2.8902 -1.4762
  436MOL0     H57512   0.288   4.025  10.247 -0.8445  0.5250  1.7589
  436MOL0     H57513   0.147   4.112  10.177  0.1703 -0.6478 -0.7228
  436MOL0     H57514   0.215   4.347  10.550  0.2796 -0.6648 -1.1122
  436MOL0     H57515   0.066   4.296  10.723 -2.4510  0.3137 -0.9981
  436MOL0     H57516  -0.289   4.385  10.909  1.7633 -0.1471 -0.0426
  436MOL0     H57517  -0.421   4.392  11.110 -0.7872  0.1989  0.7595
  436MOL0     H57518  -0.523   3.985  11.229  1.4878  0.6423 -2.2190
  436MOL0     H57519  -0.650   4.114  11.238  0.3077 -1.0939 -0.2440
  436MOL0     H57520  -0.663   3.949  11.418  0.6923 -1.0820  1.8904
  436MOL0     H57521  -0.646   4.115  11.477 -1.3960 -0.0811 -1.6292
  436MOL0     H57522  -0.405   4.056  11.529  0.9700 -0.7981 -1.2499
  436MOL0     H57523  -0.432   3.898  11.450 -1.8417 -1.7730  1.1014
  436MOL0     H57524  -0.572   4.027  11.692  2.9477 -0.6583  2.3088
  436MOL0     H57525  -0.616   3.865  11.631 -0.2309 -0.3577  3.6803
  436MOL0     H57526  -0.480   3.909  11.844 -0.5401  2.4378 -0.2498
  436MOL0     H57527  -0.349   3.978  11.741  2.4813 -0.9349  0.6113
  436MOL0     H57528  -0.341   3.732  11.642 -0.0241 -0.3882 -0.3870
  436MOL0     H57529  -0.462   3.693  11.768 -0.4369  0.5401 -0.2855
  436MOL0     H57530  -0.205   3.832  11.835 -0.5611  0.7210 -1.3385
  436MOL0     H57531  -0.309   3.747  11.945 -1.6381  2.1396 -1.4377
  436MOL0     H57532  -0.117   3.607  11.737  0.8387 -1.2708  0.3309
  436MOL0     H57533  -0.251   3.521  11.824  1.5422 -2.4718 -1.9062
  436MOL0     H57534  -0.273   3.990  11.204 -2.9527  1.7911  3.1694
  436MOL0     H57535  -0.122   4.000  11.027 -1.2703 -1.6064  0.3323
  436MOL0     H57536  -0.058   3.928  10.534 -0.0865  1.3155 -1.9009
  436MOL0     H57537   0.093   3.985  10.345  1.9320  1.8220 -1.2141
  436MOL0     H57538   1.646   4.404  10.979 -1.3792 -0.6217  2.0533
  436MOL0     H57539   1.672   4.542  11.198 -1.5288  3.8421  2.2405
  436MOL0     H57540   1.435   4.742  11.474 -1.7381  3.2741  0.1830
  436MOL0     H57541   1.390   4.784  11.703  1.8852 -4.1712  1.9314
  436MOL0     H57542   1.408   4.802  11.942  0.6100 -0.2183 -2.2583
  436MOL0     H57543   1.337   4.935  11.859 -0.6981 -2.0030  0.3576
  436MOL0     H57544   1.438   5.087  12.033  3.5061 -0.2808 -1.9537
  436MOL0     H57545   1.322   4.967  12.093 -0.4868 -0.4358 -2.0374
  436MOL0     H57546   1.621   4.926  12.100 -1.4365 -0.0591 -2.2172
  436MOL0     H57547   1.500   4.818  12.172  0.3351  0.7370  1.0467
  436MOL0     H57548   1.606   4.968  12.342 -0.2761 -0.7949  0.3493
  436MOL0     H57549   1.566   5.112  12.253 -0.4644 -0.1152 -1.4669
  436MOL0     H57550   1.221   5.032  12.490  0.7998  1.7907  1.4512
  436MOL0     H57551   1.784   4.966  11.759 -1.6402  1.3666  1.4682
  436MOL0     H57552   1.841   4.898  11.526  0.1542 -1.1823  0.8885
  437MOL0     O57553   1.594  11.306  10.581  0.1932 -0.3968  0.0430
  437MOL0     C57554   1.518  11.394  10.616  0.1700  0.1049 -0.1005
  437MOL0     O57555   1.387  11.375  10.667  0.5198  0.5268  0.8210
  437MOL0     C57556   1.308  11.266  10.677  1.2007  0.0585 -0.4128
  437MOL0     C57557   1.345  11.137  10.634 -0.2774 -0.4042 -0.3502
  437MOL0     C57558   1.259  11.030  10.622 -1.0313  0.2872  0.2379
  437MOL0     C57559   1.123  11.039  10.652  0.3047 -0.7721  0.2127
  437MOL0     O57560   1.029  10.928  10.644  0.0836 -0.2929 -0.2854
  437MOL0     C57561   1.075  10.797  10.659  0.5991  0.0569 -0.4411
  437MOL0     C57562   0.961  10.692  10.632 -0.3016 -0.7109 -0.8621
  437MOL0     C57563   0.931  10.700  10.481  0.2654 -0.2692 -0.1048
  437MOL0     C57564   0.837  10.582  10.451  0.4837  0.1884  0.4570
  437MOL0     C57565   0.691  10.591  10.520 -0.7060 -0.5245  0.1938
  437MOL0     C57566   0.618  10.721  10.490 -0.3600  0.5962 -0.0159
  437MOL0     C57567   0.550  10.716  10.355  0.3387  0.1629  0.3882
  437MOL0     C57568   0.467  10.849  10.335 -0.3596 -0.0481  0.9360
  437MOL0     N57569   0.386  10.859  10.208 -0.0069  0.1060 -0.1365
  437MOL0     C57570   0.428  10.893  10.082 -0.4196  0.3233  0.0191
  437MOL0     C57571   0.326  10.913  10.006 -0.4077 -0.2606 -0.3412
  437MOL0     C57572   0.342  10.939   9.858 -0.0797 -0.2444  0.1823
  437MOL0     C57573   0.431  11.067   9.815 -0.3232 -0.3264 -0.2699
  437MOL0     C57574   0.461  11.065   9.663 -0.4693  1.6171 -0.0629
  437MOL0     C57575   0.468  11.187   9.585 -0.2512  0.2222 -0.0535
  437MOL0     O57576   0.393  11.176   9.467 -1.0336  0.3153  0.9837
  437MOL0     C57577   0.460  11.134   9.356  1.1389  0.3702  0.6437
  437MOL0     C57578   0.382  11.147   9.239  1.1418 -0.1199  0.3622
  437MOL0     C57579   0.428  11.093   9.120  0.0485 -0.7065  0.0811
  437MOL0     C57580   0.557  11.048   9.109 -0.3385  0.1091 -0.4042
  437MOL0     C57581   0.621  11.023   8.971  0.8193  1.2588  0.1894
  437MOL0     O57582   0.756  11.028   8.964 -0.5711 -0.2472  0.2991
  437MOL0     C57583   0.835  10.956   8.875  0.4115 -0.5852 -0.3408
  437MOL0     C57584   0.909  10.847   8.919  0.8851  0.8544 -0.1060
  437MOL0     C57585   1.008  10.788   8.838  0.8705  0.7477 -0.4888
  437MOL0     C57586   1.026  10.827   8.706  0.8315  0.6725  0.2233
  437MOL0     O57587   1.132  10.782   8.626 -0.1430  0.4828 -0.0277
  437MOL0     C57588   1.224  10.675   8.668 -0.8913 -0.1869  0.1275
  437MOL0     C57589   1.345  10.731   8.736 -0.1779  0.0432 -0.2249
  437MOL0     C57590   1.449  10.620   8.760  1.0396 -0.1485  0.0243
  437MOL0     C57591   1.577  10.675   8.815 -1.0069  0.4030  0.2660
  437MOL0     C57592   1.673  10.557   8.838  0.0702  0.3074  0.3732
  437MOL0     C57593   1.810  10.604   8.882  0.1794 -0.2521  0.3413
  437MOL0     C57594   1.894  10.486   8.922  0.2148  0.0132  0.0081
  437MOL0     C57595   2.014  10.524   9.005  0.5815 -0.1205  0.2358
  437MOL0    Cl57596   2.113  10.645   8.911 -0.5048 -0.1756  0.2348
  437MOL0     C57597   0.956  10.940   8.662 -0.1666  0.3025 -0.6679
  437MOL0     C57598   0.865  11.010   8.749  0.4959  1.2314  0.0232
  437MOL0     O57599   0.546  10.990   8.875  0.1110  0.0573 -0.5931
  437MOL0     C57600   0.638  11.039   9.225  0.9376 -0.0979  0.4324
  437MOL0     C57601   0.589  11.080   9.345 -0.7063  1.1974 -0.4265
  437MOL0     N57602   0.213  10.874  10.071  0.2533 -0.7446 -0.3359
  437MOL0     N57603   0.247  10.843  10.196  0.1771 -0.3628  0.3033
  437MOL0     C57604   1.083  11.171  10.680 -0.5471  0.6685 -0.1690
  437MOL0     C57605   1.171  11.275  10.689 -0.2907  0.5892 -0.1481
  437MOL0     C57606   1.546  11.534  10.613 -1.2039 -0.5967  0.9438
  437MOL0     C57607   1.472  11.638  10.674  0.3016 -0.2603 -0.0199
  437MOL0     C57608   1.518  11.772  10.671  0.3707 -0.2805 -0.6369
  437MOL0     C57609   1.635  11.804  10.601 -1.2420 -0.3263  1.0808
  437MOL0     O57610   1.679  11.932  10.617  0.1416 -0.4510 -0.4114
  437MOL0     C57611   1.800  11.988  10.557 -1.0271 -0.8079  0.7528
  437MOL0     C57612   1.839  12.115  10.629 -0.0371 -0.5085  0.2169
  437MOL0     C57613   1.941  12.203  10.558  0.0985  0.1680 -0.6199
  437MOL0     C57614   1.864  12.316  10.482  0.4422  0.0953 -0.1485
  437MOL0     C57615   1.879  12.304  10.342  0.5693 -0.8395  0.2673
  437MOL0     C57616   1.895  12.299  10.224  0.5026 -0.0612 -1.1142
  437MOL0     C57617   1.698  11.704  10.527 -1.0833 -0.3354 -0.0397
  437MOL0     C57618   1.655  11.570  10.533  1.2125 -0.1324  0.5515
  437MOL0     H57619   1.452  11.121  10.643 -0.0127  1.4410  0.3066
  437MOL0     H57620   1.301  10.929  10.617  0.8701  1.0896 -2.0608
  437MOL0     H57621   1.113  10.791  10.761 -0.8867 -2.1847  0.0493
  437MOL0     H57622   1.160  10.772  10.595 -0.5273  0.8116 -2.3204
  437MOL0     H57623   0.873  10.732  10.682 -0.9531 -0.8482 -1.8640
  437MOL0     H57624   0.983  10.595  10.677 -0.5523  0.9503  3.2260
  437MOL0     H57625   1.026  10.679  10.431  0.6200  1.5754 -0.3108
  437MOL0     H57626   0.892  10.798  10.449 -2.9017  0.2271  4.3800
  437MOL0     H57627   0.824  10.579  10.343 -0.4250 -1.2401  0.5872
  437MOL0     H57628   0.890  10.490  10.477  3.6877  1.3719 -1.3416
  437MOL0     H57629   0.705  10.591  10.629  0.3679  4.0419  0.2533
  437MOL0     H57630   0.632  10.510  10.477 -2.7982  1.9172 -1.9206
  437MOL0     H57631   0.681  10.811  10.487  0.2208  0.1690 -1.3857
  437MOL0     H57632   0.546  10.733  10.572  0.4898  0.1688  0.8134
  437MOL0     H57633   0.634  10.706  10.286  2.2092 -4.3982  2.9017
  437MOL0     H57634   0.483  10.631  10.338 -0.8981  1.5675 -2.4838
  437MOL0     H57635   0.542  10.928  10.337  0.0128 -0.3175 -0.6550
  437MOL0     H57636   0.395  10.871  10.414 -0.1921 -2.2096  1.7656
  437MOL0     H57637   0.528  10.922  10.051 -0.3493 -1.4779 -1.6301
  437MOL0     H57638   0.244  10.961   9.814  0.6163  0.5241 -1.0446
  437MOL0     H57639   0.366  10.843   9.812 -1.2463  0.6245 -2.4803
  437MOL0     H57640   0.515  11.093   9.880 -0.5054  2.2868 -0.9968
  437MOL0     H57641   0.374  11.156   9.842  0.5779 -0.1283  1.0956
  437MOL0     H57642   0.557  11.013   9.652 -1.5766 -1.0529  1.6486
  437MOL0     H57643   0.391  10.994   9.619 -0.5109 -1.4104  4.2283
  437MOL0     H57644   0.564  11.238   9.575 -1.7714  2.9794 -1.8435
  437MOL0     H57645   0.411  11.252   9.652 -0.8572 -0.8762  0.5201
  437MOL0     H57646   0.284  11.193   9.249  0.6312 -0.5252 -2.2243
  437MOL0     H57647   0.374  11.116   9.028 -0.3175  2.4680  0.9627
  437MOL0     H57648   0.889  10.817   9.022 -5.0291  1.2802 -0.8118
  437MOL0     H57649   1.069  10.709   8.880 -0.7332 -0.2294  0.0667
  437MOL0     H57650   1.259  10.620   8.580 -3.5075 -0.2121 -0.9856
  437MOL0     H57651   1.169  10.604   8.731 -0.1216 -0.5119  0.4522
  437MOL0     H57652   1.312  10.773   8.831 -2.2907 -0.4442 -0.7051
  437MOL0     H57653   1.393  10.808   8.675  0.0749 -1.4506 -2.0269
  437MOL0     H57654   1.473  10.562   8.670 -1.5349 -1.4597  0.0737
  437MOL0     H57655   1.406  10.550   8.832 -0.6358  0.1753 -0.6304
  437MOL0     H57656   1.625  10.748   8.749  0.1606  0.1976  0.8602
  437MOL0     H57657   1.557  10.727   8.909  1.1032  1.0780  0.3894
  437MOL0     H57658   1.683  10.503   8.744  0.1641  2.6987 -1.0455
  437MOL0     H57659   1.627  10.492   8.914 -3.0302  2.4058  0.4728
  437MOL0     H57660   1.793  10.674   8.964 -1.5509  1.4320 -1.3254
  437MOL0     H57661   1.866  10.664   8.810  1.4744 -1.0271  0.6710
  437MOL0     H57662   1.835  10.418   8.984 -0.3544 -0.0121 -0.5503
  437MOL0     H57663   1.917  10.424   8.834  0.7404 -1.5773  1.2256
  437MOL0     H57664   2.071  10.435   9.035 -0.1163 -1.4752 -2.1326
  437MOL0     H57665   1.992  10.575   9.099  1.4812 -0.8462  0.8630
  437MOL0     H57666   0.967  10.968   8.558  1.1227  3.9241  0.2878
  437MOL0     H57667   0.800  11.085   8.706 -2.2150 -0.5886  0.6411
  437MOL0     H57668   0.744  11.019   9.213  1.3188  1.4473  0.9402
  437MOL0     H57669   0.652  11.064   9.432 -1.2792  0.2396 -0.1726
  437MOL0     H57670   0.978  11.198  10.686 -0.9551 -0.7185 -0.6207
  437MOL0     H57671   1.131  11.373  10.714 -2.6549 -0.0335 -1.1358
  437MOL0     H57672   1.375  11.620  10.721 -1.1954  3.6967 -1.2104
  437MOL0     H57673   1.462  11.852  10.720  1.4185  1.7523 -2.5618
  437MOL0     H57674   1.795  12.011  10.450 -2.6283  0.5867  1.0898
  437MOL0     H57675   1.886  11.921  10.568  1.8262  2.3156 -0.5792
  437MOL0     H57676   1.749  12.172  10.655 -0.2079  0.6017 -2.4469
  437MOL0     H57677   1.894  12.091  10.720 -0.8783 -0.8603  0.6495
  437MOL0     H57678   1.994  12.139  10.488  0.8022 -0.7657  0.7166
  437MOL0     H57679   2.017  12.253  10.618  0.8337  2.6717 -3.4072
  437MOL0     H57680   1.758  12.317  10.513  0.4317  0.5787 -0.1942
  437MOL0     H57681   1.907  12.411  10.514 -1.5973  0.8545  0.5251
  437MOL0     H57682   1.909  12.260  10.125  1.5264 -5.3710  0.8081
  437MOL0     H57683   1.786  11.723  10.467  1.4879 -0.7824  3.2654
  437MOL0     H57684   1.707  11.493  10.476  1.2767 -0.9046  1.6276
  438MOL0     O57685   8.978   9.973  10.201 -0.0387 -0.3167  0.5538
  438MOL0     C57686   8.970  10.037  10.302 -0.6968 -0.5572 -0.7611
  438MOL0     O57687   8.876  10.141  10.322  0.2538 -0.2337  0.7175
  438MOL0     C57688   8.777  10.158  10.232 -0.6977  0.7780 -0.7550
  438MOL0     C57689   8.680  10.061  10.194  1.1395 -0.3714 -0.1293
  438MOL0     C57690   8.592  10.081  10.090 -0.0642 -1.0406  0.0168
  438MOL0     C57691   8.585  10.199  10.027 -0.5299 -0.1841  0.3524
  438MOL0     O57692   8.495  10.231   9.928  0.7647 -0.2905  0.1481
  438MOL0     C57693   8.450  10.142   9.827  0.5379  1.1221 -0.2533
  438MOL0     C57694   8.507  10.160   9.693 -0.1517 -0.2898  0.0980
  438MOL0     C57695   8.455  10.047   9.599 -0.3010 -0.1391  0.2881
  438MOL0     C57696   8.526  10.041   9.458 -0.3190 -0.6166 -0.3351
  438MOL0     C57697   8.497   9.898   9.398 -0.0015  0.9052  0.0323
  438MOL0     C57698   8.349   9.851   9.385  0.8172  0.4246  0.0119
  438MOL0     C57699   8.245   9.930   9.304 -0.0653 -0.4503  0.0294
  438MOL0     C57700   8.248   9.887   9.159 -0.8089 -0.6669 -1.1599
  438MOL0     N57701   8.138   9.946   9.086 -0.0273  0.2863 -0.3205
  438MOL0     C57702   8.012   9.891   9.076 -0.0591 -0.3224 -0.0379
  438MOL0     C57703   7.925   9.995   9.076  0.2346 -0.4369  0.0879
  438MOL0     C57704   7.772   9.983   9.087 -0.1371 -0.2202 -0.1450
  438MOL0     C57705   7.715  10.062   8.966  0.0457 -0.2675 -0.6621
  438MOL0     C57706   7.567  10.084   8.973 -0.0520  0.1409  0.9778
  438MOL0     C57707   7.492   9.970   8.902 -0.2813  0.0543 -0.5038
  438MOL0     O57708   7.520   9.841   8.945 -0.2201  0.7125 -0.2688
  438MOL0     C57709   7.509   9.741   8.858  1.1832  0.2127  0.0622
  438MOL0     C57710   7.398   9.731   8.768 -0.7423  0.1715 -0.6414
  438MOL0     C57711   7.394   9.619   8.683  0.2943 -0.0219  0.0544
  438MOL0     C57712   7.499   9.525   8.678 -0.1857 -0.8213 -0.6141
  438MOL0     C57713   7.495   9.407   8.591 -0.4657  0.1763  0.2525
  438MOL0     O57714   7.366   9.373   8.538 -0.3444  0.3574 -0.6484
  438MOL0     C57715   7.336   9.257   8.467 -0.2432 -0.2557  0.2765
  438MOL0     C57716   7.199   9.254   8.437  0.0879  1.5650  0.0459
  438MOL0     C57717   7.159   9.149   8.348  0.6834  0.0079 -0.5413
  438MOL0     C57718   7.242   9.041   8.310 -0.2228  0.3161  1.2846
  438MOL0     O57719   7.219   8.923   8.235 -0.1109  1.2064  0.3354
  438MOL0     C57720   7.089   8.867   8.249  0.4728 -0.9578  0.0100
  438MOL0     C57721   7.099   8.719   8.261  0.3404  0.4396 -0.8176
  438MOL0     C57722   6.970   8.649   8.313  0.3123 -0.4097  0.6351
  438MOL0     C57723   6.985   8.501   8.342  0.5444  0.0965 -0.1138
  438MOL0     C57724   6.855   8.420   8.391 -1.2460  0.4374 -0.1888
  438MOL0     C57725   6.881   8.269   8.354  0.2736 -0.1327  0.0172
  438MOL0     C57726   6.899   8.246   8.204 -0.1498  0.0415 -0.0340
  438MOL0     C57727   6.859   8.108   8.166  0.4775 -1.1378 -1.2058
  438MOL0    Cl57728   6.814   8.113   7.992 -0.0100  0.0464 -0.7017
  438MOL0     C57729   7.366   9.044   8.369  1.1835  0.1090  0.7381
  438MOL0     C57730   7.425   9.160   8.418  0.0500 -0.5646 -0.2903
  438MOL0     O57731   7.608   9.350   8.574  0.3512  0.3516 -0.3531
  438MOL0     C57732   7.611   9.545   8.761  0.3642  0.6050 -0.0879
  438MOL0     C57733   7.612   9.649   8.853  1.1365 -1.0517  0.2628
  438MOL0     N57734   8.002  10.111   9.064 -0.4979  0.3904  0.2438
  438MOL0     N57735   8.126  10.081   9.077 -0.6681  0.1292  0.2534
  438MOL0     C57736   8.665  10.303  10.079 -0.0132  0.2701 -0.9021
  438MOL0     C57737   8.764  10.279  10.176  1.1472 -0.1911  0.2043
  438MOL0     C57738   9.066  10.017  10.414 -0.6066 -0.0860  1.0315
  438MOL0     C57739   9.057  10.078  10.534  0.0488  0.4297 -0.3699
  438MOL0     C57740   9.136  10.030  10.643  0.2141  0.2905  0.7244
  438MOL0     C57741   9.235   9.929  10.621  0.2463 -0.6181  0.5385
  438MOL0     O57742   9.314   9.875  10.710  0.1851 -0.3453 -0.4645
  438MOL0     C57743   9.290   9.894  10.853 -0.0964  1.0303 -0.5004
  438MOL0     C57744   9.374  10.006  10.915 -0.4734  0.4877 -0.1169
  438MOL0     C57745   9.377   9.989  11.070  1.6520 -0.7181 -0.3364
  438MOL0     C57746   9.473  10.094  11.136 -0.0194 -0.0853  0.1630
  438MOL0     C57747   9.460  10.088  11.280  0.9173  0.2839  0.5857
  438MOL0     C57748   9.439  10.065  11.401 -0.0099 -0.1572  1.2116
  438MOL0     C57749   9.253   9.887  10.491  0.2631  0.1574 -0.2958
  438MOL0     C57750   9.173   9.931  10.386 -0.3314  0.0152  1.2877
  438MOL0     H57751   8.666   9.965  10.242 -1.6475  0.1703  0.3429
  438MOL0     H57752   8.529  10.000  10.054 -0.9679  0.2528 -1.4119
  438MOL0     H57753   8.343  10.152   9.808 -0.3881  0.1249  3.6549
  438MOL0     H57754   8.471  10.040   9.861 -0.8738  0.8536 -0.1517
  438MOL0     H57755   8.616  10.165   9.698 -0.2231  1.9422  0.4037
  438MOL0     H57756   8.463  10.252   9.654 -1.7773  1.1169  4.5978
  438MOL0     H57757   8.347  10.051   9.585 -0.4808 -0.5239  1.3931
  438MOL0     H57758   8.483   9.953   9.649  0.7413  0.2327  0.4301
  438MOL0     H57759   8.498  10.115   9.383 -2.5962 -2.8679 -1.8449
  438MOL0     H57760   8.635  10.045   9.475 -0.6165 -2.3259  2.9602
  438MOL0     H57761   8.555   9.820   9.448  0.8112 -0.7133 -3.1997
  438MOL0     H57762   8.531   9.889   9.295 -0.3468 -1.4038  0.0644
  438MOL0     H57763   8.311   9.832   9.486 -3.0460 -2.1915 -1.6742
  438MOL0     H57764   8.359   9.749   9.347  0.5968  0.0743  0.8668
  438MOL0     H57765   8.146   9.897   9.336 -0.5582  1.7279  0.9032
  438MOL0     H57766   8.261  10.036   9.326 -0.1560 -0.7466  1.6582
  438MOL0     H57767   8.233   9.782   9.134 -0.9064 -1.2377  1.1370
  438MOL0     H57768   8.342   9.916   9.111 -0.5687  0.1094 -0.2444
  438MOL0     H57769   7.975   9.791   9.098 -3.2939  1.3516  3.0336
  438MOL0     H57770   7.738  10.017   9.186  2.5820 -1.8288  1.4827
  438MOL0     H57771   7.747   9.877   9.071  0.0122  0.2962 -4.9672
  438MOL0     H57772   7.742  10.018   8.869  1.0836 -4.6921  1.3691
  438MOL0     H57773   7.759  10.161   8.972  1.6286 -1.0195  1.1678
  438MOL0     H57774   7.540  10.103   9.077  2.4884 -0.8038  1.8913
  438MOL0     H57775   7.540  10.168   8.908 -1.6384 -1.0078  0.0919
  438MOL0     H57776   7.522   9.975   8.797  0.7918  3.7160 -0.1377
  438MOL0     H57777   7.386   9.993   8.911  0.3778  3.9817 -1.1149
  438MOL0     H57778   7.308   9.791   8.772 -0.7296  0.1793 -0.4440
  438MOL0     H57779   7.308   9.611   8.617  0.5379  0.5110 -0.3363
  438MOL0     H57780   7.133   9.338   8.455  0.2312  1.2580  2.1925
  438MOL0     H57781   7.059   9.151   8.304  0.8570  2.9621 -0.9997
  438MOL0     H57782   7.016   8.889   8.170 -0.6243 -0.4366  1.1279
  438MOL0     H57783   7.043   8.913   8.337  1.7972  0.1374  0.1665
  438MOL0     H57784   7.184   8.702   8.328  0.7541 -0.7522 -1.5937
  438MOL0     H57785   7.126   8.670   8.167  2.2911  0.9197 -0.5661
  438MOL0     H57786   6.901   8.661   8.229  1.8913  0.3298 -0.6280
  438MOL0     H57787   6.933   8.701   8.402  0.0728 -0.7280  0.7210
  438MOL0     H57788   7.024   8.456   8.250 -0.2965 -2.1676  0.5648
  438MOL0     H57789   7.060   8.499   8.423  0.5337 -1.2109 -0.1180
  438MOL0     H57790   6.765   8.463   8.347 -2.7543  0.2890  2.5954
  438MOL0     H57791   6.853   8.429   8.500  3.8318  0.3430  0.1766
  438MOL0     H57792   6.798   8.216   8.401 -1.3225  2.6386  0.5971
  438MOL0     H57793   6.977   8.240   8.397  0.6880 -0.4944 -1.1188
  438MOL0     H57794   6.836   8.319   8.152  1.1001  0.4758 -1.0067
  438MOL0     H57795   7.003   8.266   8.177  0.1305  0.0443  1.0322
  438MOL0     H57796   6.767   8.086   8.222  1.4929  1.4467  1.7277
  438MOL0     H57797   6.932   8.030   8.188 -0.8740 -1.7903  1.3942
  438MOL0     H57798   7.435   8.964   8.348 -0.9436 -1.9167  1.0274
  438MOL0     H57799   7.532   9.165   8.432  0.2681 -0.7503 -1.7149
  438MOL0     H57800   7.701   9.485   8.767 -0.4974 -0.6305  0.9414
  438MOL0     H57801   7.699   9.678   8.910  1.1699  0.6496 -0.5724
  438MOL0     H57802   8.666  10.401  10.033 -0.5845 -0.2906 -2.1812
  438MOL0     H57803   8.823  10.365  10.206  3.3970 -2.5903  3.4661
  438MOL0     H57804   8.963  10.130  10.552 -0.8064 -0.1864 -2.6866
  438MOL0     H57805   9.129  10.074  10.742  1.4383  1.8568  0.1446
  438MOL0     H57806   9.312   9.800  10.904 -0.3988  2.0062  1.5728
  438MOL0     H57807   9.184   9.919  10.865 -1.5720 -4.3969  0.2469
  438MOL0     H57808   9.470  10.003  10.862 -2.0182  2.0027 -3.2957
  438MOL0     H57809   9.331  10.105  10.894 -2.4174 -0.6325 -1.7755
  438MOL0     H57810   9.409   9.888  11.100  1.8486 -0.9546 -1.3181
  438MOL0     H57811   9.278  10.003  11.115  1.3311  4.4097 -2.0356
  438MOL0     H57812   9.578  10.085  11.110  0.5411  0.0697  2.1914
  438MOL0     H57813   9.425  10.189  11.112 -0.1914  0.4205  2.2522
  438MOL0     H57814   9.433  10.075  11.508 -0.5548  3.3616  0.9735
  438MOL0     H57815   9.337   9.823  10.466  2.8808  2.8839  0.8952
  438MOL0     H57816   9.199   9.888  10.290 -2.9225  0.8090  0.1403
  439MOL0     O57817  11.042   7.156   1.787  0.6130  0.2341  0.0025
  439MOL0     C57818  11.098   7.200   1.881  0.1119  0.3551 -0.0119
  439MOL0     O57819  11.040   7.218   2.009 -0.4735  0.1993  0.5743
  439MOL0     C57820  10.909   7.165   2.032 -0.2334 -0.5747  0.7912
  439MOL0     C57821  10.883   7.124   2.162 -0.5944  0.9792 -0.1892
  439MOL0     C57822  10.760   7.078   2.202 -0.2827 -0.2056  0.9056
  439MOL0     C57823  10.663   7.054   2.109 -0.1534  0.8424 -0.2452
  439MOL0     O57824  10.546   6.984   2.155 -0.0547 -0.5646  0.9637
  439MOL0     C57825  10.458   6.949   2.043 -0.8481  0.0623  0.0856
  439MOL0     C57826  10.365   6.833   2.100  0.1240  0.2925  0.5117
  439MOL0     C57827  10.247   6.894   2.187 -0.6180  0.2334  1.0376
  439MOL0     C57828  10.156   6.785   2.236 -1.2699 -0.1682 -0.6973
  439MOL0     C57829  10.023   6.842   2.284 -0.0298 -0.1607 -0.4467
  439MOL0     C57830   9.957   6.753   2.385 -0.1945 -0.3530  0.0936
  439MOL0     C57831  10.037   6.749   2.517 -0.3244  0.4394 -0.0348
  439MOL0     C57832   9.954   6.659   2.606 -0.6143 -0.1165 -0.2725
  439MOL0     N57833   9.837   6.731   2.655 -0.0737 -0.2032  0.0489
  439MOL0     C57834   9.710   6.708   2.610 -0.0606  0.0851 -0.0393
  439MOL0     C57835   9.626   6.779   2.684  0.4369 -0.3166 -0.5587
  439MOL0     C57836   9.488   6.803   2.659  0.0248 -0.4406  0.6185
  439MOL0     C57837   9.485   6.919   2.550 -0.4719 -0.3139 -0.1725
  439MOL0     C57838   9.343   6.965   2.525 -0.3556 -0.1786  0.1299
  439MOL0     C57839   9.323   7.078   2.418 -0.1938 -0.4691  0.0255
  439MOL0     O57840   9.355   7.028   2.287  0.5646  0.2794  1.2477
  439MOL0     C57841   9.337   7.126   2.183 -1.3011  0.0265 -0.2381
  439MOL0     C57842   9.227   7.202   2.173 -0.4441 -0.8177 -0.0349
  439MOL0     C57843   9.203   7.277   2.057 -0.2542  0.2125 -1.0757
  439MOL0     C57844   9.302   7.299   1.962 -0.6066 -0.4147 -0.1970
  439MOL0     C57845   9.263   7.381   1.847 -0.3185  0.4274 -0.3007
  439MOL0     O57846   9.136   7.426   1.830  1.2232 -0.3069  0.2353
  439MOL0     C57847   9.113   7.468   1.696  0.4284  0.2699  0.2475
  439MOL0     C57848   9.061   7.378   1.606 -0.2050  0.3667  0.4746
  439MOL0     C57849   9.024   7.426   1.482 -0.2104 -0.8030  0.2206
  439MOL0     C57850   9.024   7.569   1.455 -0.1808  0.2243 -0.3215
  439MOL0     O57851   8.987   7.620   1.331 -0.5596 -0.0502  0.5169
  439MOL0     C57852   8.935   7.538   1.226  0.6361 -0.4495 -0.0571
  439MOL0     C57853   8.886   7.618   1.108 -0.6932  0.5630  0.4748
  439MOL0     C57854   9.000   7.704   1.056  0.1045  0.1277  0.1015
  439MOL0     C57855   8.956   7.777   0.929  0.2786  0.6123 -0.0716
  439MOL0     C57856   9.066   7.782   0.826  0.2866  0.4190 -0.3645
  439MOL0     C57857   9.193   7.855   0.882 -0.7187 -0.6616  0.7713
  439MOL0     C57858   9.191   8.002   0.841 -0.4037 -0.0029 -0.5907
  439MOL0     C57859   9.326   8.085   0.838  0.1468  0.9672  0.1499
  439MOL0    Cl57860   9.274   8.252   0.803  0.1581 -0.1269  0.0609
  439MOL0     C57861   9.052   7.654   1.552  0.0820 -0.4074 -0.0934
  439MOL0     C57862   9.097   7.600   1.671 -0.4154 -1.2805 -0.4073
  439MOL0     O57863   9.352   7.411   1.771 -0.5171 -0.3719 -0.6612
  439MOL0     C57864   9.429   7.242   1.980  0.8726  0.4095 -0.9754
  439MOL0     C57865   9.442   7.157   2.099 -0.5873  0.6220  0.9959
  439MOL0     N57866   9.701   6.841   2.782 -0.4921  0.4294 -0.3594
  439MOL0     N57867   9.830   6.803   2.772 -0.0119 -0.5613  0.8084
  439MOL0     C57868  10.689   7.097   1.975 -0.5170  0.3184 -0.3465
  439MOL0     C57869  10.809   7.157   1.929 -0.3846  0.2489 -0.5197
  439MOL0     C57870  11.242   7.226   1.868 -0.5436  0.0864  0.3216
  439MOL0     C57871  11.325   7.248   1.981 -0.0273 -1.2905 -0.6651
  439MOL0     C57872  11.455   7.291   1.966 -0.5308  0.0142 -0.4045
  439MOL0     C57873  11.517   7.306   1.846  0.4481  0.4775  0.6479
  439MOL0     O57874  11.651   7.347   1.861  0.1538 -0.0969  0.8432
  439MOL0     C57875  11.739   7.348   1.746 -0.8038  0.9087  0.3733
  439MOL0     C57876  11.873   7.335   1.801 -0.2989  0.0648 -1.4134
  439MOL0     C57877  11.916   7.216   1.898  0.6431  0.7962  0.2833
  439MOL0     C57878  12.063   7.250   1.942  0.4809 -0.5727  0.3843
  439MOL0     C57879  12.157   7.150   1.997  0.4397 -0.3386 -0.5611
  439MOL0     C57880  12.238   7.063   2.033 -1.3319 -0.4145 -0.7525
  439MOL0     C57881  11.439   7.290   1.729 -0.4767  0.0752 -1.2160
  439MOL0     C57882  11.304   7.247   1.743 -0.6994  0.7757  0.1668
  439MOL0     H57883  10.964   7.122   2.235 -1.1257 -0.7898  0.3909
  439MOL0     H57884  10.747   7.050   2.306 -0.9139  2.6008  1.6818
  439MOL0     H57885  10.524   6.913   1.965  1.5465  2.0990  1.0449
  439MOL0     H57886  10.394   7.027   2.000 -0.0103  0.1197 -1.0976
  439MOL0     H57887  10.422   6.765   2.164 -1.2165 -0.0719  1.3509
  439MOL0     H57888  10.329   6.776   2.013  2.0381 -2.0640  1.1415
  439MOL0     H57889  10.200   6.964   2.117  2.2171  1.7469  0.4587
  439MOL0     H57890  10.288   6.941   2.276  3.2396 -1.2301  0.2573
  439MOL0     H57891  10.131   6.717   2.154 -2.0759 -0.2680 -0.3735
  439MOL0     H57892  10.201   6.733   2.321 -2.5518  0.0557  0.1547
  439MOL0     H57893   9.967   6.870   2.194 -0.2966  4.7171  0.9727
  439MOL0     H57894  10.047   6.934   2.337  1.5387 -2.7252  3.8256
  439MOL0     H57895   9.964   6.651   2.347  3.2099 -0.3132  0.2681
  439MOL0     H57896   9.856   6.783   2.413  0.4706  1.2888  0.8668
  439MOL0     H57897  10.135   6.705   2.494 -0.6230  0.9424 -2.4545
  439MOL0     H57898  10.041   6.850   2.561  0.1924  0.7223 -0.7122
  439MOL0     H57899  10.021   6.632   2.688  0.4747  0.6094 -0.8948
  439MOL0     H57900   9.928   6.568   2.551  1.5097  0.0422 -1.6580
  439MOL0     H57901   9.681   6.672   2.512  0.5947 -0.5985  0.0124
  439MOL0     H57902   9.440   6.831   2.753  0.5326  0.7334  0.5508
  439MOL0     H57903   9.442   6.712   2.620  0.2905 -1.2454  2.1456
  439MOL0     H57904   9.527   6.880   2.457  1.3521 -1.4797  1.0594
  439MOL0     H57905   9.542   7.005   2.587 -1.7971 -0.1286  1.5463
  439MOL0     H57906   9.279   6.880   2.500 -2.5033  1.2447  0.5267
  439MOL0     H57907   9.296   7.003   2.616 -2.2208  0.2105 -0.9452
  439MOL0     H57908   9.367   7.175   2.443 -1.6201  0.3899 -0.7063
  439MOL0     H57909   9.216   7.098   2.414  0.4006  3.4835 -0.0873
  439MOL0     H57910   9.149   7.184   2.246  0.0149 -1.6931  0.2531
  439MOL0     H57911   9.103   7.318   2.049 -1.0017 -1.7208 -2.0692
  439MOL0     H57912   9.050   7.279   1.650  2.0250 -0.0645  0.1584
  439MOL0     H57913   9.009   7.353   1.403  4.0813 -2.3711  0.5547
  439MOL0     H57914   8.856   7.470   1.259  0.3844 -1.0899 -1.8223
  439MOL0     H57915   9.023   7.481   1.196  1.4097  1.2547 -1.1744
  439MOL0     H57916   8.804   7.681   1.146 -1.8433 -0.2461 -0.5720
  439MOL0     H57917   8.844   7.547   1.036 -1.8832 -0.6310  2.2542
  439MOL0     H57918   9.082   7.635   1.035 -2.9284 -3.2318 -1.8905
  439MOL0     H57919   9.045   7.764   1.135 -3.0837  2.3317  0.4670
  439MOL0     H57920   8.868   7.724   0.889  0.3134 -2.0324  2.9394
  439MOL0     H57921   8.923   7.876   0.962  0.0192  0.3803  0.3837
  439MOL0     H57922   9.037   7.824   0.729 -0.2188  1.7765  0.3362
  439MOL0     H57923   9.091   7.682   0.791 -0.7142 -1.1375  2.9594
  439MOL0     H57924   9.286   7.815   0.842  0.8328  1.1264  2.4136
  439MOL0     H57925   9.201   7.839   0.990 -2.7939 -1.4589  0.8582
  439MOL0     H57926   9.160   8.003   0.736 -2.5339  2.5266 -0.0729
  439MOL0     H57927   9.118   8.057   0.902 -0.9186 -1.8093  0.4808
  439MOL0     H57928   9.388   8.043   0.758  1.6506  1.2673  1.1243
  439MOL0     H57929   9.385   8.076   0.929  1.4546 -0.9968 -0.8116
  439MOL0     H57930   9.045   7.762   1.540  4.3902 -0.1806 -2.1854
  439MOL0     H57931   9.129   7.668   1.749 -0.0373 -3.4396  1.3945
  439MOL0     H57932   9.507   7.249   1.904 -0.0889  0.5735 -1.9690
  439MOL0     H57933   9.532   7.103   2.128 -2.2341 -1.8356  1.7893
  439MOL0     H57934  10.610   7.085   1.901  0.9151 -3.3485 -1.5675
  439MOL0     H57935  10.812   7.204   1.831 -0.3878  1.2860 -0.0306
  439MOL0     H57936  11.283   7.230   2.079  3.5705 -0.7611  1.1287
  439MOL0     H57937  11.519   7.307   2.052  0.4172  0.8803 -1.2351
  439MOL0     H57938  11.727   7.437   1.684  0.4037  0.0724 -1.1129
  439MOL0     H57939  11.725   7.257   1.688  0.1161  0.0128  1.5117
  439MOL0     H57940  11.949   7.333   1.723  1.4463 -1.2318  0.2132
  439MOL0     H57941  11.891   7.428   1.857 -0.6737 -0.5072 -0.3107
  439MOL0     H57942  11.909   7.117   1.852 -0.6846  0.3325  1.4100
  439MOL0     H57943  11.842   7.211   1.978 -0.7924 -1.0934 -1.0586
  439MOL0     H57944  12.111   7.306   1.861  1.6618 -0.5320  1.0998
  439MOL0     H57945  12.046   7.322   2.022 -0.8665 -0.0648 -0.3335
  439MOL0     H57946  12.297   6.983   2.073 -1.0451 -0.1726 -0.6945
  439MOL0     H57947  11.466   7.303   1.625  2.4541 -0.7120 -0.6697
  439MOL0     H57948  11.248   7.239   1.650  2.6077  1.6921 -2.0906
  440MOL0     O57949   7.079   3.758   6.149 -0.5966 -0.5070  0.8766
  440MOL0     C57950   7.007   3.660   6.134  0.4008  0.1511 -0.8798
  440MOL0     O57951   7.029   3.536   6.182 -0.1494  0.2564 -0.7367
  440MOL0     C57952   7.135   3.500   6.261  0.1506  0.5733 -0.3185
  440MOL0     C57953   7.153   3.359   6.269  0.0063  0.5438  1.0483
  440MOL0     C57954   7.261   3.296   6.331  0.1618  0.5180 -0.7793
  440MOL0     C57955   7.359   3.384   6.406 -0.4519  0.4670  0.3183
  440MOL0     O57956   7.463   3.335   6.488 -0.4189 -0.1695  0.6336
  440MOL0     C57957   7.474   3.193   6.503  0.5050  0.4335  0.2958
  440MOL0     C57958   7.585   3.155   6.602  0.3081 -0.1442 -0.1053
  440MOL0     C57959   7.728   3.176   6.556  0.0015 -0.0713  0.7515
  440MOL0     C57960   7.822   3.112   6.653  0.4500 -0.5711 -0.1126
  440MOL0     C57961   7.966   3.165   6.640  1.0956 -0.2675  0.2177
  440MOL0     C57962   7.973   3.316   6.687 -0.4128  0.1634  0.3074
  440MOL0     C57963   8.108   3.387   6.656  0.5587 -0.3550 -0.8818
  440MOL0     C57964   8.204   3.374   6.769  0.4061 -0.4783 -0.3424
  440MOL0     N57965   8.258   3.242   6.805  0.3253 -0.4916 -0.5268
  440MOL0     C57966   8.199   3.151   6.893  0.4474 -0.0269 -0.5878
  440MOL0     C57967   8.296   3.059   6.909 -0.0401  0.4987 -0.3971
  440MOL0     C57968   8.261   2.931   6.995 -0.3859 -0.4181  1.2316
  440MOL0     C57969   8.301   2.920   7.141 -0.2316  0.0139  0.2946
  440MOL0     C57970   8.455   2.882   7.160  0.0999  0.7494 -0.0150
  440MOL0     C57971   8.515   2.897   7.300  0.2085  0.8304  0.6284
  440MOL0     O57972   8.649   2.839   7.313 -0.8533  0.3147 -0.0979
  440MOL0     C57973   8.729   2.881   7.416 -0.5043 -0.4509  0.3587
  440MOL0     C57974   8.861   2.838   7.415 -0.6983 -0.4382 -0.6946
  440MOL0     C57975   8.942   2.880   7.518 -0.0188 -0.2542  0.4953
  440MOL0     C57976   8.911   2.959   7.627  1.4746 -0.3993  0.7532
  440MOL0     C57977   9.002   2.989   7.741  0.0108 -0.4192 -0.0810
  440MOL0     O57978   8.944   3.080   7.834 -0.8222  0.1752  0.6091
  440MOL0     C57979   9.000   3.106   7.953  0.2634  0.1213 -0.8710
  440MOL0     C57980   8.974   3.228   8.016  0.3799 -0.3399 -0.0698
  440MOL0     C57981   9.026   3.257   8.149 -0.3597 -0.5805  1.2361
  440MOL0     C57982   9.103   3.163   8.220 -0.2394  1.2608 -0.0968
  440MOL0     O57983   9.150   3.170   8.351 -0.3451 -0.1161  0.0564
  440MOL0     C57984   9.144   3.306   8.408 -0.1827 -0.9440 -0.4358
  440MOL0     C57985   9.186   3.332   8.555 -0.4085  0.0620  0.6749
  440MOL0     C57986   9.121   3.461   8.606 -0.1399 -0.2060  0.1584
  440MOL0     C57987   9.189   3.524   8.734  0.3543  0.1575  0.4965
  440MOL0     C57988   9.111   3.653   8.781  0.0716  0.7937 -0.4439
  440MOL0     C57989   9.184   3.708   8.902  0.8748 -1.1156 -0.2863
  440MOL0     C57990   9.090   3.719   9.019  0.2319  0.3763  0.7155
  440MOL0     C57991   9.052   3.594   9.095 -0.2230  0.1662 -0.6091
  440MOL0    Cl57992   9.199   3.540   9.172  0.1424  0.0277 -0.1895
  440MOL0     C57993   9.141   3.043   8.148  0.7089 -0.7144 -0.8342
  440MOL0     C57994   9.095   3.026   8.024 -0.5208  0.9133 -0.0504
  440MOL0     O57995   9.110   2.937   7.744  0.4546 -0.2273  0.4173
  440MOL0     C57996   8.770   2.982   7.636 -0.7845 -1.1757 -0.4491
  440MOL0     C57997   8.680   2.954   7.533 -0.7062  0.1304  0.7986
  440MOL0     N57998   8.422   3.095   6.860  0.6985  0.7563  0.1778
  440MOL0     N57999   8.389   3.202   6.784  0.6053  0.0944  0.0236
  440MOL0     C58000   7.338   3.522   6.404 -0.0930  0.5424  1.0253
  440MOL0     C58001   7.228   3.585   6.329 -0.4775  0.1823 -0.6967
  440MOL0     C58002   6.881   3.667   6.053 -0.5761 -0.6222 -0.7452
  440MOL0     C58003   6.842   3.794   6.005 -0.4123  0.5200  0.4277
  440MOL0     C58004   6.732   3.805   5.923 -0.2366  0.2928  0.3909
  440MOL0     C58005   6.643   3.701   5.915 -0.5583  1.0661  0.4029
  440MOL0     O58006   6.516   3.715   5.860  0.3594  1.3580  0.5769
  440MOL0     C58007   6.453   3.839   5.882  0.0292 -0.2560 -0.1673
  440MOL0     C58008   6.436   3.855   6.034 -0.4709  0.3659 -0.1163
  440MOL0     C58009   6.348   3.972   6.065 -0.3094  0.1173 -0.2446
  440MOL0     C58010   6.433   4.092   6.097 -0.5442 -0.3782  0.7914
  440MOL0     C58011   6.536   4.132   6.003  0.7057  0.5871  0.0297
  440MOL0     C58012   6.625   4.175   5.935 -0.5667 -0.1095 -0.5327
  440MOL0     C58013   6.680   3.579   5.961 -0.7828 -0.5921 -0.5109
  440MOL0     C58014   6.799   3.555   6.029  0.4676  1.7372 -0.2383
  440MOL0     H58015   7.087   3.293   6.213  2.0563 -1.2300  0.5797
  440MOL0     H58016   7.278   3.189   6.323  1.3013  0.5973  0.2418
  440MOL0     H58017   7.487   3.146   6.404 -1.8658 -1.0115  0.5848
  440MOL0     H58018   7.378   3.167   6.547 -0.8210  0.9333 -2.1154
  440MOL0     H58019   7.569   3.055   6.643 -0.4048 -0.5922 -1.4286
  440MOL0     H58020   7.580   3.211   6.696  0.6877 -1.5566  0.7895
  440MOL0     H58021   7.762   3.274   6.520  1.2750 -1.6602 -2.8949
  440MOL0     H58022   7.742   3.123   6.461  3.1936  1.4037  0.2894
  440MOL0     H58023   7.806   3.131   6.760  1.3451 -1.3808  0.1800
  440MOL0     H58024   7.815   3.004   6.636  0.0163 -0.7751  1.2328
  440MOL0     H58025   7.997   3.150   6.536  1.1136  3.4551 -0.4552
  440MOL0     H58026   8.038   3.097   6.686 -0.0667 -1.7407 -0.0749
  440MOL0     H58027   7.926   3.315   6.785 -1.3733  1.4179 -0.1158
  440MOL0     H58028   7.902   3.384   6.639 -1.0490 -0.3604  0.4946
  440MOL0     H58029   8.157   3.356   6.563  1.1316  1.0929 -1.0888
  440MOL0     H58030   8.088   3.491   6.631  0.2373 -1.2101 -5.0261
  440MOL0     H58031   8.146   3.400   6.858  1.7947  0.3851  0.3368
  440MOL0     H58032   8.281   3.451   6.766 -1.9161  1.9984 -0.4354
  440MOL0     H58033   8.100   3.146   6.937 -0.4994 -1.5575 -2.7339
  440MOL0     H58034   8.309   2.846   6.946  2.2410  2.2974 -1.3077
  440MOL0     H58035   8.154   2.906   6.988 -0.2689 -0.5221 -1.0419
  440MOL0     H58036   8.236   2.842   7.182 -2.2691  1.8284  0.7053
  440MOL0     H58037   8.283   3.013   7.195 -2.9711 -1.2117  1.6948
  440MOL0     H58038   8.471   2.780   7.125  1.6718  0.7068  0.7457
  440MOL0     H58039   8.506   2.946   7.087  0.1501 -0.4855 -1.1113
  440MOL0     H58040   8.445   2.849   7.369 -0.1779 -1.7640 -1.3982
  440MOL0     H58041   8.517   3.003   7.325  0.2724  1.4064 -1.5599
  440MOL0     H58042   8.913   2.786   7.336  2.1879  1.7581 -0.4064
  440MOL0     H58043   9.043   2.849   7.493 -0.6081 -0.6358 -1.6440
  440MOL0     H58044   8.910   3.298   7.963  3.0848  1.7260 -0.8538
  440MOL0     H58045   9.004   3.346   8.207 -1.1365 -2.4276  3.9563
  440MOL0     H58046   9.055   3.367   8.390  1.2387  1.3891  0.0450
  440MOL0     H58047   9.214   3.369   8.353  1.4634 -1.6809  0.7563
  440MOL0     H58048   9.295   3.335   8.558 -0.3528 -0.0868 -0.6867
  440MOL0     H58049   9.165   3.250   8.625 -1.3586 -0.9593 -0.7643
  440MOL0     H58050   9.012   3.460   8.617 -0.0040  1.2510  2.2340
  440MOL0     H58051   9.126   3.533   8.524 -1.8722  0.7556  0.8329
  440MOL0     H58052   9.191   3.443   8.807  2.1675  0.3406  0.7070
  440MOL0     H58053   9.295   3.542   8.713  1.1259 -2.8345  1.4044
  440MOL0     H58054   9.011   3.613   8.801  1.0304 -1.8233 -0.4416
  440MOL0     H58055   9.112   3.721   8.695 -1.2678  0.3290 -0.8425
  440MOL0     H58056   9.217   3.808   8.873 -0.6216 -0.9089 -1.4339
  440MOL0     H58057   9.278   3.657   8.923  0.5978 -1.5789 -0.1503
  440MOL0     H58058   9.150   3.785   9.083  1.4105 -1.0903  1.1947
  440MOL0     H58059   9.000   3.768   8.981 -0.3788  0.7034  2.5017
  440MOL0     H58060   9.012   3.518   9.027  0.5888 -1.1842  0.3575
  440MOL0     H58061   8.970   3.622   9.161 -0.8970 -1.0593 -0.8948
  440MOL0     H58062   9.198   2.963   8.195 -1.3188 -2.2868 -0.8759
  440MOL0     H58063   9.122   2.936   7.971  1.0644 -0.2539  2.5115
  440MOL0     H58064   8.725   3.037   7.718 -0.5789  1.6458 -2.1056
  440MOL0     H58065   8.572   2.955   7.548 -1.2779 -2.2435 -2.0434
  440MOL0     H58066   7.404   3.585   6.462  1.0409  0.8460 -0.5209
  440MOL0     H58067   7.224   3.692   6.313  3.7606  0.5215 -0.4826
  440MOL0     H58068   6.907   3.879   6.023 -0.3128  0.2411  1.4015
  440MOL0     H58069   6.708   3.901   5.878  1.1723 -0.3128 -1.7796
  440MOL0     H58070   6.354   3.836   5.837 -1.0531  3.3033  1.6491
  440MOL0     H58071   6.509   3.927   5.850 -0.9868  1.8445  3.2637
  440MOL0     H58072   6.400   3.757   6.065  0.2360  0.0621 -0.2330
  440MOL0     H58073   6.529   3.864   6.091 -1.6782 -1.8896  2.4567
  440MOL0     H58074   6.273   3.946   6.140 -2.7642  2.4525 -1.6688
  440MOL0     H58075   6.298   4.009   5.975 -0.2142  3.7905  1.0487
  440MOL0     H58076   6.364   4.176   6.108  1.9727  1.6707  2.2000
  440MOL0     H58077   6.484   4.072   6.191  0.3805  2.7058  1.0574
  440MOL0     H58078   6.707   4.219   5.882  1.9475  0.7457  3.6181
  440MOL0     H58079   6.601   3.505   5.957 -1.0113 -0.3590 -0.3306
  440MOL0     H58080   6.821   3.456   6.069 -3.1620  0.7653 -0.2812
  441MOL0     O58081   3.643  10.617   5.171 -0.3162  0.1207  0.8196
  441MOL0     C58082   3.717  10.671   5.093 -0.3656  0.0640 -0.6758
  441MOL0     O58083   3.701  10.805   5.044 -0.0475 -0.1709 -0.9231
  441MOL0     C58084   3.600  10.869   5.118 -0.4862  0.0692  0.7893
  441MOL0     C58085   3.463  10.849   5.104 -0.9692 -0.3302 -0.6340
  441MOL0     C58086   3.376  10.929   5.176 -0.4075 -0.5200  0.1188
  441MOL0     C58087   3.417  11.034   5.248  0.5072 -0.7552  0.4699
  441MOL0     O58088   3.323  11.114   5.312  0.2178 -0.3857 -0.7094
  441MOL0     C58089   3.204  11.158   5.252  0.7543 -0.5820 -1.4648
  441MOL0     C58090   3.083  11.179   5.352 -0.6196  1.1774 -0.0503
  441MOL0     C58091   3.059  11.054   5.429 -0.3483  0.8175  1.1870
  441MOL0     C58092   2.946  11.081   5.522  0.2318 -0.2801 -0.1768
  441MOL0     C58093   2.804  11.086   5.455  0.2992 -0.4934 -0.7414
  441MOL0     C58094   2.756  10.947   5.396  0.5914 -0.7972 -0.9692
  441MOL0     C58095   2.610  10.948   5.335 -0.0029 -0.5670 -0.0855
  441MOL0     C58096   2.577  10.812   5.269  0.3354  0.0818  0.2009
  441MOL0     N58097   2.476  10.854   5.179  0.3571  0.0972 -0.8546
  441MOL0     C58098   2.361  10.780   5.162 -0.0927 -0.5635  0.2978
  441MOL0     C58099   2.308  10.808   5.049 -0.3276 -0.8455 -0.1936
  441MOL0     C58100   2.188  10.741   4.986 -0.0272  0.0150 -0.3565
  441MOL0     C58101   2.071  10.841   4.961 -0.0752  0.0549 -0.0792
  441MOL0     C58102   2.076  10.947   4.849 -0.1594 -0.3258  0.0090
  441MOL0     C58103   1.975  11.060   4.873  0.2513 -1.2778  0.0678
  441MOL0     O58104   1.842  11.022   4.910  0.0309 -0.0014  0.0780
  441MOL0     C58105   1.773  10.930   4.834 -0.6055 -0.0264 -0.8952
  441MOL0     C58106   1.702  10.842   4.903  0.8533  0.5700 -0.0119
  441MOL0     C58107   1.625  10.742   4.842  0.5552  0.8066 -0.8717
  441MOL0     C58108   1.621  10.732   4.703  0.4839 -0.0285 -0.5808
  441MOL0     C58109   1.541  10.630   4.628 -0.5246  0.6855 -0.5689
  441MOL0     O58110   1.501  10.665   4.502 -0.1306  0.0942  0.1043
  441MOL0     C58111   1.442  10.576   4.417 -0.1366  1.0720 -0.0850
  441MOL0     C58112   1.303  10.557   4.425 -0.8048  0.3280  0.1218
  441MOL0     C58113   1.251  10.446   4.351  0.2130  0.0128  1.2690
  441MOL0     C58114   1.325  10.370   4.255 -0.4542 -0.2115 -0.5836
  441MOL0     O58115   1.274  10.259   4.198 -1.0261  0.2051  0.3963
  441MOL0     C58116   1.299  10.254   4.056  0.0910 -0.4339 -0.1741
  441MOL0     C58117   1.209  10.139   3.991  0.0371 -0.9859  0.2916
  441MOL0     C58118   1.233  10.143   3.839 -0.3644 -0.9078  0.5847
  441MOL0     C58119   1.377  10.098   3.787  0.2626 -0.2676 -0.1967
  441MOL0     C58120   1.378  10.114   3.632 -0.4073  0.5785 -0.6043
  441MOL0     C58121   1.518  10.053   3.589 -0.3477 -0.9036 -0.0573
  441MOL0     C58122   1.520   9.900   3.572 -0.1629  0.2503 -0.0754
  441MOL0     C58123   1.657   9.851   3.538  0.0307  0.1303  0.2391
  441MOL0    Cl58124   1.707   9.874   3.358  0.4391 -0.1304  0.0625
  441MOL0     C58125   1.458  10.406   4.249 -0.2171 -0.0818  1.2187
  441MOL0     C58126   1.519  10.500   4.333  0.1287  0.0122  1.0302
  441MOL0     O58127   1.511  10.528   4.684 -0.1064  0.6245 -0.6666
  441MOL0     C58128   1.700  10.826   4.633  0.4356 -0.2152  0.4384
  441MOL0     C58129   1.782  10.922   4.694  0.1498  0.2781  0.0380
  441MOL0     N58130   2.389  10.901   4.988  0.1913 -0.5902  0.1810
  441MOL0     N58131   2.486  10.931   5.067  0.1696  0.4132 -0.7969
  441MOL0     C58132   3.556  11.054   5.258  0.8445 -0.4267 -0.7432
  441MOL0     C58133   3.645  10.966   5.200 -0.2202  0.4749 -0.1955
  441MOL0     C58134   3.840  10.598   5.052 -0.0548  0.4097  0.5524
  441MOL0     C58135   3.906  10.618   4.927  0.7073 -0.6481  0.2484
  441MOL0     C58136   4.001  10.531   4.880 -0.7114 -0.1934  0.4991
  441MOL0     C58137   4.036  10.424   4.950  0.0768  0.7798  0.3974
  441MOL0     O58138   4.138  10.343   4.898  0.1611  0.6787 -0.8321
  441MOL0     C58139   4.218  10.274   4.996  0.2056 -0.0870  0.0393
  441MOL0     C58140   4.349  10.208   4.944 -0.2346  1.2322  0.3763
  441MOL0     C58141   4.325  10.075   4.854  0.0943 -0.4809  0.1997
  441MOL0     C58142   4.384   9.940   4.894 -0.8119  0.5476  0.2939
  441MOL0     C58143   4.530   9.964   4.921  0.0089 -0.5272 -0.4897
  441MOL0     C58144   4.645   9.975   4.951 -0.4696 -1.2222 -0.5850
  441MOL0     C58145   3.967  10.396   5.070 -0.1310 -0.3028 -0.4236
  441MOL0     C58146   3.870  10.485   5.123  0.3178 -1.1155  0.1778
  441MOL0     H58147   3.422  10.781   5.031  0.0050 -2.8611  1.0496
  441MOL0     H58148   3.273  10.896   5.163 -1.3237 -0.0636  4.7006
  441MOL0     H58149   3.156  11.083   5.188 -1.2362 -0.1939 -0.4989
  441MOL0     H58150   3.225  11.249   5.195 -0.6454 -0.9202 -2.5817
  441MOL0     H58151   2.997  11.202   5.288 -2.0224 -5.7296 -1.3727
  441MOL0     H58152   3.109  11.257   5.424 -2.1388  2.8183 -1.1797
  441MOL0     H58153   3.148  11.032   5.489 -1.0811  1.9418  2.7626
  441MOL0     H58154   3.047  10.970   5.360 -0.0981  1.7674 -0.0556
  441MOL0     H58155   2.940  10.996   5.590 -1.1410 -0.3156 -0.3048
  441MOL0     H58156   2.956  11.175   5.577 -1.1120 -1.2480  1.8634
  441MOL0     H58157   2.790  11.159   5.375 -2.3802 -0.3931 -0.2758
  441MOL0     H58158   2.729  11.119   5.528  3.8910  1.6789  2.3736
  441MOL0     H58159   2.744  10.887   5.487 -2.4302  2.6452  1.1941
  441MOL0     H58160   2.833  10.911   5.327  4.1940  0.1643  2.2350
  441MOL0     H58161   2.534  10.981   5.406  0.3227 -1.3220  0.6358
  441MOL0     H58162   2.606  11.025   5.258 -0.8706 -1.2099 -0.7005
  441MOL0     H58163   2.534  10.760   5.355  2.8557 -2.3800  0.1096
  441MOL0     H58164   2.666  10.760   5.230  0.8685 -2.5441  4.2751
  441MOL0     H58165   2.341  10.684   5.209  0.8363 -2.5481 -3.0332
  441MOL0     H58166   2.150  10.671   5.061 -2.3568  0.8409 -0.6810
  441MOL0     H58167   2.225  10.689   4.896  2.1518  0.9585 -0.0810
  441MOL0     H58168   2.043  10.890   5.055 -1.8260  3.4847 -2.1499
  441MOL0     H58169   1.983  10.780   4.940  1.5208 -1.5588 -2.4905
  441MOL0     H58170   2.179  10.981   4.843 -1.2615  3.1918 -2.0764
  441MOL0     H58171   2.047  10.900   4.754 -3.0146  1.5469 -0.1644
  441MOL0     H58172   1.972  11.119   4.781  2.0650 -1.0779  0.1021
  441MOL0     H58173   2.020  11.118   4.953 -1.9630 -1.8653  1.8333
  441MOL0     H58174   1.704  10.854   5.011 -1.1178 -0.8305  0.2305
  441MOL0     H58175   1.588  10.662   4.906  0.7924  0.8512 -0.6744
  441MOL0     H58176   1.246  10.612   4.499 -0.1339 -0.5287  1.3035
  441MOL0     H58177   1.146  10.420   4.344  0.9535 -2.9064 -1.9960
  441MOL0     H58178   1.403  10.224   4.039  0.4608 -0.2495  1.5366
  441MOL0     H58179   1.273  10.353   4.018 -1.3564  0.2071  2.2663
  441MOL0     H58180   1.111  10.186   4.005  0.1031 -1.4992  2.9976
  441MOL0     H58181   1.215  10.041   4.039 -3.3153 -2.4959 -1.9147
  441MOL0     H58182   1.218  10.248   3.812 -1.1871 -1.0823  0.3447
  441MOL0     H58183   1.157  10.085   3.786 -2.6672 -0.0931  2.8104
  441MOL0     H58184   1.450  10.172   3.822  2.5840 -2.1957 -0.6765
  441MOL0     H58185   1.405   9.997   3.817  1.0484  0.3881  1.4398
  441MOL0     H58186   1.352  10.215   3.599 -1.8468 -0.0008 -1.3441
  441MOL0     H58187   1.308  10.042   3.589  3.7924 -3.0499 -2.2293
  441MOL0     H58188   1.584  10.099   3.663 -1.0936  1.0453 -0.5625
  441MOL0     H58189   1.537  10.092   3.489 -0.8311 -2.6883 -0.8788
  441MOL0     H58190   1.472   9.851   3.657  0.2380  0.4926  0.2928
  441MOL0     H58191   1.466   9.875   3.480 -0.9328 -1.1368  0.7279
  441MOL0     H58192   1.666   9.744   3.563  3.5444  0.2792  0.1655
  441MOL0     H58193   1.713   9.903   3.616 -1.7192 -0.0461  1.6694
  441MOL0     H58194   1.535  10.351   4.195  0.8913  1.8013  0.7653
  441MOL0     H58195   1.624  10.527   4.332 -0.4828  2.8678 -1.2655
  441MOL0     H58196   1.682  10.816   4.526 -1.8443 -1.2118  0.8503
  441MOL0     H58197   1.846  10.988   4.636  0.7067 -0.9899 -0.8340
  441MOL0     H58198   3.572  11.146   5.313  3.2636 -0.5545 -1.1352
  441MOL0     H58199   3.752  10.968   5.217 -0.1297  1.1102 -0.7638
  441MOL0     H58200   3.879  10.702   4.864 -1.3982 -0.9471  0.6500
  441MOL0     H58201   4.048  10.541   4.783 -2.2178  0.7819 -0.1693
  441MOL0     H58202   4.164  10.189   5.039  1.2597  0.5170  2.7847
  441MOL0     H58203   4.239  10.349   5.073  3.0543  0.7332 -1.4194
  441MOL0     H58204   4.386  10.288   4.880 -0.9902 -1.2000 -3.3654
  441MOL0     H58205   4.420  10.185   5.024 -1.4567 -1.6047  0.7604
  441MOL0     H58206   4.352  10.104   4.752 -2.4118  0.3769 -0.2876
  441MOL0     H58207   4.217  10.057   4.845 -0.0415  0.3546  0.0511
  441MOL0     H58208   4.339   9.892   4.982  1.8667  0.3106  1.6508
  441MOL0     H58209   4.369   9.865   4.816 -1.1251  2.7473 -1.8670
  441MOL0     H58210   4.739   9.998   4.998 -1.9817 -2.3427  3.3939
  441MOL0     H58211   4.011  10.314   5.127  2.1756  2.4013  2.0407
  441MOL0     H58212   3.825  10.472   5.220 -0.3591  1.7898  0.3370
  442MOL0     O58213  10.245   9.882  10.653  0.2416  0.3192  0.6125
  442MOL0     C58214  10.325   9.858  10.562  0.2910 -0.0963  1.1061
  442MOL0     O58215  10.425   9.956  10.522 -0.1096 -0.1619  0.0688
  442MOL0     C58216  10.435  10.073  10.577  0.0699  0.2924 -0.2110
  442MOL0     C58217  10.516  10.096  10.688 -0.7736 -0.1541  0.3375
  442MOL0     C58218  10.531  10.225  10.745 -0.2985  0.1519  0.9551
  442MOL0     C58219  10.446  10.329  10.688  0.7527  0.8773 -0.3099
  442MOL0     O58220  10.470  10.451  10.745  0.1375  0.0830  0.8994
  442MOL0     C58221  10.441  10.467  10.879  0.0191  0.1238  0.0285
  442MOL0     C58222  10.384  10.601  10.909 -0.2039  0.1476 -0.0013
  442MOL0     C58223  10.358  10.611  11.052  0.5453 -0.0451  0.4070
  442MOL0     C58224  10.327  10.754  11.096  0.1429 -0.2614 -0.5644
  442MOL0     C58225  10.253  10.775  11.229 -1.0967 -0.1786 -1.4028
  442MOL0     C58226  10.339  10.765  11.356 -0.5896 -0.4822  1.0602
  442MOL0     C58227  10.239  10.770  11.473 -0.4393 -0.0148 -1.0288
  442MOL0     C58228  10.281  10.845  11.600 -0.1286 -0.7848  0.5194
  442MOL0     N58229  10.296  10.996  11.588 -0.4389  0.7571  0.1175
  442MOL0     C58230  10.193  11.076  11.592  0.0097 -0.6438 -0.5468
  442MOL0     C58231  10.240  11.201  11.563  0.2516 -0.5350 -0.0777
  442MOL0     C58232  10.141  11.313  11.528  0.6251 -0.6191 -0.3382
  442MOL0     C58233  10.169  11.364  11.390  0.0910 -0.3297  0.0421
  442MOL0     C58234  10.094  11.490  11.364 -0.0825 -0.0929 -0.3319
  442MOL0     C58235  10.118  11.535  11.217  1.0238  0.0957  0.2671
  442MOL0     O58236  10.051  11.455  11.115  0.0330  0.0631  0.1396
  442MOL0     C58237  10.018  11.504  10.988 -0.6400  0.6722 -0.5570
  442MOL0     C58238  10.079  11.611  10.930  0.8088 -0.9716  0.8834
  442MOL0     C58239  10.053  11.637  10.790 -0.6509  0.8482 -0.4474
  442MOL0     C58240   9.987  11.546  10.707 -1.2756 -0.2297 -0.2128
  442MOL0     C58241   9.968  11.584  10.569 -0.4671 -0.0696  0.4211
  442MOL0     O58242   9.990  11.713  10.535 -0.1854  0.5598 -0.4117
  442MOL0     C58243  10.004  11.739  10.407 -0.4836  0.4467  0.3970
  442MOL0     C58244   9.911  11.823  10.344  0.8313  0.4567 -0.8038
  442MOL0     C58245   9.936  11.860  10.210  0.5444 -0.2553  0.3162
  442MOL0     C58246  10.051  11.829  10.135  0.2501  0.2556 -0.8819
  442MOL0     O58247  10.055  11.878  10.006  0.0805  0.5076 -0.8798
  442MOL0     C58248  10.062  11.792   9.905 -0.5622  1.0052  0.9922
  442MOL0     C58249  10.011  11.849   9.769  0.9741  0.3118 -0.5041
  442MOL0     C58250  10.070  11.993   9.733 -0.6497  0.1567 -1.3541
  442MOL0     C58251  10.016  12.050   9.602 -0.6157 -0.6418 -0.7590
  442MOL0     C58252  10.079  12.189   9.561 -0.1101 -0.2269 -1.1310
  442MOL0     C58253  10.003  12.246   9.442 -0.4288  0.1571 -0.5469
  442MOL0     C58254   9.994  12.150   9.325 -0.2257  0.0762  0.3736
  442MOL0     C58255   9.981  12.217   9.190 -0.3454  0.5662  0.5401
  442MOL0    Cl58256   9.836  12.321   9.183  0.2136 -0.0493 -0.1840
  442MOL0     C58257  10.131  11.740  10.199 -0.3047 -0.1582 -0.6235
  442MOL0     C58258  10.110  11.696  10.338 -0.1537  0.7649 -0.0927
  442MOL0     O58259   9.928  11.503  10.488 -0.5598 -0.2815  0.1891
  442MOL0     C58260   9.927  11.429  10.766 -0.0881  0.7385 -0.0172
  442MOL0     C58261   9.951  11.411  10.901 -0.5158  0.3979 -0.1720
  442MOL0     N58262  10.383  11.184  11.549  0.2131 -0.0520 -0.2520
  442MOL0     N58263  10.411  11.061  11.564  0.5067 -0.0737 -0.8557
  442MOL0     C58264  10.364  10.301  10.579 -0.0713 -0.5066 -0.7021
  442MOL0     C58265  10.360  10.177  10.520 -0.4575 -0.1395  0.1411
  442MOL0     C58266  10.314   9.723  10.490  0.1825  0.4297 -0.4670
  442MOL0     C58267  10.398   9.680  10.382  0.3736  0.3160  0.3526
  442MOL0     C58268  10.369   9.566  10.310  0.4475  0.7802  0.1075
  442MOL0     C58269  10.261   9.484  10.345  0.5383  0.2188  0.7853
  442MOL0     O58270  10.224   9.367  10.277  0.4804  0.2108 -0.4997
  442MOL0     C58271  10.305   9.312  10.167  0.4642 -0.0201 -0.0136
  442MOL0     C58272  10.241   9.176  10.145 -0.3721 -0.1441 -0.3572
  442MOL0     C58273  10.326   9.082  10.060 -0.2446  0.6232 -0.7372
  442MOL0     C58274  10.260   8.934  10.050 -0.4249 -0.3152 -0.1134
  442MOL0     C58275  10.342   8.844   9.978 -0.0678  0.1770 -0.2234
  442MOL0     C58276  10.412   8.763   9.917  0.3536  0.2592 -0.4832
  442MOL0     C58277  10.182   9.523  10.453 -0.1030  0.2405 -0.2363
  442MOL0     C58278  10.207   9.639  10.521  0.1199  0.9100  0.3060
  442MOL0     H58279  10.577  10.012  10.719 -0.9215 -2.1798 -4.1681
  442MOL0     H58280  10.591  10.233  10.835 -0.4111  1.9831  0.9018
  442MOL0     H58281  10.522  10.452  10.951 -2.5745  0.5835  3.2942
  442MOL0     H58282  10.363  10.395  10.905 -1.6436  1.0038 -2.2598
  442MOL0     H58283  10.290  10.597  10.852 -0.2462 -2.5212  0.1593
  442MOL0     H58284  10.451  10.681  10.876  0.7796 -0.7087 -0.0930
  442MOL0     H58285  10.448  10.573  11.101 -0.2722  0.2643  2.2753
  442MOL0     H58286  10.273  10.547  11.082  1.5976 -0.7079  2.1207
  442MOL0     H58287  10.424  10.804  11.107  0.0605 -0.1711 -0.2596
  442MOL0     H58288  10.269  10.800  11.015  0.9472  0.9445 -0.4947
  442MOL0     H58289  10.170  10.704  11.231  2.3913 -4.6404 -1.0550
  442MOL0     H58290  10.196  10.869  11.225 -1.7787 -0.6044 -1.9235
  442MOL0     H58291  10.389  10.863  11.353 -0.3212 -0.6194 -2.0659
  442MOL0     H58292  10.420  10.692  11.357  3.1842  3.2785  1.5580
  442MOL0     H58293  10.141  10.808  11.445 -2.4686  0.7947  5.3768
  442MOL0     H58294  10.230  10.666  11.506  1.4753 -0.0859 -0.5916
  442MOL0     H58295  10.375  10.804  11.639  0.2800  1.4784  2.0932
  442MOL0     H58296  10.196  10.836  11.667 -0.1742 -2.5260  0.2764
  442MOL0     H58297  10.089  11.048  11.597 -0.7477  1.9940  0.0310
  442MOL0     H58298  10.135  11.386  11.609  3.3465 -0.0520 -0.5338
  442MOL0     H58299  10.037  11.280  11.519 -0.0625  1.8765 -4.7845
  442MOL0     H58300  10.135  11.292  11.315 -0.7685  2.4123 -2.4322
  442MOL0     H58301  10.274  11.386  11.372  0.7362 -1.7435  1.8422
  442MOL0     H58302   9.989  11.471  11.389  0.3948 -0.5919  1.4557
  442MOL0     H58303  10.121  11.575  11.427 -0.8540  0.9478 -1.3579
  442MOL0     H58304  10.225  11.537  11.191  0.6434 -1.6995 -1.6969
  442MOL0     H58305  10.085  11.639  11.206 -1.9239 -0.9665 -1.8416
  442MOL0     H58306  10.125  11.684  10.996 -1.8732 -1.0026  2.9957
  442MOL0     H58307  10.091  11.727  10.742 -0.9105  1.2885  0.1496
  442MOL0     H58308   9.819  11.849  10.396 -0.1350 -1.3341 -1.5321
  442MOL0     H58309   9.860  11.919  10.160 -0.0054 -0.7577  0.5402
  442MOL0     H58310  10.006  11.700   9.924  0.8146  0.0084  0.4243
  442MOL0     H58311  10.160  11.744   9.895 -1.5965 -1.8948  3.3435
  442MOL0     H58312   9.904  11.862   9.786  1.2453  1.2046  0.7310
  442MOL0     H58313  10.024  11.777   9.688 -3.0760 -0.5683 -0.5786
  442MOL0     H58314  10.179  11.994   9.732 -0.3839  1.1645  3.2961
  442MOL0     H58315  10.051  12.056   9.821  2.1968  0.0073 -0.5282
  442MOL0     H58316  10.037  11.969   9.532 -2.5950 -3.2929  1.4762
  442MOL0     H58317   9.910  12.069   9.619  0.0203  2.3419  0.4495
  442MOL0     H58318  10.187  12.182   9.545  0.3705 -0.5340  1.7336
  442MOL0     H58319  10.075  12.261   9.643 -1.3571  1.2843 -2.4636
  442MOL0     H58320  10.046  12.341   9.410 -2.6112  2.5818  3.0445
  442MOL0     H58321   9.901  12.267   9.474 -0.1663  2.3853 -0.9760
  442MOL0     H58322  10.085  12.091   9.310  0.1454  0.9537 -1.0655
  442MOL0     H58323   9.916  12.074   9.332 -0.2806  0.0040 -0.7602
  442MOL0     H58324   9.973  12.134   9.120  2.0574  1.1096 -0.4775
  442MOL0     H58325  10.079  12.264   9.176  1.2705 -2.1892  1.7526
  442MOL0     H58326  10.228  11.714  10.157 -0.0811 -0.3661  0.0129
  442MOL0     H58327  10.179  11.633  10.393 -0.0918 -0.5041 -1.5558
  442MOL0     H58328   9.880  11.348  10.710  0.9873  0.4679 -0.5529
  442MOL0     H58329   9.914  11.328  10.960  2.5972 -1.3103 -0.3589
  442MOL0     H58330  10.311  10.388  10.540 -1.6447 -0.3849  1.5488
  442MOL0     H58331  10.293  10.165  10.436 -0.9753  1.3992  0.3165
  442MOL0     H58332  10.485   9.737  10.350  0.2088 -0.4166 -1.5250
  442MOL0     H58333  10.447   9.542  10.239  0.0554  1.4195 -0.5426
  442MOL0     H58334  10.405   9.303  10.209  0.3139 -0.2952  0.2949
  442MOL0     H58335  10.302   9.380  10.082 -0.0139 -0.0143  0.0004
  442MOL0     H58336  10.231   9.131  10.244 -1.0834  1.1972  0.2109
  442MOL0     H58337  10.141   9.202  10.109  0.3784  0.6581 -1.9364
  442MOL0     H58338  10.426   9.075  10.105 -0.3195  3.4587  0.0288
  442MOL0     H58339  10.338   9.114   9.956 -1.5705  2.4740 -0.3574
  442MOL0     H58340  10.261   8.893  10.151 -1.1182  1.7341  0.7838
  442MOL0     H58341  10.155   8.945  10.022 -0.5450 -0.0537  0.4331
  442MOL0     H58342  10.467   8.685   9.868  2.0194  2.5563 -2.4676
  442MOL0     H58343  10.095   9.465  10.482  0.7213 -0.7822  0.2607
  442MOL0     H58344  10.128   9.659  10.592  1.4885 -0.0184  2.1702
  443MOL0     O58345   9.907  11.221   4.274  0.2245  0.2988  0.5366
  443MOL0     C58346  10.004  11.156   4.319 -0.5582 -0.0495 -0.1717
  443MOL0     O58347  10.077  11.174   4.426 -0.5473  0.3216 -0.2389
  443MOL0     C58348  10.050  11.272   4.516 -0.1476 -0.5513 -0.2088
  443MOL0     C58349  10.152  11.379   4.522 -0.4522 -0.1697 -1.3032
  443MOL0     C58350  10.141  11.472   4.625 -0.1718 -0.7439  0.7675
  443MOL0     C58351  10.028  11.473   4.710 -0.7442 -0.1731  0.5557
  443MOL0     O58352  10.020  11.544   4.822 -0.0654  0.1047  0.3241
  443MOL0     C58353  10.106  11.649   4.853 -0.0855  0.9176  0.3483
  443MOL0     C58354  10.042  11.766   4.799  0.1040 -0.3714  0.2835
  443MOL0     C58355  10.114  11.878   4.846 -0.7109 -0.1201 -0.7359
  443MOL0     C58356  10.050  12.009   4.782 -0.2483 -0.0240 -0.5221
  443MOL0     C58357  10.114  12.140   4.820  0.5448 -0.3157  0.7654
  443MOL0     C58358  10.029  12.250   4.748 -0.2552  1.3662  0.6735
  443MOL0     C58359  10.020  12.249   4.594  1.1232  0.7105  0.1868
  443MOL0     C58360   9.995  12.394   4.546 -0.8656  0.4880 -0.3822
  443MOL0     N58361   9.866  12.453   4.579 -0.5758  0.4801 -0.3604
  443MOL0     C58362   9.841  12.547   4.671 -0.2691 -0.4745 -0.3765
  443MOL0     C58363   9.703  12.568   4.654 -0.2267  0.1932  0.2098
  443MOL0     C58364   9.620  12.664   4.739  0.0850 -0.8054 -0.0385
  443MOL0     C58365   9.662  12.809   4.706 -0.6185 -0.1036 -0.3513
  443MOL0     C58366   9.572  12.894   4.788  0.1903 -0.5755  0.4573
  443MOL0     C58367   9.429  12.912   4.729 -0.6408  0.4280  0.0599
  443MOL0     O58368   9.418  12.973   4.598 -0.5597  0.0080 -0.2198
  443MOL0     C58369   9.393  13.105   4.570  1.3607 -0.2387 -0.2297
  443MOL0     C58370   9.427  13.212   4.658 -0.4034 -0.2809 -0.6134
  443MOL0     C58371   9.379  13.348   4.642 -0.0248 -0.4648  0.2526
  443MOL0     C58372   9.299  13.375   4.529 -0.5971  0.6038 -0.3555
  443MOL0     C58373   9.251  13.512   4.509  0.4397 -0.4630  0.2481
  443MOL0     O58374   9.178  13.540   4.397 -0.6956 -0.3700  0.9401
  443MOL0     C58375   9.096  13.647   4.395 -0.2927 -0.7406 -0.9151
  443MOL0     C58376   9.101  13.739   4.284  0.0870  0.0524 -0.6161
  443MOL0     C58377   9.022  13.850   4.279 -0.0926  0.5986 -0.3435
  443MOL0     C58378   8.919  13.875   4.377 -0.9266 -0.7064 -0.0534
  443MOL0     O58379   8.814  13.968   4.374 -0.7267 -1.2409  0.3048
  443MOL0     C58380   8.773  14.006   4.240  0.2307  0.3720  0.2664
  443MOL0     C58381   8.665  14.105   4.280 -0.6162  0.1456  0.2777
  443MOL0     C58382   8.530  14.031   4.304 -0.2563 -0.1288 -0.6534
  443MOL0     C58383   8.402  14.110   4.255  0.1677 -1.2937 -0.0565
  443MOL0     C58384   8.264  14.037   4.256  0.1015  1.2126  0.0637
  443MOL0     C58385   8.154  14.117   4.201 -0.0485  0.1844 -0.6346
  443MOL0     C58386   8.021  14.054   4.249 -0.1507  0.3120  0.7843
  443MOL0     C58387   7.897  14.127   4.198  0.9941 -0.3548  0.6816
  443MOL0    Cl58388   7.756  14.021   4.197 -0.2898 -0.2946 -0.0191
  443MOL0     C58389   8.911  13.788   4.489  1.1672  0.6286  0.1667
  443MOL0     C58390   8.998  13.678   4.499  0.2746  0.4378  0.6384
  443MOL0     O58391   9.277  13.599   4.600  0.2978 -0.1435 -0.1582
  443MOL0     C58392   9.273  13.275   4.438 -0.6620 -0.6927  1.2751
  443MOL0     C58393   9.327  13.149   4.455 -0.0174 -0.5792 -0.7287
  443MOL0     N58394   9.661  12.481   4.556 -0.4459  0.3126  0.4885
  443MOL0     N58395   9.761  12.413   4.510  1.1201 -1.1651 -0.8447
  443MOL0     C58396   9.929  11.371   4.698 -0.4935 -0.6422 -0.5327
  443MOL0     C58397   9.940  11.272   4.595 -0.3185  0.1377  0.4678
  443MOL0     C58398  10.059  11.037   4.234  0.4762 -0.2552  0.1741
  443MOL0     C58399  10.193  10.998   4.229 -0.1577 -0.3822  0.3078
  443MOL0     C58400  10.234  10.880   4.154  0.6303  0.0740 -0.6529
  443MOL0     C58401  10.145  10.817   4.068 -0.2971 -1.2641  0.3010
  443MOL0     O58402  10.200  10.710   3.995  0.2738  0.1786  0.0548
  443MOL0     C58403  10.125  10.621   3.913  0.5395 -0.1327 -0.5241
  443MOL0     C58404  10.059  10.524   4.010  0.2290  0.6806  0.4926
  443MOL0     C58405  10.146  10.416   4.059 -0.0479 -0.2327 -0.0658
  443MOL0     C58406  10.080  10.322   4.158  1.2336 -0.1042  0.3462
  443MOL0     C58407  10.038  10.379   4.284 -0.6259 -0.6369 -0.1871
  443MOL0     C58408  10.013  10.433   4.394  0.8985  0.7606 -0.1456
  443MOL0     C58409  10.009  10.861   4.068  0.4814  0.2130 -0.4144
  443MOL0     C58410   9.970  10.963   4.158 -0.0260 -0.1056 -0.5502
  443MOL0     H58411  10.241  11.380   4.459 -1.9727  0.0373 -3.5869
  443MOL0     H58412  10.221  11.540   4.654  2.9799 -4.4623  1.6678
  443MOL0     H58413  10.207  11.631   4.816  0.0366  2.1515  0.0448
  443MOL0     H58414  10.107  11.656   4.962  1.8142  0.3759  0.3972
  443MOL0     H58415   9.941  11.773   4.839  0.3890  1.5233  0.7697
  443MOL0     H58416  10.034  11.756   4.690  0.4875 -2.2107  0.3830
  443MOL0     H58417  10.220  11.872   4.819  0.8023 -1.2063  4.4709
  443MOL0     H58418  10.113  11.894   4.954  2.1094  0.3263 -0.6941
  443MOL0     H58419  10.042  11.996   4.674 -2.2208  0.1295 -0.4267
  443MOL0     H58420   9.946  12.022   4.812  0.1047 -0.0995  0.8075
  443MOL0     H58421  10.213  12.143   4.773  0.0101  2.1850 -0.4032
  443MOL0     H58422  10.119  12.167   4.926 -1.0508  0.4621  0.6776
  443MOL0     H58423  10.079  12.342   4.778  0.3597  2.6889 -3.7902
  443MOL0     H58424   9.925  12.254   4.781 -0.6919  2.8067 -0.7897
  443MOL0     H58425  10.116  12.217   4.553  0.0468 -1.5148 -0.7962
  443MOL0     H58426   9.941  12.181   4.560 -0.1631  1.8752  0.7373
  443MOL0     H58427  10.000  12.379   4.438  2.4262 -0.2081 -0.2411
  443MOL0     H58428  10.081  12.452   4.583 -0.2685 -0.9985  0.6561
  443MOL0     H58429   9.909  12.601   4.736 -1.2859  0.4684 -0.0615
  443MOL0     H58430   9.620  12.627   4.842 -0.1216  2.5955  1.3031
  443MOL0     H58431   9.517  12.666   4.703 -0.4779  2.1643  1.3943
  443MOL0     H58432   9.659  12.835   4.600  0.7668  1.6026 -0.0282
  443MOL0     H58433   9.768  12.828   4.729  0.2378 -2.5702 -1.9292
  443MOL0     H58434   9.554  12.858   4.890 -4.3734 -1.0275 -0.2713
  443MOL0     H58435   9.619  12.993   4.797 -2.1750  0.5015  2.5147
  443MOL0     H58436   9.370  12.982   4.788  1.3739 -0.7415  3.7684
  443MOL0     H58437   9.375  12.817   4.730 -0.0904 -0.0371 -3.2732
  443MOL0     H58438   9.492  13.194   4.742 -2.5550 -1.5018  0.8873
  443MOL0     H58439   9.398  13.432   4.709  0.3097  0.0678 -0.4942
  443MOL0     H58440   9.167  13.712   4.202  0.2594 -1.0195 -0.1446
  443MOL0     H58441   9.031  13.906   4.186  0.1381  2.2514  0.6299
  443MOL0     H58442   8.733  13.921   4.184  0.8524  1.4988 -2.0036
  443MOL0     H58443   8.854  14.048   4.180 -0.0910 -0.2772 -0.6399
  443MOL0     H58444   8.648  14.177   4.200  1.1092  1.5435  1.0954
  443MOL0     H58445   8.695  14.170   4.363  1.3936  1.9403 -1.7288
  443MOL0     H58446   8.537  13.999   4.409  2.2565 -1.0077 -1.0212
  443MOL0     H58447   8.538  13.938   4.247  4.3421 -1.7034  2.0389
  443MOL0     H58448   8.393  14.189   4.330 -4.6209 -2.6494  1.1323
  443MOL0     H58449   8.416  14.162   4.159 -0.7430  1.3749  1.1670
  443MOL0     H58450   8.256  14.012   4.362 -0.8627  2.3460  0.2768
  443MOL0     H58451   8.263  13.944   4.198 -0.1566 -1.2259  3.6456
  443MOL0     H58452   8.153  14.141   4.094  0.8175  3.5640 -0.0227
  443MOL0     H58453   8.157  14.216   4.248 -1.5801 -1.5944  3.6786
  443MOL0     H58454   8.025  13.951   4.213 -0.5405  1.5767 -3.4243
  443MOL0     H58455   8.015  14.060   4.358  0.3776 -2.3594  1.0288
  443MOL0     H58456   7.898  14.157   4.093 -0.0451  1.3780  1.1292
  443MOL0     H58457   7.871  14.221   4.246 -0.6534 -1.3776  1.9040
  443MOL0     H58458   8.821  13.795   4.548 -0.6892 -0.5161 -2.3552
  443MOL0     H58459   8.990  13.608   4.581 -0.7175 -1.7950 -1.2594
  443MOL0     H58460   9.218  13.293   4.346  1.6061  0.8387  0.1282
  443MOL0     H58461   9.295  13.072   4.385 -5.5133  2.3604 -2.0630
  443MOL0     H58462   9.843  11.376   4.764  0.4457 -1.6614  0.8270
  443MOL0     H58463   9.859  11.202   4.582  0.3016 -0.7518  1.2304
  443MOL0     H58464  10.261  11.061   4.284 -0.8871 -0.0791  0.8832
  443MOL0     H58465  10.338  10.849   4.152  0.2226 -1.3254 -1.9277
  443MOL0     H58466  10.174  10.562   3.834  1.1881 -0.2574 -0.0338
  443MOL0     H58467  10.054  10.682   3.857  1.6046  0.2240 -1.5321
  443MOL0     H58468  10.033  10.577   4.102  2.4843  1.5406  0.6934
  443MOL0     H58469   9.975  10.488   3.950  3.4313 -2.1829 -2.7666
  443MOL0     H58470  10.226  10.461   4.120 -0.2138  1.3154 -0.9353
  443MOL0     H58471  10.193  10.365   3.975  3.3652 -1.6859  2.4561
  443MOL0     H58472   9.994  10.277   4.108  1.3638  2.6071 -2.5814
  443MOL0     H58473  10.154  10.248   4.189  1.0073  0.0674  1.3387
  443MOL0     H58474   9.989  10.493   4.480  2.8858  0.5734  0.6035
  443MOL0     H58475   9.943  10.804   4.004 -0.2371  1.1287 -0.5013
  443MOL0     H58476   9.863  10.977   4.163 -0.1623 -1.4281  1.2432
  444MOL0     O58477  10.545   9.492   2.269 -0.3265 -0.2220  0.2423
  444MOL0     C58478  10.540   9.372   2.278 -0.2779  0.1885 -0.5982
  444MOL0     O58479  10.520   9.306   2.400 -0.4864 -0.7369  0.1533
  444MOL0     C58480  10.530   9.386   2.519  0.0520  0.6796  0.9860
  444MOL0     C58481  10.646   9.378   2.597  0.4934  0.2874 -0.9739
  444MOL0     C58482  10.669   9.462   2.704  0.2609 -0.0277 -0.3484
  444MOL0     C58483  10.565   9.546   2.741  0.6355  0.5758 -0.4320
  444MOL0     O58484  10.564   9.638   2.849 -0.3151 -0.4244 -0.3403
  444MOL0     C58485  10.679   9.639   2.936 -0.1874  0.1264  0.3872
  444MOL0     C58486  10.651   9.743   3.041  0.5490  0.4023 -1.2938
  444MOL0     C58487  10.631   9.891   2.977 -0.2033  0.2323 -0.0535
  444MOL0     C58488  10.641   9.994   3.097  0.4288 -0.7904  0.7246
  444MOL0     C58489  10.614  10.138   3.042  0.1948 -0.0147 -1.6058
  444MOL0     C58490  10.709  10.185   2.932  0.0350  0.4363 -0.1196
  444MOL0     C58491  10.675  10.325   2.885  0.5794 -0.5459 -0.4605
  444MOL0     C58492  10.620  10.323   2.737 -0.3224 -0.5955  0.2372
  444MOL0     N58493  10.476  10.272   2.737  0.1959 -0.1312  0.0461
  444MOL0     C58494  10.443  10.141   2.722 -0.0417 -0.2529 -0.2692
  444MOL0     C58495  10.314  10.135   2.763  0.1017  0.1655  0.5820
  444MOL0     C58496  10.220  10.024   2.789 -0.0498  0.2240  1.1949
  444MOL0     C58497  10.152   9.962   2.669 -0.7713  0.2869 -0.0592
  444MOL0     C58498  10.025   9.893   2.708  0.6851  0.2227  0.3070
  444MOL0     C58499   9.961   9.806   2.592  0.1858 -0.8573  0.0289
  444MOL0     O58500  10.063   9.711   2.552  0.3306  0.1021 -1.0512
  444MOL0     C58501  10.028   9.582   2.590  0.3961  0.0922  0.0394
  444MOL0     C58502  10.067   9.484   2.503  0.4693 -0.0484  0.1610
  444MOL0     C58503  10.040   9.349   2.525  0.5451 -0.1519  0.1542
  444MOL0     C58504   9.967   9.319   2.644 -0.5770  0.1044  0.0787
  444MOL0     C58505   9.916   9.187   2.667  0.4978  0.0480 -0.3634
  444MOL0     O58506   9.929   9.102   2.576  0.3144 -0.3282  0.4287
  444MOL0     C58507   9.936   8.970   2.606  0.1119  0.2579  0.2655
  444MOL0     C58508  10.000   8.913   2.721  1.0510 -0.2840 -0.8972
  444MOL0     C58509  10.007   8.777   2.730 -0.0650 -0.0490 -0.8264
  444MOL0     C58510   9.989   8.697   2.614  0.8055 -0.9486  0.0966
  444MOL0     O58511  10.019   8.569   2.631  0.0021 -0.7466  0.2247
  444MOL0     C58512  10.046   8.480   2.525 -0.6086 -0.1067  0.4008
  444MOL0     C58513  10.198   8.490   2.479 -0.8274  0.1726 -0.2802
  444MOL0     C58514  10.268   8.352   2.456 -0.3407  1.0758 -1.1403
  444MOL0     C58515  10.237   8.292   2.317 -0.6478  0.3372  0.2932
  444MOL0     C58516  10.361   8.215   2.275 -0.2342  0.0218 -0.0251
  444MOL0     C58517  10.388   8.090   2.358 -0.0331 -0.7588 -0.8658
  444MOL0     C58518  10.486   7.994   2.290 -0.0109  0.6867  0.1440
  444MOL0     C58519  10.477   7.860   2.363  0.3367 -0.2150  0.6110
  444MOL0    Cl58520  10.409   7.740   2.258  0.0336  0.3210  0.1808
  444MOL0     C58521   9.934   8.753   2.495  0.2311  0.2188 -1.3195
  444MOL0     C58522   9.901   8.887   2.493  0.1326 -0.2911  0.5604
  444MOL0     O58523   9.872   9.164   2.779  0.4023 -0.3705 -0.2543
  444MOL0     C58524   9.938   9.416   2.731 -0.2307  0.2325 -0.6875
  444MOL0     C58525   9.972   9.541   2.711 -0.6450 -0.2141  0.0273
  444MOL0     N58526  10.270  10.275   2.784  0.0727  0.3651  0.2915
  444MOL0     N58527  10.373  10.353   2.778 -0.0480  0.4008  0.0910
  444MOL0     C58528  10.442   9.544   2.678 -0.1309  0.1754  0.1253
  444MOL0     C58529  10.429   9.470   2.561  0.7142  0.4229  0.1981
  444MOL0     C58530  10.567   9.282   2.163 -0.0364 -0.2634 -1.0795
  444MOL0     C58531  10.537   9.339   2.047 -0.1104 -0.7401 -0.4270
  444MOL0     C58532  10.572   9.270   1.931 -0.2772 -0.5844 -0.4046
  444MOL0     C58533  10.620   9.141   1.928 -0.1173  0.0353  0.5487
  444MOL0     O58534  10.639   9.074   1.809  0.4148  0.0001 -0.4055
  444MOL0     C58535  10.655   8.935   1.812 -0.6708  0.0509 -0.4970
  444MOL0     C58536  10.692   8.900   1.665  0.3995 -0.8126 -0.8428
  444MOL0     C58537  10.569   8.935   1.577  0.0559  0.7055 -0.0723
  444MOL0     C58538  10.582   8.852   1.456  0.0154  0.2596 -0.4358
  444MOL0     C58539  10.449   8.854   1.390  0.4767  0.9513  0.7221
  444MOL0     C58540  10.333   8.848   1.353 -0.1830  0.3608 -0.3123
  444MOL0     C58541  10.648   9.080   2.046 -0.0531  0.1618  0.0377
  444MOL0     C58542  10.628   9.160   2.166  1.5541  1.0026 -1.0964
  444MOL0     H58543  10.730   9.317   2.565  0.2123 -0.2006 -0.7869
  444MOL0     H58544  10.759   9.463   2.764 -0.7582 -1.3575  1.2766
  444MOL0     H58545  10.763   9.670   2.873 -1.0721 -0.0491 -0.9167
  444MOL0     H58546  10.687   9.541   2.983 -4.9173 -0.5873  0.2652
  444MOL0     H58547  10.724   9.734   3.123 -0.4040 -0.0474 -0.4835
  444MOL0     H58548  10.556   9.718   3.088 -0.3035  1.1522 -2.5508
  444MOL0     H58549  10.532   9.891   2.930 -0.4962 -0.5106  0.5368
  444MOL0     H58550  10.705   9.926   2.904  2.9560  0.4893  3.0400
  444MOL0     H58551  10.568   9.973   3.175 -1.5260  0.4094 -0.6710
  444MOL0     H58552  10.742   9.985   3.137  0.7126  2.7094  1.1572
  444MOL0     H58553  10.618  10.207   3.127  1.4858  0.4513 -2.0281
  444MOL0     H58554  10.513  10.134   2.999 -0.5498 -2.8150  0.1275
  444MOL0     H58555  10.704  10.112   2.851 -2.9127 -0.3317  0.6460
  444MOL0     H58556  10.805  10.182   2.984  0.2848 -1.4224 -0.6298
  444MOL0     H58557  10.600  10.368   2.954  2.0793  2.8081 -0.7200
  444MOL0     H58558  10.763  10.390   2.891  0.4815 -0.1455 -2.7408
  444MOL0     H58559  10.679  10.255   2.675 -0.6513 -1.0906  0.4672
  444MOL0     H58560  10.624  10.422   2.689  0.5487 -1.3250 -1.2653
  444MOL0     H58561  10.516  10.070   2.687  1.8068  1.5158 -0.1989
  444MOL0     H58562  10.141  10.060   2.856 -0.4920 -0.6803  1.1763
  444MOL0     H58563  10.271   9.941   2.839 -0.6092 -0.3900  0.7623
  444MOL0     H58564  10.221   9.890   2.626 -0.9406 -0.4225  0.8324
  444MOL0     H58565  10.126  10.034   2.591 -2.5521 -0.4927 -0.2390
  444MOL0     H58566  10.044   9.829   2.794 -0.7144  0.6151  0.9215
  444MOL0     H58567   9.948   9.962   2.743  1.0832 -0.6376  3.1127
  444MOL0     H58568   9.932   9.871   2.509  0.1385 -2.0000 -0.8788
  444MOL0     H58569   9.871   9.759   2.635  1.6853 -2.9312  1.0901
  444MOL0     H58570  10.110   9.511   2.408 -0.6747 -1.9137 -0.9612
  444MOL0     H58571  10.066   9.272   2.454 -2.8800  0.1854 -1.7089
  444MOL0     H58572  10.016   8.974   2.809 -1.3029  1.5168 -1.6301
  444MOL0     H58573  10.050   8.746   2.825 -0.2793  3.8910  0.7262
  444MOL0     H58574   9.978   8.500   2.442 -1.5321 -0.6015  1.0196
  444MOL0     H58575  10.021   8.385   2.574 -1.1949  0.2054  0.7071
  444MOL0     H58576  10.253   8.536   2.562  0.5251 -0.4203 -0.8000
  444MOL0     H58577  10.208   8.554   2.391  1.3658 -2.2695 -2.0003
  444MOL0     H58578  10.242   8.279   2.533 -1.7033  1.2487 -1.4143
  444MOL0     H58579  10.375   8.376   2.459 -0.8492  3.4429  0.9474
  444MOL0     H58580  10.157   8.218   2.321  1.2205 -1.7608  3.3266
  444MOL0     H58581  10.216   8.378   2.252 -0.2747  1.0679  1.1180
  444MOL0     H58582  10.446   8.281   2.291 -3.2087  3.6012  3.0119
  444MOL0     H58583  10.335   8.184   2.173  2.1772 -1.4007 -0.2694
  444MOL0     H58584  10.305   8.034   2.403  0.1961  2.2177  3.8909
  444MOL0     H58585  10.445   8.114   2.448  0.3985 -2.4729 -0.6539
  444MOL0     H58586  10.470   7.971   2.184 -2.4443 -2.3029  1.0166
  444MOL0     H58587  10.591   8.021   2.300  0.1452  0.5115 -0.9475
  444MOL0     H58588  10.410   7.873   2.448  0.7534  0.1618  0.8844
  444MOL0     H58589  10.573   7.828   2.404  0.7933  0.1310 -0.1580
  444MOL0     H58590   9.889   8.690   2.420 -0.7042  0.1738 -0.7420
  444MOL0     H58591   9.859   8.932   2.403  1.9699  4.9437  1.9733
  444MOL0     H58592   9.884   9.400   2.824 -2.5664 -2.5123 -2.3578
  444MOL0     H58593   9.941   9.619   2.780 -3.2799 -1.2527  0.1428
  444MOL0     H58594  10.363   9.605   2.720  2.0674  2.9783  0.4971
  444MOL0     H58595  10.337   9.457   2.505  1.1332 -0.1099 -0.3818
  444MOL0     H58596  10.486   9.435   2.041  2.5611  0.7484 -0.8905
  444MOL0     H58597  10.543   9.317   1.838  1.7878  0.1528 -0.7289
  444MOL0     H58598  10.568   8.892   1.864 -3.3760  3.5942 -1.6650
  444MOL0     H58599  10.743   8.909   1.871 -0.4540 -2.6996 -1.8324
  444MOL0     H58600  10.781   8.956   1.635  2.0571 -1.9726  1.5600
  444MOL0     H58601  10.712   8.792   1.662 -0.7232 -1.1317  1.2234
  444MOL0     H58602  10.558   9.043   1.566  0.3473  0.7251 -0.1614
  444MOL0     H58603  10.478   8.897   1.626  0.6760 -1.8381 -0.7890
  444MOL0     H58604  10.654   8.899   1.389 -2.2165 -0.1790 -3.3470
  444MOL0     H58605  10.606   8.747   1.477 -0.6710  0.3787  1.0804
  444MOL0     H58606  10.230   8.837   1.326 -0.1051  3.8615 -2.7251
  444MOL0     H58607  10.694   8.982   2.044 -3.2836 -1.5049 -0.1682
  444MOL0     H58608  10.647   9.109   2.260 -3.4725  1.6432  0.5700
  445MOL0     O58609   9.982  10.410   6.177 -0.6658  0.7631  0.1329
  445MOL0     C58610  10.085  10.466   6.140  0.0660  0.6505  0.2987
  445MOL0     O58611  10.181  10.407   6.058  0.1295 -0.2543 -0.9807
  445MOL0     C58612  10.157  10.284   6.014 -0.2447  0.0068 -0.6670
  445MOL0     C58613  10.126  10.263   5.877  0.4889  0.0711 -0.0403
  445MOL0     C58614  10.103  10.130   5.830  0.1050 -0.4281  0.2072
  445MOL0     C58615  10.117  10.021   5.917  0.2709  1.1078  0.3152
  445MOL0     O58616  10.086   9.898   5.868  0.8376  0.2830 -0.8768
  445MOL0     C58617   9.954   9.898   5.816  0.6092  0.4921  0.1186
  445MOL0     C58618   9.891   9.756   5.809  0.5694  0.4323 -0.0137
  445MOL0     C58619   9.870   9.694   5.943 -0.2229  0.7652  0.2535
  445MOL0     C58620   9.992   9.621   6.015  0.0976  0.2507 -0.2340
  445MOL0     C58621   9.922   9.523   6.120 -0.5314 -0.8440 -1.3033
  445MOL0     C58622  10.028   9.454   6.203 -1.1374  0.5662  0.4324
  445MOL0     C58623  10.073   9.321   6.135  0.0201 -0.1153 -0.5738
  445MOL0     C58624  10.171   9.263   6.226  0.0625 -0.1045 -0.3365
  445MOL0     N58625  10.140   9.240   6.367  0.4368 -0.6903 -0.4079
  445MOL0     C58626  10.168   9.320   6.477 -0.7605  0.0789  0.1479
  445MOL0     C58627  10.114   9.251   6.582  0.1527  0.2590  0.0691
  445MOL0     C58628  10.121   9.297   6.728  0.6161  0.7214 -0.1222
  445MOL0     C58629  10.040   9.196   6.812 -0.5109 -0.4064  0.2449
  445MOL0     C58630  10.010   9.243   6.958 -0.6475 -0.0521 -0.0193
  445MOL0     C58631  10.117   9.209   7.066  0.7760 -0.3508  0.1287
  445MOL0     O58632  10.243   9.283   7.045 -0.9273 -0.3896 -0.2814
  445MOL0     C58633  10.271   9.413   7.094  0.8785  0.4847  0.7175
  445MOL0     C58634  10.184   9.487   7.173  0.8594  0.0247  0.5774
  445MOL0     C58635  10.222   9.607   7.222  0.7153  0.0934  0.6368
  445MOL0     C58636  10.344   9.668   7.192  0.1147 -1.0668 -0.5913
  445MOL0     C58637  10.387   9.790   7.257 -0.2711 -0.6419 -0.6143
  445MOL0     O58638  10.521   9.815   7.257  0.2619  0.9553 -0.7742
  445MOL0     C58639  10.568   9.909   7.354 -0.4348  0.1775  0.2163
  445MOL0     C58640  10.608  10.034   7.314 -0.2985 -0.3701  0.6893
  445MOL0     C58641  10.645  10.129   7.405  0.3344 -0.4561 -0.2044
  445MOL0     C58642  10.646  10.099   7.542  0.3875  0.1709  0.8597
  445MOL0     O58643  10.688  10.188   7.635 -0.5501  0.1171 -0.0198
  445MOL0     C58644  10.831  10.200   7.651  0.6932  0.0212  1.2561
  445MOL0     C58645  10.867  10.228   7.798 -0.5158 -0.8861 -0.2284
  445MOL0     C58646  11.002  10.292   7.804 -0.0156 -0.7754 -1.1007
  445MOL0     C58647  11.108  10.193   7.769 -0.0183 -0.5726 -1.1125
  445MOL0     C58648  11.247  10.251   7.794 -0.6180  0.1545  0.6682
  445MOL0     C58649  11.353  10.143   7.773  0.1929  0.6539 -0.0501
  445MOL0     C58650  11.494  10.175   7.790  0.2395  0.4182  1.0709
  445MOL0     C58651  11.588  10.062   7.757 -0.0412 -0.3630 -1.0251
  445MOL0    Cl58652  11.721  10.070   7.879 -0.0800  0.0971  0.0151
  445MOL0     C58653  10.605   9.968   7.589 -0.8099 -1.0245  0.8471
  445MOL0     C58654  10.573   9.875   7.488 -0.3695  0.3362 -0.0212
  445MOL0     O58655  10.300   9.851   7.322 -0.0147 -0.7884 -0.2675
  445MOL0     C58656  10.428   9.599   7.104 -0.7557 -0.4324 -0.1790
  445MOL0     C58657  10.393   9.472   7.058  0.2940  0.0962  0.0516
  445MOL0     N58658  10.053   9.142   6.534  0.1343 -0.0216 -0.2696
  445MOL0     N58659  10.059   9.140   6.410 -0.0435  0.5323  0.2257
  445MOL0     C58660  10.160  10.041   6.047  0.3828 -0.6080 -0.1535
  445MOL0     C58661  10.188  10.177   6.091  0.1355 -0.0708 -0.5413
  445MOL0     C58662  10.105  10.610   6.172 -0.1803 -1.7196 -0.0996
  445MOL0     C58663  10.229  10.668   6.176 -0.4872  0.5142 -0.5663
  445MOL0     C58664  10.252  10.803   6.206  0.5794 -0.3445 -0.6335
  445MOL0     C58665  10.146  10.891   6.229  0.6973  0.7911 -0.1005
  445MOL0     O58666  10.177  11.023   6.250 -0.8994 -0.4558 -0.3950
  445MOL0     C58667  10.068  11.113   6.297  0.2052 -0.4667  0.2982
  445MOL0     C58668  10.125  11.254   6.302 -0.5830  0.5729 -0.7398
  445MOL0     C58669  10.154  11.293   6.154  0.1702 -0.7807 -1.3461
  445MOL0     C58670  10.124  11.438   6.109 -0.1859  0.0051 -0.4304
  445MOL0     C58671  10.148  11.455   5.967  0.0211  0.5282 -0.5410
  445MOL0     C58672  10.187  11.474   5.773 -0.0587 -0.3704  0.2055
  445MOL0     C58673  10.019  10.832   6.236  0.4889 -0.0550  0.1794
  445MOL0     C58674   9.999  10.692   6.205  0.8405 -0.7862 -0.5821
  445MOL0     H58675  10.101  10.357   5.830 -5.8149 -1.3091 -0.4073
  445MOL0     H58676  10.092  10.109   5.724  2.1068  1.1500 -0.3760
  445MOL0     H58677   9.958   9.936   5.713 -0.5386 -1.5066 -0.7344
  445MOL0     H58678   9.898   9.966   5.880  0.2586  1.0755 -0.7920
  445MOL0     H58679   9.949   9.696   5.739 -0.6216 -1.4404  0.5391
  445MOL0     H58680   9.789   9.766   5.770  0.2656 -1.0681  0.3324
  445MOL0     H58681   9.786   9.624   5.931  0.5043 -0.3224  1.2459
  445MOL0     H58682   9.836   9.772   6.012 -1.3601 -0.7253  1.4721
  445MOL0     H58683  10.046   9.561   5.940  2.5354  4.7361 -2.4852
  445MOL0     H58684  10.064   9.694   6.052 -1.3122  1.1774  0.7543
  445MOL0     H58685   9.850   9.450   6.079 -1.2336 -3.5897  3.9709
  445MOL0     H58686   9.857   9.580   6.187  2.3080  3.9757 -2.2044
  445MOL0     H58687   9.985   9.434   6.301 -6.4436 -0.8021 -1.8384
  445MOL0     H58688  10.113   9.521   6.217 -0.6831 -0.0858  0.8474
  445MOL0     H58689   9.986   9.256   6.122 -1.9507  1.7520  2.1194
  445MOL0     H58690  10.123   9.341   6.040 -0.9625  1.6329 -0.7578
  445MOL0     H58691  10.265   9.318   6.216  2.5179 -3.2216  3.0394
  445MOL0     H58692  10.197   9.165   6.185 -0.3195 -0.2465 -0.2471
  445MOL0     H58693  10.214   9.418   6.477  2.1084 -1.1235 -2.1573
  445MOL0     H58694  10.085   9.399   6.719  2.5849  1.3014 -2.9699
  445MOL0     H58695  10.228   9.293   6.752  0.4437 -2.6350  0.6366
  445MOL0     H58696  10.103   9.107   6.821  0.4280  0.2561  0.2890
  445MOL0     H58697   9.950   9.162   6.760  0.1966 -3.5126  0.8551
  445MOL0     H58698  10.001   9.351   6.966  1.1097  0.0073  1.6598
  445MOL0     H58699   9.915   9.202   6.994 -1.4374  0.1231 -1.8204
  445MOL0     H58700  10.140   9.102   7.057 -4.0511 -1.5314 -2.0820
  445MOL0     H58701  10.072   9.215   7.166 -1.3984  1.5912 -0.8623
  445MOL0     H58702  10.086   9.445   7.188  2.9198 -4.8357  2.5751
  445MOL0     H58703  10.161   9.651   7.300  2.0891  0.0081  1.8037
  445MOL0     H58704  10.603  10.049   7.206  0.3069  5.6649  1.1146
  445MOL0     H58705  10.671  10.229   7.372 -0.5174  0.5068  1.8874
  445MOL0     H58706  10.865  10.282   7.587  4.4478 -1.6281  0.8300
  445MOL0     H58707  10.885  10.116   7.606  0.8769  2.0789 -2.7897
  445MOL0     H58708  10.865  10.137   7.858  0.5171 -0.8877 -0.1660
  445MOL0     H58709  10.790  10.293   7.840 -1.1039 -0.2218 -2.1985
  445MOL0     H58710  11.016  10.314   7.910 -3.4109 -1.4196 -0.3905
  445MOL0     H58711  11.000  10.380   7.738 -1.7333 -0.8773 -1.2413
  445MOL0     H58712  11.094  10.103   7.830  0.4794 -0.2437 -0.5024
  445MOL0     H58713  11.095  10.165   7.664 -1.2692  0.4972 -1.2637
  445MOL0     H58714  11.258  10.308   7.887  4.8096  0.6579  0.0381
  445MOL0     H58715  11.266  10.326   7.717 -0.6299 -1.3803 -0.8720
  445MOL0     H58716  11.343  10.087   7.680  0.5481  1.8602 -0.8282
  445MOL0     H58717  11.336  10.069   7.852  1.1912  1.1854  0.6910
  445MOL0     H58718  11.529  10.264   7.737  1.5916  0.0711  1.3209
  445MOL0     H58719  11.508  10.197   7.897 -0.1030  1.6028  0.8792
  445MOL0     H58720  11.638  10.069   7.660 -1.1346 -1.8734 -1.7525
  445MOL0     H58721  11.539   9.965   7.773  3.3582 -1.7283  2.7927
  445MOL0     H58722  10.609   9.936   7.693 -1.4318  0.7213  1.4526
  445MOL0     H58723  10.534   9.778   7.518 -2.0253  1.2358  0.9106
  445MOL0     H58724  10.523   9.638   7.070 -0.2935  1.3303  2.8050
  445MOL0     H58725  10.450   9.423   6.979 -0.0513 -1.9890  1.0235
  445MOL0     H58726  10.163   9.963   6.123 -0.5472 -0.9908 -0.4907
  445MOL0     H58727  10.198  10.200   6.197  0.2731  1.8929 -0.9433
  445MOL0     H58728  10.311  10.605   6.146  0.6018  1.3307  0.5748
  445MOL0     H58729  10.356  10.835   6.202 -0.1292  2.4548  0.9490
  445MOL0     H58730  10.030  11.076   6.393  1.2106 -0.6419  0.6362
  445MOL0     H58731   9.986  11.108   6.224  0.1254  2.7239  0.0422
  445MOL0     H58732  10.060  11.320   6.359  2.8837  1.6294  2.3856
  445MOL0     H58733  10.218  11.248   6.360 -0.4904  4.5367 -0.2417
  445MOL0     H58734  10.104  11.221   6.088 -0.8333  0.9571 -2.5941
  445MOL0     H58735  10.262  11.279   6.151  0.1953 -1.2119  0.6565
  445MOL0     H58736  10.020  11.464   6.131  0.7429  1.1950  3.2842
  445MOL0     H58737  10.181  11.513   6.165  0.8766 -2.3634  1.8257
  445MOL0     H58738  10.212  11.483   5.669  0.1172 -2.5019  0.0233
  445MOL0     H58739   9.934  10.897   6.254 -0.9440 -1.1982 -2.0574
  445MOL0     H58740   9.898  10.651   6.205  0.4446  0.0844 -2.1355
  446MOL0     O58741  10.491   8.707   4.648  0.1557 -0.1006 -0.6011
  446MOL0     C58742  10.446   8.820   4.632 -0.4262 -0.4324  0.1295
  446MOL0     O58743  10.374   8.853   4.520  1.1770 -0.7133  0.1301
  446MOL0     C58744  10.370   8.765   4.415 -1.1999 -0.0600 -0.1867
  446MOL0     C58745  10.453   8.775   4.302 -1.0309  0.4143  0.3971
  446MOL0     C58746  10.427   8.682   4.194 -0.3055 -0.3361  0.7795
  446MOL0     C58747  10.338   8.582   4.206  0.0696  0.2048  0.6235
  446MOL0     O58748  10.329   8.516   4.087  0.4623  0.4640 -0.1875
  446MOL0     C58749  10.252   8.396   4.086 -0.9461  0.0286  0.2053
  446MOL0     C58750  10.328   8.272   4.144 -0.7115  0.4572 -0.4274
  446MOL0     C58751  10.240   8.162   4.194 -0.4017 -0.7906  0.5867
  446MOL0     C58752  10.307   8.055   4.280 -1.2143 -0.3948  0.6453
  446MOL0     C58753  10.323   7.919   4.215  0.5335  0.2963 -0.1417
  446MOL0     C58754  10.187   7.844   4.190 -0.2602 -1.2193 -0.4761
  446MOL0     C58755  10.196   7.744   4.082  0.2107  0.4912  0.6463
  446MOL0     C58756  10.299   7.624   4.097  0.7503 -0.0684 -0.0719
  446MOL0     N58757  10.279   7.548   4.225  0.8601 -0.2204 -0.1524
  446MOL0     C58758  10.221   7.424   4.240  0.3124  0.2885  0.2229
  446MOL0     C58759  10.225   7.397   4.371 -0.9612 -0.2941  0.1310
  446MOL0     C58760  10.185   7.270   4.435 -0.1132 -0.4494 -0.5771
  446MOL0     C58761  10.302   7.159   4.451  0.6226  0.1019  1.0987
  446MOL0     C58762  10.403   7.199   4.554 -0.5864 -0.2529 -0.0938
  446MOL0     C58763  10.467   7.062   4.603 -0.8004 -0.4902  0.7847
  446MOL0     O58764  10.574   7.096   4.696 -0.5029  0.2422  0.3568
  446MOL0     C58765  10.641   6.984   4.726 -0.5355  0.4537  0.3665
  446MOL0     C58766  10.762   6.983   4.660  0.7226  0.5991 -0.1276
  446MOL0     C58767  10.845   6.873   4.651  0.3574  0.0811 -1.0788
  446MOL0     C58768  10.814   6.763   4.730  0.2622 -0.5641 -0.2841
  446MOL0     C58769  10.900   6.645   4.737  0.5516 -1.2248 -0.3570
  446MOL0     O58770  11.021   6.664   4.679 -0.1329 -0.2162  0.7418
  446MOL0     C58771  11.117   6.566   4.684  0.2389 -0.5347 -0.0109
  446MOL0     C58772  11.165   6.506   4.804  0.1832 -0.5347 -0.7860
  446MOL0     C58773  11.268   6.418   4.797  0.0117  0.7883 -0.3146
  446MOL0     C58774  11.332   6.385   4.678  0.5805  0.0524 -0.3969
  446MOL0     O58775  11.436   6.305   4.694 -1.1094  0.6299 -0.1705
  446MOL0     C58776  11.434   6.184   4.610 -0.1949  0.2249  0.2523
  446MOL0     C58777  11.558   6.110   4.658 -0.3097  0.5800 -0.1799
  446MOL0     C58778  11.537   5.965   4.605 -0.9864  0.4428  0.2090
  446MOL0     C58779  11.634   5.864   4.658  0.2164  0.5167 -0.3670
  446MOL0     C58780  11.639   5.744   4.559  0.0474 -0.7954  0.0282
  446MOL0     C58781  11.739   5.628   4.605 -0.6842 -0.1897  0.2029
  446MOL0     C58782  11.891   5.648   4.576  0.0589  0.0987  0.2746
  446MOL0     C58783  11.972   5.532   4.632 -0.8528 -0.6682  0.0937
  446MOL0    Cl58784  12.131   5.513   4.541  0.3677  0.2356 -0.1077
  446MOL0     C58785  11.296   6.454   4.564 -0.1461  0.0248  0.1949
  446MOL0     C58786  11.189   6.546   4.573 -0.7146 -0.5266  0.8841
  446MOL0     O58787  10.856   6.547   4.779 -1.1400  0.4090  0.1202
  446MOL0     C58788  10.700   6.778   4.812 -0.2287  0.3873 -0.9933
  446MOL0     C58789  10.613   6.887   4.824 -0.3933 -0.9167  0.2661
  446MOL0     N58790  10.299   7.497   4.434  0.7459 -0.2849 -0.4274
  446MOL0     N58791  10.325   7.588   4.352 -0.4352 -0.3821  0.2365
  446MOL0     C58792  10.254   8.570   4.322 -0.1766  0.1103 -0.0062
  446MOL0     C58793  10.273   8.664   4.423 -0.1237 -0.4537  0.6033
  446MOL0     C58794  10.478   8.915   4.738  0.2164  0.6663 -0.1828
  446MOL0     C58795  10.430   9.049   4.742  0.2376 -0.2519  0.4512
  446MOL0     C58796  10.483   9.142   4.840  1.0273  0.1923 -0.3415
  446MOL0     C58797  10.573   9.107   4.946 -0.9524  0.7734  0.8655
  446MOL0     O58798  10.612   9.202   5.039  0.1247  0.2921  0.1803
  446MOL0     C58799  10.644   9.153   5.174  0.5421 -0.0419 -0.4821
  446MOL0     C58800  10.642   9.281   5.261  0.7524  0.2570 -1.6498
  446MOL0     C58801  10.506   9.341   5.304  0.0749 -0.4906  0.3552
  446MOL0     C58802  10.477   9.486   5.257  0.2423  1.0176  1.0492
  446MOL0     C58803  10.529   9.526   5.124 -0.2249  1.2477 -0.3578
  446MOL0     C58804  10.538   9.571   5.007  0.4392  0.4928 -0.0774
  446MOL0     C58805  10.607   8.973   4.942 -0.7676  0.6551  0.6921
  446MOL0     C58806  10.561   8.878   4.846 -0.6793  0.0871 -0.3170
  446MOL0     H58807  10.522   8.859   4.301 -0.6551  0.1801 -2.3138
  446MOL0     H58808  10.487   8.678   4.104 -3.5623 -1.4305 -1.5358
  446MOL0     H58809  10.221   8.379   3.983  1.1260 -0.2997 -0.4140
  446MOL0     H58810  10.160   8.409   4.143  0.2913 -5.1219  4.1482
  446MOL0     H58811  10.382   8.307   4.233 -0.8927 -0.7666  0.1849
  446MOL0     H58812  10.407   8.232   4.080  0.2614  0.8816  0.4611
  446MOL0     H58813  10.200   8.110   4.107 -1.8830  1.9364 -0.4627
  446MOL0     H58814  10.150   8.197   4.244 -0.7463 -0.4598 -0.2529
  446MOL0     H58815  10.410   8.082   4.304 -0.6332  1.6092 -3.3754
  446MOL0     H58816  10.255   8.056   4.377 -0.8912  1.0551  0.8280
  446MOL0     H58817  10.394   7.856   4.269 -1.0686 -0.8843  0.6576
  446MOL0     H58818  10.359   7.935   4.112 -1.7520 -3.8475 -1.8105
  446MOL0     H58819  10.110   7.911   4.150  0.7210  0.3908  0.2708
  446MOL0     H58820  10.164   7.809   4.291  0.2837 -0.0838  0.0580
  446MOL0     H58821  10.100   7.692   4.077  0.2240  0.2917  2.1119
  446MOL0     H58822  10.217   7.794   3.987  0.6247  0.3883  0.6795
  446MOL0     H58823  10.403   7.657   4.094 -0.0377  2.6785  0.1643
  446MOL0     H58824  10.289   7.562   4.008 -0.3200  0.6445 -0.4690
  446MOL0     H58825  10.194   7.347   4.169  1.4761  0.7503 -0.7545
  446MOL0     H58826  10.103   7.232   4.373  0.1784 -1.2012 -0.5080
  446MOL0     H58827  10.146   7.287   4.535  1.7071 -1.6257  0.3964
  446MOL0     H58828  10.354   7.138   4.357  1.4210 -1.6434  1.8800
  446MOL0     H58829  10.260   7.064   4.487  1.9859 -0.4656  1.2521
  446MOL0     H58830  10.469   7.275   4.510 -1.2385  0.1360 -0.4323
  446MOL0     H58831  10.352   7.244   4.640  1.9159 -0.7069  1.7218
  446MOL0     H58832  10.516   7.021   4.514  0.1504 -2.2490  2.0428
  446MOL0     H58833  10.396   6.988   4.643  0.3387  0.6266  5.3937
  446MOL0     H58834  10.794   7.066   4.598  0.8713 -0.1428 -1.0524
  446MOL0     H58835  10.926   6.867   4.579  2.9750 -1.1906  1.7431
  446MOL0     H58836  11.114   6.536   4.895  3.5119 -1.3856  1.5584
  446MOL0     H58837  11.303   6.380   4.893  2.1817  0.6834 -1.0910
  446MOL0     H58838  11.434   6.208   4.503  1.3599  0.1737  0.2178
  446MOL0     H58839  11.339   6.132   4.623  0.7853 -1.8026 -0.2893
  446MOL0     H58840  11.564   6.108   4.767  0.1936  3.5815 -0.0759
  446MOL0     H58841  11.645   6.160   4.615  0.7093 -0.0705  1.0559
  446MOL0     H58842  11.513   5.962   4.498 -0.3425 -2.4197  0.0540
  446MOL0     H58843  11.445   5.925   4.648  0.4186 -0.5825  2.4304
  446MOL0     H58844  11.739   5.888   4.678 -0.3480  2.8579  0.1110
  446MOL0     H58845  11.591   5.836   4.754  1.2386  1.8831  0.5174
  446MOL0     H58846  11.676   5.785   4.464 -2.7876 -3.0465 -2.2225
  446MOL0     H58847  11.546   5.699   4.524 -0.9897  1.4980 -0.3406
  446MOL0     H58848  11.716   5.545   4.537 -0.6537  2.6679 -3.6961
  446MOL0     H58849  11.717   5.598   4.708  1.5010 -4.0660 -0.2301
  446MOL0     H58850  11.902   5.653   4.468 -5.7356 -2.3252 -0.8310
  446MOL0     H58851  11.937   5.740   4.614  1.4255  0.5642 -2.3262
  446MOL0     H58852  11.918   5.440   4.608  0.3205 -1.3839  0.1590
  446MOL0     H58853  11.994   5.540   4.739 -0.5256  0.6657 -0.0550
  446MOL0     H58854  11.358   6.433   4.477  2.1261  0.1520  1.7080
  446MOL0     H58855  11.151   6.603   4.489 -1.7889 -1.6308  0.5886
  446MOL0     H58856  10.681   6.695   4.880 -2.0804  2.6107  1.3730
  446MOL0     H58857  10.522   6.892   4.882 -0.7498  0.3243 -0.3623
  446MOL0     H58858  10.167   8.509   4.346 -3.1512  4.3319  1.2039
  446MOL0     H58859  10.203   8.673   4.506 -4.7400 -0.6073 -2.8582
  446MOL0     H58860  10.355   9.078   4.669  0.1177  0.3812  0.8265
  446MOL0     H58861  10.442   9.241   4.824 -1.9142 -0.8772  0.0309
  446MOL0     H58862  10.741   9.104   5.163  0.4412 -0.3143 -0.1694
  446MOL0     H58863  10.563   9.089   5.210 -2.2440  1.0668 -4.2021
  446MOL0     H58864  10.696   9.258   5.353  0.3520  4.9293  0.0227
  446MOL0     H58865  10.707   9.350   5.206  0.0935 -0.8175 -3.9055
  446MOL0     H58866  10.505   9.354   5.412 -2.3901  0.8874  0.2348
  446MOL0     H58867  10.424   9.273   5.279 -1.7775  2.0376 -1.0421
  446MOL0     H58868  10.370   9.500   5.275 -0.0097  0.2448  0.2398
  446MOL0     H58869  10.523   9.559   5.324  0.8110  0.6731  1.0356
  446MOL0     H58870  10.541   9.618   4.911 -0.5835 -0.7719 -0.7650
  446MOL0     H58871  10.673   8.948   5.025  1.0222  0.9329 -0.5818
  446MOL0     H58872  10.587   8.772   4.855 -1.1388  0.1013  1.6121
  447MOL0     O58873   0.293   0.862   3.242  0.4456 -0.0347  0.4507
  447MOL0     C58874   0.191   0.833   3.290  0.4836 -0.1271 -0.9503
  447MOL0     O58875   0.069   0.893   3.282  0.3666  0.4727 -0.3093
  447MOL0     C58876   0.044   0.977   3.181  0.0392 -0.6709 -0.3673
  447MOL0     C58877  -0.019   1.109   3.201 -0.1533 -0.0887 -0.6079
  447MOL0     C58878  -0.068   1.185   3.096 -0.0898  0.2788 -0.5259
  447MOL0     C58879  -0.045   1.138   2.977 -0.0525  0.3127  0.0117
  447MOL0     O58880  -0.096   1.193   2.862 -0.4524  0.2062 -0.2160
  447MOL0     C58881  -0.131   1.332   2.871 -0.7762 -0.0757 -0.6679
  447MOL0     C58882  -0.143   1.376   2.728  0.0878  0.0421 -0.6579
  447MOL0     C58883   0.006   1.393   2.667  0.5050 -0.7068 -0.2124
  447MOL0     C58884  -0.010   1.419   2.517 -0.6342 -0.0814 -0.4486
  447MOL0     C58885   0.135   1.439   2.460  0.7814  0.4283 -0.0440
  447MOL0     C58886   0.146   1.562   2.387  0.0898 -0.0484 -0.4669
  447MOL0     C58887   0.269   1.561   2.300 -0.1037  0.1967 -0.6295
  447MOL0     C58888   0.259   1.668   2.183  0.3137 -0.4290 -0.0071
  447MOL0     N58889   0.363   1.639   2.083  0.1381 -0.3340  0.0057
  447MOL0     C58890   0.502   1.622   2.090 -0.4257 -0.5202 -0.3902
  447MOL0     C58891   0.538   1.584   1.968 -0.8268 -0.0000  0.4577
  447MOL0     C58892   0.668   1.547   1.922 -0.1173 -0.1278  1.0170
  447MOL0     C58893   0.713   1.412   1.974  0.4497 -0.5168 -0.0996
  447MOL0     C58894   0.858   1.380   1.927 -0.4688  0.3082  0.3261
  447MOL0     C58895   0.886   1.233   1.965  0.3406 -0.0865 -0.2004
  447MOL0     O58896   0.926   1.211   2.099 -0.1512 -0.1205 -0.3544
  447MOL0     C58897   0.980   1.085   2.127  0.3145 -0.5885  0.5145
  447MOL0     C58898   1.053   1.075   2.241  0.1137 -0.8091  0.2051
  447MOL0     C58899   1.107   0.963   2.283 -0.3940 -0.5963 -0.0832
  447MOL0     C58900   1.091   0.849   2.212 -0.2264 -0.1919  0.8416
  447MOL0     C58901   1.126   0.712   2.268 -0.3511 -0.8280  0.6117
  447MOL0     O58902   1.151   0.713   2.403 -0.3022  0.1727 -0.1299
  447MOL0     C58903   1.220   0.597   2.457  1.1097  0.0298  0.3104
  447MOL0     C58904   1.359   0.608   2.489 -0.6668  0.1919  1.2653
  447MOL0     C58905   1.428   0.505   2.547 -0.2054 -0.1249  0.6045
  447MOL0     C58906   1.360   0.392   2.590 -0.0517  0.5235 -0.3531
  447MOL0     O58907   1.418   0.289   2.656 -1.2204 -0.3805  0.0282
  447MOL0     C58908   1.490   0.312   2.778  0.0498 -0.6790 -0.7925
  447MOL0     C58909   1.388   0.318   2.892  0.9833  0.9757 -0.6521
  447MOL0     C58910   1.347   0.176   2.922 -0.3301 -0.2840  0.7819
  447MOL0     C58911   1.269   0.159   3.057  0.7612 -0.3312 -0.4605
  447MOL0     C58912   1.368   0.174   3.166  0.4539  0.2627  0.4928
  447MOL0     C58913   1.287   0.157   3.294 -0.9379 -0.6534  0.7858
  447MOL0     C58914   1.224   0.280   3.357 -0.2781 -0.2199 -0.0544
  447MOL0     C58915   1.078   0.255   3.400 -0.1421  0.4007  0.1506
  447MOL0    Cl58916   0.975   0.203   3.260 -0.0055 -0.6695 -0.0380
  447MOL0     C58917   1.223   0.370   2.564  0.5578 -0.3746 -0.3160
  447MOL0     C58918   1.164   0.479   2.503  0.4434  0.0950 -0.7378
  447MOL0     O58919   1.132   0.612   2.189  0.5237 -0.1925  0.3927
  447MOL0     C58920   1.011   0.850   2.089  0.1122 -0.7928 -0.4274
  447MOL0     C58921   0.971   0.975   2.041  0.5380 -0.0970  0.2995
  447MOL0     N58922   0.433   1.560   1.891 -0.1336  0.3017 -0.2413
  447MOL0     N58923   0.332   1.602   1.958 -0.5644 -0.1814  0.5538
  447MOL0     C58924   0.010   1.016   2.951  0.2682 -0.2820  0.4118
  447MOL0     C58925   0.051   0.936   3.046 -1.1301 -0.3423  0.0815
  447MOL0     C58926   0.191   0.704   3.354  0.2275  0.3625 -0.5006
  447MOL0     C58927   0.304   0.625   3.358 -0.6962 -0.3873 -0.3931
  447MOL0     C58928   0.313   0.499   3.420  0.1755 -0.3098  0.3016
  447MOL0     C58929   0.204   0.445   3.484  0.1057 -0.0611  0.4016
  447MOL0     O58930   0.198   0.313   3.533  0.0468 -0.1845 -0.4358
  447MOL0     C58931   0.268   0.284   3.649  0.1778  0.2030 -0.7446
  447MOL0     C58932   0.191   0.170   3.718 -0.3744  0.2538 -0.0326
  447MOL0     C58933   0.293   0.120   3.822  0.4081 -0.8342  0.2122
  447MOL0     C58934   0.235   0.057   3.946 -0.6254 -0.5597 -1.0730
  447MOL0     C58935   0.198  -0.081   3.925  0.1031 -0.5909 -0.1660
  447MOL0     C58936   0.187  -0.202   3.897 -0.0226  0.4343  0.1234
  447MOL0     C58937   0.087   0.523   3.488  0.1115 -0.0241  0.1206
  447MOL0     C58938   0.087   0.653   3.431 -0.3531  0.3719 -0.0795
  447MOL0     H58939  -0.036   1.148   3.301 -0.9195 -1.3476 -0.2188
  447MOL0     H58940  -0.138   1.266   3.116 -0.0487  0.8857 -2.6460
  447MOL0     H58941  -0.053   1.387   2.924  0.4517 -1.6208 -0.7844
  447MOL0     H58942  -0.229   1.344   2.918 -1.7054 -2.9383 -1.6370
  447MOL0     H58943  -0.208   1.463   2.716  0.2419  0.1060 -1.0494
  447MOL0     H58944  -0.195   1.300   2.670  0.9283 -1.2687  0.2499
  447MOL0     H58945   0.046   1.293   2.685  2.1683  0.1194  0.9050
  447MOL0     H58946   0.065   1.469   2.718  0.1473 -0.2933 -0.4161
  447MOL0     H58947  -0.061   1.347   2.452 -2.5824  1.4890 -0.7336
  447MOL0     H58948  -0.059   1.516   2.524  1.4825  0.9988  0.0508
  447MOL0     H58949   0.161   1.354   2.396  1.5109 -0.2472  1.1104
  447MOL0     H58950   0.205   1.451   2.544 -0.1101  1.8184  0.5307
  447MOL0     H58951   0.155   1.654   2.446 -1.5062 -0.5948  0.6885
  447MOL0     H58952   0.059   1.581   2.323 -0.7117 -0.1183  0.5689
  447MOL0     H58953   0.354   1.582   2.365 -1.4153  0.3817  1.0958
  447MOL0     H58954   0.283   1.463   2.255  1.4058  0.7676 -1.4467
  447MOL0     H58955   0.272   1.765   2.230  0.8053  0.2850 -1.5697
  447MOL0     H58956   0.159   1.661   2.140  0.5279 -1.7391 -0.3600
  447MOL0     H58957   0.571   1.635   2.173 -0.3764 -1.7322 -0.2289
  447MOL0     H58958   0.744   1.624   1.940 -1.7561  2.1841 -1.2940
  447MOL0     H58959   0.655   1.544   1.814 -0.6699 -2.1844  1.0909
  447MOL0     H58960   0.645   1.340   1.929 -0.3399  2.6643 -4.8140
  447MOL0     H58961   0.713   1.416   2.083 -0.5258  0.5198 -0.1149
  447MOL0     H58962   0.869   1.379   1.819  1.0522 -0.7994  0.4543
  447MOL0     H58963   0.943   1.443   1.956  0.7704 -0.7447 -0.8654
  447MOL0     H58964   0.965   1.193   1.901  3.7190 -1.3832  4.2560
  447MOL0     H58965   0.790   1.182   1.951  0.1376 -0.0804  1.0482
  447MOL0     H58966   1.078   1.160   2.304  0.1777 -0.9100  0.3166
  447MOL0     H58967   1.174   0.972   2.367  1.6076 -0.8395 -1.5937
  447MOL0     H58968   1.415   0.700   2.469 -0.1247  0.1846  2.6013
  447MOL0     H58969   1.533   0.527   2.564 -0.0010 -0.0972 -0.6062
  447MOL0     H58970   1.542   0.408   2.773 -0.4036 -0.0397  3.2147
  447MOL0     H58971   1.574   0.243   2.787  3.0355  2.8845  1.7541
  447MOL0     H58972   1.308   0.392   2.877  0.2125  0.1565 -0.6692
  447MOL0     H58973   1.429   0.355   2.987 -3.1988  0.4833  1.6293
  447MOL0     H58974   1.443   0.125   2.936  1.6258  3.1142  0.7427
  447MOL0     H58975   1.299   0.127   2.837  2.9440 -1.2058 -0.7151
  447MOL0     H58976   1.192   0.236   3.064 -0.1035 -1.3206  2.3514
  447MOL0     H58977   1.219   0.061   3.056 -1.1595  0.6034 -0.3366
  447MOL0     H58978   1.419   0.271   3.167 -0.3825  0.7737 -1.5076
  447MOL0     H58979   1.439   0.092   3.153 -0.0982 -0.5140  2.1626
  447MOL0     H58980   1.353   0.112   3.369  0.0269  2.2766  1.8307
  447MOL0     H58981   1.208   0.084   3.273 -1.1281 -0.9058  2.2796
  447MOL0     H58982   1.281   0.297   3.448 -1.5568  0.1571  0.6956
  447MOL0     H58983   1.227   0.369   3.294 -0.1734  1.2400  1.9288
  447MOL0     H58984   1.027   0.342   3.441 -1.3719  0.4734 -1.4786
  447MOL0     H58985   1.077   0.174   3.474  1.3452 -1.1332 -1.4033
  447MOL0     H58986   1.175   0.282   2.607  0.6379  0.8735  2.5155
  447MOL0     H58987   1.059   0.465   2.480  0.4842 -2.6102  0.4300
  447MOL0     H58988   0.980   0.757   2.042 -0.0644 -1.3007  0.6557
  447MOL0     H58989   0.936   0.979   1.938  0.9673 -0.8773  0.1202
  447MOL0     H58990   0.011   0.983   2.847 -0.7153 -0.4830  0.4619
  447MOL0     H58991   0.097   0.840   3.023  2.1187  0.9154  0.7578
  447MOL0     H58992   0.406   0.649   3.329  0.5237 -3.8594  0.5631
  447MOL0     H58993   0.405   0.441   3.408 -0.1369 -0.6785 -0.4247
  447MOL0     H58994   0.283   0.361   3.725  2.3666  1.3609 -2.2311
  447MOL0     H58995   0.373   0.263   3.626  0.1831  0.8832 -1.3764
  447MOL0     H58996   0.096   0.199   3.762 -0.1630  0.6592  0.1675
  447MOL0     H58997   0.166   0.086   3.654 -0.7489 -0.3733  0.9057
  447MOL0     H58998   0.349   0.208   3.857 -0.8208 -0.1797  0.5952
  447MOL0     H58999   0.351   0.046   3.766 -0.8014 -0.8785 -1.0297
  447MOL0     H59000   0.304   0.055   4.031  1.0575 -1.2961 -2.3885
  447MOL0     H59001   0.152   0.116   3.986  0.4342 -1.2043  2.3945
  447MOL0     H59002   0.165  -0.300   3.859 -1.2715  0.8502 -0.2724
  447MOL0     H59003   0.001   0.479   3.537  2.1911 -0.9176  3.2315
  447MOL0     H59004  -0.011   0.699   3.429  0.1047  1.3538 -1.5041
  448MOL0     O59005   4.036  11.262   9.781  0.3095 -0.2823 -0.1890
  448MOL0     C59006   4.140  11.321   9.755  0.2514 -1.2552 -0.6697
  448MOL0     O59007   4.168  11.450   9.790 -0.9591 -0.0523  0.5767
  448MOL0     C59008   4.085  11.535   9.863 -1.0556 -0.0908  0.2358
  448MOL0     C59009   3.951  11.543   9.829  0.0646 -0.4739 -0.5075
  448MOL0     C59010   3.877  11.655   9.888 -0.8713 -0.6581  0.0892
  448MOL0     C59011   3.938  11.749   9.974  0.1025 -0.1821 -0.0520
  448MOL0     O59012   3.866  11.857  10.027  0.1579 -0.6046 -0.1606
  448MOL0     C59013   3.752  11.917   9.974  0.1502 -0.1440 -0.6907
  448MOL0     C59014   3.693  12.030  10.067 -0.3462 -0.2946 -1.2543
  448MOL0     C59015   3.563  12.082  10.016 -0.0496 -0.6085  0.3348
  448MOL0     C59016   3.502  12.164  10.131 -0.4183 -0.0057  0.2373
  448MOL0     C59017   3.412  12.286  10.082  0.0906 -0.3408 -0.2286
  448MOL0     C59018   3.348  12.359  10.210 -0.6809 -0.5880  0.1518
  448MOL0     C59019   3.354  12.511  10.205  0.0944 -0.6963  0.3139
  448MOL0     C59020   3.300  12.574  10.074 -0.0412 -0.1902  0.2802
  448MOL0     N59021   3.306  12.724  10.080  0.0741  0.3161  0.3990
  448MOL0     C59022   3.195  12.805  10.073  0.1419  0.4304  0.7261
  448MOL0     C59023   3.238  12.923  10.049  0.3481 -0.7349  0.5185
  448MOL0     C59024   3.168  13.058  10.042 -0.2328  0.4527 -0.5257
  448MOL0     C59025   3.184  13.117   9.903  1.4003 -0.0545 -0.6453
  448MOL0     C59026   3.084  13.240   9.889  0.0440  1.1955 -1.0813
  448MOL0     C59027   3.117  13.334   9.766  0.8232 -0.1200 -0.2222
  448MOL0     O59028   3.095  13.252   9.648  0.0525  0.2708 -0.2768
  448MOL0     C59029   3.113  13.319   9.532 -0.1126 -1.2854  0.1410
  448MOL0     C59030   3.203  13.425   9.520 -0.1014  0.3498  0.5359
  448MOL0     C59031   3.211  13.489   9.395 -0.4768  0.2581  0.5608
  448MOL0     C59032   3.149  13.434   9.282  0.0207 -0.4410  0.2788
  448MOL0     C59033   3.175  13.499   9.149  1.2309  0.1065 -0.4062
  448MOL0     O59034   3.076  13.480   9.057  0.2667 -0.7630 -0.5414
  448MOL0     C59035   3.123  13.464   8.931  0.0380  0.5769  0.7218
  448MOL0     C59036   3.225  13.372   8.908 -0.4893 -0.5896 -0.2826
  448MOL0     C59037   3.262  13.348   8.782 -0.6563 -0.7892  0.0448
  448MOL0     C59038   3.198  13.400   8.674 -0.5101  0.1956  0.4720
  448MOL0     O59039   3.244  13.379   8.541  0.0684 -0.8521 -0.4999
  448MOL0     C59040   3.245  13.242   8.489 -0.8073 -0.8772 -0.0212
  448MOL0     C59041   3.109  13.187   8.474  0.5260 -0.6765 -0.1041
  448MOL0     C59042   3.117  13.053   8.395  0.2737  1.0106  0.1257
  448MOL0     C59043   2.990  12.978   8.358 -0.1978  0.1594 -0.8709
  448MOL0     C59044   2.893  13.063   8.270 -1.0136  0.6153  0.1069
  448MOL0     C59045   2.933  13.047   8.119  0.2892 -0.0077  1.3654
  448MOL0     C59046   2.810  13.030   8.039  0.2200  1.3051  0.0921
  448MOL0     C59047   2.808  13.012   7.892  0.3172  0.0586  0.2800
  448MOL0    Cl59048   2.835  12.860   7.822  0.4505 -0.3042  0.0777
  448MOL0     C59049   3.101  13.484   8.693  0.8383 -0.1046  0.2803
  448MOL0     C59050   3.063  13.522   8.824 -0.1673  0.3695  0.1928
  448MOL0     O59051   3.269  13.573   9.132  0.3528  0.3275  0.6845
  448MOL0     C59052   3.052  13.331   9.295  0.2045 -0.3627  0.1351
  448MOL0     C59053   3.030  13.277   9.423  0.0545 -0.5159 -0.0218
  448MOL0     N59054   3.378  12.920  10.036  0.8662 -0.7757 -0.4166
  448MOL0     N59055   3.412  12.803  10.071  0.0440 -0.0214  0.4163
  448MOL0     C59056   4.078  11.735  10.006  0.4564 -0.3785  0.0638
  448MOL0     C59057   4.149  11.636   9.937  0.5469  0.2635 -0.2486
  448MOL0     C59058   4.229  11.253   9.656 -0.0556 -0.2439  0.4951
  448MOL0     C59059   4.174  11.138   9.585  0.0095  0.3975  0.3907
  448MOL0     C59060   4.254  11.078   9.493  0.3343  0.7526 -0.9921
  448MOL0     C59061   4.384  11.125   9.466  0.6461 -0.6932  0.4575
  448MOL0     O59062   4.473  11.055   9.382 -0.2946  0.3216  0.1813
  448MOL0     C59063   4.422  10.962   9.282 -0.4611  0.3761 -0.6117
  448MOL0     C59064   4.531  10.923   9.173  0.3589  0.7168 -0.9329
  448MOL0     C59065   4.658  10.885   9.246 -0.1201 -0.3403  0.5940
  448MOL0     C59066   4.745  10.807   9.147  0.1023  0.4670  1.0990
  448MOL0     C59067   4.855  10.726   9.205 -0.4031  0.5236 -0.8589
  448MOL0     C59068   4.931  10.654   9.271 -0.7625 -0.7305 -0.2557
  448MOL0     C59069   4.434  11.232   9.531 -0.1146 -0.4020 -0.6826
  448MOL0     C59070   4.362  11.294   9.634  1.2202  0.2855  0.3801
  448MOL0     H59071   3.893  11.462   9.786 -2.1426  0.7939 -0.0907
  448MOL0     H59072   3.770  11.670   9.889 -0.4953  2.7109  1.2459
  448MOL0     H59073   3.673  11.844   9.956  2.6943 -3.2627 -0.1467
  448MOL0     H59074   3.776  11.960   9.876  0.1200 -1.8639 -1.4927
  448MOL0     H59075   3.768  12.108  10.077 -1.2679  1.3624 -5.2931
  448MOL0     H59076   3.679  11.987  10.166 -1.5740 -1.7725 -2.0182
  448MOL0     H59077   3.492  12.002   9.995  2.2429 -2.3089 -1.3246
  448MOL0     H59078   3.576  12.137   9.922  0.2814 -3.2626 -1.2512
  448MOL0     H59079   3.455  12.084  10.189  2.8248 -1.3247  1.2644
  448MOL0     H59080   3.572  12.217  10.196 -1.4960  2.4591 -0.5088
  448MOL0     H59081   3.335  12.241  10.019  0.7645  1.5655 -2.5659
  448MOL0     H59082   3.467  12.353  10.016  0.7233  0.9360  1.5052
  448MOL0     H59083   3.397  12.333  10.305  2.9905 -1.6178 -1.8482
  448MOL0     H59084   3.242  12.338  10.224 -1.7616  3.8378  0.2555
  448MOL0     H59085   3.298  12.557  10.286  2.5188 -2.2171  3.0533
  448MOL0     H59086   3.461  12.527  10.222  0.6156 -1.7267 -1.6510
  448MOL0     H59087   3.193  12.555  10.060 -0.5741  3.5268 -2.2272
  448MOL0     H59088   3.360  12.542   9.988  0.1426 -1.1961  0.7686
  448MOL0     H59089   3.095  12.768  10.093  1.5629 -3.5769  1.3527
  448MOL0     H59090   3.226  13.117  10.113 -0.7826 -2.0914  2.2324
  448MOL0     H59091   3.063  13.051  10.068 -0.1237 -0.4664 -0.3095
  448MOL0     H59092   3.157  13.041   9.830 -1.7646 -0.4247  0.7515
  448MOL0     H59093   3.279  13.165   9.881  1.2776  0.3886 -0.2421
  448MOL0     H59094   2.981  13.205   9.878  1.3904 -2.5073 -4.2081
  448MOL0     H59095   3.084  13.310   9.973 -0.3613  1.3015 -1.1657
  448MOL0     H59096   3.219  13.373   9.771  1.0483 -0.5655 -1.0915
  448MOL0     H59097   3.044  13.415   9.763 -0.2409 -1.0611 -2.6534
  448MOL0     H59098   3.282  13.459   9.587  1.3945  0.4575 -1.1945
  448MOL0     H59099   3.282  13.570   9.383  2.2389 -1.9333  0.9301
  448MOL0     H59100   3.276  13.320   8.988  1.1089  0.1929 -0.7579
  448MOL0     H59101   3.349  13.285   8.764 -0.8712 -0.9571 -0.4310
  448MOL0     H59102   3.307  13.192   8.564  0.4932 -0.1124 -0.5543
  448MOL0     H59103   3.303  13.241   8.396 -0.6035  0.2816  0.0722
  448MOL0     H59104   3.054  13.263   8.417  1.9272  0.3253 -0.1688
  448MOL0     H59105   3.062  13.169   8.571 -0.3297  0.8362 -0.2096
  448MOL0     H59106   3.194  12.992   8.442  0.7745  1.0231 -0.6626
  448MOL0     H59107   3.164  13.082   8.301 -1.2178 -0.0953 -1.0100
  448MOL0     H59108   3.013  12.888   8.302  2.0660  0.4734 -0.5491
  448MOL0     H59109   2.937  12.951   8.450 -0.5995  1.8073 -0.5826
  448MOL0     H59110   2.902  13.170   8.293 -1.5036  0.3382  1.6804
  448MOL0     H59111   2.789  13.035   8.292 -1.1040  1.6613  1.0693
  448MOL0     H59112   3.005  12.966   8.103  1.9163  1.5680  0.2087
  448MOL0     H59113   2.979  13.138   8.079 -0.6165 -0.7487 -1.6502
  448MOL0     H59114   2.752  12.949   8.085  1.0190 -0.6968 -2.2001
  448MOL0     H59115   2.744  13.117   8.032 -0.7231  0.4724 -2.0033
  448MOL0     H59116   2.883  13.077   7.847  1.7020 -3.3590 -2.8324
  448MOL0     H59117   2.711  13.031   7.845 -0.9209 -5.1689  0.1455
  448MOL0     H59118   3.050  13.532   8.610 -0.0881 -0.0203  0.8948
  448MOL0     H59119   2.982  13.593   8.842 -1.7108 -1.6655  1.7588
  448MOL0     H59120   3.007  13.300   9.202  3.0749 -1.8662 -0.8800
  448MOL0     H59121   2.965  13.194   9.447 -0.8612 -0.0574 -0.8854
  448MOL0     H59122   4.130  11.801  10.075 -2.5373  2.0246  0.2692
  448MOL0     H59123   4.255  11.626   9.957  0.1651 -0.7470  1.5575
  448MOL0     H59124   4.075  11.095   9.588 -1.0952  2.8001  0.4733
  448MOL0     H59125   4.210  10.990   9.448 -1.5473  0.2291  1.6253
  448MOL0     H59126   4.336  11.001   9.228  0.8926  1.8528 -1.8138
  448MOL0     H59127   4.392  10.870   9.333 -0.0431  0.0248 -0.9837
  448MOL0     H59128   4.492  10.858   9.094  0.8709 -1.4846  0.5502
  448MOL0     H59129   4.565  11.011   9.118  2.2874  0.3188 -0.4289
  448MOL0     H59130   4.638  10.817   9.330  1.6006 -1.2762  0.2890
  448MOL0     H59131   4.712  10.975   9.277  0.6113  0.3218 -2.2991
  448MOL0     H59132   4.684  10.745   9.081 -0.6515  1.2888  0.9895
  448MOL0     H59133   4.782  10.884   9.078 -1.8857 -0.7599 -1.4999
  448MOL0     H59134   5.000  10.595   9.328  0.9294  0.9602 -0.4441
  448MOL0     H59135   4.538  11.258   9.517  0.6601 -0.8057  3.2329
  448MOL0     H59136   4.401  11.387   9.676  1.0385  1.9670 -2.8152
  449MOL0     O59137   0.920   1.742   2.666 -0.4908 -0.3580 -0.7870
  449MOL0     C59138   0.813   1.698   2.686  0.1882 -0.3478  0.1353
  449MOL0     O59139   0.708   1.696   2.600 -0.0185 -1.0382 -0.6897
  449MOL0     C59140   0.736   1.742   2.473 -0.3011  0.2914 -0.5388
  449MOL0     C59141   0.731   1.877   2.431  0.0191  0.3946 -0.3900
  449MOL0     C59142   0.771   1.919   2.307  0.8684  0.2312 -0.1091
  449MOL0     C59143   0.816   1.822   2.214  0.8057  0.2723  0.0598
  449MOL0     O59144   0.856   1.853   2.095  0.4117 -0.0203  0.1221
  449MOL0     C59145   0.943   1.974   2.069 -0.3508  0.6170  1.0363
  449MOL0     C59146   0.931   1.990   1.922  0.2479 -0.4204 -0.6445
  449MOL0     C59147   0.992   1.879   1.846 -0.8955  0.5082  0.1928
  449MOL0     C59148   0.974   1.892   1.694  0.5339 -0.1620 -0.6470
  449MOL0     C59149   1.063   1.805   1.611  0.7714  0.3121  0.6682
  449MOL0     C59150   1.052   1.649   1.638 -0.5241 -0.0338  0.6958
  449MOL0     C59151   1.130   1.583   1.524  0.2118 -0.3357  0.3162
  449MOL0     C59152   1.141   1.434   1.540 -0.5156  0.5806 -0.2123
  449MOL0     N59153   1.215   1.383   1.426  0.6907 -0.3517 -0.1147
  449MOL0     C59154   1.168   1.362   1.298  0.1685  0.5368  0.0642
  449MOL0     C59155   1.276   1.317   1.237 -0.5814  1.6850  0.4510
  449MOL0     C59156   1.263   1.256   1.093 -0.7577 -0.6132  0.0595
  449MOL0     C59157   1.249   1.106   1.111 -0.0645  0.3052 -0.0880
  449MOL0     C59158   1.246   1.034   0.982  0.0046  0.4765  0.6132
  449MOL0     C59159   1.204   0.882   0.988  0.6453  1.0517  0.4375
  449MOL0     O59160   1.101   0.857   1.094 -0.1078  0.3953 -0.4726
  449MOL0     C59161   1.093   0.724   1.142 -0.2404 -0.0185  0.1871
  449MOL0     C59162   1.175   0.618   1.105  0.2132  0.2456  0.4766
  449MOL0     C59163   1.194   0.494   1.169  0.7859  0.2902  0.1778
  449MOL0     C59164   1.110   0.471   1.277 -0.2897 -0.4911  0.4561
  449MOL0     C59165   1.105   0.333   1.342 -0.3743 -0.2935 -0.1214
  449MOL0     O59166   1.066   0.350   1.472  0.9296 -0.6858 -0.7624
  449MOL0     C59167   1.102   0.260   1.567 -0.4138  0.5618  0.9156
  449MOL0     C59168   1.003   0.171   1.620 -0.5969  0.3399  0.8779
  449MOL0     C59169   1.053   0.065   1.705  0.4739  0.6124  1.0303
  449MOL0     C59170   1.188   0.056   1.738  0.7520 -0.0070 -0.2116
  449MOL0     O59171   1.239  -0.037   1.829  0.1767 -0.1189  0.1377
  449MOL0     C59172   1.173  -0.162   1.856  0.4279 -0.5435 -0.3949
  449MOL0     C59173   1.274  -0.254   1.927  0.4744  0.4763 -0.8055
  449MOL0     C59174   1.248  -0.403   1.929 -0.1312  0.1416  0.3374
  449MOL0     C59175   1.249  -0.476   1.795 -0.1052 -0.7548 -0.0032
  449MOL0     C59176   1.221  -0.629   1.798  0.0157 -0.1508 -0.2788
  449MOL0     C59177   1.267  -0.687   1.659 -0.2649 -0.0507  0.5442
  449MOL0     C59178   1.219  -0.828   1.642  1.0880 -0.1801 -0.8280
  449MOL0     C59179   1.261  -0.881   1.505 -0.2580  0.4595  0.1876
  449MOL0    Cl59180   1.210  -1.051   1.487  0.1587  0.1919  0.4788
  449MOL0     C59181   1.278   0.153   1.692  0.0910 -0.1290  0.1181
  449MOL0     C59182   1.235   0.254   1.604 -0.2884  0.2492 -0.2769
  449MOL0     O59183   1.153   0.235   1.292 -0.3827  0.3934 -0.2651
  449MOL0     C59184   1.022   0.566   1.316  0.1229 -0.4342  0.1643
  449MOL0     C59185   1.017   0.694   1.256  0.1244 -0.4301 -0.4637
  449MOL0     N59186   1.387   1.336   1.315 -0.2798  0.5028  0.2177
  449MOL0     N59187   1.351   1.370   1.424  0.7027 -0.4774  0.0542
  449MOL0     C59188   0.812   1.680   2.256 -0.0908 -0.0543  0.4270
  449MOL0     C59189   0.766   1.640   2.381 -0.4255 -0.1580  0.4409
  449MOL0     C59190   0.801   1.653   2.837  0.2231 -1.1122 -0.1397
  449MOL0     C59191   0.914   1.649   2.924  0.7572 -1.7252 -0.3335
  449MOL0     C59192   0.898   1.633   3.057  0.1611  0.2022 -0.3456
  449MOL0     C59193   0.778   1.588   3.108 -0.5644  0.9230  0.0913
  449MOL0     O59194   0.736   1.574   3.239  0.1024 -0.2110 -0.4600
  449MOL0     C59195   0.829   1.516   3.332  0.3486  0.4229 -0.2924
  449MOL0     C59196   0.773   1.513   3.479 -0.5191 -0.4540 -0.0948
  449MOL0     C59197   0.742   1.657   3.517  0.8389 -0.6112 -1.6636
  449MOL0     C59198   0.686   1.661   3.664  0.3809  0.2695  0.1530
  449MOL0     C59199   0.777   1.647   3.785 -0.5008 -0.7857 -0.4428
  449MOL0     C59200   0.856   1.628   3.883  0.4842 -0.7270  0.0826
  449MOL0     C59201   0.667   1.582   3.018 -0.8981 -0.2988 -0.3886
  449MOL0     C59202   0.672   1.627   2.884 -0.6035 -0.0028 -0.0763
  449MOL0     H59203   0.708   1.945   2.513  2.8814 -0.8795  1.6236
  449MOL0     H59204   0.776   2.023   2.276 -1.2446  0.2565 -0.4926
  449MOL0     H59205   1.046   1.956   2.100 -0.6474  0.7754  2.1880
  449MOL0     H59206   0.908   2.062   2.124 -0.3866  0.4978  1.2080
  449MOL0     H59207   0.977   2.086   1.898 -1.5625 -0.0261 -2.8683
  449MOL0     H59208   0.824   2.006   1.903 -0.2594 -0.0446  2.0954
  449MOL0     H59209   0.946   1.785   1.877  1.1896 -0.0276  1.8781
  449MOL0     H59210   1.100   1.876   1.864 -0.7385 -0.8721 -0.7927
  449MOL0     H59211   0.871   1.863   1.672  0.5746 -1.5007  0.6887
  449MOL0     H59212   0.992   1.996   1.665 -0.8658  0.4874  0.6211
  449MOL0     H59213   1.162   1.852   1.620  0.2405  1.3438  1.3637
  449MOL0     H59214   1.020   1.823   1.512 -0.2418  6.2045  1.7770
  449MOL0     H59215   0.947   1.623   1.623 -0.3200  0.3871 -1.9630
  449MOL0     H59216   1.086   1.630   1.740  1.0474 -1.9809 -0.1168
  449MOL0     H59217   1.069   1.606   1.436  0.9419 -0.5800 -0.2621
  449MOL0     H59218   1.227   1.634   1.521  0.6054 -1.0359  0.7887
  449MOL0     H59219   1.051   1.374   1.556  0.5771 -0.7281  1.4216
  449MOL0     H59220   1.205   1.406   1.624  1.3664 -0.6181 -1.9476
  449MOL0     H59221   1.068   1.359   1.254 -0.4689 -0.4851  1.5195
  449MOL0     H59222   1.346   1.288   1.029  0.4444 -0.3383  1.6963
  449MOL0     H59223   1.168   1.297   1.056 -1.0587  0.0714  1.5384
  449MOL0     H59224   1.163   1.081   1.173  2.1491 -2.5787  2.0654
  449MOL0     H59225   1.335   1.077   1.171  1.3678  3.4355 -0.4229
  449MOL0     H59226   1.171   1.089   0.924 -0.4005  0.3803  1.0388
  449MOL0     H59227   1.352   1.044   0.956 -0.2844  3.0009  0.1512
  449MOL0     H59228   1.301   0.835   1.005  0.8768  1.5184  0.4101
  449MOL0     H59229   1.177   0.836   0.892  2.5947  1.1706 -0.2131
  449MOL0     H59230   1.244   0.637   1.023  0.4244  0.7184  0.7565
  449MOL0     H59231   1.264   0.417   1.136 -1.1827 -1.7187  0.4281
  449MOL0     H59232   0.899   0.193   1.597 -0.6181 -0.3392  0.3192
  449MOL0     H59233   0.976  -0.004   1.738 -0.9276  1.5714 -0.0905
  449MOL0     H59234   1.142  -0.210   1.763  0.1527 -1.5226  0.1910
  449MOL0     H59235   1.091  -0.155   1.929 -1.0612 -3.4300 -1.6185
  449MOL0     H59236   1.277  -0.218   2.030 -1.2904 -2.9861  0.6288
  449MOL0     H59237   1.375  -0.262   1.887  1.1432  0.7296  0.7568
  449MOL0     H59238   1.145  -0.416   1.963  0.6601 -1.3903  2.3459
  449MOL0     H59239   1.320  -0.448   1.997  1.5914  2.0497 -0.1163
  449MOL0     H59240   1.158  -0.443   1.743  1.1561 -2.6426 -3.7795
  449MOL0     H59241   1.345  -0.451   1.749  0.7894 -3.7849  0.0222
  449MOL0     H59242   1.113  -0.635   1.814 -0.1935  1.2519 -0.9712
  449MOL0     H59243   1.281  -0.667   1.881 -0.1517  2.3577  1.1118
  449MOL0     H59244   1.376  -0.686   1.651 -0.2868 -1.3628 -0.3559
  449MOL0     H59245   1.219  -0.624   1.585 -3.7617  0.3282  2.9076
  449MOL0     H59246   1.264  -0.896   1.715 -0.8363  1.0637  1.6790
  449MOL0     H59247   1.110  -0.841   1.651  0.9637  0.5559 -1.2577
  449MOL0     H59248   1.369  -0.871   1.491 -0.5228  0.2957 -2.6605
  449MOL0     H59249   1.209  -0.820   1.430  0.2330 -1.4628 -1.8145
  449MOL0     H59250   1.382   0.160   1.721  0.2454  2.8327 -0.8657
  449MOL0     H59251   1.312   0.317   1.562 -0.7917  0.4737 -0.8816
  449MOL0     H59252   0.946   0.552   1.392 -0.3843  0.4003 -0.1701
  449MOL0     H59253   0.958   0.776   1.294  0.1036  1.2052 -3.7046
  449MOL0     H59254   0.849   1.611   2.181 -1.1723  1.4535 -1.6085
  449MOL0     H59255   0.760   1.541   2.425  1.1888 -0.7246 -0.5144
  449MOL0     H59256   1.011   1.684   2.889 -0.3644  0.3778 -1.4934
  449MOL0     H59257   0.972   1.653   3.135 -0.8274  1.2494  0.3544
  449MOL0     H59258   0.922   1.572   3.332 -1.4679  3.7095 -1.4907
  449MOL0     H59259   0.859   1.413   3.312  0.7021  0.1285  1.5458
  449MOL0     H59260   0.687   1.446   3.488  0.9939 -2.4042  0.4294
  449MOL0     H59261   0.843   1.487   3.558  1.5332  4.6326  0.1000
  449MOL0     H59262   0.668   1.706   3.452 -1.7151  1.6799  2.4951
  449MOL0     H59263   0.831   1.720   3.512  1.0961 -0.7234  0.4055
  449MOL0     H59264   0.635   1.756   3.686 -0.9409 -0.1989 -0.7995
  449MOL0     H59265   0.612   1.582   3.670  0.4002  0.2689  0.4010
  449MOL0     H59266   0.925   1.596   3.958  1.1290 -0.9136 -0.5679
  449MOL0     H59267   0.573   1.564   3.069  0.9759 -1.2602  3.0673
  449MOL0     H59268   0.581   1.639   2.826 -0.0191 -1.0669 -1.2665
  450MOL0     O59269   7.449   9.931   0.652  0.0024 -0.2110 -0.3540
  450MOL0     C59270   7.554   9.922   0.588 -0.0560 -0.0994 -0.2284
  450MOL0     O59271   7.644   9.818   0.607 -0.0731  0.1749  0.6119
  450MOL0     C59272   7.607   9.704   0.667  0.6417  0.0173 -0.0971
  450MOL0     C59273   7.694   9.672   0.767 -0.0584  0.4606 -0.0599
  450MOL0     C59274   7.679   9.543   0.819  0.4096 -0.5247 -1.6470
  450MOL0     C59275   7.571   9.459   0.790  0.3723  0.5381  0.0832
  450MOL0     O59276   7.583   9.331   0.845 -0.1409 -0.4105  0.1424
  450MOL0     C59277   7.474   9.244   0.830  0.2340  0.0633  0.4766
  450MOL0     C59278   7.471   9.140   0.947 -0.4706  0.5649  0.3911
  450MOL0     C59279   7.606   9.068   0.939  0.3658  0.0301 -0.1566
  450MOL0     C59280   7.627   8.956   1.049  0.1096 -0.6511  1.5402
  450MOL0     C59281   7.539   8.836   1.010  0.3275 -0.1581 -0.3245
  450MOL0     C59282   7.474   8.770   1.134 -0.1012  0.2077 -0.1053
  450MOL0     C59283   7.349   8.840   1.197  0.0597  0.7544  0.2756
  450MOL0     C59284   7.225   8.853   1.109  0.1701 -0.4997  0.3397
  450MOL0     N59285   7.107   8.867   1.197 -0.0165 -0.2769  0.3241
  450MOL0     C59286   6.982   8.907   1.158 -0.2653  0.6517  0.3743
  450MOL0     C59287   6.907   8.891   1.275 -0.2052  0.4421 -0.8612
  450MOL0     C59288   6.775   8.939   1.317  0.2358 -0.4183  0.2113
  450MOL0     C59289   6.766   9.026   1.450 -0.5009 -1.1371 -0.8959
  450MOL0     C59290   6.628   9.078   1.463 -0.2159 -1.2710  0.4630
  450MOL0     C59291   6.575   9.171   1.352 -0.3036 -0.5888  1.1243
  450MOL0     O59292   6.680   9.277   1.323 -0.0095 -0.3041 -1.2303
  450MOL0     C59293   6.727   9.290   1.198  0.2566 -1.1946  1.3272
  450MOL0     C59294   6.637   9.329   1.098  0.6039 -0.7198 -0.4194
  450MOL0     C59295   6.693   9.355   0.971  0.5403  1.0628  0.2200
  450MOL0     C59296   6.827   9.333   0.935 -0.0353 -0.3598  0.3402
  450MOL0     C59297   6.879   9.325   0.790  0.3634 -0.5264 -0.2878
  450MOL0     O59298   6.781   9.358   0.692  0.1076  0.0262 -0.3548
  450MOL0     C59299   6.818   9.374   0.562 -0.7227 -0.4700  0.4961
  450MOL0     C59300   6.845   9.257   0.488 -0.6743  0.1465 -0.0407
  450MOL0     C59301   6.895   9.263   0.355  0.7637  0.6145 -0.0294
  450MOL0     C59302   6.911   9.381   0.293 -0.9284 -1.1257  0.5145
  450MOL0     O59303   6.959   9.385   0.166  0.7189 -0.7995 -0.2535
  450MOL0     C59304   7.008   9.507   0.115  0.1283  0.3024  0.2442
  450MOL0     C59305   6.996   9.508  -0.035  0.5530 -0.7839  0.4520
  450MOL0     C59306   7.063   9.396  -0.096  1.2857  0.4628  0.3939
  450MOL0     C59307   7.045   9.405  -0.246 -0.8532 -0.9460 -0.0179
  450MOL0     C59308   7.089   9.271  -0.315 -0.3048 -0.8221 -0.6983
  450MOL0     C59309   7.070   9.277  -0.465 -0.4612 -0.2623 -0.4279
  450MOL0     C59310   7.199   9.319  -0.537  0.5923 -0.0900 -0.7795
  450MOL0     C59311   7.311   9.213  -0.575  0.4265  0.6884  0.0298
  450MOL0    Cl59312   7.254   9.055  -0.622  0.4625  0.2031  0.4516
  450MOL0     C59313   6.865   9.499   0.367 -0.1580 -0.4184 -0.1529
  450MOL0     C59314   6.820   9.496   0.491  0.3185  0.3269 -0.4558
  450MOL0     O59315   7.001   9.312   0.766 -0.3221 -0.0707  0.5080
  450MOL0     C59316   6.914   9.291   1.045 -0.3975 -0.6953 -0.6025
  450MOL0     C59317   6.863   9.269   1.173 -0.2325 -0.2642 -0.3289
  450MOL0     N59318   6.979   8.816   1.364  0.1715 -0.1214 -0.6863
  450MOL0     N59319   7.092   8.800   1.311  0.4156  0.6643  0.7693
  450MOL0     C59320   7.472   9.514   0.707  0.2851 -0.3159 -0.6274
  450MOL0     C59321   7.489   9.638   0.645  0.6930 -0.3370 -0.4895
  450MOL0     C59322   7.592  10.019   0.486  0.0972 -0.2979  0.1363
  450MOL0     C59323   7.495  10.102   0.443 -0.5389  0.7652 -0.5242
  450MOL0     C59324   7.513  10.186   0.339  0.1558  0.9879  0.4080
  450MOL0     C59325   7.640  10.194   0.275  1.8843  0.5564 -0.0879
  450MOL0     O59326   7.660  10.272   0.164 -0.0899  0.1002  0.0221
  450MOL0     C59327   7.570  10.370   0.125  0.2463 -0.7695  0.0253
  450MOL0     C59328   7.611  10.436  -0.005 -0.1843  0.5803  0.5414
  450MOL0     C59329   7.539  10.566  -0.018 -0.6307 -0.0101  0.9180
  450MOL0     C59330   7.541  10.624  -0.159 -0.2910  0.5280  0.4355
  450MOL0     C59331   7.492  10.766  -0.149 -0.2421 -0.1831 -0.2824
  450MOL0     C59332   7.434  10.869  -0.158  0.3667 -0.7114  0.6387
  450MOL0     C59333   7.742  10.114   0.318  0.5762 -0.0672  0.0776
  450MOL0     C59334   7.714  10.029   0.426 -0.0785 -0.1967  0.2786
  450MOL0     H59335   7.773   9.743   0.788 -3.1531  3.8450  1.2829
  450MOL0     H59336   7.761   9.503   0.877  1.0590  0.5494 -1.7846
  450MOL0     H59337   7.486   9.199   0.730  1.8207  3.3241 -0.9584
  450MOL0     H59338   7.377   9.295   0.836  1.8788  3.3686  1.3207
  450MOL0     H59339   7.388   9.072   0.928  1.0571 -1.2169 -0.1424
  450MOL0     H59340   7.462   9.192   1.043  1.3136  1.7132  0.0023
  450MOL0     H59341   7.680   9.145   0.963  2.2856 -1.3790 -1.2527
  450MOL0     H59342   7.631   9.023   0.842  0.1550  0.5332 -0.4460
  450MOL0     H59343   7.731   8.922   1.049  0.5730  0.5757 -0.6967
  450MOL0     H59344   7.615   8.996   1.150 -1.0909  0.0805  1.1264
  450MOL0     H59345   7.603   8.759   0.968 -1.9525 -1.8966 -0.8238
  450MOL0     H59346   7.469   8.873   0.934  0.7928 -0.1495 -0.7547
  450MOL0     H59347   7.551   8.759   1.211 -1.0441 -3.3941  0.4754
  450MOL0     H59348   7.453   8.664   1.119  0.0810 -0.1667  1.9918
  450MOL0     H59349   7.330   8.802   1.298 -0.1400  1.5900  0.5609
  450MOL0     H59350   7.389   8.939   1.222 -1.6341  1.3323  0.8489
  450MOL0     H59351   7.207   8.765   1.046 -0.1260 -1.1655  1.3451
  450MOL0     H59352   7.237   8.945   1.049 -1.8794  0.0193  0.6355
  450MOL0     H59353   6.960   8.973   1.075  1.7338 -0.0364 -0.7764
  450MOL0     H59354   6.709   8.853   1.333 -2.1440  0.6561 -2.6971
  450MOL0     H59355   6.743   8.993   1.227  0.2143 -1.8565 -0.6654
  450MOL0     H59356   6.841   9.105   1.458  0.6530 -2.4025  2.6966
  450MOL0     H59357   6.798   8.965   1.535  3.5217  1.3135 -0.4048
  450MOL0     H59358   6.565   8.988   1.457 -0.8746 -0.6915 -2.6317
  450MOL0     H59359   6.624   9.138   1.554  2.7488  1.6800 -1.1573
  450MOL0     H59360   6.475   9.209   1.375 -0.1099 -0.9200  2.6351
  450MOL0     H59361   6.558   9.120   1.257  1.2118  5.2356 -2.8259
  450MOL0     H59362   6.531   9.325   1.122  0.9101 -1.3878  0.9071
  450MOL0     H59363   6.623   9.393   0.897  1.1597 -0.8362 -1.4164
  450MOL0     H59364   6.844   9.162   0.541 -0.8552  1.2599  2.0696
  450MOL0     H59365   6.918   9.165   0.314 -0.5636  1.0041 -1.8366
  450MOL0     H59366   7.112   9.525   0.144 -0.2633 -0.6109  2.4189
  450MOL0     H59367   6.949   9.593   0.148 -1.7384 -1.0992  0.7309
  450MOL0     H59368   7.048   9.596  -0.074  0.2554 -0.3868  0.9376
  450MOL0     H59369   6.892   9.512  -0.066  0.5623 -1.4871  0.3087
  450MOL0     H59370   7.009   9.305  -0.070  0.3199 -0.5124 -4.1412
  450MOL0     H59371   7.169   9.386  -0.072  1.5391 -1.9293 -1.3678
  450MOL0     H59372   6.937   9.406  -0.266 -0.9049 -1.8066  0.1751
  450MOL0     H59373   7.098   9.493  -0.283 -3.0884  0.5433  0.1141
  450MOL0     H59374   7.022   9.204  -0.260 -1.6938  2.2747  1.6979
  450MOL0     H59375   7.193   9.246  -0.290 -0.5917 -1.7900 -0.4379
  450MOL0     H59376   6.995   9.355  -0.474  0.4965  0.4687 -2.6894
  450MOL0     H59377   7.023   9.193  -0.517  0.2166 -0.2543 -1.0684
  450MOL0     H59378   7.173   9.369  -0.631  1.3660  0.1559 -0.8636
  450MOL0     H59379   7.253   9.400  -0.489  2.5073 -1.6965 -0.1092
  450MOL0     H59380   7.389   9.200  -0.500  0.9093  0.9514 -0.4247
  450MOL0     H59381   7.356   9.262  -0.662 -2.0424  1.5663 -0.8460
  450MOL0     H59382   6.854   9.596   0.319  0.6083  0.0963  0.6734
  450MOL0     H59383   6.782   9.579   0.549 -2.2077 -0.8156 -0.3437
  450MOL0     H59384   7.020   9.272   1.027  0.1727  0.1567  1.5483
  450MOL0     H59385   6.933   9.222   1.241  0.6928  0.0130 -1.0659
  450MOL0     H59386   7.374   9.471   0.690 -2.1989  3.1326  3.0281
  450MOL0     H59387   7.405   9.674   0.587 -0.2636 -1.3702  0.2141
  450MOL0     H59388   7.396  10.113   0.485 -0.9709 -2.0771 -0.5688
  450MOL0     H59389   7.425  10.241   0.306 -0.5031 -1.5121 -2.5139
  450MOL0     H59390   7.578  10.451   0.197 -2.2936  0.2659 -0.7469
  450MOL0     H59391   7.467  10.333   0.117 -0.0228  0.3973 -3.3638
  450MOL0     H59392   7.719  10.447  -0.023 -0.0484  2.6963  2.2829
  450MOL0     H59393   7.579  10.362  -0.079 -0.7642  0.0713  1.2901
  450MOL0     H59394   7.591  10.630   0.054  2.1553 -2.5574  1.3430
  450MOL0     H59395   7.433  10.548   0.005 -0.6971  0.2853  0.8520
  450MOL0     H59396   7.643  10.620  -0.198 -0.4470  1.1372 -0.0605
  450MOL0     H59397   7.471  10.567  -0.220 -0.1194  0.2604  0.4907
  450MOL0     H59398   7.380  10.962  -0.159  0.4020 -0.6414 -1.8607
  450MOL0     H59399   7.844  10.137   0.286  0.6719  2.1119  1.6779
  450MOL0     H59400   7.795   9.974   0.472 -0.9048 -1.3822  0.3570
  451MOL0     O59401   8.052   0.234   3.598  0.2258 -0.1329  0.1519
  451MOL0     C59402   8.169   0.264   3.611  0.4809  0.2326 -0.3573
  451MOL0     O59403   8.223   0.361   3.691  0.3960 -0.2599 -0.6246
  451MOL0     C59404   8.128   0.437   3.760 -0.7056 -0.3139 -0.5764
  451MOL0     C59405   8.078   0.548   3.701 -0.2680 -0.9897 -0.4248
  451MOL0     C59406   7.976   0.618   3.768  0.9965  0.0147 -0.4689
  451MOL0     C59407   7.923   0.583   3.890 -0.7163  1.2065 -0.5823
  451MOL0     O59408   7.830   0.665   3.948  0.4327 -0.6093 -0.3035
  451MOL0     C59409   7.714   0.598   4.004  0.4472  0.3302  0.1248
  451MOL0     C59410   7.660   0.488   3.915  0.5542 -0.3192 -0.4773
  451MOL0     C59411   7.552   0.414   3.983  0.3296  0.8489  1.3932
  451MOL0     C59412   7.491   0.301   3.904  1.1001 -0.0880 -0.4872
  451MOL0     C59413   7.514   0.163   3.957  0.1623  1.3911  0.3780
  451MOL0     C59414   7.539   0.074   3.832 -0.1528 -0.0521  0.1001
  451MOL0     C59415   7.591  -0.068   3.872  0.6751 -0.3869 -0.5854
  451MOL0     C59416   7.586  -0.163   3.752 -0.7550  0.0031  1.0123
  451MOL0     N59417   7.687  -0.139   3.640  0.0422 -0.2185 -0.1509
  451MOL0     C59418   7.823  -0.139   3.644 -0.9352 -0.8211 -0.9087
  451MOL0     C59419   7.870  -0.118   3.521  0.0665 -0.1909  0.6864
  451MOL0     C59420   8.013  -0.115   3.468  0.5213 -0.3386 -0.4047
  451MOL0     C59421   8.113  -0.213   3.544 -0.1764 -0.0456  0.6978
  451MOL0     C59422   8.221  -0.255   3.446  0.7437 -0.3421 -0.1315
  451MOL0     C59423   8.321  -0.346   3.513 -0.0837  0.7150 -1.0012
  451MOL0     O59424   8.405  -0.252   3.586  0.0139 -0.5236  0.1521
  451MOL0     C59425   8.390  -0.233   3.718 -0.0164 -1.0294 -0.7871
  451MOL0     C59426   8.478  -0.141   3.776 -0.8182 -0.2165 -0.4052
  451MOL0     C59427   8.494  -0.134   3.917 -0.3584  0.2787  0.4383
  451MOL0     C59428   8.401  -0.209   3.997  0.2755 -0.3616 -0.2547
  451MOL0     C59429   8.406  -0.198   4.146  0.9012  0.1244 -0.8362
  451MOL0     O59430   8.303  -0.269   4.215  0.0504  0.4900  0.0498
  451MOL0     C59431   8.287  -0.262   4.351 -1.1257  0.2039  0.0716
  451MOL0     C59432   8.175  -0.196   4.398 -0.1408 -1.2617  0.0740
  451MOL0     C59433   8.158  -0.176   4.534 -0.2371  0.2927 -0.1447
  451MOL0     C59434   8.250  -0.235   4.629  0.2215 -0.6804 -0.2854
  451MOL0     O59435   8.230  -0.234   4.767 -1.0483 -0.1481 -0.0119
  451MOL0     C59436   8.139  -0.135   4.816  0.3102  0.5183 -0.5723
  451MOL0     C59437   8.163  -0.137   4.963 -0.4641  0.7596 -0.3828
  451MOL0     C59438   8.105  -0.020   5.033  0.3727 -0.7787  0.6306
  451MOL0     C59439   8.186  -0.000   5.169  0.1293  0.1933  0.0551
  451MOL0     C59440   8.108   0.086   5.274  0.1762 -0.1966  0.6367
  451MOL0     C59441   8.200   0.118   5.387 -0.7506 -0.1702 -0.3500
  451MOL0     C59442   8.127   0.194   5.493  0.0137  1.3542 -0.3183
  451MOL0     C59443   8.231   0.261   5.585  1.2987  0.1525  0.1375
  451MOL0    Cl59444   8.351   0.141   5.633  0.1171  0.1229  0.1420
  451MOL0     C59445   8.361  -0.286   4.580 -0.3719  0.2089  0.0392
  451MOL0     C59446   8.392  -0.297   4.442  1.2128  0.1448  0.5259
  451MOL0     O59447   8.492  -0.120   4.195  0.4163  0.1701 -0.7894
  451MOL0     C59448   8.308  -0.289   3.938  0.4218 -0.4659  0.3592
  451MOL0     C59449   8.300  -0.298   3.798 -0.5270  0.1160 -0.5905
  451MOL0     N59450   7.760  -0.106   3.448 -0.0527  0.8082  0.6430
  451MOL0     N59451   7.651  -0.104   3.520  0.5517 -0.4916 -0.4582
  451MOL0     C59452   7.984   0.469   3.952 -0.2313 -1.1054 -0.2012
  451MOL0     C59453   8.068   0.387   3.879 -0.8337  1.1267  0.6640
  451MOL0     C59454   8.252   0.192   3.524 -0.5947 -0.4103 -0.2442
  451MOL0     C59455   8.372   0.136   3.580  0.6480  0.2017 -0.5907
  451MOL0     C59456   8.455   0.064   3.494 -0.5540  0.5940  0.6134
  451MOL0     C59457   8.435   0.056   3.355 -0.5586 -0.7445  0.2127
  451MOL0     O59458   8.524   0.013   3.262  0.0180  0.5584  0.3155
  451MOL0     C59459   8.627  -0.079   3.312 -0.3337 -0.4186  0.2531
  451MOL0     C59460   8.668  -0.166   3.187 -0.2945  0.1618 -0.5691
  451MOL0     C59461   8.562  -0.230   3.097 -1.1713 -0.1156 -0.4628
  451MOL0     C59462   8.467  -0.314   3.177  0.9279 -0.4970 -0.5763
  451MOL0     C59463   8.379  -0.396   3.092 -0.7502 -0.1084  0.2453
  451MOL0     C59464   8.314  -0.471   3.018 -0.2449 -0.7887 -1.3641
  451MOL0     C59465   8.325   0.125   3.298  0.6318 -0.3837 -0.8932
  451MOL0     C59466   8.232   0.193   3.385 -0.6031  0.0457 -0.9061
  451MOL0     H59467   8.109   0.579   3.602 -2.1179  2.0890 -0.1821
  451MOL0     H59468   7.950   0.712   3.721  0.6317 -0.4960 -1.3085
  451MOL0     H59469   7.632   0.668   4.024  3.4583  4.1519  0.2434
  451MOL0     H59470   7.743   0.556   4.101  0.5625  1.0318  0.3991
  451MOL0     H59471   7.730   0.414   3.875 -1.4671 -3.0643  0.7384
  451MOL0     H59472   7.615   0.546   3.834 -3.9339  1.9785  3.1964
  451MOL0     H59473   7.481   0.495   3.998 -1.2080 -0.7595  3.2055
  451MOL0     H59474   7.585   0.380   4.081 -3.1525 -2.7575  1.5593
  451MOL0     H59475   7.385   0.326   3.895  2.0604  4.2318 -2.1652
  451MOL0     H59476   7.514   0.310   3.798 -2.9812  1.3028 -1.4450
  451MOL0     H59477   7.430   0.122   4.013 -0.6847 -0.8809 -2.2879
  451MOL0     H59478   7.599   0.156   4.025 -0.3120  0.1747  0.8572
  451MOL0     H59479   7.607   0.120   3.760 -0.3510  2.7732  1.5798
  451MOL0     H59480   7.438   0.069   3.790 -1.2485 -0.7471  2.6239
  451MOL0     H59481   7.692  -0.054   3.911 -0.8960  1.3791  3.3462
  451MOL0     H59482   7.527  -0.114   3.947  2.3193  0.1501  1.2286
  451MOL0     H59483   7.493  -0.158   3.694  1.0117  4.0978 -1.9818
  451MOL0     H59484   7.612  -0.266   3.778  1.0936  0.0838 -0.3405
  451MOL0     H59485   7.890  -0.160   3.727 -3.3442 -5.5284  0.2123
  451MOL0     H59486   8.052  -0.014   3.480 -2.2011  0.6608  0.8612
  451MOL0     H59487   8.001  -0.141   3.362 -2.0901  1.9110 -0.7706
  451MOL0     H59488   8.053  -0.296   3.581 -0.4205 -0.9342 -1.4926
  451MOL0     H59489   8.165  -0.154   3.620  0.1272  1.5939 -0.6980
  451MOL0     H59490   8.182  -0.314   3.363 -3.1519  0.0365  1.2232
  451MOL0     H59491   8.269  -0.170   3.398  1.3989 -0.6347 -0.0094
  451MOL0     H59492   8.384  -0.397   3.440 -1.6399 -1.5668 -0.8646
  451MOL0     H59493   8.262  -0.424   3.562 -2.4509  1.6425 -2.1965
  451MOL0     H59494   8.542  -0.087   3.706 -1.6120  2.1301  0.5825
  451MOL0     H59495   8.569  -0.072   3.966 -0.5611  2.0384 -1.3245
  451MOL0     H59496   8.106  -0.149   4.329  0.2832 -0.8069 -0.0508
  451MOL0     H59497   8.070  -0.125   4.573 -0.2751 -1.1445  1.7940
  451MOL0     H59498   8.034  -0.162   4.801  0.5408  0.4390 -2.2385
  451MOL0     H59499   8.161  -0.033   4.783 -1.8099  1.3895  0.4954
  451MOL0     H59500   8.272  -0.129   4.972 -0.1219  2.5210 -4.2407
  451MOL0     H59501   8.125  -0.227   5.012  1.3446  1.7701  3.3048
  451MOL0     H59502   7.999  -0.039   5.056  0.8000 -2.4733  1.3772
  451MOL0     H59503   8.110   0.065   4.964 -3.0741  0.4159  1.6207
  451MOL0     H59504   8.214  -0.099   5.207  0.8593  0.4476  0.2051
  451MOL0     H59505   8.287   0.037   5.150 -1.0217  3.0382 -1.0000
  451MOL0     H59506   8.015   0.043   5.310 -1.2991 -0.3653 -2.9193
  451MOL0     H59507   8.084   0.179   5.222 -2.9986 -1.4229 -0.3229
  451MOL0     H59508   8.297   0.161   5.361  1.0958 -1.4087  3.5934
  451MOL0     H59509   8.229   0.021   5.429  1.9006  1.9516  3.2285
  451MOL0     H59510   8.055   0.265   5.450 -1.3959  0.6123  0.7171
  451MOL0     H59511   8.069   0.118   5.546  3.1852  1.3900  3.6761
  451MOL0     H59512   8.183   0.313   5.669 -0.0062  1.2477 -1.2175
  451MOL0     H59513   8.284   0.343   5.536  4.7276  0.7958  4.2778
  451MOL0     H59514   8.438  -0.326   4.644 -1.0680  0.0543  0.7888
  451MOL0     H59515   8.494  -0.323   4.413  1.9762  0.6041  2.6299
  451MOL0     H59516   8.237  -0.350   3.994  1.8622 -1.5341  1.0845
  451MOL0     H59517   8.243  -0.377   3.751  0.6954 -0.3877 -1.2834
  451MOL0     H59518   7.948   0.432   4.047  4.3291 -0.1373  2.2289
  451MOL0     H59519   8.106   0.293   3.919  0.4693  0.8998 -1.0011
  451MOL0     H59520   8.404   0.155   3.682  2.1284 -0.6625 -0.8653
  451MOL0     H59521   8.535   0.004   3.536 -1.9941 -2.5647 -0.8786
  451MOL0     H59522   8.574  -0.134   3.390  0.6236  0.8370  1.8553
  451MOL0     H59523   8.719  -0.037   3.354  0.8389 -0.6303 -1.9647
  451MOL0     H59524   8.739  -0.114   3.122 -0.7804  1.2749 -0.2483
  451MOL0     H59525   8.722  -0.250   3.233  1.4999  2.5131  1.9980
  451MOL0     H59526   8.617  -0.303   3.038 -3.4490 -1.1772 -1.4227
  451MOL0     H59527   8.517  -0.148   3.040 -1.0808 -0.0077 -0.3779
  451MOL0     H59528   8.507  -0.379   3.256 -5.5562 -2.6526  1.5790
  451MOL0     H59529   8.396  -0.241   3.216  0.3359 -1.0217 -0.6688
  451MOL0     H59530   8.243  -0.539   2.975 -1.9996 -0.8387  1.3601
  451MOL0     H59531   8.314   0.129   3.190 -0.1095  3.6076 -0.8601
  451MOL0     H59532   8.139   0.229   3.344 -0.9935 -1.3256 -1.2929
  452MOL0     O59533   7.496  10.149   1.778 -0.3950 -0.5510  0.2318
  452MOL0     C59534   7.385  10.142   1.729 -0.4103  0.5310  0.1923
  452MOL0     O59535   7.266  10.161   1.804 -0.4308  0.1769 -0.1585
  452MOL0     C59536   7.257  10.235   1.920  0.0909  0.0511  0.2543
  452MOL0     C59537   7.138  10.215   1.994  0.5653 -0.1397 -0.3563
  452MOL0     C59538   7.113  10.300   2.100 -0.3210 -0.3748  0.2947
  452MOL0     C59539   7.202  10.409   2.130  0.8822  0.8896  0.1234
  452MOL0     O59540   7.187  10.489   2.236 -1.0944  0.2987 -0.1353
  452MOL0     C59541   7.064  10.564   2.252  0.2032 -0.7829  0.5661
  452MOL0     C59542   7.099  10.658   2.367 -0.3289 -0.3013 -0.1402
  452MOL0     C59543   7.005  10.778   2.383 -0.3196 -2.0312 -0.3889
  452MOL0     C59544   7.058  10.876   2.495  0.2942 -0.3313 -0.6127
  452MOL0     C59545   6.945  10.963   2.561 -0.3285  0.3197  0.3330
  452MOL0     C59546   6.919  11.098   2.489 -0.3503  0.6283 -0.1284
  452MOL0     C59547   6.825  11.196   2.561  0.7913  0.1004  0.2549
  452MOL0     C59548   6.894  11.290   2.664 -0.4615  0.0424  0.3572
  452MOL0     N59549   6.818  11.420   2.658 -0.0328  0.7468 -0.0978
  452MOL0     C59550   6.872  11.541   2.640 -0.5788  0.5688  1.3967
  452MOL0     C59551   6.766  11.614   2.676 -0.1548  0.5965  0.5136
  452MOL0     C59552   6.761  11.765   2.648  0.5462  0.0566  0.1803
  452MOL0     C59553   6.900  11.827   2.603  0.3662 -0.6919 -0.3346
  452MOL0     C59554   6.880  11.957   2.534  0.3951 -0.0189  0.0622
  452MOL0     C59555   6.997  12.052   2.536 -1.2196 -0.5277 -0.1041
  452MOL0     O59556   7.097  11.992   2.455 -0.1485 -0.1925  0.1520
  452MOL0     C59557   7.222  12.041   2.470 -0.7936 -0.6913 -0.3108
  452MOL0     C59558   7.322  11.948   2.493 -0.4120 -0.0747 -0.4700
  452MOL0     C59559   7.458  11.977   2.469 -0.6153 -0.7600  1.0712
  452MOL0     C59560   7.499  12.098   2.412  0.9529 -0.7705 -0.1141
  452MOL0     C59561   7.636  12.119   2.383  0.5055  0.5342  0.3659
  452MOL0     O59562   7.728  12.025   2.416  0.4042  0.3244 -0.8316
  452MOL0     C59563   7.863  12.042   2.411  0.1253  0.1309 -0.4879
  452MOL0     C59564   7.940  12.140   2.472 -1.3035 -0.2606  0.1060
  452MOL0     C59565   8.073  12.156   2.432  0.5012 -0.5662 -1.7827
  452MOL0     C59566   8.138  12.069   2.345 -0.1354 -0.1990 -0.8218
  452MOL0     O59567   8.271  12.092   2.318  0.5840  0.5413 -0.1050
  452MOL0     C59568   8.299  12.175   2.201  0.2237 -0.7874 -0.4364
  452MOL0     C59569   8.447  12.205   2.195 -0.1152  0.5843  0.3295
  452MOL0     C59570   8.479  12.292   2.070  0.2487  0.8644  1.2255
  452MOL0     C59571   8.543  12.428   2.095  0.2095  0.0397 -0.6399
  452MOL0     C59572   8.543  12.512   1.967 -0.1423 -1.0577  0.3260
  452MOL0     C59573   8.581  12.655   2.005  0.1953 -0.9640  0.0707
  452MOL0     C59574   8.534  12.766   1.902  0.5263 -0.2911  0.1739
  452MOL0     C59575   8.526  12.715   1.752 -0.0408 -0.1910 -0.3443
  452MOL0    Cl59576   8.703  12.686   1.713 -0.3224 -0.6288 -0.0753
  452MOL0     C59577   8.059  11.969   2.288  0.0296  0.5402  0.6550
  452MOL0     C59578   7.925  11.946   2.335 -0.4624  0.4984  0.0231
  452MOL0     O59579   7.669  12.233   2.341  0.3611  0.1972  0.2781
  452MOL0     C59580   7.393  12.199   2.394  0.2418  0.5575 -1.1443
  452MOL0     C59581   7.257  12.178   2.430 -0.2762  0.8011 -1.0384
  452MOL0     N59582   6.660  11.543   2.716  0.2015  0.4013  0.3088
  452MOL0     N59583   6.685  11.419   2.691  0.4773 -0.2419 -0.1353
  452MOL0     C59584   7.322  10.422   2.060 -0.4943 -0.5641  0.3315
  452MOL0     C59585   7.344  10.333   1.952 -0.0005 -1.3279 -0.0649
  452MOL0     C59586   7.365  10.113   1.585 -0.0626  0.4171 -0.2828
  452MOL0     C59587   7.248  10.078   1.529  0.2890 -0.6338  0.3405
  452MOL0     C59588   7.228  10.070   1.385  0.2018 -0.8049  0.2769
  452MOL0     C59589   7.335  10.086   1.304  0.0979 -0.3092 -0.1398
  452MOL0     O59590   7.334  10.048   1.171  0.3974 -0.2813  0.6684
  452MOL0     C59591   7.210  10.078   1.100  0.4811 -0.8287  0.1431
  452MOL0     C59592   7.181  10.228   1.070  1.0534  0.0903 -0.5279
  452MOL0     C59593   7.299  10.301   1.013 -0.6890 -0.2613 -0.1745
  452MOL0     C59594   7.367  10.228   0.895 -0.5721 -0.1553 -0.8783
  452MOL0     C59595   7.447  10.325   0.811  0.2687  0.0077  0.5348
  452MOL0     C59596   7.509  10.399   0.735  0.4746  0.0094 -0.2246
  452MOL0     C59597   7.462  10.120   1.359  0.4598 -1.1152  0.4948
  452MOL0     C59598   7.473  10.132   1.493 -0.7112 -0.6018 -1.2255
  452MOL0     H59599   7.059  10.147   1.963 -0.1399  0.6128 -0.2566
  452MOL0     H59600   7.026  10.296   2.165 -0.6771  2.2803  0.0875
  452MOL0     H59601   6.982  10.499   2.284  0.3939 -0.6839  1.2708
  452MOL0     H59602   7.036  10.609   2.157  2.8970 -2.0954 -0.9637
  452MOL0     H59603   7.200  10.698   2.357 -0.3757  0.8651  2.9615
  452MOL0     H59604   7.108  10.602   2.461 -1.2949  2.6898  1.8813
  452MOL0     H59605   6.905  10.735   2.394 -0.7064 -0.9447  0.4905
  452MOL0     H59606   6.996  10.836   2.291 -0.2798 -1.2329  0.1055
  452MOL0     H59607   7.111  10.820   2.573  1.9089  0.7211 -0.9067
  452MOL0     H59608   7.127  10.939   2.439  1.1970  0.1255  0.9517
  452MOL0     H59609   6.971  10.979   2.666 -0.4727 -2.2099  0.8206
  452MOL0     H59610   6.860  10.895   2.566 -1.3418  1.4018 -1.3211
  452MOL0     H59611   6.867  11.068   2.397 -2.1904  1.5713  0.5520
  452MOL0     H59612   7.010  11.148   2.455  1.6267 -0.9285  2.5170
  452MOL0     H59613   6.776  11.267   2.494  1.9958 -0.3071 -1.1174
  452MOL0     H59614   6.747  11.139   2.612 -1.2559  1.7765 -0.8401
  452MOL0     H59615   6.997  11.306   2.628 -0.3606 -1.5406 -0.1378
  452MOL0     H59616   6.900  11.235   2.758  0.5926  0.6771  0.6844
  452MOL0     H59617   6.963  11.582   2.599  0.3868 -2.5207  0.2056
  452MOL0     H59618   6.713  11.815   2.733 -1.7991  0.5621 -1.3525
  452MOL0     H59619   6.683  11.795   2.577 -2.9942  1.2137  4.1325
  452MOL0     H59620   6.955  11.757   2.539 -0.0676 -6.0440  4.3327
  452MOL0     H59621   6.953  11.852   2.695  2.3864  4.4548 -2.5335
  452MOL0     H59622   6.852  11.934   2.430 -1.4896 -2.1456  0.9510
  452MOL0     H59623   6.797  12.003   2.589 -1.2873 -3.0082  0.2688
  452MOL0     H59624   7.034  12.055   2.639 -0.9993 -0.7510 -0.1722
  452MOL0     H59625   6.960  12.149   2.504  1.1599  0.6336  0.3924
  452MOL0     H59626   7.294  11.847   2.520 -2.4215  0.5155 -0.1959
  452MOL0     H59627   7.530  11.899   2.491 -0.9804 -0.6837  2.6639
  452MOL0     H59628   7.890  12.214   2.533  6.1406  5.0267  1.2308
  452MOL0     H59629   8.127  12.242   2.471  0.3527 -0.7385 -1.1860
  452MOL0     H59630   8.246  12.271   2.200 -1.3379 -1.5696 -2.7300
  452MOL0     H59631   8.266  12.130   2.107  1.3689  3.2192 -2.9758
  452MOL0     H59632   8.515  12.120   2.200 -0.1499  0.5865  0.9592
  452MOL0     H59633   8.472  12.268   2.282  0.5326 -0.7875  1.1798
  452MOL0     H59634   8.385  12.313   2.019  1.2334  1.6348 -0.3717
  452MOL0     H59635   8.545  12.245   1.996 -1.3007 -1.5194  1.2522
  452MOL0     H59636   8.492  12.478   2.178  0.5432  2.4790 -1.8209
  452MOL0     H59637   8.644  12.416   2.134 -0.1585  2.7016  1.4102
  452MOL0     H59638   8.440  12.521   1.930  1.1129  0.2764 -3.2811
  452MOL0     H59639   8.616  12.468   1.898 -2.2109 -1.2611 -1.8954
  452MOL0     H59640   8.690  12.659   2.008  0.3479 -0.6379 -3.1655
  452MOL0     H59641   8.530  12.692   2.095  0.2963  2.9410 -1.3306
  452MOL0     H59642   8.441  12.801   1.946 -0.5722 -1.2859 -1.2339
  452MOL0     H59643   8.601  12.852   1.901  0.1745 -0.0010 -1.6090
  452MOL0     H59644   8.485  12.796   1.691 -1.6406  0.3640  1.3732
  452MOL0     H59645   8.477  12.618   1.738 -1.7684  0.6562 -0.4420
  452MOL0     H59646   8.088  11.902   2.208 -2.1242 -0.5394  0.7038
  452MOL0     H59647   7.864  11.866   2.296 -0.1118  0.2448 -0.0076
  452MOL0     H59648   7.419  12.302   2.372  0.8837  1.1435  1.8533
  452MOL0     H59649   7.176  12.251   2.431 -1.1288 -0.1277 -0.4399
  452MOL0     H59650   7.405  10.487   2.084 -0.1018 -0.3163 -1.5476
  452MOL0     H59651   7.441  10.337   1.902 -0.5103 -0.6862 -1.0449
  452MOL0     H59652   7.161  10.045   1.585  0.6165 -3.8734 -0.8523
  452MOL0     H59653   7.124  10.055   1.359 -0.1794  0.9093  0.7315
  452MOL0     H59654   7.125  10.030   1.150  0.6441  0.1591  1.4164
  452MOL0     H59655   7.216  10.016   1.010  1.1126 -0.1480 -0.2928
  452MOL0     H59656   7.100  10.248   0.999 -2.4268 -3.1050  2.1277
  452MOL0     H59657   7.155  10.286   1.159  0.6662 -1.5818  0.5005
  452MOL0     H59658   7.381  10.305   1.086 -1.5175 -0.1927  0.7648
  452MOL0     H59659   7.275  10.403   0.983  1.1140  0.6394  1.2680
  452MOL0     H59660   7.439  10.158   0.938  1.2051  3.4888  2.9226
  452MOL0     H59661   7.297  10.176   0.829 -3.8359  3.3893 -0.6095
  452MOL0     H59662   7.545  10.476   0.670  0.1309 -0.4051 -0.9137
  452MOL0     H59663   7.546  10.142   1.294 -0.4127 -0.8332 -0.5673
  452MOL0     H59664   7.569  10.163   1.535 -1.5396  2.3065 -1.2957
  453MOL0     O59665   1.726   1.730   6.362 -0.1767 -0.4374 -0.1390
  453MOL0     C59666   1.847   1.757   6.373  0.2427  1.0393  0.2141
  453MOL0     O59667   1.904   1.876   6.390  0.0889  1.1633  0.7209
  453MOL0     C59668   1.824   1.987   6.369  0.1418  0.2395 -0.3517
  453MOL0     C59669   1.813   2.046   6.239 -0.7819  0.6923 -0.5869
  453MOL0     C59670   1.757   2.172   6.219  0.1671 -0.3631 -0.1154
  453MOL0     C59671   1.699   2.235   6.335  0.6785  0.4641 -0.4630
  453MOL0     O59672   1.629   2.351   6.342 -0.1187  0.4746 -0.6774
  453MOL0     C59673   1.679   2.469   6.282  0.1521 -0.5386 -0.2989
  453MOL0     C59674   1.822   2.512   6.321  0.4678  0.3531 -0.1586
  453MOL0     C59675   1.830   2.591   6.449 -0.6092 -0.5556 -0.5956
  453MOL0     C59676   1.769   2.729   6.432  0.5180  1.0018 -0.0897
  453MOL0     C59677   1.831   2.824   6.537 -0.0663  0.4048 -0.1985
  453MOL0     C59678   1.757   2.953   6.513  0.0351 -0.9125  0.5081
  453MOL0     C59679   1.798   3.065   6.614  0.3665  0.3708 -0.1135
  453MOL0     C59680   1.680   3.172   6.630  0.0908  0.5189  0.5760
  453MOL0     N59681   1.719   3.268   6.728 -0.6511  0.1120  0.2487
  453MOL0     C59682   1.825   3.363   6.705 -0.4170  0.5670 -0.0697
  453MOL0     C59683   1.810   3.449   6.802 -0.0483 -0.2865  0.4198
  453MOL0     C59684   1.878   3.574   6.807  0.8238 -0.5465  0.2444
  453MOL0     C59685   2.023   3.561   6.870 -0.6092 -0.2648  0.5078
  453MOL0     C59686   2.108   3.688   6.845  0.0643  0.0731  0.5433
  453MOL0     C59687   2.223   3.695   6.940 -0.5903 -0.4949 -0.9028
  453MOL0     O59688   2.301   3.815   6.919  0.0850 -0.3052 -1.0117
  453MOL0     C59689   2.424   3.815   6.849  0.4089  0.3846 -0.0825
  453MOL0     C59690   2.444   3.909   6.745 -0.7189 -0.8321 -0.1413
  453MOL0     C59691   2.573   3.908   6.674 -0.6547 -0.9405 -0.6281
  453MOL0     C59692   2.669   3.818   6.720 -1.6792 -0.5995  0.5611
  453MOL0     C59693   2.802   3.827   6.661 -0.3587  0.8162  0.8629
  453MOL0     O59694   2.884   3.715   6.670  0.3029  0.2938 -1.1412
  453MOL0     C59695   2.981   3.707   6.571 -0.0272 -0.1386 -0.2716
  453MOL0     C59696   3.121   3.733   6.608  0.9248 -0.7794 -0.3794
  453MOL0     C59697   3.222   3.693   6.510 -0.0328  0.4884 -1.2288
  453MOL0     C59698   3.184   3.636   6.386 -0.3984 -0.4988 -0.4241
  453MOL0     O59699   3.274   3.597   6.293  0.1873 -0.6749  0.1533
  453MOL0     C59700   3.405   3.559   6.323  0.0308 -0.0068 -0.4363
  453MOL0     C59701   3.467   3.497   6.208  0.3160 -0.2013 -0.2071
  453MOL0     C59702   3.385   3.392   6.141  0.7750  0.2869 -1.0280
  453MOL0     C59703   3.455   3.318   6.026  0.4764 -0.0157 -0.9186
  453MOL0     C59704   3.385   3.186   6.002 -0.5216 -0.4635 -0.7532
  453MOL0     C59705   3.440   3.105   5.889  0.4829  0.0367  0.2638
  453MOL0     C59706   3.373   2.976   5.868 -0.9958 -0.1228  0.4641
  453MOL0     C59707   3.446   2.887   5.762 -0.4871  0.2302 -0.1472
  453MOL0    Cl59708   3.506   2.982   5.622  0.5097  0.3017  0.3254
  453MOL0     C59709   3.050   3.633   6.348  0.0227  0.2126 -0.1906
  453MOL0     C59710   2.949   3.656   6.438  0.9348 -0.2659 -0.1753
  453MOL0     O59711   2.840   3.934   6.603 -0.0993 -0.1257  0.4832
  453MOL0     C59712   2.648   3.738   6.830 -0.7779 -0.6735 -0.3251
  453MOL0     C59713   2.529   3.739   6.897  0.4794  0.6451  0.1333
  453MOL0     N59714   1.730   3.390   6.899  0.5139 -0.0401  0.3915
  453MOL0     N59715   1.669   3.291   6.845  0.0136  0.2031  0.0543
  453MOL0     C59716   1.713   2.175   6.458 -1.3329  0.3139 -0.2379
  453MOL0     C59717   1.783   2.057   6.483  0.7693  0.3581  0.1431
  453MOL0     C59718   1.939   1.643   6.341 -0.0110  0.1146 -0.4895
  453MOL0     C59719   2.080   1.670   6.349 -0.1241  1.8327 -0.1038
  453MOL0     C59720   2.182   1.576   6.314 -0.4900 -0.4622  0.6732
  453MOL0     C59721   2.141   1.447   6.270 -0.2542 -0.5887 -1.1233
  453MOL0     O59722   2.238   1.362   6.232  0.4348  0.0467 -0.5970
  453MOL0     C59723   2.191   1.224   6.211 -0.5196  0.2459  0.1723
  453MOL0     C59724   2.314   1.163   6.138 -0.6546 -0.5830 -0.2160
  453MOL0     C59725   2.444   1.152   6.213  0.2977 -0.3177 -1.3795
  453MOL0     C59726   2.546   1.061   6.147 -0.5065 -0.7292 -0.3082
  453MOL0     C59727   2.509   0.924   6.125  0.3976  1.0510 -0.9157
  453MOL0     C59728   2.501   0.810   6.088  0.2049 -0.2067 -0.0829
  453MOL0     C59729   2.003   1.418   6.272  0.4953  0.0497  0.7667
  453MOL0     C59730   1.905   1.511   6.304  0.9604 -0.1932  0.0567
  453MOL0     H59731   1.872   2.010   6.156 -0.6475  1.3660 -0.7896
  453MOL0     H59732   1.751   2.200   6.114  1.4343  2.1474  0.4079
  453MOL0     H59733   1.598   2.537   6.308  0.8702 -0.6717  2.6109
  453MOL0     H59734   1.672   2.451   6.174 -4.6121  0.3507 -0.3567
  453MOL0     H59735   1.863   2.573   6.240  0.7055 -0.9437 -1.0586
  453MOL0     H59736   1.894   2.430   6.311  0.4515  0.3858 -0.6022
  453MOL0     H59737   1.934   2.602   6.483  0.1869 -1.3869 -2.6464
  453MOL0     H59738   1.789   2.537   6.536  1.0188 -2.4901 -0.9547
  453MOL0     H59739   1.797   2.765   6.333  0.1147  2.7306  0.4032
  453MOL0     H59740   1.660   2.725   6.433  0.5371 -0.7287  2.0270
  453MOL0     H59741   1.940   2.831   6.530  0.3090 -2.3464  1.4047
  453MOL0     H59742   1.809   2.791   6.639  0.1371 -0.7114 -0.5009
  453MOL0     H59743   1.653   2.921   6.526  0.0820 -0.4462  2.2407
  453MOL0     H59744   1.768   2.993   6.412  3.4216 -1.6363  0.4698
  453MOL0     H59745   1.819   3.027   6.714 -1.5694 -0.6097 -0.0384
  453MOL0     H59746   1.889   3.102   6.565  1.7654 -2.3785  0.2086
  453MOL0     H59747   1.585   3.125   6.658 -0.6082  1.1958 -0.5661
  453MOL0     H59748   1.654   3.232   6.542 -2.1262 -1.0558  0.0676
  453MOL0     H59749   1.892   3.369   6.620  2.0308  0.1356  1.7051
  453MOL0     H59750   1.824   3.655   6.857  0.9999  3.5519 -5.1726
  453MOL0     H59751   1.887   3.614   6.705  2.5551 -0.1066  0.5452
  453MOL0     H59752   2.083   3.476   6.838 -0.0306  0.0667  0.6866
  453MOL0     H59753   1.995   3.543   6.974 -3.0968 -2.2997 -0.3900
  453MOL0     H59754   2.153   3.692   6.746 -0.3172 -1.4432  0.2857
  453MOL0     H59755   2.046   3.777   6.863 -0.4518 -0.1667 -0.0029
  453MOL0     H59756   2.273   3.598   6.944 -1.7265 -1.0597  0.9054
  453MOL0     H59757   2.190   3.717   7.042  0.4136  3.2866 -1.2620
  453MOL0     H59758   2.366   3.979   6.716 -0.2971  0.1077  0.9039
  453MOL0     H59759   2.604   3.973   6.592  2.6378  0.1618  1.2969
  453MOL0     H59760   3.145   3.775   6.705  0.0040 -0.0293 -0.4712
  453MOL0     H59761   3.327   3.708   6.532 -0.2651  0.3007  0.0520
  453MOL0     H59762   3.391   3.488   6.405  2.0063  0.0813  0.0163
  453MOL0     H59763   3.473   3.634   6.364  0.4995 -1.2139  1.0619
  453MOL0     H59764   3.549   3.448   6.262 -0.4080  0.0966  1.1830
  453MOL0     H59765   3.504   3.566   6.131  0.4864  1.3658  1.2121
  453MOL0     H59766   3.291   3.437   6.109  0.4388 -0.1482 -0.6693
  453MOL0     H59767   3.360   3.316   6.216 -1.3693  1.1846 -0.7809
  453MOL0     H59768   3.457   3.377   5.934  0.0806  0.8684 -0.3706
  453MOL0     H59769   3.556   3.296   6.063  0.5329  2.2014  0.4292
  453MOL0     H59770   3.279   3.199   5.979  0.1093  1.6071 -2.7778
  453MOL0     H59771   3.400   3.140   6.101 -0.4899  0.7284 -0.1844
  453MOL0     H59772   3.542   3.081   5.918  0.2003 -0.5990  0.7721
  453MOL0     H59773   3.443   3.162   5.796  1.1807 -2.1921 -1.1473
  453MOL0     H59774   3.348   2.927   5.963  1.6204 -1.1046  0.7097
  453MOL0     H59775   3.278   3.001   5.820  0.8778  2.3068 -2.3231
  453MOL0     H59776   3.379   2.807   5.730  0.4017 -0.4528 -0.3684
  453MOL0     H59777   3.533   2.844   5.812 -1.5089 -0.6332  0.9377
  453MOL0     H59778   3.031   3.578   6.256 -2.1430 -2.3141  1.6098
  453MOL0     H59779   2.844   3.636   6.418  0.2993  0.2008  2.3492
  453MOL0     H59780   2.734   3.690   6.875 -0.2862  2.1758  2.1454
  453MOL0     H59781   2.530   3.692   6.995  3.9784  0.7586  0.2557
  453MOL0     H59782   1.692   2.237   6.545  0.9330  1.8731 -0.7258
  453MOL0     H59783   1.783   2.026   6.587  1.3183 -0.7753 -0.1784
  453MOL0     H59784   2.114   1.772   6.365 -1.9376  2.8380 -2.0550
  453MOL0     H59785   2.284   1.611   6.318 -0.1818 -1.3537  0.8952
  453MOL0     H59786   2.107   1.222   6.140  1.4862  2.4398 -2.5165
  453MOL0     H59787   2.163   1.181   6.307  1.1097  0.6475  0.8647
  453MOL0     H59788   2.285   1.064   6.102 -0.5115 -0.1954 -1.4552
  453MOL0     H59789   2.325   1.221   6.046 -0.6007 -0.8344 -0.3715
  453MOL0     H59790   2.427   1.105   6.310 -0.7063 -1.2530 -1.9787
  453MOL0     H59791   2.493   1.247   6.235 -2.1435  0.9319 -0.9806
  453MOL0     H59792   2.570   1.103   6.049  1.2208 -2.4036 -0.6517
  453MOL0     H59793   2.640   1.059   6.202 -1.0952 -1.2186  0.6968
  453MOL0     H59794   2.505   0.706   6.061  1.2878 -0.3938  0.6766
  453MOL0     H59795   1.951   1.330   6.238  2.6731 -1.6409  1.5522
  453MOL0     H59796   1.802   1.485   6.283  1.2853 -0.2369 -1.6642
  454MOL0     O59797  10.465   2.459   1.003 -0.6420  0.0543 -0.5306
  454MOL0     C59798  10.585   2.439   0.979  0.1725 -0.2773  0.7386
  454MOL0     O59799  10.678   2.377   1.075  0.2801  0.3465  1.0373
  454MOL0     C59800  10.608   2.326   1.179  0.6453  1.1386 -0.0821
  454MOL0     C59801  10.610   2.184   1.192  0.0783 -0.0413 -0.2820
  454MOL0     C59802  10.560   2.125   1.310 -0.0840 -0.0095  0.8687
  454MOL0     C59803  10.516   2.205   1.422 -0.2128  0.2026 -0.7206
  454MOL0     O59804  10.492   2.156   1.548  0.0531 -0.2608  1.0424
  454MOL0     C59805  10.351   2.120   1.570  0.2094  0.1205 -0.0103
  454MOL0     C59806  10.348   2.042   1.702 -0.2746 -0.1688  0.4952
  454MOL0     C59807  10.206   2.036   1.759  0.5048  0.2568  0.5324
  454MOL0     C59808  10.194   1.953   1.886 -0.3956  0.1005  1.0998
  454MOL0     C59809  10.238   2.026   2.009  0.9087  0.2143 -0.8919
  454MOL0     C59810  10.240   1.935   2.134 -0.0215  0.1344 -0.0895
  454MOL0     C59811  10.231   2.013   2.263 -0.6393 -0.6392  0.1420
  454MOL0     C59812  10.229   1.909   2.383  0.0423 -0.2008 -1.3971
  454MOL0     N59813  10.125   1.808   2.371 -0.6060  0.1242 -0.4696
  454MOL0     C59814   9.994   1.853   2.375  0.3166  0.7521 -0.1556
  454MOL0     C59815   9.927   1.731   2.382 -0.4242 -1.1782  0.9972
  454MOL0     C59816   9.782   1.713   2.405  0.1054 -0.2198 -0.1768
  454MOL0     C59817   9.728   1.750   2.544  0.2893 -0.4396 -0.0281
  454MOL0     C59818   9.726   1.905   2.558 -0.2285  0.5505  0.0941
  454MOL0     C59819   9.650   1.985   2.667  0.2559 -1.1483  0.6774
  454MOL0     O59820   9.694   1.963   2.802  0.0480 -0.5614 -0.5059
  454MOL0     C59821   9.678   2.059   2.893  0.0141  0.2273 -0.4144
  454MOL0     C59822   9.581   2.161   2.890  0.6874  1.0135 -0.0731
  454MOL0     C59823   9.570   2.273   2.967 -0.0663 -0.7952  0.2672
  454MOL0     C59824   9.664   2.293   3.067 -0.5033  0.1798  0.5210
  454MOL0     C59825   9.656   2.425   3.143  0.1427 -0.4043  0.5539
  454MOL0     O59826   9.550   2.515   3.102  1.2484 -0.6094  0.3190
  454MOL0     C59827   9.534   2.631   3.167 -0.3862  0.0099  0.5526
  454MOL0     C59828   9.565   2.753   3.094 -0.5823 -0.0960 -0.0159
  454MOL0     C59829   9.554   2.877   3.155  0.3368 -0.0304 -0.2149
  454MOL0     C59830   9.513   2.881   3.290 -0.5777  0.8973  0.8179
  454MOL0     O59831   9.474   3.009   3.338  0.4377  0.9930  0.1755
  454MOL0     C59832   9.513   3.026   3.473  0.0821 -0.1415 -0.1731
  454MOL0     C59833   9.553   3.177   3.480 -0.2313  0.5592  0.3001
  454MOL0     C59834   9.680   3.196   3.409  0.2673 -0.0157 -0.0021
  454MOL0     C59835   9.735   3.331   3.445  0.3659  1.1701  0.3756
  454MOL0     C59836   9.885   3.345   3.398 -0.5267 -0.0244  0.3949
  454MOL0     C59837   9.934   3.495   3.415  0.2653  0.5793 -0.4498
  454MOL0     C59838  10.071   3.509   3.343  0.5508  0.4428 -0.3531
  454MOL0     C59839  10.192   3.428   3.409  0.4477 -1.1426 -0.2438
  454MOL0    Cl59840  10.211   3.451   3.580 -0.4902 -0.2114  0.3639
  454MOL0     C59841   9.491   2.759   3.361 -0.1661 -0.1166  0.7807
  454MOL0     C59842   9.504   2.631   3.303 -0.4464  0.2784  0.0770
  454MOL0     O59843   9.750   2.449   3.216  0.0025 -0.6785 -0.1345
  454MOL0     C59844   9.769   2.190   3.081 -0.2946 -0.1004  0.5966
  454MOL0     C59845   9.766   2.077   3.004 -1.0321  1.1909 -0.1658
  454MOL0     N59846  10.019   1.632   2.375 -0.3791 -0.6626  0.8031
  454MOL0     N59847  10.136   1.680   2.386 -0.5982  0.2524  0.3525
  454MOL0     C59848  10.527   2.346   1.414  0.0714 -0.0483  0.6720
  454MOL0     C59849  10.572   2.409   1.293 -0.7968  0.3812 -0.6595
  454MOL0     C59850  10.654   2.498   0.863  0.1343 -0.7704  0.2320
  454MOL0     C59851  10.787   2.533   0.869 -0.7270  0.2688  0.1250
  454MOL0     C59852  10.847   2.564   0.743  0.0082  0.2431 -0.3027
  454MOL0     C59853  10.786   2.573   0.625  0.1077 -0.4399  0.4539
  454MOL0     O59854  10.853   2.628   0.514 -0.5258 -0.4753  0.1217
  454MOL0     C59855  10.913   2.761   0.513 -0.9451 -0.2830 -0.1582
  454MOL0     C59856  10.825   2.859   0.437 -0.2588 -1.1053  0.8375
  454MOL0     C59857  10.703   2.917   0.514  0.8573 -0.0564  0.1066
  454MOL0     C59858  10.585   2.931   0.412 -0.6701 -0.1650 -0.1589
  454MOL0     C59859  10.457   2.969   0.483 -0.3540 -0.0387  0.1709
  454MOL0     C59860  10.366   3.016   0.547 -0.3200 -0.5509 -0.1133
  454MOL0     C59861  10.649   2.551   0.622  0.1950 -0.6214  0.8842
  454MOL0     C59862  10.587   2.510   0.739  0.3482 -0.7698  0.1544
  454MOL0     H59863  10.654   2.130   1.109  0.1343  1.7400 -1.4722
  454MOL0     H59864  10.569   2.017   1.318  2.7786 -0.0479 -1.2018
  454MOL0     H59865  10.311   2.058   1.489 -0.4321 -1.8301  1.7074
  454MOL0     H59866  10.293   2.211   1.585 -0.0738 -0.1007  0.2382
  454MOL0     H59867  10.402   2.098   1.779  0.1908  0.6845 -0.4174
  454MOL0     H59868  10.386   1.941   1.686  1.4917  0.0741  2.6383
  454MOL0     H59869  10.144   1.997   1.678  1.5859  0.8081 -0.6001
  454MOL0     H59870  10.163   2.134   1.783 -1.2977 -0.5122  0.6406
  454MOL0     H59871  10.089   1.927   1.899 -0.9302  3.0389  3.8825
  454MOL0     H59872  10.259   1.865   1.882  0.5306  0.7340  1.7249
  454MOL0     H59873  10.169   2.110   2.022  1.4637  0.6468 -0.7100
  454MOL0     H59874  10.339   2.067   2.006  1.6603 -1.3863  0.8942
  454MOL0     H59875  10.329   1.873   2.118  0.3447  0.2711  1.2380
  454MOL0     H59876  10.162   1.859   2.138  1.2520 -1.1706  2.5522
  454MOL0     H59877  10.315   2.080   2.285 -0.9845 -0.6203  1.4802
  454MOL0     H59878  10.142   2.076   2.263 -0.6660 -0.6748  0.3760
  454MOL0     H59879  10.226   1.965   2.477  1.8599 -0.8172 -0.9360
  454MOL0     H59880  10.328   1.863   2.385  0.0439 -0.2340 -1.9991
  454MOL0     H59881   9.948   1.950   2.384  1.5038  1.4728 -1.4586
  454MOL0     H59882   9.762   1.607   2.385  1.1407 -0.4927  0.1482
  454MOL0     H59883   9.723   1.760   2.325  0.5083 -1.1165 -1.0308
  454MOL0     H59884   9.795   1.705   2.618  0.1734  0.7730  0.8530
  454MOL0     H59885   9.632   1.701   2.560  0.1932 -0.5454 -0.9164
  454MOL0     H59886   9.827   1.926   2.594 -0.8658 -0.8413  3.0809
  454MOL0     H59887   9.699   1.945   2.460  0.3671 -2.6460 -1.5047
  454MOL0     H59888   9.544   1.956   2.669  0.0245 -0.4202 -0.3034
  454MOL0     H59889   9.659   2.089   2.634 -0.4878  0.0251  3.8231
  454MOL0     H59890   9.504   2.136   2.818  2.1154 -3.9615 -0.1865
  454MOL0     H59891   9.490   2.340   2.936  1.5871  2.8903  3.1185
  454MOL0     H59892   9.597   2.752   2.990  1.1097 -0.2059  0.4928
  454MOL0     H59893   9.549   2.973   3.103 -2.0865  0.9834  1.6541
  454MOL0     H59894   9.604   2.970   3.495  0.4911 -0.0058 -1.4495
  454MOL0     H59895   9.439   2.995   3.548  3.1169 -0.8627  2.7591
  454MOL0     H59896   9.555   3.207   3.585 -0.0151  0.4019  0.3413
  454MOL0     H59897   9.471   3.231   3.433 -1.5418 -1.8719 -0.3339
  454MOL0     H59898   9.668   3.180   3.302 -0.1279 -0.3658  0.0928
  454MOL0     H59899   9.749   3.119   3.445 -2.0037 -0.9178  2.7648
  454MOL0     H59900   9.668   3.407   3.403 -1.7253  1.0513  3.2089
  454MOL0     H59901   9.726   3.348   3.553 -0.3210 -1.0540  0.7177
  454MOL0     H59902   9.905   3.327   3.292  1.6434  1.6163  0.4469
  454MOL0     H59903   9.954   3.285   3.457  1.8083  1.1497 -0.9746
  454MOL0     H59904   9.943   3.499   3.524 -5.5527 -2.3433  0.5733
  454MOL0     H59905   9.869   3.565   3.362 -1.2539  2.7588  3.8807
  454MOL0     H59906  10.064   3.456   3.248  1.1513  3.0073 -1.9242
  454MOL0     H59907  10.092   3.616   3.335 -0.3871  0.5794 -1.1445
  454MOL0     H59908  10.281   3.460   3.354  0.7112 -0.3127  0.6396
  454MOL0     H59909  10.197   3.323   3.377  0.5586 -1.0298 -0.5979
  454MOL0     H59910   9.453   2.766   3.463 -1.2906  0.3162  0.3493
  454MOL0     H59911   9.485   2.539   3.358 -0.0345 -0.3473 -0.8088
  454MOL0     H59912   9.850   2.215   3.148  0.0583 -1.0813  0.5550
  454MOL0     H59913   9.822   1.984   3.011 -1.2992  1.1254  1.3623
  454MOL0     H59914  10.493   2.414   1.490 -1.3112  0.5185 -0.4064
  454MOL0     H59915  10.561   2.517   1.290 -2.1142  0.2612 -0.7625
  454MOL0     H59916  10.850   2.537   0.957  0.6714  1.1942 -0.8744
  454MOL0     H59917  10.949   2.596   0.763 -0.2390  1.5448 -1.0200
  454MOL0     H59918  11.002   2.752   0.450  0.8595 -1.9092  2.4238
  454MOL0     H59919  10.942   2.795   0.613  0.5359  1.0342 -0.9824
  454MOL0     H59920  10.884   2.945   0.405 -1.3036  0.1410  2.1545
  454MOL0     H59921  10.792   2.814   0.343  0.0166  1.2825 -0.4664
  454MOL0     H59922  10.736   3.009   0.563  3.9795  0.0752 -1.9889
  454MOL0     H59923  10.683   2.838   0.587  2.2185 -0.2218  0.3169
  454MOL0     H59924  10.596   3.027   0.360 -1.1946  1.6078  2.7869
  454MOL0     H59925  10.576   2.839   0.354 -0.4531  0.2742 -0.9056
  454MOL0     H59926  10.281   3.066   0.588 -0.7379 -2.6335  1.7273
  454MOL0     H59927  10.584   2.576   0.539  0.5360  1.0698  1.0788
  454MOL0     H59928  10.484   2.479   0.728  1.2064 -4.1312  0.3479
  455MOL0     O59929   7.319   8.818   5.650  0.2424 -0.0685  0.3117
  455MOL0     C59930   7.425   8.757   5.672  0.3217  0.2657 -0.2883
  455MOL0     O59931   7.448   8.637   5.728  0.1692  0.0297 -0.3520
  455MOL0     C59932   7.340   8.564   5.766 -0.1019  1.0139 -0.5782
  455MOL0     C59933   7.274   8.480   5.679 -0.0318  0.2154  0.8400
  455MOL0     C59934   7.165   8.410   5.722 -0.1587 -0.2685  0.0116
  455MOL0     C59935   7.129   8.412   5.859  0.2023 -0.1637  0.2090
  455MOL0     O59936   7.021   8.343   5.905 -0.6306 -0.7078 -0.2386
  455MOL0     C59937   7.027   8.202   5.896  0.7339 -0.4666  1.2914
  455MOL0     C59938   7.137   8.151   5.974 -0.6002  1.1501  0.0236
  455MOL0     C59939   7.135   8.002   6.016  0.1900 -0.7955 -0.9484
  455MOL0     C59940   7.198   7.901   5.913  0.4332  0.3374  0.2550
  455MOL0     C59941   7.234   7.762   5.967 -0.6930 -0.1606 -0.1549
  455MOL0     C59942   7.311   7.694   5.852 -0.3288  0.2628 -0.5281
  455MOL0     C59943   7.310   7.543   5.857 -0.1580  0.7347  0.2794
  455MOL0     C59944   7.376   7.485   5.982  0.3615  0.1276 -0.3064
  455MOL0     N59945   7.517   7.519   5.995  0.5431 -0.8084 -0.2969
  455MOL0     C59946   7.571   7.590   6.105 -0.4434  0.5450  0.3323
  455MOL0     C59947   7.698   7.559   6.109 -0.1994 -0.5065  0.8944
  455MOL0     C59948   7.776   7.610   6.226 -0.8720 -0.2390 -0.3147
  455MOL0     C59949   7.911   7.673   6.191  0.1691  0.6637  0.2864
  455MOL0     C59950   7.910   7.775   6.076 -0.0800  0.1337 -1.1807
  455MOL0     C59951   7.817   7.893   6.116 -0.6627 -0.0811  0.2666
  455MOL0     O59952   7.881   7.985   6.206  0.4759  0.2979  0.5232
  455MOL0     C59953   7.979   8.060   6.163  0.2082 -0.6536 -0.0416
  455MOL0     C59954   8.027   8.069   6.031  0.6637  0.6102  0.0138
  455MOL0     C59955   8.125   8.155   5.986 -0.2266 -0.2511  0.3573
  455MOL0     C59956   8.193   8.225   6.087 -0.2500 -0.4620 -0.0566
  455MOL0     C59957   8.314   8.311   6.055 -0.3102 -0.2847  1.1333
  455MOL0     O59958   8.427   8.301   6.124 -0.0360  0.0475  0.3304
  455MOL0     C59959   8.523   8.382   6.077 -0.0116  0.4791  0.4135
  455MOL0     C59960   8.648   8.321   6.083  0.2103 -0.0986 -0.0787
  455MOL0     C59961   8.763   8.392   6.052  0.8290  0.7113  0.4294
  455MOL0     C59962   8.750   8.532   6.008 -0.0562  1.0028 -1.0192
  455MOL0     O59963   8.863   8.597   5.966  1.6813  0.1386  0.2143
  455MOL0     C59964   8.984   8.525   5.975 -0.1682 -0.0489 -0.2413
  455MOL0     C59965   9.009   8.440   5.853 -0.5632 -0.2509 -0.5932
  455MOL0     C59966   9.131   8.349   5.872  0.0983  0.7069  0.3375
  455MOL0     C59967   9.152   8.257   5.753  0.6666 -0.8072  0.5000
  455MOL0     C59968   9.157   8.329   5.618  0.6475 -0.5739  0.1187
  455MOL0     C59969   9.159   8.236   5.506 -0.6624  0.1280  0.5235
  455MOL0     C59970   9.293   8.158   5.498  0.1139  0.0277 -0.4202
  455MOL0     C59971   9.300   8.081   5.370  0.1049 -0.1689 -0.2015
  455MOL0    Cl59972   9.442   7.982   5.394 -0.0689  0.1784 -0.0896
  455MOL0     C59973   8.627   8.581   5.997 -0.7456  0.6557 -0.5248
  455MOL0     C59974   8.519   8.518   6.033  0.0084  0.2379 -0.3965
  455MOL0     O59975   8.306   8.351   5.937  0.4475  0.5757  0.3717
  455MOL0     C59976   8.147   8.229   6.219  0.2185 -0.0758 -0.2009
  455MOL0     C59977   8.040   8.143   6.255 -0.1409 -0.1788 -0.5609
  455MOL0     N59978   7.723   7.469   6.010 -0.4183 -0.4115 -0.4457
  455MOL0     N59979   7.609   7.435   5.954 -0.0005 -0.2861  0.1909
  455MOL0     C59980   7.195   8.496   5.950 -0.5186  0.4845  1.1882
  455MOL0     C59981   7.304   8.561   5.897  0.1307  0.3425  0.0840
  455MOL0     C59982   7.547   8.820   5.617 -0.1487  0.0066  0.2672
  455MOL0     C59983   7.543   8.919   5.520 -0.9835 -0.3543  0.6056
  455MOL0     C59984   7.666   8.985   5.478  0.1450 -0.1466  0.4789
  455MOL0     C59985   7.790   8.956   5.534  0.6415 -0.4629 -0.2166
  455MOL0     O59986   7.906   8.999   5.491 -0.7713 -0.2076  0.2416
  455MOL0     C59987   7.959   9.100   5.571  0.3062  0.2274  0.5061
  455MOL0     C59988   7.953   9.227   5.490  0.8577  0.7367  1.0570
  455MOL0     C59989   8.064   9.235   5.386 -0.3637 -0.5275  0.4113
  455MOL0     C59990   8.075   9.376   5.322  0.0516  0.7149 -0.2263
  455MOL0     C59991   7.985   9.392   5.208  1.0096  0.9616  0.2458
  455MOL0     C59992   7.893   9.406   5.134 -0.3193 -0.9366 -0.6748
  455MOL0     C59993   7.778   8.859   5.634 -1.0802  0.0079  0.8280
  455MOL0     C59994   7.673   8.793   5.680  0.4719 -0.5400 -0.6366
  455MOL0     H59995   7.302   8.482   5.574  1.2226 -1.6421  1.1003
  455MOL0     H59996   7.115   8.357   5.642  1.8928 -1.8702 -0.2700
  455MOL0     H59997   7.031   8.171   5.791 -0.3989 -0.2208  1.1549
  455MOL0     H59998   6.931   8.157   5.923  0.2575 -1.0118 -1.1058
  455MOL0     H59999   7.137   8.214   6.064 -2.1101  2.1803 -0.6483
  455MOL0     H60000   7.230   8.156   5.916 -1.9991  1.6437 -2.3279
  455MOL0     H60001   7.034   7.973   6.046 -0.2955 -0.6217 -2.3417
  455MOL0     H60002   7.203   8.007   6.102  2.1504  0.6929 -2.4654
  455MOL0     H60003   7.136   7.890   5.824  0.3330 -2.3106  0.5827
  455MOL0     H60004   7.294   7.933   5.871  1.2626  0.4569  2.1212
  455MOL0     H60005   7.152   7.694   5.988  1.5560 -2.5343  1.6729
  455MOL0     H60006   7.304   7.764   6.051 -1.1002 -0.7726  0.2123
  455MOL0     H60007   7.417   7.720   5.852 -0.2246  0.3519  3.2750
  455MOL0     H60008   7.267   7.725   5.756  0.2300  2.0129 -0.2560
  455MOL0     H60009   7.204   7.516   5.847 -1.0015  4.3220 -2.5711
  455MOL0     H60010   7.362   7.512   5.767  0.7946  2.2457  0.2786
  455MOL0     H60011   7.365   7.378   5.960 -0.3265  0.1696 -0.1930
  455MOL0     H60012   7.313   7.504   6.070  1.2247 -1.4374  0.7107
  455MOL0     H60013   7.516   7.663   6.165  0.0118  0.1633  1.2243
  455MOL0     H60014   7.817   7.527   6.284  1.9751  1.2237 -0.0646
  455MOL0     H60015   7.721   7.681   6.288  0.9804 -0.7982  2.1352
  455MOL0     H60016   7.973   7.591   6.153 -1.9185  0.1399 -2.3813
  455MOL0     H60017   7.953   7.724   6.278  1.4479  0.3392 -0.1160
  455MOL0     H60018   8.013   7.808   6.060  0.1189  0.7950  1.0761
  455MOL0     H60019   7.875   7.746   5.977  0.3409 -0.8158 -1.0616
  455MOL0     H60020   7.724   7.861   6.164 -2.9742  1.1415 -3.0066
  455MOL0     H60021   7.796   7.949   6.024  1.3651 -2.5570 -1.8670
  455MOL0     H60022   7.980   8.014   5.951  0.4509  0.3166  0.3370
  455MOL0     H60023   8.148   8.163   5.880 -0.8413  1.4613  0.3283
  455MOL0     H60024   8.662   8.217   6.109  0.8638 -0.3463 -1.3501
  455MOL0     H60025   8.858   8.338   6.060  1.6397  2.0719  0.2850
  455MOL0     H60026   9.001   8.485   6.075  1.7255  0.3005 -0.3978
  455MOL0     H60027   9.054   8.608   5.981  0.0525 -0.1162 -1.5509
  455MOL0     H60028   9.022   8.514   5.774  1.3051 -0.2595 -0.3571
  455MOL0     H60029   8.917   8.383   5.838 -2.1084  2.5882 -2.8317
  455MOL0     H60030   9.115   8.277   5.953 -2.8975  0.2028 -0.5839
  455MOL0     H60031   9.222   8.406   5.893  0.4269 -0.5595  2.6694
  455MOL0     H60032   9.252   8.211   5.754  2.7071  3.0722  3.7623
  455MOL0     H60033   9.069   8.186   5.747 -0.5471  0.6770 -0.9109
  455MOL0     H60034   9.242   8.398   5.611  1.0717 -1.1000  0.0417
  455MOL0     H60035   9.067   8.391   5.609  0.6430 -0.4083  1.2611
  455MOL0     H60036   9.151   8.293   5.413 -0.2770  0.4479  0.6791
  455MOL0     H60037   9.086   8.159   5.531  0.0195 -0.8489 -0.3937
  455MOL0     H60038   9.384   8.215   5.520 -2.3513  3.8092  0.9946
  455MOL0     H60039   9.292   8.092   5.585  0.8055  1.1574  0.4779
  455MOL0     H60040   9.310   8.147   5.283 -0.4629 -0.2345 -0.3206
  455MOL0     H60041   9.225   8.009   5.338  0.1729 -0.8042  1.0162
  455MOL0     H60042   8.610   8.674   5.943 -1.0627 -0.5623 -2.6709
  455MOL0     H60043   8.419   8.561   6.026 -0.7203 -1.4124 -0.7118
  455MOL0     H60044   8.203   8.289   6.290  0.7291  1.6578 -1.9940
  455MOL0     H60045   8.001   8.141   6.356  0.8460  2.4964 -0.0330
  455MOL0     H60046   7.189   8.474   6.056  0.9310 -1.1301  0.9796
  455MOL0     H60047   7.377   8.609   5.962  3.1626 -0.6333 -2.3826
  455MOL0     H60048   7.452   8.958   5.474 -1.7969 -0.5812  1.9857
  455MOL0     H60049   7.669   9.043   5.387 -1.2501 -1.1586 -0.2447
  455MOL0     H60050   8.062   9.082   5.605  0.6010  2.6074  1.0652
  455MOL0     H60051   7.898   9.123   5.659  2.2402  2.1937  1.4557
  455MOL0     H60052   7.850   9.242   5.454  0.6438  1.2181  1.8453
  455MOL0     H60053   7.965   9.309   5.562  3.4410  0.8783  0.5441
  455MOL0     H60054   8.045   9.159   5.309 -1.7669 -1.2669  1.4432
  455MOL0     H60055   8.163   9.204   5.421  0.0242 -1.1740 -1.1467
  455MOL0     H60056   8.052   9.452   5.398 -1.1800 -0.3242  0.4807
  455MOL0     H60057   8.179   9.391   5.292 -0.0342  1.5476 -0.1438
  455MOL0     H60058   7.829   9.416   5.049  1.6065 -2.6291 -2.4434
  455MOL0     H60059   7.875   8.834   5.675 -0.0572 -0.2192 -1.5576
  455MOL0     H60060   7.674   8.727   5.766 -0.7516  2.1124  1.5784
  456MOL0     O60061  11.387   0.053   3.194 -0.4356 -0.2972 -0.3718
  456MOL0     C60062  11.439   0.066   3.082 -0.2443  0.8448 -0.6792
  456MOL0     O60063  11.381   0.027   2.961  0.0892  0.9026 -0.4903
  456MOL0     C60064  11.249  -0.025   2.974  0.2083 -0.2566 -0.3309
  456MOL0     C60065  11.149   0.059   3.026  0.3799  0.4218 -0.5368
  456MOL0     C60066  11.026   0.005   3.072  0.0305  0.0759  0.0968
  456MOL0     C60067  11.003  -0.137   3.070  1.1353 -0.1274 -0.0307
  456MOL0     O60068  10.908  -0.202   3.140 -0.2997 -0.1479 -0.5234
  456MOL0     C60069  10.814  -0.130   3.206  0.1151  0.5610  0.3969
  456MOL0     C60070  10.719  -0.215   3.292 -0.3841  0.6058  0.8392
  456MOL0     C60071  10.793  -0.311   3.389 -0.2435 -0.0198 -0.4046
  456MOL0     C60072  10.708  -0.364   3.507  1.1099  0.6043  0.6752
  456MOL0     C60073  10.795  -0.428   3.613 -0.3516 -1.2174  0.2197
  456MOL0     C60074  10.732  -0.454   3.743 -0.0148  0.0246  0.3001
  456MOL0     C60075  10.616  -0.552   3.726  0.1601 -0.4829 -0.3621
  456MOL0     C60076  10.490  -0.524   3.819 -0.7211 -0.2877 -0.0283
  456MOL0     N60077  10.548  -0.572   3.949  0.5871 -0.1016 -0.3818
  456MOL0     C60078  10.528  -0.698   4.003  0.5365 -1.0260  0.8681
  456MOL0     C60079  10.601  -0.702   4.114  0.3440 -0.0486 -0.2045
  456MOL0     C60080  10.595  -0.810   4.214 -0.0769  0.2042  0.4702
  456MOL0     C60081  10.460  -0.841   4.289 -0.0929  0.2226  0.2391
  456MOL0     C60082  10.427  -0.989   4.305  0.0219  0.3612  0.4498
  456MOL0     C60083  10.541  -1.078   4.366 -0.1372 -0.1581 -0.6026
  456MOL0     O60084  10.598  -1.012   4.484 -0.7502 -0.1244 -0.7095
  456MOL0     C60085  10.729  -1.049   4.506  0.0075 -0.0944  0.6625
  456MOL0     C60086  10.769  -1.185   4.500 -0.7724  0.0175  0.8581
  456MOL0     C60087  10.895  -1.208   4.545 -0.3154  0.3188  0.9027
  456MOL0     C60088  10.983  -1.105   4.593  0.1421  0.4749  0.5932
  456MOL0     C60089  11.116  -1.140   4.644 -0.3631 -0.1607  0.4087
  456MOL0     O60090  11.179  -1.246   4.576  0.3575 -0.7899 -0.3910
  456MOL0     C60091  11.292  -1.286   4.643  0.9688 -0.4978  0.1762
  456MOL0     C60092  11.292  -1.363   4.754 -0.6975  0.8108 -0.3109
  456MOL0     C60093  11.407  -1.417   4.808 -0.6774  0.2931  0.4298
  456MOL0     C60094  11.528  -1.408   4.729 -0.3931 -0.1858 -0.3179
  456MOL0     O60095  11.644  -1.471   4.777 -0.1123  0.0643 -0.0251
  456MOL0     C60096  11.626  -1.606   4.819 -0.3369  0.0038 -0.3365
  456MOL0     C60097  11.571  -1.697   4.708 -0.0711  0.8122 -0.3568
  456MOL0     C60098  11.544  -1.843   4.769  0.0698 -1.4271  0.1953
  456MOL0     C60099  11.480  -1.938   4.665  0.3299  0.3442  0.3105
  456MOL0     C60100  11.468  -2.074   4.727  0.9946 -0.2016  0.1965
  456MOL0     C60101  11.401  -2.175   4.637  0.2021 -0.2264 -0.3344
  456MOL0     C60102  11.351  -2.300   4.703 -0.0814  1.2633 -0.6930
  456MOL0     C60103  11.311  -2.418   4.614 -0.3968 -0.2905 -0.0019
  456MOL0    Cl60104  11.188  -2.366   4.508 -0.2667 -0.0289 -0.2340
  456MOL0     C60105  11.530  -1.343   4.602  0.1784 -0.6474 -0.4831
  456MOL0     C60106  11.412  -1.273   4.566  0.6141  0.3257  0.0632
  456MOL0     O60107  11.169  -1.084   4.733 -0.0679  0.6626 -0.1112
  456MOL0     C60108  10.944  -0.970   4.592  0.5883 -0.3427 -0.3986
  456MOL0     C60109  10.808  -0.942   4.547 -1.2451  0.4169  0.2750
  456MOL0     N60110  10.647  -0.573   4.137  0.0438 -0.3138 -1.4195
  456MOL0     N60111  10.618  -0.494   4.037 -0.6207  0.0648  0.1625
  456MOL0     C60112  11.086  -0.207   2.996  0.0450  0.1325  0.1303
  456MOL0     C60113  11.211  -0.156   2.949 -0.1436 -0.0058 -0.3219
  456MOL0     C60114  11.574   0.127   3.070  0.2107 -0.8732 -0.6587
  456MOL0     C60115  11.622   0.215   3.166 -0.0526 -0.3191 -0.5386
  456MOL0     C60116  11.762   0.260   3.161  0.1489  0.0620  0.0171
  456MOL0     C60117  11.842   0.210   3.052  0.0072 -0.6621  0.0619
  456MOL0     O60118  11.971   0.262   3.038 -1.0581 -0.3491 -0.5164
  456MOL0     C60119  12.069   0.159   3.026 -0.7661 -0.5334  0.0624
  456MOL0     C60120  12.123   0.140   2.879  0.4516  0.4413 -0.0048
  456MOL0     C60121  12.110   0.267   2.792 -0.0463 -0.3737 -0.0533
  456MOL0     C60122  12.159   0.392   2.845  0.4992  0.3379  0.5462
  456MOL0     C60123  12.296   0.389   2.898  0.5396 -0.7742  1.1607
  456MOL0     C60124  12.399   0.392   2.958  0.2814  0.3910 -0.2601
  456MOL0     C60125  11.794   0.125   2.958  0.1897 -0.0926 -0.6947
  456MOL0     C60126  11.654   0.090   2.966 -0.2859 -0.0635 -1.2342
  456MOL0     H60127  11.169   0.161   3.056 -1.6785  0.1792  2.0590
  456MOL0     H60128  10.959   0.068   3.130 -0.1708  0.9743 -1.0582
  456MOL0     H60129  10.762  -0.061   3.138 -0.0514  1.0861  1.0413
  456MOL0     H60130  10.853  -0.069   3.289 -4.6133  2.5859  1.4566
  456MOL0     H60131  10.652  -0.268   3.223  1.8764 -2.6981  0.9687
  456MOL0     H60132  10.655  -0.152   3.353 -1.4335 -1.8926  2.4954
  456MOL0     H60133  10.871  -0.255   3.441  1.4124 -3.0249  0.6288
  456MOL0     H60134  10.839  -0.400   3.343  0.1703 -0.7632  1.3397
  456MOL0     H60135  10.650  -0.282   3.552  2.1539  1.6939  0.0947
  456MOL0     H60136  10.636  -0.436   3.467 -0.1310  1.3419  1.4910
  456MOL0     H60137  10.872  -0.353   3.637  0.1309 -0.9828 -1.8711
  456MOL0     H60138  10.832  -0.520   3.568 -1.1999 -2.0530  1.1892
  456MOL0     H60139  10.682  -0.365   3.782  0.0478  0.0009  0.4370
  456MOL0     H60140  10.816  -0.490   3.804 -0.1553 -1.6524 -0.4415
  456MOL0     H60141  10.582  -0.540   3.622  2.0755  0.3614 -0.9431
  456MOL0     H60142  10.658  -0.649   3.753  5.3833  2.3610  3.5658
  456MOL0     H60143  10.404  -0.588   3.796 -0.0762 -0.1041 -3.5628
  456MOL0     H60144  10.466  -0.419   3.833  2.2018  0.2802  1.6134
  456MOL0     H60145  10.455  -0.762   3.953 -0.8617  1.2287 -0.1426
  456MOL0     H60146  10.678  -0.793   4.284  1.2797  2.7523 -1.5792
  456MOL0     H60147  10.621  -0.905   4.167 -1.6586 -0.9033  1.7312
  456MOL0     H60148  10.374  -0.796   4.238 -1.1344 -1.2726  0.5765
  456MOL0     H60149  10.465  -0.806   4.393 -3.2376 -1.1793  0.9862
  456MOL0     H60150  10.340  -0.995   4.371  0.5530  2.1162  1.3866
  456MOL0     H60151  10.404  -1.040   4.211  0.0248  0.6324  0.3015
  456MOL0     H60152  10.611  -1.103   4.286  0.1048  1.0561 -0.7873
  456MOL0     H60153  10.498  -1.176   4.389 -0.9176  0.3279  0.1010
  456MOL0     H60154  10.701  -1.265   4.471  2.0008 -1.5032 -2.1966
  456MOL0     H60155  10.913  -1.314   4.561  1.2276  0.3255 -0.5746
  456MOL0     H60156  11.203  -1.376   4.814 -0.1936  2.6212  0.9200
  456MOL0     H60157  11.381  -1.468   4.900 -0.4261 -2.8593 -1.1174
  456MOL0     H60158  11.563  -1.623   4.907  0.0577 -0.3903 -0.1266
  456MOL0     H60159  11.724  -1.644   4.849  1.1872  5.2615  2.7018
  456MOL0     H60160  11.652  -1.707   4.635 -0.8571 -0.5907 -1.1029
  456MOL0     H60161  11.491  -1.664   4.641 -1.9426 -1.7182  0.4893
  456MOL0     H60162  11.485  -1.836   4.861 -0.8981  0.0843 -0.4995
  456MOL0     H60163  11.648  -1.870   4.791  1.1296 -0.8568 -3.4991
  456MOL0     H60164  11.377  -1.905   4.645 -1.1330 -3.7801  0.2112
  456MOL0     H60165  11.545  -1.929   4.577  4.1360  0.7817  2.9529
  456MOL0     H60166  11.410  -2.057   4.818 -1.5565  2.3608 -1.7614
  456MOL0     H60167  11.568  -2.108   4.758  1.4667 -1.5854 -2.5537
  456MOL0     H60168  11.464  -2.211   4.556 -0.6586 -2.6714  0.0027
  456MOL0     H60169  11.310  -2.127   4.599 -0.1064  2.1293  2.9074
  456MOL0     H60170  11.442  -2.330   4.756  1.7288  4.4434 -1.7173
  456MOL0     H60171  11.266  -2.280   4.769 -0.2793  0.3631 -0.6692
  456MOL0     H60172  11.282  -2.508   4.669  1.0238 -1.2570 -0.7890
  456MOL0     H60173  11.404  -2.443   4.562 -0.3442  0.0281 -0.0651
  456MOL0     H60174  11.623  -1.323   4.550  0.0526  0.9357 -0.1227
  456MOL0     H60175  11.417  -1.204   4.482 -4.3929  0.5266 -0.3866
  456MOL0     H60176  10.994  -0.887   4.641 -1.8968 -0.3415  2.4455
  456MOL0     H60177  10.760  -0.845   4.551  0.7027  1.3983  1.1318
  456MOL0     H60178  11.058  -0.310   2.977  2.1458 -0.0199 -2.9344
  456MOL0     H60179  11.290  -0.219   2.910 -1.5006  0.6886 -4.7884
  456MOL0     H60180  11.559   0.250   3.247  1.7348  0.2960  0.6492
  456MOL0     H60181  11.807   0.327   3.233 -0.2980 -0.0377  0.3954
  456MOL0     H60182  12.034   0.060   3.054 -0.6417 -0.9511 -1.1687
  456MOL0     H60183  12.155   0.173   3.092 -2.5359 -4.1280  3.4921
  456MOL0     H60184  12.223   0.099   2.868  0.1594 -0.0545 -0.8762
  456MOL0     H60185  12.056   0.064   2.836 -0.0155  1.0409 -0.3477
  456MOL0     H60186  12.003   0.279   2.776 -0.3271 -1.4028  0.9385
  456MOL0     H60187  12.165   0.249   2.699 -1.2740 -1.7021 -0.5665
  456MOL0     H60188  12.159   0.463   2.762  1.6729  0.7868  0.9016
  456MOL0     H60189  12.094   0.434   2.922  0.4092  2.3090 -0.5427
  456MOL0     H60190  12.481   0.399   3.027 -0.4657 -0.1705  0.7037
  456MOL0     H60191  11.848   0.089   2.871 -0.1965 -0.3523 -0.8348
  456MOL0     H60192  11.614   0.031   2.884 -1.3755 -1.0112 -0.0548
  457MOL0     O60193  10.867   4.528   1.852  0.1754 -0.7874  0.5738
  457MOL0     C60194  10.861   4.428   1.775 -0.1254  0.2476 -0.5926
  457MOL0     O60195  10.965   4.368   1.716 -0.0282  0.3242  0.4930
  457MOL0     C60196  11.086   4.431   1.722  0.4426 -0.0026 -0.3147
  457MOL0     C60197  11.150   4.419   1.851  0.3701 -0.7686  0.9935
  457MOL0     C60198  11.281   4.452   1.859  0.9363 -0.2458  0.0620
  457MOL0     C60199  11.346   4.494   1.747  0.1971 -0.4876  0.3115
  457MOL0     O60200  11.484   4.540   1.744  0.9650 -0.3811  0.8116
  457MOL0     C60201  11.560   4.533   1.861 -0.8962 -0.3839  0.5607
  457MOL0     C60202  11.692   4.591   1.835 -0.5162  0.1222  0.8766
  457MOL0     C60203  11.763   4.648   1.958 -0.2380  0.2055  0.4279
  457MOL0     C60204  11.891   4.740   1.925  0.0321  0.3243  1.2977
  457MOL0     C60205  11.909   4.834   2.043  0.9568 -0.8534  0.5003
  457MOL0     C60206  11.835   4.967   2.029 -0.4065 -0.6096 -0.4643
  457MOL0     C60207  11.840   5.041   2.163  0.2555  0.3867 -0.1873
  457MOL0     C60208  11.717   5.033   2.252 -0.2779 -0.4968  0.6708
  457MOL0     N60209  11.598   5.058   2.178  0.9713 -0.0865  1.1811
  457MOL0     C60210  11.533   5.178   2.160 -0.6916 -0.9667 -0.4434
  457MOL0     C60211  11.411   5.140   2.116  0.7354 -0.5694 -0.1687
  457MOL0     C60212  11.300   5.247   2.078 -0.0563 -0.0350 -0.6694
  457MOL0     C60213  11.204   5.309   2.194 -0.7293  0.5238 -0.5526
  457MOL0     C60214  11.103   5.212   2.242 -0.4687  0.4080 -0.0618
  457MOL0     C60215  11.073   5.224   2.394 -0.3239  0.2923  0.6070
  457MOL0     O60216  10.975   5.132   2.433 -0.3556  0.4524  0.0475
  457MOL0     C60217  10.888   5.175   2.525 -0.0571 -0.4234  0.2385
  457MOL0     C60218  10.936   5.221   2.651  0.3115  0.4167  0.9293
  457MOL0     C60219  10.836   5.261   2.743 -0.1565 -0.0534  0.1882
  457MOL0     C60220  10.694   5.257   2.718  0.8644  0.6356 -0.8309
  457MOL0     C60221  10.601   5.282   2.825  1.0444 -0.3651  0.6128
  457MOL0     O60222  10.475   5.289   2.778 -0.5527 -0.5144  0.8017
  457MOL0     C60223  10.374   5.300   2.871 -0.0726  0.5006  0.8338
  457MOL0     C60224  10.336   5.184   2.939  0.4843 -0.3788 -0.1029
  457MOL0     C60225  10.247   5.189   3.049  0.5630  0.3702 -0.3074
  457MOL0     C60226  10.168   5.306   3.079  0.8142  0.4507  0.2844
  457MOL0     O60227  10.070   5.305   3.175 -0.4751 -0.0474 -0.8236
  457MOL0     C60228   9.940   5.347   3.146 -0.4176 -0.2842  0.0342
  457MOL0     C60229   9.849   5.263   3.236 -0.2057  0.0135  0.0536
  457MOL0     C60230   9.849   5.123   3.173 -0.0360  0.6386  0.3687
  457MOL0     C60231   9.742   5.042   3.235  0.5571 -0.0770  0.6795
  457MOL0     C60232   9.726   4.907   3.175  0.0749 -0.0934  0.0259
  457MOL0     C60233   9.675   4.909   3.028  0.3939  1.1466 -0.0253
  457MOL0     C60234   9.691   4.773   2.943  0.1631  0.4162 -0.5002
  457MOL0     C60235   9.631   4.796   2.803  0.5433 -0.4042  0.0368
  457MOL0    Cl60236   9.460   4.769   2.814  0.0061 -0.2103  0.4063
  457MOL0     C60237  10.205   5.420   3.005 -0.3393 -0.6591  0.7086
  457MOL0     C60238  10.303   5.421   2.907  0.2876 -0.1166  0.1289
  457MOL0     O60239  10.635   5.298   2.940  0.7152 -0.0304  0.8113
  457MOL0     C60240  10.653   5.214   2.587  0.2976 -0.3778 -0.6402
  457MOL0     C60241  10.749   5.164   2.501 -0.7628  0.3592  0.3710
  457MOL0     N60242  11.394   5.011   2.118 -0.4950 -0.0797  0.4619
  457MOL0     N60243  11.507   4.957   2.157  0.5051  0.1325 -0.2005
  457MOL0     C60244  11.288   4.500   1.616 -0.2171  0.1854 -0.5794
  457MOL0     C60245  11.150   4.463   1.602  0.9169  0.0400 -0.4790
  457MOL0     C60246  10.722   4.387   1.745 -0.4247 -1.2301  0.3102
  457MOL0     C60247  10.704   4.315   1.631  0.1293 -0.5415 -0.8873
  457MOL0     C60248  10.585   4.280   1.574 -0.4367  0.3236 -1.0977
  457MOL0     C60249  10.465   4.326   1.636 -0.3579  0.8330 -0.1265
  457MOL0     O60250  10.349   4.296   1.569 -0.1565  0.0764  0.0387
  457MOL0     C60251  10.268   4.413   1.554  0.2265  0.2594 -0.2107
  457MOL0     C60252  10.156   4.369   1.468  0.1935 -0.3052  0.1591
  457MOL0     C60253  10.048   4.480   1.453 -0.1044  0.1079  0.8278
  457MOL0     C60254   9.985   4.449   1.323  0.5840  0.1976  0.3601
  457MOL0     C60255   9.879   4.543   1.296  0.4170 -0.1062  0.2949
  457MOL0     C60256   9.800   4.635   1.273  0.2829 -0.6242  0.1428
  457MOL0     C60257  10.483   4.387   1.761  0.1174 -0.4055 -0.4981
  457MOL0     C60258  10.600   4.415   1.820 -0.4239 -0.9350  0.2697
  457MOL0     H60259  11.095   4.386   1.938  1.5383 -1.7597  1.3799
  457MOL0     H60260  11.347   4.437   1.944  0.7164  4.1060  1.2413
  457MOL0     H60261  11.582   4.428   1.882 -0.7081 -0.9222 -1.9981
  457MOL0     H60262  11.519   4.589   1.946 -0.5563  0.4371  0.1975
  457MOL0     H60263  11.670   4.673   1.767 -0.8514 -0.9094 -0.3038
  457MOL0     H60264  11.761   4.526   1.779  0.4169  1.8227 -0.0370
  457MOL0     H60265  11.785   4.578   2.038 -2.5417 -2.7254 -1.3159
  457MOL0     H60266  11.692   4.719   2.001 -0.2381  2.5092 -2.9720
  457MOL0     H60267  11.984   4.683   1.928  0.4138  0.7196 -1.3050
  457MOL0     H60268  11.877   4.782   1.825 -0.5714  1.6185  1.9114
  457MOL0     H60269  12.014   4.854   2.067  1.4875  0.1012 -2.3216
  457MOL0     H60270  11.859   4.783   2.126  0.5816 -1.7633 -0.2619
  457MOL0     H60271  11.733   4.945   1.994 -0.9999  0.7409  0.3519
  457MOL0     H60272  11.887   5.032   1.958 -0.7918 -1.0704 -1.1883
  457MOL0     H60273  11.926   5.007   2.222  0.2907  4.4116  2.5144
  457MOL0     H60274  11.867   5.147   2.157  1.8473  0.0022 -0.1950
  457MOL0     H60275  11.722   5.114   2.326 -1.7691 -0.5082  0.8224
  457MOL0     H60276  11.717   4.935   2.301  2.4679  0.9740  4.0023
  457MOL0     H60277  11.578   5.276   2.177  1.8163 -2.4905  3.1372
  457MOL0     H60278  11.224   5.206   2.010 -0.5403 -1.2966  0.5819
  457MOL0     H60279  11.342   5.328   2.018 -3.2147  1.2775 -1.3454
  457MOL0     H60280  11.150   5.391   2.147 -1.3753  0.2399 -0.3050
  457MOL0     H60281  11.276   5.327   2.275 -0.5091 -1.7183 -0.1769
  457MOL0     H60282  11.010   5.215   2.183 -1.7708  0.0307  1.8821
  457MOL0     H60283  11.136   5.110   2.221 -1.7368  0.4603 -2.7604
  457MOL0     H60284  11.043   5.329   2.399 -0.3605  0.4236 -1.4139
  457MOL0     H60285  11.164   5.211   2.454  0.4083  0.8173 -0.3673
  457MOL0     H60286  11.039   5.216   2.683  0.1428  0.1127  1.4295
  457MOL0     H60287  10.874   5.286   2.841  2.2605 -0.5962 -0.5546
  457MOL0     H60288  10.385   5.089   2.918 -2.2892 -2.4615  2.2014
  457MOL0     H60289  10.226   5.097   3.102  1.5290  1.9031  2.9931
  457MOL0     H60290   9.916   5.332   3.040 -3.9818 -0.9026  0.8216
  457MOL0     H60291   9.921   5.450   3.178  0.9757 -0.3064  1.0034
  457MOL0     H60292   9.749   5.306   3.236  0.2510  1.1418  1.1820
  457MOL0     H60293   9.892   5.262   3.336  1.1520 -1.1699 -0.5023
  457MOL0     H60294   9.944   5.070   3.186 -0.7454 -0.7381  0.1588
  457MOL0     H60295   9.828   5.124   3.065  0.9119 -2.0840  0.0747
  457MOL0     H60296   9.768   5.021   3.339 -0.8749 -1.0269  0.8817
  457MOL0     H60297   9.642   5.086   3.241  0.5054 -0.3273  2.3679
  457MOL0     H60298   9.650   4.858   3.238  0.3127  3.0175  3.0353
  457MOL0     H60299   9.817   4.848   3.185  1.3434  1.8811  0.5065
  457MOL0     H60300   9.730   4.981   2.967 -1.8745  2.2916 -0.8298
  457MOL0     H60301   9.567   4.924   3.031  0.1759 -0.3919  0.9990
  457MOL0     H60302   9.799   4.766   2.936  0.2640  0.5502  0.6619
  457MOL0     H60303   9.643   4.691   2.997 -1.1993  0.3301 -1.7663
  457MOL0     H60304   9.673   4.720   2.736 -2.3695 -1.4793 -0.7081
  457MOL0     H60305   9.660   4.895   2.765  2.6591 -2.0353 -3.0568
  457MOL0     H60306  10.149   5.508   3.034  0.6699 -0.6933  2.9543
  457MOL0     H60307  10.323   5.508   2.845 -0.5867 -3.2451 -5.1346
  457MOL0     H60308  10.548   5.209   2.559 -1.2742  2.8280  3.5753
  457MOL0     H60309  10.736   5.134   2.397  2.3857  3.0531 -0.9715
  457MOL0     H60310  11.352   4.543   1.539  0.0964 -2.5051 -1.9294
  457MOL0     H60311  11.090   4.445   1.513 -2.5593  1.8689  1.3059
  457MOL0     H60312  10.794   4.296   1.572  0.0420 -1.8658 -0.6157
  457MOL0     H60313  10.584   4.239   1.473 -0.4022  1.2170 -1.4642
  457MOL0     H60314  10.319   4.503   1.517  1.2525  0.4446  1.5652
  457MOL0     H60315  10.231   4.440   1.653 -0.2470 -1.4891  0.1167
  457MOL0     H60316  10.198   4.341   1.371  1.3732  2.0720 -0.0773
  457MOL0     H60317  10.104   4.286   1.517  1.7422 -1.1414  0.4433
  457MOL0     H60318  10.097   4.576   1.433  3.1268 -0.9841  2.7420
  457MOL0     H60319   9.978   4.484   1.537  0.8650  3.1073  1.6189
  457MOL0     H60320  10.058   4.449   1.242 -3.3006 -1.3581 -3.5206
  457MOL0     H60321   9.939   4.349   1.328 -4.2358  2.0975 -0.1364
  457MOL0     H60322   9.742   4.724   1.278 -0.5600 -1.1097 -0.7752
  457MOL0     H60323  10.397   4.410   1.822 -0.9923 -0.5508 -1.9508
  457MOL0     H60324  10.590   4.479   1.906 -0.3925  1.2292 -1.2488
  458MOL0     O60325   0.368   5.190   0.161  0.8869  0.1054  0.6981
  458MOL0     C60326   0.483   5.164   0.192 -0.4160  0.8339 -0.3301
  458MOL0     O60327   0.561   5.049   0.164  0.0253 -0.1615  0.3748
  458MOL0     C60328   0.502   4.958   0.082  0.8058  0.2198 -0.1572
  458MOL0     C60329   0.468   5.006  -0.044  0.3610  0.3415  0.4104
  458MOL0     C60330   0.400   4.918  -0.129 -1.0002 -0.4605  0.3669
  458MOL0     C60331   0.394   4.776  -0.106  0.4536 -0.2430  0.2664
  458MOL0     O60332   0.351   4.694  -0.201  0.3248  0.1656 -0.1576
  458MOL0     C60333   0.369   4.553  -0.181  0.3796 -0.3505 -0.5549
  458MOL0     C60334   0.367   4.495  -0.323  0.5395 -0.8828  0.4733
  458MOL0     C60335   0.405   4.349  -0.311 -1.1624  0.5913  0.6090
  458MOL0     C60336   0.372   4.287  -0.453  0.0661  0.1317  0.8353
  458MOL0     C60337   0.398   4.136  -0.455 -0.1966 -0.1282 -1.2678
  458MOL0     C60338   0.359   4.079  -0.591 -0.7685 -0.0701  0.0416
  458MOL0     C60339   0.368   3.923  -0.600  0.5904  0.8719 -0.2432
  458MOL0     C60340   0.327   3.884  -0.741  0.2729  0.4022  0.0020
  458MOL0     N60341   0.313   3.743  -0.744 -0.0692 -0.7227  0.4471
  458MOL0     C60342   0.196   3.664  -0.728 -0.3885 -0.0946  0.2553
  458MOL0     C60343   0.232   3.535  -0.726 -0.0780  0.4581  0.0470
  458MOL0     C60344   0.148   3.406  -0.723  0.1926 -0.0031 -0.0960
  458MOL0     C60345   0.014   3.409  -0.647 -0.0864 -0.3571 -0.7555
  458MOL0     C60346   0.045   3.433  -0.495  0.8059  1.1009  0.3365
  458MOL0     C60347  -0.077   3.409  -0.410 -0.0015  0.2964  0.7128
  458MOL0     O60348  -0.169   3.523  -0.397 -0.6607  0.9086 -0.5767
  458MOL0     C60349  -0.274   3.521  -0.486  1.0408 -0.0890  0.2015
  458MOL0     C60350  -0.318   3.417  -0.575  0.1575 -0.2813 -0.1447
  458MOL0     C60351  -0.411   3.434  -0.671  0.0162  0.6923 -0.4616
  458MOL0     C60352  -0.469   3.563  -0.686 -0.2365 -0.1267  0.0148
  458MOL0     C60353  -0.573   3.582  -0.786 -0.7704  0.6768  0.4388
  458MOL0     O60354  -0.598   3.702  -0.833 -0.6868  0.4878  0.0900
  458MOL0     C60355  -0.696   3.732  -0.929  0.7382  0.1209 -0.0479
  458MOL0     C60356  -0.690   3.667  -1.060 -0.7168 -0.0408 -0.3806
  458MOL0     C60357  -0.760   3.725  -1.165  0.4131  0.0571  0.3239
  458MOL0     C60358  -0.858   3.826  -1.132  0.6655  0.1061  0.7276
  458MOL0     O60359  -0.945   3.865  -1.228 -0.7796  0.3036  0.2613
  458MOL0     C60360  -0.878   3.907  -1.354 -0.2177 -0.0357  0.3099
  458MOL0     C60361  -0.780   4.027  -1.345  0.2695 -0.3833 -0.0042
  458MOL0     C60362  -0.713   4.048  -1.484 -0.5778 -0.3972  0.1150
  458MOL0     C60363  -0.570   3.970  -1.495  0.1981 -0.2076 -0.2351
  458MOL0     C60364  -0.533   3.937  -1.637 -0.3820 -0.3711 -0.2989
  458MOL0     C60365  -0.390   3.900  -1.660 -0.0810  0.2023 -0.3604
  458MOL0     C60366  -0.290   4.010  -1.609 -0.5551  0.6014  0.7063
  458MOL0     C60367  -0.152   3.971  -1.666 -0.1392 -1.2286  0.6836
  458MOL0    Cl60368  -0.107   3.803  -1.618 -0.4963  0.4495 -0.3845
  458MOL0     C60369  -0.882   3.861  -1.004 -0.5706 -0.3192 -0.7835
  458MOL0     C60370  -0.785   3.834  -0.905 -0.7848 -0.7542  0.5444
  458MOL0     O60371  -0.615   3.481  -0.835  0.1820 -0.2253 -0.2138
  458MOL0     C60372  -0.442   3.670  -0.597  0.0064  0.0935  0.9289
  458MOL0     C60373  -0.339   3.649  -0.498  0.9667  1.1839 -0.4822
  458MOL0     N60374   0.371   3.538  -0.720 -0.3543  0.3841  0.3698
  458MOL0     N60375   0.416   3.657  -0.736 -0.1966  0.1833 -0.1891
  458MOL0     C60376   0.452   4.729   0.017  0.3442  0.2272  0.2729
  458MOL0     C60377   0.503   4.818   0.111  1.3296 -0.8064  0.2106
  458MOL0     C60378   0.550   5.262   0.277  0.6654 -0.5322 -0.8749
  458MOL0     C60379   0.661   5.227   0.349 -0.4290 -0.7991 -0.5884
  458MOL0     C60380   0.732   5.321   0.426 -1.0645 -1.4699 -1.2896
  458MOL0     C60381   0.691   5.453   0.436 -0.4727 -0.1403  0.0959
  458MOL0     O60382   0.739   5.543   0.522  0.1547  0.2876 -0.0730
  458MOL0     C60383   0.878   5.555   0.543  0.7076  0.1135 -0.0646
  458MOL0     C60384   0.932   5.698   0.557 -0.9692 -0.2589 -0.4330
  458MOL0     C60385   0.834   5.771   0.645 -0.3768 -0.9563  0.2658
  458MOL0     C60386   0.898   5.918   0.675  0.1336 -0.3885  0.6392
  458MOL0     C60387   0.912   5.990   0.538 -0.7361  0.7498  0.5219
  458MOL0     C60388   0.900   6.027   0.422  0.4044 -0.3032  0.6573
  458MOL0     C60389   0.580   5.492   0.373  0.1024  0.3411 -0.6680
  458MOL0     C60390   0.512   5.398   0.288  0.7283  0.1602 -0.2267
  458MOL0     H60391   0.483   5.107  -0.080  0.0952 -0.2712 -1.5609
  458MOL0     H60392   0.373   4.956  -0.227  0.5312  0.5302  0.2914
  458MOL0     H60393   0.280   4.520  -0.128 -2.0744 -1.6152 -4.9174
  458MOL0     H60394   0.464   4.529  -0.132  0.0250  1.9473  1.4340
  458MOL0     H60395   0.437   4.561  -0.375 -0.8461  1.4321  1.4325
  458MOL0     H60396   0.270   4.503  -0.372  0.7685 -1.9950 -0.2004
  458MOL0     H60397   0.359   4.295  -0.228  0.9946 -0.9103  0.9078
  458MOL0     H60398   0.511   4.347  -0.285 -1.0376  1.4704  0.2119
  458MOL0     H60399   0.267   4.303  -0.479  0.3186  0.1684 -0.1925
  458MOL0     H60400   0.420   4.338  -0.538 -0.5634  0.4876  0.6887
  458MOL0     H60401   0.353   4.083  -0.371  2.6981  1.3799  1.4476
  458MOL0     H60402   0.506   4.129  -0.438  0.0930  3.0497 -1.0796
  458MOL0     H60403   0.414   4.131  -0.669 -1.0698  0.4430  0.1625
  458MOL0     H60404   0.253   4.109  -0.590 -0.0061  3.2485  3.1511
  458MOL0     H60405   0.468   3.882  -0.584  0.7779  2.5701  4.3767
  458MOL0     H60406   0.292   3.885  -0.531  1.0754  1.7069  0.7776
  458MOL0     H60407   0.400   3.917  -0.816 -1.6121  0.6360 -1.8079
  458MOL0     H60408   0.240   3.931  -0.788  0.3826 -0.4029 -1.0417
  458MOL0     H60409   0.093   3.697  -0.722 -0.0046  1.0057  1.1041
  458MOL0     H60410   0.212   3.324  -0.691 -0.7651 -0.0004  1.9948
  458MOL0     H60411   0.122   3.378  -0.825  1.8853  1.7823 -1.0856
  458MOL0     H60412  -0.045   3.318  -0.663  0.2884 -0.7707  0.1436
  458MOL0     H60413  -0.044   3.490  -0.694  0.9925  1.1537  0.4125
  458MOL0     H60414   0.120   3.361  -0.458  0.1734  0.0386 -0.3941
  458MOL0     H60415   0.061   3.538  -0.468 -4.4591  1.8452  1.8081
  458MOL0     H60416  -0.021   3.384  -0.319  1.4693 -0.2531 -0.3044
  458MOL0     H60417  -0.129   3.314  -0.427  2.3862 -0.9627 -0.1048
  458MOL0     H60418  -0.274   3.319  -0.559  2.1324  0.5614 -0.0988
  458MOL0     H60419  -0.435   3.343  -0.724  0.5080  1.0923 -1.4068
  458MOL0     H60420  -0.617   3.593  -1.088  0.1495  1.1548 -1.4050
  458MOL0     H60421  -0.740   3.686  -1.264 -0.4302 -1.5529  0.7456
  458MOL0     H60422  -0.947   3.925  -1.437  2.2976 -1.6296 -2.3302
  458MOL0     H60423  -0.817   3.828  -1.400 -0.7860 -1.6423  2.1417
  458MOL0     H60424  -0.704   4.020  -1.267  0.1504  0.3371  0.1830
  458MOL0     H60425  -0.846   4.115  -1.339  1.8152  1.3186 -4.0272
  458MOL0     H60426  -0.691   4.153  -1.505 -1.3908 -0.3586 -0.6344
  458MOL0     H60427  -0.777   4.015  -1.566 -0.8675  0.5370 -0.0413
  458MOL0     H60428  -0.493   4.040  -1.461 -0.8202  1.5638 -1.4002
  458MOL0     H60429  -0.575   3.876  -1.440  1.2269  0.2072  0.6196
  458MOL0     H60430  -0.569   4.018  -1.701 -0.4356  0.3391  0.6074
  458MOL0     H60431  -0.589   3.848  -1.667 -0.2310 -0.6152  0.1248
  458MOL0     H60432  -0.377   3.875  -1.766  2.7856  2.9736 -0.8485
  458MOL0     H60433  -0.372   3.809  -1.603  0.6796 -0.1739 -1.1687
  458MOL0     H60434  -0.341   4.104  -1.627  0.2031  1.1224  1.1812
  458MOL0     H60435  -0.275   4.000  -1.501  1.6167 -1.6251  0.3061
  458MOL0     H60436  -0.079   4.052  -1.649 -1.8594  0.4906  0.2765
  458MOL0     H60437  -0.166   3.964  -1.774  0.6852 -0.4620  0.5116
  458MOL0     H60438  -0.951   3.943  -0.986 -0.1228 -0.3002  1.0277
  458MOL0     H60439  -0.768   3.890  -0.813 -1.3411  2.3932 -1.1221
  458MOL0     H60440  -0.499   3.761  -0.614 -0.3332 -0.5909 -2.3740
  458MOL0     H60441  -0.308   3.735  -0.440  1.9580  0.5003  0.0338
  458MOL0     H60442   0.462   4.624   0.043  0.8293 -0.0063 -0.8108
  458MOL0     H60443   0.557   4.774   0.195  0.1426 -1.8581  0.4457
  458MOL0     H60444   0.684   5.121   0.355  0.3265 -0.5890  0.4446
  458MOL0     H60445   0.797   5.282   0.504 -4.1117 -2.9777  0.7599
  458MOL0     H60446   0.934   5.501   0.465 -0.7163 -1.1070 -0.2718
  458MOL0     H60447   0.892   5.507   0.640  0.5693 -0.7687 -0.4759
  458MOL0     H60448   1.035   5.702   0.595  0.0793  1.2520 -3.0822
  458MOL0     H60449   0.931   5.755   0.463 -3.2370  2.9599  1.3228
  458MOL0     H60450   0.831   5.719   0.741 -0.6345  0.6510  1.1564
  458MOL0     H60451   0.736   5.772   0.597 -0.0717 -2.8690 -0.5127
  458MOL0     H60452   0.852   5.985   0.748 -0.5955  0.4296 -0.5352
  458MOL0     H60453   1.004   5.902   0.696  0.3179 -3.0675 -1.7553
  458MOL0     H60454   0.886   6.070   0.325  3.0344  1.3954  0.9449
  458MOL0     H60455   0.533   5.584   0.407  3.1150  1.4528  0.7866
  458MOL0     H60456   0.425   5.437   0.237 -2.5153 -1.8931  3.2877
  459MOL0     O60457   4.041   4.293   9.809  0.0742  0.1222 -0.0439
  459MOL0     C60458   3.919   4.337   9.800 -1.1439 -0.4700 -0.3424
  459MOL0     O60459   3.875   4.433   9.888 -0.5192  0.3459  0.5452
  459MOL0     C60460   3.970   4.502   9.967 -0.1046 -0.4318  0.3845
  459MOL0     C60461   4.086   4.463  10.039 -0.0979 -0.2690  0.0469
  459MOL0     C60462   4.160   4.555  10.114 -1.1070  0.0664  0.7194
  459MOL0     C60463   4.124   4.688  10.134 -0.3331 -0.1240 -0.0897
  459MOL0     O60464   4.187   4.787  10.217 -0.2773  0.5180 -0.4437
  459MOL0     C60465   4.164   4.925  10.232 -0.6070  0.5216 -0.1917
  459MOL0     C60466   4.206   4.979  10.381  0.2822  0.5455  0.2322
  459MOL0     C60467   4.361   5.001  10.380  0.7431 -0.2506 -0.6918
  459MOL0     C60468   4.416   5.084  10.500  0.3541 -0.3650  0.6093
  459MOL0     C60469   4.559   5.150  10.478  0.1003  0.3017 -0.8036
  459MOL0     C60470   4.660   5.064  10.405 -0.0058 -0.0281  0.7792
  459MOL0     C60471   4.783   5.141  10.372  0.1841 -0.5920 -0.7387
  459MOL0     C60472   4.774   5.226  10.245 -0.2435  0.2381 -0.0713
  459MOL0     N60473   4.908   5.261  10.216  0.5623  0.1608  0.4911
  459MOL0     C60474   4.991   5.186  10.133  0.4577 -0.3309  0.1473
  459MOL0     C60475   5.111   5.229  10.154 -0.2841  0.3482 -0.1191
  459MOL0     C60476   5.229   5.177  10.075 -0.1693  0.5757  0.0716
  459MOL0     C60477   5.261   5.280   9.972  0.0359 -0.3542  0.1122
  459MOL0     C60478   5.372   5.252   9.875 -0.2744  0.0886 -0.1963
  459MOL0     C60479   5.370   5.109   9.828 -0.9268  0.1229 -0.3706
  459MOL0     O60480   5.460   5.119   9.718 -0.3151 -0.1252 -0.0624
  459MOL0     C60481   5.520   5.009   9.675  1.3137  0.0603 -0.4161
  459MOL0     C60482   5.492   4.877   9.704  0.0819  0.0562 -0.7987
  459MOL0     C60483   5.583   4.773   9.656 -0.0823 -0.5205 -0.4682
  459MOL0     C60484   5.696   4.804   9.579 -0.2607 -0.4108 -0.0226
  459MOL0     C60485   5.775   4.693   9.525 -0.4060 -0.4213  0.0557
  459MOL0     O60486   5.743   4.564   9.551 -0.1762 -0.5783  0.2583
  459MOL0     C60487   5.813   4.455   9.511  0.1567  0.4050 -0.2154
  459MOL0     C60488   5.813   4.345   9.603  1.0991  0.3494 -0.2846
  459MOL0     C60489   5.857   4.221   9.558  0.0530 -0.5145  0.7595
  459MOL0     C60490   5.929   4.204   9.433  0.4044 -0.1442  0.3041
  459MOL0     O60491   5.980   4.088   9.387 -1.0929 -0.2332 -0.7899
  459MOL0     C60492   5.971   3.972   9.469 -0.0392 -0.5951  0.6656
  459MOL0     C60493   6.065   3.855   9.442  0.0250 -0.0928 -0.7270
  459MOL0     C60494   6.021   3.768   9.321 -0.6620 -0.0960  0.1462
  459MOL0     C60495   6.139   3.660   9.299  0.2912 -0.5880 -0.9586
  459MOL0     C60496   6.137   3.589   9.161  0.1640 -0.0911  0.1313
  459MOL0     C60497   6.200   3.685   9.056  0.7308 -0.5111 -0.8621
  459MOL0     C60498   6.240   3.625   8.923  0.3359  0.5846 -0.4393
  459MOL0     C60499   6.176   3.700   8.810  0.3209 -0.2548  0.9067
  459MOL0    Cl60500   6.248   3.864   8.788 -0.0598  0.4628  0.1256
  459MOL0     C60501   5.944   4.315   9.356  0.3290  0.4296  1.1129
  459MOL0     C60502   5.877   4.429   9.388  0.0948 -0.8036 -0.1598
  459MOL0     O60503   5.873   4.716   9.452  0.5015  0.1070 -0.2948
  459MOL0     C60504   5.714   4.942   9.553 -0.3014  1.0382 -0.6036
  459MOL0     C60505   5.629   5.041   9.605  0.1312  0.3518  0.2790
  459MOL0     N60506   5.102   5.341  10.239  0.1944  0.2804 -0.5321
  459MOL0     N60507   4.978   5.359  10.272 -0.6088 -0.6677 -0.1575
  459MOL0     C60508   4.004   4.725  10.054  0.5543 -0.0190 -0.3397
  459MOL0     C60509   3.936   4.633   9.975  0.2801  0.0026  0.1162
  459MOL0     C60510   3.825   4.270   9.702 -0.8664 -0.0970  0.4492
  459MOL0     C60511   3.701   4.327   9.662  0.4767  0.3535  0.1550
  459MOL0     C60512   3.624   4.258   9.562 -0.3338 -0.1360  0.8011
  459MOL0     C60513   3.673   4.129   9.508  1.2913  0.2768  0.0912
  459MOL0     O60514   3.603   4.061   9.410 -0.2338  1.0005  0.0862
  459MOL0     C60515   3.479   4.113   9.362 -1.0640  0.0625  0.4245
  459MOL0     C60516   3.362   4.099   9.463  0.1400  0.0808  0.7573
  459MOL0     C60517   3.217   4.080   9.409 -0.8122 -0.1727  0.0514
  459MOL0     C60518   3.148   4.209   9.370  0.1509  0.2536  0.2704
  459MOL0     C60519   3.215   4.282   9.257 -0.5857 -0.5163 -0.8040
  459MOL0     C60520   3.289   4.340   9.187 -0.2541 -0.3819 -1.5183
  459MOL0     C60521   3.798   4.075   9.546  0.0503  0.5888 -0.0080
  459MOL0     C60522   3.869   4.134   9.647  0.7618 -0.2508 -0.4584
  459MOL0     H60523   4.108   4.357  10.046  1.1969  0.0297  0.8596
  459MOL0     H60524   4.248   4.517  10.165 -0.6238 -0.7254 -0.6358
  459MOL0     H60525   4.059   4.952  10.215 -1.1149 -0.0270  1.8039
  459MOL0     H60526   4.229   4.975  10.159  1.2225 -1.3818  0.0266
  459MOL0     H60527   4.182   4.908  10.461 -1.6687  0.8418 -0.0497
  459MOL0     H60528   4.158   5.074  10.408 -2.9539 -0.3498 -1.7698
  459MOL0     H60529   4.377   5.055  10.286  3.5924 -1.6397 -1.0980
  459MOL0     H60530   4.411   4.904  10.380 -2.7645 -2.2476 -1.7267
  459MOL0     H60531   4.351   5.171  10.508  0.3762 -0.2602 -0.2712
  459MOL0     H60532   4.411   5.021  10.589 -0.0607 -0.9256  0.1963
  459MOL0     H60533   4.595   5.167  10.580 -0.9993  0.2552 -0.3934
  459MOL0     H60534   4.546   5.256  10.452  4.2196  1.5178  1.2642
  459MOL0     H60535   4.609   5.028  10.315  0.5336  2.1742 -0.5056
  459MOL0     H60536   4.675   4.968  10.455 -1.4140  0.5075  2.3102
  459MOL0     H60537   4.810   5.201  10.460 -0.2453  0.7092 -1.4665
  459MOL0     H60538   4.856   5.063  10.350  0.8978 -0.6485  1.5745
  459MOL0     H60539   4.718   5.319  10.259  3.0352  1.9952  3.6504
  459MOL0     H60540   4.728   5.165  10.167  0.8897 -1.7508  0.7198
  459MOL0     H60541   4.969   5.109  10.060  1.1685  2.9569 -3.9297
  459MOL0     H60542   5.208   5.080  10.030  1.6287  0.2316 -0.1097
  459MOL0     H60543   5.319   5.161  10.136  1.5318  3.1140 -1.5850
  459MOL0     H60544   5.291   5.369  10.028 -2.4507  0.7227 -0.1335
  459MOL0     H60545   5.172   5.305   9.913  1.1768 -1.7248 -2.3107
  459MOL0     H60546   5.360   5.318   9.789  0.3787 -1.2827 -1.3660
  459MOL0     H60547   5.464   5.278   9.929 -1.7277 -0.4034  2.7020
  459MOL0     H60548   5.275   5.071   9.791 -1.1228 -1.4002  1.5139
  459MOL0     H60549   5.407   5.042   9.907  1.8870 -2.5977 -3.6819
  459MOL0     H60550   5.409   4.841   9.764  1.8394 -1.7367  0.7278
  459MOL0     H60551   5.554   4.669   9.663  0.6528 -0.7630 -0.8973
  459MOL0     H60552   5.754   4.357   9.693  4.8646  0.9002  2.3376
  459MOL0     H60553   5.831   4.139   9.625 -1.4829 -0.9732 -0.3592
  459MOL0     H60554   5.866   3.940   9.471 -1.0358  2.2404 -0.9368
  459MOL0     H60555   5.997   4.003   9.570  2.8459  1.1056 -0.4886
  459MOL0     H60556   6.061   3.793   9.531  2.7229  1.8351  0.9135
  459MOL0     H60557   6.168   3.894   9.439  0.4659 -1.2071 -0.3500
  459MOL0     H60558   6.000   3.827   9.231 -2.7062  2.6915  2.2798
  459MOL0     H60559   5.929   3.719   9.356  0.8829 -2.7364  0.7681
  459MOL0     H60560   6.233   3.714   9.312 -0.3260  0.2164  0.2795
  459MOL0     H60561   6.131   3.580   9.373 -0.9116 -0.0239 -0.4665
  459MOL0     H60562   6.039   3.549   9.135  0.8556 -0.7744 -1.5924
  459MOL0     H60563   6.202   3.500   9.157 -1.2450 -1.1121 -1.1209
  459MOL0     H60564   6.293   3.730   9.093 -1.1999  3.2665 -0.1569
  459MOL0     H60565   6.127   3.764   9.036  0.3018 -1.0324 -1.4207
  459MOL0     H60566   6.346   3.631   8.899 -0.1144  1.9472 -2.3280
  459MOL0     H60567   6.201   3.524   8.909 -0.5620  1.0012 -1.0554
  459MOL0     H60568   6.069   3.720   8.826  0.2790 -1.9083  2.9544
  459MOL0     H60569   6.173   3.637   8.720 -1.9558  1.1038 -0.0789
  459MOL0     H60570   5.994   4.298   9.261 -1.0927 -0.0840  0.4270
  459MOL0     H60571   5.862   4.507   9.315 -2.5092 -1.8375 -0.8433
  459MOL0     H60572   5.801   4.976   9.498  2.8741 -0.6995  2.9112
  459MOL0     H60573   5.642   5.144   9.575 -2.5341  0.9866  1.0244
  459MOL0     H60574   3.956   4.822  10.053 -1.4391 -0.8948  1.7721
  459MOL0     H60575   3.859   4.676   9.911 -0.6212 -0.0700  1.1338
  459MOL0     H60576   3.674   4.430   9.683 -1.3791 -0.0108 -0.2447
  459MOL0     H60577   3.540   4.312   9.521 -2.5490 -2.2704  2.1857
  459MOL0     H60578   3.449   4.055   9.274 -2.2423 -1.1060  1.5642
  459MOL0     H60579   3.487   4.218   9.331  0.3859  0.5341  2.2009
  459MOL0     H60580   3.386   4.014   9.527  2.0406 -1.7522 -2.1277
  459MOL0     H60581   3.361   4.192   9.520 -1.0395 -0.4389  1.6384
  459MOL0     H60582   3.163   4.033   9.492 -1.6603 -0.5481 -0.6947
  459MOL0     H60583   3.217   4.009   9.325  1.6865  0.4602 -0.5810
  459MOL0     H60584   3.049   4.183   9.332  1.1500 -1.7071 -1.1251
  459MOL0     H60585   3.130   4.275   9.456  2.5576  1.3595  0.0002
  459MOL0     H60586   3.364   4.393   9.131  0.1690  0.4543 -0.1962
  459MOL0     H60587   3.824   3.976   9.508 -2.7307 -0.7891  1.3277
  459MOL0     H60588   3.962   4.092   9.686 -0.3767 -1.3297  1.2364
  460MOL0     O60589   9.628   2.220   6.555  0.5640 -0.1693  0.8849
  460MOL0     C60590   9.514   2.213   6.600 -0.9909 -0.7569 -0.6041
  460MOL0     O60591   9.409   2.162   6.534  0.5650 -0.4058 -0.7331
  460MOL0     C60592   9.424   2.147   6.405 -0.7926  0.6060  0.5404
  460MOL0     C60593   9.360   2.222   6.307 -1.2015  0.8609 -0.2850
  460MOL0     C60594   9.378   2.195   6.171 -0.4137 -0.3284  0.2521
  460MOL0     C60595   9.452   2.086   6.127  0.3784 -0.2450 -0.7103
  460MOL0     O60596   9.487   2.048   6.006  0.1606 -0.3762  0.2816
  460MOL0     C60597   9.434   1.918   5.970  0.6565  1.0652  0.1852
  460MOL0     C60598   9.502   1.866   5.845  0.3818  0.0347 -0.9908
  460MOL0     C60599   9.645   1.864   5.861 -0.8520  0.2234 -0.8216
  460MOL0     C60600   9.727   1.814   5.736  0.3039  0.5440 -0.1301
  460MOL0     C60601   9.770   1.925   5.650  0.0005  0.6309  0.9439
  460MOL0     C60602   9.830   1.881   5.518  0.0089 -0.8911  0.6158
  460MOL0     C60603   9.965   1.966   5.462  0.3461  0.4784 -0.7979
  460MOL0     C60604  10.093   1.961   5.548 -0.3241 -0.4175 -0.0819
  460MOL0     N60605  10.137   1.826   5.553 -0.9171  0.8402  0.2915
  460MOL0     C60606  10.135   1.737   5.668  0.2997 -0.4241  0.7041
  460MOL0     C60607  10.212   1.635   5.627  0.4860  0.8496 -0.3577
  460MOL0     C60608  10.279   1.520   5.712  0.0715 -1.1385 -0.2624
  460MOL0     C60609  10.231   1.378   5.673 -0.0277 -0.4990 -0.3184
  460MOL0     C60610  10.300   1.256   5.746 -0.1802 -1.6059 -0.1654
  460MOL0     C60611  10.248   1.209   5.883  0.0777 -0.2010 -0.7757
  460MOL0     O60612  10.286   1.298   5.984  0.1993 -0.7024 -0.1363
  460MOL0     C60613  10.255   1.273   6.110  0.3660  0.3672 -0.1468
  460MOL0     C60614  10.234   1.377   6.195  0.0785  0.2994 -0.4316
  460MOL0     C60615  10.205   1.357   6.332  0.5341 -0.1438 -0.3313
  460MOL0     C60616  10.211   1.232   6.387 -0.3192 -0.8774 -0.0729
  460MOL0     C60617  10.175   1.199   6.531  0.2587  0.5365  0.4706
  460MOL0     O60618  10.157   1.069   6.551 -0.5964  0.8767 -0.0933
  460MOL0     C60619  10.136   1.022   6.674 -0.5794  0.0786  0.0472
  460MOL0     C60620  10.229   1.034   6.776  0.3278  0.0487  0.0680
  460MOL0     C60621  10.199   0.981   6.907  0.4235 -1.1759  0.7403
  460MOL0     C60622  10.083   0.901   6.926  0.8593  0.4805 -0.7338
  460MOL0     O60623  10.066   0.845   7.054  0.6702 -0.7747  0.6013
  460MOL0     C60624   9.940   0.769   7.068  0.0806 -0.1022 -0.5920
  460MOL0     C60625   9.931   0.729   7.214 -0.2283 -0.7123 -0.6973
  460MOL0     C60626   9.906   0.860   7.295 -0.5574  0.6285 -0.0732
  460MOL0     C60627   9.924   0.821   7.446  0.9514 -0.1556 -0.3795
  460MOL0     C60628   9.888   0.927   7.552  0.3373 -0.0792 -1.0796
  460MOL0     C60629   9.987   1.048   7.561 -0.0546  0.3526  0.8860
  460MOL0     C60630   9.949   1.129   7.680 -0.1295  0.2095 -0.2250
  460MOL0     C60631  10.028   1.256   7.711 -0.7022 -1.2273  0.2308
  460MOL0    Cl60632   9.978   1.338   7.858  0.7865  0.2080  0.2619
  460MOL0     C60633  10.000   0.870   6.817 -0.7097  0.2939  0.1805
  460MOL0     C60634  10.027   0.931   6.692 -0.0140  0.1918  0.0097
  460MOL0     O60635  10.170   1.286   6.614 -0.2354  0.2257 -0.3909
  460MOL0     C60636  10.243   1.131   6.299  0.5840  0.6810 -0.8176
  460MOL0     C60637  10.267   1.146   6.163 -0.9981 -0.0402 -0.2391
  460MOL0     N60638  10.237   1.639   5.494  0.4920  0.0084 -0.1597
  460MOL0     N60639  10.199   1.755   5.448  0.2354  0.1326 -0.1195
  460MOL0     C60640   9.516   2.014   6.227  0.4107  0.7554  1.0780
  460MOL0     C60641   9.510   2.053   6.360  0.4715 -0.0855  0.5737
  460MOL0     C60642   9.489   2.270   6.736 -0.5908 -1.1524  0.7049
  460MOL0     C60643   9.354   2.301   6.756  0.1526 -0.5645  0.1597
  460MOL0     C60644   9.309   2.334   6.888  0.2272  0.8085 -0.1143
  460MOL0     C60645   9.401   2.348   6.990 -0.4908 -0.6723 -0.5915
  460MOL0     O60646   9.345   2.385   7.112  0.5551  0.2067 -0.1415
  460MOL0     C60647   9.395   2.318   7.230 -0.0117  0.0838  0.0078
  460MOL0     C60648   9.305   2.368   7.347 -0.4596  0.0255  0.0951
  460MOL0     C60649   9.319   2.522   7.373 -0.1300  0.1970  0.4250
  460MOL0     C60650   9.224   2.588   7.475  0.4309 -0.5757  0.3392
  460MOL0     C60651   9.221   2.495   7.588 -0.3294  0.2602 -0.3544
  460MOL0     C60652   9.224   2.424   7.688  0.5502 -0.6420  0.5862
  460MOL0     C60653   9.537   2.319   6.964  0.3567 -0.4971 -0.5900
  460MOL0     C60654   9.582   2.289   6.836  0.3451 -0.2807 -0.3962
  460MOL0     H60655   9.290   2.302   6.328 -0.1531  1.9760 -0.9143
  460MOL0     H60656   9.335   2.256   6.092  1.2984 -0.2457 -0.6663
  460MOL0     H60657   9.329   1.924   5.940  0.8777  0.5564 -0.7432
  460MOL0     H60658   9.426   1.844   6.049 -2.6548  1.1214  0.0169
  460MOL0     H60659   9.478   1.936   5.765 -1.4418 -0.7353 -1.1621
  460MOL0     H60660   9.462   1.766   5.829 -0.0649 -0.3341  1.9297
  460MOL0     H60661   9.670   1.800   5.946 -0.1868 -2.7583 -3.0792
  460MOL0     H60662   9.693   1.961   5.878  0.2780 -0.0768 -2.0817
  460MOL0     H60663   9.820   1.763   5.765 -0.0030  1.1006  1.9522
  460MOL0     H60664   9.671   1.744   5.674  1.4374 -0.4161 -0.1034
  460MOL0     H60665   9.830   1.989   5.716  1.6367 -0.6455  0.7754
  460MOL0     H60666   9.684   1.984   5.618  0.6074  0.4487 -1.1532
  460MOL0     H60667   9.742   1.878   5.453 -0.8525 -0.9595  1.7600
  460MOL0     H60668   9.852   1.776   5.536 -1.3744 -1.1594  0.8485
  460MOL0     H60669   9.970   1.937   5.357 -0.4876  1.5784 -1.1478
  460MOL0     H60670   9.946   2.073   5.454  0.5385  0.3901 -3.2737
  460MOL0     H60671  10.064   1.989   5.649  2.7038  2.7056  0.1117
  460MOL0     H60672  10.170   2.027   5.507 -1.6164 -0.5276 -2.9812
  460MOL0     H60673  10.104   1.769   5.767 -1.6073  0.3870 -0.1144
  460MOL0     H60674  10.272   1.544   5.819  1.6877  2.5390 -0.8233
  460MOL0     H60675  10.386   1.512   5.689  0.6501  2.3979  0.5978
  460MOL0     H60676  10.260   1.366   5.569  1.4963  0.3247 -0.0111
  460MOL0     H60677  10.121   1.375   5.669  0.0236 -1.3805 -2.8301
  460MOL0     H60678  10.294   1.176   5.672  0.3807 -1.4295 -0.4065
  460MOL0     H60679  10.405   1.271   5.772 -0.5016  2.0018 -0.4005
  460MOL0     H60680  10.307   1.120   5.911  1.7225  1.0215 -0.1664
  460MOL0     H60681  10.140   1.194   5.888  0.1374 -0.2515  1.0059
  460MOL0     H60682  10.244   1.477   6.153 -0.4690  1.4734  2.0754
  460MOL0     H60683  10.182   1.436   6.402 -0.4505  0.2826 -1.1202
  460MOL0     H60684  10.318   1.091   6.751 -0.1214  0.7858  0.1291
  460MOL0     H60685  10.271   0.982   6.989 -0.5595 -0.5478  1.6198
  460MOL0     H60686   9.958   0.676   7.013 -0.1482  1.1573 -2.9484
  460MOL0     H60687   9.850   0.825   7.041 -0.2539 -0.3548 -0.0020
  460MOL0     H60688  10.027   0.695   7.255  0.1160  0.6807 -0.2924
  460MOL0     H60689   9.850   0.658   7.234 -0.4596 -0.6723 -1.4526
  460MOL0     H60690   9.806   0.900   7.276 -0.6655  0.9939  1.1697
  460MOL0     H60691   9.972   0.941   7.263 -0.0932 -0.3185 -1.6181
  460MOL0     H60692   9.858   0.738   7.474  0.3571  0.2922 -0.4348
  460MOL0     H60693  10.029   0.806   7.470  1.1899  3.0742  1.0865
  460MOL0     H60694   9.878   0.873   7.646 -1.2009 -1.2955 -1.8934
  460MOL0     H60695   9.788   0.956   7.518  0.0201 -0.3250 -0.3596
  460MOL0     H60696   9.981   1.106   7.468 -1.1679 -1.2441 -0.0733
  460MOL0     H60697  10.091   1.016   7.575  0.5075 -1.2358 -4.4325
  460MOL0     H60698   9.841   1.141   7.674 -0.1471 -0.6760 -2.7656
  460MOL0     H60699   9.960   1.070   7.772  2.0175  0.9496  0.0593
  460MOL0     H60700  10.018   1.333   7.633  0.0340  2.2968  3.3344
  460MOL0     H60701  10.133   1.228   7.703 -0.8239 -2.5341  2.4453
  460MOL0     H60702   9.917   0.801   6.824 -0.6883  0.2559  0.0661
  460MOL0     H60703   9.951   0.923   6.615  0.5773 -1.1202 -0.4707
  460MOL0     H60704  10.237   1.030   6.339 -1.7103  0.7514 -0.8596
  460MOL0     H60705  10.286   1.057   6.103 -2.2666 -1.2092  1.0172
  460MOL0     H60706   9.579   1.926   6.215  0.1983  0.5743  1.2963
  460MOL0     H60707   9.567   1.988   6.425  0.9200 -0.3446 -0.0664
  460MOL0     H60708   9.286   2.281   6.674  0.7979  0.1260 -0.5663
  460MOL0     H60709   9.203   2.332   6.912  0.0337 -0.1923 -0.9780
  460MOL0     H60710   9.500   2.343   7.250 -0.3195  2.4156 -1.0117
  460MOL0     H60711   9.384   2.210   7.220  0.6763 -0.1167  1.2689
  460MOL0     H60712   9.206   2.324   7.333  0.2586 -1.8902  0.6609
  460MOL0     H60713   9.343   2.322   7.439 -2.3574 -2.4536 -0.2504
  460MOL0     H60714   9.300   2.568   7.275 -0.2313 -3.9276 -1.6994
  460MOL0     H60715   9.423   2.547   7.396 -0.6147  2.1125  0.7034
  460MOL0     H60716   9.244   2.691   7.506 -0.4300  0.2664 -1.6902
  460MOL0     H60717   9.126   2.601   7.428  0.0821  8.1331  1.7408
  460MOL0     H60718   9.234   2.370   7.780  1.3994  1.9186  2.1043
  460MOL0     H60719   9.614   2.320   7.040  1.3472  3.3699 -1.4209
  460MOL0     H60720   9.687   2.263   6.825  0.5396  0.4534 -0.3097
  461MOL0     O60721   6.801  10.973   9.298  0.4324 -0.4115  0.6873
  461MOL0     C60722   6.898  10.961   9.366 -0.0517  1.7549  0.1484
  461MOL0     O60723   6.916  11.018   9.484  0.0239 -0.0296 -0.4145
  461MOL0     C60724   6.816  11.090   9.539 -0.4188  0.9159 -1.0476
  461MOL0     C60725   6.812  11.225   9.507 -0.4071 -0.2450 -0.6222
  461MOL0     C60726   6.697  11.306   9.552 -0.3249  0.0900  0.5799
  461MOL0     C60727   6.603  11.248   9.630  0.1626 -0.6760 -0.0605
  461MOL0     O60728   6.486  11.311   9.652 -0.0317  0.0988  0.3495
  461MOL0     C60729   6.410  11.278   9.773  0.6283 -0.6579  0.3304
  461MOL0     C60730   6.311  11.390   9.789  0.5146 -0.5229  1.0666
  461MOL0     C60731   6.233  11.396   9.923 -0.2624 -0.4095  0.1340
  461MOL0     C60732   6.160  11.543   9.918 -0.3013  0.7271 -0.3281
  461MOL0     C60733   6.036  11.550  10.009 -0.0889 -0.5621 -0.0880
  461MOL0     C60734   6.089  11.581  10.149 -1.2299 -0.5795 -0.8209
  461MOL0     C60735   5.991  11.546  10.262 -0.3671 -0.3645  0.0257
  461MOL0     C60736   6.020  11.606  10.403  0.0286  0.7120  0.9241
  461MOL0     N60737   5.963  11.516  10.501  0.3791 -0.3178 -0.8394
  461MOL0     C60738   6.012  11.390  10.549 -0.7419 -0.0740  0.6450
  461MOL0     C60739   5.915  11.346  10.633 -0.4455 -0.5225  0.6622
  461MOL0     C60740   5.922  11.206  10.686 -0.7106 -0.2993 -0.1830
  461MOL0     C60741   5.971  11.218  10.832  0.3070 -0.7015 -0.1213
  461MOL0     C60742   5.863  11.268  10.933 -1.2773 -0.9856 -0.8560
  461MOL0     C60743   5.754  11.173  10.953  0.8869 -0.0319  0.0048
  461MOL0     O60744   5.816  11.061  11.017 -0.0013  0.4425  0.7683
  461MOL0     C60745   5.762  10.937  11.011  0.3124 -0.2952  0.5623
  461MOL0     C60746   5.845  10.822  11.014 -0.1859  0.0786 -0.5781
  461MOL0     C60747   5.795  10.693  11.005 -1.0285 -0.5260 -0.9390
  461MOL0     C60748   5.659  10.672  10.975  0.0817  0.3814 -0.8796
  461MOL0     C60749   5.598  10.534  10.956 -0.0135  0.4372  0.1130
  461MOL0     O60750   5.701  10.440  10.978  0.5528 -0.1790 -0.1630
  461MOL0     C60751   5.671  10.305  10.987 -0.6135  0.0592 -0.5596
  461MOL0     C60752   5.786  10.221  10.963  0.6409 -0.1314 -0.1499
  461MOL0     C60753   5.778  10.086  10.981 -0.6917  0.7476 -0.3227
  461MOL0     C60754   5.668  10.030  11.031 -0.3131 -0.6942  1.2919
  461MOL0     O60755   5.670   9.898  11.031  0.2008  0.1431 -0.3862
  461MOL0     C60756   5.768   9.835  11.112 -0.7799  0.7615 -0.3451
  461MOL0     C60757   5.742   9.851  11.262 -0.1409  0.0215  0.4173
  461MOL0     C60758   5.789   9.739  11.353  0.0864  0.1846  0.0392
  461MOL0     C60759   5.766   9.770  11.495  1.0485 -0.2836 -0.5678
  461MOL0     C60760   5.800   9.672  11.605 -0.3388  0.2144 -0.4983
  461MOL0     C60761   5.713   9.541  11.578  0.4678  0.0126  0.8273
  461MOL0     C60762   5.679   9.465  11.700 -0.2277  0.3138  0.2182
  461MOL0     C60763   5.561   9.367  11.670 -0.0960 -0.0318 -0.1196
  461MOL0    Cl60764   5.534   9.259  11.803 -0.3788 -0.0666  0.5617
  461MOL0     C60765   5.551  10.102  11.041 -0.1179 -0.0491  0.3397
  461MOL0     C60766   5.550  10.241  11.025  1.1173 -0.4808 -0.4179
  461MOL0     O60767   5.479  10.508  10.924  0.3700  0.6812  0.2161
  461MOL0     C60768   5.578  10.782  10.959 -0.2341  0.9648  0.3212
  461MOL0     C60769   5.624  10.909  10.980  0.0480  0.1891  0.1632
  461MOL0     N60770   5.816  11.435  10.638 -0.6573 -0.0163  0.4040
  461MOL0     N60771   5.839  11.538  10.564 -0.7156 -0.6395 -0.1715
  461MOL0     C60772   6.612  11.115   9.674 -0.5663 -0.2867  0.4270
  461MOL0     C60773   6.728  11.039   9.636  0.3115 -0.6692  0.1136
  461MOL0     C60774   7.019  10.888   9.309 -0.3283  0.3600  0.1295
  461MOL0     C60775   7.145  10.902   9.373 -1.1573  0.0279  0.8124
  461MOL0     C60776   7.261  10.850   9.321 -0.3392 -0.5903 -0.3867
  461MOL0     C60777   7.255  10.766   9.211 -0.0870 -0.6285  0.4331
  461MOL0     O60778   7.381  10.731   9.159  0.8139  0.4709 -0.0757
  461MOL0     C60779   7.405  10.610   9.087 -0.0048  0.6280 -0.3628
  461MOL0     C60780   7.398  10.613   8.934 -0.1307  0.1394 -0.3377
  461MOL0     C60781   7.492  10.722   8.872  0.4568 -0.6361  0.4437
  461MOL0     C60782   7.580  10.675   8.758  0.4494 -0.3885  0.8065
  461MOL0     C60783   7.673  10.564   8.774  0.2202  0.0876 -0.5144
  461MOL0     C60784   7.764  10.485   8.783  0.3006  0.4254  1.2615
  461MOL0     C60785   7.125  10.748   9.148 -0.6432  1.1411  0.0022
  461MOL0     C60786   7.007  10.807   9.196  0.2954 -1.1260 -0.3455
  461MOL0     H60787   6.887  11.259   9.436  0.8589 -0.9682  0.3115
  461MOL0     H60788   6.683  11.412   9.536 -2.2789 -0.1731  0.2701
  461MOL0     H60789   6.467  11.281   9.866  0.0335 -1.5890  0.7419
  461MOL0     H60790   6.357  11.184   9.756 -0.7623  0.4498 -2.0504
  461MOL0     H60791   6.251  11.397   9.698  1.9650 -1.9092 -0.0523
  461MOL0     H60792   6.376  11.479   9.787 -2.0180  1.4242 -0.6381
  461MOL0     H60793   6.296  11.363  10.006 -0.0511 -1.9625 -0.6052
  461MOL0     H60794   6.158  11.317   9.916 -1.5266  0.5291  2.2594
  461MOL0     H60795   6.235  11.619   9.942  1.9304 -1.9070  1.6933
  461MOL0     H60796   6.134  11.565   9.814 -1.4202 -1.2823 -0.5267
  461MOL0     H60797   5.971  11.461  10.006 -1.1351  0.1947 -1.5729
  461MOL0     H60798   5.978  11.637   9.976  0.8021 -0.0727 -0.3967
  461MOL0     H60799   6.110  11.689  10.145  0.3367 -0.8988 -2.1249
  461MOL0     H60800   6.186  11.532  10.162 -0.5939  0.0900 -2.6146
  461MOL0     H60801   5.894  11.584  10.229  1.8345  4.1357 -2.2721
  461MOL0     H60802   5.999  11.438  10.276  0.6045 -0.3707 -0.4991
  461MOL0     H60803   5.986  11.709  10.419  2.9602  2.0180 -0.5595
  461MOL0     H60804   6.126  11.613  10.426  0.1497 -0.5601  0.8299
  461MOL0     H60805   6.093  11.325  10.518 -0.6952 -0.0984  0.8173
  461MOL0     H60806   5.989  11.144  10.625 -0.4994  0.4219 -0.7103
  461MOL0     H60807   5.820  11.171  10.671 -0.1991 -0.9310 -2.6767
  461MOL0     H60808   6.056  11.286  10.838  0.3404 -0.6204 -1.3390
  461MOL0     H60809   6.009  11.123  10.871  0.0696 -0.8892 -0.3391
  461MOL0     H60810   5.913  11.281  11.030 -0.4687  1.4687 -1.5456
  461MOL0     H60811   5.827  11.366  10.903 -0.2371 -0.1346  0.5613
  461MOL0     H60812   5.710  11.143  10.858 -2.4941 -0.6093  1.6107
  461MOL0     H60813   5.683  11.219  11.023 -0.0988  0.0611 -1.0385
  461MOL0     H60814   5.950  10.839  11.033  0.2414 -2.7095  0.0781
  461MOL0     H60815   5.864  10.610  11.001 -2.3443 -1.5972 -2.5957
  461MOL0     H60816   5.873  10.265  10.916  0.3916 -0.7187 -1.1887
  461MOL0     H60817   5.863  10.022  10.960 -1.1663  0.1608 -0.4635
  461MOL0     H60818   5.870   9.854  11.078 -0.7754 -3.9734 -4.0695
  461MOL0     H60819   5.765   9.729  11.085  1.4530  0.7968 -0.9459
  461MOL0     H60820   5.634   9.861  11.277  0.2053  1.1490  2.5497
  461MOL0     H60821   5.796   9.943  11.284 -0.6454  0.4652 -0.1938
  461MOL0     H60822   5.897   9.725  11.345  0.7072  0.9512  4.5244
  461MOL0     H60823   5.735   9.649  11.321  0.8335  0.2850 -1.6543
  461MOL0     H60824   5.839   9.850  11.511  2.5377 -1.5051 -0.9565
  461MOL0     H60825   5.663   9.805  11.508  0.6976 -1.0876 -1.1012
  461MOL0     H60826   5.763   9.711  11.701  1.4784 -3.1446  1.7724
  461MOL0     H60827   5.907   9.648  11.600  0.1347  2.1787 -1.0164
  461MOL0     H60828   5.781   9.482  11.516  0.6199  2.1948 -1.2214
  461MOL0     H60829   5.626   9.564  11.515  0.8909  1.1681  0.6384
  461MOL0     H60830   5.767   9.402  11.717 -0.3171 -0.6971 -2.5577
  461MOL0     H60831   5.662   9.534  11.784  1.1499 -0.0334  0.8023
  461MOL0     H60832   5.594   9.306  11.586  1.0494  0.3019  0.0700
  461MOL0     H60833   5.476   9.436  11.656 -1.4830 -0.9433  2.9742
  461MOL0     H60834   5.457  10.062  11.077  0.3393  0.0001  1.6257
  461MOL0     H60835   5.460  10.300  11.044  0.6521 -0.5948 -2.1356
  461MOL0     H60836   5.479  10.757  10.922 -0.5010  0.7999  1.1279
  461MOL0     H60837   5.562  10.998  10.976 -0.2144  0.3882  4.0703
  461MOL0     H60838   6.539  11.067   9.738 -1.2170  1.8445  1.3881
  461MOL0     H60839   6.747  10.937   9.668  1.2258 -0.0662  1.5820
  461MOL0     H60840   7.155  10.956   9.466  1.7782 -1.2907  1.3471
  461MOL0     H60841   7.353  10.877   9.372 -0.8459 -1.5617  1.1217
  461MOL0     H60842   7.363  10.512   9.115  2.4751 -0.8008 -1.3483
  461MOL0     H60843   7.509  10.584   9.107  0.2106  0.8039 -1.2028
  461MOL0     H60844   7.427  10.515   8.896 -1.0600  0.3822 -1.7395
  461MOL0     H60845   7.297  10.610   8.891 -0.4503  1.8069  0.2122
  461MOL0     H60846   7.554  10.745   8.959 -0.9417 -2.8413  2.1409
  461MOL0     H60847   7.443  10.812   8.833 -0.6553 -1.7469 -0.8193
  461MOL0     H60848   7.521  10.686   8.666  0.8175  6.9932  0.8494
  461MOL0     H60849   7.655  10.755   8.749  1.3421 -0.8982  3.0640
  461MOL0     H60850   7.815  10.391   8.787 -1.5870 -0.6374  2.6445
  461MOL0     H60851   7.125  10.700   9.051 -0.5749 -0.2013  0.6321
  461MOL0     H60852   6.912  10.810   9.144  0.8547  2.6965 -1.4528
  462MOL0     O60853   4.407   7.958   0.426 -0.2749  0.0246  0.2252
  462MOL0     C60854   4.457   7.969   0.315 -0.3480 -0.5016 -0.6037
  462MOL0     O60855   4.399   7.926   0.209  0.1372 -0.2695  0.0700
  462MOL0     C60856   4.267   7.900   0.206  0.2112  0.2655  0.5061
  462MOL0     C60857   4.171   7.976   0.274  0.2963  0.2847 -0.4190
  462MOL0     C60858   4.034   7.934   0.261 -0.0748 -0.5290  0.8998
  462MOL0     C60859   3.989   7.825   0.190 -0.6465 -0.1675 -0.0944
  462MOL0     O60860   3.851   7.809   0.187  0.4562  0.3607  0.9282
  462MOL0     C60861   3.788   7.722   0.086  0.5120 -0.7468  0.2185
  462MOL0     C60862   3.666   7.781   0.026  0.0105 -0.2929  0.7147
  462MOL0     C60863   3.593   7.875   0.122  1.3373  0.8537 -0.0000
  462MOL0     C60864   3.461   7.926   0.072 -0.2306 -0.2042 -0.2734
  462MOL0     C60865   3.415   8.062   0.126 -0.2174 -0.2333 -0.5124
  462MOL0     C60866   3.277   8.092   0.080  0.0738  0.1895 -0.2466
  462MOL0     C60867   3.234   8.230   0.127  0.2026 -0.0997  0.4154
  462MOL0     C60868   3.079   8.232   0.149 -0.0187 -0.1527  0.5753
  462MOL0     N60869   3.035   8.369   0.183 -0.8279 -0.4405  0.1348
  462MOL0     C60870   3.099   8.491   0.149 -1.1192  0.4913  0.6535
  462MOL0     C60871   3.033   8.586   0.221  0.4919 -0.2503 -0.5140
  462MOL0     C60872   3.076   8.726   0.222  0.4909 -1.3500 -0.3547
  462MOL0     C60873   2.959   8.808   0.177 -0.3594 -0.4678  0.1610
  462MOL0     C60874   2.984   8.954   0.153  0.7916 -0.9161  0.0961
  462MOL0     C60875   2.859   9.037   0.129  0.3705 -0.4286  0.7871
  462MOL0     O60876   2.787   9.064   0.244 -0.5753 -0.3122 -0.1409
  462MOL0     C60877   2.675   9.151   0.243  0.5584 -0.0510  0.1693
  462MOL0     C60878   2.620   9.186   0.368  0.2511 -0.0275 -0.1166
  462MOL0     C60879   2.497   9.251   0.372 -0.0977 -0.0627 -0.6193
  462MOL0     C60880   2.428   9.288   0.255 -0.2784 -0.2310 -0.4936
  462MOL0     C60881   2.291   9.326   0.249 -0.1792 -0.8836 -0.4768
  462MOL0     O60882   2.218   9.280   0.150  0.7969 -0.1080 -0.3388
  462MOL0     C60883   2.099   9.347   0.119  0.8759  0.6369  0.5049
  462MOL0     C60884   2.075   9.355  -0.026  0.9945  0.0208  0.1887
  462MOL0     C60885   1.953   9.413  -0.077  0.0166  0.3928  0.5613
  462MOL0     C60886   1.854   9.457   0.013 -0.0331 -0.3205 -0.2841
  462MOL0     O60887   1.745   9.516  -0.044  0.0667  0.6245  0.6958
  462MOL0     C60888   1.623   9.449  -0.001 -0.5550  0.1018  0.2954
  462MOL0     C60889   1.524   9.539   0.071  0.1986 -0.2839 -0.7579
  462MOL0     C60890   1.454   9.648  -0.006 -0.2388 -0.3288  0.4029
  462MOL0     C60891   1.360   9.741   0.066 -0.2237  0.5781 -0.1306
  462MOL0     C60892   1.323   9.860  -0.031 -0.6496  0.4692 -0.2556
  462MOL0     C60893   1.236   9.955   0.047  0.1621  0.0282  0.3384
  462MOL0     C60894   1.176  10.063  -0.049  0.3297 -0.7504 -0.6145
  462MOL0     C60895   1.091  10.165   0.026  1.2851  0.3650  0.3321
  462MOL0    Cl60896   0.988  10.259  -0.090  0.4849  0.1169  0.1877
  462MOL0     C60897   1.868   9.438   0.155  0.6810  0.1868 -0.0249
  462MOL0     C60898   1.992   9.384   0.204  0.2375 -0.5394  0.9593
  462MOL0     O60899   2.268   9.422   0.329  0.2841 -0.4027 -0.1722
  462MOL0     C60900   2.490   9.253   0.129 -0.4538  0.1101 -0.5939
  462MOL0     C60901   2.618   9.187   0.126 -0.1186 -1.1361 -0.5311
  462MOL0     N60902   2.921   8.525   0.272 -0.3275 -0.7822 -0.0820
  462MOL0     N60903   2.916   8.401   0.234  0.8786 -0.0940 -0.4296
  462MOL0     C60904   4.090   7.748   0.127  0.2889  0.2729  0.5679
  462MOL0     C60905   4.219   7.792   0.128  0.7287 -0.3316  0.1494
  462MOL0     C60906   4.596   8.026   0.305 -0.3665 -0.1754 -0.5809
  462MOL0     C60907   4.656   8.084   0.418  0.8072 -0.0886  0.1893
  462MOL0     C60908   4.793   8.118   0.400  1.3450 -0.1898 -0.5621
  462MOL0     C60909   4.861   8.109   0.282 -0.2745  0.0854 -0.3049
  462MOL0     O60910   4.999   8.144   0.272  0.5421  0.1619  0.1490
  462MOL0     C60911   5.053   8.242   0.366 -0.4094 -0.4321 -0.7449
  462MOL0     C60912   5.198   8.283   0.321 -0.3249  0.2509  0.5641
  462MOL0     C60913   5.181   8.400   0.228 -0.0309  0.9114 -0.1347
  462MOL0     C60914   5.317   8.441   0.172 -0.0390  0.6022  0.5228
  462MOL0     C60915   5.312   8.562   0.089  0.2687  0.6534  0.5060
  462MOL0     C60916   5.303   8.643  -0.000 -1.1106 -0.0574 -0.6627
  462MOL0     C60917   4.803   8.045   0.173  0.4580 -0.2569 -0.9399
  462MOL0     C60918   4.669   8.002   0.192  0.6940  0.4035 -0.5848
  462MOL0     H60919   4.205   8.055   0.340  2.4489 -0.4365 -0.5695
  462MOL0     H60920   3.958   7.994   0.309 -0.9026  1.9948 -3.0692
  462MOL0     H60921   3.748   7.634   0.138 -1.8093  0.7743  1.1715
  462MOL0     H60922   3.854   7.715  -0.001 -2.5110  1.7083 -2.5101
  462MOL0     H60923   3.601   7.701  -0.010 -1.4203  0.6093  1.2224
  462MOL0     H60924   3.701   7.827  -0.067 -1.0839  2.0374  1.3890
  462MOL0     H60925   3.655   7.957   0.158  0.8905  0.6100  1.3589
  462MOL0     H60926   3.575   7.813   0.210  0.3623  0.4129 -0.4895
  462MOL0     H60927   3.480   7.945  -0.034  2.5709  2.3309  0.5246
  462MOL0     H60928   3.388   7.845   0.075  2.3397 -2.7037  2.0657
  462MOL0     H60929   3.483   8.139   0.087 -1.6606  1.4775  0.2101
  462MOL0     H60930   3.413   8.057   0.235 -0.0110 -1.6574 -0.5539
  462MOL0     H60931   3.210   8.017   0.121  1.3211 -0.6180  0.3626
  462MOL0     H60932   3.267   8.077  -0.028  2.7075  0.1284 -0.5378
  462MOL0     H60933   3.285   8.252   0.221  3.2249  0.4823 -1.2335
  462MOL0     H60934   3.261   8.298   0.046  0.0936 -1.0248 -0.4114
  462MOL0     H60935   3.050   8.173   0.236 -0.4363  0.1096  0.6189
  462MOL0     H60936   3.025   8.198   0.060 -0.0775 -1.3901  1.0647
  462MOL0     H60937   3.186   8.495   0.083 -1.8562 -1.2668 -0.4847
  462MOL0     H60938   3.167   8.756   0.168  0.9154 -1.4785  0.2766
  462MOL0     H60939   3.102   8.749   0.326  0.4954 -4.5313  0.4368
  462MOL0     H60940   2.883   8.808   0.256 -2.5185  4.4561 -1.4918
  462MOL0     H60941   2.924   8.780   0.077 -2.3168  1.5922  0.1822
  462MOL0     H60942   3.034   8.996   0.241 -1.1542 -1.1479  1.3588
  462MOL0     H60943   3.055   8.980   0.073  0.9325  4.0806  1.4710
  462MOL0     H60944   2.791   8.994   0.054 -0.0347  2.8222 -0.9306
  462MOL0     H60945   2.895   9.134   0.094  0.8840 -0.4955  1.1341
  462MOL0     H60946   2.673   9.152   0.456 -2.9061 -1.5295  1.3949
  462MOL0     H60947   2.453   9.283   0.466  0.8713  2.2368 -0.8969
  462MOL0     H60948   2.153   9.313  -0.090  2.0236  2.0894 -0.0288
  462MOL0     H60949   1.952   9.434  -0.183  0.1573 -3.3138 -0.3039
  462MOL0     H60950   1.641   9.359   0.059 -0.1363 -0.5228 -0.7350
  462MOL0     H60951   1.589   9.420  -0.101  1.9634 -0.4798 -0.4720
  462MOL0     H60952   1.577   9.585   0.156 -1.7407 -2.3396  1.7449
  462MOL0     H60953   1.444   9.477   0.113 -1.2283  2.3934  0.7963
  462MOL0     H60954   1.403   9.588  -0.081  0.6124 -0.9680  0.3133
  462MOL0     H60955   1.532   9.706  -0.056  1.2757 -2.2778  0.3448
  462MOL0     H60956   1.265   9.692   0.091  0.3774 -1.1310 -1.0160
  462MOL0     H60957   1.417   9.776   0.152  1.8310 -0.1989 -1.1031
  462MOL0     H60958   1.279   9.826  -0.125 -1.4271 -1.8498  0.8696
  462MOL0     H60959   1.424   9.901  -0.039  0.4592 -1.7698  1.1354
  462MOL0     H60960   1.278   9.998   0.138  0.5019  2.3732 -0.8527
  462MOL0     H60961   1.147   9.899   0.078 -1.9856  3.4148  0.7132
  462MOL0     H60962   1.255  10.121  -0.099  0.6469  2.0436  2.7257
  462MOL0     H60963   1.128  10.013  -0.134  2.4452 -2.4950 -0.8756
  462MOL0     H60964   1.150  10.243   0.074 -1.0937  2.9751 -0.6916
  462MOL0     H60965   1.028  10.121   0.104  0.3359 -0.2975 -0.7788
  462MOL0     H60966   1.785   9.457   0.222 -2.5586 -1.1874 -3.2908
  462MOL0     H60967   2.001   9.363   0.310 -2.8648  1.0394  1.6455
  462MOL0     H60968   2.436   9.272   0.037 -1.7957  0.2333  0.1896
  462MOL0     H60969   2.664   9.164   0.030  1.9394  1.0644 -0.1763
  462MOL0     H60970   4.071   7.655   0.074  1.3060 -0.0985  0.8302
  462MOL0     H60971   4.285   7.730   0.069  0.2801  0.2662 -1.0170
  462MOL0     H60972   4.617   8.099   0.519 -1.6323  1.6844 -0.9218
  462MOL0     H60973   4.835   8.154   0.493 -2.4304 -0.7874  1.5935
  462MOL0     H60974   5.057   8.201   0.468  0.4455 -1.4400 -1.1706
  462MOL0     H60975   4.995   8.334   0.379 -0.3223 -0.5641  0.7463
  462MOL0     H60976   5.261   8.303   0.408  1.3381 -0.3250 -0.4661
  462MOL0     H60977   5.251   8.209   0.261 -0.2466  0.9881 -0.2919
  462MOL0     H60978   5.136   8.482   0.285  1.1158  2.1472 -0.9446
  462MOL0     H60979   5.124   8.370   0.139 -2.1481  0.8937  1.1556
  462MOL0     H60980   5.389   8.453   0.252  1.5632 -1.7590 -0.4687
  462MOL0     H60981   5.357   8.365   0.104 -0.9263  0.7911 -0.2468
  462MOL0     H60982   5.330   8.737  -0.045 -1.3725  0.6522  0.5948
  462MOL0     H60983   4.874   8.028   0.094  0.4253  3.5676 -1.9969
  462MOL0     H60984   4.637   7.949   0.103 -0.0615  1.7193 -1.1252
  463MOL0     O60985  10.090   4.614   2.265  0.3055 -0.3447 -0.3797
  463MOL0     C60986  10.165   4.695   2.222  0.1557 -0.4037  0.1384
  463MOL0     O60987  10.144   4.819   2.160  0.3913  0.1628 -0.5198
  463MOL0     C60988  10.023   4.873   2.202 -0.1860  0.2085  0.1157
  463MOL0     C60989   9.916   4.853   2.122 -0.1636 -0.0112  0.4058
  463MOL0     C60990   9.800   4.924   2.144  0.7878  0.0199 -0.5367
  463MOL0     C60991   9.792   5.019   2.255 -0.6294 -0.0099  0.1994
  463MOL0     O60992   9.683   5.101   2.280 -0.3047 -0.1034 -0.3456
  463MOL0     C60993   9.552   5.059   2.253  0.9594 -0.7395  0.1805
  463MOL0     C60994   9.449   5.148   2.326  0.3901 -0.1763 -0.0866
  463MOL0     C60995   9.460   5.282   2.263 -0.2445 -0.1014  1.3110
  463MOL0     C60996   9.367   5.381   2.339 -0.1585 -0.5160  0.3645
  463MOL0     C60997   9.363   5.523   2.280  0.0511  0.5262  0.2831
  463MOL0     C60998   9.320   5.536   2.138  0.6697  0.0580 -0.5368
  463MOL0     C60999   9.341   5.678   2.079  0.0054  0.5017  0.6935
  463MOL0     C61000   9.486   5.743   2.047  0.0930  0.3603  0.7420
  463MOL0     N61001   9.567   5.628   1.990  0.0828 -0.4019 -0.8342
  463MOL0     C61002   9.674   5.568   2.060  0.4404 -0.5206  1.3200
  463MOL0     C61003   9.694   5.448   2.003  1.1645  0.3042 -0.0581
  463MOL0     C61004   9.815   5.372   2.033 -0.4349 -0.4778 -0.1599
  463MOL0     C61005   9.915   5.334   1.930  0.2858  0.4745 -0.0148
  463MOL0     C61006   9.997   5.221   1.970  0.1365 -0.0773 -0.3221
  463MOL0     C61007  10.093   5.249   2.092 -0.3178  0.2050  0.2163
  463MOL0     O61008  10.161   5.374   2.088 -0.3656  0.2252  0.0104
  463MOL0     C61009  10.254   5.389   1.986  1.0062 -0.1771 -0.1262
  463MOL0     C61010  10.307   5.514   1.981 -0.3038 -0.4836 -0.9599
  463MOL0     C61011  10.414   5.547   1.888  0.2250  0.8777 -0.1066
  463MOL0     C61012  10.472   5.449   1.814 -0.4739  0.3713  0.2952
  463MOL0     C61013  10.585   5.467   1.726 -0.6772 -0.7484 -0.4086
  463MOL0     O61014  10.584   5.394   1.610  0.7130 -0.3656  0.6563
  463MOL0     C61015  10.710   5.400   1.547 -0.3573  0.3407 -0.3947
  463MOL0     C61016  10.718   5.460   1.427 -0.7581 -0.3601  0.3688
  463MOL0     C61017  10.836   5.482   1.356 -1.2121 -0.1428  0.2633
  463MOL0     C61018  10.961   5.433   1.396 -0.2316  0.6401 -0.0241
  463MOL0     O61019  11.075   5.468   1.330 -1.0005  0.1321  0.5937
  463MOL0     C61020  11.195   5.456   1.409 -0.2266  0.6582  0.3952
  463MOL0     C61021  11.319   5.483   1.323 -0.4206  0.4442 -0.0479
  463MOL0     C61022  11.324   5.372   1.212 -0.1402 -0.1235 -1.1006
  463MOL0     C61023  11.394   5.403   1.082  0.2025 -0.1541 -0.3985
  463MOL0     C61024  11.552   5.431   1.104  0.1865  0.3748  0.1898
  463MOL0     C61025  11.643   5.458   0.988  0.4072  0.5334  0.0055
  463MOL0     C61026  11.575   5.554   0.890 -0.0913  0.0721  0.0683
  463MOL0     C61027  11.672   5.660   0.839 -0.0403  1.1583  0.0774
  463MOL0    Cl61028  11.823   5.586   0.771  0.3254 -0.5560  0.2248
  463MOL0     C61029  10.957   5.370   1.527  0.1011  0.2302  0.3705
  463MOL0     C61030  10.830   5.341   1.598 -0.2283 -0.6418 -0.4050
  463MOL0     O61031  10.672   5.552   1.761  0.3835  0.5078  0.7755
  463MOL0     C61032  10.418   5.321   1.825 -0.0179  0.8039 -0.4359
  463MOL0     C61033  10.311   5.289   1.906  0.4384  0.1806 -0.3949
  463MOL0     N61034   9.603   5.437   1.897 -0.1238  0.0967  0.9514
  463MOL0     N61035   9.536   5.550   1.882 -0.0510  0.1556 -0.0580
  463MOL0     C61036   9.902   5.028   2.343  0.7071 -0.2577  1.5702
  463MOL0     C61037  10.012   4.951   2.315 -0.0749 -0.0363 -0.5005
  463MOL0     C61038  10.310   4.641   2.206 -0.7590  0.2813  0.2918
  463MOL0     C61039  10.362   4.543   2.282 -0.8684 -0.6483 -0.2978
  463MOL0     C61040  10.497   4.507   2.287 -0.0176 -1.2444 -0.4290
  463MOL0     C61041  10.575   4.555   2.186 -0.7144 -0.5085 -1.6758
  463MOL0     O61042  10.705   4.510   2.163  0.5645 -0.2940  0.2245
  463MOL0     C61043  10.758   4.380   2.206  0.0187  0.5075 -0.2116
  463MOL0     C61044  10.800   4.378   2.352  1.2436 -0.3493  0.1581
  463MOL0     C61045  10.916   4.302   2.386 -0.1408 -0.2458  0.0103
  463MOL0     C61046  10.931   4.267   2.537 -0.9696 -0.2684 -0.0459
  463MOL0     C61047  11.071   4.255   2.573  0.6860 -0.4380 -0.0270
  463MOL0     C61048  11.188   4.257   2.596 -0.4108 -0.0141 -0.0977
  463MOL0     C61049  10.525   4.650   2.099 -0.8716  0.3402 -0.2464
  463MOL0     C61050  10.396   4.702   2.117  0.1569 -0.3192 -0.1665
  463MOL0     H61051   9.924   4.780   2.043  1.2098 -1.0214  1.4310
  463MOL0     H61052   9.712   4.920   2.081 -1.9237  2.3628  2.7402
  463MOL0     H61053   9.537   4.959   2.294  1.5999 -0.9612 -0.1159
  463MOL0     H61054   9.530   5.066   2.146  1.6391 -0.5412  0.0473
  463MOL0     H61055   9.466   5.141   2.434  1.1043 -0.9091 -0.2403
  463MOL0     H61056   9.348   5.114   2.300 -0.1695  1.7799 -0.6917
  463MOL0     H61057   9.419   5.285   2.162  1.1555  1.1645  0.7306
  463MOL0     H61058   9.564   5.316   2.260 -0.1051 -0.5589 -0.7003
  463MOL0     H61059   9.267   5.338   2.354 -0.3022 -0.5369 -0.5869
  463MOL0     H61060   9.410   5.394   2.438 -1.4437 -1.5792  1.1078
  463MOL0     H61061   9.459   5.575   2.289  0.0593  1.5236 -3.5156
  463MOL0     H61062   9.293   5.577   2.345 -0.1311  0.1930  0.3624
  463MOL0     H61063   9.213   5.512   2.140  1.2944 -3.1702 -0.2259
  463MOL0     H61064   9.378   5.466   2.078  1.4549  2.0189 -2.1550
  463MOL0     H61065   9.284   5.685   1.986 -1.0596  0.8290  1.3417
  463MOL0     H61066   9.293   5.751   2.145 -1.2570 -0.4555  0.8634
  463MOL0     H61067   9.538   5.772   2.139  0.7240  0.5734  0.3226
  463MOL0     H61068   9.486   5.829   1.981  1.0189  0.1376  0.4327
  463MOL0     H61069   9.738   5.602   2.141  2.9417  0.7647 -1.0454
  463MOL0     H61070   9.772   5.285   2.084 -2.3072 -0.5282 -1.7103
  463MOL0     H61071   9.876   5.412   2.114 -0.0285  0.0458 -0.7200
  463MOL0     H61072   9.979   5.421   1.908 -0.5934  0.9971 -0.5670
  463MOL0     H61073   9.859   5.301   1.842 -2.4539  4.2011  0.1102
  463MOL0     H61074   9.937   5.130   1.980  0.5104 -0.2928 -0.0182
  463MOL0     H61075  10.055   5.187   1.882  1.3510  2.6345 -0.6659
  463MOL0     H61076  10.162   5.165   2.088 -1.3218 -0.6039 -2.5686
  463MOL0     H61077  10.021   5.238   2.174  1.7308 -1.4525  1.8888
  463MOL0     H61078  10.273   5.591   2.050 -2.6235 -0.2787 -2.2501
  463MOL0     H61079  10.449   5.649   1.887  0.4135  0.8170  0.2508
  463MOL0     H61080  10.628   5.518   1.406 -0.5550 -0.0513  0.3391
  463MOL0     H61081  10.828   5.551   1.272  2.5001  0.8330  0.5672
  463MOL0     H61082  11.203   5.356   1.453  0.2077  0.8650  0.7954
  463MOL0     H61083  11.209   5.519   1.497 -0.8035  0.8519  0.3492
  463MOL0     H61084  11.408   5.472   1.385  1.3144 -2.7243 -2.8103
  463MOL0     H61085  11.315   5.580   1.273  0.0724  1.1214  1.1761
  463MOL0     H61086  11.227   5.323   1.195 -1.3507  0.5863  2.6901
  463MOL0     H61087  11.376   5.292   1.266 -1.0808 -0.1012 -0.1326
  463MOL0     H61088  11.374   5.320   1.014  2.0906  0.1950 -1.4364
  463MOL0     H61089  11.357   5.484   1.019  2.2890  0.4055 -0.9814
  463MOL0     H61090  11.599   5.344   1.151 -0.3509 -0.3762 -0.6280
  463MOL0     H61091  11.560   5.518   1.170 -0.1954  1.0810 -0.6727
  463MOL0     H61092  11.658   5.367   0.929 -0.1146  1.7402 -2.1115
  463MOL0     H61093  11.742   5.496   1.013  0.6328  0.3920 -0.6552
  463MOL0     H61094  11.553   5.493   0.801  0.4867  0.2338 -0.1960
  463MOL0     H61095  11.489   5.605   0.933 -0.0940 -0.7082  1.0073
  463MOL0     H61096  11.695   5.729   0.920  2.5306  1.7879 -1.0749
  463MOL0     H61097  11.625   5.719   0.759  1.4228 -1.3903 -2.9155
  463MOL0     H61098  11.045   5.343   1.585  0.6184  0.7378 -0.1624
  463MOL0     H61099  10.829   5.286   1.691 -0.1722 -0.6494 -0.4095
  463MOL0     H61100  10.451   5.235   1.768 -3.1939  0.0668 -1.3470
  463MOL0     H61101  10.275   5.187   1.914  1.4481 -0.2348 -1.0732
  463MOL0     H61102   9.911   5.100   2.423 -0.5637 -0.2865  1.7682
  463MOL0     H61103  10.093   4.958   2.385  0.0497 -1.2675 -0.5072
  463MOL0     H61104  10.293   4.504   2.356  0.5688 -2.7197  0.0442
  463MOL0     H61105  10.537   4.435   2.358  0.7035 -0.4866 -0.0432
  463MOL0     H61106  10.839   4.352   2.139  0.6557  3.3736 -0.7669
  463MOL0     H61107  10.689   4.300   2.175  0.0996  0.3476  0.0188
  463MOL0     H61108  10.810   4.484   2.379  1.1539  0.8742 -3.9981
  463MOL0     H61109  10.712   4.340   2.404  0.1585  3.0307  1.1010
  463MOL0     H61110  11.002   4.359   2.350  0.2300 -2.4344 -2.9390
  463MOL0     H61111  10.915   4.208   2.330 -0.5420 -0.3504  0.1846
  463MOL0     H61112  10.877   4.344   2.593 -3.4078 -0.5359 -1.9210
  463MOL0     H61113  10.879   4.175   2.564 -0.5116 -0.5233 -0.0075
  463MOL0     H61114  11.295   4.258   2.605 -0.4535 -0.1280  0.5134
  463MOL0     H61115  10.588   4.685   2.018 -1.8390 -0.2031 -1.2729
  463MOL0     H61116  10.368   4.782   2.050  0.7132  0.9436  1.0562
  464MOL0     O61117   8.496   0.401   7.135 -0.0071  0.7882 -0.5348
  464MOL0     C61118   8.607   0.450   7.111 -0.4646 -0.4632  1.1902
  464MOL0     O61119   8.680   0.532   7.197 -1.0911  0.5824 -0.3622
  464MOL0     C61120   8.652   0.534   7.332 -0.3605  0.7605 -0.8240
  464MOL0     C61121   8.605   0.424   7.404  0.7677 -0.8790 -0.9401
  464MOL0     C61122   8.566   0.443   7.534  0.3074 -0.3164 -0.3267
  464MOL0     C61123   8.584   0.566   7.612  0.1945  0.9240  0.0358
  464MOL0     O61124   8.534   0.567   7.739 -0.0884  0.3720 -1.2604
  464MOL0     C61125   8.484   0.683   7.808  0.2145 -1.1616 -0.0768
  464MOL0     C61126   8.426   0.645   7.945  0.2296 -0.4490  0.5577
  464MOL0     C61127   8.529   0.600   8.035  0.4387 -1.1968  0.4964
  464MOL0     C61128   8.471   0.565   8.177  0.0182  0.1794 -0.0700
  464MOL0     C61129   8.453   0.693   8.256 -0.4031 -0.0262  0.3676
  464MOL0     C61130   8.565   0.798   8.268 -0.2800  0.7887 -0.0563
  464MOL0     C61131   8.706   0.737   8.305 -0.0204  0.0867  0.5778
  464MOL0     C61132   8.708   0.663   8.437  0.5955 -1.1551 -0.4967
  464MOL0     N61133   8.822   0.715   8.520  0.4379  0.0695  0.9570
  464MOL0     C61134   8.804   0.821   8.602 -0.4683 -0.5536  0.4843
  464MOL0     C61135   8.916   0.820   8.688  0.8367 -0.5903 -0.2140
  464MOL0     C61136   8.955   0.901   8.814 -0.9229  0.6825 -0.3769
  464MOL0     C61137   9.093   0.967   8.801  0.0801  0.3345 -0.0737
  464MOL0     C61138   9.100   1.050   8.672  0.6891 -0.2375  1.2923
  464MOL0     C61139   9.219   1.149   8.657 -0.0976 -0.0886 -0.2631
  464MOL0     O61140   9.206   1.266   8.738  0.2874  0.0584 -0.3631
  464MOL0     C61141   9.311   1.351   8.756 -0.6837  0.3609 -0.1525
  464MOL0     C61142   9.438   1.315   8.717  0.8253  0.6738  0.5602
  464MOL0     C61143   9.537   1.408   8.740  0.7425  0.0214  0.0808
  464MOL0     C61144   9.525   1.533   8.803  0.8510 -0.6202  0.6988
  464MOL0     C61145   9.640   1.620   8.827  0.2139 -0.4103 -0.3275
  464MOL0     O61146   9.617   1.749   8.864 -0.1506 -0.5373  0.4407
  464MOL0     C61147   9.713   1.845   8.894  0.2551 -0.1283  0.2862
  464MOL0     C61148   9.856   1.833   8.882  0.2311 -0.3283 -0.0884
  464MOL0     C61149   9.943   1.947   8.920 -0.0639  0.8986  1.0465
  464MOL0     C61150   9.886   2.063   8.969  0.1885  0.4884 -0.5625
  464MOL0     O61151   9.953   2.173   9.005 -0.4724  1.0390 -0.2659
  464MOL0     C61152  10.100   2.185   8.965  0.5688 -0.1750 -0.1819
  464MOL0     C61153  10.162   2.330   8.950  0.4574  0.5468  0.2603
  464MOL0     C61154  10.309   2.334   8.994  0.2333  0.5207  0.3762
  464MOL0     C61155  10.359   2.471   8.966  0.6249  0.3631 -0.5670
  464MOL0     C61156  10.499   2.512   9.033 -0.2167  0.1060  0.8622
  464MOL0     C61157  10.616   2.414   9.010  0.8254 -0.2285 -0.7941
  464MOL0     C61158  10.668   2.408   8.866  0.1827  0.2780  0.2109
  464MOL0     C61159  10.807   2.342   8.856 -0.9359  0.6049  0.5920
  464MOL0    Cl61160  10.780   2.163   8.882  0.0066  0.0166 -0.4766
  464MOL0     C61161   9.746   2.079   8.973 -0.0484  1.6738 -0.0542
  464MOL0     C61162   9.666   1.965   8.945  0.6908  1.0315  1.2180
  464MOL0     O61163   9.746   1.567   8.809 -0.5994  0.5164  0.0245
  464MOL0     C61164   9.399   1.562   8.842  1.1274  0.0717 -0.3085
  464MOL0     C61165   9.289   1.475   8.817 -0.5243  0.0983 -0.4910
  464MOL0     N61166   8.990   0.722   8.634 -0.0763  0.0289 -0.1626
  464MOL0     N61167   8.941   0.656   8.539 -0.1636 -0.1669  0.7361
  464MOL0     C61168   8.621   0.672   7.531 -0.4269  0.3947 -0.2665
  464MOL0     C61169   8.659   0.656   7.399  0.7366  0.2361  1.2721
  464MOL0     C61170   8.686   0.398   6.995 -0.5346 -0.0017  0.2436
  464MOL0     C61171   8.831   0.431   6.978  1.4431  0.1478 -0.1589
  464MOL0     C61172   8.889   0.403   6.852 -0.3978 -0.1780 -0.2891
  464MOL0     C61173   8.816   0.345   6.747 -0.3770  1.0641  0.0787
  464MOL0     O61174   8.846   0.304   6.613 -0.5370  0.1049  0.2093
  464MOL0     C61175   8.986   0.297   6.583  0.0911  0.1893  0.6724
  464MOL0     C61176   9.042   0.161   6.610 -0.7687  0.6049  0.2251
  464MOL0     C61177   9.171   0.130   6.525  0.2944  0.4354  0.0809
  464MOL0     C61178   9.268   0.031   6.587 -0.3013  0.0841  0.1119
  464MOL0     C61179   9.221  -0.108   6.559  0.3789 -0.6211  0.0273
  464MOL0     C61180   9.191  -0.216   6.504  0.8541  0.6971 -0.4423
  464MOL0     C61181   8.684   0.293   6.774  0.2506 -0.8577 -0.2755
  464MOL0     C61182   8.618   0.332   6.891  0.7351 -0.1908  0.2469
  464MOL0     H61183   8.604   0.324   7.362  1.1257 -1.2319 -0.1282
  464MOL0     H61184   8.549   0.348   7.583  0.2022  0.8388  2.0324
  464MOL0     H61185   8.406   0.725   7.744 -2.0997 -6.0802 -0.9715
  464MOL0     H61186   8.558   0.763   7.809 -0.3950 -0.5870 -0.3967
  464MOL0     H61187   8.343   0.575   7.935 -0.1556 -0.0384  0.8743
  464MOL0     H61188   8.388   0.741   7.980  0.7099  0.1804 -0.5725
  464MOL0     H61189   8.619   0.662   8.042 -0.2948 -0.3031  2.6848
  464MOL0     H61190   8.555   0.511   7.977 -0.2450 -1.4747  0.6112
  464MOL0     H61191   8.372   0.521   8.169 -0.6041  1.8584 -3.1511
  464MOL0     H61192   8.541   0.502   8.234  1.6534  1.7009 -0.2877
  464MOL0     H61193   8.433   0.663   8.359 -0.7781  1.5570  0.7940
  464MOL0     H61194   8.365   0.753   8.231 -0.9200 -0.4355  1.1792
  464MOL0     H61195   8.524   0.871   8.340 -1.6389  0.9722 -0.9713
  464MOL0     H61196   8.578   0.850   8.172  0.2174  0.3853 -0.2076
  464MOL0     H61197   8.754   0.673   8.230  1.7470  0.0993  1.6549
  464MOL0     H61198   8.775   0.821   8.316  1.3688 -1.0901  1.1774
  464MOL0     H61199   8.693   0.556   8.423 -3.2032 -1.0655  1.6929
  464MOL0     H61200   8.612   0.685   8.484 -1.9372 -4.2768 -3.6609
  464MOL0     H61201   8.712   0.878   8.604 -0.5560 -0.7099  1.7935
  464MOL0     H61202   8.952   0.845   8.907  1.0493  0.9592 -0.1050
  464MOL0     H61203   8.894   0.991   8.829 -0.1620  1.4582 -1.7361
  464MOL0     H61204   9.171   0.893   8.817  1.0443  2.0271  4.5439
  464MOL0     H61205   9.100   1.037   8.885 -0.6813  2.0586 -1.3716
  464MOL0     H61206   9.100   0.991   8.580  2.4766  0.7605  0.5855
  464MOL0     H61207   9.014   1.117   8.661 -0.1386 -1.2944  1.2063
  464MOL0     H61208   9.218   1.177   8.552  1.8098 -5.5957 -2.0925
  464MOL0     H61209   9.309   1.093   8.684 -0.5160  0.1358  1.7916
  464MOL0     H61210   9.479   1.228   8.667  0.5851  0.2336  1.1149
  464MOL0     H61211   9.636   1.378   8.705  2.5137  5.0425 -0.0353
  464MOL0     H61212   9.894   1.741   8.839  1.1993  0.2892 -0.6047
  464MOL0     H61213  10.050   1.941   8.906 -0.3037 -4.3516 -0.9685
  464MOL0     H61214  10.123   2.125   8.876  2.1467 -0.9555  0.7106
  464MOL0     H61215  10.151   2.134   9.047  2.2693 -0.6725 -1.4810
  464MOL0     H61216  10.110   2.403   9.013  1.7726  1.5968  0.1572
  464MOL0     H61217  10.148   2.365   8.848 -1.0130 -1.4584 -0.2870
  464MOL0     H61218  10.372   2.267   8.935  1.7999  2.4789 -0.2682
  464MOL0     H61219  10.319   2.308   9.100  1.2036  3.3942  1.0813
  464MOL0     H61220  10.354   2.476   8.857 -1.8551  0.7637 -0.4913
  464MOL0     H61221  10.288   2.537   9.016 -2.0647 -3.0540  0.5301
  464MOL0     H61222  10.483   2.526   9.140  0.7231  1.1167  0.8924
  464MOL0     H61223  10.527   2.615   9.008 -4.3022  1.3737  0.7298
  464MOL0     H61224  10.586   2.316   9.048 -0.7605  0.6757  0.4126
  464MOL0     H61225  10.695   2.459   9.072  0.0289  4.0423 -2.5332
  464MOL0     H61226  10.596   2.347   8.812  1.3001 -1.9350  1.0791
  464MOL0     H61227  10.675   2.506   8.818 -1.6685 -0.8036 -2.5072
  464MOL0     H61228  10.888   2.378   8.920  1.4787 -0.6659 -1.5236
  464MOL0     H61229  10.852   2.355   8.756 -1.1487  0.2193  0.4439
  464MOL0     H61230   9.693   2.166   9.009 -2.7665 -0.1562  0.6896
  464MOL0     H61231   9.558   1.973   8.940  0.6656 -0.0544 -2.2730
  464MOL0     H61232   9.365   1.649   8.895 -4.5383 -1.7566 -0.2908
  464MOL0     H61233   9.191   1.510   8.845  0.6882 -1.3380  8.7638
  464MOL0     H61234   8.624   0.772   7.574  2.0638  0.7088 -1.0129
  464MOL0     H61235   8.706   0.740   7.348 -1.9222  0.0193 -1.9236
  464MOL0     H61236   8.890   0.474   7.058 -0.4476  0.2038  1.2676
  464MOL0     H61237   8.993   0.433   6.837 -1.0169  2.3004 -0.0806
  464MOL0     H61238   9.039   0.366   6.650 -0.1320 -0.6037  1.6934
  464MOL0     H61239   9.015   0.330   6.483  1.7887  0.8808  1.3359
  464MOL0     H61240   9.049   0.165   6.719 -4.7360  1.2268  0.5962
  464MOL0     H61241   8.960   0.094   6.583 -2.0537  1.6879  1.2748
  464MOL0     H61242   9.230   0.221   6.507  2.2451 -1.3567 -4.2056
  464MOL0     H61243   9.145   0.098   6.423 -0.9095  1.9438 -0.1361
  464MOL0     H61244   9.369   0.051   6.549  0.6097 -0.0255  2.2774
  464MOL0     H61245   9.276   0.059   6.693  2.1163 -1.6235  0.4872
  464MOL0     H61246   9.181  -0.319   6.474 -0.6345  0.7517 -0.2110
  464MOL0     H61247   8.639   0.234   6.695  0.5594 -2.9284  1.0248
  464MOL0     H61248   8.512   0.310   6.899  0.4965  1.2171  1.2988
  465MOL0     O61249  10.700   3.430   8.463 -0.1950  0.3523 -0.3141
  465MOL0     C61250  10.645   3.536   8.438 -0.7250  0.1408 -0.4482
  465MOL0     O61251  10.636   3.591   8.314  0.3295 -0.2307 -1.5503
  465MOL0     C61252  10.717   3.550   8.214 -0.3803  0.5144  0.6004
  465MOL0     C61253  10.733   3.412   8.190 -0.4475  0.0713  0.2437
  465MOL0     C61254  10.827   3.370   8.093  0.0095 -0.4903 -0.0149
  465MOL0     C61255  10.901   3.458   8.022  0.2721 -0.4364  1.1281
  465MOL0     O61256  10.992   3.414   7.929 -0.2719 -0.2965  0.1180
  465MOL0     C61257  11.116   3.485   7.930  0.5898  0.2896  0.1495
  465MOL0     C61258  11.235   3.412   7.872 -0.0819 -0.4510 -0.5265
  465MOL0     C61259  11.289   3.306   7.978  0.0928  0.1047  0.1420
  465MOL0     C61260  11.360   3.204   7.896 -0.9609  0.2774 -0.0518
  465MOL0     C61261  11.411   3.085   7.985 -0.0614 -0.4899  0.2793
  465MOL0     C61262  11.525   3.003   7.912 -0.2335 -0.3264 -0.0891
  465MOL0     C61263  11.453   2.914   7.799 -0.0051 -0.6325  0.2355
  465MOL0     C61264  11.545   2.807   7.736 -0.1405  0.0608  0.5599
  465MOL0     N61265  11.615   2.720   7.836 -0.0765 -0.4468 -0.5043
  465MOL0     C61266  11.750   2.705   7.861 -0.0832 -0.7356 -1.4736
  465MOL0     C61267  11.763   2.602   7.944  0.5824  0.6487  0.6170
  465MOL0     C61268  11.888   2.566   8.010 -0.2986 -1.1128  0.4016
  465MOL0     C61269  11.881   2.582   8.167 -0.1095 -0.1043 -0.6377
  465MOL0     C61270  12.013   2.570   8.238  0.8465 -0.2963 -0.2311
  465MOL0     C61271  12.013   2.577   8.392 -0.3763  0.4951  0.2065
  465MOL0     O61272  12.155   2.597   8.428  0.2840  0.5335  0.9281
  465MOL0     C61273  12.240   2.494   8.462  0.3711 -0.3378 -0.3665
  465MOL0     C61274  12.208   2.362   8.464 -0.6835  0.1553  0.7583
  465MOL0     C61275  12.293   2.249   8.486 -0.5699 -0.4931 -0.1209
  465MOL0     C61276  12.424   2.279   8.501 -0.5966 -1.2526 -0.2477
  465MOL0     C61277  12.510   2.168   8.530  0.5255  0.8218  0.7075
  465MOL0     O61278  12.457   2.054   8.571 -0.5503  0.2035  0.8291
  465MOL0     C61279  12.522   1.949   8.623  0.3136  0.2482  0.2154
  465MOL0     C61280  12.491   1.821   8.572  0.2413 -1.2509 -0.0809
  465MOL0     C61281  12.535   1.708   8.636  1.3264 -0.6205  0.0459
  465MOL0     C61282  12.624   1.713   8.746  0.9821 -0.1859 -0.3579
  465MOL0     O61283  12.684   1.609   8.808 -0.0429  0.1930  0.2003
  465MOL0     C61284  12.684   1.486   8.738  0.2257  0.0101 -0.6303
  465MOL0     C61285  12.813   1.415   8.796  0.1227  0.3951 -0.2393
  465MOL0     C61286  12.838   1.283   8.722  0.1599  0.1414 -0.6416
  465MOL0     C61287  12.806   1.165   8.821 -0.1064  0.3879  0.0897
  465MOL0     C61288  12.839   1.027   8.767 -1.1432 -0.2611 -0.2192
  465MOL0     C61289  12.823   0.923   8.876  0.2655  0.2957  1.0105
  465MOL0     C61290  12.676   0.900   8.895  0.5212  0.0289 -0.1325
  465MOL0     C61291  12.659   0.796   9.006 -1.0598  0.0991  0.0166
  465MOL0    Cl61292  12.691   0.887   9.157 -0.1039  0.0622 -0.7136
  465MOL0     C61293  12.666   1.843   8.785 -0.0975  0.0175  0.3465
  465MOL0     C61294  12.614   1.956   8.727  0.2780 -1.1195  0.0683
  465MOL0     O61295  12.627   2.185   8.511 -0.5909  0.0213 -0.7370
  465MOL0     C61296  12.459   2.418   8.512 -1.0082 -0.1667  0.1433
  465MOL0     C61297  12.366   2.522   8.498 -1.9433 -0.5643  0.4989
  465MOL0     N61298  11.641   2.541   7.963  0.6187 -0.0123 -0.3047
  465MOL0     N61299  11.555   2.624   7.909  1.4299  0.7014 -0.7974
  465MOL0     C61300  10.877   3.597   8.042 -0.2017  0.5932 -0.5314
  465MOL0     C61301  10.791   3.639   8.143  0.0831  0.5176  0.3895
  465MOL0     C61302  10.602   3.613   8.556 -0.5790  0.7926 -0.2423
  465MOL0     C61303  10.587   3.748   8.552  0.0014  0.3436 -0.5106
  465MOL0     C61304  10.552   3.821   8.662  0.0534  0.1901 -0.6609
  465MOL0     C61305  10.519   3.765   8.788  0.2753  0.4145 -0.0224
  465MOL0     O61306  10.466   3.851   8.886  0.3515  1.4714  0.1160
  465MOL0     C61307  10.429   3.789   9.005 -0.2957  0.5965 -1.0507
  465MOL0     C61308  10.367   3.878   9.111 -0.3535 -0.8528 -0.5331
  465MOL0     C61309  10.221   3.905   9.076 -0.4789  0.4941 -0.4401
  465MOL0     C61310  10.138   3.952   9.186 -0.8181  0.0691 -0.0032
  465MOL0     C61311   9.995   3.961   9.149  0.2746  0.2815 -0.1347
  465MOL0     C61312   9.875   3.964   9.127 -0.1037  0.2318  0.5172
  465MOL0     C61313  10.544   3.628   8.796  0.1330  0.6348 -0.6759
  465MOL0     C61314  10.589   3.554   8.682 -0.0330 -0.3166 -0.7521
  465MOL0     H61315  10.676   3.338   8.244 -0.9875  0.2987 -0.0040
  465MOL0     H61316  10.845   3.264   8.084 -1.3877 -1.0033  2.2746
  465MOL0     H61317  11.141   3.512   8.033 -0.5408  0.4019  0.4035
  465MOL0     H61318  11.100   3.572   7.865 -2.2221 -0.1256  0.1603
  465MOL0     H61319  11.305   3.491   7.841 -0.7618 -0.9666 -3.7850
  465MOL0     H61320  11.197   3.358   7.784 -0.2483 -4.1824  1.6368
  465MOL0     H61321  11.198   3.262   8.018  0.2488 -1.6647 -1.3028
  465MOL0     H61322  11.345   3.342   8.064 -0.0917 -0.4453  0.4983
  465MOL0     H61323  11.293   3.165   7.818  1.6692 -0.5488 -2.0319
  465MOL0     H61324  11.445   3.240   7.839 -0.8847 -1.7493 -1.3326
  465MOL0     H61325  11.316   3.034   8.003 -2.8292  3.1524 -2.4070
  465MOL0     H61326  11.458   3.127   8.075  4.3219  0.1813 -2.0242
  465MOL0     H61327  11.579   2.940   7.984 -0.0818 -0.6709 -0.5028
  465MOL0     H61328  11.616   3.047   7.870 -1.6766  2.6479 -0.3924
  465MOL0     H61329  11.357   2.873   7.830 -1.0909 -0.5966 -2.7650
  465MOL0     H61330  11.428   2.973   7.710  2.9464  1.8393  0.8661
  465MOL0     H61331  11.615   2.838   7.658 -2.5654 -0.4967 -1.9886
  465MOL0     H61332  11.476   2.742   7.682  0.7893 -1.2543  0.8926
  465MOL0     H61333  11.829   2.770   7.826 -0.8412  2.1973  1.7230
  465MOL0     H61334  11.966   2.639   7.985 -1.6756  0.9249  1.7325
  465MOL0     H61335  11.932   2.470   7.981  0.8515 -1.3932  2.7989
  465MOL0     H61336  11.811   2.509   8.210 -2.7646 -0.0328 -4.3882
  465MOL0     H61337  11.841   2.683   8.178  0.3507  0.0360 -0.2150
  465MOL0     H61338  12.049   2.470   8.211 -2.0734 -1.8105  0.9978
  465MOL0     H61339  12.080   2.648   8.201 -1.3450  0.8511 -2.0602
  465MOL0     H61340  11.955   2.492   8.430 -1.7651  0.5704 -1.5764
  465MOL0     H61341  11.940   2.644   8.438 -2.1616 -1.1207 -0.1122
  465MOL0     H61342  12.102   2.342   8.451 -0.4863 -0.1943 -0.4584
  465MOL0     H61343  12.247   2.151   8.499  3.8586 -2.6874  0.8873
  465MOL0     H61344  12.412   1.804   8.500  0.7851 -1.5433 -0.6174
  465MOL0     H61345  12.503   1.610   8.604  0.2333  0.0678 -1.0614
  465MOL0     H61346  12.694   1.485   8.629  0.4559  0.2196 -0.6144
  465MOL0     H61347  12.590   1.443   8.773  0.0662  0.3467 -0.6387
  465MOL0     H61348  12.790   1.379   8.897  0.5781  1.8455  0.4110
  465MOL0     H61349  12.902   1.478   8.791  1.4275 -1.3658  0.0008
  465MOL0     H61350  12.940   1.282   8.684  0.5624 -2.8173  0.2757
  465MOL0     H61351  12.765   1.289   8.640 -1.3462  1.9838  0.7464
  465MOL0     H61352  12.869   1.184   8.908  0.8519 -1.4564 -0.1307
  465MOL0     H61353  12.700   1.173   8.844  0.1326  1.9113  0.7440
  465MOL0     H61354  12.943   1.033   8.734 -1.4880  2.3930 -1.0871
  465MOL0     H61355  12.777   1.010   8.678  0.6984  0.3045 -1.6698
  465MOL0     H61356  12.868   0.956   8.970 -1.7693 -0.4495  2.3139
  465MOL0     H61357  12.876   0.835   8.837  0.0067  1.9397 -3.8084
  465MOL0     H61358  12.612   0.985   8.921  0.8634  0.5678 -0.9989
  465MOL0     H61359  12.636   0.865   8.800  0.3447 -0.0234 -0.0398
  465MOL0     H61360  12.733   0.716   9.004 -0.4306  0.6436  0.7340
  465MOL0     H61361  12.561   0.749   9.016 -0.9626  0.2165  1.9564
  465MOL0     H61362  12.742   1.853   8.862  1.3164 -0.7327 -0.9185
  465MOL0     H61363  12.628   2.054   8.772 -1.3940  0.0298 -1.7814
  465MOL0     H61364  12.562   2.441   8.537 -1.2678  2.1851 -0.7135
  465MOL0     H61365  12.409   2.616   8.530  0.9572 -1.5828 -0.1587
  465MOL0     H61366  10.929   3.668   7.979  1.1921  0.4290  0.3952
  465MOL0     H61367  10.775   3.745   8.160  3.2045  1.4371 -1.5239
  465MOL0     H61368  10.606   3.794   8.455  0.9459 -0.2075 -0.6054
  465MOL0     H61369  10.542   3.927   8.645 -0.6025  0.3489  0.6275
  465MOL0     H61370  10.510   3.731   9.048 -1.3558  0.0385  0.2681
  465MOL0     H61371  10.354   3.710   8.991 -1.4841  1.3237  0.8377
  465MOL0     H61372  10.368   3.831   9.210 -0.8587 -0.9028 -0.5499
  465MOL0     H61373  10.417   3.974   9.126  0.2377 -1.3453  0.7770
  465MOL0     H61374  10.181   3.818   9.024 -1.3081  0.9788 -0.6217
  465MOL0     H61375  10.232   3.973   8.992  0.2568 -0.4738 -1.1561
  465MOL0     H61376  10.139   3.875   9.264  0.5719  2.4095  2.4541
  465MOL0     H61377  10.188   4.042   9.222  2.3563 -0.0792 -3.3517
  465MOL0     H61378   9.772   3.960   9.098 -0.2818 -0.8184  1.2301
  465MOL0     H61379  10.532   3.576   8.891 -1.8883 -1.1822 -1.8316
  465MOL0     H61380  10.611   3.450   8.706  1.7407  0.3162  0.6311
  466MOL0     O61381   7.384   1.262   9.359  0.7993  0.3009 -0.7870
  466MOL0     C61382   7.420   1.375   9.391  0.6522  0.6907  0.2370
  466MOL0     O61383   7.438   1.424   9.523  0.1236  0.2737  0.4344
  466MOL0     C61384   7.416   1.348   9.632 -0.8592  0.0343  0.3970
  466MOL0     C61385   7.342   1.377   9.748  0.1739 -0.3644 -0.2556
  466MOL0     C61386   7.328   1.288   9.851  0.3197 -0.6940 -0.7214
  466MOL0     C61387   7.387   1.162   9.848  0.6609 -0.1427  0.2522
  466MOL0     O61388   7.385   1.063   9.940  0.4618 -0.1039  0.6377
  466MOL0     C61389   7.281   1.038  10.042 -1.4608 -0.8444  0.1786
  466MOL0     C61390   7.279   0.897  10.095 -0.1975 -0.7346 -0.5334
  466MOL0     C61391   7.255   0.784  10.003  0.6119  0.6412  0.3804
  466MOL0     C61392   7.264   0.641  10.049  0.6033 -0.8190  0.4393
  466MOL0     C61393   7.131   0.559  10.041 -0.3418 -0.4425 -0.4542
  466MOL0     C61394   7.141   0.400  10.049  0.3045 -0.8621  0.0584
  466MOL0     C61395   7.223   0.343  10.165 -0.3941 -0.0765  0.1191
  466MOL0     C61396   7.250   0.193  10.150 -0.4861  0.2077  0.8898
  466MOL0     N61397   7.264   0.118  10.280  0.6062  0.5551 -0.4646
  466MOL0     C61398   7.381   0.113  10.350  0.2707 -1.4006  0.6240
  466MOL0     C61399   7.358   0.051  10.462  0.3961 -0.0964  0.1188
  466MOL0     C61400   7.466   0.031  10.560 -0.4192  0.1582 -0.3302
  466MOL0     C61401   7.437   0.094  10.701 -0.0277 -0.2094 -0.5415
  466MOL0     C61402   7.376   0.237  10.706  0.3217  0.2823 -0.2188
  466MOL0     C61403   7.394   0.278  10.854 -0.7674 -0.7281  0.5808
  466MOL0     O61404   7.532   0.327  10.869  0.0946 -0.4616 -0.2211
  466MOL0     C61405   7.586   0.361  10.991  0.3494  0.6350  0.6493
  466MOL0     C61406   7.718   0.401  10.985  0.5252 -0.2241 -0.2682
  466MOL0     C61407   7.786   0.432  11.100 -0.5770  0.7183  0.2896
  466MOL0     C61408   7.734   0.408  11.228 -0.1098 -0.6953 -1.1833
  466MOL0     C61409   7.810   0.432  11.364 -0.2148  0.1346 -0.4709
  466MOL0     O61410   7.759   0.419  11.493 -0.1061 -0.0696 -0.5191
  466MOL0     C61411   7.832   0.487  11.596 -0.0352  0.3288 -0.3893
  466MOL0     C61412   7.831   0.427  11.724 -0.5705 -1.0894 -0.0362
  466MOL0     C61413   7.905   0.471  11.826  0.6658 -0.1000  0.0098
  466MOL0     C61414   7.972   0.594  11.820  0.9644 -0.4133  0.4792
  466MOL0     O61415   8.037   0.634  11.937  0.4830  0.5904 -0.2567
  466MOL0     C61416   8.158   0.562  11.954  0.9032  0.1897  0.2024
  466MOL0     C61417   8.255   0.639  12.054  0.0933  0.2904 -0.0221
  466MOL0     C61418   8.386   0.552  12.051 -0.8658  0.1788  0.2414
  466MOL0     C61419   8.494   0.598  12.154  0.5664  0.1481  0.3437
  466MOL0     C61420   8.594   0.486  12.187 -0.2152  0.4619 -0.7230
  466MOL0     C61421   8.683   0.533  12.311 -0.5573 -0.1320 -0.6104
  466MOL0     C61422   8.780   0.431  12.362 -1.5293 -0.2795 -0.3253
  466MOL0     C61423   8.878   0.501  12.466  0.4909  0.6714  0.7515
  466MOL0    Cl61424   8.968   0.356  12.531  0.1179  0.4059 -0.3483
  466MOL0     C61425   7.984   0.659  11.693  0.9553 -0.1923 -0.5838
  466MOL0     C61426   7.913   0.603  11.589 -0.2596  0.5744  0.5367
  466MOL0     O61427   7.920   0.470  11.340 -1.1413 -0.4588  0.2736
  466MOL0     C61428   7.590   0.373  11.236  0.0970 -0.2019  0.0881
  466MOL0     C61429   7.518   0.344  11.116 -0.1621 -0.2023  0.4089
  466MOL0     N61430   7.233  -0.008  10.457 -0.5237  1.0777 -1.2219
  466MOL0     N61431   7.172   0.040  10.354 -0.2301 -1.0506  0.4051
  466MOL0     C61432   7.472   1.135   9.739  0.5656 -0.0554  0.7980
  466MOL0     C61433   7.476   1.219   9.628 -0.0331 -0.6463  0.9131
  466MOL0     C61434   7.447   1.461   9.272 -0.0097  0.8082 -0.4568
  466MOL0     C61435   7.359   1.455   9.156 -0.5756  0.1552  0.7139
  466MOL0     C61436   7.396   1.546   9.050  0.6970 -0.0002 -0.8581
  466MOL0     C61437   7.513   1.625   9.054 -0.5485 -1.1094  1.3043
  466MOL0     O61438   7.546   1.696   8.937  0.4999 -0.1914  0.2185
  466MOL0     C61439   7.685   1.707   8.915  0.1264  0.0104 -0.3195
  466MOL0     C61440   7.719   1.763   8.770 -0.2020  0.7431 -0.1526
  466MOL0     C61441   7.861   1.732   8.714 -0.1523 -0.1729  0.1009
  466MOL0     C61442   7.973   1.820   8.773  0.3576  0.1795  0.1377
  466MOL0     C61443   8.000   1.771   8.908 -0.5664  0.3947 -1.2521
  466MOL0     C61444   8.003   1.737   9.028  0.5425 -0.0986  1.1205
  466MOL0     C61445   7.602   1.617   9.162  0.1243  1.1161  0.0134
  466MOL0     C61446   7.555   1.548   9.273  0.6098 -0.7073 -0.8310
  466MOL0     H61447   7.280   1.466   9.745 -1.1643 -1.0052  3.4242
  466MOL0     H61448   7.267   1.294   9.941  0.9463  2.9368 -0.4091
  466MOL0     H61449   7.178   1.051  10.007 -0.8695 -2.0995 -2.2563
  466MOL0     H61450   7.295   1.111  10.122 -2.3588  1.7914 -1.9546
  466MOL0     H61451   7.196   0.905  10.166 -0.4616 -2.6353 -0.5893
  466MOL0     H61452   7.372   0.868  10.143 -0.7305 -0.5413  0.6637
  466MOL0     H61453   7.336   0.797   9.930  1.2370 -2.2025  0.4570
  466MOL0     H61454   7.161   0.809   9.954 -1.1165  0.2919  3.3018
  466MOL0     H61455   7.351   0.595  10.000  3.6634  4.5131  0.1057
  466MOL0     H61456   7.291   0.640  10.155  1.5665  1.2283  0.2568
  466MOL0     H61457   7.087   0.589   9.945  2.9161  2.7480 -1.1697
  466MOL0     H61458   7.064   0.601  10.117  0.6376 -2.4244  1.5840
  466MOL0     H61459   7.186   0.349   9.964  2.4529 -2.7433  2.1771
  466MOL0     H61460   7.037   0.369  10.062 -0.1591  0.4756 -0.2592
  466MOL0     H61461   7.324   0.385  10.170  0.6084 -2.2457 -0.7113
  466MOL0     H61462   7.176   0.366  10.261  1.2014 -0.5220  1.0500
  466MOL0     H61463   7.343   0.168  10.098 -1.3658 -0.5423 -0.3910
  466MOL0     H61464   7.171   0.136  10.100  2.1968 -2.2117 -0.9435
  466MOL0     H61465   7.474   0.163  10.324 -0.3553 -1.7970 -2.9342
  466MOL0     H61466   7.564   0.070  10.531  0.5730 -1.0002  1.2919
  466MOL0     H61467   7.485  -0.076  10.570 -1.1226 -0.1997 -2.4111
  466MOL0     H61468   7.537   0.112  10.742 -0.7336  0.0466  1.1485
  466MOL0     H61469   7.380   0.027  10.766 -1.2765  0.6587 -0.6962
  466MOL0     H61470   7.426   0.300  10.633  0.7366  0.0388 -0.1506
  466MOL0     H61471   7.271   0.216  10.681  0.2889 -0.0736  0.2023
  466MOL0     H61472   7.353   0.211  10.929 -1.9097 -1.3743 -0.5898
  466MOL0     H61473   7.334   0.369  10.863  1.5811  0.8799  0.9875
  466MOL0     H61474   7.768   0.400  10.888 -0.9899 -0.8474 -1.0720
  466MOL0     H61475   7.883   0.477  11.080  0.1517 -0.2510  1.4633
  466MOL0     H61476   7.769   0.338  11.730 -0.6874 -0.9032  2.1589
  466MOL0     H61477   7.906   0.420  11.921 -0.2890 -0.7712 -0.3189
  466MOL0     H61478   8.198   0.542  11.855  0.1483  0.0948 -0.0897
  466MOL0     H61479   8.147   0.464  12.003  0.5498  0.0865 -0.0841
  466MOL0     H61480   8.215   0.636  12.155 -1.5712  0.5000 -0.6432
  466MOL0     H61481   8.287   0.738  12.022 -0.0075  0.2308 -0.3153
  466MOL0     H61482   8.433   0.560  11.952 -5.3236 -0.1003 -2.1600
  466MOL0     H61483   8.360   0.449  12.076  0.7410 -0.2072  0.4149
  466MOL0     H61484   8.535   0.692  12.118 -3.0376  1.3069 -1.1812
  466MOL0     H61485   8.445   0.617  12.250 -2.8402  1.6391 -1.5026
  466MOL0     H61486   8.656   0.481  12.097  0.8999  1.9574 -0.0876
  466MOL0     H61487   8.538   0.394  12.204  1.0446  0.1827  2.6834
  466MOL0     H61488   8.619   0.545  12.398  1.1454  0.7094  0.5791
  466MOL0     H61489   8.729   0.626  12.278  0.6819 -1.0452 -1.5698
  466MOL0     H61490   8.737   0.342  12.409  0.1602 -1.4224 -0.8523
  466MOL0     H61491   8.840   0.400  12.276  0.9617  0.1636  1.1457
  466MOL0     H61492   8.822   0.542  12.550 -0.7194 -1.0252  0.8125
  466MOL0     H61493   8.937   0.580  12.418  1.1347  0.0982  0.5808
  466MOL0     H61494   8.044   0.750  11.691  1.1499 -0.0893  3.0924
  466MOL0     H61495   7.924   0.655  11.494 -0.9747  1.0133  0.6860
  466MOL0     H61496   7.533   0.381  11.328 -0.1617 -0.5298 -0.0427
  466MOL0     H61497   7.413   0.322  11.135 -0.2357 -2.8721 -2.2676
  466MOL0     H61498   7.531   1.046   9.719 -2.0218 -1.1417 -3.2152
  466MOL0     H61499   7.535   1.182   9.545  0.4292  1.9695  0.0014
  466MOL0     H61500   7.271   1.393   9.146 -1.0331  0.8959 -0.1304
  466MOL0     H61501   7.331   1.556   8.963 -0.4395  0.3344  0.0098
  466MOL0     H61502   7.737   1.611   8.922  3.9036  1.9535  1.1495
  466MOL0     H61503   7.719   1.777   8.992 -1.6788 -0.4791  0.9875
  466MOL0     H61504   7.642   1.716   8.708  1.1293 -3.4777  1.0600
  466MOL0     H61505   7.707   1.871   8.760 -2.4136  0.4546 -1.3148
  466MOL0     H61506   7.866   1.748   8.606 -1.3577  1.4332  0.2424
  466MOL0     H61507   7.891   1.630   8.737  1.0677  0.0569 -0.3960
  466MOL0     H61508   8.054   1.815   8.700 -0.6612 -4.5592 -1.0187
  466MOL0     H61509   7.927   1.919   8.783 -1.9915 -0.2309 -4.0333
  466MOL0     H61510   7.996   1.690   9.124 -0.7792  2.7416  2.5260
  466MOL0     H61511   7.692   1.675   9.179  0.5516  0.9302 -1.4248
  466MOL0     H61512   7.622   1.560   9.358 -1.4120  0.8108  0.6469
  467MOL0     O61513   0.533   4.719   8.397  0.9006 -1.0344 -0.3996
  467MOL0     C61514   0.506   4.600   8.402  0.3929  0.8912  0.1429
  467MOL0     O61515   0.598   4.503   8.379 -0.3263 -0.4437 -0.6411
  467MOL0     C61516   0.719   4.527   8.313  0.5066  0.0752 -0.1244
  467MOL0     C61517   0.737   4.448   8.198  0.7718 -0.0952 -0.8074
  467MOL0     C61518   0.843   4.466   8.122  0.7308 -0.2075 -0.3960
  467MOL0     C61519   0.931   4.573   8.143 -0.0188  0.9621 -0.2804
  467MOL0     O61520   1.032   4.605   8.061  0.0396  0.5757 -0.0039
  467MOL0     C61521   1.165   4.624   8.111  1.1753  0.0690  0.4767
  467MOL0     C61522   1.268   4.621   7.995 -0.6716  0.1812  0.1732
  467MOL0     C61523   1.389   4.526   8.025 -1.0314 -0.3373 -0.0259
  467MOL0     C61524   1.483   4.534   7.897  1.0322 -0.1943 -0.0964
  467MOL0     C61525   1.578   4.412   7.888 -0.3324  0.1076  0.4622
  467MOL0     C61526   1.663   4.428   7.756  0.1030 -0.1384 -0.4538
  467MOL0     C61527   1.584   4.463   7.634  0.4512 -0.8948  0.3332
  467MOL0     C61528   1.649   4.393   7.505 -1.0386  1.4332  0.4235
  467MOL0     N61529   1.791   4.382   7.505 -0.7058 -0.6025 -0.0052
  467MOL0     C61530   1.864   4.494   7.471  0.7466 -0.9255  0.2480
  467MOL0     C61531   1.985   4.450   7.440  0.2734 -1.1119 -0.8907
  467MOL0     C61532   2.103   4.541   7.422 -0.4756  0.0853  0.6458
  467MOL0     C61533   2.235   4.478   7.462 -0.2370  1.0534 -0.3191
  467MOL0     C61534   2.229   4.474   7.617 -0.9494  0.0921  0.8679
  467MOL0     C61535   2.320   4.377   7.691 -1.2537 -0.3255  0.1295
  467MOL0     O61536   2.259   4.244   7.707  0.6991  0.0148 -0.3768
  467MOL0     C61537   2.203   4.231   7.828  0.5485  1.2393  0.1364
  467MOL0     C61538   2.299   4.181   7.921 -0.0925 -0.6865 -0.1152
  467MOL0     C61539   2.257   4.161   8.051 -0.5855 -0.1420 -0.6349
  467MOL0     C61540   2.126   4.187   8.085  0.4850  0.0376 -0.8026
  467MOL0     C61541   2.073   4.156   8.220  0.7574 -0.5322 -0.0369
  467MOL0     O61542   2.164   4.115   8.311 -0.1181  0.5235 -0.2510
  467MOL0     C61543   2.135   4.129   8.448  0.0482  0.2173  0.5647
  467MOL0     C61544   2.142   4.018   8.532  0.0765  0.0443 -0.1292
  467MOL0     C61545   2.115   4.029   8.667  0.3708  0.6646  0.1423
  467MOL0     C61546   2.088   4.156   8.723  0.1178 -0.3298 -0.0264
  467MOL0     O61547   2.069   4.179   8.860 -0.7019 -0.3837 -0.2127
  467MOL0     C61548   2.136   4.079   8.941  0.1206 -1.0310 -0.2180
  467MOL0     C61549   2.114   4.119   9.080  0.4105 -0.7046 -0.3655
  467MOL0     C61550   2.213   4.228   9.118 -0.9485  0.0550 -0.7963
  467MOL0     C61551   2.197   4.277   9.261  1.0442  0.0356  0.4184
  467MOL0     C61552   2.330   4.357   9.314 -0.8413  0.8159 -0.6898
  467MOL0     C61553   2.301   4.424   9.444  0.3412 -0.0690  0.2859
  467MOL0     C61554   2.267   4.340   9.575 -0.7933  0.7086 -0.0036
  467MOL0     C61555   2.241   4.420   9.703  0.4102 -0.5574 -0.1759
  467MOL0    Cl61556   2.244   4.309   9.837  0.3710 -0.2180 -0.1279
  467MOL0     C61557   2.085   4.269   8.639 -0.4958 -0.4293 -0.2844
  467MOL0     C61558   2.099   4.253   8.500 -0.0895 -0.2459 -0.5058
  467MOL0     O61559   1.954   4.181   8.246 -0.2253 -0.0332 -0.9874
  467MOL0     C61560   2.029   4.235   7.988  0.6435  0.2190  1.1566
  467MOL0     C61561   2.068   4.252   7.854 -0.7479  0.7595  0.1870
  467MOL0     N61562   1.984   4.313   7.467 -0.0494 -0.1218 -0.0655
  467MOL0     N61563   1.868   4.275   7.502 -0.3916  0.7528  0.6941
  467MOL0     C61564   0.910   4.656   8.258 -0.2907 -0.0276  0.0345
  467MOL0     C61565   0.805   4.634   8.353 -0.8743  0.2116  0.2906
  467MOL0     C61566   0.372   4.560   8.454 -0.1497 -0.1036 -0.1348
  467MOL0     C61567   0.323   4.421   8.446 -0.1409  1.2942 -0.3920
  467MOL0     C61568   0.201   4.378   8.504 -0.8057 -0.2885 -0.1868
  467MOL0     C61569   0.118   4.474   8.555  0.3415 -1.3237  0.5136
  467MOL0     O61570  -0.017   4.450   8.586  0.2734  0.5363  0.1238
  467MOL0     C61571  -0.058   4.312   8.615  0.5980 -0.5847 -0.3861
  467MOL0     C61572  -0.197   4.302   8.686 -0.1782  0.0602 -0.4763
  467MOL0     C61573  -0.319   4.296   8.594 -0.4136 -0.5187  1.4410
  467MOL0     C61574  -0.449   4.301   8.684  0.4574  0.7348 -0.0393
  467MOL0     C61575  -0.490   4.161   8.702  0.2793  0.7678 -0.5990
  467MOL0     C61576  -0.524   4.042   8.730 -1.8276  0.4867  0.1435
  467MOL0     C61577   0.165   4.613   8.575 -0.4947  0.0392 -1.2289
  467MOL0     C61578   0.298   4.650   8.530 -1.2031  0.4186 -0.0184
  467MOL0     H61579   0.665   4.369   8.182  0.9721 -0.5108  0.2454
  467MOL0     H61580   0.860   4.403   8.036  1.0603 -1.4796  0.5818
  467MOL0     H61581   1.185   4.538   8.175 -2.5549  0.6247  2.7157
  467MOL0     H61582   1.175   4.724   8.154  2.1191  0.4201 -0.5284
  467MOL0     H61583   1.300   4.725   7.989  0.3967  0.1398  3.3577
  467MOL0     H61584   1.217   4.580   7.907 -1.4882 -0.1072  0.7620
  467MOL0     H61585   1.353   4.431   8.066  1.3095 -1.4809 -0.4108
  467MOL0     H61586   1.457   4.558   8.105  0.3907  0.0535 -1.3397
  467MOL0     H61587   1.409   4.525   7.818 -1.1713  1.0083  1.7189
  467MOL0     H61588   1.529   4.632   7.918 -1.3089  0.5420  2.1289
  467MOL0     H61589   1.521   4.320   7.873 -0.7322  0.4819 -0.3981
  467MOL0     H61590   1.637   4.401   7.979  0.8561 -1.0045 -0.4026
  467MOL0     H61591   1.716   4.333   7.744  1.1193  0.5077 -1.2539
  467MOL0     H61592   1.739   4.505   7.774 -2.0194  1.4527  2.7191
  467MOL0     H61593   1.482   4.426   7.648 -0.3661  1.3495  0.6683
  467MOL0     H61594   1.576   4.569   7.611  1.0479 -0.2814  2.7220
  467MOL0     H61595   1.612   4.450   7.419  0.3193  2.1022  0.2422
  467MOL0     H61596   1.612   4.291   7.489  2.4077  0.1258 -0.3358
  467MOL0     H61597   1.826   4.596   7.471  3.6972  0.3116 -1.4112
  467MOL0     H61598   2.084   4.627   7.487  2.6048  1.4573 -0.0748
  467MOL0     H61599   2.100   4.571   7.317  0.1425  1.6685  1.0410
  467MOL0     H61600   2.331   4.528   7.446  0.7237  0.1710  2.2682
  467MOL0     H61601   2.249   4.374   7.430  3.9259  0.5806  2.3072
  467MOL0     H61602   2.259   4.570   7.660  2.2626 -0.0063 -0.8790
  467MOL0     H61603   2.124   4.459   7.646 -0.7884  1.2161  2.1387
  467MOL0     H61604   2.350   4.417   7.788  0.2634 -0.2280 -0.3617
  467MOL0     H61605   2.411   4.354   7.635 -1.3747  2.1172 -1.1691
  467MOL0     H61606   2.402   4.155   7.898  0.2014  0.2979  0.0443
  467MOL0     H61607   2.323   4.121   8.128  2.0675 -1.7013 -3.5281
  467MOL0     H61608   2.174   3.920   8.498  1.8717  0.6109 -0.2189
  467MOL0     H61609   2.118   3.936   8.724  2.0254 -2.4679 -4.5100
  467MOL0     H61610   2.242   4.055   8.923  0.1409 -3.5821  2.5309
  467MOL0     H61611   2.069   3.994   8.927 -2.0428  0.5926 -0.2770
  467MOL0     H61612   2.154   4.036   9.139 -0.9827 -3.2612 -2.8085
  467MOL0     H61613   2.009   4.135   9.104  0.3915  0.6323 -1.2238
  467MOL0     H61614   2.181   4.319   9.067 -1.2402 -0.7574 -2.0771
  467MOL0     H61615   2.317   4.198   9.101 -1.2809 -0.8263 -1.3384
  467MOL0     H61616   2.120   4.355   9.256 -0.1245 -1.1772 -2.5627
  467MOL0     H61617   2.177   4.194   9.329  0.9561  1.2327  1.9179
  467MOL0     H61618   2.355   4.429   9.236  3.5972 -1.6362 -1.9166
  467MOL0     H61619   2.414   4.288   9.327 -0.3996  1.3529 -0.6550
  467MOL0     H61620   2.210   4.483   9.429 -0.4780 -1.4133 -0.2258
  467MOL0     H61621   2.378   4.496   9.474 -0.8448  0.0500  3.4721
  467MOL0     H61622   2.182   4.274   9.553  0.2174 -0.4754 -0.5058
  467MOL0     H61623   2.359   4.281   9.584 -1.6859 -0.5404  1.4926
  467MOL0     H61624   2.146   4.474   9.699  0.5173 -0.3844 -0.3921
  467MOL0     H61625   2.325   4.488   9.721  2.0544 -2.7522  1.0404
  467MOL0     H61626   2.071   4.370   8.677  4.7069  1.2905 -2.0170
  467MOL0     H61627   2.074   4.345   8.447  2.3834  2.3212  2.3637
  467MOL0     H61628   1.930   4.266   8.021 -0.2471 -0.5425 -0.6579
  467MOL0     H61629   1.983   4.271   7.789 -1.5581  0.4450  1.1271
  467MOL0     H61630   0.983   4.736   8.260  1.0925 -1.0821 -2.4199
  467MOL0     H61631   0.787   4.695   8.441 -2.8629  1.7382 -1.0990
  467MOL0     H61632   0.384   4.340   8.407 -0.7174 -0.3547  1.9122
  467MOL0     H61633   0.182   4.271   8.508 -2.1757 -0.0294  3.1777
  467MOL0     H61634   0.021   4.259   8.669 -0.9983 -1.3608  1.3059
  467MOL0     H61635  -0.076   4.260   8.520 -2.9758 -1.7469  0.7302
  467MOL0     H61636  -0.198   4.212   8.748  0.2969  1.2243  1.3092
  467MOL0     H61637  -0.201   4.388   8.753  3.1664 -0.3741  0.4923
  467MOL0     H61638  -0.319   4.221   8.514  0.8353  0.2256  0.7143
  467MOL0     H61639  -0.316   4.390   8.538 -1.1447 -1.2916  0.0439
  467MOL0     H61640  -0.426   4.337   8.784 -1.0980  1.2643  0.1629
  467MOL0     H61641  -0.525   4.360   8.631  1.1547  0.6052 -1.2454
  467MOL0     H61642  -0.554   3.941   8.749  0.5852 -0.5962 -1.2979
  467MOL0     H61643   0.116   4.691   8.632 -0.0296 -1.4187  1.2716
  467MOL0     H61644   0.351   4.743   8.550  2.5510 -1.8578  1.6851
  468MOL0     O61645   7.558   4.198   1.115  0.7024 -0.1767  0.3089
  468MOL0     C61646   7.611   4.194   1.221  0.1207  0.3730 -0.0703
  468MOL0     O61647   7.696   4.097   1.265 -0.1234  0.2927 -0.2729
  468MOL0     C61648   7.728   3.994   1.179  0.2570 -0.3184  0.5138
  468MOL0     C61649   7.618   3.912   1.136  0.3036 -0.5837  0.5563
  468MOL0     C61650   7.651   3.810   1.047 -0.5429 -0.0517 -0.8849
  468MOL0     C61651   7.782   3.785   1.006  0.4690 -0.6643 -0.4711
  468MOL0     O61652   7.826   3.702   0.908  0.2286  0.4842  0.3739
  468MOL0     C61653   7.730   3.624   0.841 -0.7088 -0.3731 -0.0706
  468MOL0     C61654   7.822   3.578   0.725  0.6176 -0.0199  0.2773
  468MOL0     C61655   7.740   3.486   0.626 -0.6692  0.3566 -1.0406
  468MOL0     C61656   7.840   3.424   0.518 -0.1637 -0.6208  1.0564
  468MOL0     C61657   7.766   3.327   0.409  0.4208 -0.0522 -0.5550
  468MOL0     C61658   7.854   3.319   0.293  0.8894  1.1688  0.5716
  468MOL0     C61659   7.835   3.190   0.206  0.5490 -0.1409 -0.0644
  468MOL0     C61660   7.691   3.207   0.151 -0.6398  0.5803  0.1210
  468MOL0     N61661   7.696   3.141   0.015  1.1305  0.5758 -0.1146
  468MOL0     C61662   7.732   3.010  -0.021  0.4624 -0.4517  0.0654
  468MOL0     C61663   7.752   3.013  -0.147 -0.2461 -0.0116 -0.3115
  468MOL0     C61664   7.781   2.903  -0.245  0.8067  0.6921  0.5327
  468MOL0     C61665   7.644   2.847  -0.301  0.1707  0.2745 -0.3586
  468MOL0     C61666   7.560   2.791  -0.188  0.5500  0.7983 -0.8952
  468MOL0     C61667   7.479   2.656  -0.197  0.2059  0.0894 -0.2090
  468MOL0     O61668   7.379   2.659  -0.307  0.4396  1.2617 -0.0694
  468MOL0     C61669   7.329   2.548  -0.374 -0.3580 -0.2608  0.2055
  468MOL0     C61670   7.305   2.426  -0.313  0.8116 -0.1457  0.1243
  468MOL0     C61671   7.253   2.318  -0.383  0.3281  0.1100 -0.2282
  468MOL0     C61672   7.223   2.335  -0.519 -0.0096  0.5674  0.5421
  468MOL0     C61673   7.192   2.209  -0.598 -0.5735  0.3525 -0.7413
  468MOL0     O61674   7.210   2.212  -0.730 -0.0045  0.0684  0.0865
  468MOL0     C61675   7.238   2.082  -0.779  0.7936 -0.7964  1.0988
  468MOL0     C61676   7.371   2.052  -0.815  0.3779 -0.3438 -0.1540
  468MOL0     C61677   7.407   1.932  -0.876  0.7346  1.4093 -0.6824
  468MOL0     C61678   7.310   1.837  -0.908  0.6062 -0.0419 -0.7882
  468MOL0     O61679   7.353   1.716  -0.957  0.3078 -0.4121 -0.4481
  468MOL0     C61680   7.261   1.626  -1.027 -0.4041  0.1724 -1.0972
  468MOL0     C61681   7.326   1.488  -1.072 -0.0991  0.0482 -0.8967
  468MOL0     C61682   7.387   1.408  -0.960  0.6053  0.3044 -0.3534
  468MOL0     C61683   7.443   1.268  -0.995 -0.4880 -0.9326  0.2491
  468MOL0     C61684   7.447   1.186  -0.868 -0.2273 -0.1044 -0.8354
  468MOL0     C61685   7.557   1.212  -0.768 -0.1619 -0.7871 -0.0965
  468MOL0     C61686   7.519   1.160  -0.630 -0.0441  0.1801 -1.6600
  468MOL0     C61687   7.426   1.257  -0.555  0.1136 -0.6111 -0.7959
  468MOL0    Cl61688   7.370   1.174  -0.407  0.2324 -0.1624 -0.1253
  468MOL0     C61689   7.179   1.870  -0.887 -0.6068  0.1650 -0.1690
  468MOL0     C61690   7.149   1.987  -0.819  0.7232  0.1135 -0.3353
  468MOL0     O61691   7.167   2.109  -0.528 -0.3010  1.1100 -0.5696
  468MOL0     C61692   7.239   2.456  -0.577 -0.6423 -0.5858  0.4957
  468MOL0     C61693   7.296   2.564  -0.510 -0.5247 -0.7486  0.1643
  468MOL0     N61694   7.729   3.141  -0.195 -0.0349 -0.1822  0.3501
  468MOL0     N61695   7.704   3.214  -0.096  0.4031 -0.2496  0.3504
  468MOL0     C61696   7.884   3.856   1.071  0.7948  0.4504  0.0014
  468MOL0     C61697   7.855   3.958   1.153 -0.5969 -0.0266  1.5437
  468MOL0     C61698   7.572   4.292   1.323 -0.2484  0.3670 -0.4350
  468MOL0     C61699   7.602   4.263   1.456 -0.4622  0.4986  0.0309
  468MOL0     C61700   7.584   4.353   1.555 -0.1259 -0.3680 -0.1249
  468MOL0     C61701   7.531   4.480   1.527 -0.7164  0.0747 -0.3276
  468MOL0     O61702   7.507   4.571   1.623 -0.0678  0.1630  0.1416
  468MOL0     C61703   7.607   4.671   1.637 -0.2940  1.1275  0.0027
  468MOL0     C61704   7.608   4.731   1.774  0.0429 -0.1273 -0.1348
  468MOL0     C61705   7.708   4.855   1.789 -0.2920  0.2848  0.0524
  468MOL0     C61706   7.656   4.951   1.910 -0.6788  1.1857  0.1013
  468MOL0     C61707   7.742   5.071   1.913 -0.4821 -0.3098  0.1889
  468MOL0     C61708   7.812   5.168   1.899 -0.3880 -0.0490 -0.4607
  468MOL0     C61709   7.514   4.512   1.392  0.5012 -0.4068  0.2291
  468MOL0     C61710   7.539   4.426   1.285 -0.1115 -0.7377  0.4621
  468MOL0     H61711   7.517   3.935   1.167 -0.6698 -2.3750 -1.0398
  468MOL0     H61712   7.571   3.751   1.002 -1.4004  0.1616  0.2961
  468MOL0     H61713   7.642   3.684   0.816 -1.5948 -1.5525  0.1335
  468MOL0     H61714   7.711   3.537   0.904  3.2078  0.3521  2.4918
  468MOL0     H61715   7.906   3.523   0.768 -2.2656 -4.0037  1.4450
  468MOL0     H61716   7.856   3.672   0.682 -0.7381  0.9627  1.2376
  468MOL0     H61717   7.660   3.553   0.594 -2.6379 -1.2834  0.1340
  468MOL0     H61718   7.690   3.401   0.674  0.6234 -1.0764 -2.1339
  468MOL0     H61719   7.877   3.513   0.466 -1.5332 -2.1295 -2.8728
  468MOL0     H61720   7.929   3.376   0.561  2.2713 -1.7420 -4.3766
  468MOL0     H61721   7.666   3.362   0.380 -0.6117 -2.0051  0.5072
  468MOL0     H61722   7.745   3.233   0.459  0.6499  1.3424  2.3574
  468MOL0     H61723   7.954   3.303   0.334  1.5349 -0.3947 -1.4567
  468MOL0     H61724   7.860   3.411   0.233  2.3526  0.9073  0.2858
  468MOL0     H61725   7.913   3.194   0.129 -0.5769  1.2352 -1.1990
  468MOL0     H61726   7.847   3.094   0.257  0.1462  0.8523  1.9969
  468MOL0     H61727   7.665   3.311   0.133 -0.6525  0.3096 -1.5813
  468MOL0     H61728   7.623   3.146   0.212  0.6774 -1.2903 -0.1911
  468MOL0     H61729   7.743   2.929   0.050 -2.2532 -0.6082  0.4209
  468MOL0     H61730   7.839   2.824  -0.196 -0.1376 -0.8945 -0.8289
  468MOL0     H61731   7.839   2.949  -0.325 -1.3951 -0.7119 -2.0220
  468MOL0     H61732   7.652   2.774  -0.382 -2.4625 -0.5280  0.0081
  468MOL0     H61733   7.598   2.942  -0.329  1.0844  0.1800 -2.3858
  468MOL0     H61734   7.619   2.776  -0.097 -0.1323 -1.4599 -0.7592
  468MOL0     H61735   7.491   2.874  -0.171 -0.4483 -0.0094 -0.9275
  468MOL0     H61736   7.425   2.631  -0.105  0.2241  0.5260 -0.0769
  468MOL0     H61737   7.543   2.569  -0.215  0.1676 -0.4276  1.9329
  468MOL0     H61738   7.342   2.416  -0.211  1.3196  2.1415  0.2200
  468MOL0     H61739   7.249   2.220  -0.338  1.1724 -0.2331 -0.8878
  468MOL0     H61740   7.438   2.125  -0.770 -0.5906 -1.6211  3.7562
  468MOL0     H61741   7.502   1.912  -0.925 -0.0389  0.8135 -1.9744
  468MOL0     H61742   7.222   1.667  -1.120  0.9878  0.8263 -1.4279
  468MOL0     H61743   7.176   1.604  -0.962  3.3697  1.3218  4.9872
  468MOL0     H61744   7.402   1.513  -1.146 -1.1203  1.2090 -1.6019
  468MOL0     H61745   7.241   1.434  -1.116 -1.4089 -0.5842  2.1214
  468MOL0     H61746   7.321   1.396  -0.874  2.8123  0.3897  1.4377
  468MOL0     H61747   7.471   1.470  -0.928 -1.0325  2.5027 -0.0815
  468MOL0     H61748   7.371   1.224  -1.064  1.2393 -1.7740 -1.0803
  468MOL0     H61749   7.536   1.277  -1.050 -1.3984 -2.1323 -1.5852
  468MOL0     H61750   7.444   1.084  -0.907 -1.1396 -0.2810 -0.3272
  468MOL0     H61751   7.350   1.193  -0.817 -0.0686 -0.6715 -0.4457
  468MOL0     H61752   7.562   1.320  -0.784 -2.2725 -1.1402 -4.3126
  468MOL0     H61753   7.653   1.167  -0.794  1.1414 -0.4755  3.5837
  468MOL0     H61754   7.478   1.059  -0.624 -2.4435  1.1611  2.4371
  468MOL0     H61755   7.615   1.152  -0.578  0.0689 -0.6639 -1.9847
  468MOL0     H61756   7.340   1.276  -0.619  1.5961 -0.7148 -2.9126
  468MOL0     H61757   7.467   1.357  -0.536  1.6465 -1.1384 -1.1718
  468MOL0     H61758   7.102   1.799  -0.915  0.0455  0.7256 -3.8859
  468MOL0     H61759   7.043   2.007  -0.805  0.7743 -0.8187  1.9144
  468MOL0     H61760   7.226   2.457  -0.685 -0.1767 -2.8208  0.3569
  468MOL0     H61761   7.303   2.667  -0.543 -0.3381 -0.9475 -0.4295
  468MOL0     H61762   7.986   3.819   1.058  0.9134  0.5321  0.6817
  468MOL0     H61763   7.924   4.016   1.213  0.8186  0.6605 -0.6110
  468MOL0     H61764   7.646   4.168   1.484 -0.4396  0.4818 -0.0599
  468MOL0     H61765   7.627   4.319   1.649  3.1025 -0.1324 -1.4091
  468MOL0     H61766   7.592   4.746   1.559  1.4137  0.5263 -0.9634
  468MOL0     H61767   7.706   4.627   1.619 -0.2419  2.0271 -2.1644
  468MOL0     H61768   7.509   4.772   1.796 -0.0867 -1.3612  1.8492
  468MOL0     H61769   7.622   4.656   1.853 -1.5424  0.8288  1.1208
  468MOL0     H61770   7.717   4.910   1.695  1.4092  3.2904  1.7880
  468MOL0     H61771   7.805   4.811   1.813  0.6232  2.4336  0.4971
  468MOL0     H61772   7.553   4.980   1.889 -1.9218 -1.1855  2.3677
  468MOL0     H61773   7.656   4.890   2.000 -0.4350 -0.6525 -1.0799
  468MOL0     H61774   7.886   5.240   1.869  0.5270  0.3333  2.4178
  468MOL0     H61775   7.474   4.610   1.372 -2.1777 -2.0715 -3.6109
  468MOL0     H61776   7.541   4.451   1.179  2.1427 -1.2348  0.3563
  469MOL0     O61777   4.674  10.582   5.374 -1.0633  0.5302  0.3104
  469MOL0     C61778   4.760  10.565   5.455 -0.6691 -0.2860 -0.4675
  469MOL0     O61779   4.740  10.548   5.594  0.6600 -0.6837  0.3666
  469MOL0     C61780   4.613  10.547   5.648 -0.1330 -0.1121  0.4166
  469MOL0     C61781   4.497  10.489   5.589  0.9711  0.2571 -0.3270
  469MOL0     C61782   4.372  10.519   5.649 -0.1308 -0.1796 -0.3813
  469MOL0     C61783   4.368  10.591   5.771 -0.4521 -0.0633  0.2175
  469MOL0     O61784   4.258  10.604   5.843  0.0855  0.2545  0.4069
  469MOL0     C61785   4.137  10.620   5.766  0.3262  0.0594  0.0565
  469MOL0     C61786   4.012  10.659   5.854 -0.1825 -0.2584  1.0534
  469MOL0     C61787   4.017  10.779   5.941  0.3570 -1.1584  0.1495
  469MOL0     C61788   3.887  10.802   6.020  0.8310 -0.5087  0.2166
  469MOL0     C61789   3.866  10.927   6.109  0.4718  0.5326  0.7976
  469MOL0     C61790   3.979  10.957   6.195 -0.6927 -0.5937  0.0690
  469MOL0     C61791   3.951  11.095   6.266  0.4795  0.6477 -1.0507
  469MOL0     C61792   3.842  11.072   6.379  0.9316  0.1039  0.5992
  469MOL0     N61793   3.873  10.987   6.490  0.1140  0.7712  0.6336
  469MOL0     C61794   3.995  10.922   6.529  0.5142  0.5170  0.1171
  469MOL0     C61795   3.981  10.865   6.650 -0.3547 -0.4169  0.3287
  469MOL0     C61796   4.085  10.781   6.720 -0.3100  0.2618  0.2447
  469MOL0     C61797   4.042  10.779   6.868  0.4877  0.5641  1.2299
  469MOL0     C61798   4.138  10.694   6.951  0.4007 -0.5522  0.1120
  469MOL0     C61799   4.079  10.620   7.077  0.5172  0.5204 -1.3685
  469MOL0     O61800   3.968  10.536   7.044 -0.2518 -0.1251  0.7795
  469MOL0     C61801   3.878  10.513   7.142 -0.1076 -0.6445  0.1350
  469MOL0     C61802   3.754  10.548   7.114  0.6643 -0.0713  0.7538
  469MOL0     C61803   3.651  10.532   7.205 -0.1966 -0.0587 -0.1871
  469MOL0     C61804   3.688  10.481   7.340 -0.4062 -0.6972  1.1703
  469MOL0     C61805   3.576  10.458   7.443 -0.9903 -0.5632  0.2238
  469MOL0     O61806   3.610  10.418   7.568  0.7898  0.9842  0.2770
  469MOL0     C61807   3.512  10.409   7.668 -0.9475 -0.7256  1.3090
  469MOL0     C61808   3.438  10.524   7.704  0.4956 -0.4139  0.7697
  469MOL0     C61809   3.348  10.515   7.811 -0.2301  0.1248  0.1911
  469MOL0     C61810   3.303  10.401   7.866 -0.4802 -0.4646 -0.7594
  469MOL0     O61811   3.202  10.392   7.962  0.3204  0.1991  0.5720
  469MOL0     C61812   3.229  10.482   8.075  0.1248  0.3105  0.1318
  469MOL0     C61813   3.235  10.401   8.202  0.2476  0.2825 -0.1252
  469MOL0     C61814   3.314  10.275   8.183  0.0964  0.2779 -1.2474
  469MOL0     C61815   3.355  10.206   8.314  0.1759  0.5039  0.3841
  469MOL0     C61816   3.230  10.150   8.385  0.2103  0.0590 -0.2536
  469MOL0     C61817   3.276  10.072   8.510  0.4384  0.7348 -0.1535
  469MOL0     C61818   3.163   9.984   8.575 -0.4408 -0.1765  0.0576
  469MOL0     C61819   3.037  10.060   8.616 -0.3252  0.1460 -0.8293
  469MOL0    Cl61820   3.064  10.194   8.738 -0.0664 -0.4965  0.1587
  469MOL0     C61821   3.369  10.288   7.825  0.6698  0.7542 -0.2650
  469MOL0     C61822   3.467  10.289   7.722 -0.5467 -0.4306 -0.2735
  469MOL0     O61823   3.465  10.489   7.400 -0.1558  0.2923  0.2435
  469MOL0     C61824   3.816  10.443   7.365 -0.7232  0.2327  0.2907
  469MOL0     C61825   3.911  10.458   7.264 -0.9169 -0.3808  0.4768
  469MOL0     N61826   3.854  10.903   6.689 -0.1159  0.1860 -0.2857
  469MOL0     N61827   3.789  10.966   6.592  0.1091 -0.9137  0.5573
  469MOL0     C61828   4.486  10.642   5.830 -0.6045  0.2333 -0.0576
  469MOL0     C61829   4.607  10.619   5.766 -0.3806 -0.8877  0.2512
  469MOL0     C61830   4.899  10.575   5.412 -0.5835  0.0715  0.0299
  469MOL0     C61831   4.932  10.602   5.280  0.8658 -0.2121  0.4160
  469MOL0     C61832   5.068  10.611   5.252 -0.4308 -0.5209  0.5246
  469MOL0     C61833   5.180  10.605   5.346  0.0327  0.3190  0.2295
  469MOL0     O61834   5.311  10.628   5.317 -0.2393  0.0362  0.1880
  469MOL0     C61835   5.360  10.586   5.188 -0.7468  0.0082  0.6655
  469MOL0     C61836   5.513  10.563   5.200 -0.1477 -0.4634  0.0430
  469MOL0     C61837   5.571  10.526   5.069 -0.3930 -0.1034  0.6204
  469MOL0     C61838   5.714  10.483   5.066  0.3075  0.6507  0.7968
  469MOL0     C61839   5.744  10.478   4.921  0.9275  0.0822 -0.2839
  469MOL0     C61840   5.763  10.486   4.799  0.3582  0.1881  0.2057
  469MOL0     C61841   5.130  10.574   5.475 -0.3760 -0.0546  1.0783
  469MOL0     C61842   4.995  10.557   5.510  0.4924 -0.4694  0.8017
  469MOL0     H61843   4.509  10.443   5.491  1.1088  2.2733 -1.3241
  469MOL0     H61844   4.284  10.477   5.602 -1.6913  2.3121  0.1951
  469MOL0     H61845   4.101  10.525   5.727 -1.4260  0.2142  1.1605
  469MOL0     H61846   4.162  10.693   5.688  1.6470  2.3178  2.4404
  469MOL0     H61847   3.987  10.576   5.920  0.2880  0.1570  1.7735
  469MOL0     H61848   3.930  10.679   5.785  1.5172 -1.3737 -1.4613
  469MOL0     H61849   4.028  10.858   5.866 -1.8458 -1.1467 -0.2361
  469MOL0     H61850   4.101  10.774   6.010  1.2947  0.4526 -0.8099
  469MOL0     H61851   3.807  10.810   5.945  0.6413 -1.4452  0.3187
  469MOL0     H61852   3.865  10.716   6.082 -0.7345  0.1752  0.6577
  469MOL0     H61853   3.775  10.911   6.168  0.9989  0.8713  1.7270
  469MOL0     H61854   3.847  11.017   6.050 -0.5550 -0.8391 -1.0934
  469MOL0     H61855   4.070  10.966   6.135 -0.6482  1.2191  0.3578
  469MOL0     H61856   4.008  10.872   6.258 -1.5005 -1.0005 -0.0856
  469MOL0     H61857   4.041  11.121   6.323 -0.5018  0.0688  0.8492
  469MOL0     H61858   3.917  11.167   6.192 -4.3992  1.3965  1.5075
  469MOL0     H61859   3.746  11.050   6.331 -0.2830  2.5866  1.7314
  469MOL0     H61860   3.803  11.167   6.417 -1.2472  0.1586 -1.5197
  469MOL0     H61861   4.079  10.931   6.461  1.2659 -3.1126  0.3446
  469MOL0     H61862   4.189  10.815   6.718  0.5960 -1.9618  2.8684
  469MOL0     H61863   4.099  10.682   6.677  0.0925 -0.8553  2.7847
  469MOL0     H61864   3.939  10.742   6.875  0.2405  0.5619 -1.2044
  469MOL0     H61865   4.055  10.881   6.905 -0.3849  2.4681 -3.0735
  469MOL0     H61866   4.194  10.628   6.883  0.9622 -0.2937  0.3156
  469MOL0     H61867   4.214  10.763   6.989  0.6854  2.0267 -4.4903
  469MOL0     H61868   4.056  10.691   7.157  0.0793 -0.3497 -0.7049
  469MOL0     H61869   4.158  10.554   7.114  0.4351 -0.4730 -2.9064
  469MOL0     H61870   3.734  10.603   7.022 -2.0545 -0.2191  1.1748
  469MOL0     H61871   3.545  10.538   7.180  0.1058 -0.6103 -1.6971
  469MOL0     H61872   3.455  10.611   7.641  0.3687  0.9091  2.4679
  469MOL0     H61873   3.291  10.599   7.848 -3.0107 -1.8345  0.6913
  469MOL0     H61874   3.147  10.553   8.085  2.0151  2.7045 -0.2826
  469MOL0     H61875   3.325  10.535   8.071 -0.4719  1.3778 -0.1311
  469MOL0     H61876   3.135  10.371   8.235  1.0142 -2.7667 -0.2170
  469MOL0     H61877   3.283  10.476   8.266  1.7740  0.5523 -1.5232
  469MOL0     H61878   3.413  10.291   8.138 -0.3651  0.4793 -2.1958
  469MOL0     H61879   3.268  10.205   8.112 -1.4462  2.3652 -2.4069
  469MOL0     H61880   3.407  10.116   8.280 -2.2354 -0.6187 -0.6248
  469MOL0     H61881   3.409  10.275   8.379 -0.3191  2.3645 -1.0572
  469MOL0     H61882   3.167  10.081   8.329 -1.9777 -2.5091  4.7176
  469MOL0     H61883   3.160  10.224   8.425 -0.1579 -1.5381  2.3473
  469MOL0     H61884   3.312  10.147   8.580 -0.3473 -0.0585  1.1497
  469MOL0     H61885   3.362  10.008   8.486 -0.6879 -1.2022  0.6985
  469MOL0     H61886   3.131   9.912   8.498  2.1987 -0.2706 -1.0736
  469MOL0     H61887   3.206   9.925   8.656  1.0413  4.3917  2.9542
  469MOL0     H61888   2.983   9.978   8.664  3.2061 -3.4414 -2.3745
  469MOL0     H61889   2.971  10.103   8.540  0.4137 -0.8135 -2.0456
  469MOL0     H61890   3.321  10.197   7.862  0.3978  0.4970 -1.2273
  469MOL0     H61891   3.518  10.201   7.685  0.7909  0.3982 -0.4693
  469MOL0     H61892   3.836  10.404   7.465  1.2765  0.0084 -0.1562
  469MOL0     H61893   4.010  10.417   7.279 -1.2884 -2.7522 -2.5508
  469MOL0     H61894   4.487  10.697   5.924  0.0665  0.1586 -0.0155
  469MOL0     H61895   4.702  10.657   5.802  0.4464  0.7581 -3.2218
  469MOL0     H61896   4.857  10.599   5.202 -2.8336 -1.1981  3.6855
  469MOL0     H61897   5.088  10.630   5.147  0.8087 -0.9627  0.6721
  469MOL0     H61898   5.337  10.667   5.118  1.2861  1.4291  1.5472
  469MOL0     H61899   5.316  10.494   5.150 -1.3714  1.0704 -1.3114
  469MOL0     H61900   5.575  10.645   5.238 -0.1139  1.2888 -3.3080
  469MOL0     H61901   5.523  10.486   5.276  1.4950  1.2117  1.6001
  469MOL0     H61902   5.576  10.619   5.011  1.7727 -0.0630  0.7981
  469MOL0     H61903   5.513  10.456   5.008  0.1401  0.2498 -0.3188
  469MOL0     H61904   5.773  10.556   5.123  1.6213  0.0356  0.2743
  469MOL0     H61905   5.714  10.380   5.104 -0.8512  0.5511  0.5476
  469MOL0     H61906   5.789  10.506   4.697  0.3759  0.1403  0.2010
  469MOL0     H61907   5.202  10.555   5.553 -1.2711  2.7046  2.7209
  469MOL0     H61908   4.995  10.521   5.612  1.2805  1.6904  1.6113
  470MOL0     O61909   8.003   9.036   3.877  0.6140  0.4217  0.4831
  470MOL0     C61910   8.059   9.142   3.839  1.0008  0.0890  0.6873
  470MOL0     O61911   8.055   9.198   3.711 -0.8308  0.4437  0.2738
  470MOL0     C61912   7.962   9.164   3.613 -0.2389  0.3369 -0.0230
  470MOL0     C61913   7.826   9.108   3.635 -0.0720 -0.0380  0.1390
  470MOL0     C61914   7.751   9.055   3.526  0.0213 -0.3666 -0.2325
  470MOL0     C61915   7.791   9.081   3.393  0.6887  0.3782  0.6733
  470MOL0     O61916   7.699   9.051   3.296 -0.4445  0.2592  0.3023
  470MOL0     C61917   7.761   9.034   3.162 -0.7899 -0.8676 -0.2830
  470MOL0     C61918   7.663   8.967   3.069  0.6977 -0.1650 -0.1577
  470MOL0     C61919   7.606   8.847   3.148  0.2600 -0.0855 -0.4418
  470MOL0     C61920   7.511   8.763   3.049 -0.1567 -0.2357 -0.2804
  470MOL0     C61921   7.568   8.707   2.918  0.1215 -0.1649 -0.0514
  470MOL0     C61922   7.484   8.582   2.876 -0.8355 -0.0393 -0.0062
  470MOL0     C61923   7.495   8.538   2.731  0.4497  0.4181  0.3177
  470MOL0     C61924   7.373   8.582   2.658  0.2555 -0.5554  0.4840
  470MOL0     N61925   7.404   8.669   2.544 -0.0862  0.0665 -0.6312
  470MOL0     C61926   7.476   8.784   2.562 -0.4704  0.2463 -0.2091
  470MOL0     C61927   7.542   8.807   2.443  0.6034  0.7882  0.1556
  470MOL0     C61928   7.638   8.918   2.409  0.8826  0.2864  0.0402
  470MOL0     C61929   7.790   8.889   2.407  0.6150  1.2796 -0.5498
  470MOL0     C61930   7.842   8.905   2.556  0.3531 -0.2437  0.1819
  470MOL0     C61931   7.992   8.885   2.563 -0.5129 -0.6853 -0.4725
  470MOL0     O61932   8.066   8.981   2.482  0.9142 -0.1903  0.2175
  470MOL0     C61933   8.101   9.108   2.534 -0.6298 -0.0228 -0.4359
  470MOL0     C61934   8.173   9.197   2.450 -0.1155  0.5739 -0.3789
  470MOL0     C61935   8.182   9.331   2.476  0.4220 -1.0149 -0.5100
  470MOL0     C61936   8.144   9.376   2.610  0.3668 -0.4525  0.3974
  470MOL0     C61937   8.176   9.515   2.660  0.0577  0.2831  0.1710
  470MOL0     O61938   8.166   9.544   2.795  0.0437  0.3598  0.2306
  470MOL0     C61939   8.189   9.665   2.844  0.2916  0.5253  0.0381
  470MOL0     C61940   8.309   9.738   2.822 -0.8104 -0.3650 -0.3457
  470MOL0     C61941   8.318   9.867   2.873 -0.4089 -0.1101 -0.0911
  470MOL0     C61942   8.221   9.939   2.930  1.0481  0.0092 -0.4741
  470MOL0     O61943   8.231  10.081   2.939  0.0615 -0.4930  0.8565
  470MOL0     C61944   8.297  10.128   3.059 -0.6207 -0.7292  0.2766
  470MOL0     C61945   8.315  10.278   3.047 -0.3163  0.1614  0.0365
  470MOL0     C61946   8.319  10.334   3.193  0.5221 -0.2162 -0.1414
  470MOL0     C61947   8.323  10.491   3.210  0.1064 -0.3051 -0.0682
  470MOL0     C61948   8.315  10.538   3.357  1.0126 -0.6188 -0.5548
  470MOL0     C61949   8.436  10.502   3.444  0.1423  0.5930  0.1996
  470MOL0     C61950   8.418  10.579   3.579 -0.5068 -0.4752 -0.1466
  470MOL0     C61951   8.492  10.709   3.565  0.5178  0.0021 -1.1935
  470MOL0    Cl61952   8.673  10.675   3.574 -0.4417  0.2705 -0.0412
  470MOL0     C61953   8.099   9.870   2.944 -0.1883  0.1696 -0.2644
  470MOL0     C61954   8.091   9.728   2.910  0.1406 -0.1892  0.2327
  470MOL0     O61955   8.189   9.597   2.573 -0.5367 -0.6318  0.0718
  470MOL0     C61956   8.081   9.284   2.705 -0.9279  0.1235  0.7279
  470MOL0     C61957   8.076   9.150   2.667 -1.0606  0.3581 -0.1289
  470MOL0     N61958   7.500   8.699   2.359 -0.0495 -0.0618  0.5677
  470MOL0     N61959   7.418   8.620   2.425 -0.3825 -0.3811 -0.7654
  470MOL0     C61960   7.915   9.146   3.380  0.0023  0.3142  0.2081
  470MOL0     C61961   7.999   9.180   3.482  0.8359  1.3548 -0.2037
  470MOL0     C61962   8.117   9.226   3.944 -0.5535 -0.4316 -0.9417
  470MOL0     C61963   8.126   9.178   4.078  0.2867 -0.2482 -0.4735
  470MOL0     C61964   8.203   9.254   4.166  0.0522 -0.8786 -0.9562
  470MOL0     C61965   8.257   9.383   4.131  0.8032  0.1132 -0.1653
  470MOL0     O61966   8.314   9.472   4.219 -0.3119  0.4976 -0.3489
  470MOL0     C61967   8.324   9.445   4.360  0.4994  0.4989 -1.1783
  470MOL0     C61968   8.414   9.554   4.412  0.4305 -0.6820 -0.7770
  470MOL0     C61969   8.553   9.585   4.354 -0.3715 -0.4468  0.4530
  470MOL0     C61970   8.644   9.460   4.361  0.0362 -0.4531 -0.5784
  470MOL0     C61971   8.756   9.458   4.267 -0.8374 -1.1578 -0.3525
  470MOL0     C61972   8.838   9.481   4.184 -0.2287  1.2864  0.4590
  470MOL0     C61973   8.231   9.430   3.999  0.0949  0.0993 -0.3727
  470MOL0     C61974   8.162   9.352   3.908 -0.7586  0.7260  0.2755
  470MOL0     H61975   7.785   9.108   3.735  0.3064 -2.9496  0.3994
  470MOL0     H61976   7.651   9.017   3.546 -0.1183  0.4317  0.6492
  470MOL0     H61977   7.851   8.972   3.170 -1.5339 -2.0599 -0.9901
  470MOL0     H61978   7.793   9.129   3.117 -1.9863  0.6758  1.9562
  470MOL0     H61979   7.718   8.939   2.979  2.5319 -0.4719  1.0219
  470MOL0     H61980   7.577   9.030   3.042  0.3727  0.7638  2.7017
  470MOL0     H61981   7.558   8.866   3.244 -3.9605 -1.7711 -1.9583
  470MOL0     H61982   7.697   8.789   3.168  0.9301  1.4731  1.2446
  470MOL0     H61983   7.480   8.679   3.113  0.6969  1.8553  3.1479
  470MOL0     H61984   7.424   8.825   3.028 -0.2141  0.5945  2.0991
  470MOL0     H61985   7.675   8.689   2.920  0.2001  0.1094 -1.2304
  470MOL0     H61986   7.551   8.788   2.846  0.8566  1.7707  1.8231
  470MOL0     H61987   7.381   8.587   2.913 -0.6714  0.7144  0.3627
  470MOL0     H61988   7.527   8.497   2.931 -0.6013 -0.5785 -0.9929
  470MOL0     H61989   7.587   8.582   2.690  0.2026  1.3114  0.6952
  470MOL0     H61990   7.498   8.429   2.725 -1.5291  0.3183  0.7256
  470MOL0     H61991   7.299   8.630   2.722 -1.6279 -1.0316 -1.2392
  470MOL0     H61992   7.317   8.495   2.623 -3.1650  2.5181 -2.5310
  470MOL0     H61993   7.472   8.851   2.647 -1.4066 -0.7005  0.5282
  470MOL0     H61994   7.612   9.015   2.454 -6.3298 -1.3474  0.4582
  470MOL0     H61995   7.608   8.944   2.307 -0.4504  0.6337  0.5041
  470MOL0     H61996   7.856   8.948   2.343  2.7262 -2.4496 -2.1553
  470MOL0     H61997   7.806   8.784   2.379  0.3406  1.2848 -0.7163
  470MOL0     H61998   7.818   9.002   2.599 -1.4089 -0.9664  0.9225
  470MOL0     H61999   7.789   8.832   2.618 -2.6743  0.0745 -1.8104
  470MOL0     H62000   8.026   8.793   2.514 -0.7891  0.6551 -3.3993
  470MOL0     H62001   8.022   8.876   2.668  1.8496  1.9348 -0.7967
  470MOL0     H62002   8.212   9.147   2.362 -1.8368 -0.4150 -0.6278
  470MOL0     H62003   8.217   9.394   2.395  2.8509 -0.5673  0.7940
  470MOL0     H62004   8.396   9.688   2.781  0.2248 -0.8088  2.1888
  470MOL0     H62005   8.417   9.899   2.844  0.9154 -0.2408  3.7742
  470MOL0     H62006   8.398  10.088   3.059 -0.0287  0.7039  0.5956
  470MOL0     H62007   8.240  10.090   3.145 -1.2707 -4.2649 -1.5110
  470MOL0     H62008   8.233  10.318   2.988 -1.4891 -0.1296  1.4170
  470MOL0     H62009   8.409  10.305   2.998 -0.7917 -0.6943 -1.4079
  470MOL0     H62010   8.395  10.288   3.257 -0.8534  1.5386  2.9878
  470MOL0     H62011   8.225  10.304   3.241  1.0857  0.8825  1.7546
  470MOL0     H62012   8.415  10.528   3.165 -1.3298  0.1503 -2.8364
  470MOL0     H62013   8.232  10.531   3.163 -1.6965 -1.9214  1.8192
  470MOL0     H62014   8.235  10.495   3.418 -0.0897  2.7902  0.6734
  470MOL0     H62015   8.298  10.646   3.352  2.7260 -0.1681  1.9347
  470MOL0     H62016   8.531  10.520   3.394  1.9707 -2.0307  2.4447
  470MOL0     H62017   8.432  10.395   3.468 -0.9315  0.4868 -0.3504
  470MOL0     H62018   8.315  10.587   3.614 -0.2794 -2.3297  1.0111
  470MOL0     H62019   8.465  10.533   3.666 -1.9993  1.5847  1.8871
  470MOL0     H62020   8.468  10.767   3.654  2.3406 -3.2209  1.6683
  470MOL0     H62021   8.473  10.769   3.476 -1.5533  0.0576 -0.7648
  470MOL0     H62022   8.018   9.914   3.002  0.5037  0.5445  0.4358
  470MOL0     H62023   8.000   9.668   2.912 -0.7947  0.9379 -2.8661
  470MOL0     H62024   8.047   9.315   2.804  1.6831 -0.3340  1.8605
  470MOL0     H62025   8.035   9.084   2.743 -3.0319  0.1366 -1.3213
  470MOL0     H62026   7.957   9.175   3.284  0.0291  2.1300  0.7276
  470MOL0     H62027   8.104   9.195   3.456  0.6110  1.8398 -0.8702
  470MOL0     H62028   8.099   9.076   4.103 -0.0652 -0.4481 -1.5896
  470MOL0     H62029   8.219   9.221   4.268 -1.2125  0.9507 -0.1068
  470MOL0     H62030   8.357   9.344   4.384 -1.0842 -0.0409 -1.1543
  470MOL0     H62031   8.234   9.466   4.417  1.9469  2.7607  0.4568
  470MOL0     H62032   8.358   9.648   4.418  0.5657 -0.5481 -1.5242
  470MOL0     H62033   8.434   9.516   4.512 -2.6018 -0.8202 -0.1052
  470MOL0     H62034   8.599   9.663   4.416 -3.4164  1.2327  0.7432
  470MOL0     H62035   8.549   9.629   4.254  1.5697  0.1003  0.5586
  470MOL0     H62036   8.680   9.460   4.464  0.5111  1.5625 -0.6904
  470MOL0     H62037   8.585   9.369   4.346 -0.2608 -0.1730 -1.1585
  470MOL0     H62038   8.915   9.499   4.112 -0.8143 -1.5673 -1.0383
  470MOL0     H62039   8.270   9.530   3.981  0.5093 -0.1249 -0.7372
  470MOL0     H62040   8.156   9.392   3.807 -1.2403 -0.1806 -0.0605
  471MOL0     O62041   7.571   3.377   2.594 -0.3889 -1.0970 -0.3911
  471MOL0     C62042   7.597   3.307   2.498 -0.1265  0.1572  0.4976
  471MOL0     O62043   7.662   3.353   2.386 -0.0357  0.1245  0.1278
  471MOL0     C62044   7.684   3.486   2.363  0.0525 -0.2195 -0.3916
  471MOL0     C62045   7.814   3.526   2.337 -0.2040  0.8001  0.0586
  471MOL0     C62046   7.833   3.667   2.310  0.1036 -0.8184 -0.1673
  471MOL0     C62047   7.740   3.759   2.335  0.0987 -0.1869  0.3591
  471MOL0     O62048   7.770   3.892   2.352 -0.0882 -0.9068 -0.8811
  471MOL0     C62049   7.664   3.991   2.315 -0.0077  1.0374 -0.0871
  471MOL0     C62050   7.703   4.138   2.360 -0.6256  0.8152 -0.2756
  471MOL0     C62051   7.861   4.174   2.334  0.8815 -0.5102 -0.4837
  471MOL0     C62052   7.884   4.320   2.339  0.5578 -0.1753 -0.7583
  471MOL0     C62053   8.027   4.341   2.331 -0.6108 -0.2561  0.4912
  471MOL0     C62054   8.081   4.490   2.340 -0.0419  0.5682  0.0656
  471MOL0     C62055   8.232   4.489   2.362  0.2620 -0.7430 -0.0019
  471MOL0     C62056   8.294   4.629   2.363 -0.5789  0.6160  0.5616
  471MOL0     N62057   8.442   4.631   2.351 -0.0082 -0.4263  0.3511
  471MOL0     C62058   8.521   4.596   2.459  0.0576 -0.3315  0.2909
  471MOL0     C62059   8.648   4.607   2.424  0.0881  0.3410 -0.8977
  471MOL0     C62060   8.756   4.587   2.523 -1.2057 -0.9111  0.1412
  471MOL0     C62061   8.884   4.674   2.494  0.3926  0.3861  0.0360
  471MOL0     C62062   9.006   4.598   2.556  0.0714  0.3974 -0.1702
  471MOL0     C62063   9.051   4.469   2.486 -0.6490  0.5743  0.0062
  471MOL0     O62064   9.155   4.403   2.554 -0.3134 -0.8026 -0.3335
  471MOL0     C62065   9.208   4.289   2.504 -0.3664 -0.3406 -0.2245
  471MOL0     C62066   9.166   4.233   2.382  0.1564  0.6153 -1.2826
  471MOL0     C62067   9.223   4.116   2.335 -0.0361  1.2655 -0.3891
  471MOL0     C62068   9.315   4.040   2.413 -0.4690 -0.7723 -1.1983
  471MOL0     C62069   9.360   3.895   2.387 -0.4622 -0.0603  0.0614
  471MOL0     O62070   9.403   3.826   2.497  0.1237  0.9939  0.0362
  471MOL0     C62071   9.383   3.688   2.508  0.2111  0.2343 -0.0476
  471MOL0     C62072   9.428   3.638   2.619  0.0347 -0.0647 -0.3438
  471MOL0     C62073   9.432   3.502   2.633 -0.2272  0.3689  0.3878
  471MOL0     C62074   9.374   3.412   2.543  0.3579 -0.6503 -0.2415
  471MOL0     O62075   9.375   3.275   2.555  0.2223 -0.2403  0.6365
  471MOL0     C62076   9.304   3.183   2.479  0.2882 -0.9944  0.6802
  471MOL0     C62077   9.327   3.047   2.548  0.5422  0.4012  0.1736
  471MOL0     C62078   9.278   3.036   2.692  0.2725 -0.1387  0.4732
  471MOL0     C62079   9.135   3.072   2.715 -0.4075 -0.5910  0.4935
  471MOL0     C62080   9.088   3.067   2.867  0.2954  0.6119 -0.2252
  471MOL0     C62081   9.165   2.970   2.959 -0.0478 -0.2656 -0.9714
  471MOL0     C62082   9.153   3.003   3.110  0.2279  0.2624 -0.1450
  471MOL0     C62083   9.015   2.953   3.163 -0.1008 -0.2040 -0.1607
  471MOL0    Cl62084   8.990   3.001   3.330 -0.4276 -0.1709 -0.0669
  471MOL0     C62085   9.307   3.477   2.427 -0.6109  0.0519  0.6118
  471MOL0     C62086   9.319   3.608   2.413  0.0347 -0.1385  0.5290
  471MOL0     O62087   9.356   3.859   2.269 -0.3376 -0.7878 -0.6125
  471MOL0     C62088   9.355   4.093   2.541  0.4355 -0.9471  0.1648
  471MOL0     C62089   9.298   4.212   2.588 -0.1355 -0.6615 -0.1745
  471MOL0     N62090   8.642   4.658   2.294 -0.3286  0.2078 -0.0566
  471MOL0     N62091   8.524   4.669   2.249  0.9420  0.4750  0.1581
  471MOL0     C62092   7.609   3.707   2.352 -0.1631  0.3432  0.3863
  471MOL0     C62093   7.579   3.578   2.371 -0.0151 -0.1530 -0.6162
  471MOL0     C62094   7.553   3.172   2.485  0.4734 -1.0525  0.9732
  471MOL0     C62095   7.465   3.109   2.581 -0.5313  0.4525 -0.2080
  471MOL0     C62096   7.421   2.978   2.556  0.8289 -0.4486  0.6014
  471MOL0     C62097   7.460   2.909   2.443 -1.1744 -0.2023 -0.0478
  471MOL0     O62098   7.399   2.788   2.431 -0.1535  0.2921 -0.6257
  471MOL0     C62099   7.390   2.717   2.303  0.0017  0.2745 -0.3292
  471MOL0     C62100   7.311   2.797   2.197  1.0616 -0.0415 -1.1839
  471MOL0     C62101   7.162   2.778   2.232 -0.6530  0.2076  0.2829
  471MOL0     C62102   7.070   2.842   2.122  0.1447  0.1579 -0.0341
  471MOL0     C62103   6.935   2.807   2.147 -0.8092 -0.9975  0.4823
  471MOL0     C62104   6.817   2.815   2.181  0.4847  0.3509  0.9029
  471MOL0     C62105   7.549   2.970   2.352 -0.1934 -0.3723 -0.0556
  471MOL0     C62106   7.596   3.097   2.374  0.0007  0.0708 -0.3330
  471MOL0     H62107   7.898   3.458   2.336 -0.3088  0.6277  1.2464
  471MOL0     H62108   7.935   3.702   2.293 -1.1375  1.2886 -4.9124
  471MOL0     H62109   7.575   3.964   2.372  1.0443  0.8991  1.5704
  471MOL0     H62110   7.658   3.982   2.206  1.0656  0.1290 -0.0849
  471MOL0     H62111   7.682   4.147   2.466  1.8421 -0.4121  0.4046
  471MOL0     H62112   7.647   4.206   2.296 -1.7970 -0.0323 -0.1668
  471MOL0     H62113   7.895   4.128   2.241  0.0467  1.2399 -1.7232
  471MOL0     H62114   7.921   4.139   2.418  1.6085  2.2594  0.2602
  471MOL0     H62115   7.828   4.364   2.256 -0.0776 -0.1329 -0.3125
  471MOL0     H62116   7.840   4.349   2.435  2.3736  4.5694 -1.0728
  471MOL0     H62117   8.064   4.293   2.240  2.9559  3.4734 -0.2807
  471MOL0     H62118   8.064   4.298   2.425  0.5865  0.4379  0.3616
  471MOL0     H62119   8.024   4.525   2.426 -1.5751 -1.1397 -0.1832
  471MOL0     H62120   8.050   4.538   2.247 -3.9361 -4.2944 -1.5726
  471MOL0     H62121   8.266   4.437   2.452 -2.3035 -0.4635  1.2188
  471MOL0     H62122   8.274   4.426   2.283 -0.6895 -0.3493 -0.8520
  471MOL0     H62123   8.262   4.692   2.447 -1.6091 -0.0422  0.6761
  471MOL0     H62124   8.257   4.676   2.272 -0.3941  0.4444  0.3970
  471MOL0     H62125   8.499   4.572   2.563  0.8945  3.3372  1.4640
  471MOL0     H62126   8.782   4.482   2.510  1.4306 -0.4039  0.6949
  471MOL0     H62127   8.715   4.618   2.620  1.7313  0.8114  0.9658
  471MOL0     H62128   8.868   4.771   2.543 -1.0011  0.4907 -0.5960
  471MOL0     H62129   8.897   4.684   2.386  0.8562 -0.2573  0.0277
  471MOL0     H62130   9.082   4.673   2.579 -0.9713  0.9922  1.5584
  471MOL0     H62131   8.976   4.570   2.657  0.0601 -2.3933 -0.8537
  471MOL0     H62132   9.076   4.497   2.383 -4.2290 -0.1634 -1.2339
  471MOL0     H62133   8.970   4.395   2.484 -0.7353  0.6746 -2.0662
  471MOL0     H62134   9.084   4.280   2.329 -0.4638 -3.0974 -3.9591
  471MOL0     H62135   9.189   4.082   2.237  1.0558 -1.0258 -0.0336
  471MOL0     H62136   9.500   3.687   2.685  1.2510 -1.0756 -0.8808
  471MOL0     H62137   9.476   3.456   2.721 -2.2076 -0.6708  0.9032
  471MOL0     H62138   9.340   3.181   2.376  2.4764  3.8522  1.0993
  471MOL0     H62139   9.196   3.202   2.477  0.1898 -1.1240  2.6535
  471MOL0     H62140   9.434   3.027   2.537  0.0524 -2.0552 -0.9481
  471MOL0     H62141   9.267   2.971   2.496  0.1054  2.0494 -1.8829
  471MOL0     H62142   9.329   3.107   2.757  1.9273 -1.2731  0.4741
  471MOL0     H62143   9.297   2.934   2.728 -0.6938 -0.1770  0.9203
  471MOL0     H62144   9.120   3.171   2.672  2.9005 -0.5761 -0.9193
  471MOL0     H62145   9.069   2.997   2.670 -0.6614  0.0431 -0.2188
  471MOL0     H62146   8.980   3.050   2.875  0.7682 -3.2813 -0.2599
  471MOL0     H62147   9.102   3.166   2.912  1.3895 -0.1502  1.1767
  471MOL0     H62148   9.272   2.969   2.941 -0.1849  0.5541 -1.9449
  471MOL0     H62149   9.128   2.869   2.938  1.7490 -1.4528  1.1904
  471MOL0     H62150   9.235   2.953   3.163 -0.6091 -0.6196  0.3557
  471MOL0     H62151   9.175   3.105   3.142 -0.7135 -0.2046  2.1845
  471MOL0     H62152   9.001   2.845   3.168 -0.1616 -0.1821  0.1921
  471MOL0     H62153   8.936   2.996   3.101  0.7061  1.8000  0.1169
  471MOL0     H62154   9.266   3.424   2.342  2.0052 -2.2681  0.6723
  471MOL0     H62155   9.283   3.649   2.318  1.6531 -2.3963 -1.1653
  471MOL0     H62156   9.433   4.039   2.595  0.9473  1.8918  2.5444
  471MOL0     H62157   9.321   4.246   2.688  0.9094 -1.9974  0.0527
  471MOL0     H62158   7.517   3.763   2.352 -0.5093 -0.2122  0.8755
  471MOL0     H62159   7.476   3.550   2.394 -0.6859  1.7100 -1.1438
  471MOL0     H62160   7.437   3.159   2.674  3.2649 -0.7392  1.8183
  471MOL0     H62161   7.363   2.925   2.631 -0.4502 -0.6237 -0.4921
  471MOL0     H62162   7.342   2.620   2.317 -0.7849  0.8427  1.1042
  471MOL0     H62163   7.494   2.705   2.272  0.2579 -0.1320  0.6345
  471MOL0     H62164   7.326   2.905   2.197  2.0943 -0.1672 -2.2049
  471MOL0     H62165   7.337   2.757   2.099  0.1575 -0.5244 -1.2382
  471MOL0     H62166   7.146   2.827   2.329 -1.3472  0.8437 -0.1429
  471MOL0     H62167   7.144   2.671   2.224 -3.3208  0.5872  0.4574
  471MOL0     H62168   7.078   2.951   2.115 -1.8516  0.3925  0.8935
  471MOL0     H62169   7.096   2.806   2.022  1.6375  2.4201 -0.5273
  471MOL0     H62170   6.716   2.826   2.215  0.8313 -1.8070  2.8959
  471MOL0     H62171   7.595   2.914   2.271  0.9779  0.3903  0.0617
  471MOL0     H62172   7.655   3.133   2.291  3.0514 -0.4269  1.4582
  472MOL0     O62173   6.419   0.698   4.118 -0.3850 -0.8999  0.1819
  472MOL0     C62174   6.426   0.582   4.091 -0.5873  0.7182 -0.0811
  472MOL0     O62175   6.328   0.487   4.117 -0.7616 -0.1750 -0.5772
  472MOL0     C62176   6.196   0.521   4.163 -0.9248  0.2393 -0.0857
  472MOL0     C62177   6.137   0.646   4.136 -0.5801  0.3340 -0.3147
  472MOL0     C62178   6.025   0.685   4.208 -0.2086 -0.5914 -1.2898
  472MOL0     C62179   5.948   0.592   4.278 -0.1735  0.9012 -0.0528
  472MOL0     O62180   5.830   0.620   4.348 -0.8706 -0.0446  0.1612
  472MOL0     C62181   5.839   0.718   4.452  0.0421 -0.1765 -0.1300
  472MOL0     C62182   5.800   0.660   4.587  0.9192  0.5362 -0.0346
  472MOL0     C62183   5.901   0.551   4.639  0.5086  0.0674 -0.4923
  472MOL0     C62184   6.045   0.597   4.674 -0.1972  0.8534  0.1801
  472MOL0     C62185   6.145   0.495   4.743  0.8788 -0.9051 -0.2326
  472MOL0     C62186   6.293   0.521   4.695  0.3630 -0.0231  0.4539
  472MOL0     C62187   6.400   0.477   4.797 -0.1470  0.3063 -0.3754
  472MOL0     C62188   6.382   0.336   4.867  0.7511  0.2693  0.9053
  472MOL0     N62189   6.515   0.275   4.873 -0.8125  0.5475  0.0140
  472MOL0     C62190   6.599   0.293   4.968 -0.0220 -0.1502  0.0369
  472MOL0     C62191   6.710   0.223   4.939 -0.3909  0.6010  0.6113
  472MOL0     C62192   6.822   0.208   5.042  1.3855  0.5802  0.0393
  472MOL0     C62193   6.828   0.058   5.099 -0.7430 -0.0199 -0.3594
  472MOL0     C62194   6.905  -0.030   4.999 -0.6221 -0.2461  0.6473
  472MOL0     C62195   6.878  -0.177   5.035 -0.6771  1.3073 -0.6927
  472MOL0     O62196   6.741  -0.215   5.063  0.2610  0.3173 -0.4340
  472MOL0     C62197   6.712  -0.316   5.145  0.3232 -0.2079  0.0718
  472MOL0     C62198   6.590  -0.300   5.221  0.2163  0.3425  0.0456
  472MOL0     C62199   6.573  -0.380   5.334  0.4513  1.3101 -0.4172
  472MOL0     C62200   6.663  -0.487   5.366 -0.0271  0.2476  0.4315
  472MOL0     C62201   6.623  -0.582   5.476 -0.2526  0.1957  0.6496
  472MOL0     O62202   6.708  -0.679   5.497  0.2511 -0.0234 -0.2035
  472MOL0     C62203   6.671  -0.781   5.584  0.1084 -0.6479  0.3246
  472MOL0     C62204   6.559  -0.861   5.550 -0.4898 -0.1374 -0.1095
  472MOL0     C62205   6.515  -0.949   5.644  0.3421 -0.9890  0.0619
  472MOL0     C62206   6.587  -0.989   5.760 -0.5048  0.2938 -0.4354
  472MOL0     O62207   6.566  -1.102   5.842 -0.0702  0.1329 -0.6967
  472MOL0     C62208   6.436  -1.168   5.855 -0.4224 -0.4252 -0.0546
  472MOL0     C62209   6.341  -1.106   5.964 -0.2859 -0.9490 -0.1278
  472MOL0     C62210   6.201  -1.159   5.952 -0.0737 -0.2307 -0.1398
  472MOL0     C62211   6.123  -1.119   6.079 -1.1894  0.4941  0.1497
  472MOL0     C62212   5.980  -1.165   6.059  0.0185  0.3098 -0.8160
  472MOL0     C62213   5.932  -1.247   6.191 -0.6141 -0.6454  0.0324
  472MOL0     C62214   6.017  -1.376   6.209 -0.3606 -0.2379 -0.0076
  472MOL0     C62215   5.978  -1.450   6.339 -0.4997 -0.4993 -0.0684
  472MOL0    Cl62216   6.102  -1.577   6.349  0.1930  0.4732  0.0943
  472MOL0     C62217   6.706  -0.920   5.780 -0.0854  0.5305 -0.5581
  472MOL0     C62218   6.739  -0.814   5.701 -0.2318  0.0474  0.2387
  472MOL0     O62219   6.517  -0.566   5.529 -0.7553 -0.2789  0.0107
  472MOL0     C62220   6.781  -0.498   5.290  0.6806  0.6803 -0.3339
  472MOL0     C62221   6.804  -0.414   5.182  0.0482  1.1989 -0.5107
  472MOL0     N62222   6.690   0.168   4.812 -0.3540  0.4136 -0.3685
  472MOL0     N62223   6.575   0.208   4.772  0.3826 -0.7402  0.8884
  472MOL0     C62224   5.987   0.460   4.284 -0.2573  0.8483 -0.4143
  472MOL0     C62225   6.124   0.430   4.241 -0.7526  0.5845  0.5643
  472MOL0     C62226   6.550   0.521   4.028 -0.5078  0.1950  0.3417
  472MOL0     C62227   6.578   0.389   4.011 -0.2901 -0.8842 -0.2755
  472MOL0     C62228   6.702   0.343   3.965 -0.0651  0.5973 -0.0403
  472MOL0     C62229   6.797   0.429   3.911 -0.2691 -0.7966  0.3731
  472MOL0     O62230   6.917   0.380   3.875  0.6884 -0.9539  0.1297
  472MOL0     C62231   6.933   0.323   3.748  0.1525  0.2642  0.4847
  472MOL0     C62232   7.026   0.404   3.653 -0.2551 -0.7310 -0.5223
  472MOL0     C62233   6.999   0.562   3.652  0.0522  0.5037 -0.6229
  472MOL0     C62234   7.095   0.624   3.555  0.8124 -0.3603 -0.3109
  472MOL0     C62235   7.098   0.762   3.580 -0.2744 -0.9849  0.1104
  472MOL0     C62236   7.094   0.877   3.614  0.2829  0.2943 -0.1436
  472MOL0     C62237   6.764   0.567   3.910  0.0414 -0.6904  0.5198
  472MOL0     C62238   6.648   0.610   3.974 -0.1316  0.5004 -0.0169
  472MOL0     H62239   6.179   0.721   4.069 -1.5559  0.8565 -0.3541
  472MOL0     H62240   5.989   0.788   4.215 -2.1476 -1.3331  2.0085
  472MOL0     H62241   5.764   0.797   4.445  0.0896 -0.0951  0.2429
  472MOL0     H62242   5.937   0.766   4.455 -1.1880  2.8086 -2.4387
  472MOL0     H62243   5.703   0.612   4.575  1.0963  0.0717  0.3573
  472MOL0     H62244   5.784   0.734   4.666 -1.1914 -0.2714  0.3595
  472MOL0     H62245   5.903   0.455   4.586  0.7748  0.4169 -1.1223
  472MOL0     H62246   5.839   0.535   4.728 -0.2565 -1.8766 -1.3163
  472MOL0     H62247   6.090   0.617   4.577  2.8712  2.1611  1.7430
  472MOL0     H62248   6.033   0.687   4.734  0.0003 -2.6597  6.3581
  472MOL0     H62249   6.117   0.391   4.722 -1.8631 -0.4127  0.5938
  472MOL0     H62250   6.132   0.514   4.850 -2.3834  2.0912 -0.9809
  472MOL0     H62251   6.299   0.622   4.656  0.0005 -0.8401 -1.8696
  472MOL0     H62252   6.320   0.463   4.606  3.0745 -1.1137  1.8683
  472MOL0     H62253   6.492   0.478   4.739  1.0155 -1.1117  1.3350
  472MOL0     H62254   6.404   0.550   4.878  1.1134 -1.8646  1.6413
  472MOL0     H62255   6.321   0.271   4.804  1.3056  0.2481  0.3804
  472MOL0     H62256   6.340   0.341   4.968  5.0940 -1.8682  3.1118
  472MOL0     H62257   6.563   0.338   5.060 -0.2885  0.6194 -0.4396
  472MOL0     H62258   6.795   0.278   5.122 -0.5362  3.5692 -2.9665
  472MOL0     H62259   6.912   0.237   4.988  0.4970 -0.6351 -2.1988
  472MOL0     H62260   6.727   0.025   5.127 -0.0807 -0.9400  1.0389
  472MOL0     H62261   6.884   0.053   5.193 -0.3542 -1.2559 -0.6370
  472MOL0     H62262   6.871   0.007   4.902 -0.2998 -0.1912  0.5557
  472MOL0     H62263   7.012  -0.018   5.014 -0.7273 -0.1022  1.2967
  472MOL0     H62264   6.933  -0.189   5.128 -1.3655  0.3831 -0.3918
  472MOL0     H62265   6.931  -0.247   4.970  1.4756  1.6868  0.5763
  472MOL0     H62266   6.525  -0.222   5.183  1.4373  1.1285 -0.5145
  472MOL0     H62267   6.478  -0.373   5.386 -0.4067 -1.8072 -1.3614
  472MOL0     H62268   6.511  -0.846   5.454 -3.4520  2.6334  1.5896
  472MOL0     H62269   6.432  -1.005   5.603  1.5668 -2.8618  0.0270
  472MOL0     H62270   6.450  -1.273   5.879 -1.3185 -0.4714  0.2908
  472MOL0     H62271   6.396  -1.165   5.753 -0.5936 -0.7983  0.0015
  472MOL0     H62272   6.341  -0.999   5.940 -2.3083 -0.2309  2.5712
  472MOL0     H62273   6.384  -1.111   6.065  1.3957  3.3352 -0.4218
  472MOL0     H62274   6.203  -1.268   5.944  1.2364 -0.2109 -0.2476
  472MOL0     H62275   6.154  -1.112   5.865 -1.5543  2.4474  1.9473
  472MOL0     H62276   6.170  -1.174   6.162 -0.6399 -2.9635 -2.2644
  472MOL0     H62277   6.131  -1.010   6.091 -0.2997  0.5276 -0.6581
  472MOL0     H62278   5.968  -1.229   5.971 -0.5078  0.0641 -0.5744
  472MOL0     H62279   5.912  -1.080   6.049 -1.0114 -0.4764 -0.7594
  472MOL0     H62280   5.827  -1.275   6.182 -0.6757 -0.6055  0.5712
  472MOL0     H62281   5.957  -1.186   6.279  2.9444 -1.6820 -0.0757
  472MOL0     H62282   6.007  -1.438   6.119  0.7795  2.4697 -2.1256
  472MOL0     H62283   6.125  -1.362   6.214  0.0923 -2.4938 -1.8713
  472MOL0     H62284   5.872  -1.474   6.336 -0.8154  0.8078  0.2475
  472MOL0     H62285   5.989  -1.384   6.426  2.3908  2.9616 -2.7378
  472MOL0     H62286   6.771  -0.945   5.864  2.4605  0.3725 -2.4320
  472MOL0     H62287   6.821  -0.758   5.745 -1.0441  0.3461  1.4370
  472MOL0     H62288   6.856  -0.571   5.320  0.6197  0.9491  0.4782
  472MOL0     H62289   6.904  -0.418   5.141  0.8733 -2.3847  1.3915
  472MOL0     H62290   5.927   0.392   4.343 -1.5128  0.6666 -1.8258
  472MOL0     H62291   6.165   0.332   4.261 -2.2934 -0.3106 -0.4634
  472MOL0     H62292   6.498   0.316   4.024 -0.1115 -0.8791  1.0493
  472MOL0     H62293   6.713   0.235   3.957 -1.3551  0.4908 -0.5491
  472MOL0     H62294   6.834   0.327   3.702 -1.3246  2.9582  3.5266
  472MOL0     H62295   6.971   0.221   3.758 -1.7044 -0.4153  0.8565
  472MOL0     H62296   7.129   0.387   3.684  0.7852  2.9209 -1.4028
  472MOL0     H62297   7.008   0.372   3.550 -0.2680  2.7388 -1.7456
  472MOL0     H62298   7.011   0.590   3.757 -0.6245 -1.7513  0.1088
  472MOL0     H62299   6.894   0.574   3.623 -0.0967  0.4523 -0.1187
  472MOL0     H62300   7.200   0.596   3.567  0.6565 -0.6072  0.5105
  472MOL0     H62301   7.068   0.606   3.450  5.3218  0.5230 -1.8490
  472MOL0     H62302   7.072   0.974   3.653 -2.3075  0.9037 -2.7515
  472MOL0     H62303   6.828   0.653   3.891  3.3669 -3.0035  0.4372
  472MOL0     H62304   6.629   0.717   3.986 -5.0663  0.1531 -2.2603
  473MOL0     O62305  10.736   4.343  10.479  0.6488  0.2037  0.5881
  473MOL0     C62306  10.758   4.237  10.530  0.0165 -0.4842 -0.3607
  473MOL0     O62307  10.683   4.182  10.620  0.2982  0.4934 -0.6900
  473MOL0     C62308  10.592   4.257  10.684  0.7215  0.5456 -0.7051
  473MOL0     C62309  10.608   4.298  10.816  0.1889  0.9311  0.3914
  473MOL0     C62310  10.494   4.355  10.884 -0.5269  0.6578  0.2632
  473MOL0     C62311  10.375   4.373  10.815  0.7984 -0.8399  0.0436
  473MOL0     O62312  10.267   4.433  10.879  0.1750 -0.2594 -0.0755
  473MOL0     C62313  10.286   4.573  10.923 -0.3187  0.2148  0.9648
  473MOL0     C62314  10.160   4.648  10.870  0.0721  0.5198 -0.3291
  473MOL0     C62315  10.146   4.665  10.714 -0.2350  0.1442  1.1955
  473MOL0     C62316  10.030   4.749  10.674  0.8815 -0.0872  0.0541
  473MOL0     C62317  10.021   4.799  10.528 -0.4438  0.2969 -1.0087
  473MOL0     C62318  10.060   4.696  10.426 -0.5945 -0.3660 -0.4985
  473MOL0     C62319   9.944   4.612  10.391 -0.2288 -0.4858  0.3085
  473MOL0     C62320   9.967   4.523  10.273  0.0109 -0.0140  0.5393
  473MOL0     N62321   9.846   4.441  10.239 -0.2752 -0.3255 -0.0267
  473MOL0     C62322   9.843   4.311  10.191 -0.0120  0.1370 -0.1741
  473MOL0     C62323   9.713   4.291  10.149 -0.2967  0.3833  0.1722
  473MOL0     C62324   9.645   4.181  10.076 -0.2895  0.1057  0.0268
  473MOL0     C62325   9.720   4.103   9.959 -0.4854 -1.6459 -0.9729
  473MOL0     C62326   9.624   4.011   9.886 -0.3540  0.3866 -0.3759
  473MOL0     C62327   9.707   3.977   9.766  0.1853 -0.5821 -0.1251
  473MOL0     O62328   9.653   3.868   9.690  0.1940 -0.5159  0.3350
  473MOL0     C62329   9.737   3.806   9.604  0.5593  0.1833  0.7023
  473MOL0     C62330   9.686   3.695   9.538  0.3198  0.6549  0.2732
  473MOL0     C62331   9.766   3.631   9.439 -0.3989  0.1947  0.1569
  473MOL0     C62332   9.890   3.683   9.409  0.1406  1.0325  0.2955
  473MOL0     C62333   9.975   3.602   9.316  0.0409  0.1940 -0.5049
  473MOL0     O62334  10.107   3.595   9.340 -0.2661  0.7031 -0.3045
  473MOL0     C62335  10.187   3.534   9.252 -0.0849 -0.0498  0.1850
  473MOL0     C62336  10.168   3.530   9.112 -0.5908 -0.3919 -0.1993
  473MOL0     C62337  10.262   3.461   9.037 -0.5510 -0.3087  0.0101
  473MOL0     C62338  10.364   3.393   9.098  0.6103  0.3425 -0.2663
  473MOL0     O62339  10.449   3.329   9.015  0.1541  0.1977  0.6128
  473MOL0     C62340  10.588   3.321   9.061 -0.2913 -0.4439  0.9608
  473MOL0     C62341  10.680   3.247   8.957  0.1910  0.8775  0.6988
  473MOL0     C62342  10.827   3.219   9.013  0.3153 -0.4137 -0.1022
  473MOL0     C62343  10.907   3.154   8.903 -0.2134 -0.0340  0.0094
  473MOL0     C62344  11.053   3.152   8.957  0.9265  0.0498 -0.3977
  473MOL0     C62345  11.145   3.092   8.855 -0.4004  0.1063  0.9966
  473MOL0     C62346  11.259   3.185   8.808  0.3712 -0.5893 -0.6101
  473MOL0     C62347  11.347   3.138   8.692  0.1511  0.8204  0.0202
  473MOL0    Cl62348  11.465   3.018   8.755 -0.3479  0.6953 -0.3721
  473MOL0     C62349  10.379   3.385   9.236  0.3995 -1.7684 -1.0394
  473MOL0     C62350  10.284   3.457   9.307 -0.4311 -0.4933 -0.0082
  473MOL0     O62351   9.909   3.535   9.229 -0.5191  0.1750 -0.0766
  473MOL0     C62352   9.943   3.789   9.476  0.3541 -0.5722  0.2320
  473MOL0     C62353   9.871   3.858   9.569  0.7071  0.6134 -0.1932
  473MOL0     N62354   9.643   4.406  10.190 -0.2348 -0.5703  0.1350
  473MOL0     N62355   9.723   4.499  10.226 -1.2209  0.1542  0.2159
  473MOL0     C62356  10.367   4.348  10.679 -0.0454  1.2039 -0.3735
  473MOL0     C62357  10.469   4.280  10.615 -0.2043 -0.3352 -0.2132
  473MOL0     C62358  10.876   4.165  10.483 -0.0983 -0.3663 -0.3406
  473MOL0     C62359  10.915   4.178  10.349 -0.5016  0.2622  0.5366
  473MOL0     C62360  11.006   4.091  10.286  0.1768 -0.7520  0.1932
  473MOL0     C62361  11.073   3.999  10.372 -0.5283 -0.0434 -0.3896
  473MOL0     O62362  11.169   3.903  10.343  0.0238  0.2984  0.1808
  473MOL0     C62363  11.194   3.870  10.205  0.0386 -0.3207  0.5691
  473MOL0     C62364  11.086   3.780  10.140  1.1954 -0.0964  1.0071
  473MOL0     C62365  11.077   3.636  10.189  0.0568 -0.7191 -0.2621
  473MOL0     C62366  11.006   3.550  10.083 -0.4350 -0.3987 -0.0283
  473MOL0     C62367  10.967   3.425  10.145 -0.2316  0.5056 -0.1559
  473MOL0     C62368  10.912   3.318  10.179  0.5868  0.7167  0.3476
  473MOL0     C62369  11.037   3.990  10.507  0.3710 -0.6782  0.6019
  473MOL0     C62370  10.940   4.069  10.567  0.7592 -0.9181  0.4967
  473MOL0     H62371  10.705   4.283  10.863  0.2377 -1.4753 -0.3508
  473MOL0     H62372  10.506   4.384  10.988  1.6698 -5.2517  2.0486
  473MOL0     H62373  10.374   4.611  10.871 -0.2989  1.9775  2.1998
  473MOL0     H62374  10.311   4.588  11.029 -0.8950  1.6616  0.9162
  473MOL0     H62375  10.169   4.752  10.904  2.4301  0.9135 -1.9225
  473MOL0     H62376  10.066   4.601  10.900  1.4735 -1.8868  0.5683
  473MOL0     H62377  10.139   4.564  10.673 -1.4919  0.2600  1.0997
  473MOL0     H62378  10.237   4.712  10.675  1.6620 -3.1922  1.2375
  473MOL0     H62379   9.939   4.695  10.702  0.5786  0.1466 -0.4545
  473MOL0     H62380  10.018   4.839  10.735 -1.7823 -1.5806  1.9712
  473MOL0     H62381  10.099   4.875  10.537 -1.6166  1.4916 -0.7622
  473MOL0     H62382   9.922   4.831  10.495 -0.9946 -0.2134  0.1100
  473MOL0     H62383  10.138   4.630  10.465 -1.3350 -1.1755 -0.3771
  473MOL0     H62384  10.086   4.748  10.333  0.0689  1.8892  0.8625
  473MOL0     H62385   9.927   4.552  10.482 -2.0809 -0.1654  0.2103
  473MOL0     H62386   9.861   4.678  10.364  2.4129  2.6246 -0.8110
  473MOL0     H62387  10.048   4.454  10.297 -0.8929 -2.9284 -3.5682
  473MOL0     H62388  10.013   4.583  10.194  0.3144  0.7624  1.2881
  473MOL0     H62389   9.933   4.257  10.165  2.9025  4.4896 -0.2606
  473MOL0     H62390   9.556   4.219  10.026  0.6272  0.5467 -1.3161
  473MOL0     H62391   9.621   4.101  10.147 -0.0224  0.2064  0.2313
  473MOL0     H62392   9.803   4.046  10.001  0.8595  1.2895  0.6214
  473MOL0     H62393   9.765   4.180   9.896 -1.6993  1.7917  2.0079
  473MOL0     H62394   9.603   3.926   9.951  1.7832 -1.7111 -2.2173
  473MOL0     H62395   9.537   4.072   9.862  0.1703  0.8376 -1.1984
  473MOL0     H62396   9.801   3.943   9.812  0.0389  0.9472  1.3973
  473MOL0     H62397   9.723   4.051   9.688 -3.5749 -2.7413 -3.2822
  473MOL0     H62398   9.582   3.674   9.558 -0.6505  3.6810 -1.0853
  473MOL0     H62399   9.732   3.539   9.392  0.9463  0.1756 -0.8221
  473MOL0     H62400  10.082   3.576   9.064 -0.1885 -3.0066 -3.8528
  473MOL0     H62401  10.244   3.457   8.930 -0.5786  0.8616 -0.0397
  473MOL0     H62402  10.598   3.255   9.148  3.5574 -1.7395 -0.2520
  473MOL0     H62403  10.625   3.416   9.100  1.6067 -2.8524  5.9200
  473MOL0     H62404  10.673   3.303   8.863  0.7130  1.2096  0.8498
  473MOL0     H62405  10.647   3.143   8.954  3.2197 -0.1612 -2.4590
  473MOL0     H62406  10.833   3.171   9.111 -0.8259 -0.9942 -0.3064
  473MOL0     H62407  10.865   3.322   9.021  0.4432 -0.3380 -1.4439
  473MOL0     H62408  10.870   3.058   8.869 -1.4780  0.8329 -1.1576
  473MOL0     H62409  10.888   3.222   8.820 -1.7255  0.0958  0.4321
  473MOL0     H62410  11.046   3.093   9.048 -3.1323 -0.4800 -0.8725
  473MOL0     H62411  11.088   3.255   8.966  2.9249 -0.4065 -2.0397
  473MOL0     H62412  11.077   3.045   8.783  0.2868 -1.0745  1.0927
  473MOL0     H62413  11.191   3.010   8.911 -2.4834  0.2089  3.0146
  473MOL0     H62414  11.213   3.275   8.766  0.7681 -0.0982 -0.0185
  473MOL0     H62415  11.323   3.206   8.894  1.7329 -1.7435 -1.2812
  473MOL0     H62416  11.401   3.223   8.650 -0.4107  1.1682 -0.0053
  473MOL0     H62417  11.291   3.100   8.607  2.3055 -1.6746 -0.4212
  473MOL0     H62418  10.466   3.338   9.281 -0.9219 -1.0174  2.6733
  473MOL0     H62419  10.284   3.447   9.415 -4.0358 -0.7001  0.0925
  473MOL0     H62420  10.037   3.826   9.437  0.1449 -1.7191 -1.4855
  473MOL0     H62421   9.920   3.939   9.623  3.3205  2.4975 -4.7883
  473MOL0     H62422  10.281   4.398  10.636 -0.1151 -0.9453 -2.9893
  473MOL0     H62423  10.464   4.252  10.510 -0.0253  3.9150 -1.5636
  473MOL0     H62424  10.873   4.248  10.278 -2.4933 -0.3234  1.0796
  473MOL0     H62425  11.020   4.098  10.179  2.5957  1.5457  0.5645
  473MOL0     H62426  11.294   3.828  10.193  0.4372  0.7750 -0.1485
  473MOL0     H62427  11.209   3.955  10.138  0.2574 -1.2663 -0.6162
  473MOL0     H62428  10.990   3.832  10.149  1.5534  0.3865  2.2222
  473MOL0     H62429  11.121   3.780  10.036  1.4845 -2.7610  1.0505
  473MOL0     H62430  11.039   3.623  10.291  1.0453 -1.1109  0.0668
  473MOL0     H62431  11.181   3.608  10.204  0.7383  2.2802  1.3917
  473MOL0     H62432  10.921   3.610  10.048 -1.1681 -1.3428  0.1040
  473MOL0     H62433  11.060   3.537   9.989 -3.9685  4.8738 -3.3562
  473MOL0     H62434  10.878   3.216  10.178  1.7935  0.2987 -0.0022
  473MOL0     H62435  11.071   3.905  10.565  1.4039 -0.8332 -0.2041
  473MOL0     H62436  10.930   4.046  10.672  0.8522 -0.0800  0.6968
  474MOL0     O62437   1.731   9.181   7.208 -0.1889 -0.0245  0.0400
  474MOL0     C62438   1.747   9.242   7.096  0.5407  0.1155 -0.9585
  474MOL0     O62439   1.644   9.300   7.025 -0.1830 -0.0401  0.3017
  474MOL0     C62440   1.523   9.337   7.082 -0.2379  0.9536  0.1008
  474MOL0     C62441   1.433   9.376   6.980 -0.0877  0.8048  0.6862
  474MOL0     C62442   1.315   9.433   7.024  0.0257 -0.4066 -0.0922
  474MOL0     C62443   1.280   9.437   7.158  0.4318  0.3258 -0.4311
  474MOL0     O62444   1.162   9.506   7.185 -0.9888 -0.8394  0.4034
  474MOL0     C62445   1.073   9.452   7.280  0.8090  0.0444 -0.4999
  474MOL0     C62446   1.011   9.306   7.268 -0.3988 -0.4426  0.1363
  474MOL0     C62447   0.920   9.315   7.153  0.4649 -0.6177 -0.5686
  474MOL0     C62448   0.866   9.174   7.143 -0.9594 -0.2914 -0.1156
  474MOL0     C62449   0.728   9.181   7.087  0.6202 -0.4805  0.6680
  474MOL0     C62450   0.616   9.256   7.169  0.4312  0.5291 -0.0218
  474MOL0     C62451   0.480   9.196   7.186  0.9897  0.7690 -0.9542
  474MOL0     C62452   0.367   9.298   7.238 -1.3821 -0.3834 -0.4360
  474MOL0     N62453   0.340   9.415   7.144  0.0280  0.6676  0.5499
  474MOL0     C62454   0.264   9.403   7.034 -0.2981 -0.0384 -0.5289
  474MOL0     C62455   0.272   9.521   6.973  0.5399 -0.2285  0.5275
  474MOL0     C62456   0.183   9.539   6.851 -0.3575 -0.0833 -1.0488
  474MOL0     C62457   0.239   9.479   6.719 -0.6030 -0.5057 -0.0888
  474MOL0     C62458   0.158   9.534   6.598  0.4338 -0.0110 -0.3915
  474MOL0     C62459   0.059   9.423   6.550 -0.8662  0.8404 -0.0485
  474MOL0     O62460  -0.031   9.475   6.452  0.4416  0.5914 -0.7432
  474MOL0     C62461  -0.136   9.553   6.502  1.4687  0.9554  0.9419
  474MOL0     C62462  -0.215   9.592   6.390 -1.0212 -0.0391 -0.5400
  474MOL0     C62463  -0.326   9.672   6.409  1.3047 -0.0493 -0.6642
  474MOL0     C62464  -0.363   9.721   6.534  0.1733 -0.4654  0.6582
  474MOL0     C62465  -0.476   9.808   6.552  0.0388 -0.0883 -0.2672
  474MOL0     O62466  -0.512   9.893   6.450 -0.1485 -0.3787  0.5773
  474MOL0     C62467  -0.613   9.979   6.460 -0.8179  0.2065 -0.4347
  474MOL0     C62468  -0.620  10.061   6.570 -0.1763 -0.1189  0.5172
  474MOL0     C62469  -0.732  10.133   6.606 -0.2819 -1.0336  0.2429
  474MOL0     C62470  -0.850  10.118   6.528  0.1252 -0.0193  0.3878
  474MOL0     O62471  -0.968  10.170   6.577  0.7016 -0.4991 -0.3026
  474MOL0     C62472  -1.094  10.150   6.504 -0.0282 -0.6572  0.5044
  474MOL0     C62473  -1.218  10.220   6.582 -0.3187 -0.7637 -0.1343
  474MOL0     C62474  -1.335  10.254   6.490  0.5524 -0.1271 -0.5824
  474MOL0     C62475  -1.454  10.306   6.572 -0.6667 -0.6740 -0.1093
  474MOL0     C62476  -1.573  10.341   6.492 -0.0317  0.2155  0.4107
  474MOL0     C62477  -1.687  10.383   6.584 -0.0246 -0.0456  0.2573
  474MOL0     C62478  -1.782  10.481   6.508  1.1225  1.3777 -0.0329
  474MOL0     C62479  -1.890  10.523   6.598  1.1546  0.3191  0.2213
  474MOL0    Cl62480  -2.026  10.613   6.511  0.1000  0.2061  0.2596
  474MOL0     C62481  -0.835  10.053   6.399  0.0313  0.2759  0.4773
  474MOL0     C62482  -0.717   9.975   6.378 -0.5921  0.3465  0.7784
  474MOL0     O62483  -0.543   9.780   6.652  0.3607  0.0775 -0.4953
  474MOL0     C62484  -0.293   9.668   6.645  0.1967 -0.2105 -0.6079
  474MOL0     C62485  -0.183   9.583   6.626  0.9200  0.3285 -0.2176
  474MOL0     N62486   0.355   9.602   7.047 -0.3371 -0.4592  0.0706
  474MOL0     N62487   0.390   9.541   7.158  0.1498 -0.2624 -0.2147
  474MOL0     C62488   1.376   9.397   7.252 -0.0002 -0.5264 -1.2370
  474MOL0     C62489   1.497   9.344   7.212  0.3589  0.3449  0.0868
  474MOL0     C62490   1.869   9.247   7.024 -1.0163  0.4415 -0.2273
  474MOL0     C62491   1.992   9.224   7.087  0.5181  0.8374 -0.0565
  474MOL0     C62492   2.110   9.238   7.014 -0.8027  0.0799  0.5520
  474MOL0     C62493   2.107   9.266   6.869  0.7912 -0.6964 -0.6308
  474MOL0     O62494   2.209   9.244   6.782 -0.5532  0.2506  0.0215
  474MOL0     C62495   2.341   9.284   6.828 -0.2355  1.4066  0.8793
  474MOL0     C62496   2.438   9.310   6.711 -0.3929  0.8738  0.2567
  474MOL0     C62497   2.429   9.448   6.647 -0.1853  0.5551  0.0343
  474MOL0     C62498   2.291   9.476   6.603  0.9422  0.3006  0.6936
  474MOL0     C62499   2.304   9.591   6.514  0.7791 -0.3066 -1.2193
  474MOL0     C62500   2.335   9.695   6.453 -0.0451 -0.4842 -0.1925
  474MOL0     C62501   1.985   9.286   6.813 -0.3457  0.8372 -0.7992
  474MOL0     C62502   1.873   9.268   6.885  1.1106 -0.0688  0.2033
  474MOL0     H62503   1.449   9.368   6.873  2.9530  1.3493  1.0061
  474MOL0     H62504   1.233   9.473   6.965  0.0358 -0.0072  0.1652
  474MOL0     H62505   0.982   9.513   7.277 -0.7358 -2.1737 -1.1442
  474MOL0     H62506   1.108   9.463   7.383 -0.0229 -0.4729 -0.1474
  474MOL0     H62507   0.954   9.295   7.361 -1.7776 -0.4482 -0.6794
  474MOL0     H62508   1.088   9.229   7.257  1.6659  1.4730  0.4181
  474MOL0     H62509   0.971   9.345   7.060  0.8277  0.2408 -0.1041
  474MOL0     H62510   0.845   9.394   7.163  1.6513  0.7812 -2.0581
  474MOL0     H62511   0.923   9.109   7.077  1.2476  0.4364  0.9908
  474MOL0     H62512   0.867   9.126   7.241  1.6171 -1.5537 -0.6786
  474MOL0     H62513   0.689   9.085   7.049  2.0672  0.3742 -3.5158
  474MOL0     H62514   0.738   9.245   6.999  0.1481 -0.5262  0.5770
  474MOL0     H62515   0.612   9.353   7.119 -0.6990 -0.0832 -1.1545
  474MOL0     H62516   0.647   9.276   7.272 -1.8406  3.9513  0.1750
  474MOL0     H62517   0.453   9.168   7.084  4.3795 -2.0850 -1.2674
  474MOL0     H62518   0.483   9.104   7.244 -1.7208 -0.3946 -2.4618
  474MOL0     H62519   0.406   9.343   7.329 -2.9539 -0.3636  0.2556
  474MOL0     H62520   0.277   9.240   7.259 -0.4584 -2.2961 -1.4878
  474MOL0     H62521   0.221   9.310   6.997  0.7755 -0.5628 -0.5001
  474MOL0     H62522   0.163   9.645   6.834  0.7662 -0.0579 -2.3927
  474MOL0     H62523   0.085   9.497   6.875 -2.1462  2.6117 -2.9600
  474MOL0     H62524   0.228   9.372   6.737  1.0142 -0.3792  2.0577
  474MOL0     H62525   0.343   9.510   6.708 -0.7841  2.0524  3.5881
  474MOL0     H62526   0.103   9.622   6.632 -0.7269 -1.2589  1.0357
  474MOL0     H62527   0.217   9.560   6.509 -1.3040  2.1157 -1.0306
  474MOL0     H62528   0.006   9.372   6.631  1.8965 -2.6678 -0.2207
  474MOL0     H62529   0.110   9.347   6.490 -2.9770 -0.2529 -0.5559
  474MOL0     H62530  -0.182   9.552   6.294  1.4409 -4.5357  1.8314
  474MOL0     H62531  -0.394   9.689   6.326  0.2861 -0.9064 -0.0304
  474MOL0     H62532  -0.531  10.060   6.632 -0.4423 -1.0414  0.8916
  474MOL0     H62533  -0.734  10.185   6.701 -2.1289  1.4761 -1.0567
  474MOL0     H62534  -1.116  10.045   6.480  1.1252 -1.2193  1.7079
  474MOL0     H62535  -1.078  10.196   6.406 -0.6724 -1.4608  0.0035
  474MOL0     H62536  -1.185  10.314   6.627  0.6920 -0.7708 -0.8129
  474MOL0     H62537  -1.236  10.155   6.668  0.4961  1.5342  1.8789
  474MOL0     H62538  -1.357  10.159   6.440 -1.4056  0.0353 -0.1168
  474MOL0     H62539  -1.300  10.327   6.416  4.1591 -0.4143  0.6597
  474MOL0     H62540  -1.487  10.237   6.650  0.6680 -1.6068 -0.3317
  474MOL0     H62541  -1.415  10.398   6.618  3.4416 -2.1824 -0.1304
  474MOL0     H62542  -1.605  10.264   6.421 -2.8838  0.4243  1.3514
  474MOL0     H62543  -1.540  10.417   6.420  1.6385 -1.6367 -0.8822
  474MOL0     H62544  -1.653  10.436   6.673 -1.0761  1.1924 -0.0606
  474MOL0     H62545  -1.743  10.292   6.609 -0.6872 -0.5772 -2.7533
  474MOL0     H62546  -1.728  10.571   6.477  0.2911  2.6302  1.9880
  474MOL0     H62547  -1.816  10.420   6.424 -0.1834 -1.4846  2.4047
  474MOL0     H62548  -1.842  10.585   6.675  0.5957 -0.3740  1.1507
  474MOL0     H62549  -1.941  10.440   6.647  0.2461  0.4246 -0.5191
  474MOL0     H62550  -0.911  10.080   6.326  2.1720  1.2377 -1.5420
  474MOL0     H62551  -0.709   9.921   6.284 -1.2460  0.1127  0.8505
  474MOL0     H62552  -0.325   9.683   6.748 -0.7834  0.3529 -0.9887
  474MOL0     H62553  -0.134   9.543   6.714  0.5504 -3.1652 -1.4460
  474MOL0     H62554   1.356   9.402   7.359  0.2728 -0.4415 -1.1884
  474MOL0     H62555   1.571   9.319   7.289  0.8193  0.4222 -0.3279
  474MOL0     H62556   1.995   9.214   7.195  2.6188  0.1842 -0.1382
  474MOL0     H62557   2.200   9.230   7.074 -0.0484 -3.9180 -0.7839
  474MOL0     H62558   2.378   9.191   6.873 -0.6978  1.2740  0.9971
  474MOL0     H62559   2.361   9.368   6.895 -0.5426  2.6625 -0.5666
  474MOL0     H62560   2.540   9.287   6.745 -0.6572 -4.7793 -1.7372
  474MOL0     H62561   2.421   9.230   6.639  3.8368  0.3860 -0.4443
  474MOL0     H62562   2.505   9.453   6.570  1.2038  0.8938  1.3746
  474MOL0     H62563   2.470   9.522   6.717 -2.8427  1.8169  0.4214
  474MOL0     H62564   2.241   9.398   6.545 -0.0705  0.3917  1.4169
  474MOL0     H62565   2.224   9.507   6.683  0.3342  2.6701 -0.6275
  474MOL0     H62566   2.382   9.782   6.412  1.9341 -1.5481 -0.3371
  474MOL0     H62567   1.982   9.313   6.708 -2.9419  1.6068 -0.5899
  474MOL0     H62568   1.785   9.283   6.824  2.4940  2.4952 -1.3383
  475MOL0     O62569  10.797   6.241   8.380  0.2928 -1.2025  0.1019
  475MOL0     C62570  10.841   6.136   8.424 -0.3147 -0.4001  0.1935
  475MOL0     O62571  10.766   6.018   8.448 -0.8286  0.7519  0.0278
  475MOL0     C62572  10.636   6.013   8.405  0.0716  0.1152 -0.3807
  475MOL0     C62573  10.549   6.110   8.438 -0.7529 -0.3303  0.1100
  475MOL0     C62574  10.416   6.101   8.408  0.6480 -0.5516 -0.4977
  475MOL0     C62575  10.366   6.003   8.321 -0.5177  1.3607  0.0150
  475MOL0     O62576  10.231   6.012   8.309 -0.6908 -0.1620 -0.4125
  475MOL0     C62577  10.161   5.910   8.230  0.2386  0.3562 -0.9496
  475MOL0     C62578  10.136   5.946   8.088  0.1855  0.9504 -0.1187
  475MOL0     C62579  10.266   5.949   8.001 -0.0242  0.9237  0.3883
  475MOL0     C62580  10.237   5.986   7.851 -1.1221  0.6026  0.3472
  475MOL0     C62581  10.366   5.954   7.771 -0.3143 -0.1771 -0.7687
  475MOL0     C62582  10.451   6.077   7.749 -0.3243 -0.9677 -0.4759
  475MOL0     C62583  10.567   6.058   7.648 -0.3557 -0.4403  0.2643
  475MOL0     C62584  10.680   6.165   7.653 -1.4645 -0.4037  0.1004
  475MOL0     N62585  10.639   6.283   7.580 -0.2256 -0.3094  0.1790
  475MOL0     C62586  10.574   6.402   7.618 -0.9249 -0.5515 -0.0121
  475MOL0     C62587  10.561   6.482   7.508  0.1070 -1.2063  0.5985
  475MOL0     C62588  10.479   6.611   7.504  0.4265  0.0091  0.3318
  475MOL0     C62589  10.525   6.726   7.590 -0.1773  0.0630  0.4002
  475MOL0     C62590  10.410   6.811   7.640  0.8502  0.8179  0.8408
  475MOL0     C62591  10.441   6.891   7.755 -0.0896 -0.1640  0.0412
  475MOL0     O62592  10.331   6.944   7.823  0.1737  1.1939 -0.3981
  475MOL0     C62593  10.364   6.971   7.952  0.1411  0.2711 -1.2183
  475MOL0     C62594  10.470   7.051   7.982 -0.3201  0.2166  0.0443
  475MOL0     C62595  10.495   7.091   8.113  0.8167  0.2775  0.3248
  475MOL0     C62596  10.420   7.041   8.221  0.2012  0.0071  1.3777
  475MOL0     C62597  10.453   7.082   8.356  0.1498 -0.5886 -0.5234
  475MOL0     O62598  10.343   7.107   8.441  0.5748 -0.5513 -0.0676
  475MOL0     C62599  10.365   7.143   8.573  0.0601  0.1801 -0.0623
  475MOL0     C62600  10.465   7.220   8.625 -0.2125  0.6776 -0.7721
  475MOL0     C62601  10.482   7.242   8.764  0.1302  0.6230 -0.0425
  475MOL0     C62602  10.388   7.182   8.857 -0.2452 -0.9219  0.1386
  475MOL0     O62603  10.396   7.219   8.991  0.1353  0.2918  0.8990
  475MOL0     C62604  10.525   7.248   9.060 -0.3486 -0.3995  0.6944
  475MOL0     C62605  10.617   7.125   9.093  0.0828 -0.1345  0.0962
  475MOL0     C62606  10.534   7.003   9.141  0.6787 -0.2030 -0.5415
  475MOL0     C62607  10.495   7.004   9.286  0.2008 -0.5403 -0.8278
  475MOL0     C62608  10.434   6.866   9.319 -0.0325 -0.8970  0.5151
  475MOL0     C62609  10.440   6.833   9.473 -0.2471  0.2984  1.3475
  475MOL0     C62610  10.445   6.674   9.477  0.0415 -0.8479 -0.2265
  475MOL0     C62611  10.466   6.633   9.630  0.9583 -0.1185  0.2761
  475MOL0    Cl62612  10.491   6.456   9.648 -0.1298  0.3694 -0.2415
  475MOL0     C62613  10.299   7.088   8.811  0.5032 -0.4319  0.1207
  475MOL0     C62614  10.281   7.074   8.666  1.5136  0.3827  0.1145
  475MOL0     O62615  10.569   7.094   8.382  0.1421 -0.5197 -0.2022
  475MOL0     C62616  10.306   6.958   8.192 -0.3069 -0.0255 -0.1625
  475MOL0     C62617  10.283   6.923   8.058  0.3792 -0.2391 -0.0045
  475MOL0     N62618  10.620   6.417   7.397  0.8830 -0.7238 -0.1365
  475MOL0     N62619  10.649   6.293   7.437 -0.3024 -0.0092 -0.2993
  475MOL0     C62620  10.461   5.905   8.274 -0.6852 -1.1607 -0.5354
  475MOL0     C62621  10.595   5.909   8.320  0.4948  0.7302  0.5599
  475MOL0     C62622  10.991   6.137   8.469  0.6661  0.3462 -0.5673
  475MOL0     C62623  11.074   6.225   8.396 -0.9609  0.8335 -0.8525
  475MOL0     C62624  11.214   6.219   8.407 -0.0600  0.1217  0.6972
  475MOL0     C62625  11.269   6.132   8.502  0.0924  0.3541  0.9073
  475MOL0     O62626  11.404   6.135   8.527  0.1908  0.0151 -0.2965
  475MOL0     C62627  11.466   6.036   8.618  0.1399 -0.9414  0.2038
  475MOL0     C62628  11.615   6.064   8.618  0.6917  0.5928 -1.2912
  475MOL0     C62629  11.690   5.956   8.700 -0.2266  0.0654 -0.8478
  475MOL0     C62630  11.843   5.967   8.718 -0.0007  0.0014  0.0941
  475MOL0     C62631  11.917   5.923   8.593  1.0318  0.1499  0.4945
  475MOL0     C62632  11.960   5.875   8.495 -0.0294 -0.3119  0.5043
  475MOL0     C62633  11.180   6.048   8.569 -0.0307  2.0854  0.7605
  475MOL0     C62634  11.043   6.045   8.548  0.0405  1.2574  0.9916
  475MOL0     H62635  10.596   6.183   8.503  1.5393  0.2464 -2.0636
  475MOL0     H62636  10.346   6.169   8.454  2.2875  1.0378 -0.2313
  475MOL0     H62637  10.073   5.887   8.291  0.3653  0.1690 -0.8354
  475MOL0     H62638  10.209   5.812   8.232  1.0473  0.7552 -0.1211
  475MOL0     H62639  10.066   6.028   8.075 -0.6561 -0.1611 -3.7776
  475MOL0     H62640  10.072   5.860   8.069  0.3852 -0.4750  4.3976
  475MOL0     H62641  10.314   5.852   8.019  0.1518  0.4807 -2.0169
  475MOL0     H62642  10.338   6.018   8.044  1.0858 -1.1870  2.0564
  475MOL0     H62643  10.157   5.918   7.822 -0.3925  0.7302 -2.1690
  475MOL0     H62644  10.198   6.088   7.847  1.3832  1.6418  0.5655
  475MOL0     H62645  10.341   5.920   7.670 -0.4878 -1.1946 -0.3895
  475MOL0     H62646  10.429   5.877   7.815  2.1741  1.9942 -0.2941
  475MOL0     H62647  10.488   6.102   7.849 -0.1810 -0.7696 -0.5777
  475MOL0     H62648  10.385   6.158   7.716  0.8551 -1.2556 -3.9352
  475MOL0     H62649  10.625   5.970   7.680 -0.8523 -0.3990  1.3270
  475MOL0     H62650  10.525   6.043   7.549  0.4538 -0.3054 -0.1065
  475MOL0     H62651  10.774   6.125   7.614  0.4490  0.2218  3.6227
  475MOL0     H62652  10.707   6.193   7.755 -0.9239 -2.8736  0.6929
  475MOL0     H62653  10.535   6.442   7.711 -1.5467  1.4555 -1.0786
  475MOL0     H62654  10.376   6.581   7.525  0.2055  0.2898 -0.3227
  475MOL0     H62655  10.469   6.655   7.404 -0.9458 -0.7266  0.1206
  475MOL0     H62656  10.593   6.797   7.542 -0.1561 -0.9875 -1.2387
  475MOL0     H62657  10.582   6.683   7.672  2.4748  3.8484  0.7708
  475MOL0     H62658  10.399   6.881   7.556  5.1906 -0.6844 -1.2833
  475MOL0     H62659  10.320   6.750   7.650  0.0714  1.7371 -0.2413
  475MOL0     H62660  10.503   6.972   7.717 -0.8843  0.6431  0.4328
  475MOL0     H62661  10.507   6.840   7.826  0.2428 -0.4303 -0.4523
  475MOL0     H62662  10.535   7.093   7.906  0.7151 -0.0949  0.7480
  475MOL0     H62663  10.565   7.173   8.123 -0.8955  1.9610 -0.7708
  475MOL0     H62664  10.538   7.270   8.563  1.3766 -2.5049 -1.6592
  475MOL0     H62665  10.560   7.304   8.807 -0.5936 -0.9023  3.8981
  475MOL0     H62666  10.506   7.310   9.148  2.0605 -0.3838  1.2598
  475MOL0     H62667  10.579   7.316   8.994 -2.6523  1.5651  0.6903
  475MOL0     H62668  10.694   7.154   9.164 -0.5693  2.9010 -0.2782
  475MOL0     H62669  10.654   7.078   9.001  0.7498 -0.4570  0.5260
  475MOL0     H62670  10.587   6.908   9.126 -0.9048 -1.5447  1.8616
  475MOL0     H62671  10.443   6.991   9.082 -0.1645  1.6962  0.2965
  475MOL0     H62672  10.582   6.995   9.353 -0.7694 -1.0609  0.4017
  475MOL0     H62673  10.424   7.082   9.311 -1.7962 -2.1535 -1.2376
  475MOL0     H62674  10.477   6.788   9.256  2.7098 -0.7539  2.0731
  475MOL0     H62675  10.328   6.870   9.291  0.5708 -3.5297 -2.7042
  475MOL0     H62676  10.352   6.877   9.520 -0.5766 -0.3875  1.3812
  475MOL0     H62677  10.526   6.886   9.515  1.3115 -0.4936 -0.6493
  475MOL0     H62678  10.348   6.636   9.441 -1.2532  2.7587 -0.9623
  475MOL0     H62679  10.527   6.627   9.422  1.7081 -0.5967  1.9042
  475MOL0     H62680  10.378   6.655   9.692  0.5939  1.2288 -0.6689
  475MOL0     H62681  10.549   6.689   9.675 -1.3517  3.9797 -0.1065
  475MOL0     H62682  10.239   7.030   8.880  0.2616 -0.1184  0.1747
  475MOL0     H62683  10.211   7.000   8.629  0.6492 -0.7910  3.7639
  475MOL0     H62684  10.240   6.914   8.266 -0.0595  1.4595  1.0009
  475MOL0     H62685  10.191   6.871   8.036  2.2906 -3.1841 -1.8166
  475MOL0     H62686  10.429   5.826   8.207 -0.9911 -1.1940 -0.3504
  475MOL0     H62687  10.668   5.839   8.280  1.1831 -0.1649  3.1745
  475MOL0     H62688  11.033   6.288   8.318  1.9772  0.4351 -2.8888
  475MOL0     H62689  11.268   6.294   8.351 -2.3963 -0.2546 -2.3170
  475MOL0     H62690  11.449   5.934   8.584 -0.9679 -0.8756  0.4955
  475MOL0     H62691  11.426   6.052   8.719  0.6594 -1.7583  0.5476
  475MOL0     H62692  11.662   6.060   8.519  2.4256 -0.6625 -0.4672
  475MOL0     H62693  11.615   6.164   8.662 -3.3988  0.5442 -0.7534
  475MOL0     H62694  11.654   5.861   8.661 -1.0056  0.6039 -1.4904
  475MOL0     H62695  11.659   5.942   8.804  4.5547 -6.7107  0.3453
  475MOL0     H62696  11.870   6.072   8.736  0.9164 -0.1749 -0.1766
  475MOL0     H62697  11.872   5.900   8.800  1.5497  2.3697  1.6159
  475MOL0     H62698  12.001   5.833   8.406 -0.7462 -2.3113  1.0504
  475MOL0     H62699  11.216   5.968   8.632 -0.2389  0.0887 -1.5243
  475MOL0     H62700  10.975   5.980   8.602  1.5952 -1.2019  0.1681
  476MOL0     O62701   2.732   0.829   5.860  0.5863 -0.8833 -0.4434
  476MOL0     C62702   2.728   0.843   5.734  0.3894 -0.4476 -0.4798
  476MOL0     O62703   2.618   0.814   5.657  0.0556 -0.1607 -0.0209
  476MOL0     C62704   2.505   0.749   5.712 -0.4135 -0.2699 -1.0855
  476MOL0     C62705   2.378   0.807   5.695  0.3726  0.1204  0.3114
  476MOL0     C62706   2.270   0.757   5.764  1.0002  0.7089  0.0594
  476MOL0     C62707   2.271   0.640   5.839  0.0957  0.2193  0.0504
  476MOL0     O62708   2.150   0.590   5.887  0.5527 -0.9179 -0.5408
  476MOL0     C62709   2.151   0.457   5.933 -0.3626  0.3116  0.1080
  476MOL0     C62710   2.012   0.394   5.952 -0.2470  0.5715 -0.5537
  476MOL0     C62711   1.937   0.391   5.827 -0.2959  0.0892  0.3192
  476MOL0     C62712   1.785   0.355   5.832 -0.0600  0.3286 -0.1930
  476MOL0     C62713   1.718   0.416   5.705 -0.4229 -0.2687  0.6352
  476MOL0     C62714   1.568   0.437   5.723  0.5418  1.1025  0.3612
  476MOL0     C62715   1.495   0.493   5.597 -0.0393  0.4175 -0.8657
  476MOL0     C62716   1.345   0.484   5.613 -0.1068 -0.6206 -0.3926
  476MOL0     N62717   1.291   0.348   5.631  0.4234  0.2483 -0.7799
  476MOL0     C62718   1.323   0.233   5.564  0.3930 -0.6885  0.5614
  476MOL0     C62719   1.286   0.135   5.654  0.0913  0.1790  0.1071
  476MOL0     C62720   1.346   0.001   5.650  0.5106 -0.3726 -0.5248
  476MOL0     C62721   1.453  -0.015   5.756 -0.1494 -0.1421  0.5260
  476MOL0     C62722   1.520  -0.159   5.734  0.1527  0.2254 -0.7448
  476MOL0     C62723   1.645  -0.176   5.820 -1.0694  0.0081  0.2028
  476MOL0     O62724   1.761  -0.115   5.756 -0.1845 -0.0637 -0.0935
  476MOL0     C62725   1.876  -0.082   5.827  0.8848 -0.2768  0.3980
  476MOL0     C62726   1.892  -0.138   5.955 -1.1571  0.0251 -0.1716
  476MOL0     C62727   2.005  -0.090   6.032  0.1844 -0.5903 -0.1050
  476MOL0     C62728   2.107  -0.010   5.974 -0.0108 -0.3120 -0.3276
  476MOL0     C62729   2.229   0.023   6.050 -0.7483  0.1455 -0.0589
  476MOL0     O62730   2.332   0.086   5.987  0.4362 -0.1094  0.8229
  476MOL0     C62731   2.429   0.132   6.069 -1.2114 -0.0915 -1.1988
  476MOL0     C62732   2.556   0.064   6.069  0.4702 -0.2013  0.8941
  476MOL0     C62733   2.671   0.118   6.121 -0.4120  0.7368 -0.7273
  476MOL0     C62734   2.658   0.218   6.213  0.4297  0.2370 -0.4413
  476MOL0     O62735   2.765   0.264   6.281  0.9619 -0.0537 -0.2215
  476MOL0     C62736   2.815   0.177   6.387 -1.1248 -1.1544  0.1798
  476MOL0     C62737   2.904   0.253   6.483 -0.4151 -0.3138  0.5780
  476MOL0     C62738   2.911   0.180   6.621  1.4010  0.4306 -0.8455
  476MOL0     C62739   3.041   0.205   6.694  0.6323 -0.8419  0.5297
  476MOL0     C62740   3.045   0.149   6.836 -0.6256 -0.4320 -0.1313
  476MOL0     C62741   3.151   0.219   6.920  0.1602 -0.6619  0.5604
  476MOL0     C62742   3.302   0.181   6.895  0.4643  0.5423 -0.4329
  476MOL0     C62743   3.392   0.255   6.995 -0.0206  0.4114 -0.7180
  476MOL0    Cl62744   3.556   0.187   7.001  0.0561 -0.4867 -0.2010
  476MOL0     C62745   2.537   0.283   6.220  0.0297  0.3216 -1.7723
  476MOL0     C62746   2.418   0.244   6.147 -0.1169 -0.0905  0.5838
  476MOL0     O62747   2.234  -0.015   6.170 -0.1342  0.4973  1.0023
  476MOL0     C62748   2.084   0.040   5.845  0.6965  0.2818 -0.4056
  476MOL0     C62749   1.970   0.009   5.775 -0.0469  0.1369  0.0829
  476MOL0     N62750   1.204   0.187   5.747  0.3189  0.5729 -0.0571
  476MOL0     N62751   1.197   0.313   5.732  0.3887 -1.1377  0.1612
  476MOL0     C62752   2.392   0.575   5.840 -0.9132 -0.3179 -0.3689
  476MOL0     C62753   2.510   0.633   5.779 -0.4147 -0.3014  0.1575
  476MOL0     C62754   2.850   0.873   5.661  0.8912  0.0708  0.1771
  476MOL0     C62755   2.849   0.940   5.531  0.5897 -0.5982 -1.0701
  476MOL0     C62756   2.969   0.981   5.477 -0.8179 -0.3330 -0.1497
  476MOL0     C62757   3.090   0.944   5.530  0.4288  0.1138  0.2622
  476MOL0     O62758   3.199   0.963   5.454 -0.3810 -0.4350  0.2728
  476MOL0     C62759   3.311   1.046   5.495  0.3181  0.1049  0.0045
  476MOL0     C62760   3.429   1.008   5.410 -0.1806 -0.1614  0.5990
  476MOL0     C62761   3.472   0.868   5.446  0.5067  0.2251 -0.9425
  476MOL0     C62762   3.621   0.866   5.491  0.1476  0.1054  0.7461
  476MOL0     C62763   3.643   0.935   5.627  0.5706  0.8515 -0.1918
  476MOL0     C62764   3.641   0.992   5.735  0.8452  0.2603  0.4981
  476MOL0     C62765   3.092   0.863   5.639  0.6161  0.0580  0.1973
  476MOL0     C62766   2.973   0.830   5.710 -0.5236 -0.2927  0.4553
  476MOL0     H62767   2.379   0.903   5.645 -0.9626  0.5155  0.9853
  476MOL0     H62768   2.179   0.815   5.775 -0.6414 -1.9586  1.6277
  476MOL0     H62769   2.212   0.454   6.024 -2.1698 -0.7268  1.3592
  476MOL0     H62770   2.210   0.387   5.873  0.6609  1.3594 -0.1464
  476MOL0     H62771   1.956   0.468   6.010  1.3551  1.3229  0.0917
  476MOL0     H62772   2.020   0.300   6.006  1.2751  1.6674  1.2509
  476MOL0     H62773   1.975   0.317   5.756 -0.6941 -0.6305  0.8382
  476MOL0     H62774   1.945   0.484   5.771  3.5931 -1.3733 -1.9296
  476MOL0     H62775   1.767   0.247   5.825  2.7132 -0.2628  0.6375
  476MOL0     H62776   1.724   0.394   5.914 -1.3559 -0.4085 -0.7615
  476MOL0     H62777   1.739   0.360   5.614 -3.3961 -1.3558  0.5296
  476MOL0     H62778   1.756   0.518   5.687 -1.2797  0.1032  0.8884
  476MOL0     H62779   1.560   0.506   5.807 -0.4302 -2.4188  3.3934
  476MOL0     H62780   1.517   0.347   5.755  1.9904  0.1273  0.0557
  476MOL0     H62781   1.532   0.594   5.575 -0.6774  0.4586 -1.7878
  476MOL0     H62782   1.531   0.433   5.513  5.1262  1.1027  0.4796
  476MOL0     H62783   1.298   0.527   5.524 -0.0050 -0.5260 -0.4004
  476MOL0     H62784   1.312   0.546   5.696  4.5306 -0.3353  1.5496
  476MOL0     H62785   1.385   0.234   5.476 -0.7177  1.6536 -0.2772
  476MOL0     H62786   1.399  -0.018   5.556  0.6864  0.2614 -0.5548
  476MOL0     H62787   1.276  -0.082   5.663  2.1594 -1.4521  2.9404
  476MOL0     H62788   1.403  -0.023   5.853  0.6883  2.9423  1.3508
  476MOL0     H62789   1.520   0.072   5.758 -2.8665  2.0761  0.8258
  476MOL0     H62790   1.453  -0.241   5.761  3.0210 -1.9650  0.3726
  476MOL0     H62791   1.543  -0.157   5.627 -1.1596  2.2302 -1.0491
  476MOL0     H62792   1.678  -0.280   5.835  3.3029  1.2673  0.7467
  476MOL0     H62793   1.623  -0.135   5.919  0.1659 -1.1914  1.0037
  476MOL0     H62794   1.829  -0.215   5.998 -0.0170  0.2583  2.0763
  476MOL0     H62795   2.025  -0.133   6.130  1.0980 -4.2090 -1.7125
  476MOL0     H62796   2.555  -0.024   6.007 -3.1446  1.5813 -1.9270
  476MOL0     H62797   2.768   0.071   6.109  0.0294  1.1741  0.8503
  476MOL0     H62798   2.886   0.102   6.352 -1.9893 -0.9900 -2.0955
  476MOL0     H62799   2.733   0.135   6.446 -1.7584  2.2070  1.9892
  476MOL0     H62800   2.878   0.354   6.515  1.0800  0.9528 -1.9167
  476MOL0     H62801   3.007   0.266   6.447 -0.5186  2.2558  1.0093
  476MOL0     H62802   2.890   0.073   6.612  1.9147  0.1083  1.1987
  476MOL0     H62803   2.835   0.219   6.690 -0.4679 -3.0355 -0.7105
  476MOL0     H62804   3.125   0.175   6.629  1.0367  2.0154 -0.4139
  476MOL0     H62805   3.041   0.314   6.699 -2.1132 -0.7345 -0.2962
  476MOL0     H62806   3.061   0.041   6.832 -0.1511 -0.5520  3.0284
  476MOL0     H62807   2.949   0.177   6.879 -0.5290  0.7185 -0.6168
  476MOL0     H62808   3.122   0.185   7.020 -3.2566  0.5090  0.1027
  476MOL0     H62809   3.147   0.328   6.921 -1.0059 -0.6724 -0.6763
  476MOL0     H62810   3.316   0.073   6.908 -1.6982  0.4287  1.8765
  476MOL0     H62811   3.338   0.206   6.795 -2.4413 -0.1385 -1.7551
  476MOL0     H62812   3.357   0.245   7.098  2.1673 -2.6697 -0.1518
  476MOL0     H62813   3.389   0.361   6.965  0.9570  0.1641 -1.7513
  476MOL0     H62814   2.527   0.372   6.280  0.8759 -0.9969  0.4685
  476MOL0     H62815   2.331   0.308   6.147  0.0697  0.1672  0.4831
  476MOL0     H62816   2.161   0.108   5.809  4.3946 -2.9022  0.8866
  476MOL0     H62817   1.933   0.049   5.681  1.9929 -0.1706 -0.9000
  476MOL0     H62818   2.390   0.485   5.901  0.4190  0.4358  0.8338
  476MOL0     H62819   2.606   0.581   5.779 -1.3698 -2.1517 -0.9499
  476MOL0     H62820   2.755   0.958   5.481 -2.6664 -0.5090  4.2814
  476MOL0     H62821   2.965   1.029   5.380  0.4661 -1.3863 -0.7537
  476MOL0     H62822   3.330   1.036   5.603 -0.0026 -0.3244  0.0276
  476MOL0     H62823   3.291   1.151   5.476  1.7571  0.6235  1.1533
  476MOL0     H62824   3.415   1.006   5.302 -1.6755 -2.3315  0.7592
  476MOL0     H62825   3.512   1.077   5.427 -1.2008  1.8008 -1.7701
  476MOL0     H62826   3.463   0.798   5.362 -0.4397 -0.9144  0.0831
  476MOL0     H62827   3.408   0.821   5.521 -1.5754 -2.6818 -4.2153
  476MOL0     H62828   3.652   0.761   5.502  0.0944 -0.0562 -0.4606
  476MOL0     H62829   3.691   0.912   5.421  0.3539 -1.8325 -0.3876
  476MOL0     H62830   3.638   1.061   5.816  2.2600  0.3703  0.4878
  476MOL0     H62831   3.176   0.799   5.665 -0.6482 -1.0633  1.7401
  476MOL0     H62832   2.986   0.779   5.805  1.2709  1.7533  1.3762
  477MOL0     O62833   4.928   5.194   8.052  0.9161  0.1864  0.0326
  477MOL0     C62834   4.855   5.098   8.025 -0.4602 -0.2281  0.5310
  477MOL0     O62835   4.723   5.112   8.006  0.1719  0.0207  0.2741
  477MOL0     C62836   4.652   5.222   7.965 -0.0004 -0.6305  0.0267
  477MOL0     C62837   4.511   5.211   7.974 -0.1154 -0.9999 -0.0220
  477MOL0     C62838   4.429   5.321   7.939  0.0229  0.4714 -0.3978
  477MOL0     C62839   4.485   5.438   7.894  0.1277 -0.2820 -0.0631
  477MOL0     O62840   4.407   5.545   7.871 -0.0517  0.1228  0.5712
  477MOL0     C62841   4.358   5.612   7.990 -1.0900  0.2393  0.7109
  477MOL0     C62842   4.195   5.630   7.983 -1.2890  0.0209  0.5243
  477MOL0     C62843   4.138   5.701   8.109 -0.0045  0.4352  0.4809
  477MOL0     C62844   4.189   5.839   8.140 -0.1144  0.0022 -0.0262
  477MOL0     C62845   4.173   5.932   8.018  0.5650  0.2549 -0.2302
  477MOL0     C62846   4.145   6.083   8.061 -0.3366 -0.5430 -0.2052
  477MOL0     C62847   4.258   6.155   8.143  0.5659  0.4417  0.6327
  477MOL0     C62848   4.259   6.299   8.112  0.7572 -0.6837 -0.6290
  477MOL0     N62849   4.356   6.361   8.209  0.6244 -0.2893  0.4708
  477MOL0     C62850   4.495   6.374   8.195 -0.1270  0.0307  0.1678
  477MOL0     C62851   4.533   6.464   8.280 -0.5133 -0.1667 -0.3699
  477MOL0     C62852   4.671   6.525   8.300  0.3445  0.6039 -0.1304
  477MOL0     C62853   4.755   6.477   8.421  0.0366 -0.1389 -0.3056
  477MOL0     C62854   4.769   6.324   8.459  0.0259  0.1101  0.3826
  477MOL0     C62855   4.884   6.247   8.400 -0.3438  0.1660 -0.0670
  477MOL0     O62856   4.893   6.115   8.448  0.1612  0.0620 -0.8526
  477MOL0     C62857   4.979   6.026   8.387  0.3514 -0.1749 -0.3999
  477MOL0     C62858   5.073   6.054   8.290 -0.1794 -0.7262 -0.3952
  477MOL0     C62859   5.176   5.966   8.253  0.1731  0.6259 -0.0742
  477MOL0     C62860   5.175   5.833   8.308  0.4863 -0.4250  0.8342
  477MOL0     C62861   5.282   5.746   8.274 -0.1279 -0.0565 -0.8462
  477MOL0     O62862   5.283   5.609   8.318  0.0022 -0.4522 -0.0317
  477MOL0     C62863   5.401   5.540   8.339  0.6604  1.2970  0.3547
  477MOL0     C62864   5.452   5.463   8.231 -0.7594  0.5128  0.4507
  477MOL0     C62865   5.568   5.384   8.252 -0.2399  0.1069 -0.2711
  477MOL0     C62866   5.632   5.387   8.374 -0.9340  0.0308 -0.6439
  477MOL0     O62867   5.739   5.312   8.402 -0.3250 -0.1663 -0.4287
  477MOL0     C62868   5.840   5.327   8.301  0.0106  0.0521 -0.1870
  477MOL0     C62869   5.885   5.182   8.266  0.3670  0.0651 -0.4811
  477MOL0     C62870   5.949   5.119   8.389  0.4519 -0.4720 -0.0017
  477MOL0     C62871   5.959   4.969   8.380  0.2086  1.0144 -0.1090
  477MOL0     C62872   6.054   4.921   8.491 -0.4735 -0.2538 -0.3680
  477MOL0     C62873   6.206   4.962   8.470 -0.2842  0.3005 -0.6029
  477MOL0     C62874   6.297   4.891   8.580  0.5502  0.2498  0.0438
  477MOL0     C62875   6.443   4.943   8.565  0.3446 -0.3073 -0.2282
  477MOL0    Cl62876   6.511   4.925   8.730 -0.3817 -0.5688  0.1190
  477MOL0     C62877   5.576   5.459   8.482  0.2811  0.5764 -0.2213
  477MOL0     C62878   5.460   5.534   8.461 -0.1295  0.6364  1.3089
  477MOL0     O62879   5.386   5.804   8.238  1.3617 -0.3184 -0.0982
  477MOL0     C62880   5.070   5.805   8.406 -0.5046 -0.7490  0.0074
  477MOL0     C62881   4.974   5.896   8.438 -0.4144  0.0697  1.1436
  477MOL0     N62882   4.427   6.490   8.357  0.4298 -0.0468  0.1555
  477MOL0     N62883   4.331   6.422   8.324 -0.4447 -0.2978  0.0829
  477MOL0     C62884   4.623   5.451   7.889  0.4997 -0.2715  0.1438
  477MOL0     C62885   4.705   5.346   7.925  0.9089 -0.5138  0.5229
  477MOL0     C62886   4.905   4.967   8.046  0.3818  0.0278  0.2457
  477MOL0     C62887   4.819   4.861   8.030  0.2406 -0.6190  0.2362
  477MOL0     C62888   4.847   4.727   8.045 -0.6280  0.4735 -0.3707
  477MOL0     C62889   4.979   4.699   8.091  0.8974  0.5713  0.6672
  477MOL0     O62890   5.001   4.563   8.111 -0.2609 -0.5075 -0.0969
  477MOL0     C62891   5.137   4.522   8.140 -0.2457 -0.8906  0.2309
  477MOL0     C62892   5.149   4.370   8.137 -0.6952 -0.3788 -0.3012
  477MOL0     C62893   5.064   4.300   8.243 -0.2295  0.8617  0.1044
  477MOL0     C62894   5.039   4.147   8.224  0.3572  0.3869  0.4040
  477MOL0     C62895   4.961   4.105   8.338  0.2928 -0.5566  0.0728
  477MOL0     C62896   4.903   4.071   8.439 -0.0922 -0.6007  0.0510
  477MOL0     C62897   5.062   4.807   8.106 -0.7534 -0.3883 -0.1545
  477MOL0     C62898   5.031   4.941   8.089 -0.1742 -0.0125 -0.4950
  477MOL0     H62899   4.464   5.115   7.997 -0.4003 -1.1015 -0.9821
  477MOL0     H62900   4.322   5.317   7.955  0.0122  3.3215  0.8185
  477MOL0     H62901   4.383   5.718   7.995 -3.9587  1.1710 -1.5690
  477MOL0     H62902   4.386   5.556   8.080  2.4710 -0.4761 -0.7132
  477MOL0     H62903   4.153   5.530   7.976 -1.0020 -0.0031 -1.5089
  477MOL0     H62904   4.178   5.686   7.891 -1.8473 -0.7512  0.1479
  477MOL0     H62905   4.148   5.643   8.201  1.6195  2.9414  2.0253
  477MOL0     H62906   4.032   5.712   8.084 -0.5902 -1.9291  1.7043
  477MOL0     H62907   4.144   5.867   8.235 -2.4928  0.6571 -1.2524
  477MOL0     H62908   4.295   5.838   8.166  0.2908  2.0096 -1.3638
  477MOL0     H62909   4.089   5.905   7.954  0.3095  0.7466 -0.1074
  477MOL0     H62910   4.262   5.934   7.954  0.2953  4.2612 -0.7286
  477MOL0     H62911   4.049   6.080   8.112 -1.7945 -0.0138 -2.7164
  477MOL0     H62912   4.145   6.142   7.969  2.0013  0.6886  0.5120
  477MOL0     H62913   4.236   6.146   8.250 -3.1472  0.5614  0.0407
  477MOL0     H62914   4.354   6.106   8.128  1.3561  2.4122 -1.2589
  477MOL0     H62915   4.159   6.343   8.116 -0.1150 -2.6175 -0.4935
  477MOL0     H62916   4.287   6.336   8.013 -1.6558 -1.1136 -1.5330
  477MOL0     H62917   4.566   6.328   8.126 -0.4119  0.6628 -0.5657
  477MOL0     H62918   4.669   6.633   8.286  3.5875  0.5343 -2.0395
  477MOL0     H62919   4.732   6.480   8.222 -2.3927 -2.5003 -0.7198
  477MOL0     H62920   4.708   6.529   8.505 -1.5408  0.9589 -1.7974
  477MOL0     H62921   4.849   6.530   8.402  0.5884 -1.9702 -3.2873
  477MOL0     H62922   4.778   6.308   8.567 -0.1446  0.2069  0.4097
  477MOL0     H62923   4.671   6.287   8.426 -0.2411  0.7462  0.4539
  477MOL0     H62924   4.983   6.286   8.423  1.6491 -2.5746 -3.1460
  477MOL0     H62925   4.885   6.240   8.290  3.0025 -1.1445 -0.0691
  477MOL0     H62926   5.083   6.155   8.253  0.3081 -0.4203  0.5157
  477MOL0     H62927   5.248   5.995   8.178  0.3148  1.9809  0.5607
  477MOL0     H62928   5.395   5.446   8.141 -1.2806 -2.2340  1.2049
  477MOL0     H62929   5.601   5.325   8.167 -1.2568 -0.7831 -0.0653
  477MOL0     H62930   5.919   5.383   8.352  0.7732 -0.6778 -0.5363
  477MOL0     H62931   5.812   5.390   8.216 -4.1823 -0.4118  0.6386
  477MOL0     H62932   5.961   5.202   8.190  0.8727  1.2235  0.2872
  477MOL0     H62933   5.802   5.122   8.227 -1.0881  1.4017  0.3984
  477MOL0     H62934   5.898   5.146   8.482  0.5104 -0.1763 -0.0544
  477MOL0     H62935   6.047   5.167   8.397  0.8421 -0.6617 -2.7199
  477MOL0     H62936   5.863   4.921   8.395  1.0568 -0.5523  0.5470
  477MOL0     H62937   6.006   4.935   8.287 -4.3088 -1.2402 -1.8378
  477MOL0     H62938   6.048   4.812   8.503 -1.7781 -0.0906  0.7964
  477MOL0     H62939   6.024   4.957   8.590  1.8980 -1.3556  0.8251
  477MOL0     H62940   6.227   5.069   8.482 -1.6891  0.5940 -0.5299
  477MOL0     H62941   6.241   4.940   8.369 -0.1853  0.0145 -0.5089
  477MOL0     H62942   6.253   4.908   8.679 -2.3850 -1.3408 -0.8794
  477MOL0     H62943   6.306   4.784   8.557  4.8859  0.7043 -1.2956
  477MOL0     H62944   6.440   5.048   8.534 -0.9380  0.4596  2.2712
  477MOL0     H62945   6.506   4.881   8.499  0.4776 -2.9858  2.2015
  477MOL0     H62946   5.637   5.458   8.571  2.3426  0.5923 -1.5491
  477MOL0     H62947   5.413   5.578   8.548  0.7103 -1.5909  2.9904
  477MOL0     H62948   5.066   5.703   8.442  3.3973 -1.1551 -0.2610
  477MOL0     H62949   4.893   5.861   8.500  1.0689  1.1969  3.9134
  477MOL0     H62950   4.652   5.551   7.858 -0.9629  0.6945  1.6976
  477MOL0     H62951   4.806   5.384   7.914  0.1322  1.6998  0.5766
  477MOL0     H62952   4.724   4.892   7.988 -1.2303 -1.4771  2.6785
  477MOL0     H62953   4.778   4.647   8.024  1.0143 -0.3282 -3.2977
  477MOL0     H62954   5.164   4.538   8.245  0.7794 -0.7030 -0.0487
  477MOL0     H62955   5.208   4.579   8.080  2.3572 -2.1551  1.9379
  477MOL0     H62956   5.118   4.330   8.040 -1.6886  1.2799 -0.7080
  477MOL0     H62957   5.257   4.351   8.143  0.0332  2.5913 -1.7467
  477MOL0     H62958   4.970   4.354   8.254 -0.4318  0.2067  2.0461
  477MOL0     H62959   5.123   4.315   8.335  2.7491 -0.3894 -1.4520
  477MOL0     H62960   4.987   4.117   8.132  1.5138  1.0667 -0.5031
  477MOL0     H62961   5.131   4.089   8.231  0.3288  0.4052  0.9295
  477MOL0     H62962   4.865   4.053   8.537  1.1904  0.8069  0.8501
  477MOL0     H62963   5.162   4.775   8.133 -1.3280 -1.2814  1.0607
  477MOL0     H62964   5.097   5.026   8.097 -1.1928  1.1086 -2.9414
  478MOL0     O62965  10.424   0.388   4.623 -0.8090  0.5033 -0.1858
  478MOL0     C62966  10.544   0.394   4.672 -0.5114  0.3357  0.3716
  478MOL0     O62967  10.608   0.506   4.722 -0.1158  0.2455 -0.6543
  478MOL0     C62968  10.557   0.631   4.697 -0.1508  0.5407 -0.3162
  478MOL0     C62969  10.571   0.734   4.792  0.1859  0.2519  0.6873
  478MOL0     C62970  10.518   0.864   4.761  1.2502 -1.2525 -0.3141
  478MOL0     C62971  10.449   0.889   4.638 -0.0620  0.2653  0.4742
  478MOL0     O62972  10.392   1.013   4.599  0.3663 -0.4056 -0.4014
  478MOL0     C62973  10.455   1.136   4.647  0.4348  0.3911 -0.7090
  478MOL0     C62974  10.400   1.261   4.591 -0.0575  0.8797  0.7661
  478MOL0     C62975  10.469   1.386   4.655  0.4463  0.5413  0.5048
  478MOL0     C62976  10.379   1.509   4.675  0.0007  0.0105 -0.7536
  478MOL0     C62977  10.455   1.615   4.755  0.0775  0.5903 -0.0682
  478MOL0     C62978  10.578   1.668   4.694  0.4121  0.1231  0.3121
  478MOL0     C62979  10.648   1.771   4.780 -1.0025 -0.0573  0.3162
  478MOL0     C62980  10.692   1.897   4.697 -0.0812  0.1525 -0.2894
  478MOL0     N62981  10.771   1.854   4.580  0.5210 -0.5470  0.5844
  478MOL0     C62982  10.884   1.785   4.577 -0.6688  0.0850  0.5879
  478MOL0     C62983  10.909   1.770   4.449  0.0728 -0.0851 -0.6609
  478MOL0     C62984  11.034   1.708   4.376  0.6599  0.3342 -1.4303
  478MOL0     C62985  10.990   1.618   4.255  0.2074 -0.0523  0.5051
  478MOL0     C62986  11.102   1.535   4.195 -0.4714  0.5242  0.7434
  478MOL0     C62987  11.073   1.481   4.046 -0.1616 -0.1050  0.1910
  478MOL0     O62988  11.012   1.350   4.054 -0.9011 -0.1423  0.0546
  478MOL0     C62989  11.059   1.265   3.954 -1.3997 -0.5307  0.2274
  478MOL0     C62990  11.085   1.317   3.820  0.7632  0.5332 -0.2123
  478MOL0     C62991  11.137   1.232   3.727  0.8622  0.1133 -0.5663
  478MOL0     C62992  11.149   1.091   3.744 -0.4996 -0.1596 -0.2900
  478MOL0     C62993  11.180   0.998   3.638  0.2331 -0.4630 -0.0401
  478MOL0     O62994  11.116   0.876   3.638 -1.3648 -0.1322 -0.0492
  478MOL0     C62995  11.124   0.796   3.534  0.2106  0.5519  0.6836
  478MOL0     C62996  11.137   0.662   3.561 -0.2448  0.9095  0.6259
  478MOL0     C62997  11.156   0.562   3.463  1.0453  0.0810  0.0636
  478MOL0     C62998  11.161   0.603   3.327  0.2593 -0.1436  0.1345
  478MOL0     O62999  11.173   0.508   3.224 -0.8895 -0.0014 -0.5019
  478MOL0     C63000  11.255   0.556   3.110  0.1088 -0.3858 -0.6094
  478MOL0     C63001  11.318   0.442   3.033 -0.2929 -0.1335 -0.0774
  478MOL0     C63002  11.450   0.488   2.984  0.2451 -0.1739 -0.1995
  478MOL0     C63003  11.475   0.419   2.851 -0.4029 -0.0092 -0.5272
  478MOL0     C63004  11.610   0.466   2.799 -0.5003 -0.1457  1.0446
  478MOL0     C63005  11.662   0.393   2.692  0.3551  0.2288 -0.6228
  478MOL0     C63006  11.584   0.403   2.563 -0.5534  0.1835  0.1719
  478MOL0     C63007  11.642   0.327   2.451 -0.2252 -0.7971 -0.1867
  478MOL0    Cl63008  11.659   0.151   2.489  0.2523  0.1156 -0.0349
  478MOL0     C63009  11.128   0.732   3.297  0.7040  0.5511 -0.6150
  478MOL0     C63010  11.111   0.829   3.399  0.2626  0.3421  0.7398
  478MOL0     O63011  11.275   1.023   3.565 -0.5006  0.4903  0.0669
  478MOL0     C63012  11.118   1.043   3.873 -0.1153 -0.1711  0.0745
  478MOL0     C63013  11.078   1.134   3.976 -0.1275 -1.1371  0.3129
  478MOL0     N63014  10.822   1.852   4.377 -0.5054  0.2538  1.2650
  478MOL0     N63015  10.731   1.884   4.453  0.5290 -0.0064  0.0778
  478MOL0     C63016  10.456   0.785   4.545  0.3476 -0.4357  1.1334
  478MOL0     C63017  10.526   0.673   4.574  1.0600  0.7030  0.1574
  478MOL0     C63018  10.614   0.264   4.675  0.0568 -0.9028  0.2659
  478MOL0     C63019  10.722   0.255   4.758 -0.5766  0.2606  0.5727
  478MOL0     C63020  10.779   0.134   4.776 -1.1264  0.6647  0.7125
  478MOL0     C63021  10.733   0.009   4.720  0.4666 -0.7934  0.1194
  478MOL0     O63022  10.788  -0.103   4.767 -0.5453  0.2525  0.1977
  478MOL0     C63023  10.702  -0.216   4.779 -0.6348 -0.3538  1.0032
  478MOL0     C63024  10.765  -0.309   4.875  0.4713 -0.0202  0.6800
  478MOL0     C63025  10.903  -0.356   4.826  1.0950  1.0508 -0.0284
  478MOL0     C63026  10.980  -0.454   4.914 -0.8271 -0.5824  0.5311
  478MOL0     C63027  10.891  -0.559   4.961 -0.1137  0.8619 -0.4901
  478MOL0     C63028  10.817  -0.649   4.989 -0.3470 -0.5145  0.6372
  478MOL0     C63029  10.625   0.024   4.632 -0.8215  0.0363  0.6039
  478MOL0     C63030  10.568   0.150   4.607  0.2354  0.5967  0.7320
  478MOL0     H63031  10.609   0.739   4.893 -0.2156 -0.5630  0.8850
  478MOL0     H63032  10.534   0.939   4.838  0.3604 -3.9117  2.6688
  478MOL0     H63033  10.559   1.140   4.615  0.8647  1.7882  0.7843
  478MOL0     H63034  10.442   1.130   4.755 -1.5839  0.7535 -0.8977
  478MOL0     H63035  10.294   1.261   4.617 -0.9579 -2.3093 -2.2506
  478MOL0     H63036  10.408   1.267   4.482 -0.0997  0.2224  0.7249
  478MOL0     H63037  10.541   1.413   4.577 -0.8997  1.4330 -0.4921
  478MOL0     H63038  10.512   1.352   4.749  0.2827  1.2947  0.8640
  478MOL0     H63039  10.355   1.558   4.580  0.5720  2.5331  0.3191
  478MOL0     H63040  10.301   1.471   4.741  3.5635 -2.0138  2.6959
  478MOL0     H63041  10.495   1.568   4.846  4.0278  1.5187 -1.1247
  478MOL0     H63042  10.395   1.703   4.779 -0.3478  0.2002  0.3165
  478MOL0     H63043  10.537   1.711   4.602 -2.7964  0.3735  1.7290
  478MOL0     H63044  10.652   1.590   4.673 -0.0098 -0.8236  2.1858
  478MOL0     H63045  10.583   1.812   4.858  0.3058 -1.2093  2.0775
  478MOL0     H63046  10.735   1.719   4.821 -0.4671 -0.1478 -0.8765
  478MOL0     H63047  10.767   1.941   4.764  0.3907 -2.1259  0.7717
  478MOL0     H63048  10.606   1.959   4.673  0.5852  1.7488  1.1653
  478MOL0     H63049  10.949   1.751   4.657  0.6501 -0.1073 -0.5467
  478MOL0     H63050  11.094   1.650   4.447  2.5373  2.8296 -0.8240
  478MOL0     H63051  11.109   1.780   4.342 -0.5477  1.5480 -1.5928
  478MOL0     H63052  10.945   1.679   4.177  3.5083  1.1597 -0.6212
  478MOL0     H63053  10.914   1.547   4.291 -0.3252  0.4395  0.3628
  478MOL0     H63054  11.188   1.602   4.203 -0.9082  0.9366  2.3057
  478MOL0     H63055  11.121   1.447   4.257  1.8283  1.6742  1.7699
  478MOL0     H63056  11.172   1.468   4.002  1.1676  2.5569  2.0836
  478MOL0     H63057  11.010   1.551   3.990  3.0248  2.9954  0.1083
  478MOL0     H63058  11.059   1.421   3.802 -3.4000  0.3879  3.3196
  478MOL0     H63059  11.172   1.278   3.635  2.7114  0.4666  0.2658
  478MOL0     H63060  11.142   0.642   3.667 -2.0610 -1.0271  0.4154
  478MOL0     H63061  11.176   0.460   3.494  2.4110  0.8985  2.0709
  478MOL0     H63062  11.335   0.619   3.153  0.1691 -1.3688  0.7903
  478MOL0     H63063  11.203   0.615   3.035  3.5454  0.2941 -2.6856
  478MOL0     H63064  11.254   0.419   2.947 -0.0358 -2.7862  0.3498
  478MOL0     H63065  11.327   0.362   3.108 -1.5713 -1.5687 -1.3749
  478MOL0     H63066  11.530   0.493   3.059 -0.2098  2.7485  0.2107
  478MOL0     H63067  11.439   0.589   2.945 -0.7708 -0.9404 -2.0498
  478MOL0     H63068  11.479   0.310   2.857  2.0435  0.0061 -0.6585
  478MOL0     H63069  11.397   0.450   2.780 -0.2525  2.8147  0.3995
  478MOL0     H63070  11.677   0.458   2.884  3.3877 -1.0974 -1.8062
  478MOL0     H63071  11.618   0.569   2.763 -1.0151 -0.0111  1.3125
  478MOL0     H63072  11.653   0.290   2.726 -1.3043  0.8594  1.0855
  478MOL0     H63073  11.762   0.434   2.678  0.3034  0.4754 -0.2955
  478MOL0     H63074  11.481   0.369   2.577 -0.6607  1.1656  2.0119
  478MOL0     H63075  11.573   0.508   2.535  0.0023  0.3825  0.6908
  478MOL0     H63076  11.740   0.369   2.428 -1.4738  4.1627  2.1457
  478MOL0     H63077  11.584   0.340   2.359 -0.4926 -2.0008 -0.1965
  478MOL0     H63078  11.127   0.769   3.194  2.1140  2.2214 -0.0743
  478MOL0     H63079  11.086   0.931   3.369  0.2077  0.3044  0.6543
  478MOL0     H63080  11.113   0.938   3.898  0.4366  0.1946  1.9006
  478MOL0     H63081  11.047   1.096   4.073  1.8578 -0.1096  1.4018
  478MOL0     H63082  10.422   0.810   4.445  1.1002  1.2028  1.2482
  478MOL0     H63083  10.548   0.598   4.498 -1.6211 -2.5750  2.3365
  478MOL0     H63084  10.760   0.334   4.823  0.1783  0.6405 -0.3130
  478MOL0     H63085  10.855   0.134   4.853 -0.1638 -0.2580 -0.1982
  478MOL0     H63086  10.703  -0.267   4.682 -0.6653  1.4797  0.0030
  478MOL0     H63087  10.602  -0.191   4.814  0.0272 -1.5224  4.0886
  478MOL0     H63088  10.779  -0.260   4.971 -3.3840 -1.0853  1.9479
  478MOL0     H63089  10.692  -0.389   4.892  1.9320 -1.5758 -0.0061
  478MOL0     H63090  10.963  -0.272   4.791  1.3121  0.2953 -1.5645
  478MOL0     H63091  10.880  -0.419   4.739  2.4985  2.2295 -1.3164
  478MOL0     H63092  11.065  -0.491   4.855  0.2468  1.7600  0.4977
  478MOL0     H63093  11.007  -0.393   5.001 -3.7701  2.1055 -0.2328
  478MOL0     H63094  10.748  -0.727   5.014 -2.1294  0.7900  0.0212
  478MOL0     H63095  10.587  -0.061   4.576  0.3132  0.5727 -1.0722
  478MOL0     H63096  10.488   0.152   4.535 -1.5274  0.2289  2.5735
  479MOL0     O63097   2.091   3.830   2.229 -0.7360 -0.4227  0.1246
  479MOL0     C63098   2.018   3.836   2.330  0.2762  0.3343  0.0561
  479MOL0     O63099   1.919   3.747   2.361  0.0835  0.8981 -0.5648
  479MOL0     C63100   1.896   3.634   2.281  0.4387 -0.0538 -0.1189
  479MOL0     C63101   1.778   3.627   2.215 -0.6436  0.6260 -0.3744
  479MOL0     C63102   1.749   3.512   2.133  0.0106 -1.1872 -1.3924
  479MOL0     C63103   1.839   3.412   2.123 -0.0097 -0.7827  0.5658
  479MOL0     O63104   1.810   3.318   2.034 -0.1342 -0.2143 -0.2961
  479MOL0     C63105   1.914   3.235   1.975  0.7437  0.0701  1.2496
  479MOL0     C63106   1.862   3.152   1.852 -0.0006 -0.5233 -0.3255
  479MOL0     C63107   1.808   3.252   1.749 -0.0063  0.9019  1.0513
  479MOL0     C63108   1.776   3.177   1.617  0.3557  0.1718  0.4447
  479MOL0     C63109   1.752   3.282   1.503 -0.2855  0.2577  0.0994
  479MOL0     C63110   1.725   3.209   1.371 -0.0600 -1.4345  0.9753
  479MOL0     C63111   1.700   3.310   1.251 -0.1463  0.3871 -1.0531
  479MOL0     C63112   1.700   3.228   1.120 -0.9396  0.6839  0.3161
  479MOL0     N63113   1.654   3.307   1.008 -0.0668 -0.3277 -0.1871
  479MOL0     C63114   1.535   3.298   0.948  0.6491  0.1790 -0.6368
  479MOL0     C63115   1.521   3.411   0.880 -0.7044 -0.9076 -0.5508
  479MOL0     C63116   1.410   3.432   0.782  0.7113  0.1747  0.2102
  479MOL0     C63117   1.285   3.500   0.848  0.0935 -0.0863  0.8277
  479MOL0     C63118   1.263   3.649   0.809 -0.1970  0.5032  0.0990
  479MOL0     C63119   1.375   3.733   0.866 -0.3155  0.3754  0.1242
  479MOL0     O63120   1.430   3.692   0.995 -0.0735 -0.3264  0.1509
  479MOL0     C63121   1.355   3.709   1.108 -0.4101  0.1446  0.0595
  479MOL0     C63122   1.232   3.780   1.122 -0.2838  0.6279  1.0283
  479MOL0     C63123   1.176   3.789   1.253 -1.1334  0.2457 -0.4003
  479MOL0     C63124   1.234   3.740   1.373 -0.4637  0.5124 -0.0393
  479MOL0     C63125   1.159   3.729   1.502  0.0522 -0.0153  0.0655
  479MOL0     O63126   1.078   3.836   1.528  0.2841 -0.1082 -0.1622
  479MOL0     C63127   1.052   3.866   1.662 -0.0980 -0.0169  0.0964
  479MOL0     C63128   1.151   3.913   1.753  0.8377  0.1436  0.3401
  479MOL0     C63129   1.126   3.931   1.888  0.0527 -0.3643 -1.1067
  479MOL0     C63130   0.999   3.888   1.942 -0.3575 -0.3723 -0.7579
  479MOL0     O63131   0.974   3.921   2.073 -0.1019  0.4433  0.1066
  479MOL0     C63132   0.929   3.805   2.155 -0.2441 -0.7234 -0.0746
  479MOL0     C63133   0.885   3.848   2.297  0.3399 -0.5386 -0.5419
  479MOL0     C63134   0.995   3.913   2.377  0.0572 -0.0114  0.1271
  479MOL0     C63135   0.932   3.982   2.489 -0.0368 -0.7644 -0.6107
  479MOL0     C63136   1.015   3.991   2.625  0.2479 -0.3104  0.3730
  479MOL0     C63137   1.145   4.073   2.603 -0.1976  0.6968  0.1333
  479MOL0     C63138   1.224   4.105   2.725  0.3211 -0.8991  0.2561
  479MOL0     C63139   1.144   4.147   2.840  0.2619 -0.1812 -0.0241
  479MOL0    Cl63140   1.257   4.228   2.939 -0.3324  0.6588  0.0231
  479MOL0     C63141   0.901   3.848   1.853 -0.1559  0.1216  0.2539
  479MOL0     C63142   0.924   3.848   1.712 -0.3860 -0.3705 -0.1952
  479MOL0     O63143   1.187   3.634   1.578  0.0103 -0.1336 -0.0187
  479MOL0     C63144   1.360   3.667   1.354 -0.3507 -0.2212 -0.1745
  479MOL0     C63145   1.412   3.656   1.224  0.0182 -1.5088 -0.4935
  479MOL0     N63146   1.634   3.488   0.895  1.0756  0.0210 -0.5164
  479MOL0     N63147   1.710   3.418   0.976 -0.0216 -0.5702  0.4227
  479MOL0     C63148   1.959   3.417   2.195 -0.1493  0.2191 -0.0688
  479MOL0     C63149   1.985   3.528   2.273  0.7195 -1.0307 -1.0173
  479MOL0     C63150   2.039   3.942   2.426  0.5582 -0.6070 -0.1380
  479MOL0     C63151   2.003   3.944   2.560 -0.5598  1.1369  0.5025
  479MOL0     C63152   2.043   4.045   2.645 -0.5371 -0.8224  0.0674
  479MOL0     C63153   2.127   4.152   2.609 -0.0470  0.5697 -0.5216
  479MOL0     O63154   2.167   4.244   2.700  0.0342  0.0741  0.0012
  479MOL0     C63155   2.129   4.382   2.691  0.2463  0.3838 -0.4909
  479MOL0     C63156   2.038   4.422   2.809 -0.9146  0.1334 -0.1914
  479MOL0     C63157   2.133   4.440   2.931  0.0428  0.1680 -0.0912
  479MOL0     C63158   2.063   4.413   3.059 -0.7107 -0.6084 -0.4713
  479MOL0     C63159   1.941   4.495   3.062 -0.4627  0.6444  0.6059
  479MOL0     C63160   1.833   4.547   3.066 -0.1780 -0.3956 -0.1969
  479MOL0     C63161   2.175   4.145   2.474  0.0008 -0.0698  0.2001
  479MOL0     C63162   2.131   4.046   2.386 -0.2281  0.2942 -0.9790
  479MOL0     H63163   1.720   3.718   2.230 -1.8492 -0.1511 -0.2260
  479MOL0     H63164   1.658   3.502   2.075 -2.7360 -2.3836  2.6790
  479MOL0     H63165   1.945   3.155   2.042  2.4748 -2.5002 -2.2465
  479MOL0     H63166   1.998   3.297   1.943  0.8372 -0.2679  0.8267
  479MOL0     H63167   1.788   3.074   1.872 -0.4415 -0.2362 -0.7819
  479MOL0     H63168   1.950   3.106   1.808 -0.6184 -1.4018 -0.6512
  479MOL0     H63169   1.891   3.317   1.722  0.1867 -0.2710 -1.5046
  479MOL0     H63170   1.715   3.305   1.773 -0.4895  0.2417  0.6792
  479MOL0     H63171   1.853   3.107   1.582  0.4893 -0.1792  1.3948
  479MOL0     H63172   1.687   3.115   1.633  1.1519 -0.8364  1.1355
  479MOL0     H63173   1.843   3.343   1.499 -0.2783  1.1100  5.6074
  479MOL0     H63174   1.673   3.348   1.540  1.5834  2.3779  0.5062
  479MOL0     H63175   1.641   3.138   1.369  0.1187 -1.9140 -4.2429
  479MOL0     H63176   1.815   3.150   1.353  0.8115 -0.5577  2.2666
  479MOL0     H63177   1.611   3.374   1.249  0.5109  1.6659  2.6882
  479MOL0     H63178   1.787   3.375   1.243  0.2973 -0.3576 -2.8457
  479MOL0     H63179   1.638   3.138   1.120  0.6160 -0.4295 -0.1433
  479MOL0     H63180   1.804   3.203   1.096 -0.0692  3.2618  1.0891
  479MOL0     H63181   1.478   3.205   0.945  0.7384  0.1319 -0.9140
  479MOL0     H63182   1.388   3.336   0.733  0.2946 -0.9546  2.4912
  479MOL0     H63183   1.438   3.489   0.693  1.3186 -2.7592 -1.6020
  479MOL0     H63184   1.300   3.490   0.956 -2.4855  0.2187  1.2753
  479MOL0     H63185   1.198   3.436   0.828 -0.0376  0.5571 -0.7887
  479MOL0     H63186   1.271   3.661   0.700  1.7981  0.4766  0.1963
  479MOL0     H63187   1.163   3.683   0.835 -1.4210 -1.8471 -1.1938
  479MOL0     H63188   1.344   3.837   0.869 -4.6716 -0.5810 -2.6454
  479MOL0     H63189   1.466   3.715   0.808  0.5859 -1.6702  2.0275
  479MOL0     H63190   1.176   3.830   1.043  0.6024  1.3501  0.8429
  479MOL0     H63191   1.085   3.846   1.271 -1.0381  0.0164  0.8915
  479MOL0     H63192   1.241   3.949   1.703 -2.4786  2.9303 -4.3942
  479MOL0     H63193   1.194   3.992   1.947  0.6235 -1.0805 -1.0144
  479MOL0     H63194   1.009   3.731   2.161 -0.7870 -1.8799 -4.0826
  479MOL0     H63195   0.840   3.755   2.116 -2.2474  1.4247  1.4736
  479MOL0     H63196   0.845   3.764   2.355  0.0723  0.4037  0.6733
  479MOL0     H63197   0.800   3.916   2.302  2.4430  2.3954 -1.7441
  479MOL0     H63198   1.051   3.992   2.326  0.5326  0.7488  1.7754
  479MOL0     H63199   1.065   3.833   2.402 -0.2718 -0.6613 -0.9690
  479MOL0     H63200   0.923   4.085   2.454  3.0462 -0.3226 -0.4197
  479MOL0     H63201   0.835   3.939   2.513 -0.9171  0.8073 -1.2279
  479MOL0     H63202   1.039   3.887   2.650 -0.4184 -0.0699  2.0822
  479MOL0     H63203   0.960   4.039   2.706 -1.4746 -1.7183  0.0907
  479MOL0     H63204   1.125   4.166   2.549  0.1668  0.4357 -0.4534
  479MOL0     H63205   1.210   4.024   2.531 -2.2935 -2.1420  0.0053
  479MOL0     H63206   1.285   4.024   2.768  1.6205  0.8373  1.8792
  479MOL0     H63207   1.296   4.185   2.702  0.2666  0.0564  3.0562
  479MOL0     H63208   1.101   4.061   2.893 -0.2358 -0.8372 -1.4446
  479MOL0     H63209   1.067   4.219   2.810  0.8530  0.9108  0.9789
  479MOL0     H63210   0.804   3.839   1.901  0.3765 -1.7883  1.0558
  479MOL0     H63211   0.843   3.827   1.643 -0.0060  0.4668 -0.9230
  479MOL0     H63212   1.413   3.608   1.428  0.7733 -0.6588 -1.2905
  479MOL0     H63213   1.510   3.612   1.208  0.7756 -0.0689  0.0561
  479MOL0     H63214   2.024   3.331   2.192  0.1647  0.3501  1.8014
  479MOL0     H63215   2.079   3.537   2.325  0.0162 -2.2412  0.5412
  479MOL0     H63216   1.951   3.861   2.607  2.2778 -1.8837 -1.2777
  479MOL0     H63217   2.014   4.042   2.750 -1.5341  0.9973 -0.1149
  479MOL0     H63218   2.066   4.400   2.603 -1.1221  1.0056  0.5837
  479MOL0     H63219   2.220   4.442   2.679  0.4082  0.0503 -1.0105
  479MOL0     H63220   1.987   4.516   2.786 -1.0757  1.1269  3.5738
  479MOL0     H63221   1.956   4.351   2.825 -1.1366 -0.1218 -2.1641
  479MOL0     H63222   2.170   4.543   2.939 -0.3674  0.1822  2.3874
  479MOL0     H63223   2.224   4.379   2.927  0.7880  0.7968  3.5843
  479MOL0     H63224   2.049   4.305   3.074  2.5569 -1.2247 -0.9973
  479MOL0     H63225   2.133   4.443   3.138 -0.7261  0.7977 -0.9771
  479MOL0     H63226   1.735   4.588   3.075 -0.6909 -1.4416 -0.9536
  479MOL0     H63227   2.241   4.224   2.438  3.1674 -2.3750  0.5342
  479MOL0     H63228   2.173   4.041   2.286  1.0797 -1.1324 -0.4038
  480MOL0     O63229   3.586   3.122   2.331  0.0193 -0.2548 -0.1801
  480MOL0     C63230   3.539   3.147   2.224  0.5397  0.3458  0.6850
  480MOL0     O63231   3.444   3.074   2.152  1.0790 -0.0124 -0.3247
  480MOL0     C63232   3.371   2.971   2.207 -0.4754 -0.6881 -0.3324
  480MOL0     C63233   3.373   2.923   2.343 -0.9257  0.1205 -0.0737
  480MOL0     C63234   3.286   2.826   2.386  0.3927  0.0284  0.8315
  480MOL0     C63235   3.184   2.773   2.299 -0.5887  1.0184  1.1680
  480MOL0     O63236   3.096   2.666   2.324 -0.7003  0.3262 -0.0626
  480MOL0     C63237   3.090   2.618   2.453  0.4879  0.6633 -0.6204
  480MOL0     C63238   2.976   2.529   2.461  0.6252 -0.2352  0.1190
  480MOL0     C63239   2.998   2.417   2.571  0.3124 -0.5338  0.4147
  480MOL0     C63240   2.869   2.345   2.614 -0.4414  0.7368  0.1252
  480MOL0     C63241   2.824   2.247   2.507  0.9044  0.4495  0.5849
  480MOL0     C63242   2.683   2.189   2.542 -0.1725 -0.3797 -1.7530
  480MOL0     C63243   2.645   2.060   2.466  0.5705 -0.3278 -0.3391
  480MOL0     C63244   2.507   2.009   2.510 -0.7863  0.7047  0.5074
  480MOL0     N63245   2.516   1.874   2.572 -0.5024  0.0058  0.2440
  480MOL0     C63246   2.431   1.777   2.526 -0.7211  0.5753 -0.0977
  480MOL0     C63247   2.475   1.670   2.592  0.0228 -0.2235  0.7019
  480MOL0     C63248   2.416   1.532   2.575 -0.4298  0.3131 -0.5392
  480MOL0     C63249   2.426   1.458   2.706 -0.3581  0.6714 -0.7193
  480MOL0     C63250   2.369   1.315   2.701  0.3277  0.2080  1.5356
  480MOL0     C63251   2.421   1.239   2.827 -0.3790 -0.1437  0.3826
  480MOL0     O63252   2.392   1.307   2.949 -0.4502  0.4978 -0.5387
  480MOL0     C63253   2.409   1.236   3.063 -1.1078  0.7687  0.9463
  480MOL0     C63254   2.455   1.103   3.074 -0.0137  0.0049 -0.4242
  480MOL0     C63255   2.469   1.049   3.203 -0.4427  0.5885  0.1524
  480MOL0     C63256   2.447   1.123   3.324  0.4084 -0.2006  0.2250
  480MOL0     C63257   2.444   1.061   3.457  1.6807  0.5474  0.2802
  480MOL0     O63258   2.474   0.931   3.472  0.2723  0.7658  0.2782
  480MOL0     C63259   2.462   0.870   3.593 -0.1930  0.6662  0.1364
  480MOL0     C63260   2.343   0.862   3.656  0.3225  1.1335  1.0673
  480MOL0     C63261   2.327   0.781   3.773  0.1044  0.2775 -0.3709
  480MOL0     C63262   2.431   0.708   3.820  0.5498 -0.0965 -0.2015
  480MOL0     O63263   2.419   0.638   3.940 -0.0592 -0.2152  0.5156
  480MOL0     C63264   2.543   0.630   4.033  0.7461 -0.0205 -0.4042
  480MOL0     C63265   2.507   0.603   4.178  0.0449  0.9399  0.2149
  480MOL0     C63266   2.617   0.606   4.281  0.0973 -0.1153  0.6363
  480MOL0     C63267   2.739   0.517   4.234  0.2401  0.0231 -0.6982
  480MOL0     C63268   2.831   0.501   4.352 -0.1022 -1.1305 -0.3526
  480MOL0     C63269   2.975   0.465   4.317 -0.4287 -0.7570 -0.2539
  480MOL0     C63270   3.088   0.453   4.432  0.4313  1.2114  0.5266
  480MOL0     C63271   3.113   0.586   4.505 -1.2457 -1.1878  0.4265
  480MOL0    Cl63272   3.188   0.717   4.386  0.0582 -0.1251  0.2340
  480MOL0     C63273   2.552   0.715   3.751  0.3085  0.5070  0.0301
  480MOL0     C63274   2.567   0.788   3.642  0.0525  0.6472  0.1327
  480MOL0     O63275   2.399   1.130   3.544  0.5737  0.4638  0.0554
  480MOL0     C63276   2.417   1.261   3.312  0.5641  0.1242  1.1128
  480MOL0     C63277   2.401   1.313   3.182 -1.1164 -0.4966 -0.9936
  480MOL0     N63278   2.587   1.697   2.676  0.6044  0.3471 -0.1841
  480MOL0     N63279   2.622   1.821   2.645 -0.7327  0.6451  0.2987
  480MOL0     C63280   3.194   2.811   2.156  1.0232  0.2752  0.1109
  480MOL0     C63281   3.281   2.911   2.119  0.1129  0.1352  0.2616
  480MOL0     C63282   3.595   3.262   2.140 -0.4834  0.9865 -0.5240
  480MOL0     C63283   3.720   3.312   2.172  0.3421 -0.3614 -0.2160
  480MOL0     C63284   3.787   3.408   2.098  0.3548  0.2132 -0.5275
  480MOL0     C63285   3.729   3.448   1.972 -0.1743 -0.1754 -0.2725
  480MOL0     O63286   3.804   3.529   1.882 -0.0359  0.7056  0.6631
  480MOL0     C63287   3.780   3.530   1.746 -0.2296  0.1454 -0.3867
  480MOL0     C63288   3.825   3.404   1.676 -0.3352  0.1552  0.1899
  480MOL0     C63289   3.970   3.376   1.712  1.0355 -0.1954 -0.3623
  480MOL0     C63290   4.015   3.256   1.625  0.9188  0.6670 -1.0806
  480MOL0     C63291   4.147   3.204   1.661 -0.4810  0.1358 -0.4547
  480MOL0     C63292   4.254   3.159   1.696 -0.2844 -0.3456 -0.9376
  480MOL0     C63293   3.602   3.398   1.938  0.4807  0.0413 -0.1431
  480MOL0     C63294   3.538   3.306   2.025 -0.0531 -0.0630  0.3663
  480MOL0     H63295   3.439   2.958   2.422 -1.7998 -1.1418  1.2733
  480MOL0     H63296   3.295   2.789   2.488  0.4102 -3.7634 -0.3649
  480MOL0     H63297   3.057   2.696   2.522  2.3147 -0.8030  2.0944
  480MOL0     H63298   3.180   2.568   2.490  1.0056  0.1320 -2.5135
  480MOL0     H63299   2.961   2.489   2.360  0.4612  0.6616 -0.2183
  480MOL0     H63300   2.885   2.584   2.488  0.7630 -0.3462  0.8225
  480MOL0     H63301   3.031   2.475   2.658 -1.8676  1.3168  0.1099
  480MOL0     H63302   3.078   2.348   2.543  1.7757  0.4314  1.9997
  480MOL0     H63303   2.886   2.303   2.714 -2.0704  1.2245  0.6321
  480MOL0     H63304   2.782   2.408   2.628 -1.0205  0.4063 -1.6663
  480MOL0     H63305   2.899   2.169   2.496 -1.7747 -2.6557  2.5345
  480MOL0     H63306   2.820   2.305   2.414 -1.4924  2.4033  1.7660
  480MOL0     H63307   2.607   2.268   2.536 -0.1465 -0.2010 -0.1363
  480MOL0     H63308   2.688   2.177   2.651 -0.5796  2.5669 -1.3273
  480MOL0     H63309   2.649   2.074   2.358 -0.6374 -0.8061 -0.4609
  480MOL0     H63310   2.731   1.996   2.490  1.4984  1.0734  0.1864
  480MOL0     H63311   2.459   1.989   2.414  1.1026  1.3014 -0.6099
  480MOL0     H63312   2.449   2.083   2.565  1.2877  2.0212  1.0496
  480MOL0     H63313   2.345   1.784   2.461 -0.4619  1.0759 -0.4003
  480MOL0     H63314   2.480   1.471   2.511 -0.4350  0.2134 -0.4508
  480MOL0     H63315   2.315   1.529   2.535  0.0587  0.9137 -1.8616
  480MOL0     H63316   2.373   1.516   2.782 -0.3067 -1.8376  1.3853
  480MOL0     H63317   2.529   1.442   2.739 -2.0227 -3.3105  3.6798
  480MOL0     H63318   2.261   1.304   2.689  0.5961 -1.3072  0.1921
  480MOL0     H63319   2.404   1.268   2.609  0.9664 -1.3543  2.5428
  480MOL0     H63320   2.529   1.229   2.820 -0.6308 -2.4160 -1.6980
  480MOL0     H63321   2.379   1.139   2.837  0.9988 -0.4701  4.2196
  480MOL0     H63322   2.471   1.040   2.987 -1.0955  0.9830 -1.3556
  480MOL0     H63323   2.500   0.945   3.203  4.2570  1.7505 -0.9303
  480MOL0     H63324   2.255   0.915   3.622 -1.4612 -2.9202 -1.3741
  480MOL0     H63325   2.237   0.765   3.831  0.6380 -4.1563 -0.3872
  480MOL0     H63326   2.583   0.731   4.030 -3.0943  1.7636  1.4666
  480MOL0     H63327   2.605   0.548   3.996 -0.3423 -0.5552 -1.1259
  480MOL0     H63328   2.452   0.509   4.186  1.0855  0.4435  2.1802
  480MOL0     H63329   2.437   0.683   4.202  3.5182  4.8058 -1.3152
  480MOL0     H63330   2.577   0.575   4.378  5.2458 -1.6463  2.6221
  480MOL0     H63331   2.655   0.706   4.304  1.4644 -0.7303  1.2034
  480MOL0     H63332   2.698   0.417   4.214 -1.1302  0.4068  0.0743
  480MOL0     H63333   2.794   0.542   4.143  3.4381 -1.3063  0.7006
  480MOL0     H63334   2.788   0.423   4.416  0.5243  1.3783  3.4117
  480MOL0     H63335   2.830   0.595   4.408  0.9203 -1.3622  0.0871
  480MOL0     H63336   3.011   0.545   4.253 -1.2624 -0.6560 -0.6108
  480MOL0     H63337   2.994   0.363   4.282 -2.1131 -2.5841  3.4875
  480MOL0     H63338   3.074   0.367   4.498 -1.2755  1.7017  0.8393
  480MOL0     H63339   3.182   0.438   4.378  0.6822 -1.6843  1.5652
  480MOL0     H63340   3.181   0.558   4.586  1.2036  0.9760 -0.7349
  480MOL0     H63341   3.019   0.621   4.548 -0.2647  0.1475  1.5536
  480MOL0     H63342   2.628   0.652   3.796 -0.2173 -1.2033 -1.3569
  480MOL0     H63343   2.652   0.785   3.575  1.0588 -0.6921  1.3927
  480MOL0     H63344   2.394   1.319   3.401 -1.4647 -0.7213  1.1883
  480MOL0     H63345   2.373   1.416   3.162 -0.4183  0.0997  0.8420
  480MOL0     H63346   3.125   2.773   2.081  3.2674 -1.6076 -1.1158
  480MOL0     H63347   3.284   2.944   2.016  4.1478  0.5733  0.3550
  480MOL0     H63348   3.772   3.276   2.260  0.5310  0.1201 -0.1279
  480MOL0     H63349   3.889   3.440   2.121  1.4036 -1.9452 -1.8402
  480MOL0     H63350   3.836   3.614   1.703  2.6248 -1.3069  0.2755
  480MOL0     H63351   3.673   3.548   1.730 -0.3575  1.0948  1.3037
  480MOL0     H63352   3.751   3.332   1.713 -3.5134  3.3921  0.6867
  480MOL0     H63353   3.811   3.413   1.568  0.5841  0.0473  0.0499
  480MOL0     H63354   3.971   3.352   1.819 -0.9654 -1.1891 -0.5312
  480MOL0     H63355   4.033   3.459   1.679  2.2660 -0.8129  0.3583
  480MOL0     H63356   3.940   3.183   1.659  1.3826  0.5765 -0.2200
  480MOL0     H63357   4.009   3.267   1.517 -2.4293 -0.8442 -1.1960
  480MOL0     H63358   4.348   3.126   1.734 -1.2804 -0.8682  1.2447
  480MOL0     H63359   3.557   3.428   1.844 -0.8854 -1.0419  0.1359
  480MOL0     H63360   3.445   3.260   1.994  0.1062  0.1489 -0.4435
  481MOL0     O63361   4.441   9.665   3.250 -0.3767  0.4483  0.5724
  481MOL0     C63362   4.477   9.548   3.267  0.2909 -0.4747 -0.8254
  481MOL0     O63363   4.499   9.497   3.393  0.1040  0.7084 -0.5426
  481MOL0     C63364   4.480   9.572   3.505 -0.7020  0.2237 -0.3601
  481MOL0     C63365   4.350   9.600   3.547  0.2339  0.1046  0.9116
  481MOL0     C63366   4.316   9.662   3.666 -0.6499  0.7191  0.4576
  481MOL0     C63367   4.420   9.705   3.753 -0.3267 -0.0703 -0.6153
  481MOL0     O63368   4.385   9.760   3.877 -0.6138  0.0809  0.2199
  481MOL0     C63369   4.445   9.899   3.892 -1.0035  0.5802 -0.2141
  481MOL0     C63370   4.368   9.974   4.006 -0.5791  0.3293 -0.0747
  481MOL0     C63371   4.447   9.985   4.142 -1.0231  0.1623  0.0940
  481MOL0     C63372   4.348  10.056   4.238 -0.2087  0.7748  0.1409
  481MOL0     C63373   4.409  10.078   4.377  0.2717 -0.4142  0.2208
  481MOL0     C63374   4.509  10.186   4.382 -0.6042  0.3182 -0.1971
  481MOL0     C63375   4.554  10.218   4.514 -0.7263 -0.4772  0.0840
  481MOL0     C63376   4.629  10.122   4.585 -0.4819  0.4549  0.3289
  481MOL0     N63377   4.772  10.125   4.544 -0.6705  0.8344  0.3260
  481MOL0     C63378   4.867  10.141   4.643  0.7579  0.0567  0.0727
  481MOL0     C63379   4.986  10.123   4.584  0.5498  0.2329  0.2304
  481MOL0     C63380   5.107  10.113   4.668  0.4540  0.7579 -0.1446
  481MOL0     C63381   5.181  10.253   4.687  0.6752  0.4162  0.8161
  481MOL0     C63382   5.328  10.218   4.722  0.7518 -0.1019  0.0613
  481MOL0     C63383   5.402  10.355   4.739  0.5779 -0.5777  0.5295
  481MOL0     O63384   5.378  10.450   4.631 -0.4273  0.1019 -0.0706
  481MOL0     C63385   5.485  10.464   4.540  0.2110 -0.8472 -0.3290
  481MOL0     C63386   5.514  10.590   4.489  0.3301  0.2208 -0.5210
  481MOL0     C63387   5.629  10.608   4.412 -0.3891  0.1641 -1.0626
  481MOL0     C63388   5.716  10.502   4.380  1.2045 -0.0603  0.3697
  481MOL0     C63389   5.835  10.532   4.311 -0.1755  0.3170  0.7246
  481MOL0     O63390   5.918  10.427   4.270  0.0915  0.0306  0.1130
  481MOL0     C63391   6.044  10.454   4.224  0.4320 -0.1908  1.1473
  481MOL0     C63392   6.140  10.536   4.286  0.5643 -0.8904  0.2173
  481MOL0     C63393   6.263  10.564   4.221 -0.0358  0.0981 -1.3285
  481MOL0     C63394   6.291  10.517   4.093 -0.5655  1.0943 -0.7947
  481MOL0     O63395   6.411  10.548   4.041 -0.4603  0.1495 -0.1056
  481MOL0     C63396   6.409  10.676   3.981  0.4949 -1.2818  0.3213
  481MOL0     C63397   6.520  10.694   3.877 -0.1051  0.3202  0.4249
  481MOL0     C63398   6.515  10.596   3.762 -0.0369 -0.5071 -0.4005
  481MOL0     C63399   6.588  10.642   3.638  0.4797  0.2928 -0.3016
  481MOL0     C63400   6.586  10.539   3.528 -0.7671  0.6987 -0.7895
  481MOL0     C63401   6.705  10.570   3.442  0.1795 -0.0736 -0.1140
  481MOL0     C63402   6.687  10.490   3.315 -0.3906  0.5122  0.8541
  481MOL0     C63403   6.790  10.528   3.207  0.1097  0.5045  0.3468
  481MOL0    Cl63404   6.949  10.473   3.266  0.3724 -0.4657 -0.0861
  481MOL0     C63405   6.201  10.427   4.040 -0.9224  0.4113  0.9938
  481MOL0     C63406   6.079  10.401   4.097 -0.1461 -0.1308 -0.0584
  481MOL0     O63407   5.867  10.651   4.292  0.3377  1.1897 -0.6500
  481MOL0     C63408   5.694  10.378   4.437 -0.0206  1.0611  0.0035
  481MOL0     C63409   5.578  10.357   4.508  0.2567 -0.0162  0.4219
  481MOL0     N63410   4.970  10.087   4.447  0.7890 -0.2794  0.4479
  481MOL0     N63411   4.842  10.085   4.431  1.4236 -1.0258  0.9272
  481MOL0     C63412   4.558   9.680   3.715 -0.5804  0.7784  0.3772
  481MOL0     C63413   4.580   9.607   3.591  0.0947  0.0370 -0.3281
  481MOL0     C63414   4.467   9.470   3.146  0.8307  0.5967  0.3807
  481MOL0     C63415   4.442   9.521   3.027  0.5283  0.6774 -0.5660
  481MOL0     C63416   4.447   9.438   2.916  0.0917 -0.1969  0.4221
  481MOL0     C63417   4.488   9.305   2.918 -0.5749 -0.4059 -0.7128
  481MOL0     O63418   4.516   9.232   2.808  1.0480  0.1462 -0.3342
  481MOL0     C63419   4.545   9.300   2.693 -0.4926  0.6837 -0.2900
  481MOL0     C63420   4.594   9.198   2.586 -0.1497  0.2398 -0.9752
  481MOL0     C63421   4.654   9.258   2.454 -0.2496 -0.1023  0.5452
  481MOL0     C63422   4.806   9.281   2.471 -0.7708  0.8566 -0.2243
  481MOL0     C63423   4.846   9.366   2.367 -0.6030 -0.0749 -0.1992
  481MOL0     C63424   4.888   9.439   2.281  1.2999 -0.0730  0.6119
  481MOL0     C63425   4.527   9.256   3.041 -0.0138 -0.6011 -0.7417
  481MOL0     C63426   4.513   9.341   3.153  0.5638 -0.4406 -1.0474
  481MOL0     H63427   4.265   9.553   3.499  1.5797 -0.9745 -0.5205
  481MOL0     H63428   4.213   9.660   3.700 -0.0878 -0.3923  2.2005
  481MOL0     H63429   4.436   9.968   3.807  1.6708  0.8622 -0.3349
  481MOL0     H63430   4.550   9.881   3.916 -1.2305  1.4278  1.5501
  481MOL0     H63431   4.273   9.923   4.023 -1.2422  1.5366 -0.0545
  481MOL0     H63432   4.336  10.073   3.974 -2.0368  0.8283  2.6268
  481MOL0     H63433   4.533  10.049   4.118 -1.1212 -0.7999 -3.5233
  481MOL0     H63434   4.478   9.884   4.173 -1.8832  0.3849  1.7277
  481MOL0     H63435   4.318  10.155   4.206 -4.8939 -0.2471  0.6579
  481MOL0     H63436   4.255  10.000   4.252 -1.0827  2.4475  1.2170
  481MOL0     H63437   4.444   9.979   4.410 -1.5229 -1.8094 -1.8116
  481MOL0     H63438   4.326  10.106   4.443 -0.2224 -1.5665  0.1147
  481MOL0     H63439   4.471  10.265   4.317  1.0239 -0.2609 -1.9325
  481MOL0     H63440   4.600  10.143   4.339  1.9485  3.1383  1.9509
  481MOL0     H63441   4.610  10.312   4.505 -2.3030  0.3403 -2.1687
  481MOL0     H63442   4.464  10.238   4.574  1.6312 -0.2974  3.9079
  481MOL0     H63443   4.580  10.025   4.586 -0.7773  0.5956  1.7346
  481MOL0     H63444   4.628  10.142   4.692  2.2587  0.7938  0.3630
  481MOL0     H63445   4.845  10.166   4.746 -0.5230 -0.2299 -0.1254
  481MOL0     H63446   5.170  10.051   4.603 -0.0052  1.3155 -1.1642
  481MOL0     H63447   5.081  10.067   4.763 -3.9222  0.0860 -1.4529
  481MOL0     H63448   5.126  10.313   4.760 -3.6217 -3.5755  1.3158
  481MOL0     H63449   5.177  10.291   4.584 -1.3763 -3.1358 -0.5857
  481MOL0     H63450   5.315  10.156   4.811 -3.3933  1.3644  0.6752
  481MOL0     H63451   5.391  10.162   4.652 -1.3240 -0.7251 -1.4139
  481MOL0     H63452   5.511  10.348   4.742  0.7749 -0.1304 -2.4856
  481MOL0     H63453   5.364  10.411   4.825  1.5106  0.9736 -0.0248
  481MOL0     H63454   5.452  10.670   4.528 -0.2884  0.1366 -1.2973
  481MOL0     H63455   5.664  10.709   4.391 -0.9368  0.3922 -0.9047
  481MOL0     H63456   6.122  10.576   4.385  0.0806  3.9664 -1.5584
  481MOL0     H63457   6.328  10.627   4.281  0.1123 -0.5024 -0.8541
  481MOL0     H63458   6.426  10.753   4.057 -1.4719  1.2543 -1.6440
  481MOL0     H63459   6.315  10.697   3.930  2.1704  0.8575 -2.1668
  481MOL0     H63460   6.617  10.680   3.925 -0.1703 -0.5019  0.3150
  481MOL0     H63461   6.508  10.797   3.841  0.7268  0.2685 -0.0013
  481MOL0     H63462   6.416  10.554   3.744  0.5136 -1.5095 -1.2210
  481MOL0     H63463   6.575  10.510   3.795 -0.2476 -0.8280 -0.8460
  481MOL0     H63464   6.541  10.727   3.589  1.7004  0.2661 -1.5701
  481MOL0     H63465   6.690  10.675   3.662  0.2179  1.9767 -1.3835
  481MOL0     H63466   6.485  10.536   3.486 -1.1809 -0.8071  0.1994
  481MOL0     H63467   6.608  10.434   3.552  3.7920  1.6446  0.0953
  481MOL0     H63468   6.789  10.535   3.502 -2.4535 -5.5720  1.0504
  481MOL0     H63469   6.701  10.678   3.425 -0.3218  0.2099  1.6151
  481MOL0     H63470   6.698  10.387   3.352 -0.6424  1.1090  2.6690
  481MOL0     H63471   6.594  10.491   3.258 -0.4511  0.2717  0.9461
  481MOL0     H63472   6.783  10.635   3.182 -3.6019  0.4178  0.4057
  481MOL0     H63473   6.768  10.481   3.110  0.7059  2.9029 -1.0498
  481MOL0     H63474   6.220  10.385   3.942 -0.7663  0.4518  1.0065
  481MOL0     H63475   6.014  10.338   4.036  1.5520 -0.5062 -1.5415
  481MOL0     H63476   5.765  10.297   4.429 -0.2292  0.6587  1.8398
  481MOL0     H63477   5.559  10.260   4.552  1.6072 -0.8034 -0.6400
  481MOL0     H63478   4.645   9.698   3.777  1.2288 -1.8722 -1.1957
  481MOL0     H63479   4.682   9.578   3.567 -0.3456 -2.1731  0.2519
  481MOL0     H63480   4.411   9.625   3.022  0.0449  0.5411 -0.5165
  481MOL0     H63481   4.429   9.494   2.824  0.3381  0.1983  0.6098
  481MOL0     H63482   4.633   9.361   2.715  1.2364 -1.3673 -1.1391
  481MOL0     H63483   4.462   9.361   2.657  0.1880  0.4080 -2.5181
  481MOL0     H63484   4.676   9.132   2.615  2.5856  2.7855 -2.3955
  481MOL0     H63485   4.510   9.133   2.560  0.5976 -1.5434  0.7833
  481MOL0     H63486   4.613   9.358   2.432  1.1898  0.2171 -0.9001
  481MOL0     H63487   4.625   9.192   2.372  1.3178 -1.2460  0.8711
  481MOL0     H63488   4.848   9.326   2.561  0.0537  1.3371 -0.8312
  481MOL0     H63489   4.854   9.183   2.462 -2.2117  0.2886 -2.9107
  481MOL0     H63490   4.929   9.508   2.210  4.9466 -1.2286  1.4321
  481MOL0     H63491   4.587   9.166   3.035  0.1398 -0.5030 -0.6862
  481MOL0     H63492   4.542   9.305   3.252 -1.4332  1.5881  0.3847
  482MOL0     O63493   7.596   9.661   9.543 -0.2513 -0.5819  0.2874
  482MOL0     C63494   7.674   9.752   9.533  0.1804 -0.2002  0.5534
  482MOL0     O63495   7.801   9.744   9.475  0.1586 -0.4136  0.4309
  482MOL0     C63496   7.818   9.662   9.360  0.0806 -0.8205 -0.8787
  482MOL0     C63497   7.952   9.621   9.324  0.5398 -0.7271  0.4936
  482MOL0     C63498   7.982   9.542   9.210  0.0118  0.0353 -0.4992
  482MOL0     C63499   7.873   9.513   9.127 -0.0964  0.3862 -0.7082
  482MOL0     O63500   7.887   9.454   9.000  0.0279  0.5346 -0.5918
  482MOL0     C63501   8.013   9.409   8.958 -0.6439 -0.8959 -0.4947
  482MOL0     C63502   8.036   9.400   8.811 -0.1236 -1.2196 -0.4092
  482MOL0     C63503   7.963   9.280   8.756 -0.8961 -0.4567 -0.2229
  482MOL0     C63504   7.970   9.266   8.608  0.0055 -0.6946 -0.0816
  482MOL0     C63505   7.932   9.126   8.547 -0.1599 -0.4561  0.5878
  482MOL0     C63506   7.958   9.127   8.392  0.6839  0.1936 -0.9922
  482MOL0     C63507   8.091   9.172   8.344 -0.7599 -0.7633  0.3810
  482MOL0     C63508   8.140   9.135   8.204 -0.5229 -0.4156 -1.0215
  482MOL0     N63509   8.054   9.182   8.093 -0.1846  0.5675  0.0867
  482MOL0     C63510   7.949   9.111   8.048 -0.4308 -0.1869 -0.3234
  482MOL0     C63511   7.903   9.192   7.941 -0.1777 -0.3457 -0.1348
  482MOL0     C63512   7.771   9.176   7.861  1.3335  0.7068 -0.4201
  482MOL0     C63513   7.664   9.106   7.955  0.1427  0.0580  1.0556
  482MOL0     C63514   7.523   9.129   7.904  0.6592  0.7077  0.5912
  482MOL0     C63515   7.502   9.098   7.749  0.2708  0.1355 -0.1055
  482MOL0     O63516   7.365   9.112   7.705 -0.3767 -0.2961 -0.5517
  482MOL0     C63517   7.312   9.233   7.686 -0.8379 -1.1834 -0.8036
  482MOL0     C63518   7.376   9.352   7.711 -0.3046 -0.2106 -0.1552
  482MOL0     C63519   7.308   9.472   7.681 -0.3945 -0.0156 -0.0814
  482MOL0     C63520   7.176   9.479   7.647  0.2345  0.3976 -0.0099
  482MOL0     C63521   7.109   9.607   7.619 -0.6163 -0.4965 -0.6194
  482MOL0     O63522   7.178   9.713   7.678  0.5857  1.0363 -0.1409
  482MOL0     C63523   7.162   9.842   7.650  0.7814 -0.9738 -0.5615
  482MOL0     C63524   7.231   9.926   7.741  0.4829 -1.0982 -0.1887
  482MOL0     C63525   7.221  10.070   7.726  0.4222  0.0490  0.7578
  482MOL0     C63526   7.142  10.121   7.629 -1.0267 -0.2320 -0.0896
  482MOL0     O63527   7.153  10.257   7.618 -0.2942  0.4878 -0.5305
  482MOL0     C63528   7.046  10.336   7.587  0.0036 -0.1716 -0.4941
  482MOL0     C63529   7.071  10.481   7.633  0.2011  0.2917  0.4376
  482MOL0     C63530   6.962  10.579   7.601 -0.4195 -0.1103 -0.1221
  482MOL0     C63531   6.923  10.587   7.461  0.5164  0.1662  0.6818
  482MOL0     C63532   7.028  10.647   7.364  0.7160 -0.3262 -1.2085
  482MOL0     C63533   6.984  10.594   7.225  0.3579  0.2522 -0.0128
  482MOL0     C63534   7.033  10.691   7.110  0.6898  0.6529  1.1427
  482MOL0     C63535   7.000  10.636   6.964 -0.5341  0.0635 -0.8254
  482MOL0    Cl63536   7.079  10.468   6.928  0.6631 -0.3651  0.5844
  482MOL0     C63537   7.066  10.041   7.546  0.3720  0.6897 -0.8983
  482MOL0     C63538   7.081   9.902   7.552  0.1916  0.4116 -0.5763
  482MOL0     O63539   7.005   9.616   7.553  0.0610  0.2697  0.5341
  482MOL0     C63540   7.105   9.355   7.640  0.1295  0.8556 -0.1721
  482MOL0     C63541   7.171   9.242   7.663  0.3086 -0.1478 -0.7260
  482MOL0     N63542   7.991   9.289   7.917  0.2751 -0.4145 -0.2414
  482MOL0     N63543   8.079   9.286   8.011 -0.1540  0.4718  0.2797
  482MOL0     C63544   7.737   9.555   9.160 -0.2634 -0.7953  0.2244
  482MOL0     C63545   7.714   9.622   9.279 -0.1702  0.0099  0.2443
  482MOL0     C63546   7.620   9.872   9.593 -0.4296 -0.4844  0.9943
  482MOL0     C63547   7.530   9.875   9.695 -0.0555 -0.0845 -0.5270
  482MOL0     C63548   7.488   9.988   9.763 -0.0464 -0.1284 -0.5719
  482MOL0     C63549   7.536  10.114   9.734 -0.1271 -0.2461  0.3636
  482MOL0     O63550   7.507  10.239   9.783 -0.1422  0.7153 -0.2385
  482MOL0     C63551   7.408  10.249   9.903 -0.4222 -0.8004  0.3698
  482MOL0     C63552   7.478  10.245  10.044  0.2546  0.2053  0.1950
  482MOL0     C63553   7.509  10.383  10.088 -0.6942 -0.3914  0.2805
  482MOL0     C63554   7.582  10.405  10.227 -0.2210 -0.1303  0.1145
  482MOL0     C63555   7.727  10.391  10.228 -0.2942 -0.2140  0.4348
  482MOL0     C63556   7.842  10.364  10.214  0.8716  0.1373 -0.7240
  482MOL0     C63557   7.622  10.116   9.618  0.5835 -0.0594  0.6921
  482MOL0     C63558   7.675   9.996   9.558 -0.3479  0.3651 -0.9964
  482MOL0     H63559   8.029   9.672   9.380  0.4838  1.9067 -1.5997
  482MOL0     H63560   8.087   9.524   9.187  0.5227  1.3145  0.6152
  482MOL0     H63561   8.024   9.309   9.000  2.4940 -0.0377  1.1108
  482MOL0     H63562   8.084   9.480   9.003 -1.1303 -1.4573  1.2651
  482MOL0     H63563   8.144   9.410   8.791 -0.2535 -2.2856 -1.7765
  482MOL0     H63564   7.993   9.492   8.770  1.8800 -0.2585 -0.5259
  482MOL0     H63565   7.857   9.282   8.780 -1.1358 -3.5159 -0.5358
  482MOL0     H63566   8.020   9.192   8.788  1.8947  0.7474 -1.4895
  482MOL0     H63567   7.892   9.333   8.571  0.6015  0.7649  1.1859
  482MOL0     H63568   8.069   9.305   8.585 -0.2294  0.2424  0.4287
  482MOL0     H63569   7.827   9.106   8.570 -0.4333  0.5810  0.2775
  482MOL0     H63570   7.993   9.046   8.590 -2.3259 -2.9826 -0.7636
  482MOL0     H63571   7.877   9.175   8.337 -0.6713 -2.3905 -1.4279
  482MOL0     H63572   7.955   9.022   8.359 -0.4035 -0.4829  1.0850
  482MOL0     H63573   8.093   9.282   8.351  2.0808 -0.7379  0.5333
  482MOL0     H63574   8.169   9.133   8.411  0.7581  1.2946 -0.0727
  482MOL0     H63575   8.145   9.026   8.203 -1.1721 -0.4635 -2.8682
  482MOL0     H63576   8.241   9.173   8.188 -1.0325  1.9798  0.8236
  482MOL0     H63577   7.920   9.018   8.097 -1.2196  1.8120  3.4176
  482MOL0     H63578   7.801   9.103   7.785  3.1613 -0.0483  0.9655
  482MOL0     H63579   7.736   9.267   7.811  1.4093  1.9500  1.6716
  482MOL0     H63580   7.669   9.149   8.056 -0.8930  0.1827  1.0697
  482MOL0     H63581   7.688   9.000   7.959 -2.1559 -0.6663 -1.4283
  482MOL0     H63582   7.454   9.069   7.964 -0.0791 -0.3416 -1.2145
  482MOL0     H63583   7.492   9.230   7.930  0.6144  1.0718 -0.7905
  482MOL0     H63584   7.538   8.996   7.733  2.7000  1.1005 -1.4276
  482MOL0     H63585   7.581   9.154   7.697  0.3816  1.4513  1.3973
  482MOL0     H63586   7.478   9.359   7.749 -0.6159  2.7346  0.3926
  482MOL0     H63587   7.362   9.564   7.668  0.5256 -0.1464  2.2580
  482MOL0     H63588   7.273   9.887   7.833 -0.0889 -0.6735  0.2596
  482MOL0     H63589   7.275  10.147   7.780 -1.8953  2.4444 -0.1107
  482MOL0     H63590   6.959  10.301   7.642  0.3721  0.6978  0.6968
  482MOL0     H63591   7.036  10.335   7.478  2.3748 -0.8542 -0.7649
  482MOL0     H63592   7.158  10.517   7.577  2.2619  1.2932  3.9814
  482MOL0     H63593   7.088  10.476   7.741 -1.5164 -1.7754  0.6866
  482MOL0     H63594   6.996  10.676   7.640  0.2540 -0.4129  0.0698
  482MOL0     H63595   6.877  10.546   7.661  0.8461 -1.8118  0.8456
  482MOL0     H63596   6.912  10.483   7.429  1.4617  1.1703 -3.5436
  482MOL0     H63597   6.834  10.649   7.452  0.8281  0.7457  1.4714
  482MOL0     H63598   7.131  10.631   7.396  0.3039 -1.3378 -0.3045
  482MOL0     H63599   7.014  10.756   7.361 -0.8183 -0.4659 -0.6211
  482MOL0     H63600   6.875  10.588   7.229  0.4307 -2.1647 -0.1295
  482MOL0     H63601   7.009  10.489   7.207 -1.6078 -1.0988  4.0131
  482MOL0     H63602   6.993  10.792   7.122  1.2422  0.8032  1.7919
  482MOL0     H63603   7.142  10.690   7.117  1.0252  2.9867 -1.6425
  482MOL0     H63604   7.021  10.713   6.889 -2.2612  0.4414 -0.9821
  482MOL0     H63605   6.894  10.607   6.956 -0.6856 -0.3839  1.8461
  482MOL0     H63606   6.996  10.088   7.477 -0.8613 -1.2935 -1.0568
  482MOL0     H63607   7.037   9.840   7.474  0.3240 -2.1655  1.2581
  482MOL0     H63608   6.999   9.351   7.618  0.6723  2.8045 -3.9968
  482MOL0     H63609   7.107   9.156   7.656  0.0469 -0.5597  3.7454
  482MOL0     H63610   7.654   9.521   9.098 -1.3445  2.3589 -0.2182
  482MOL0     H63611   7.609   9.634   9.305 -0.5125 -0.3330 -0.9358
  482MOL0     H63612   7.478   9.785   9.727 -0.6218  1.4189  3.1957
  482MOL0     H63613   7.410   9.975   9.838  1.4426  0.6710  1.1674
  482MOL0     H63614   7.326  10.177   9.894 -1.1674  0.1751 -0.9545
  482MOL0     H63615   7.349  10.341   9.901  0.0899 -0.4616  0.6447
  482MOL0     H63616   7.418  10.202  10.125 -0.0683  0.5058  0.1160
  482MOL0     H63617   7.563  10.176  10.044 -1.0244 -1.4245 -0.0173
  482MOL0     H63618   7.416  10.439  10.099  0.8291  2.2104  0.9782
  482MOL0     H63619   7.569  10.430  10.009  0.0136 -4.1786 -1.6517
  482MOL0     H63620   7.566  10.507  10.264 -1.9292 -0.4556  0.3771
  482MOL0     H63621   7.526  10.354  10.306 -0.6054  2.9756  2.0099
  482MOL0     H63622   7.946  10.356  10.193  0.3803 -1.2781 -2.9708
  482MOL0     H63623   7.649  10.214   9.581 -4.3143  0.6026 -1.8728
  482MOL0     H63624   7.754  10.014   9.486  3.3036 -1.1802  2.2653
  483MOL0     O63625   6.355   3.413   2.198 -0.2646  0.1619 -0.0155
  483MOL0     C63626   6.294   3.519   2.201 -0.1652 -0.5057 -0.1752
  483MOL0     O63627   6.299   3.626   2.114 -0.2968  0.3838 -0.0910
  483MOL0     C63628   6.367   3.591   1.998  0.2258 -0.2654 -0.1053
  483MOL0     C63629   6.495   3.630   1.989 -0.6729 -0.4882  0.2980
  483MOL0     C63630   6.578   3.587   1.877  0.3465 -0.0313 -0.9930
  483MOL0     C63631   6.533   3.511   1.771  0.6666  0.6385 -0.5585
  483MOL0     O63632   6.607   3.486   1.658  0.9037 -0.0268  0.5005
  483MOL0     C63633   6.718   3.570   1.635  0.5008 -0.1367 -0.7462
  483MOL0     C63634   6.760   3.571   1.485  0.2102 -0.0867  0.1865
  483MOL0     C63635   6.652   3.636   1.396  0.1113  0.1785 -0.2645
  483MOL0     C63636   6.678   3.618   1.248 -0.1764 -0.0968 -0.0900
  483MOL0     C63637   6.608   3.713   1.154 -0.3638  0.8977 -0.7004
  483MOL0     C63638   6.677   3.691   1.021 -0.2393  0.1117  0.8346
  483MOL0     C63639   6.632   3.797   0.926 -0.0091  1.0455  0.2957
  483MOL0     C63640   6.699   3.929   0.959  0.6862 -0.9213  0.7783
  483MOL0     N63641   6.677   4.020   0.837  0.1153 -0.3598  0.0302
  483MOL0     C63642   6.569   4.053   0.763 -0.4035 -0.5599  0.6115
  483MOL0     C63643   6.619   4.139   0.670  0.6349 -0.1748 -0.8331
  483MOL0     C63644   6.523   4.209   0.575  0.1206 -0.2731  0.2292
  483MOL0     C63645   6.595   4.255   0.449 -0.1882 -0.4442 -0.0695
  483MOL0     C63646   6.525   4.374   0.384 -0.1402 -0.1456  0.0420
  483MOL0     C63647   6.416   4.325   0.285 -0.0411  0.6723  0.1910
  483MOL0     O63648   6.377   4.451   0.222 -0.2717 -0.8093  0.0170
  483MOL0     C63649   6.310   4.443   0.108 -0.4931  0.1317 -0.0359
  483MOL0     C63650   6.276   4.320   0.040  0.2860 -0.4910  0.1231
  483MOL0     C63651   6.219   4.324  -0.087 -0.4595 -0.3819  0.1336
  483MOL0     C63652   6.183   4.455  -0.148 -0.7468  0.6027  0.4683
  483MOL0     C63653   6.135   4.462  -0.289 -1.0668 -0.5911 -0.3398
  483MOL0     O63654   6.157   4.347  -0.362  0.7271  0.0136  0.4061
  483MOL0     C63655   6.089   4.347  -0.481  1.0441  0.3110  0.3245
  483MOL0     C63656   6.149   4.356  -0.608  0.3256 -0.0296  0.2482
  483MOL0     C63657   6.076   4.352  -0.729 -0.3059  1.0858  0.0735
  483MOL0     C63658   5.942   4.307  -0.729  0.9292  0.4190 -0.7232
  483MOL0     O63659   5.859   4.296  -0.841  0.1488 -0.3094  0.2697
  483MOL0     C63660   5.907   4.366  -0.959  0.3701 -0.0513  0.6609
  483MOL0     C63661   5.808   4.376  -1.078  0.2544 -0.5631 -0.0551
  483MOL0     C63662   5.767   4.236  -1.129 -1.4029 -0.7645 -1.1324
  483MOL0     C63663   5.679   4.242  -1.254 -0.4579 -0.7267  0.1698
  483MOL0     C63664   5.534   4.282  -1.229  0.4172 -0.9270 -0.8858
  483MOL0     C63665   5.470   4.233  -1.094  0.0011 -0.3764  0.4947
  483MOL0     C63666   5.453   4.079  -1.093 -0.6298  0.7901  0.8844
  483MOL0     C63667   5.372   4.027  -0.983 -0.1950 -0.5394 -0.5531
  483MOL0    Cl63668   5.417   4.097  -0.815  0.1701 -0.1591 -0.1473
  483MOL0     C63669   5.891   4.276  -0.606  0.0197 -0.4602  1.0600
  483MOL0     C63670   5.966   4.288  -0.490 -1.4283  0.9681  0.5266
  483MOL0     O63671   6.089   4.566  -0.339  0.4596 -1.0067  0.0489
  483MOL0     C63672   6.207   4.565  -0.081 -0.2068 -0.2277 -1.0132
  483MOL0     C63673   6.261   4.560   0.047  0.1423 -0.3248 -0.0618
  483MOL0     N63674   6.758   4.163   0.686  0.4728  0.4706  0.5283
  483MOL0     N63675   6.785   4.091   0.791  0.1133  0.1584  0.5522
  483MOL0     C63676   6.395   3.469   1.786  0.1876  0.0035  0.7353
  483MOL0     C63677   6.316   3.510   1.897  0.1878  0.2293  0.0568
  483MOL0     C63678   6.252   3.556   2.349  0.2139  0.3873  0.2511
  483MOL0     C63679   6.248   3.477   2.467 -1.0394 -0.3293  0.0632
  483MOL0     C63680   6.219   3.518   2.595  0.9067  1.0327 -0.3121
  483MOL0     C63681   6.198   3.651   2.616 -0.4313  0.4024  0.7804
  483MOL0     O63682   6.139   3.684   2.738  0.1346 -0.1572 -0.2691
  483MOL0     C63683   6.085   3.817   2.752  0.2525  0.3738 -1.1748
  483MOL0     C63684   5.983   3.804   2.868  0.3197 -0.9229 -1.5870
  483MOL0     C63685   5.920   3.941   2.906  0.5269  1.2303 -0.5204
  483MOL0     C63686   5.793   3.915   2.994 -0.4850 -0.0562  0.2465
  483MOL0     C63687   5.719   4.039   3.025 -0.0790 -0.6574  0.4418
  483MOL0     C63688   5.652   4.136   3.039  0.1011 -0.4159  0.2385
  483MOL0     C63689   6.220   3.740   2.502  0.8034  0.2581 -0.8052
  483MOL0     C63690   6.237   3.688   2.370 -0.2464  0.2828 -0.4084
  483MOL0     H63691   6.533   3.701   2.061 -0.7580 -1.5425  1.4093
  483MOL0     H63692   6.678   3.629   1.883 -1.4215  4.5662  1.7488
  483MOL0     H63693   6.807   3.538   1.691  1.2781  0.3730 -1.6474
  483MOL0     H63694   6.689   3.673   1.660 -0.7421 -1.3384  3.6932
  483MOL0     H63695   6.773   3.468   1.450  3.4903  0.2338  0.1226
  483MOL0     H63696   6.856   3.616   1.457  0.3237 -0.8447 -0.7138
  483MOL0     H63697   6.637   3.739   1.427 -0.3254 -0.5196  2.0203
  483MOL0     H63698   6.558   3.585   1.422  0.1608 -0.4283 -1.2151
  483MOL0     H63699   6.787   3.630   1.247 -0.2926  1.1629 -2.3076
  483MOL0     H63700   6.647   3.517   1.218  2.4484 -1.6799  2.0339
  483MOL0     H63701   6.632   3.816   1.183  4.0432 -0.0011 -0.4810
  483MOL0     H63702   6.501   3.690   1.149 -0.1055 -0.5567 -0.2568
  483MOL0     H63703   6.653   3.597   0.969  1.4088  0.2419 -0.2489
  483MOL0     H63704   6.786   3.706   1.020  0.1030 -1.7656  2.3945
  483MOL0     H63705   6.661   3.768   0.824  1.3030  1.9651  0.3722
  483MOL0     H63706   6.524   3.812   0.930 -0.2977 -0.8361  0.3836
  483MOL0     H63707   6.808   3.922   0.961  0.9022  0.9819 -0.8631
  483MOL0     H63708   6.640   3.970   1.041 -0.6865  0.8961 -1.0313
  483MOL0     H63709   6.462   4.038   0.772 -0.2021 -1.7283  1.2102
  483MOL0     H63710   6.481   4.296   0.625  2.7102  0.4764  1.2217
  483MOL0     H63711   6.447   4.143   0.531  0.6809 -0.4191 -0.5619
  483MOL0     H63712   6.592   4.171   0.379 -2.1659  0.6896 -1.4202
  483MOL0     H63713   6.699   4.284   0.470 -0.5250  1.1642 -0.4824
  483MOL0     H63714   6.468   4.430   0.459 -0.3241 -0.2847  0.0066
  483MOL0     H63715   6.596   4.448   0.345 -2.6773  1.4084 -1.9009
  483MOL0     H63716   6.327   4.283   0.333 -2.4875  4.2411 -0.7349
  483MOL0     H63717   6.454   4.263   0.204  1.2278  3.0904 -1.1929
  483MOL0     H63718   6.298   4.223   0.083 -0.5937 -0.5909  0.3647
  483MOL0     H63719   6.206   4.233  -0.146  2.2680  0.7110 -2.3673
  483MOL0     H63720   6.254   4.385  -0.609  0.1955  0.4445 -0.2838
  483MOL0     H63721   6.135   4.367  -0.819  0.6261  1.5279  0.7428
  483MOL0     H63722   5.998   4.316  -0.995  0.4346 -0.7139  1.6877
  483MOL0     H63723   5.943   4.464  -0.926  2.8075  0.1404 -2.1874
  483MOL0     H63724   5.855   4.444  -1.150  2.4398 -1.2856  0.5997
  483MOL0     H63725   5.727   4.429  -1.027  1.8221  0.8947  1.0901
  483MOL0     H63726   5.717   4.177  -1.052 -0.2080  0.3875  0.6045
  483MOL0     H63727   5.861   4.188  -1.158 -1.0540  0.3950 -1.9866
  483MOL0     H63728   5.716   4.318  -1.323 -0.0547  0.5008  1.6676
  483MOL0     H63729   5.679   4.148  -1.309  0.7989  0.0800 -1.2799
  483MOL0     H63730   5.460   4.253  -1.304 -0.9583 -1.3888  0.6052
  483MOL0     H63731   5.524   4.390  -1.220 -1.8713 -1.1859  0.2843
  483MOL0     H63732   5.370   4.277  -1.096  0.2903  0.2689 -0.0563
  483MOL0     H63733   5.526   4.274  -1.009 -1.5486 -0.3884  1.5509
  483MOL0     H63734   5.427   4.052  -1.196  2.1308 -0.5330  0.4216
  483MOL0     H63735   5.550   4.026  -1.093 -1.4980 -1.0189  3.3995
  483MOL0     H63736   5.379   3.918  -0.988 -0.7258 -0.7664  2.1876
  483MOL0     H63737   5.270   4.064  -0.996 -1.2479 -3.1849 -0.3443
  483MOL0     H63738   5.793   4.229  -0.598 -0.2721 -0.0574  0.0385
  483MOL0     H63739   5.918   4.251  -0.400  1.0930 -2.5507  0.6345
  483MOL0     H63740   6.181   4.655  -0.136  0.3145 -1.2845 -3.1171
  483MOL0     H63741   6.294   4.654   0.090 -1.2327 -0.9856  2.7099
  483MOL0     H63742   6.345   3.412   1.708  1.6468 -2.4351  1.4536
  483MOL0     H63743   6.207   3.508   1.891  0.1033  2.9468 -0.5218
  483MOL0     H63744   6.261   3.371   2.449 -3.0137 -0.4058 -1.2150
  483MOL0     H63745   6.200   3.456   2.682 -1.9324  1.7399 -0.3106
  483MOL0     H63746   6.035   3.847   2.660  1.5346 -0.4473 -2.1657
  483MOL0     H63747   6.165   3.887   2.779  0.4291 -0.5202  0.8147
  483MOL0     H63748   5.912   3.739   2.816 -2.0412  1.4708 -1.5890
  483MOL0     H63749   6.036   3.753   2.949 -0.2218 -0.0909 -0.6851
  483MOL0     H63750   5.896   3.993   2.812 -2.4619  1.0094  0.0177
  483MOL0     H63751   5.985   4.004   2.967  0.5616 -0.6959  1.5562
  483MOL0     H63752   5.713   3.856   2.946 -2.0556  0.9704  1.4900
  483MOL0     H63753   5.819   3.875   3.092  1.3875 -0.7102 -0.4806
  483MOL0     H63754   5.601   4.226   3.068  0.0086 -0.4345  0.1341
  483MOL0     H63755   6.200   3.846   2.501 -0.0766  0.1532 -3.6320
  483MOL0     H63756   6.230   3.759   2.288 -0.9420 -0.8208 -1.3255
  484MOL0     O63757   1.455   4.899   7.432 -0.5749  0.0456 -0.2388
  484MOL0     C63758   1.569   4.942   7.424 -0.9387 -0.3469  0.2830
  484MOL0     O63759   1.617   5.034   7.334  0.0319 -0.1101  0.3033
  484MOL0     C63760   1.536   5.050   7.222 -0.0308 -0.3068 -0.5923
  484MOL0     C63761   1.436   5.147   7.218  1.2214 -0.2618  0.5279
  484MOL0     C63762   1.352   5.158   7.108 -0.1286  0.2964 -0.6663
  484MOL0     C63763   1.365   5.065   7.004  0.1544  0.1764 -0.0129
  484MOL0     O63764   1.298   5.057   6.879  0.2769 -0.3474 -0.0464
  484MOL0     C63765   1.190   5.152   6.875  0.3567 -0.1835  0.4150
  484MOL0     C63766   1.139   5.156   6.730  0.3373  1.1834 -0.1137
  484MOL0     C63767   1.070   5.286   6.696  0.3767  0.1625  1.0723
  484MOL0     C63768   0.959   5.312   6.797  0.6925 -0.2032 -0.6484
  484MOL0     C63769   0.865   5.411   6.753  0.9585 -0.7743 -0.3359
  484MOL0     C63770   0.780   5.372   6.631 -0.2639 -0.2627 -0.3189
  484MOL0     C63771   0.647   5.453   6.624 -0.8334 -0.4832  0.5713
  484MOL0     C63772   0.561   5.387   6.510  0.6821  0.7869  1.2269
  484MOL0     N63773   0.616   5.408   6.368  0.7514  0.7664  0.3802
  484MOL0     C63774   0.565   5.519   6.297 -0.2821 -0.1317  1.0329
  484MOL0     C63775   0.629   5.517   6.175 -0.2798  0.2581 -0.5744
  484MOL0     C63776   0.619   5.623   6.056  0.1529  0.4328  0.3797
  484MOL0     C63777   0.755   5.679   6.036  0.1910  0.0844 -0.6335
  484MOL0     C63778   0.788   5.736   5.896 -0.1279  0.0417  0.6007
  484MOL0     C63779   0.688   5.854   5.871  0.9572 -0.2565  0.7274
  484MOL0     O63780   0.704   5.958   5.964  0.1707  0.1464  0.3189
  484MOL0     C63781   0.648   6.082   5.943 -0.0458  0.2337 -0.7948
  484MOL0     C63782   0.568   6.123   5.833  0.4042 -0.1893 -0.8232
  484MOL0     C63783   0.509   6.254   5.837 -0.8588 -0.2306 -0.1161
  484MOL0     C63784   0.555   6.351   5.933 -0.6911  0.8572 -0.4564
  484MOL0     C63785   0.494   6.492   5.934 -0.4559  0.1676  0.0329
  484MOL0     O63786   0.483   6.553   6.053 -0.2606  0.0068 -0.4451
  484MOL0     C63787   0.434   6.678   6.056  0.7022 -0.4349 -0.1474
  484MOL0     C63788   0.507   6.782   6.009 -0.0431 -0.2500  0.7156
  484MOL0     C63789   0.452   6.912   6.006  0.5903  0.7290  0.4194
  484MOL0     C63790   0.331   6.941   6.070 -0.5216  0.7767  1.6765
  484MOL0     O63791   0.288   7.071   6.067 -0.6883 -0.4152  0.2814
  484MOL0     C63792   0.145   7.097   6.052 -0.8542 -0.2129  0.0885
  484MOL0     C63793   0.121   7.242   6.002 -0.2696 -0.2330  0.5478
  484MOL0     C63794   0.150   7.235   5.855  0.4200  0.0117 -0.4232
  484MOL0     C63795   0.110   7.361   5.785 -0.1488 -0.3258 -0.4626
  484MOL0     C63796   0.143   7.369   5.636 -0.0122 -0.8473  0.1640
  484MOL0     C63797   0.292   7.390   5.611 -0.1383  0.6487  0.5234
  484MOL0     C63798   0.327   7.407   5.459  0.2687  0.1027 -0.8969
  484MOL0     C63799   0.471   7.444   5.451  0.0906  0.2841  0.3955
  484MOL0    Cl63800   0.574   7.299   5.476  0.5458  0.7396 -0.0066
  484MOL0     C63801   0.255   6.829   6.108  0.3156 -0.8988 -0.7521
  484MOL0     C63802   0.302   6.697   6.100 -0.3672  0.0531 -0.2983
  484MOL0     O63803   0.443   6.528   5.825  0.2144 -0.8278 -0.1391
  484MOL0     C63804   0.632   6.305   6.043  0.2009  0.5600  1.0728
  484MOL0     C63805   0.674   6.172   6.044 -0.2809  0.1669 -0.0905
  484MOL0     N63806   0.702   5.393   6.174 -1.2906 -0.7126  0.0118
  484MOL0     N63807   0.692   5.330   6.279  0.4061  0.2195 -0.2921
  484MOL0     C63808   1.477   4.975   7.004  1.0997 -0.5337 -0.6888
  484MOL0     C63809   1.553   4.959   7.113 -0.6675 -0.2620  0.2898
  484MOL0     C63810   1.670   4.907   7.527 -0.5541 -0.2925  0.1840
  484MOL0     C63811   1.639   4.866   7.658  0.3133  0.7579  0.9240
  484MOL0     C63812   1.731   4.813   7.749  0.0923  0.2240 -0.6546
  484MOL0     C63813   1.872   4.813   7.710 -0.8102  0.7267  0.4455
  484MOL0     O63814   1.977   4.773   7.787 -0.0144  0.7363  1.0760
  484MOL0     C63815   1.952   4.722   7.919 -0.0468 -0.3047 -0.5879
  484MOL0     C63816   2.070   4.723   8.015 -0.7904 -0.2767  0.9630
  484MOL0     C63817   2.173   4.628   7.961 -0.4156 -0.4008 -0.0691
  484MOL0     C63818   2.285   4.612   8.055  0.3686  0.3574 -0.9494
  484MOL0     C63819   2.419   4.591   8.006  0.9642 -0.3280  1.0408
  484MOL0     C63820   2.532   4.587   7.963 -0.3563 -0.1856  0.0625
  484MOL0     C63821   1.898   4.860   7.579 -0.8887 -0.0458 -0.7559
  484MOL0     C63822   1.803   4.904   7.494 -0.4241  0.2509  0.0830
  484MOL0     H63823   1.433   5.216   7.301  1.1690  1.0019 -0.4889
  484MOL0     H63824   1.290   5.247   7.113  0.6368  0.8840 -1.2676
  484MOL0     H63825   1.222   5.255   6.893 -1.0570  0.6586 -1.4372
  484MOL0     H63826   1.104   5.121   6.936  2.5735 -0.0605  3.8596
  484MOL0     H63827   1.075   5.069   6.712  0.3131  0.4388  2.9612
  484MOL0     H63828   1.227   5.145   6.666  2.7010 -0.7167  3.1691
  484MOL0     H63829   1.033   5.277   6.594 -0.8673 -0.0805  1.5166
  484MOL0     H63830   1.146   5.364   6.701  1.7771 -1.0672 -0.1256
  484MOL0     H63831   0.905   5.223   6.829  1.7245 -0.6620 -0.1280
  484MOL0     H63832   0.999   5.339   6.895  1.0813  0.5516 -0.9982
  484MOL0     H63833   0.915   5.504   6.722 -1.4542  0.4939 -0.6958
  484MOL0     H63834   0.800   5.427   6.840  0.8718 -0.3078 -0.4812
  484MOL0     H63835   0.748   5.268   6.624 -4.5032  1.0041 -3.7464
  484MOL0     H63836   0.838   5.394   6.541 -0.1086 -1.3383 -0.4956
  484MOL0     H63837   0.590   5.438   6.716 -1.0670 -7.2139 -0.1634
  484MOL0     H63838   0.659   5.559   6.601 -3.7037 -0.4821 -1.5340
  484MOL0     H63839   0.458   5.418   6.528  0.9207  3.1462 -0.7972
  484MOL0     H63840   0.572   5.280   6.530 -0.1961  0.7761  1.6758
  484MOL0     H63841   0.483   5.586   6.318 -1.0629  0.5894 -3.4278
  484MOL0     H63842   0.561   5.712   6.082 -2.1305 -0.2001 -2.0326
  484MOL0     H63843   0.584   5.572   5.966  1.6566  2.4171 -1.4197
  484MOL0     H63844   0.829   5.599   6.040  1.6880  1.4540  0.3943
  484MOL0     H63845   0.782   5.748   6.117  2.8577  0.3500 -1.6399
  484MOL0     H63846   0.893   5.763   5.882 -0.6776  2.4428  0.8110
  484MOL0     H63847   0.770   5.645   5.838  0.1117 -1.1594  2.3362
  484MOL0     H63848   0.584   5.822   5.884  0.9167  0.6892  3.1707
  484MOL0     H63849   0.718   5.889   5.772  1.8938 -1.8731  0.3959
  484MOL0     H63850   0.557   6.065   5.743  0.5789 -2.3507  0.4765
  484MOL0     H63851   0.440   6.288   5.761 -2.1218 -0.8178  0.7329
  484MOL0     H63852   0.613   6.761   6.003 -0.3093 -4.3308  5.0889
  484MOL0     H63853   0.515   6.993   5.972 -0.9325  2.8173  2.2963
  484MOL0     H63854   0.100   7.081   6.150  1.7950  0.4667  1.5150
  484MOL0     H63855   0.105   7.013   5.995  1.7932 -3.6016  2.7432
  484MOL0     H63856   0.181   7.320   6.050  0.9572 -1.3035  0.7975
  484MOL0     H63857   0.013   7.260   6.009 -0.4331  0.1464 -1.9790
  484MOL0     H63858   0.103   7.147   5.811 -2.0730  0.2999  1.5112
  484MOL0     H63859   0.259   7.225   5.849  0.5666  0.3252  1.3301
  484MOL0     H63860   0.002   7.370   5.799  0.0554 -1.4122  2.3896
  484MOL0     H63861   0.161   7.444   5.834  2.2288 -0.9536 -1.7207
  484MOL0     H63862   0.090   7.448   5.583 -0.4572  0.2525  2.1355
  484MOL0     H63863   0.111   7.272   5.600  0.8292 -1.4641  1.0022
  484MOL0     H63864   0.340   7.297   5.644  1.2032 -0.4592 -3.8737
  484MOL0     H63865   0.330   7.473   5.672 -0.5069  0.2102  1.3666
  484MOL0     H63866   0.285   7.330   5.394 -2.6099  0.5036  0.2854
  484MOL0     H63867   0.264   7.484   5.412  1.5071  1.3411 -0.5954
  484MOL0     H63868   0.505   7.527   5.513 -0.1032  1.7219 -1.3274
  484MOL0     H63869   0.490   7.467   5.346 -0.0335  0.2203  0.3574
  484MOL0     H63870   0.150   6.847   6.129 -0.3337 -0.9320 -3.6095
  484MOL0     H63871   0.243   6.607   6.117  1.1342 -0.7754  0.7719
  484MOL0     H63872   0.662   6.381   6.114  2.0397  0.7884  0.1081
  484MOL0     H63873   0.736   6.147   6.130 -1.3392 -1.1041  0.3289
  484MOL0     H63874   1.494   4.923   6.910 -1.0600 -0.1326 -1.3628
  484MOL0     H63875   1.632   4.886   7.108 -0.2767  0.1671  0.1538
  484MOL0     H63876   1.535   4.870   7.691 -0.1567 -1.4559 -0.0744
  484MOL0     H63877   1.695   4.766   7.839  1.0444 -2.1291 -1.4451
  484MOL0     H63878   1.914   4.619   7.916 -0.0152 -0.4061  1.3209
  484MOL0     H63879   1.873   4.777   7.970 -1.4173  1.9921 -4.7279
  484MOL0     H63880   2.124   4.816   8.036  0.8578 -1.6306  3.0853
  484MOL0     H63881   2.030   4.685   8.110 -2.6155  2.6960  1.5469
  484MOL0     H63882   2.200   4.653   7.858 -3.0436  0.6210 -0.5635
  484MOL0     H63883   2.139   4.524   7.948  1.0961 -0.8313 -0.9239
  484MOL0     H63884   2.270   4.693   8.127 -2.1047 -1.9750  1.3630
  484MOL0     H63885   2.268   4.517   8.106  0.9720  1.3725  1.2562
  484MOL0     H63886   2.636   4.593   7.938 -0.3227  1.3921  0.4963
  484MOL0     H63887   2.001   4.874   7.547 -1.0120 -1.1651 -1.6894
  484MOL0     H63888   1.840   4.951   7.404  1.5268  1.9622  1.6779
  485MOL0     O63889   9.205   5.014  10.595 -0.2680 -0.0785  0.2490
  485MOL0     C63890   9.124   4.952  10.664 -0.5494 -1.0323 -0.0132
  485MOL0     O63891   9.010   4.895  10.611  0.2047 -0.0819 -0.3255
  485MOL0     C63892   8.976   4.911  10.489  0.4084  0.2958 -0.3275
  485MOL0     C63893   8.950   5.036  10.430 -0.1723  0.0536 -0.6629
  485MOL0     C63894   8.889   5.052  10.314  1.0510  0.0910 -0.3192
  485MOL0     C63895   8.843   4.937  10.242 -0.1856  0.2553  0.0587
  485MOL0     O63896   8.783   4.943  10.120  0.3137  0.0072 -0.0783
  485MOL0     C63897   8.796   5.058  10.028  0.3722  1.0971  0.1993
  485MOL0     C63898   8.662   5.119  10.000 -0.3501  0.3491 -0.1891
  485MOL0     C63899   8.672   5.250   9.921  0.6604  0.1355  0.2655
  485MOL0     C63900   8.659   5.217   9.772 -0.2402  0.1499  0.1379
  485MOL0     C63901   8.514   5.201   9.710 -0.0209 -0.7194 -0.2667
  485MOL0     C63902   8.523   5.218   9.558 -1.6253  0.3975 -0.4498
  485MOL0     C63903   8.403   5.177   9.476  1.1200  0.8930 -0.4964
  485MOL0     C63904   8.429   5.146   9.330  0.5463  0.2099  0.4814
  485MOL0     N63905   8.309   5.141   9.242 -0.4210  0.5429  0.6919
  485MOL0     C63906   8.179   5.178   9.263  0.0877  0.5458 -0.1762
  485MOL0     C63907   8.097   5.109   9.173 -0.6405 -0.0372  0.3092
  485MOL0     C63908   7.947   5.129   9.149  0.7797 -0.2350 -0.7793
  485MOL0     C63909   7.917   5.161   8.999 -0.8640 -0.2471  0.0760
  485MOL0     C63910   7.773   5.140   8.970 -0.1354 -0.0637  0.5463
  485MOL0     C63911   7.736   5.166   8.825  1.2234 -0.2722  0.1841
  485MOL0     O63912   7.750   5.052   8.750 -1.1554  0.0057  0.6313
  485MOL0     C63913   7.666   5.030   8.640 -0.8765 -1.7692 -0.0093
  485MOL0     C63914   7.618   5.132   8.564  0.0374 -0.1828 -0.0360
  485MOL0     C63915   7.547   5.100   8.450 -0.2513 -0.5964  0.6170
  485MOL0     C63916   7.511   4.971   8.419  0.1935  0.3065 -0.0302
  485MOL0     C63917   7.435   4.944   8.298 -0.1927 -0.2920 -0.1915
  485MOL0     O63918   7.406   5.050   8.210 -0.1111 -1.0495 -0.6632
  485MOL0     C63919   7.358   5.040   8.084 -0.6090 -0.0317  0.1622
  485MOL0     C63920   7.291   5.153   8.030  0.6056  1.3429  0.0178
  485MOL0     C63921   7.253   5.159   7.894  0.3544  0.8461  1.1505
  485MOL0     C63922   7.282   5.053   7.803  0.4375  0.1743  0.3850
  485MOL0     O63923   7.254   5.061   7.665  0.2249  0.7714 -0.1104
  485MOL0     C63924   7.148   5.147   7.621 -0.2959  0.2837  0.2386
  485MOL0     C63925   7.069   5.059   7.522 -0.0072 -1.1362 -0.4114
  485MOL0     C63926   6.941   5.124   7.511  0.6443 -1.4101 -0.0862
  485MOL0     C63927   6.857   5.076   7.390  0.2010 -0.5835  0.1308
  485MOL0     C63928   6.830   5.181   7.282 -0.4174 -0.6108  0.4655
  485MOL0     C63929   6.682   5.241   7.284 -0.0026 -0.0061  1.0772
  485MOL0     C63930   6.644   5.337   7.162  0.1151 -0.5618 -0.8621
  485MOL0     C63931   6.688   5.306   7.025  0.7219 -0.2947 -1.0347
  485MOL0    Cl63932   6.579   5.178   6.971 -0.0985  0.2041 -0.4244
  485MOL0     C63933   7.333   4.937   7.856  0.0415  0.1440  0.0030
  485MOL0     C63934   7.374   4.934   7.989 -0.3834 -0.0416  0.4561
  485MOL0     O63935   7.406   4.831   8.275 -0.5250  0.4016 -0.1883
  485MOL0     C63936   7.561   4.868   8.497  0.6402 -0.0823 -0.8790
  485MOL0     C63937   7.635   4.902   8.611 -0.1100  1.0146 -0.3662
  485MOL0     N63938   8.187   5.056   9.093 -0.3888 -0.7279 -0.4787
  485MOL0     N63939   8.309   5.079   9.122 -0.8912  0.0975 -0.9947
  485MOL0     C63940   8.853   4.810  10.308 -0.2348 -0.1362 -0.4570
  485MOL0     C63941   8.936   4.796  10.424  1.3009  0.4379  0.6123
  485MOL0     C63942   9.151   4.945  10.810 -0.3418  1.2071 -0.6767
  485MOL0     C63943   9.050   4.889  10.894  0.0323 -0.3454 -0.4369
  485MOL0     C63944   9.057   4.902  11.037  0.1099 -0.3534 -0.8399
  485MOL0     C63945   9.165   4.969  11.092  0.0849 -0.2442 -0.7267
  485MOL0     O63946   9.156   4.995  11.228 -0.0673  0.1128  0.2062
  485MOL0     C63947   9.153   5.136  11.235 -0.3829  0.3734  0.1750
  485MOL0     C63948   9.296   5.190  11.280  0.5592  0.7959 -0.3809
  485MOL0     C63949   9.267   5.333  11.335 -0.4015  0.4474 -0.9383
  485MOL0     C63950   9.380   5.396  11.416 -0.2267  0.3597  1.3921
  485MOL0     C63951   9.330   5.536  11.429 -0.4076  0.5917 -0.3311
  485MOL0     C63952   9.302   5.648  11.417  0.1518 -0.3234  0.0211
  485MOL0     C63953   9.267   4.998  11.009 -0.4632  0.0231  0.1372
  485MOL0     C63954   9.260   4.995  10.871 -0.0498  1.4934  0.0439
  485MOL0     H63955   8.989   5.118  10.491  2.8527 -2.2569  0.8174
  485MOL0     H63956   8.887   5.149  10.266 -0.4601 -0.2286 -0.9508
  485MOL0     H63957   8.836   5.015   9.936 -1.0039  1.5300 -0.6255
  485MOL0     H63958   8.872   5.129  10.062  4.6455 -2.4154 -1.0262
  485MOL0     H63959   8.601   5.141  10.089  1.3650  0.5302  0.9861
  485MOL0     H63960   8.598   5.059   9.933 -0.5763 -0.6877  0.9089
  485MOL0     H63961   8.769   5.300   9.929  0.6285 -0.0226  2.0522
  485MOL0     H63962   8.613   5.333   9.963 -1.2604 -0.7490 -0.5327
  485MOL0     H63963   8.701   5.301   9.716 -0.3501 -1.0375 -1.8382
  485MOL0     H63964   8.714   5.127   9.744  1.0853  0.9973 -0.0435
  485MOL0     H63965   8.447   5.276   9.753  0.5788  0.7997 -1.8860
  485MOL0     H63966   8.485   5.098   9.735 -0.4200 -0.1955  1.6197
  485MOL0     H63967   8.614   5.160   9.538  0.2559  3.2929 -1.0740
  485MOL0     H63968   8.545   5.323   9.535  2.3790  0.2409  1.7337
  485MOL0     H63969   8.347   5.097   9.526  0.6573  0.9779 -0.8772
  485MOL0     H63970   8.345   5.270   9.464 -1.6300 -0.3941  1.5780
  485MOL0     H63971   8.481   5.050   9.327  0.9323  0.4313 -0.0667
  485MOL0     H63972   8.499   5.223   9.295 -1.0732  0.0519 -3.5946
  485MOL0     H63973   8.130   5.243   9.335  0.8067  2.1515 -1.0735
  485MOL0     H63974   7.914   5.216   9.206 -2.9735 -0.5011 -2.2558
  485MOL0     H63975   7.878   5.047   9.172  1.4340 -0.3220  0.9930
  485MOL0     H63976   7.987   5.104   8.937  0.6861  1.4482  0.1702
  485MOL0     H63977   7.945   5.265   8.978  2.6580 -0.4342  2.8833
  485MOL0     H63978   7.746   5.040   9.004  1.2280 -1.9307 -3.2512
  485MOL0     H63979   7.728   5.210   9.040 -1.3590  0.7498 -0.9772
  485MOL0     H63980   7.810   5.234   8.781  1.6812 -1.0951 -0.3484
  485MOL0     H63981   7.635   5.206   8.836  0.6454 -1.3893 -0.8240
  485MOL0     H63982   7.642   5.227   8.610  2.4231 -1.2408  1.0831
  485MOL0     H63983   7.522   5.183   8.386 -0.9304 -0.6020  0.8713
  485MOL0     H63984   7.282   5.242   8.092  0.5524  0.4427  1.3377
  485MOL0     H63985   7.203   5.247   7.854 -0.1543 -0.8606 -2.3231
  485MOL0     H63986   7.190   5.242   7.585  1.4019 -1.1170 -1.6636
  485MOL0     H63987   7.079   5.173   7.702  0.6074  2.8386  0.2917
  485MOL0     H63988   7.056   4.962   7.571  1.9741 -1.1945  0.0891
  485MOL0     H63989   7.112   5.042   7.423 -2.2022 -1.1786 -1.4080
  485MOL0     H63990   6.962   5.230   7.493 -0.8237 -1.2732 -1.1730
  485MOL0     H63991   6.888   5.120   7.607  1.5113 -0.1824  0.4695
  485MOL0     H63992   6.896   4.989   7.337  3.9323  0.7306  0.4745
  485MOL0     H63993   6.761   5.045   7.434  1.2005 -3.1323  0.6707
  485MOL0     H63994   6.860   5.142   7.184  1.7700 -0.8783  1.1773
  485MOL0     H63995   6.901   5.263   7.295  1.4042 -2.2080  1.2276
  485MOL0     H63996   6.669   5.295   7.378  2.5255 -1.3016  2.2603
  485MOL0     H63997   6.615   5.155   7.275 -0.3804  0.2425  1.4872
  485MOL0     H63998   6.535   5.346   7.161  0.0276 -0.1993  2.2197
  485MOL0     H63999   6.679   5.437   7.189 -1.1029 -0.8517  2.1966
  485MOL0     H64000   6.795   5.286   7.018  1.1473  1.0180  0.7974
  485MOL0     H64001   6.665   5.394   6.964  1.0698  0.2742 -0.3658
  485MOL0     H64002   7.343   4.855   7.786 -1.2091  0.0131 -0.0537
  485MOL0     H64003   7.437   4.857   8.034  2.8550  1.7231 -0.7054
  485MOL0     H64004   7.549   4.760   8.486 -3.0245  0.2749 -1.5139
  485MOL0     H64005   7.660   4.837   8.694 -3.3005  2.5386  2.0048
  485MOL0     H64006   8.813   4.722  10.258 -0.2299  0.4874 -1.6138
  485MOL0     H64007   8.958   4.698  10.465  3.8743  0.5424 -0.3107
  485MOL0     H64008   8.954   4.844  10.872 -1.7875  2.2419  1.5015
  485MOL0     H64009   8.984   4.860  11.106  0.2342 -0.5990 -0.8576
  485MOL0     H64010   9.071   5.142  11.308 -1.0839 -0.8508 -0.4897
  485MOL0     H64011   9.125   5.186  11.142 -0.9524  1.0813  0.7162
  485MOL0     H64012   9.357   5.131  11.349  2.8159  2.8035 -0.5236
  485MOL0     H64013   9.356   5.200  11.189 -0.0927  1.6473 -0.7239
  485MOL0     H64014   9.194   5.310  11.413  0.1171  0.3261 -0.4784
  485MOL0     H64015   9.233   5.403  11.258  2.1307  2.6509 -0.2319
  485MOL0     H64016   9.396   5.361  11.518  1.5400  1.0484  1.3922
  485MOL0     H64017   9.473   5.399  11.357  1.2805 -3.2152  3.2668
  485MOL0     H64018   9.276   5.752  11.418  1.3903  0.0753  3.0432
  485MOL0     H64019   9.355   5.039  11.057 -2.1846  3.7422  0.4786
  485MOL0     H64020   9.354   5.013  10.819  1.7324 -0.4913  2.3609
  486MOL0     O64021  10.629   5.729   6.328 -0.0878  0.9585 -1.1745
  486MOL0     C64022  10.732   5.734   6.252  1.0103 -0.0262  0.5840
  486MOL0     O64023  10.801   5.616   6.218  0.0123 -0.1158 -0.2737
  486MOL0     C64024  10.788   5.509   6.307 -0.6980  0.3171  0.4074
  486MOL0     C64025  10.835   5.390   6.249 -0.6323  0.8681  1.1923
  486MOL0     C64026  10.859   5.269   6.322  0.5340 -0.2520  0.3232
  486MOL0     C64027  10.835   5.278   6.462 -0.6704 -0.2548  0.3582
  486MOL0     O64028  10.846   5.168   6.545  0.5943  0.1362 -0.5670
  486MOL0     C64029  10.935   5.192   6.660  0.3606  0.6001  0.0311
  486MOL0     C64030  11.042   5.079   6.655 -0.4445 -0.2648 -0.0469
  486MOL0     C64031  11.143   5.114   6.757  0.1279  0.4015  0.6656
  486MOL0     C64032  11.270   5.026   6.726  0.0729 -0.9693  0.7003
  486MOL0     C64033  11.242   4.879   6.704  0.1161  0.0090 -0.2176
  486MOL0     C64034  11.368   4.794   6.687  0.5319  0.3623 -0.0858
  486MOL0     C64035  11.327   4.644   6.685  1.0086  0.7195 -0.8575
  486MOL0     C64036  11.273   4.585   6.821  0.4579 -0.7530 -0.4082
  486MOL0     N64037  11.283   4.439   6.815 -0.2029  0.3979 -1.3686
  486MOL0     C64038  11.216   4.361   6.720 -1.1209  0.5154  0.5903
  486MOL0     C64039  11.213   4.236   6.775 -0.4743 -0.6320  0.1357
  486MOL0     C64040  11.156   4.122   6.706 -0.4921 -0.1374 -0.3840
  486MOL0     C64041  11.008   4.124   6.744  0.1254 -0.1510 -0.1927
  486MOL0     C64042  10.937   4.038   6.639 -0.3383 -0.4426  0.3980
  486MOL0     C64043  10.776   4.049   6.668 -0.2883  0.2199  0.5832
  486MOL0     O64044  10.726   4.181   6.644 -1.2771 -0.4493  0.3111
  486MOL0     C64045  10.666   4.215   6.519  0.1635  0.6893  0.0068
  486MOL0     C64046  10.614   4.338   6.494 -0.3252  0.1560 -0.0477
  486MOL0     C64047  10.556   4.385   6.375 -0.9923 -0.5713  0.9536
  486MOL0     C64048  10.555   4.297   6.271 -0.2494  0.1844  0.5629
  486MOL0     C64049  10.500   4.349   6.139  0.5870  0.1485  0.4337
  486MOL0     O64050  10.454   4.243   6.051 -0.2804  0.0436  1.2210
  486MOL0     C64051  10.443   4.284   5.917  0.1684 -0.0587  0.0672
  486MOL0     C64052  10.322   4.333   5.864 -0.1620  0.5353 -0.1946
  486MOL0     C64053  10.322   4.374   5.731  0.3080 -0.0909 -0.3453
  486MOL0     C64054  10.431   4.358   5.644  0.7220 -0.6547  0.4046
  486MOL0     O64055  10.413   4.415   5.520  0.2810  0.6656 -0.1163
  486MOL0     C64056  10.508   4.376   5.416 -0.6708 -0.7527  0.4626
  486MOL0     C64057  10.471   4.439   5.284  0.9097  0.4573  0.4761
  486MOL0     C64058  10.360   4.359   5.201 -0.7174 -0.1130 -0.3012
  486MOL0     C64059  10.323   4.423   5.066 -0.7097  0.0720 -1.1403
  486MOL0     C64060  10.446   4.427   4.968  0.1919 -0.6696 -0.2445
  486MOL0     C64061  10.405   4.449   4.821  0.0882  0.4734  0.4927
  486MOL0     C64062  10.384   4.600   4.776  0.2912  0.0512 -0.2957
  486MOL0     C64063  10.388   4.597   4.621 -0.5686  0.4952 -0.3125
  486MOL0    Cl64064  10.558   4.630   4.566  0.2176  0.0806  0.1641
  486MOL0     C64065  10.544   4.302   5.692 -0.7317  1.0648  0.7175
  486MOL0     C64066  10.548   4.265   5.829 -0.5096  0.5845 -0.1059
  486MOL0     O64067  10.495   4.470   6.117  0.2625 -0.8149  0.5580
  486MOL0     C64068  10.594   4.161   6.287  0.3386  0.7158  0.6479
  486MOL0     C64069  10.655   4.119   6.405 -0.2548  0.3128  0.7829
  486MOL0     N64070  11.261   4.240   6.904  0.3399 -0.1133 -0.1180
  486MOL0     N64071  11.295   4.362   6.929  0.8704 -0.3400 -0.1186
  486MOL0     C64072  10.787   5.397   6.516 -1.7646 -0.2242 -1.0490
  486MOL0     C64073  10.765   5.516   6.447  0.6825 -0.3578  1.1101
  486MOL0     C64074  10.797   5.867   6.215 -0.4618 -0.1228  0.8050
  486MOL0     C64075  10.857   5.884   6.091  0.5392 -0.1439  0.3836
  486MOL0     C64076  10.929   5.995   6.054 -0.6670 -0.2188 -0.3598
  486MOL0     C64077  10.927   6.110   6.141 -0.1887  0.1955  0.3307
  486MOL0     O64078  10.995   6.221   6.112  0.2214  0.2778  0.6203
  486MOL0     C64079  10.991   6.337   6.191 -0.0255 -0.2385  0.0102
  486MOL0     C64080  11.089   6.441   6.121  0.9272  0.5101 -0.1009
  486MOL0     C64081  11.090   6.571   6.188 -0.1233  0.1498  0.6161
  486MOL0     C64082  11.158   6.680   6.108 -0.0840  0.7946  0.2906
  486MOL0     C64083  11.112   6.687   5.966  0.3533  0.3783 -0.6357
  486MOL0     C64084  11.059   6.680   5.852  0.4884  0.1791 -0.2051
  486MOL0     C64085  10.870   6.087   6.267  0.0725 -0.6152 -0.4213
  486MOL0     C64086  10.804   5.971   6.307  0.4396 -0.1494  0.3785
  486MOL0     H64087  10.882   5.392   6.152  1.1639  0.4144  2.0029
  486MOL0     H64088  10.893   5.184   6.265 -1.8533 -1.4115  0.5256
  486MOL0     H64089  10.879   5.178   6.753  0.0398  0.4885 -0.1785
  486MOL0     H64090  10.985   5.289   6.659 -0.4831  1.0787  1.5880
  486MOL0     H64091  11.083   5.086   6.554 -0.0383  1.8619  0.2339
  486MOL0     H64092  11.007   4.975   6.662  1.1120 -0.9734 -1.7890
  486MOL0     H64093  11.098   5.095   6.855 -0.7049 -1.0411  0.0330
  486MOL0     H64094  11.176   5.218   6.755 -3.3481  1.6580 -0.5523
  486MOL0     H64095  11.333   5.075   6.652 -1.0743  0.4464  0.5921
  486MOL0     H64096  11.338   5.029   6.811  0.0497 -0.6857  0.7103
  486MOL0     H64097  11.176   4.868   6.617 -0.4096 -0.6402  0.2578
  486MOL0     H64098  11.175   4.863   6.789  2.9995 -0.0432  2.1994
  486MOL0     H64099  11.427   4.810   6.778 -1.0698 -1.6529  1.4032
  486MOL0     H64100  11.437   4.825   6.608  0.5024  1.7000  0.3807
  486MOL0     H64101  11.249   4.634   6.609  0.6435 -0.5166 -0.3464
  486MOL0     H64102  11.416   4.589   6.652  0.1858 -0.1728 -1.6437
  486MOL0     H64103  11.168   4.616   6.832  0.3261 -0.5307 -1.9911
  486MOL0     H64104  11.328   4.618   6.909 -0.9208 -0.4632  0.3737
  486MOL0     H64105  11.175   4.390   6.624  0.7008  1.5028  0.0594
  486MOL0     H64106  11.202   4.026   6.731 -1.4442 -0.0818  1.7857
  486MOL0     H64107  11.175   4.141   6.600 -2.8460  0.0174 -0.8439
  486MOL0     H64108  10.969   4.225   6.732  2.2098  0.7462  0.1260
  486MOL0     H64109  10.991   4.088   6.846  1.0260 -0.4480 -0.1396
  486MOL0     H64110  10.950   4.073   6.536  1.6329 -2.4853 -0.1243
  486MOL0     H64111  10.973   3.935   6.642 -2.1350 -1.1197  0.2810
  486MOL0     H64112  10.769   4.026   6.775 -0.9694 -0.2569  0.4422
  486MOL0     H64113  10.726   3.972   6.609  1.5752 -1.4943  1.1244
  486MOL0     H64114  10.621   4.407   6.577 -0.8816  4.2209 -3.1056
  486MOL0     H64115  10.519   4.487   6.370 -0.1969 -0.3151 -0.0561
  486MOL0     H64116  10.234   4.344   5.927 -0.7186 -1.2768 -0.5847
  486MOL0     H64117  10.241   4.424   5.680  0.5206  2.0118  1.2233
  486MOL0     H64118  10.527   4.269   5.407 -1.1854 -0.7902 -0.2403
  486MOL0     H64119  10.602   4.424   5.445 -1.7187 -0.4050  3.6530
  486MOL0     H64120  10.564   4.445   5.226 -0.2042  2.7818 -1.2595
  486MOL0     H64121  10.442   4.544   5.294 -1.6950 -0.0431 -0.8991
  486MOL0     H64122  10.267   4.356   5.258  0.5869  0.8603  2.0244
  486MOL0     H64123  10.394   4.257   5.181  0.7749  0.3731 -0.3450
  486MOL0     H64124  10.238   4.362   5.036  0.2366 -2.7578  1.2879
  486MOL0     H64125  10.285   4.525   5.074 -0.7215  0.1131 -1.7449
  486MOL0     H64126  10.504   4.334   4.976 -1.0518 -1.3730  1.2762
  486MOL0     H64127  10.520   4.499   5.003 -0.0160 -1.7231  2.6002
  486MOL0     H64128  10.316   4.392   4.792 -0.7959  1.9520  0.2287
  486MOL0     H64129  10.493   4.412   4.767  1.9454  0.3007  3.4254
  486MOL0     H64130  10.286   4.642   4.802 -0.0495 -0.0733 -1.3416
  486MOL0     H64131  10.455   4.675   4.812 -1.1763  3.4405 -3.7992
  486MOL0     H64132  10.318   4.677   4.595 -0.4434  1.5903  2.3968
  486MOL0     H64133  10.359   4.496   4.590  0.1506 -0.3474  1.6187
  486MOL0     H64134  10.625   4.285   5.622 -3.2781 -2.3284 -1.7465
  486MOL0     H64135  10.629   4.203   5.866 -1.7707 -2.7442 -2.4233
  486MOL0     H64136  10.590   4.088   6.206 -0.6752 -0.2656  1.5415
  486MOL0     H64137  10.701   4.020   6.416  0.0940  0.2299 -1.1605
  486MOL0     H64138  10.769   5.397   6.622  0.3749  1.3549 -0.6046
  486MOL0     H64139  10.747   5.603   6.510  1.9846  2.5201 -2.2032
  486MOL0     H64140  10.865   5.798   6.026 -0.7943  0.8786 -1.2209
  486MOL0     H64141  10.979   6.012   5.959 -0.4031  0.4598 -0.1041
  486MOL0     H64142  11.036   6.319   6.290  0.3967 -0.6357 -0.2486
  486MOL0     H64143  10.887   6.366   6.204 -0.3612 -1.4332  0.1161
  486MOL0     H64144  11.182   6.384   6.117 -0.5880 -2.1318 -0.7399
  486MOL0     H64145  11.047   6.459   6.021 -0.7362  0.2582  0.5087
  486MOL0     H64146  11.161   6.560   6.271  0.9383  0.5526 -0.2192
  486MOL0     H64147  10.989   6.600   6.219  0.3873 -0.8449  3.5951
  486MOL0     H64148  11.131   6.780   6.142  1.9256  1.2181  0.7625
  486MOL0     H64149  11.266   6.665   6.100 -0.1682  0.6580 -0.6777
  486MOL0     H64150  11.015   6.663   5.756  1.6761  1.3542 -1.0043
  486MOL0     H64151  10.871   6.171   6.336  0.8569 -2.6414  2.2024
  486MOL0     H64152  10.770   5.958   6.409 -0.1443  3.4379  0.8042
  487MOL0     O64153   4.186   4.610  10.842  0.1892  0.0635 -0.4912
  487MOL0     C64154   4.193   4.490  10.803 -0.7256 -0.5471 -0.2109
  487MOL0     O64155   4.138   4.384  10.873 -0.7583 -0.0729 -0.0953
  487MOL0     C64156   4.033   4.397  10.961 -0.9661 -0.4466  0.1655
  487MOL0     C64157   4.081   4.389  11.092  0.0778 -0.5200  0.2399
  487MOL0     C64158   3.989   4.413  11.192  0.1566 -0.2852  0.0319
  487MOL0     C64159   3.852   4.422  11.167  0.5300 -0.4565  0.0334
  487MOL0     O64160   3.763   4.442  11.269 -1.1542  0.1480  0.4254
  487MOL0     C64161   3.797   4.525  11.370 -0.0565  0.4970  0.3010
  487MOL0     C64162   3.692   4.636  11.381 -0.2799 -0.5181 -0.7954
  487MOL0     C64163   3.545   4.577  11.410  0.3349  0.3377 -0.2186
  487MOL0     C64164   3.433   4.684  11.429 -0.6972  0.0379  0.3263
  487MOL0     C64165   3.306   4.631  11.486 -0.0810  0.1296 -0.0346
  487MOL0     C64166   3.196   4.737  11.498  0.9021 -0.4300 -0.6204
  487MOL0     C64167   3.221   4.853  11.599  0.7189  0.5141 -0.6607
  487MOL0     C64168   3.133   4.969  11.591  0.5245  0.4159  0.2712
  487MOL0     N64169   3.180   5.064  11.485 -1.1483  0.7679 -0.5061
  487MOL0     C64170   3.106   5.118  11.383 -0.5308 -0.1392  0.0794
  487MOL0     C64171   3.191   5.210  11.320  0.3968  0.2104 -0.3789
  487MOL0     C64172   3.144   5.295  11.206 -0.8972  0.1980 -0.1254
  487MOL0     C64173   3.147   5.451  11.233 -0.6646 -0.4177  0.5150
  487MOL0     C64174   3.300   5.499  11.214 -0.0510  1.0995 -0.1018
  487MOL0     C64175   3.300   5.650  11.199 -0.4390 -1.0622 -0.7838
  487MOL0     O64176   3.435   5.689  11.190  0.3350  0.1603  0.7696
  487MOL0     C64177   3.474   5.815  11.239  0.2193  0.8724  0.7114
  487MOL0     C64178   3.407   5.930  11.214 -0.2262  0.7099 -0.4795
  487MOL0     C64179   3.459   6.055  11.265 -0.2218  0.9940  0.0513
  487MOL0     C64180   3.586   6.051  11.346  0.3121  0.1418  0.1555
  487MOL0     C64181   3.646   6.172  11.408 -0.5847  0.2677  0.8832
  487MOL0     O64182   3.581   6.292  11.380 -0.1320 -0.0457 -0.2731
  487MOL0     C64183   3.633   6.414  11.415 -1.2463 -0.0223 -0.3789
  487MOL0     C64184   3.624   6.528  11.332  0.4073 -0.2130  0.6735
  487MOL0     C64185   3.692   6.654  11.356  0.1309  1.2342 -0.7171
  487MOL0     C64186   3.756   6.669  11.474  0.6014 -0.1271 -0.0277
  487MOL0     O64187   3.838   6.781  11.473  0.0229 -0.1831  0.8220
  487MOL0     C64188   3.885   6.856  11.593 -0.1181 -0.2918  0.0546
  487MOL0     C64189   3.775   6.892  11.701  0.2375  0.5437  0.2957
  487MOL0     C64190   3.655   6.946  11.644 -0.1209 -0.2337 -0.1410
  487MOL0     C64191   3.531   6.849  11.683  0.5157 -0.0230  0.1849
  487MOL0     C64192   3.391   6.905  11.695 -0.3927 -0.8202  0.5304
  487MOL0     C64193   3.364   7.024  11.789 -0.5140  0.3704 -0.4256
  487MOL0     C64194   3.451   7.025  11.927  0.0099 -0.6530  0.7425
  487MOL0     C64195   3.428   6.905  12.018  0.4015 -0.2507  0.1892
  487MOL0    Cl64196   3.268   6.919  12.085 -0.7321  0.3317  1.0677
  487MOL0     C64197   3.749   6.566  11.560  0.1847 -0.5724 -1.2791
  487MOL0     C64198   3.697   6.440  11.534 -0.3794  0.0275  0.0380
  487MOL0     O64199   3.748   6.158  11.478 -0.8079  0.7180  0.4236
  487MOL0     C64200   3.655   5.926  11.362 -0.6645 -0.7319  0.2385
  487MOL0     C64201   3.596   5.812  11.312 -0.1647  0.5592  1.2088
  487MOL0     N64202   3.310   5.207  11.384  0.6011 -0.3556  0.1154
  487MOL0     N64203   3.303   5.112  11.476  0.1183 -0.8567 -0.3350
  487MOL0     C64204   3.810   4.423  11.032 -0.7400  0.9043 -0.6231
  487MOL0     C64205   3.897   4.417  10.930 -0.0486  0.5398 -0.0059
  487MOL0     C64206   4.272   4.482  10.676  0.5296  0.7737  0.2383
  487MOL0     C64207   4.340   4.359  10.642  0.5627  0.2893  1.5253
  487MOL0     C64208   4.413   4.342  10.525  0.4102 -1.1513 -0.4466
  487MOL0     C64209   4.412   4.445  10.434  0.2966 -0.6255 -0.2338
  487MOL0     O64210   4.482   4.425  10.315  0.3522  0.6710  0.8978
  487MOL0     C64211   4.621   4.459  10.333 -0.2681 -0.5612  0.9722
  487MOL0     C64212   4.701   4.319  10.307  0.0476 -1.3669 -0.1562
  487MOL0     C64213   4.843   4.312  10.363  0.0162 -0.4057 -0.9168
  487MOL0     C64214   4.953   4.409  10.309 -0.2615  0.6804  0.8458
  487MOL0     C64215   4.963   4.381  10.160  0.7000  0.7444 -0.7318
  487MOL0     C64216   4.962   4.328  10.047 -0.5059  0.2781 -0.1539
  487MOL0     C64217   4.346   4.566  10.457 -0.4574  0.8541  0.3274
  487MOL0     C64218   4.277   4.584  10.583 -0.2420 -0.1666  0.1673
  487MOL0     H64219   4.190   4.392  11.091  0.1068  1.1141 -2.5773
  487MOL0     H64220   4.018   4.385  11.293  1.0063  0.9166  0.1345
  487MOL0     H64221   3.897   4.566  11.353  1.7879 -3.3965  0.6132
  487MOL0     H64222   3.802   4.457  11.455  4.2945 -2.8772 -2.1975
  487MOL0     H64223   3.691   4.697  11.290  3.6784 -0.3611 -0.9202
  487MOL0     H64224   3.712   4.705  11.464  0.9412 -0.3594 -1.2031
  487MOL0     H64225   3.551   4.512  11.498  1.4649 -0.3308 -0.7560
  487MOL0     H64226   3.517   4.519  11.322 -2.5606  3.4195 -1.5792
  487MOL0     H64227   3.481   4.766  11.482 -0.4721  0.0835  0.0540
  487MOL0     H64228   3.404   4.734  11.336  0.1063  0.1707  0.1436
  487MOL0     H64229   3.329   4.595  11.587  2.0677 -3.3733 -1.5628
  487MOL0     H64230   3.288   4.537  11.433  0.6312  0.9179 -1.7293
  487MOL0     H64231   3.096   4.697  11.517  2.5516 -3.2166  3.8574
  487MOL0     H64232   3.195   4.799  11.408 -1.4229  1.8039  0.7904
  487MOL0     H64233   3.206   4.812  11.700  4.4208  2.6651  0.9921
  487MOL0     H64234   3.326   4.882  11.591  0.7815  0.5567  0.2086
  487MOL0     H64235   3.136   5.021  11.687  2.7862 -0.7790  0.9030
  487MOL0     H64236   3.028   4.948  11.566  0.5561  2.3469 -1.7602
  487MOL0     H64237   3.006   5.090  11.352 -0.8506  1.3599 -0.3297
  487MOL0     H64238   3.043   5.261  11.183 -1.4492  1.7921 -0.1681
  487MOL0     H64239   3.207   5.278  11.118  1.5639 -0.8255  1.7152
  487MOL0     H64240   3.110   5.465  11.335 -0.7256  0.0033  0.4345
  487MOL0     H64241   3.095   5.510  11.158  3.3211  0.8732 -1.5282
  487MOL0     H64242   3.349   5.464  11.306  3.8268  0.6127 -2.1444
  487MOL0     H64243   3.354   5.451  11.132 -1.9528 -0.7310 -0.3818
  487MOL0     H64244   3.253   5.686  11.291 -1.7187 -3.5528 -0.3724
  487MOL0     H64245   3.259   5.680  11.102  1.3335  0.6397 -1.0745
  487MOL0     H64246   3.323   5.942  11.147 -1.8104 -0.1541  1.2470
  487MOL0     H64247   3.419   6.152  11.240 -2.1126  0.3390  0.3851
  487MOL0     H64248   3.574   6.515  11.237 -1.7399  0.2089  1.6938
  487MOL0     H64249   3.711   6.731  11.283 -1.0991 -1.0393 -3.6868
  487MOL0     H64250   3.935   6.946  11.557 -1.9526  1.7828  2.3118
  487MOL0     H64251   3.948   6.786  11.648  1.3278  0.3592 -0.7343
  487MOL0     H64252   3.814   6.967  11.771 -1.1058 -0.0183  1.7044
  487MOL0     H64253   3.753   6.798  11.753  3.3374  0.1376  1.0784
  487MOL0     H64254   3.657   6.949  11.535  3.0529  0.6502 -0.1507
  487MOL0     H64255   3.632   7.046  11.681 -4.0101 -2.0012  2.9610
  487MOL0     H64256   3.530   6.773  11.604  3.5432 -1.7310  1.6084
  487MOL0     H64257   3.541   6.797  11.779 -1.7723  0.7912  0.9139
  487MOL0     H64258   3.329   6.821  11.728  3.3931 -4.7954 -1.3956
  487MOL0     H64259   3.357   6.937  11.597 -0.1552 -1.6642  0.1609
  487MOL0     H64260   3.259   7.009  11.816 -0.4018 -1.4279 -0.8828
  487MOL0     H64261   3.387   7.119  11.740 -0.5718  0.5944 -0.0229
  487MOL0     H64262   3.557   7.044  11.907 -0.2748  1.6642  1.2258
  487MOL0     H64263   3.417   7.115  11.978  0.1181  0.5582 -1.2064
  487MOL0     H64264   3.497   6.901  12.104 -0.1746 -2.3182  0.5994
  487MOL0     H64265   3.426   6.821  11.948 -0.0692  2.6817 -3.6055
  487MOL0     H64266   3.800   6.571  11.656  0.5525 -1.7351 -1.4020
  487MOL0     H64267   3.704   6.361  11.609  1.1845 -0.8021 -0.9286
  487MOL0     H64268   3.753   5.922  11.409  0.3945  1.3047 -1.6480
  487MOL0     H64269   3.645   5.716  11.326  2.5560  1.6585 -0.0302
  487MOL0     H64270   3.704   4.421  11.011 -0.3591 -0.2620 -2.7631
  487MOL0     H64271   3.865   4.418  10.826 -2.3895  0.2287  0.6589
  487MOL0     H64272   4.340   4.274  10.709 -1.6752  1.4159  3.0724
  487MOL0     H64273   4.467   4.249  10.508  0.2361 -1.1795 -0.8728
  487MOL0     H64274   4.652   4.496  10.431  3.0714  1.2465 -0.5961
  487MOL0     H64275   4.648   4.542  10.267 -0.5184  0.4510  2.1083
  487MOL0     H64276   4.651   4.240  10.363 -0.0109 -0.2144  1.5094
  487MOL0     H64277   4.697   4.296  10.201 -0.2115 -2.9352  0.1797
  487MOL0     H64278   4.878   4.210  10.351  4.6868  1.1640 -2.7382
  487MOL0     H64279   4.828   4.334  10.469 -4.4069 -1.1669 -1.1981
  487MOL0     H64280   4.934   4.512  10.341  1.0756  0.9932  0.7074
  487MOL0     H64281   5.050   4.382  10.351  0.3148 -2.1803 -1.9848
  487MOL0     H64282   4.960   4.276   9.954 -1.3638  0.6053 -0.3301
  487MOL0     H64283   4.338   4.644  10.383  2.6134  0.0338 -1.0515
  487MOL0     H64284   4.218   4.670  10.614  0.7752 -1.0073  5.1774
  488MOL0     O64285   9.793   5.395   7.967 -0.4843 -0.5639 -0.0010
  488MOL0     C64286   9.684   5.440   8.003  0.2375 -0.7860  0.3491
  488MOL0     O64287   9.590   5.512   7.921 -0.5961  0.4023  0.0074
  488MOL0     C64288   9.590   5.506   7.781 -0.3072 -0.4779 -0.1912
  488MOL0     C64289   9.507   5.608   7.734  0.3296 -0.2448  0.0804
  488MOL0     C64290   9.480   5.617   7.589 -0.6343 -0.6935 -0.2032
  488MOL0     C64291   9.534   5.520   7.503 -0.4181 -0.0810  0.6859
  488MOL0     O64292   9.526   5.523   7.368  0.3474  0.0040  0.1559
  488MOL0     C64293   9.410   5.594   7.297 -0.5210  0.2302 -1.1439
  488MOL0     C64294   9.397   5.551   7.150  0.5409  0.4528  0.4975
  488MOL0     C64295   9.513   5.592   7.055 -0.2641 -0.5436  0.4726
  488MOL0     C64296   9.520   5.746   7.042 -0.0846 -0.0978 -0.5630
  488MOL0     C64297   9.591   5.781   6.908  0.6547 -0.0978  0.0337
  488MOL0     C64298   9.577   5.915   6.847 -0.2998  0.9332 -0.8042
  488MOL0     C64299   9.621   5.925   6.706 -0.9210 -0.3847 -0.3361
  488MOL0     C64300   9.610   6.080   6.654 -0.4519 -0.1977  1.1415
  488MOL0     N64301   9.658   6.101   6.519 -0.2184  0.0765  0.4652
  488MOL0     C64302   9.784   6.110   6.467 -0.1247  0.2334 -0.3784
  488MOL0     C64303   9.762   6.140   6.335 -0.8480 -0.6191 -0.4872
  488MOL0     C64304   9.855   6.172   6.222  0.4753  0.0298 -0.2590
  488MOL0     C64305   9.918   6.044   6.160 -0.5351  0.0498 -0.6963
  488MOL0     C64306   9.940   6.055   6.008 -0.1385  0.3109 -0.4495
  488MOL0     C64307  10.047   5.955   5.962  0.1235 -0.5086  0.3294
  488MOL0     O64308  10.087   5.987   5.829 -0.4248  0.3173 -0.0428
  488MOL0     C64309  10.142   5.880   5.759 -0.5738  0.5755 -0.5922
  488MOL0     C64310  10.091   5.748   5.761 -0.4699 -0.0897  0.0046
  488MOL0     C64311  10.142   5.655   5.674 -0.1616 -0.5494 -0.2336
  488MOL0     C64312  10.259   5.691   5.598  0.4842  0.5609 -0.1350
  488MOL0     C64313  10.314   5.584   5.510  0.4418  0.7504  0.2974
  488MOL0     O64314  10.375   5.628   5.396  1.3854  0.2309 -0.1506
  488MOL0     C64315  10.471   5.546   5.346  0.1145 -0.0956 -0.2172
  488MOL0     C64316  10.597   5.602   5.358 -0.0540 -0.0698  0.7693
  488MOL0     C64317  10.711   5.531   5.303  0.1456 -1.0865 -0.4537
  488MOL0     C64318  10.699   5.408   5.245  0.1708  0.2229  0.0099
  488MOL0     O64319  10.812   5.350   5.194  0.2350  0.3838 -0.0032
  488MOL0     C64320  10.821   5.202   5.175 -0.8373  0.2623  0.2734
  488MOL0     C64321  10.833   5.122   5.300 -0.1119  0.2484 -0.9664
  488MOL0     C64322  10.942   5.161   5.397  0.2356  0.5688 -0.6375
  488MOL0     C64323  10.983   5.050   5.479 -0.1884 -0.3285  1.2402
  488MOL0     C64324  10.994   5.091   5.623  0.8705  0.0471 -0.5582
  488MOL0     C64325  11.021   4.971   5.713 -0.2547 -0.1642  0.9168
  488MOL0     C64326  11.017   5.008   5.860  1.0534  1.4013 -0.4322
  488MOL0     C64327  11.008   4.888   5.954  0.6199  1.1549  0.1015
  488MOL0    Cl64328  11.141   4.777   5.919 -0.1994 -0.0882 -0.0549
  488MOL0     C64329  10.574   5.346   5.246  0.6564 -0.1855 -0.1871
  488MOL0     C64330  10.461   5.415   5.294 -0.0950 -0.0343 -0.4435
  488MOL0     O64331  10.301   5.468   5.538  0.5363  0.7880  0.5129
  488MOL0     C64332  10.299   5.822   5.593 -0.7471 -0.2825  0.1715
  488MOL0     C64333  10.253   5.916   5.681  0.4280  0.9333  0.7420
  488MOL0     N64334   9.631   6.144   6.315  0.2365 -0.2334 -0.9022
  488MOL0     N64335   9.568   6.101   6.419  0.3727 -0.1027  0.1583
  488MOL0     C64336   9.627   5.423   7.546  0.3314  0.2008 -0.5602
  488MOL0     C64337   9.643   5.408   7.696 -0.6788 -0.1485 -0.4640
  488MOL0     C64338   9.641   5.417   8.139 -0.7812 -0.8829 -0.0597
  488MOL0     C64339   9.514   5.461   8.187 -0.3631  0.9636  2.1072
  488MOL0     C64340   9.485   5.448   8.324  0.3960 -0.2703 -1.2270
  488MOL0     C64341   9.569   5.386   8.412  0.1160 -0.5381 -0.2988
  488MOL0     O64342   9.533   5.353   8.540  1.2624  0.5537  0.0126
  488MOL0     C64343   9.626   5.371   8.650 -0.2478  0.4339  0.8913
  488MOL0     C64344   9.639   5.528   8.686 -0.1312  0.9328 -0.0008
  488MOL0     C64345   9.734   5.562   8.802  0.3099 -0.9554  0.3622
  488MOL0     C64346   9.728   5.711   8.821 -0.4155  0.2803  0.1598
  488MOL0     C64347   9.602   5.759   8.890 -0.5389  0.1327  0.1097
  488MOL0     C64348   9.502   5.773   8.954  0.1477  0.0388  0.2771
  488MOL0     C64349   9.694   5.350   8.371 -0.1623  0.2314  0.9038
  488MOL0     C64350   9.727   5.362   8.234  0.4183  0.5739 -0.4230
  488MOL0     H64351   9.468   5.684   7.801 -1.9918  2.4973 -4.0050
  488MOL0     H64352   9.428   5.705   7.553 -1.7137 -0.3644  1.9906
  488MOL0     H64353   9.423   5.703   7.298  0.2263  0.1990  1.5490
  488MOL0     H64354   9.313   5.562   7.337  1.2465 -0.8674  2.7393
  488MOL0     H64355   9.304   5.592   7.110  0.7674  2.5046  1.8862
  488MOL0     H64356   9.388   5.442   7.144 -0.0657  0.5253 -0.0481
  488MOL0     H64357   9.487   5.547   6.959 -1.2580 -0.3467  0.6309
  488MOL0     H64358   9.611   5.546   7.069 -0.5212 -2.1671 -2.3479
  488MOL0     H64359   9.414   5.772   7.034 -0.8114 -2.6725 -0.2558
  488MOL0     H64360   9.560   5.793   7.132 -0.1424  2.0352 -1.5758
  488MOL0     H64361   9.550   5.721   6.827  0.2390  1.6325 -1.0849
  488MOL0     H64362   9.696   5.751   6.914 -0.0484 -2.5386  1.5710
  488MOL0     H64363   9.636   5.989   6.903 -2.1148  2.6871 -1.0634
  488MOL0     H64364   9.472   5.940   6.867  0.8775  4.3270  2.2253
  488MOL0     H64365   9.720   5.878   6.707 -1.7283 -2.1780  0.4782
  488MOL0     H64366   9.579   5.858   6.631  1.0096 -0.6036 -1.2698
  488MOL0     H64367   9.686   6.145   6.699  0.0873  0.8756 -1.1770
  488MOL0     H64368   9.509   6.119   6.671 -1.2982 -1.7960  0.0813
  488MOL0     H64369   9.880   6.110   6.517  0.6930  4.2451 -1.5353
  488MOL0     H64370   9.932   6.248   6.241 -2.5006  3.0813  0.4873
  488MOL0     H64371   9.798   6.229   6.149  2.1233  0.6341 -1.1385
  488MOL0     H64372   9.846   5.963   6.176 -0.0489 -0.0974  0.9028
  488MOL0     H64373  10.005   6.015   6.219  1.5737  3.7914 -1.6710
  488MOL0     H64374   9.846   6.041   5.956 -0.1889  1.2173 -0.6197
  488MOL0     H64375   9.976   6.158   5.995 -0.5842  0.2235 -2.7271
  488MOL0     H64376  10.000   5.856   5.965  0.8894 -0.8762  0.3637
  488MOL0     H64377  10.125   5.945   6.038 -2.3793 -1.7928  2.9471
  488MOL0     H64378  10.000   5.721   5.814 -1.6619  1.0783 -1.3096
  488MOL0     H64379  10.108   5.552   5.676 -0.1144 -0.5939 -1.2600
  488MOL0     H64380  10.614   5.703   5.392 -1.3646 -0.0714  1.4670
  488MOL0     H64381  10.795   5.596   5.283 -1.5538  2.2947  2.4176
  488MOL0     H64382  10.915   5.181   5.122  0.1179  3.3417  0.5648
  488MOL0     H64383  10.747   5.161   5.105 -1.2813  2.1828 -0.4452
  488MOL0     H64384  10.850   5.017   5.275  1.9505  0.0185  1.0151
  488MOL0     H64385  10.735   5.118   5.350  0.1529 -0.2129 -0.4700
  488MOL0     H64386  10.896   5.238   5.461  1.5200  3.1001 -2.5695
  488MOL0     H64387  11.032   5.206   5.354  2.1699 -2.2618  0.1644
  488MOL0     H64388  10.915   4.967   5.463 -0.9910  1.0358 -4.9877
  488MOL0     H64389  11.078   5.013   5.440  0.9398  3.2596  0.1966
  488MOL0     H64390  10.900   5.133   5.660 -0.1000 -1.1671 -1.5774
  488MOL0     H64391  11.081   5.158   5.631  2.3579 -1.9204  0.9177
  488MOL0     H64392  11.121   4.928   5.703 -0.2564 -0.0802  0.4933
  488MOL0     H64393  10.950   4.894   5.684 -1.4411  0.8072  1.1503
  488MOL0     H64394  11.095   5.080   5.886  1.7661  1.2361 -1.9864
  488MOL0     H64395  10.930   5.071   5.883  0.5280  0.6288 -0.2583
  488MOL0     H64396  10.906   4.848   5.950 -0.0473  2.6408  1.1919
  488MOL0     H64397  11.023   4.917   6.059  3.0683  0.0683  0.1105
  488MOL0     H64398  10.571   5.245   5.206  4.2418  0.3854 -2.3082
  488MOL0     H64399  10.362   5.372   5.286 -0.8951  2.0347 -3.3897
  488MOL0     H64400  10.381   5.846   5.526 -0.0293 -1.1903  0.7102
  488MOL0     H64401  10.289   6.017   5.660  0.6562  0.8583  0.7673
  488MOL0     H64402   9.663   5.352   7.472  1.7625  2.0956 -1.7550
  488MOL0     H64403   9.704   5.334   7.746 -3.1765  0.5975  4.2393
  488MOL0     H64404   9.438   5.501   8.121  0.9035 -1.5501 -1.2324
  488MOL0     H64405   9.388   5.488   8.353  0.7375  0.5369 -1.1700
  488MOL0     H64406   9.727   5.330   8.640 -0.1026  0.5414  1.8852
  488MOL0     H64407   9.572   5.321   8.730  0.3853 -1.9132 -0.0631
  488MOL0     H64408   9.689   5.559   8.594  2.8386 -1.5314  0.6521
  488MOL0     H64409   9.535   5.558   8.703 -0.5283 -0.6741  0.6178
  488MOL0     H64410   9.837   5.532   8.781  0.5752 -1.3219  2.0736
  488MOL0     H64411   9.701   5.505   8.889  3.6308  0.0249  2.4466
  488MOL0     H64412   9.819   5.735   8.876 -0.4728  0.8544  0.0112
  488MOL0     H64413   9.741   5.759   8.724  0.8331 -0.2226  0.0640
  488MOL0     H64414   9.411   5.797   9.005  0.1476 -1.3190  0.9681
  488MOL0     H64415   9.757   5.301   8.446 -1.0348 -0.5137  1.1637
  488MOL0     H64416   9.822   5.325   8.197  0.9610  0.9352  0.5634
  489MOL0     O64417   9.905   6.805   5.838  0.4532 -0.4948 -0.3786
  489MOL0     C64418   9.995   6.772   5.913  0.4260 -0.3669 -0.3384
  489MOL0     O64419  10.053   6.850   6.011  0.8459 -0.3360  0.0605
  489MOL0     C64420  10.024   6.984   6.033  0.7511 -0.0588 -0.1233
  489MOL0     C64421  10.005   7.068   5.928 -0.1268  0.2164  0.3436
  489MOL0     C64422   9.983   7.203   5.956  0.2848  0.0589 -0.0609
  489MOL0     C64423   9.995   7.252   6.091 -0.7185 -0.8483 -0.2051
  489MOL0     O64424   9.985   7.386   6.131 -0.0550 -0.4426  0.7868
  489MOL0     C64425   9.929   7.476   6.039  0.0062 -0.3066  0.3945
  489MOL0     C64426   9.974   7.613   6.093  0.5409  0.0151  0.2230
  489MOL0     C64427   9.892   7.720   6.010 -0.5343 -0.2440 -0.0615
  489MOL0     C64428   9.903   7.724   5.857 -0.6104  0.0825 -1.3950
  489MOL0     C64429   9.813   7.850   5.804 -0.3802  0.5981 -1.1896
  489MOL0     C64430   9.828   7.864   5.660 -0.1729 -0.0650  0.1117
  489MOL0     C64431   9.752   7.973   5.597  0.0442  0.0051 -0.2847
  489MOL0     C64432   9.749   7.988   5.442 -0.5854  0.2589  0.0728
  489MOL0     N64433   9.879   7.979   5.370  0.4093  0.8325  0.1630
  489MOL0     C64434   9.972   8.078   5.349  0.2040  0.4700 -0.8404
  489MOL0     C64435  10.047   8.051   5.247  0.9749 -0.2427  0.5357
  489MOL0     C64436  10.168   8.119   5.194 -0.4149  0.6128 -0.0706
  489MOL0     C64437  10.114   8.185   5.068  0.5446 -0.0921 -0.2140
  489MOL0     C64438  10.236   8.258   5.006 -0.0484 -0.6001  0.0650
  489MOL0     C64439  10.185   8.358   4.899 -0.6080  0.1829 -0.1633
  489MOL0     O64440  10.091   8.457   4.947  0.2595 -0.0632 -0.9989
  489MOL0     C64441   9.966   8.454   4.894  0.6139  0.3855  0.7633
  489MOL0     C64442   9.879   8.529   4.963  0.4932 -0.1378 -1.0675
  489MOL0     C64443   9.743   8.552   4.924 -1.1336 -0.1800 -0.6619
  489MOL0     C64444   9.692   8.491   4.804  0.0639  0.5651 -0.6587
  489MOL0     C64445   9.558   8.503   4.747 -0.1802 -0.0480 -0.0632
  489MOL0     O64446   9.470   8.591   4.817 -0.1415 -0.6497 -0.4779
  489MOL0     C64447   9.342   8.598   4.774  0.1607 -1.3670  0.7736
  489MOL0     C64448   9.313   8.691   4.679  1.4058  0.2675  0.5429
  489MOL0     C64449   9.192   8.696   4.616 -0.3695  0.0110  0.1937
  489MOL0     C64450   9.092   8.602   4.637 -0.1969 -0.6985 -0.3804
  489MOL0     O64451   8.985   8.611   4.549 -0.3893 -0.1048 -0.5904
  489MOL0     C64452   8.866   8.667   4.613 -0.7466  0.5776  0.0381
  489MOL0     C64453   8.736   8.658   4.523  0.2508  0.0275 -0.3175
  489MOL0     C64454   8.738   8.739   4.391  0.5251  0.8761 -0.3349
  489MOL0     C64455   8.729   8.893   4.414  0.9003  0.2527 -0.4279
  489MOL0     C64456   8.603   8.941   4.469  0.2166 -1.1521 -0.6816
  489MOL0     C64457   8.474   8.905   4.406  0.1001  0.3813 -0.5490
  489MOL0     C64458   8.335   8.955   4.446  0.2719  0.2986  0.4211
  489MOL0     C64459   8.240   8.857   4.382  0.2081 -0.3116  0.0262
  489MOL0    Cl64460   8.073   8.938   4.369 -0.0710 -0.3166  0.3380
  489MOL0     C64461   9.117   8.509   4.740  0.8697  0.2605 -1.3879
  489MOL0     C64462   9.239   8.507   4.812 -0.3151  0.1998 -0.3235
  489MOL0     O64463   9.532   8.430   4.652 -0.3863  0.0984 -0.8200
  489MOL0     C64464   9.788   8.415   4.733  0.3204 -0.6684  0.1324
  489MOL0     C64465   9.920   8.401   4.777 -0.5789  1.2259  0.7097
  489MOL0     N64466  10.005   7.930   5.208  0.0581 -1.0322 -0.3011
  489MOL0     N64467   9.893   7.901   5.267 -0.7672 -0.0935  0.3269
  489MOL0     C64468  10.025   7.162   6.192 -0.0566  0.4244 -0.2201
  489MOL0     C64469  10.033   7.025   6.163 -0.3442 -0.2853 -0.0826
  489MOL0     C64470  10.050   6.638   5.913  0.6208  1.4340 -0.1559
  489MOL0     C64471  10.063   6.562   5.799 -0.0249 -0.2787 -0.1061
  489MOL0     C64472  10.128   6.440   5.793  0.1750 -0.6073  0.1163
  489MOL0     C64473  10.185   6.390   5.914  0.3653  0.2621 -0.0931
  489MOL0     O64474  10.272   6.287   5.899 -0.4574  0.2126  0.2401
  489MOL0     C64475  10.367   6.269   5.996 -0.5152  0.0814  0.0039
  489MOL0     C64476  10.474   6.172   5.956 -0.5188 -0.2569  0.5771
  489MOL0     C64477  10.550   6.107   6.078 -0.4951 -0.0166 -0.0734
  489MOL0     C64478  10.452   6.014   6.157 -1.0407  0.2237 -0.2467
  489MOL0     C64479  10.414   5.896   6.087 -0.6626  0.1329 -0.5747
  489MOL0     C64480  10.376   5.796   6.028  0.3029 -0.1272 -1.2237
  489MOL0     C64481  10.164   6.454   6.038 -0.3622 -1.1701 -0.4118
  489MOL0     C64482  10.102   6.579   6.036 -0.0686 -0.5625 -1.0453
  489MOL0     H64483  10.020   7.026   5.829 -1.8243 -0.5147  0.3607
  489MOL0     H64484   9.954   7.260   5.869 -1.3508 -2.6193 -1.4076
  489MOL0     H64485   9.823   7.449   6.026  0.1145  0.3137 -2.1129
  489MOL0     H64486   9.971   7.468   5.939 -1.5757  1.6112 -0.4994
  489MOL0     H64487  10.081   7.618   6.072  0.0684 -0.3091 -2.7151
  489MOL0     H64488   9.952   7.639   6.197  1.1343 -2.1518  0.9567
  489MOL0     H64489   9.930   7.816   6.045  1.8457 -1.6136  1.3991
  489MOL0     H64490   9.789   7.700   6.043 -0.3193 -1.0688  0.1374
  489MOL0     H64491  10.010   7.722   5.833 -0.5299 -0.6262 -1.0122
  489MOL0     H64492   9.851   7.636   5.818 -0.6120 -0.3077 -0.5434
  489MOL0     H64493   9.839   7.938   5.863 -1.1773  0.5897 -0.8150
  489MOL0     H64494   9.709   7.838   5.834 -0.6068  1.4798 -1.5764
  489MOL0     H64495   9.807   7.770   5.608  0.7204  1.4294 -3.2370
  489MOL0     H64496   9.932   7.888   5.637 -0.2208 -0.8335 -0.9473
  489MOL0     H64497   9.647   7.959   5.624  0.7580 -3.8643  1.1725
  489MOL0     H64498   9.786   8.071   5.632  1.4521  0.1248 -1.8683
  489MOL0     H64499   9.700   8.082   5.412 -0.8528  0.0768 -0.0730
  489MOL0     H64500   9.690   7.910   5.393  0.4111 -0.6037  0.2233
  489MOL0     H64501   9.990   8.166   5.411  2.0469  0.7970 -1.7716
  489MOL0     H64502  10.246   8.049   5.162 -0.3996  0.8815 -0.6308
  489MOL0     H64503  10.215   8.189   5.264 -0.4588 -0.8933  1.5217
  489MOL0     H64504  10.041   8.263   5.092 -1.2389 -0.4347 -3.8293
  489MOL0     H64505  10.066   8.114   4.999 -0.0350  0.6177 -0.5545
  489MOL0     H64506  10.293   8.318   5.078  4.5602 -1.8140 -2.2292
  489MOL0     H64507  10.307   8.182   4.973 -0.8164 -0.7679 -1.2676
  489MOL0     H64508  10.144   8.303   4.813 -0.4843  0.9037 -0.6974
  489MOL0     H64509  10.278   8.402   4.860  1.9659 -3.7795  0.9852
  489MOL0     H64510   9.913   8.575   5.055 -0.4941  0.9115 -1.2022
  489MOL0     H64511   9.680   8.612   4.988  2.0136 -0.4341  3.0472
  489MOL0     H64512   9.390   8.764   4.654 -0.3091  2.0915  0.3384
  489MOL0     H64513   9.183   8.768   4.535  0.6721  4.2769  3.4920
  489MOL0     H64514   8.882   8.774   4.631  0.8004  0.1969  1.1731
  489MOL0     H64515   8.852   8.620   4.710  0.4424 -1.5228 -0.7511
  489MOL0     H64516   8.656   8.695   4.588  2.8969  0.5361  2.8687
  489MOL0     H64517   8.718   8.551   4.505 -1.9081 -0.9057  5.2675
  489MOL0     H64518   8.666   8.709   4.314  0.8344 -3.2294  0.7456
  489MOL0     H64519   8.837   8.714   4.352  0.6995 -1.4438  1.4203
  489MOL0     H64520   8.812   8.914   4.483 -0.4727 -1.5537  1.9384
  489MOL0     H64521   8.757   8.937   4.318  2.3585 -1.0122 -0.6215
  489MOL0     H64522   8.617   9.049   4.475 -0.2268 -1.1228  0.0626
  489MOL0     H64523   8.596   8.913   4.575  1.1112  1.6097  0.1870
  489MOL0     H64524   8.470   8.796   4.420 -2.5128  0.7461  2.7805
  489MOL0     H64525   8.498   8.921   4.301  2.3355  1.4009  0.0596
  489MOL0     H64526   8.315   8.966   4.553  0.9196  0.3428  0.5428
  489MOL0     H64527   8.323   9.055   4.404  0.4500  0.3392  0.4657
  489MOL0     H64528   8.234   8.759   4.431 -0.0060 -0.2692  0.0868
  489MOL0     H64529   8.263   8.822   4.281  0.6264 -0.6886  0.2462
  489MOL0     H64530   9.038   8.439   4.764 -0.7780  2.4982  0.1144
  489MOL0     H64531   9.254   8.427   4.884  2.2274 -2.2745 -3.2964
  489MOL0     H64532   9.757   8.348   4.654  0.3278 -1.4434  0.7728
  489MOL0     H64533   9.987   8.344   4.714  0.6576  1.7337  1.5183
  489MOL0     H64534  10.036   7.199   6.294  0.9451  2.3937 -0.9766
  489MOL0     H64535  10.050   6.952   6.242 -0.3839  2.2732  2.4805
  489MOL0     H64536  10.022   6.591   5.703 -2.4871 -0.7505  0.7265
  489MOL0     H64537  10.150   6.405   5.693 -4.0560  0.6650 -1.4916
  489MOL0     H64538  10.320   6.226   6.086  4.6279 -3.6635  1.3797
  489MOL0     H64539  10.410   6.367   6.018 -0.6528  0.6222 -2.0085
  489MOL0     H64540  10.439   6.094   5.887 -1.5049 -1.3721  2.2571
  489MOL0     H64541  10.538   6.232   5.890 -2.8885  0.4944 -1.1911
  489MOL0     H64542  10.588   6.190   6.139  0.4265  1.8826 -3.0370
  489MOL0     H64543  10.632   6.040   6.050  0.3159  1.0765 -0.3736
  489MOL0     H64544  10.502   5.977   6.247 -1.1285  2.7314  0.9221
  489MOL0     H64545  10.371   6.075   6.199 -1.6524 -1.5390  1.2806
  489MOL0     H64546  10.344   5.703   5.985 -0.7289  1.1047 -3.2738
  489MOL0     H64547  10.211   6.419   6.129  1.3372 -0.4180 -0.9618
  489MOL0     H64548  10.120   6.635   6.127  1.8186 -1.3490 -0.8917
  490MOL0     O64549   0.125   8.789   5.821  0.7417  1.2104 -0.1336
  490MOL0     C64550   0.206   8.702   5.771 -0.1750 -0.3168  0.1669
  490MOL0     O64551   0.341   8.706   5.787 -0.5355 -0.5640 -0.6120
  490MOL0     C64552   0.384   8.793   5.880  0.4085 -0.2682 -0.5894
  490MOL0     C64553   0.366   8.774   6.021  0.1417 -0.1369 -0.2118
  490MOL0     C64554   0.420   8.864   6.113  0.5904 -0.0752  0.3566
  490MOL0     C64555   0.472   8.978   6.072 -0.1615  0.0473 -0.0234
  490MOL0     O64556   0.501   9.065   6.170  0.3585  0.0878  0.3400
  490MOL0     C64557   0.524   9.204   6.141 -0.0773 -0.7883 -0.5969
  490MOL0     C64558   0.564   9.259   6.284  0.0555 -0.5238 -0.7201
  490MOL0     C64559   0.557   9.415   6.297  0.9564  0.7076  0.0446
  490MOL0     C64560   0.600   9.466   6.432 -1.4161  0.0535  0.0692
  490MOL0     C64561   0.543   9.605   6.452 -0.8903 -0.3761  0.0504
  490MOL0     C64562   0.597   9.667   6.583 -0.1320  0.2343  0.3976
  490MOL0     C64563   0.539   9.805   6.603 -0.0694  0.9919 -0.5043
  490MOL0     C64564   0.603   9.908   6.510  0.2912  0.4365 -0.0998
  490MOL0     N64565   0.552  10.039   6.531 -0.3339  0.8810  0.3644
  490MOL0     C64566   0.570  10.133   6.439  0.3556  0.0319  0.9114
  490MOL0     C64567   0.546  10.253   6.491 -0.3159 -0.5649  0.7404
  490MOL0     C64568   0.570  10.383   6.425  0.3545 -0.3302  0.1657
  490MOL0     C64569   0.703  10.434   6.414 -0.7752 -0.3304 -0.2480
  490MOL0     C64570   0.715  10.583   6.396 -0.6120  0.1854  0.1705
  490MOL0     C64571   0.860  10.613   6.360 -0.3149  0.3793 -0.7913
  490MOL0     O64572   0.883  10.751   6.344 -0.0778 -0.2751 -0.7455
  490MOL0     C64573   0.858  10.813   6.225  0.1373  0.2272  0.0507
  490MOL0     C64574   0.785  10.741   6.119 -0.3762  0.6079 -0.8950
  490MOL0     C64575   0.736  10.814   6.004 -1.3746  0.8901 -0.2021
  490MOL0     C64576   0.782  10.949   5.992  0.1715 -1.0029  0.8025
  490MOL0     C64577   0.751  11.020   5.866  0.7837 -0.5415 -0.3116
  490MOL0     O64578   0.838  11.107   5.819 -0.1916 -0.7522 -0.1137
  490MOL0     C64579   0.828  11.191   5.716 -0.1194  0.4817  0.0685
  490MOL0     C64580   0.738  11.182   5.601 -0.5328  1.4290 -0.6316
  490MOL0     C64581   0.741  11.283   5.501 -0.0624 -1.3277 -0.0301
  490MOL0     C64582   0.830  11.391   5.514  1.0272 -0.3718  0.0129
  490MOL0     O64583   0.804  11.476   5.407 -0.8823  0.4893 -0.5196
  490MOL0     C64584   0.872  11.600   5.410  0.3001  0.5412  0.4816
  490MOL0     C64585   0.799  11.683   5.511 -0.2049  0.0531 -0.1545
  490MOL0     C64586   0.851  11.815   5.547  0.3337 -0.4667 -0.2971
  490MOL0     C64587   0.755  11.913   5.623 -0.1780 -0.6083  0.1492
  490MOL0     C64588   0.827  12.044   5.670  0.0140  0.8974 -0.3933
  490MOL0     C64589   0.733  12.146   5.734  0.3386 -0.1198 -0.4011
  490MOL0     C64590   0.638  12.219   5.630 -0.1346  0.0845 -0.6421
  490MOL0     C64591   0.554  12.331   5.679  0.8913 -0.1310  0.6435
  490MOL0    Cl64592   0.403  12.295   5.758  0.0579  0.0329  0.0261
  490MOL0     C64593   0.921  11.396   5.616 -0.3716 -0.4446 -0.7374
  490MOL0     C64594   0.921  11.298   5.713  0.3225 -0.2127  0.5078
  490MOL0     O64595   0.638  10.993   5.817 -0.9473 -0.3660 -0.3698
  490MOL0     C64596   0.856  11.010   6.101  1.0643 -0.0259  0.1807
  490MOL0     C64597   0.890  10.945   6.211  0.5981  0.0436 -1.5320
  490MOL0     N64598   0.529  10.223   6.631  0.7037 -0.1372  0.2252
  490MOL0     N64599   0.526  10.091   6.654 -0.1547  0.1818  0.0788
  490MOL0     C64600   0.486   9.006   5.934  0.1861  0.7273 -0.4044
  490MOL0     C64601   0.450   8.913   5.837  0.5301  0.0488 -0.7868
  490MOL0     C64602   0.157   8.605   5.668 -0.2727  0.1537  0.3032
  490MOL0     C64603   0.022   8.586   5.634  0.7539 -0.2152 -0.0713
  490MOL0     C64604  -0.006   8.512   5.517 -0.2633 -0.8339 -0.5379
  490MOL0     C64605   0.095   8.463   5.429 -0.3974 -0.1369 -0.5058
  490MOL0     O64606   0.056   8.392   5.318  0.1023 -0.3523 -0.1607
  490MOL0     C64607   0.132   8.320   5.217  0.1139  0.1710  1.4723
  490MOL0     C64608   0.182   8.183   5.261  0.2120 -0.8363  0.0058
  490MOL0     C64609   0.078   8.067   5.302  0.0288 -0.2107 -0.4338
  490MOL0     C64610   0.036   8.062   5.448 -0.1774 -0.1908 -0.1234
  490MOL0     C64611  -0.009   7.926   5.489 -0.0045 -0.3355  0.7379
  490MOL0     C64612  -0.078   7.828   5.504 -0.4084  0.2082  0.4023
  490MOL0     C64613   0.225   8.474   5.465 -0.1253  0.5761  0.2055
  490MOL0     C64614   0.262   8.551   5.579  0.0124 -0.6378  0.7601
  490MOL0     H64615   0.335   8.683   6.073  0.4362  1.4147  2.9719
  490MOL0     H64616   0.395   8.843   6.217 -1.4978 -1.0251 -0.2849
  490MOL0     H64617   0.429   9.244   6.105 -0.3697 -1.6040 -0.7733
  490MOL0     H64618   0.614   9.216   6.081  0.5030  1.1178  0.5855
  490MOL0     H64619   0.670   9.235   6.295  1.0235  2.9410 -1.1499
  490MOL0     H64620   0.488   9.218   6.351 -0.3287  0.4833 -0.5187
  490MOL0     H64621   0.457   9.457   6.285  0.5586 -0.2979 -0.3040
  490MOL0     H64622   0.632   9.460   6.232  2.2679  0.7226  1.5342
  490MOL0     H64623   0.576   9.397   6.514 -0.9824  1.6020  1.5656
  490MOL0     H64624   0.708   9.486   6.431 -1.6751  1.5969  0.7032
  490MOL0     H64625   0.434   9.610   6.457 -0.8362  2.4985 -0.0193
  490MOL0     H64626   0.571   9.664   6.364 -1.2116 -0.4987 -0.1357
  490MOL0     H64627   0.706   9.658   6.586 -0.0764 -2.3847 -3.1713
  490MOL0     H64628   0.556   9.608   6.665 -0.1960 -2.1100 -1.2324
  490MOL0     H64629   0.430   9.798   6.598 -0.4829  3.7980  1.6342
  490MOL0     H64630   0.551   9.825   6.710 -0.8528  1.6977 -0.5383
  490MOL0     H64631   0.580   9.880   6.407  1.8276  0.0220 -0.3602
  490MOL0     H64632   0.712   9.901   6.509  0.2365 -3.8183  1.9714
  490MOL0     H64633   0.602  10.117   6.336 -2.5829  0.1809 -0.1301
  490MOL0     H64634   0.512  10.455   6.483  2.2723 -1.0472  3.2352
  490MOL0     H64635   0.522  10.381   6.327 -1.5965  3.6500  0.8484
  490MOL0     H64636   0.748  10.386   6.326 -2.5361 -0.5635 -1.0619
  490MOL0     H64637   0.781  10.408   6.486  0.5926  3.6289 -0.0607
  490MOL0     H64638   0.646  10.608   6.315  1.8452 -0.8527 -2.4025
  490MOL0     H64639   0.695  10.622   6.497  4.4560  0.0850  1.4767
  490MOL0     H64640   0.900  10.561   6.272  0.9860 -4.2857  2.1440
  490MOL0     H64641   0.925  10.579   6.442 -1.5742  3.0582  1.4751
  490MOL0     H64642   0.768  10.634   6.125  0.8721  0.4691  0.9377
  490MOL0     H64643   0.675  10.777   5.922  0.2637 -0.3238 -0.9430
  490MOL0     H64644   0.665  11.103   5.585  0.5978  0.0970  0.5395
  490MOL0     H64645   0.673  11.292   5.417 -0.6450  4.7296  0.6478
  490MOL0     H64646   0.874  11.649   5.312 -0.5858 -2.7312 -1.3255
  490MOL0     H64647   0.977  11.576   5.427 -0.2386 -4.0918 -1.3504
  490MOL0     H64648   0.802  11.623   5.602 -2.4300  1.5341  0.9733
  490MOL0     H64649   0.693  11.687   5.482  0.4200 -1.4662 -3.0734
  490MOL0     H64650   0.897  11.865   5.462  2.1199  0.5537  1.1982
  490MOL0     H64651   0.936  11.806   5.616  0.1624 -0.5172 -0.0918
  490MOL0     H64652   0.674  11.937   5.553 -0.1950 -0.9027  0.0654
  490MOL0     H64653   0.713  11.860   5.708  0.0805  1.2421  1.4813
  490MOL0     H64654   0.886  12.088   5.589  1.7700  0.0610  0.3784
  490MOL0     H64655   0.895  12.031   5.754 -3.3739  0.4258  2.5003
  490MOL0     H64656   0.791  12.225   5.783 -3.2723 -0.0066  4.4666
  490MOL0     H64657   0.674  12.101   5.815  1.4265  0.3102  0.6631
  490MOL0     H64658   0.691  12.256   5.542  0.4843 -0.3729 -0.4695
  490MOL0     H64659   0.567  12.142   5.599 -2.4667  1.5036  0.9169
  490MOL0     H64660   0.521  12.402   5.603 -1.1979 -1.6050  0.0850
  490MOL0     H64661   0.611  12.393   5.748 -0.4592 -0.2421  1.8838
  490MOL0     H64662   0.988  11.480   5.632  1.0548 -1.9300  1.7429
  490MOL0     H64663   1.001  11.299   5.787  2.9193  0.4345 -2.1105
  490MOL0     H64664   0.892  11.110   6.081  1.4428 -0.1732  0.1209
  490MOL0     H64665   0.934  10.996   6.297 -4.1222  0.3274  1.0529
  490MOL0     H64666   0.530   9.102   5.908 -3.7292  2.6471 -0.6704
  490MOL0     H64667   0.455   8.925   5.730 -1.1713  2.4587 -0.6694
  490MOL0     H64668  -0.063   8.620   5.693 -1.0342 -1.2616 -1.9147
  490MOL0     H64669  -0.114   8.497   5.512 -0.7533  0.7173  2.7657
  490MOL0     H64670   0.217   8.384   5.190  0.1637  0.9632  3.3471
  490MOL0     H64671   0.072   8.302   5.128 -0.2868 -0.3996  1.8439
  490MOL0     H64672   0.229   8.135   5.174 -0.3981 -0.8921 -0.2989
  490MOL0     H64673   0.256   8.199   5.339  1.1128 -0.9522 -0.8063
  490MOL0     H64674   0.104   7.968   5.263  0.0303  0.2615 -1.6894
  490MOL0     H64675  -0.009   8.082   5.237 -2.0154 -1.7837  1.7519
  490MOL0     H64676   0.127   8.081   5.505 -0.3681 -0.4247  0.2685
  490MOL0     H64677  -0.017   8.146   5.494  1.3826  1.3916 -1.1241
  490MOL0     H64678  -0.121   7.730   5.498  0.7140 -0.2679 -0.0524
  490MOL0     H64679   0.299   8.429   5.400  0.2264  0.7068  0.5131
  490MOL0     H64680   0.362   8.592   5.587 -0.4076  0.0724  3.2153
  491MOL0     O64681   6.763   1.230   3.328  0.7165  0.5673  1.0234
  491MOL0     C64682   6.861   1.163   3.356  0.8112  0.4817 -0.4394
  491MOL0     O64683   6.860   1.057   3.452 -0.0602 -0.4879  0.0094
  491MOL0     C64684   6.739   1.041   3.525 -0.9353 -0.3289 -0.4145
  491MOL0     C64685   6.639   1.136   3.563  0.4202  0.7993  0.2611
  491MOL0     C64686   6.529   1.089   3.642  0.5807 -0.5505 -0.1854
  491MOL0     C64687   6.519   0.960   3.688  0.3376 -0.3605 -0.0896
  491MOL0     O64688   6.403   0.952   3.764  0.0822 -0.3185  0.7648
  491MOL0     C64689   6.331   0.831   3.783 -0.0875  0.4439  0.3210
  491MOL0     C64690   6.194   0.853   3.736  0.4763 -0.3809  0.2644
  491MOL0     C64691   6.103   0.738   3.717 -0.6070  0.1184  0.4851
  491MOL0     C64692   5.977   0.779   3.643  0.6097 -0.6758  0.3029
  491MOL0     C64693   5.899   0.655   3.603 -0.6228 -0.0815  1.3437
  491MOL0     C64694   5.793   0.695   3.492  0.6798  0.2719 -0.4540
  491MOL0     C64695   5.687   0.802   3.544  0.1064 -0.5537 -0.1119
  491MOL0     C64696   5.671   0.915   3.443 -0.5569 -0.7399 -0.1036
  491MOL0     N64697   5.770   1.021   3.450 -0.6442 -0.6333 -0.3160
  491MOL0     C64698   5.755   1.118   3.540  0.5850 -0.3649  0.2127
  491MOL0     C64699   5.854   1.204   3.518  0.2093 -0.3939 -1.2176
  491MOL0     C64700   5.902   1.312   3.614 -0.1654  0.6125 -0.0159
  491MOL0     C64701   6.009   1.249   3.711 -0.4705 -0.0211  0.6129
  491MOL0     C64702   6.158   1.260   3.667 -0.7395 -0.4206 -0.9758
  491MOL0     C64703   6.204   1.394   3.623  1.4085 -0.0837  0.1284
  491MOL0     O64704   6.350   1.401   3.623 -0.6542 -0.6189 -0.1238
  491MOL0     C64705   6.386   1.502   3.547  0.9657 -0.1807 -0.2641
  491MOL0     C64706   6.451   1.469   3.427 -0.7794  0.3448 -0.6224
  491MOL0     C64707   6.496   1.573   3.332  1.4627  1.1066  0.3568
  491MOL0     C64708   6.479   1.711   3.367 -0.4995  0.0923 -0.1868
  491MOL0     C64709   6.531   1.810   3.279 -0.8251 -0.0086  0.4555
  491MOL0     O64710   6.542   1.778   3.148 -0.3891  0.8817  0.4909
  491MOL0     C64711   6.576   1.881   3.070  0.0750  0.1436  0.7684
  491MOL0     C64712   6.708   1.902   3.034  0.0662 -0.4272 -0.5239
  491MOL0     C64713   6.743   2.025   2.968  0.4600 -0.5803 -0.2833
  491MOL0     C64714   6.641   2.107   2.932 -0.3509 -0.4543 -0.3279
  491MOL0     O64715   6.673   2.204   2.839 -0.5857 -0.2748  0.4067
  491MOL0     C64716   6.650   2.160   2.702  0.4910  0.0278 -0.2628
  491MOL0     C64717   6.779   2.155   2.625 -0.4099  0.0974  1.3688
  491MOL0     C64718   6.828   2.308   2.614 -0.6930 -0.0368 -0.6904
  491MOL0     C64719   6.965   2.316   2.547  1.0349 -0.0336 -0.8962
  491MOL0     C64720   7.009   2.458   2.511  0.4451  0.7144 -0.0588
  491MOL0     C64721   7.046   2.543   2.627  0.6034  0.0262 -0.5758
  491MOL0     C64722   7.047   2.691   2.577 -0.5290 -0.1417  0.0631
  491MOL0     C64723   7.078   2.782   2.689 -0.9183 -1.0969  0.3129
  491MOL0    Cl64724   7.091   2.953   2.626 -0.3160 -0.0290 -0.3844
  491MOL0     C64725   6.510   2.074   2.951  0.2528 -0.0033 -0.4945
  491MOL0     C64726   6.475   1.965   3.024 -0.0294 -0.1749  0.6941
  491MOL0     O64727   6.542   1.921   3.338  1.0795  0.2588  0.0578
  491MOL0     C64728   6.414   1.742   3.491  0.0155  0.6204 -0.0978
  491MOL0     C64729   6.360   1.640   3.570  0.1000 -0.2784 -0.3738
  491MOL0     N64730   5.911   1.165   3.400 -0.0498  1.0631  0.0674
  491MOL0     N64731   5.868   1.045   3.363  0.9700  0.5348 -0.0138
  491MOL0     C64732   6.624   0.868   3.670  0.6210 -1.1124 -0.1018
  491MOL0     C64733   6.730   0.915   3.586 -0.3635 -0.3047 -0.7163
  491MOL0     C64734   6.981   1.182   3.271  0.1011  0.8841 -0.4738
  491MOL0     C64735   7.085   1.091   3.266 -0.9106  0.0531  0.0102
  491MOL0     C64736   7.189   1.104   3.176 -0.1228 -0.0594 -1.1710
  491MOL0     C64737   7.197   1.208   3.080  1.0165 -0.1939  1.1714
  491MOL0     O64738   7.299   1.214   2.988 -1.0667  0.1078  0.2076
  491MOL0     C64739   7.401   1.317   3.010  0.1526  0.7843 -0.0418
  491MOL0     C64740   7.535   1.262   2.970 -0.9076  0.8043  0.2637
  491MOL0     C64741   7.654   1.370   2.976  0.4104  0.4257 -0.4209
  491MOL0     C64742   7.778   1.291   3.018  0.2165 -0.1346  0.3698
  491MOL0     C64743   7.884   1.391   3.027  0.7439 -0.4947  0.1204
  491MOL0     C64744   7.981   1.466   3.025  0.2314  0.0186 -0.1775
  491MOL0     C64745   7.083   1.299   3.080  0.4387  0.3779  0.3212
  491MOL0     C64746   6.983   1.288   3.184 -0.1328  0.9717  0.2431
  491MOL0     H64747   6.641   1.245   3.554 -1.0995  0.7801 -0.6836
  491MOL0     H64748   6.437   1.144   3.659 -1.4610 -3.8159  0.2318
  491MOL0     H64749   6.339   0.806   3.889  0.4948  1.9308  0.6486
  491MOL0     H64750   6.383   0.747   3.736 -0.8399  1.1169 -1.8531
  491MOL0     H64751   6.196   0.909   3.642  0.1539 -0.4192  0.2336
  491MOL0     H64752   6.145   0.927   3.800  0.4805 -0.7312  0.6681
  491MOL0     H64753   6.086   0.694   3.816 -2.9307  1.2565  0.6607
  491MOL0     H64754   6.158   0.671   3.651 -0.8942  1.1131 -0.8031
  491MOL0     H64755   5.913   0.841   3.707 -0.7057 -0.3174 -1.2636
  491MOL0     H64756   6.000   0.839   3.555 -2.9668  1.2791  0.4860
  491MOL0     H64757   5.855   0.605   3.691 -1.4432  0.7697  1.4367
  491MOL0     H64758   5.974   0.590   3.558  1.1650  1.8628  1.3777
  491MOL0     H64759   5.746   0.604   3.454 -1.1695 -0.0210  2.2652
  491MOL0     H64760   5.841   0.732   3.400 -1.3175 -1.0101 -2.1124
  491MOL0     H64761   5.591   0.752   3.555  1.6359 -3.9820 -1.0269
  491MOL0     H64762   5.702   0.849   3.641  1.9014 -0.9341 -0.1708
  491MOL0     H64763   5.576   0.967   3.453 -0.1748 -0.2680  1.2735
  491MOL0     H64764   5.671   0.872   3.342  2.4118 -1.0971 -0.0539
  491MOL0     H64765   5.694   1.102   3.629 -2.1355 -0.4513 -1.5570
  491MOL0     H64766   5.824   1.352   3.681 -1.4592 -2.0136  0.1558
  491MOL0     H64767   5.943   1.397   3.558  0.4003  0.8841  0.7898
  491MOL0     H64768   5.981   1.146   3.738 -1.0971  0.4173  1.6842
  491MOL0     H64769   6.005   1.318   3.796 -2.5473  2.0161 -1.0463
  491MOL0     H64770   6.215   1.236   3.757 -0.5007  1.5845 -0.5436
  491MOL0     H64771   6.169   1.185   3.587  1.5915 -0.4121 -0.7165
  491MOL0     H64772   6.159   1.460   3.697 -1.8971 -2.4625  0.4527
  491MOL0     H64773   6.157   1.420   3.528  0.1254 -2.5136  0.0159
  491MOL0     H64774   6.479   1.366   3.409 -0.6717  0.2918 -0.1668
  491MOL0     H64775   6.540   1.548   3.236  1.9389  1.2538  0.5355
  491MOL0     H64776   6.793   1.838   3.054 -0.3823 -0.9598 -0.3163
  491MOL0     H64777   6.838   2.063   2.931  1.3311 -0.0503  2.2825
  491MOL0     H64778   6.584   2.236   2.660  1.2456 -0.1373 -1.7897
  491MOL0     H64779   6.597   2.064   2.707  1.9653 -0.7547  1.4726
  491MOL0     H64780   6.749   2.123   2.524 -1.5170 -2.6017  2.4684
  491MOL0     H64781   6.842   2.082   2.676 -0.8509  0.1463  1.9944
  491MOL0     H64782   6.838   2.353   2.713  1.8126  3.4480 -2.3223
  491MOL0     H64783   6.754   2.361   2.553 -0.8046 -0.4551 -0.9234
  491MOL0     H64784   7.031   2.280   2.626 -3.9962  0.7278  4.3085
  491MOL0     H64785   6.962   2.249   2.460  2.3198 -1.2082 -0.0703
  491MOL0     H64786   6.929   2.506   2.454 -1.8150 -1.1343  1.3902
  491MOL0     H64787   7.090   2.454   2.437  3.0250 -3.2453  2.5868
  491MOL0     H64788   7.144   2.519   2.669  0.4980 -0.1773 -0.4459
  491MOL0     H64789   6.971   2.524   2.704  0.0966 -1.2022 -1.3457
  491MOL0     H64790   7.129   2.695   2.505  0.0374  1.5711  0.7567
  491MOL0     H64791   6.959   2.729   2.526  1.4921  1.9194 -2.1117
  491MOL0     H64792   7.172   2.744   2.729 -2.0249 -3.2930  0.9896
  491MOL0     H64793   7.004   2.780   2.769  1.7704  0.8844  3.0614
  491MOL0     H64794   6.433   2.144   2.922 -2.0025 -1.8346  0.7199
  491MOL0     H64795   6.372   1.950   3.054  0.2827 -2.0251  0.9986
  491MOL0     H64796   6.387   1.844   3.516  0.1624  0.1620  2.1310
  491MOL0     H64797   6.299   1.679   3.651  0.9167 -2.3551  1.3409
  491MOL0     H64798   6.607   0.770   3.713 -2.1706 -0.7350 -0.1739
  491MOL0     H64799   6.801   0.839   3.555 -0.0038  1.3202 -4.4417
  491MOL0     H64800   7.088   1.007   3.336  2.4635  1.7583  2.1817
  491MOL0     H64801   7.264   1.025   3.180  2.7087  2.4794  1.8666
  491MOL0     H64802   7.407   1.344   3.116  0.2142 -0.7688  0.3794
  491MOL0     H64803   7.380   1.407   2.952  1.4922  0.4732 -1.0591
  491MOL0     H64804   7.561   1.184   3.043 -0.5174  0.5950 -0.0975
  491MOL0     H64805   7.535   1.224   2.868 -0.8965  0.0466  0.5425
  491MOL0     H64806   7.630   1.445   3.052 -0.3300  0.8499 -1.0468
  491MOL0     H64807   7.672   1.418   2.879 -1.1823  2.0400  0.0223
  491MOL0     H64808   7.761   1.254   3.120 -0.8850  0.8503  0.5679
  491MOL0     H64809   7.797   1.210   2.948  1.8530  0.4767  0.0480
  491MOL0     H64810   8.066   1.531   3.032  0.6812 -0.5132 -0.5819
  491MOL0     H64811   7.089   1.382   3.011  0.8608  0.3137  0.2800
  491MOL0     H64812   6.904   1.362   3.190 -2.2161 -1.2080  0.8145
  492MOL0     O64813   3.599   6.566   0.461  0.1672  0.1608 -0.4945
  492MOL0     C64814   3.516   6.565   0.551  1.0205 -0.4283  0.3827
  492MOL0     O64815   3.535   6.561   0.683 -0.0324 -0.0567 -0.4303
  492MOL0     C64816   3.657   6.579   0.740  0.0717  0.0289 -0.9775
  492MOL0     C64817   3.775   6.517   0.695 -1.0017 -0.4525  0.2487
  492MOL0     C64818   3.894   6.528   0.766  0.4189 -0.5384 -1.0181
  492MOL0     C64819   3.897   6.607   0.883 -0.9843 -0.8288  0.3806
  492MOL0     O64820   4.002   6.629   0.964  0.7716 -0.2379  0.6633
  492MOL0     C64821   4.111   6.540   0.965 -0.5982  0.3884 -0.4512
  492MOL0     C64822   4.187   6.591   1.090 -0.0491 -0.5531 -0.8177
  492MOL0     C64823   4.323   6.532   1.104  0.6073 -0.0459  0.1748
  492MOL0     C64824   4.377   6.583   1.237  0.0900 -0.7490 -0.1222
  492MOL0     C64825   4.519   6.540   1.263  1.3850 -0.2200 -0.6861
  492MOL0     C64826   4.562   6.587   1.410 -0.1088  0.3018  0.4938
  492MOL0     C64827   4.719   6.572   1.427 -0.0478  0.4495  1.0105
  492MOL0     C64828   4.757   6.459   1.518 -0.1354 -0.4183 -1.0384
  492MOL0     N64829   4.881   6.390   1.476  0.3630  0.7328 -0.1602
  492MOL0     C64830   5.006   6.416   1.536 -0.2877 -0.2679 -0.8483
  492MOL0     C64831   5.100   6.331   1.479  1.1700  0.1283 -0.4728
  492MOL0     C64832   5.230   6.292   1.526  0.0014 -0.3057  0.3707
  492MOL0     C64833   5.256   6.152   1.593  0.3474 -0.2404 -0.1349
  492MOL0     C64834   5.249   6.042   1.489 -0.0957  0.4436 -0.1769
  492MOL0     C64835   5.261   5.904   1.565  0.1329  0.4038 -0.4850
  492MOL0     O64836   5.387   5.861   1.610  0.5678 -0.4265 -0.0860
  492MOL0     C64837   5.389   5.754   1.692  0.0563  0.4130  0.1294
  492MOL0     C64838   5.284   5.679   1.736 -0.5475 -0.4504  0.0162
  492MOL0     C64839   5.299   5.565   1.818  0.3115 -0.3826 -0.2640
  492MOL0     C64840   5.426   5.526   1.866 -0.4605  0.3543 -0.8507
  492MOL0     C64841   5.442   5.416   1.963  0.1038  0.3855  0.8039
  492MOL0     O64842   5.323   5.367   2.013 -0.0193  0.0778 -0.4375
  492MOL0     C64843   5.315   5.233   2.042  0.0489 -0.4243 -0.1812
  492MOL0     C64844   5.263   5.152   1.941 -0.1639  0.2522  0.5834
  492MOL0     C64845   5.249   5.015   1.969 -0.0509  0.3077  0.0877
  492MOL0     C64846   5.311   4.963   2.086 -0.6155 -0.6034  0.6410
  492MOL0     O64847   5.310   4.828   2.088 -0.8178  0.5184 -0.8248
  492MOL0     C64848   5.334   4.763   2.217 -0.5907 -0.4727 -0.0518
  492MOL0     C64849   5.345   4.613   2.210  0.3569 -0.4397 -0.2722
  492MOL0     C64850   5.442   4.563   2.103 -0.0347  0.5359  0.7473
  492MOL0     C64851   5.496   4.425   2.132 -0.3837  0.8919  0.5269
  492MOL0     C64852   5.619   4.405   2.042 -0.7397  0.4755  0.4537
  492MOL0     C64853   5.688   4.265   2.039  0.4683  0.1993 -0.4656
  492MOL0     C64854   5.592   4.148   2.023 -0.7222 -0.7823  0.5397
  492MOL0     C64855   5.662   4.013   2.041  0.2534  0.9212  0.7210
  492MOL0    Cl64856   5.550   3.888   2.102  0.3197 -0.1769  0.2695
  492MOL0     C64857   5.383   5.052   2.173  0.7517  0.8262  0.4481
  492MOL0     C64858   5.378   5.182   2.151 -0.8593 -0.1565  0.0787
  492MOL0     O64859   5.549   5.371   1.996 -0.2242  0.1766  0.2649
  492MOL0     C64860   5.535   5.599   1.822 -0.5587 -0.8230 -0.2895
  492MOL0     C64861   5.516   5.709   1.728  0.3368 -0.3569  0.8559
  492MOL0     N64862   5.023   6.260   1.386  0.0251  0.1559  0.8212
  492MOL0     N64863   4.904   6.305   1.374 -0.9937 -1.0773 -0.3721
  492MOL0     C64864   3.786   6.665   0.930  0.1532 -0.2179 -0.3784
  492MOL0     C64865   3.669   6.656   0.862  0.1102  0.0479 -0.3535
  492MOL0     C64866   3.374   6.562   0.490 -0.7167  0.6996  0.3468
  492MOL0     C64867   3.356   6.541   0.346 -1.2117 -0.5511  0.1936
  492MOL0     C64868   3.235   6.578   0.297 -0.5544  0.6884  0.5412
  492MOL0     C64869   3.124   6.599   0.373  0.0930  0.7063 -1.0029
  492MOL0     O64870   2.998   6.640   0.325  0.4265  0.1957  0.0954
  492MOL0     C64871   2.952   6.639   0.188 -0.0028 -0.0547 -1.5524
  492MOL0     C64872   2.847   6.749   0.159  0.3507 -0.2819 -1.0325
  492MOL0     C64873   2.908   6.887   0.105 -0.3281 -0.1726  0.0544
  492MOL0     C64874   2.950   6.987   0.208 -0.1899 -0.0137  0.1223
  492MOL0     C64875   3.055   7.081   0.165  1.2907 -0.7714 -0.2025
  492MOL0     C64876   3.139   7.166   0.139  0.5806 -1.0221 -0.2095
  492MOL0     C64877   3.145   6.603   0.517 -0.5747 -0.8879  0.7642
  492MOL0     C64878   3.273   6.585   0.578 -0.4906 -0.4867 -0.3152
  492MOL0     H64879   3.778   6.459   0.603 -2.1438  0.8717 -0.6760
  492MOL0     H64880   3.981   6.488   0.714  1.1491 -3.3257  2.0197
  492MOL0     H64881   4.175   6.558   0.879  5.2747 -4.4328  2.1178
  492MOL0     H64882   4.072   6.438   0.974  1.0640 -0.2317  0.1838
  492MOL0     H64883   4.125   6.577   1.179  0.2340 -0.4014 -0.5952
  492MOL0     H64884   4.202   6.699   1.079  3.8766 -1.1562 -3.2457
  492MOL0     H64885   4.389   6.561   1.022 -1.9924  3.4388 -0.9092
  492MOL0     H64886   4.319   6.423   1.100 -4.0140 -0.0335 -1.2285
  492MOL0     H64887   4.365   6.692   1.239 -2.3166 -0.9251  3.6052
  492MOL0     H64888   4.317   6.549   1.321 -0.4887 -0.1966 -0.3065
  492MOL0     H64889   4.583   6.599   1.197  2.8264 -0.0090  0.8095
  492MOL0     H64890   4.528   6.433   1.245  1.4579 -0.0943 -1.4023
  492MOL0     H64891   4.507   6.540   1.492 -2.0231 -0.8052 -1.3389
  492MOL0     H64892   4.545   6.695   1.413 -1.4633  0.2829 -2.5674
  492MOL0     H64893   4.762   6.560   1.327 -2.1809 -1.5970  0.2436
  492MOL0     H64894   4.760   6.662   1.473 -0.7350  0.1561  2.2424
  492MOL0     H64895   4.679   6.383   1.525 -0.1441 -0.3082  0.4027
  492MOL0     H64896   4.767   6.495   1.621  0.1441 -0.1724 -1.1508
  492MOL0     H64897   5.021   6.474   1.626  0.1540 -3.6101  1.4269
  492MOL0     H64898   5.271   6.373   1.587  0.3964  0.6739 -1.1388
  492MOL0     H64899   5.289   6.309   1.435 -0.5232 -0.2657  0.0309
  492MOL0     H64900   5.189   6.141   1.678 -1.3089  2.0095 -1.0545
  492MOL0     H64901   5.362   6.150   1.621 -0.0133  1.2280  1.4681
  492MOL0     H64902   5.153   6.042   1.435 -1.0733 -2.6863  1.3170
  492MOL0     H64903   5.324   6.053   1.410 -1.7533  2.3969 -1.5942
  492MOL0     H64904   5.223   5.826   1.499 -0.8520  1.7612 -1.5683
  492MOL0     H64905   5.192   5.917   1.649  1.0114 -1.2837  0.5593
  492MOL0     H64906   5.187   5.703   1.694  0.5297  3.0263 -0.8554
  492MOL0     H64907   5.214   5.503   1.846 -1.5267  1.1247 -2.1730
  492MOL0     H64908   5.231   5.187   1.844  1.0529  1.6631  0.6712
  492MOL0     H64909   5.217   4.947   1.890 -0.3436  1.2229 -0.5935
  492MOL0     H64910   5.245   4.787   2.274  1.1157  3.3786  1.3047
  492MOL0     H64911   5.427   4.796   2.264 -0.2903 -1.3805  0.0162
  492MOL0     H64912   5.252   4.557   2.220  1.6055 -2.3475  1.1510
  492MOL0     H64913   5.382   4.578   2.306 -0.8246  1.7694  1.0903
  492MOL0     H64914   5.523   4.636   2.101  0.2158  0.3293  2.3204
  492MOL0     H64915   5.376   4.565   2.016 -0.8093  2.4313  1.3351
  492MOL0     H64916   5.539   4.419   2.233 -0.6458 -1.2569  0.5510
  492MOL0     H64917   5.413   4.355   2.128  0.2060  0.1098  1.4938
  492MOL0     H64918   5.693   4.483   2.064  0.8427 -1.3925  2.1086
  492MOL0     H64919   5.590   4.411   1.937 -0.5509  1.1362  0.4340
  492MOL0     H64920   5.742   4.246   2.133 -0.4445 -0.3910 -0.0445
  492MOL0     H64921   5.766   4.263   1.962  0.2761  3.2486 -0.8494
  492MOL0     H64922   5.503   4.152   2.085 -1.3224 -2.2342 -0.1824
  492MOL0     H64923   5.546   4.153   1.924 -0.6753  4.5305  0.5039
  492MOL0     H64924   5.756   4.024   2.095  1.6927  1.4467 -1.7628
  492MOL0     H64925   5.701   3.990   1.942 -2.2328 -0.5693  0.0115
  492MOL0     H64926   5.439   5.023   2.262 -2.4706 -0.8923  2.1069
  492MOL0     H64927   5.420   5.254   2.220 -0.9115  0.6871 -0.7480
  492MOL0     H64928   5.634   5.577   1.860  0.1138  1.2600 -0.7257
  492MOL0     H64929   5.600   5.766   1.688 -1.1684 -0.3131 -2.6610
  492MOL0     H64930   3.773   6.728   1.017  0.3320 -2.2251  1.1684
  492MOL0     H64931   3.575   6.697   0.897  1.1292  0.3512  2.3062
  492MOL0     H64932   3.440   6.526   0.278 -0.9316  0.2007  0.3588
  492MOL0     H64933   3.220   6.590   0.191  3.8737 -0.2184 -0.3704
  492MOL0     H64934   2.909   6.544   0.154  0.0308 -0.0276 -1.6717
  492MOL0     H64935   3.034   6.665   0.121  0.4507  0.5567 -0.7837
  492MOL0     H64936   2.772   6.703   0.093 -0.3732 -3.9790  1.9796
  492MOL0     H64937   2.793   6.761   0.253  1.2959  2.5590 -0.7520
  492MOL0     H64938   2.827   6.931   0.046 -0.2554 -1.3795 -0.9940
  492MOL0     H64939   2.982   6.861   0.029 -1.1392  3.0185 -1.9830
  492MOL0     H64940   2.860   7.044   0.230 -0.6256 -0.5108 -0.3431
  492MOL0     H64941   2.986   6.935   0.298 -0.3149  1.1322  0.8492
  492MOL0     H64942   3.218   7.233   0.111  0.1498 -0.6180 -0.4843
  492MOL0     H64943   3.062   6.630   0.581 -0.3959 -1.6545  1.3214
  492MOL0     H64944   3.294   6.605   0.683  0.7087 -1.4556 -0.3500
  493MOL0     O64945  10.414   4.165   4.478  0.8571  0.6899 -0.2617
  493MOL0     C64946  10.326   4.244   4.439  1.3449 -0.6511  0.5481
  493MOL0     O64947  10.342   4.350   4.352 -0.1352  0.0621 -0.0637
  493MOL0     C64948  10.461   4.348   4.280  0.0282  0.3103 -0.7154
  493MOL0     C64949  10.477   4.311   4.149  0.0524  0.3819  0.3076
  493MOL0     C64950  10.601   4.321   4.088  0.0811  0.5939  0.4596
  493MOL0     C64951  10.721   4.367   4.153 -0.9971  0.0972  0.6398
  493MOL0     O64952  10.838   4.395   4.089 -0.3534  0.2409 -0.3140
  493MOL0     C64953  10.869   4.352   3.956 -0.6384  0.2823  0.9299
  493MOL0     C64954  11.022   4.340   3.937 -0.3656 -0.9018  0.6032
  493MOL0     C64955  11.044   4.279   3.803 -0.3903  0.5827 -1.0816
  493MOL0     C64956  11.192   4.250   3.768 -0.0922 -0.4969 -1.0916
  493MOL0     C64957  11.222   4.191   3.629 -0.2955 -0.1328 -0.3553
  493MOL0     C64958  11.310   4.069   3.633 -0.8500 -0.5893  0.1512
  493MOL0     C64959  11.390   4.062   3.501 -0.4613 -0.0168 -0.5308
  493MOL0     C64960  11.471   3.924   3.490 -0.3338 -0.0815  0.2330
  493MOL0     N64961  11.387   3.809   3.511  0.1558  0.4854 -0.4086
  493MOL0     C64962  11.285   3.756   3.428 -0.8553  0.6270  0.5005
  493MOL0     C64963  11.236   3.650   3.489  0.4294 -0.1371 -0.3773
  493MOL0     C64964  11.113   3.579   3.450  0.0255  0.3199  0.5740
  493MOL0     C64965  11.129   3.530   3.301 -0.2302  0.1696 -0.5636
  493MOL0     C64966  11.045   3.605   3.201  1.6917 -0.3699 -0.6091
  493MOL0     C64967  10.902   3.578   3.229  0.2767 -0.1373  1.1757
  493MOL0     O64968  10.881   3.440   3.213  0.7975 -0.4369 -0.0855
  493MOL0     C64969  10.876   3.366   3.098  0.2519 -0.0144  0.4762
  493MOL0     C64970  10.891   3.224   3.103  0.7174  0.2217 -1.1307
  493MOL0     C64971  10.880   3.144   2.994  0.4146 -0.0443 -0.9097
  493MOL0     C64972  10.849   3.201   2.871 -0.2223  0.5298 -0.2236
  493MOL0     C64973  10.848   3.118   2.746 -0.3028 -0.3756 -0.3609
  493MOL0     O64974  10.820   2.983   2.755 -0.1102 -0.4884  0.0173
  493MOL0     C64975  10.817   2.916   2.635  0.2996 -0.7208  0.2742
  493MOL0     C64976  10.926   2.898   2.541 -0.0152  0.2450 -0.3478
  493MOL0     C64977  10.903   2.828   2.427  0.3548 -0.1744 -0.7642
  493MOL0     C64978  10.780   2.759   2.409 -0.0678 -0.0807  0.0694
  493MOL0     O64979  10.764   2.689   2.292  0.3546  0.3249 -0.9732
  493MOL0     C64980  10.638   2.698   2.224  0.0319  0.2359  0.4567
  493MOL0     C64981  10.539   2.575   2.234  1.1368 -0.8689  0.7030
  493MOL0     C64982  10.431   2.589   2.342  0.9210 -0.3704 -0.6055
  493MOL0     C64983  10.311   2.492   2.332  0.0326 -0.5545 -0.0925
  493MOL0     C64984  10.175   2.550   2.365 -0.0866  0.5087  0.8719
  493MOL0     C64985  10.080   2.432   2.398  0.5257  0.3433 -0.1649
  493MOL0     C64986   9.940   2.491   2.431  0.6756  0.1981  0.6721
  493MOL0     C64987   9.833   2.391   2.397  0.4443  0.1640  0.2313
  493MOL0    Cl64988   9.877   2.219   2.436 -0.5204 -0.0400 -0.1724
  493MOL0     C64989  10.678   2.774   2.502  0.5161  0.1811  0.4958
  493MOL0     C64990  10.697   2.850   2.613 -1.0931 -0.4878  0.4094
  493MOL0     O64991  10.848   3.178   2.636  0.3997 -0.6718 -0.4324
  493MOL0     C64992  10.836   3.338   2.869  0.2049 -0.2635  0.0450
  493MOL0     C64993  10.850   3.419   2.974  1.3321 -0.1734 -0.4644
  493MOL0     N64994  11.300   3.645   3.614 -0.3426 -0.3225  0.6562
  493MOL0     N64995  11.380   3.747   3.629 -0.0010  0.0937  0.2391
  493MOL0     C64996  10.711   4.398   4.291  0.1538  0.4385 -0.1262
  493MOL0     C64997  10.578   4.389   4.354 -0.0195  0.3886 -0.6913
  493MOL0     C64998  10.200   4.240   4.506  0.2370 -0.1739 -0.4212
  493MOL0     C64999  10.095   4.317   4.477 -0.6309  0.1176  0.4696
  493MOL0     C65000   9.964   4.288   4.531  0.3218  0.2913  1.3777
  493MOL0     C65001   9.935   4.182   4.618 -0.3185  0.7985 -0.0826
  493MOL0     O65002   9.809   4.156   4.673 -0.7365 -0.2941 -0.2569
  493MOL0     C65003   9.779   4.045   4.774 -0.7771  0.5416  0.5199
  493MOL0     C65004   9.639   4.035   4.823  0.0035  0.2432  0.0280
  493MOL0     C65005   9.534   4.050   4.714 -0.4182 -0.0377 -0.5841
  493MOL0     C65006   9.392   4.040   4.775 -1.2728  0.4991 -0.0756
  493MOL0     C65007   9.295   4.023   4.668  0.1971 -0.8922  0.1873
  493MOL0     C65008   9.203   3.998   4.596 -0.1163 -0.4311  0.9445
  493MOL0     C65009  10.053   4.113   4.661  0.2487 -0.1146  0.4298
  493MOL0     C65010  10.176   4.143   4.607 -0.4704  0.3294  0.3283
  493MOL0     H65011  10.390   4.280   4.092  1.8968 -2.1539 -1.3363
  493MOL0     H65012  10.620   4.300   3.984 -2.3432 -1.3856  0.3370
  493MOL0     H65013  10.830   4.420   3.880  0.8851 -0.9083 -1.0200
  493MOL0     H65014  10.816   4.260   3.932  0.1514  0.6987 -3.1144
  493MOL0     H65015  11.051   4.279   4.022  2.1375 -2.6522 -1.3557
  493MOL0     H65016  11.063   4.441   3.945  0.8182 -1.2787 -0.2611
  493MOL0     H65017  10.998   4.349   3.733  0.5823  2.5670  0.1994
  493MOL0     H65018  10.986   4.186   3.795  1.7771 -0.7893 -1.7921
  493MOL0     H65019  11.243   4.346   3.779  0.2613 -0.8141  0.3227
  493MOL0     H65020  11.236   4.186   3.845 -1.2826  2.4986  2.4053
  493MOL0     H65021  11.262   4.278   3.576 -1.1586  1.4599  1.4988
  493MOL0     H65022  11.128   4.167   3.579 -0.6994  1.2041 -0.2742
  493MOL0     H65023  11.262   3.972   3.651  0.4814 -0.9785  1.8740
  493MOL0     H65024  11.383   4.064   3.713 -0.9792 -1.5957  0.2232
  493MOL0     H65025  11.324   4.077   3.415 -2.0543  1.7742  0.9097
  493MOL0     H65026  11.459   4.146   3.498  2.8062 -2.5506 -2.9374
  493MOL0     H65027  11.553   3.924   3.561 -0.4283 -2.3392  0.3938
  493MOL0     H65028  11.524   3.921   3.395 -0.9859  2.2749 -0.2895
  493MOL0     H65029  11.264   3.796   3.330  1.8721 -1.7272 -1.2086
  493MOL0     H65030  11.035   3.653   3.471  1.7303  2.1358  0.8574
  493MOL0     H65031  11.109   3.486   3.507 -0.4480 -1.2638 -1.9126
  493MOL0     H65032  11.112   3.422   3.300  1.6287 -0.2093  1.1668
  493MOL0     H65033  11.237   3.522   3.282  0.5530 -0.9073  3.3837
  493MOL0     H65034  11.063   3.713   3.205 -1.6556  0.2912 -0.4590
  493MOL0     H65035  11.078   3.567   3.104  4.2574 -2.5816  0.9713
  493MOL0     H65036  10.856   3.627   3.143  1.9087  0.1087  0.3951
  493MOL0     H65037  10.875   3.621   3.326 -2.0969 -0.3037  0.6307
  493MOL0     H65038  10.921   3.167   3.191  0.1006 -0.6777 -1.4761
  493MOL0     H65039  10.897   3.037   2.998 -0.5608 -0.1992 -0.6115
  493MOL0     H65040  11.021   2.949   2.550 -0.4773  0.9238  0.9758
  493MOL0     H65041  10.979   2.828   2.350  1.1711 -1.0204  0.0149
  493MOL0     H65042  10.670   2.699   2.119 -1.0154 -0.8522  0.1067
  493MOL0     H65043  10.585   2.780   2.275  2.6768  0.2454  3.4863
  493MOL0     H65044  10.598   2.484   2.248 -0.7208 -1.9283  2.1059
  493MOL0     H65045  10.479   2.578   2.142  2.4002  2.1449 -0.1564
  493MOL0     H65046  10.390   2.690   2.336  1.1744 -0.0630  1.7947
  493MOL0     H65047  10.470   2.574   2.444 -0.5642  0.0713  0.0467
  493MOL0     H65048  10.304   2.461   2.228  0.0065 -3.9169  0.7963
  493MOL0     H65049  10.335   2.400   2.387  2.8575 -0.2089 -0.6084
  493MOL0     H65050  10.134   2.592   2.273 -0.7473 -0.6072  0.6267
  493MOL0     H65051  10.175   2.622   2.447 -0.4818 -0.3011  1.6067
  493MOL0     H65052  10.110   2.369   2.482 -2.0416  1.1027  1.4072
  493MOL0     H65053  10.077   2.377   2.304  0.3298 -3.0011  1.6575
  493MOL0     H65054   9.929   2.494   2.540 -1.6714 -3.5893  0.7118
  493MOL0     H65055   9.914   2.585   2.383  2.3843  0.7783  0.8034
  493MOL0     H65056   9.802   2.399   2.293  0.8394 -0.0118  0.0978
  493MOL0     H65057   9.747   2.396   2.465 -0.5351 -4.1266 -0.4702
  493MOL0     H65058  10.581   2.733   2.473  1.4778 -0.6676 -1.8086
  493MOL0     H65059  10.618   2.850   2.687 -0.7091 -1.3509  0.8267
  493MOL0     H65060  10.820   3.389   2.775 -0.1833 -0.4336  0.0162
  493MOL0     H65061  10.846   3.528   2.979 -1.2348 -0.2827  2.5995
  493MOL0     H65062  10.807   4.428   4.332  0.5932 -0.7958 -0.2157
  493MOL0     H65063  10.574   4.408   4.461 -1.4361  0.8956 -0.8042
  493MOL0     H65064  10.103   4.391   4.398  0.5042  2.4587  2.6721
  493MOL0     H65065   9.883   4.348   4.490 -0.3710 -2.3436 -1.5201
  493MOL0     H65066   9.841   4.053   4.863 -2.9721  2.9997  1.9690
  493MOL0     H65067   9.807   3.948   4.731  2.3304  1.5950 -0.0674
  493MOL0     H65068   9.629   3.938   4.872  3.1468 -0.0989  0.2421
  493MOL0     H65069   9.628   4.113   4.900  2.2075  0.2628  0.3995
  493MOL0     H65070   9.550   3.972   4.640  0.7949  0.0556 -0.4296
  493MOL0     H65071   9.536   4.148   4.665 -1.0743  1.8689  2.8306
  493MOL0     H65072   9.381   3.959   4.847  1.0135  1.0416  0.9643
  493MOL0     H65073   9.372   4.132   4.831 -2.7903 -0.1221  0.4650
  493MOL0     H65074   9.123   3.981   4.526  0.0652  1.2638  0.2715
  493MOL0     H65075  10.043   4.044   4.744 -0.8306  0.2920  0.6483
  493MOL0     H65076  10.265   4.109   4.658 -2.0430  2.4210  5.0766
  494MOL0     O65077   4.419   6.866   2.460  0.8146 -0.1769  0.4379
  494MOL0     C65078   4.308   6.883   2.503 -0.4632 -0.0307  0.3146
  494MOL0     O65079   4.210   6.783   2.508  0.4140  1.2656  0.0361
  494MOL0     C65080   4.210   6.650   2.469 -0.1555 -0.8894 -0.1663
  494MOL0     C65081   4.320   6.572   2.495 -0.5860  0.9253  0.0807
  494MOL0     C65082   4.317   6.435   2.466  0.4078  0.0617  0.9197
  494MOL0     C65083   4.202   6.374   2.412 -0.4415 -0.4182  0.4284
  494MOL0     O65084   4.197   6.236   2.405  0.1399 -0.5987  0.1015
  494MOL0     C65085   4.215   6.170   2.531 -0.2144 -0.7461 -0.1420
  494MOL0     C65086   4.272   6.035   2.487 -0.2990 -0.2041 -0.6913
  494MOL0     C65087   4.176   5.933   2.449 -0.5607  0.1875 -0.6149
  494MOL0     C65088   4.240   5.805   2.396 -0.5225 -0.3164 -0.9207
  494MOL0     C65089   4.146   5.704   2.319  0.0099  0.5977 -0.4065
  494MOL0     C65090   4.228   5.596   2.235 -0.7420 -0.7620 -0.1490
  494MOL0     C65091   4.152   5.525   2.132  0.6662  0.1282 -0.1956
  494MOL0     C65092   4.242   5.423   2.067  0.1436  0.2039  0.0851
  494MOL0     N65093   4.168   5.340   1.971  0.2691  0.2785  0.6816
  494MOL0     C65094   4.070   5.249   2.012  1.7997 -1.0901  0.7567
  494MOL0     C65095   4.011   5.209   1.898 -0.7559  0.3122 -0.1586
  494MOL0     C65096   3.897   5.104   1.886 -0.5476 -0.3112  0.0115
  494MOL0     C65097   3.922   4.961   1.949 -0.6607 -0.7749 -0.4944
  494MOL0     C65098   4.072   4.927   1.949  0.7321 -0.4825  0.5447
  494MOL0     C65099   4.100   4.777   1.942 -0.4994 -1.0343 -0.1560
  494MOL0     O65100   4.045   4.718   2.064  0.5949 -0.8314  0.9715
  494MOL0     C65101   4.054   4.581   2.073  0.1504 -0.2427 -0.3598
  494MOL0     C65102   3.970   4.515   2.157 -0.4885  0.3731  0.0772
  494MOL0     C65103   3.971   4.377   2.177 -0.2064  0.5975 -0.6088
  494MOL0     C65104   4.077   4.309   2.123  0.7232 -0.0826 -1.2128
  494MOL0     C65105   4.097   4.169   2.158  0.5969 -0.1516 -0.5879
  494MOL0     O65106   3.983   4.115   2.214 -0.6393  0.0812  0.9810
  494MOL0     C65107   3.974   3.986   2.247 -0.1235  0.3022  0.1287
  494MOL0     C65108   4.010   3.934   2.372 -0.3280  0.8194 -0.2630
  494MOL0     C65109   4.019   3.799   2.397  0.1363  0.6224 -0.7170
  494MOL0     C65110   3.985   3.704   2.299  0.3537 -0.9816 -0.2371
  494MOL0     O65111   3.989   3.570   2.312  0.0162  0.4540 -0.2121
  494MOL0     C65112   4.071   3.519   2.414  0.2639 -0.7160 -0.0578
  494MOL0     C65113   4.073   3.362   2.396  0.4041 -0.6786  0.8205
  494MOL0     C65114   4.157   3.273   2.501 -0.4948  0.3940  0.0920
  494MOL0     C65115   4.178   3.138   2.457 -0.9469 -0.6884 -0.3871
  494MOL0     C65116   4.321   3.094   2.436  0.2054  0.2757  0.5743
  494MOL0     C65117   4.402   3.094   2.570 -1.4350  0.3183 -0.0331
  494MOL0     C65118   4.535   3.013   2.561 -0.2449  0.0549  0.1113
  494MOL0     C65119   4.588   2.977   2.702 -0.1175  0.1341  0.0329
  494MOL0    Cl65120   4.480   2.848   2.772 -0.2998  0.1571 -0.5810
  494MOL0     C65121   3.949   3.754   2.173  0.5401 -0.3420  0.2574
  494MOL0     C65122   3.947   3.892   2.151 -0.3235  0.0130  1.3334
  494MOL0     O65123   4.208   4.116   2.158 -0.4519  0.3586  0.1384
  494MOL0     C65124   4.169   4.367   2.042  0.1340  0.7452  1.1856
  494MOL0     C65125   4.148   4.500   1.999 -0.3241 -0.6828  0.7605
  494MOL0     N65126   4.068   5.282   1.790 -0.2069  0.3963 -0.0365
  494MOL0     N65127   4.166   5.354   1.833 -0.1998 -0.2987 -0.7165
  494MOL0     C65128   4.084   6.455   2.391 -0.7637 -0.2504  0.0909
  494MOL0     C65129   4.091   6.596   2.414  0.1196  0.3104 -0.3618
  494MOL0     C65130   4.259   7.018   2.519 -0.5366 -0.2025 -0.5111
  494MOL0     C65131   4.333   7.125   2.487 -1.2686 -0.3010  0.7253
  494MOL0     C65132   4.281   7.257   2.487  1.6454 -0.6553  1.3383
  494MOL0     C65133   4.158   7.286   2.534  0.3755  0.2208  0.1024
  494MOL0     O65134   4.126   7.419   2.512 -0.7095 -0.4129 -0.3835
  494MOL0     C65135   3.991   7.462   2.543  0.2001  1.0016 -0.4760
  494MOL0     C65136   3.941   7.588   2.457  0.2626 -0.2377  0.2496
  494MOL0     C65137   4.044   7.702   2.457  0.4791  0.3174 -0.3736
  494MOL0     C65138   4.084   7.747   2.600 -0.2781 -0.7202  0.1010
  494MOL0     C65139   4.148   7.880   2.593 -0.1363 -0.0858 -0.4939
  494MOL0     C65140   4.217   7.974   2.595 -0.3009 -0.2299  0.8191
  494MOL0     C65141   4.082   7.177   2.575  0.2509  0.7046 -0.6919
  494MOL0     C65142   4.131   7.046   2.570  0.3157  0.1184  0.0641
  494MOL0     H65143   4.401   6.626   2.544  0.6601  0.1530 -1.0680
  494MOL0     H65144   4.412   6.384   2.471 -0.1639 -1.6038 -2.2910
  494MOL0     H65145   4.128   6.165   2.597  0.6906 -1.2813  1.0569
  494MOL0     H65146   4.281   6.228   2.597 -0.4492 -0.9442  0.2737
  494MOL0     H65147   4.338   5.997   2.565 -1.8241  1.5085  1.5478
  494MOL0     H65148   4.333   6.059   2.399  1.6021  1.2320  0.9222
  494MOL0     H65149   4.120   5.979   2.367  0.6376  0.9642 -1.0123
  494MOL0     H65150   4.113   5.929   2.539  1.9549  0.7973  1.2875
  494MOL0     H65151   4.326   5.832   2.334  0.8878 -1.2838  0.5416
  494MOL0     H65152   4.291   5.752   2.477  0.2819 -0.2761 -1.3897
  494MOL0     H65153   4.078   5.749   2.247 -1.5495 -0.1473  0.5420
  494MOL0     H65154   4.089   5.643   2.390 -1.5287 -0.0247 -2.1028
  494MOL0     H65155   4.266   5.516   2.299  0.6175  0.1747  0.2576
  494MOL0     H65156   4.312   5.646   2.186 -1.0884 -2.9179 -3.2775
  494MOL0     H65157   4.057   5.482   2.163  0.4518  1.1604  0.6469
  494MOL0     H65158   4.123   5.602   2.059  1.1629  1.8698  1.3671
  494MOL0     H65159   4.276   5.354   2.144  0.7167  1.2457  0.7924
  494MOL0     H65160   4.323   5.486   2.027 -1.1720  0.7072 -1.9187
  494MOL0     H65161   4.050   5.227   2.117 -3.9295  3.3705  1.1204
  494MOL0     H65162   3.867   5.108   1.781  3.2084 -3.0017 -1.3928
  494MOL0     H65163   3.810   5.143   1.940  0.2812  3.7724 -1.2586
  494MOL0     H65164   3.869   4.882   1.895 -4.9666  2.1334 -1.0458
  494MOL0     H65165   3.893   4.966   2.054 -0.3543  2.7674 -0.4453
  494MOL0     H65166   4.123   4.976   1.867 -1.9420  1.9620  0.1622
  494MOL0     H65167   4.129   4.970   2.032 -0.2283 -1.2833  1.6628
  494MOL0     H65168   4.209   4.772   1.942 -0.0213  3.6404  2.7088
  494MOL0     H65169   4.049   4.732   1.856 -2.6905  0.1323  0.4539
  494MOL0     H65170   3.898   4.565   2.221 -0.4751 -0.8309  1.0634
  494MOL0     H65171   3.893   4.344   2.245  0.1854  2.3414  0.7631
  494MOL0     H65172   4.047   4.004   2.447  2.1787  0.2779 -0.9050
  494MOL0     H65173   4.052   3.775   2.497 -1.2479 -0.7486 -0.5443
  494MOL0     H65174   4.037   3.537   2.516  1.3092 -0.1812  0.2109
  494MOL0     H65175   4.168   3.570   2.408 -1.0855  1.9190 -1.7498
  494MOL0     H65176   4.112   3.336   2.297  0.9931  1.5461  0.4011
  494MOL0     H65177   3.971   3.324   2.393 -0.6510  1.8732 -2.4437
  494MOL0     H65178   4.113   3.277   2.601  1.7510 -0.5563  1.1907
  494MOL0     H65179   4.260   3.313   2.499 -0.5017  0.4015 -0.9254
  494MOL0     H65180   4.124   3.069   2.521 -2.5300 -0.4704 -1.4315
  494MOL0     H65181   4.115   3.128   2.368  2.7993 -2.3894 -3.1176
  494MOL0     H65182   4.383   3.154   2.369 -2.6807  2.8550 -0.0407
  494MOL0     H65183   4.310   2.992   2.399 -0.2550  0.5569 -0.0788
  494MOL0     H65184   4.339   3.049   2.647 -0.8266 -3.3210 -1.4762
  494MOL0     H65185   4.428   3.200   2.583 -0.1758  0.6219 -3.8632
  494MOL0     H65186   4.529   2.918   2.508  2.9747 -0.0750 -0.2290
  494MOL0     H65187   4.602   3.082   2.508 -2.4446  0.1931 -2.6808
  494MOL0     H65188   4.610   3.063   2.766  1.9366 -1.3090  1.3575
  494MOL0     H65189   4.690   2.941   2.686  0.7712  2.0181  1.0459
  494MOL0     H65190   3.913   3.690   2.093 -2.4122  0.1737  1.0535
  494MOL0     H65191   3.918   3.935   2.055 -0.3810  1.1414  1.8429
  494MOL0     H65192   4.238   4.308   1.982  2.9497  4.8514 -0.1563
  494MOL0     H65193   4.219   4.550   1.933 -1.8601  2.0554  1.0468
  494MOL0     H65194   3.990   6.423   2.347 -0.7812  1.9609 -1.6493
  494MOL0     H65195   4.011   6.661   2.380 -0.0882 -0.1279 -0.7273
  494MOL0     H65196   4.434   7.117   2.449 -0.7296 -0.3125  2.1087
  494MOL0     H65197   4.338   7.339   2.445 -1.8233  1.7249  0.9186
  494MOL0     H65198   3.982   7.474   2.652 -0.0848 -0.8623 -0.2634
  494MOL0     H65199   3.919   7.383   2.521  0.4985 -0.0612  2.0563
  494MOL0     H65200   3.925   7.542   2.359 -0.8108  0.3851  0.1074
  494MOL0     H65201   3.841   7.618   2.492 -1.2022 -1.8181 -2.2648
  494MOL0     H65202   3.990   7.782   2.406  1.2986  1.7329  0.9033
  494MOL0     H65203   4.131   7.676   2.396 -1.1029 -2.7505 -1.5629
  494MOL0     H65204   3.999   7.764   2.667 -0.5758 -3.5340  0.5570
  494MOL0     H65205   4.147   7.670   2.646 -3.2720 -2.6249  1.2968
  494MOL0     H65206   4.281   8.050   2.555 -1.4833  0.4738  0.2282
  494MOL0     H65207   3.984   7.187   2.621 -0.5048 -0.0877 -2.0563
  494MOL0     H65208   4.066   6.963   2.596 -1.2086  1.2542 -0.0205
  495MOL0     O65209   1.701   7.107   2.358 -0.1953 -0.1786  0.5137
  495MOL0     C65210   1.630   7.173   2.288 -0.3907  0.7897  0.0910
  495MOL0     O65211   1.642   7.306   2.268 -0.1159 -0.1539 -0.0422
  495MOL0     C65212   1.686   7.385   2.367  0.1156 -0.6241  0.0709
  495MOL0     C65213   1.726   7.518   2.336  0.2789  0.5010  0.2656
  495MOL0     C65214   1.761   7.610   2.424  0.4979 -0.3074  0.0292
  495MOL0     C65215   1.761   7.577   2.562  0.1669  0.1297 -0.4130
  495MOL0     O65216   1.816   7.657   2.666 -0.0324 -0.1389 -0.5828
  495MOL0     C65217   1.954   7.702   2.644  0.5071  1.2894  0.3157
  495MOL0     C65218   1.959   7.844   2.619 -0.8923 -0.4237  0.5670
  495MOL0     C65219   1.898   7.922   2.742 -0.9284 -0.1256 -0.3299
  495MOL0     C65220   1.922   8.071   2.712  0.5424  0.4289  0.1692
  495MOL0     C65221   1.801   8.131   2.796 -0.1330  0.3402  0.2726
  495MOL0     C65222   1.807   8.289   2.787  0.4912 -0.3189 -1.0360
  495MOL0     C65223   1.748   8.350   2.912 -0.2151 -1.0411  0.1925
  495MOL0     C65224   1.701   8.494   2.884  0.1341  0.7630  0.7061
  495MOL0     N65225   1.619   8.543   2.992 -1.6289 -0.2032  0.5936
  495MOL0     C65226   1.505   8.497   3.044  0.5517  0.6086 -1.6548
  495MOL0     C65227   1.469   8.594   3.130  0.2314  0.3092  0.7345
  495MOL0     C65228   1.336   8.591   3.199 -0.4662 -1.0038 -0.1278
  495MOL0     C65229   1.312   8.464   3.258  0.6776 -0.1187  0.0065
  495MOL0     C65230   1.415   8.432   3.362  0.0349 -0.3833 -0.4390
  495MOL0     C65231   1.385   8.295   3.429  0.6073  1.3147 -0.1715
  495MOL0     O65232   1.455   8.291   3.549  0.5022  0.3226  0.0187
  495MOL0     C65233   1.572   8.223   3.559 -0.0630 -0.0289 -0.0959
  495MOL0     C65234   1.664   8.266   3.654 -0.3415  0.4200  0.1804
  495MOL0     C65235   1.778   8.188   3.685  0.4185 -0.0750  0.1529
  495MOL0     C65236   1.804   8.071   3.612 -0.4417  0.2586 -0.5541
  495MOL0     C65237   1.930   7.995   3.631  0.7839  0.2815  0.1546
  495MOL0     O65238   2.024   8.055   3.706 -0.0078 -0.3667  0.1950
  495MOL0     C65239   2.154   8.023   3.668 -0.3083 -0.8923  0.5688
  495MOL0     C65240   2.219   8.100   3.566 -0.4914  0.4366  0.1912
  495MOL0     C65241   2.348   8.068   3.515 -1.0715 -0.4913 -0.6251
  495MOL0     C65242   2.407   7.949   3.565  0.0707 -0.9053  0.3735
  495MOL0     O65243   2.510   7.894   3.493  0.5298  0.1988  0.3865
  495MOL0     C65244   2.633   7.949   3.543  0.1094  0.3353 -0.5121
  495MOL0     C65245   2.697   8.032   3.434 -0.1667 -0.6147  0.3213
  495MOL0     C65246   2.751   7.953   3.316 -0.9008  0.3230 -0.6307
  495MOL0     C65247   2.877   8.023   3.246 -0.2633  0.1258 -0.3025
  495MOL0     C65248   2.922   7.973   3.107  0.2659 -0.0266  0.5772
  495MOL0     C65249   2.817   7.946   2.997 -0.6178  0.1210 -0.2409
  495MOL0     C65250   2.876   7.951   2.862 -0.6887 -0.1886  0.1458
  495MOL0     C65251   2.778   7.961   2.741 -0.2954 -0.4920 -0.3980
  495MOL0    Cl65252   2.858   7.942   2.581  0.1939  0.1825  0.8230
  495MOL0     C65253   2.346   7.868   3.660 -0.6483 -0.2177  0.9673
  495MOL0     C65254   2.225   7.908   3.708  0.8202 -0.4307 -0.5271
  495MOL0     O65255   1.942   7.884   3.584 -0.6231  0.2298  0.2793
  495MOL0     C65256   1.727   8.038   3.506 -0.4010 -0.2654 -0.2773
  495MOL0     C65257   1.607   8.104   3.488  1.3358 -0.0428  0.0446
  495MOL0     N65258   1.547   8.705   3.114  0.3297 -0.6768 -0.1890
  495MOL0     N65259   1.643   8.672   3.034 -0.7122  0.5039 -0.3088
  495MOL0     C65260   1.719   7.446   2.598  0.0545  0.2473 -0.1480
  495MOL0     C65261   1.687   7.348   2.500  0.4599 -0.3786 -0.1917
  495MOL0     C65262   1.520   7.101   2.226  0.9432  0.1244 -0.4242
  495MOL0     C65263   1.472   6.971   2.272 -0.7220  0.5635 -0.5824
  495MOL0     C65264   1.361   6.914   2.214 -0.7943 -0.4226  0.1266
  495MOL0     C65265   1.299   6.971   2.106 -0.4290 -0.5442  0.4095
  495MOL0     O65266   1.179   6.931   2.060  1.2647 -0.3685  0.5857
  495MOL0     C65267   1.192   6.819   1.969  1.2169 -0.5101 -0.5506
  495MOL0     C65268   1.062   6.734   1.989 -0.7697 -0.4754  0.3647
  495MOL0     C65269   1.045   6.677   2.127 -1.0888 -0.2411  0.3449
  495MOL0     C65270   0.914   6.591   2.124  0.0439  0.3437 -0.2311
  495MOL0     C65271   0.842   6.611   2.255 -0.7181  0.4312 -0.7763
  495MOL0     C65272   0.787   6.627   2.365 -0.1565 -1.1338 -0.1813
  495MOL0     C65273   1.341   7.092   2.068  1.2527  0.3054 -0.2341
  495MOL0     C65274   1.444   7.161   2.127 -0.2531 -0.7126 -0.1810
  495MOL0     H65275   1.712   7.540   2.230 -0.1403  2.4665  0.6885
  495MOL0     H65276   1.795   7.707   2.387 -3.2013  0.4410 -1.9518
  495MOL0     H65277   1.989   7.639   2.562 -3.6076 -1.1517  0.1590
  495MOL0     H65278   2.007   7.670   2.735 -1.2223  1.5695  1.4653
  495MOL0     H65279   1.906   7.872   2.527  1.2965 -0.9991 -0.9342
  495MOL0     H65280   2.060   7.883   2.610 -1.7113  1.3772 -1.8171
  495MOL0     H65281   1.934   7.898   2.843 -1.9191  0.3980  0.1685
  495MOL0     H65282   1.794   7.889   2.740 -1.0017  0.1508 -1.7303
  495MOL0     H65283   2.020   8.103   2.749  1.0632 -0.0102 -0.7883
  495MOL0     H65284   1.934   8.101   2.607 -1.0913 -0.3743 -0.2782
  495MOL0     H65285   1.815   8.092   2.897  0.5536 -1.0929 -0.3457
  495MOL0     H65286   1.709   8.083   2.763  1.3519 -0.9322 -2.3220
  495MOL0     H65287   1.758   8.330   2.698  3.3002  2.0316 -1.6425
  495MOL0     H65288   1.913   8.316   2.788  0.3303  0.3396 -1.4917
  495MOL0     H65289   1.663   8.291   2.946 -0.2786  0.7750  3.7551
  495MOL0     H65290   1.821   8.360   2.993  0.7480  3.4950 -0.9613
  495MOL0     H65291   1.641   8.485   2.792  2.3654  0.7743 -0.8185
  495MOL0     H65292   1.793   8.550   2.866  0.1366  1.1735  1.9182
  495MOL0     H65293   1.460   8.400   3.021  1.6331 -0.6185  0.9957
  495MOL0     H65294   1.258   8.618   3.127 -0.2218  2.5075  0.7180
  495MOL0     H65295   1.336   8.668   3.278  0.7782 -0.3532 -0.7311
  495MOL0     H65296   1.327   8.394   3.175  3.8856  2.2267 -1.5771
  495MOL0     H65297   1.212   8.450   3.302 -0.1461  0.2330 -1.6538
  495MOL0     H65298   1.512   8.419   3.313 -1.2375  0.9277 -3.5902
  495MOL0     H65299   1.426   8.515   3.433  1.5299  0.2481 -1.3598
  495MOL0     H65300   1.394   8.207   3.365 -2.9219  0.3237  0.4522
  495MOL0     H65301   1.280   8.293   3.461  0.9398 -1.6515  1.0052
  495MOL0     H65302   1.650   8.355   3.715  1.1836  0.4337  0.5365
  495MOL0     H65303   1.842   8.227   3.764 -0.4424  0.0151  0.8209
  495MOL0     H65304   2.168   8.189   3.528  1.6959  1.8255  0.3686
  495MOL0     H65305   2.387   8.131   3.435 -1.7107 -1.6312 -1.8701
  495MOL0     H65306   2.709   7.877   3.574  0.0349 -1.0088 -3.1121
  495MOL0     H65307   2.615   8.013   3.630 -2.0532 -1.7057  0.6538
  495MOL0     H65308   2.777   8.090   3.480 -1.0305  0.9977 -0.1589
  495MOL0     H65309   2.634   8.106   3.384 -0.9337 -3.5839 -3.6416
  495MOL0     H65310   2.673   7.943   3.239 -1.5197 -0.4857  0.0924
  495MOL0     H65311   2.783   7.852   3.343  0.0937  1.2813  2.1077
  495MOL0     H65312   2.860   8.130   3.239 -2.6247 -0.2412 -0.9758
  495MOL0     H65313   2.957   8.000   3.317 -1.2521 -5.1058 -0.4572
  495MOL0     H65314   2.976   7.879   3.127  1.1027  0.2988 -0.0970
  495MOL0     H65315   2.994   8.050   3.081  2.7514 -2.3334  0.1562
  495MOL0     H65316   2.743   8.026   3.002 -1.8107 -1.0138  1.0343
  495MOL0     H65317   2.761   7.853   3.007  0.0896 -0.1275  1.7418
  495MOL0     H65318   2.953   8.029   2.860  0.7698 -1.5860 -0.8398
  495MOL0     H65319   2.928   7.856   2.846  0.7490  0.2912  1.6528
  495MOL0     H65320   2.722   8.054   2.741  0.8015  0.2002 -1.4758
  495MOL0     H65321   2.705   7.880   2.742 -0.2515 -0.5389 -0.9820
  495MOL0     H65322   2.392   7.771   3.677 -2.9142 -1.5943 -0.2939
  495MOL0     H65323   2.160   7.840   3.763 -0.6459 -0.4122 -2.1518
  495MOL0     H65324   1.759   7.956   3.442  1.1749  2.0122 -2.5549
  495MOL0     H65325   1.556   8.066   3.400  4.0120 -0.4906 -1.4407
  495MOL0     H65326   1.711   7.416   2.702  0.1284 -3.3449 -1.0484
  495MOL0     H65327   1.653   7.254   2.542 -0.4279  0.7051  1.6514
  495MOL0     H65328   1.518   6.921   2.357 -1.4631  2.2118  0.8713
  495MOL0     H65329   1.310   6.827   2.253 -0.2480 -1.8011 -2.0511
  495MOL0     H65330   1.272   6.749   1.995 -1.8693 -3.8008  0.8966
  495MOL0     H65331   1.210   6.863   1.870  1.4065 -0.9230 -0.7039
  495MOL0     H65332   0.982   6.802   1.957  0.1433  0.6516  0.4316
  495MOL0     H65333   1.064   6.663   1.906 -0.8626 -1.1039  0.8954
  495MOL0     H65334   1.039   6.765   2.192  0.9222  2.1986 -2.4914
  495MOL0     H65335   1.128   6.612   2.158 -0.8950  1.2313  3.2182
  495MOL0     H65336   0.842   6.615   2.046 -0.4773  0.2880  0.2228
  495MOL0     H65337   0.946   6.489   2.102  5.3941  0.9430  2.9113
  495MOL0     H65338   0.716   6.639   2.445  0.5627  2.9884  0.0555
  495MOL0     H65339   1.290   7.143   1.987  0.4716  0.0303  0.0731
  495MOL0     H65340   1.460   7.267   2.109 -2.0517  0.5339  4.0648
  496MOL0     O65341   4.559   0.194   9.023  0.2375  0.1286 -0.0324
  496MOL0     C65342   4.635   0.289   8.995 -0.4540 -0.0680  0.2322
  496MOL0     O65343   4.750   0.281   8.915  0.2089 -0.2525 -0.0871
  496MOL0     C65344   4.787   0.166   8.850 -0.1225 -1.2890 -0.0155
  496MOL0     C65345   4.824   0.188   8.723  0.0064 -0.0949  0.4019
  496MOL0     C65346   4.869   0.088   8.646 -0.3695  0.6496 -0.3858
  496MOL0     C65347   4.870  -0.042   8.693  0.7613 -0.0832 -0.5188
  496MOL0     O65348   4.906  -0.147   8.607  0.0687 -0.1683  0.0760
  496MOL0     C65349   4.885  -0.286   8.641  0.5872  0.5340 -0.7147
  496MOL0     C65350   4.910  -0.374   8.525 -0.0584  0.3027  0.0474
  496MOL0     C65351   5.062  -0.365   8.476 -0.6318 -0.8987  0.7308
  496MOL0     C65352   5.093  -0.447   8.357  0.8368 -0.6442 -0.3718
  496MOL0     C65353   5.105  -0.589   8.390  0.5808  0.0184  0.0058
  496MOL0     C65354   5.111  -0.676   8.261  0.4187 -0.0685 -0.0683
  496MOL0     C65355   5.243  -0.658   8.166 -0.0474  0.5710 -1.1696
  496MOL0     C65356   5.372  -0.671   8.235 -0.0681  0.8273 -0.1962
  496MOL0     N65357   5.479  -0.642   8.142 -0.0125 -0.1396  0.2796
  496MOL0     C65358   5.506  -0.717   8.025 -0.4738  0.4023 -0.0209
  496MOL0     C65359   5.619  -0.657   7.984 -0.6226 -0.0036 -0.6928
  496MOL0     C65360   5.694  -0.695   7.858 -0.7545  0.6559 -0.4084
  496MOL0     C65361   5.597  -0.678   7.738  0.0455 -0.2283 -0.1299
  496MOL0     C65362   5.676  -0.690   7.601  0.1054  0.3874 -0.1128
  496MOL0     C65363   5.573  -0.655   7.493  0.0945 -0.1749  0.0291
  496MOL0     O65364   5.643  -0.702   7.375  0.2990 -0.6978 -1.2580
  496MOL0     C65365   5.582  -0.743   7.258  0.2317 -0.7660 -0.0952
  496MOL0     C65366   5.448  -0.779   7.239  0.6434 -0.5814 -0.2649
  496MOL0     C65367   5.410  -0.850   7.125  0.5280  0.5564  0.5034
  496MOL0     C65368   5.497  -0.867   7.014  0.3863 -0.4945 -0.1334
  496MOL0     C65369   5.453  -0.914   6.877 -0.5623  0.8973 -0.4713
  496MOL0     O65370   5.545  -0.937   6.781  1.4083 -0.3555 -0.1121
  496MOL0     C65371   5.546  -1.056   6.710  0.0744 -1.2771 -0.9189
  496MOL0     C65372   5.655  -1.073   6.621  0.7145  0.3234  0.3593
  496MOL0     C65373   5.682  -1.195   6.551  0.3388 -0.0832 -0.3795
  496MOL0     C65374   5.589  -1.295   6.556  0.6304  0.6097  0.3662
  496MOL0     O65375   5.600  -1.402   6.478 -0.8252  0.2376  0.2724
  496MOL0     C65376   5.610  -1.528   6.557  0.0132  0.3417  0.8702
  496MOL0     C65377   5.615  -1.644   6.455 -0.4578 -0.5296 -0.6505
  496MOL0     C65378   5.598  -1.773   6.539  0.5175 -0.6310 -0.9721
  496MOL0     C65379   5.599  -1.903   6.451 -0.3496 -0.4664 -0.7106
  496MOL0     C65380   5.673  -2.025   6.524 -0.1444  0.3562  0.5010
  496MOL0     C65381   5.617  -2.161   6.487  1.1082 -0.2552  0.2405
  496MOL0     C65382   5.624  -2.262   6.601 -0.1149  0.6918  0.0941
  496MOL0     C65383   5.543  -2.390   6.579  0.4826 -0.6261 -0.8289
  496MOL0    Cl65384   5.591  -2.475   6.424  0.0062 -0.3652 -0.0278
  496MOL0     C65385   5.478  -1.283   6.645  1.0140  0.5143 -0.3379
  496MOL0     C65386   5.456  -1.168   6.721 -0.3146 -0.0011 -0.2327
  496MOL0     O65387   5.336  -0.902   6.849 -0.6369  0.0335 -0.5373
  496MOL0     C65388   5.628  -0.826   7.034  1.0675  0.1108 -0.0339
  496MOL0     C65389   5.663  -0.771   7.153 -0.0037  0.7366  0.3079
  496MOL0     N65390   5.665  -0.562   8.072  0.0725  0.3007  0.4366
  496MOL0     N65391   5.582  -0.553   8.163 -0.0873 -0.1581  0.1763
  496MOL0     C65392   4.828  -0.062   8.828 -0.2014  1.1984  0.3949
  496MOL0     C65393   4.784   0.039   8.901  0.3825  0.3251  0.2411
  496MOL0     C65394   4.604   0.417   9.051 -0.0226 -1.2021 -0.2069
  496MOL0     C65395   4.477   0.436   9.122 -0.0666  0.3952  0.5769
  496MOL0     C65396   4.436   0.563   9.167 -0.4399 -1.1794  0.3428
  496MOL0     C65397   4.529   0.673   9.160 -0.0683  0.5651  0.5515
  496MOL0     O65398   4.501   0.799   9.209  0.4739 -0.0541 -0.2882
  496MOL0     C65399   4.388   0.817   9.290 -0.4140  0.6591 -0.6870
  496MOL0     C65400   4.384   0.969   9.350 -0.0745  0.4560  0.0359
  496MOL0     C65401   4.290   0.981   9.470  0.3146 -0.2436 -0.5605
  496MOL0     C65402   4.307   1.114   9.548  0.2623  0.7964 -0.4564
  496MOL0     C65403   4.285   1.090   9.692 -0.1533  0.1108  0.2023
  496MOL0     C65404   4.262   1.088   9.810 -0.1112  0.4115  0.7640
  496MOL0     C65405   4.649   0.653   9.096 -0.6970  0.2589 -0.4767
  496MOL0     C65406   4.685   0.534   9.034  1.3332 -0.0011  0.3916
  496MOL0     H65407   4.819   0.291   8.687  4.8401 -0.0585 -0.8293
  496MOL0     H65408   4.917   0.100   8.550  0.9867 -1.7051 -0.0611
  496MOL0     H65409   4.778  -0.299   8.664  1.2126 -1.4747  1.4122
  496MOL0     H65410   4.933  -0.302   8.738 -2.8438  2.8279  1.6086
  496MOL0     H65411   4.844  -0.349   8.442 -0.3713 -0.4649  0.0556
  496MOL0     H65412   4.892  -0.478   8.554  2.9681  0.6636  4.2499
  496MOL0     H65413   5.118  -0.411   8.557  2.2604 -1.6340 -1.5275
  496MOL0     H65414   5.087  -0.260   8.456  0.0098 -1.1976 -0.0610
  496MOL0     H65415   5.021  -0.439   8.274 -0.3253 -2.0745  0.4313
  496MOL0     H65416   5.191  -0.411   8.325  1.6074 -0.4213  2.1058
  496MOL0     H65417   5.010  -0.612   8.439  1.6618 -1.7670  1.3721
  496MOL0     H65418   5.194  -0.621   8.443  1.0269  1.9908  0.5290
  496MOL0     H65419   5.028  -0.651   8.195  2.5172  4.2257 -1.4873
  496MOL0     H65420   5.097  -0.776   8.303 -1.2864  1.0253  2.2267
  496MOL0     H65421   5.244  -0.737   8.091  2.2171 -0.8343  0.2001
  496MOL0     H65422   5.241  -0.560   8.118  1.3344  0.6477 -1.1332
  496MOL0     H65423   5.388  -0.767   8.284 -0.6300  0.3928 -0.8464
  496MOL0     H65424   5.377  -0.606   8.323  1.2147 -0.4092  0.6913
  496MOL0     H65425   5.454  -0.801   7.980 -1.2004  0.9322 -0.1771
  496MOL0     H65426   5.726  -0.799   7.872  3.7692  1.9542  0.5674
  496MOL0     H65427   5.781  -0.629   7.863  0.1131 -0.4665 -0.2451
  496MOL0     H65428   5.546  -0.581   7.744 -1.4700 -0.9813 -0.3101
  496MOL0     H65429   5.520  -0.755   7.748  1.2224 -1.2607  1.4536
  496MOL0     H65430   5.748  -0.608   7.607 -0.5814  0.9111  2.4379
  496MOL0     H65431   5.729  -0.785   7.586  0.7873  0.5933  0.9147
  496MOL0     H65432   5.550  -0.548   7.492 -0.3184 -0.2559 -0.6220
  496MOL0     H65433   5.488  -0.723   7.507  1.4583 -2.0328 -0.3786
  496MOL0     H65434   5.374  -0.764   7.317  1.4804  1.0372  0.2664
  496MOL0     H65435   5.308  -0.887   7.125  0.1123  1.6336  1.3098
  496MOL0     H65436   5.707  -0.983   6.591 -0.9525  0.9596 -0.7787
  496MOL0     H65437   5.769  -1.203   6.487 -0.6729  1.8056 -2.0728
  496MOL0     H65438   5.509  -1.547   6.592 -0.9483  0.7247 -1.5292
  496MOL0     H65439   5.697  -1.533   6.624  1.9539  0.0061 -1.5116
  496MOL0     H65440   5.714  -1.636   6.407 -0.7986  0.2848 -1.2423
  496MOL0     H65441   5.535  -1.635   6.381 -0.8220  1.4129 -0.0722
  496MOL0     H65442   5.503  -1.760   6.591  1.7214 -1.2123  1.5281
  496MOL0     H65443   5.675  -1.774   6.617 -0.3491 -0.5874 -0.0951
  496MOL0     H65444   5.498  -1.937   6.425 -0.0567 -2.0114  0.0383
  496MOL0     H65445   5.633  -1.875   6.351 -1.5709  0.3293 -0.9132
  496MOL0     H65446   5.658  -2.020   6.632  1.1793 -0.0744  0.7260
  496MOL0     H65447   5.779  -2.028   6.497 -0.2613 -0.5308  0.1250
  496MOL0     H65448   5.679  -2.202   6.406  0.9530 -2.8724  1.3549
  496MOL0     H65449   5.514  -2.137   6.457  1.4328  1.9413  0.7471
  496MOL0     H65450   5.730  -2.281   6.618  1.0029  4.1897 -1.8296
  496MOL0     H65451   5.577  -2.214   6.687 -2.6355 -0.0419 -0.7926
  496MOL0     H65452   5.438  -2.366   6.596  1.1882  3.1140 -0.9816
  496MOL0     H65453   5.564  -2.461   6.659  1.4937  0.6411  0.0780
  496MOL0     H65454   5.409  -1.364   6.663  0.4277  0.9474 -0.6224
  496MOL0     H65455   5.359  -1.175   6.768 -0.9621 -0.3015 -1.5811
  496MOL0     H65456   5.700  -0.822   6.953  0.1552  0.2428 -0.8661
  496MOL0     H65457   5.767  -0.746   7.173 -0.8171  3.1512  1.9795
  496MOL0     H65458   4.845  -0.151   8.887  0.4938  1.6415  0.8919
  496MOL0     H65459   4.752   0.024   9.003 -0.4180  0.6748  0.0488
  496MOL0     H65460   4.406   0.355   9.131  0.5607 -0.0506  1.6178
  496MOL0     H65461   4.353   0.581   9.234 -0.4326 -0.2914  0.1272
  496MOL0     H65462   4.383   0.746   9.372  0.6827  2.5293  1.0818
  496MOL0     H65463   4.294   0.802   9.236 -2.8670  4.4308  2.0509
  496MOL0     H65464   4.486   0.993   9.381 -0.0828  0.2237  0.2496
  496MOL0     H65465   4.356   1.049   9.281  0.3591  0.1410 -0.5169
  496MOL0     H65466   4.296   0.897   9.540 -0.4658 -0.4755 -0.7590
  496MOL0     H65467   4.185   0.978   9.437  0.3104 -1.6265 -0.4885
  496MOL0     H65468   4.405   1.159   9.530  1.6859 -2.0821 -0.3917
  496MOL0     H65469   4.231   1.184   9.511  0.7320  0.8134 -1.4222
  496MOL0     H65470   4.241   1.092   9.915 -0.0338 -1.6370  0.9075
  496MOL0     H65471   4.724   0.731   9.090  0.0539  0.0020  3.0175
  496MOL0     H65472   4.780   0.525   8.982  0.0298 -2.5499 -1.8282
  497MOL0     O65473   7.572   8.130   7.224 -0.0443  0.7127  0.6165
  497MOL0     C65474   7.514   8.174   7.128  0.8650  0.2434 -0.3271
  497MOL0     O65475   7.463   8.098   7.027  0.4323  0.5198 -0.3162
  497MOL0     C65476   7.491   7.961   7.025  0.0251  0.3749  1.2985
  497MOL0     C65477   7.624   7.922   7.025 -0.1330  0.5929 -0.0715
  497MOL0     C65478   7.662   7.783   7.027 -0.1233 -0.1917 -0.6061
  497MOL0     C65479   7.559   7.686   7.032 -0.1173  0.5266 -0.0396
  497MOL0     O65480   7.604   7.561   7.016  0.6783 -0.0243 -0.3580
  497MOL0     C65481   7.672   7.502   7.127 -0.6327  0.4003  0.2723
  497MOL0     C65482   7.579   7.458   7.240  0.5141  0.2650 -0.8220
  497MOL0     C65483   7.659   7.380   7.346 -0.9281  0.3946  0.3005
  497MOL0     C65484   7.600   7.362   7.482 -0.2168 -0.0369  0.2937
  497MOL0     C65485   7.648   7.246   7.574 -0.0179  0.1315  0.0701
  497MOL0     C65486   7.603   7.270   7.718 -0.0501  1.0948  0.2734
  497MOL0     C65487   7.459   7.321   7.744  0.3987 -0.9261 -0.1638
  497MOL0     C65488   7.428   7.314   7.894 -0.3888  0.4391  0.3138
  497MOL0     N65489   7.329   7.402   7.947  0.0928  0.0523 -0.6854
  497MOL0     C65490   7.293   7.527   7.903  0.5420 -0.5290 -0.3359
  497MOL0     C65491   7.196   7.569   7.986 -0.5056 -0.5535  0.8844
  497MOL0     C65492   7.125   7.694   7.969  1.3423 -0.2631 -0.5141
  497MOL0     C65493   7.199   7.816   8.015 -0.6864 -0.0926  0.3267
  497MOL0     C65494   7.160   7.955   7.950  0.9676  0.5495 -0.4140
  497MOL0     C65495   7.235   7.999   7.828 -0.6351 -0.1024  0.3613
  497MOL0     O65496   7.359   8.053   7.862  0.0378  0.1186  0.1828
  497MOL0     C65497   7.474   7.974   7.862  1.3133 -0.9300  0.4364
  497MOL0     C65498   7.505   7.865   7.778  0.7467 -0.2548  0.0248
  497MOL0     C65499   7.631   7.817   7.758 -0.2494 -0.2813 -0.1054
  497MOL0     C65500   7.734   7.865   7.853  0.0442 -0.0359  0.5145
  497MOL0     C65501   7.882   7.818   7.847  0.7957 -0.0738 -0.4130
  497MOL0     O65502   7.973   7.899   7.911  0.0176  0.2970  0.2952
  497MOL0     C65503   8.107   7.866   7.903 -0.3398 -0.7734 -0.9090
  497MOL0     C65504   8.153   7.737   7.946  1.1716  0.1799  0.8863
  497MOL0     C65505   8.289   7.703   7.944  0.9499 -0.2251 -0.7485
  497MOL0     C65506   8.384   7.798   7.906 -0.5076 -0.0396 -0.4970
  497MOL0     O65507   8.517   7.756   7.905  0.2500 -0.6917  0.8476
  497MOL0     C65508   8.608   7.839   7.821  0.5001 -1.2484  0.0413
  497MOL0     C65509   8.724   7.758   7.776  0.6677  0.2541 -1.0866
  497MOL0     C65510   8.688   7.650   7.680  0.5406 -0.1352 -1.3897
  497MOL0     C65511   8.800   7.589   7.606  0.3780 -0.4412 -0.2191
  497MOL0     C65512   8.898   7.523   7.691 -0.4378 -0.0536  0.4718
  497MOL0     C65513   9.014   7.458   7.617 -0.2558  0.0388 -0.4224
  497MOL0     C65514   9.083   7.543   7.505  0.5337 -0.2894  0.0241
  497MOL0     C65515   9.224   7.487   7.469 -0.0584  0.7509  0.6910
  497MOL0    Cl65516   9.228   7.331   7.397 -0.4817  0.6046 -0.0579
  497MOL0     C65517   8.347   7.932   7.886 -0.1662 -0.1262  0.0244
  497MOL0     C65518   8.209   7.963   7.880 -0.2218 -0.6932  0.3852
  497MOL0     O65519   7.911   7.716   7.783 -0.2189 -0.7304  0.4466
  497MOL0     C65520   7.705   7.961   7.951 -0.4462  0.3704 -0.1962
  497MOL0     C65521   7.575   8.023   7.940  0.2595  0.1369  0.0177
  497MOL0     N65522   7.187   7.481   8.094 -0.6573  0.6160 -0.5679
  497MOL0     N65523   7.253   7.373   8.061  0.9852 -0.6318  0.6485
  497MOL0     C65524   7.425   7.730   7.024 -0.9033 -0.5564 -0.7119
  497MOL0     C65525   7.387   7.869   7.028 -0.1399  0.0174 -0.5219
  497MOL0     C65526   7.498   8.322   7.119 -0.4538 -0.4629  0.0641
  497MOL0     C65527   7.605   8.413   7.167 -0.2690 -0.8087  0.2393
  497MOL0     C65528   7.582   8.553   7.170 -0.9144 -0.3951 -1.2355
  497MOL0     C65529   7.473   8.603   7.112  0.3566 -0.0173 -0.6713
  497MOL0     O65530   7.431   8.731   7.117 -0.7560 -0.3807 -0.0803
  497MOL0     C65531   7.457   8.803   6.992 -0.6457 -0.4185  0.7292
  497MOL0     C65532   7.484   8.950   7.028 -0.1202 -0.0363  0.2232
  497MOL0     C65533   7.365   9.037   7.066 -0.7867  0.1009 -0.8748
  497MOL0     C65534   7.407   9.171   7.117 -0.3697  0.5873  0.8514
  497MOL0     C65535   7.453   9.151   7.256  0.1161 -1.1332 -0.6507
  497MOL0     C65536   7.484   9.129   7.371 -0.4865 -0.0605  0.7215
  497MOL0     C65537   7.380   8.518   7.048  0.5221 -0.1327 -0.0425
  497MOL0     C65538   7.391   8.380   7.048 -0.8859  0.3314  0.0401
  497MOL0     H65539   7.704   7.995   7.028  0.4860  0.0376 -1.8174
  497MOL0     H65540   7.767   7.757   7.028  0.6315  2.4767 -1.2499
  497MOL0     H65541   7.744   7.577   7.162  1.1607 -0.3440 -1.5745
  497MOL0     H65542   7.734   7.422   7.085  0.6363  0.6321  1.6295
  497MOL0     H65543   7.496   7.397   7.204 -0.9421  1.6535  0.0308
  497MOL0     H65544   7.535   7.548   7.286 -1.9808 -1.2967  0.0524
  497MOL0     H65545   7.759   7.420   7.360  0.4527 -2.9251  0.7154
  497MOL0     H65546   7.664   7.282   7.298 -0.1303  0.8761 -0.6371
  497MOL0     H65547   7.604   7.463   7.523  1.9496 -0.1461  0.4526
  497MOL0     H65548   7.491   7.353   7.478 -0.0225 -3.1395 -0.8503
  497MOL0     H65549   7.757   7.243   7.568  0.1337  0.2794  2.0440
  497MOL0     H65550   7.603   7.151   7.546  0.5477 -0.0212 -0.3374
  497MOL0     H65551   7.679   7.340   7.753  1.7278 -2.2010  3.6659
  497MOL0     H65552   7.625   7.175   7.767 -0.3517  1.6372  1.5009
  497MOL0     H65553   7.440   7.420   7.701  1.8151 -1.1733 -1.4508
  497MOL0     H65554   7.391   7.258   7.685 -0.1293  1.9157 -2.9041
  497MOL0     H65555   7.517   7.341   7.951  0.3451  2.3323 -1.6217
  497MOL0     H65556   7.407   7.211   7.924  0.3696  0.3671  0.6262
  497MOL0     H65557   7.331   7.584   7.819  0.6523  2.4181  1.5564
  497MOL0     H65558   7.036   7.681   8.032  0.5342  0.6044 -1.4334
  497MOL0     H65559   7.085   7.708   7.869 -4.5045 -0.9317  1.3307
  497MOL0     H65560   7.308   7.805   8.017 -0.6011  0.6708  1.8501
  497MOL0     H65561   7.185   7.831   8.122 -0.0519  2.1934  0.1603
  497MOL0     H65562   7.051   7.950   7.942  0.6787 -1.1531  3.0169
  497MOL0     H65563   7.187   8.033   8.022  0.0081 -0.7614  1.4183
  497MOL0     H65564   7.177   8.081   7.784 -0.9285 -1.2503 -1.5043
  497MOL0     H65565   7.247   7.923   7.750  1.6836 -2.0807  2.4674
  497MOL0     H65566   7.435   7.822   7.708 -1.4260  1.0843  1.2571
  497MOL0     H65567   7.658   7.744   7.683  3.3161  3.5845 -3.0648
  497MOL0     H65568   8.087   7.655   7.972  0.4107  0.8551  1.1043
  497MOL0     H65569   8.324   7.606   7.977  0.9568  1.0332  3.5877
  497MOL0     H65570   8.641   7.920   7.886  2.6370 -3.1845  1.5648
  497MOL0     H65571   8.560   7.870   7.727 -0.7000 -0.1491  0.9889
  497MOL0     H65572   8.779   7.714   7.859  1.8608  0.2425 -1.8650
  497MOL0     H65573   8.795   7.820   7.721  2.2615  2.6900  3.2224
  497MOL0     H65574   8.626   7.704   7.608 -1.6017 -0.5456  0.0573
  497MOL0     H65575   8.640   7.567   7.733  2.9673  0.0136  1.2973
  497MOL0     H65576   8.746   7.520   7.540 -1.2482  0.6752 -0.1012
  497MOL0     H65577   8.842   7.667   7.542 -2.5181  3.1252  1.8530
  497MOL0     H65578   8.854   7.458   7.767 -0.4244  0.7002  1.1412
  497MOL0     H65579   8.932   7.608   7.751 -1.4198 -0.0359  1.0290
  497MOL0     H65580   8.979   7.364   7.573 -0.5423  0.3620 -0.8886
  497MOL0     H65581   9.091   7.427   7.688  1.6141  1.6837 -1.6308
  497MOL0     H65582   9.020   7.536   7.416 -0.6331 -2.1452  0.9253
  497MOL0     H65583   9.084   7.650   7.527 -3.0762  0.6026 -2.9741
  497MOL0     H65584   9.279   7.488   7.563 -1.9885  2.5572  1.9007
  497MOL0     H65585   9.275   7.555   7.400  1.0541 -1.8652 -1.2378
  497MOL0     H65586   8.413   8.013   7.858 -0.6471  0.0908 -0.4924
  497MOL0     H65587   8.186   8.061   7.840 -1.4143 -1.3151 -0.5060
  497MOL0     H65588   7.776   7.994   8.026 -0.3375 -0.8427  0.2439
  497MOL0     H65589   7.553   8.102   8.010  2.6469  1.3669 -0.4929
  497MOL0     H65590   7.340   7.663   7.019 -1.0375 -0.3547 -1.1120
  497MOL0     H65591   7.283   7.899   7.042  0.4896  1.8258  0.7478
  497MOL0     H65592   7.697   8.362   7.195  1.3116 -0.2375 -3.3131
  497MOL0     H65593   7.642   8.636   7.206 -0.4006 -0.2491 -2.3758
  497MOL0     H65594   7.373   8.804   6.923  0.4278  0.0370 -0.6074
  497MOL0     H65595   7.554   8.776   6.950 -0.3764  1.5163 -0.0177
  497MOL0     H65596   7.563   8.943   7.103 -1.8233 -2.8066  1.9304
  497MOL0     H65597   7.525   8.980   6.931  3.1522  1.6013  1.9718
  497MOL0     H65598   7.333   8.980   7.154  0.9085 -0.7716 -0.7588
  497MOL0     H65599   7.296   9.046   6.982  1.3865 -0.6015 -2.8396
  497MOL0     H65600   7.484   9.218   7.056 -0.6251 -0.1770 -0.0861
  497MOL0     H65601   7.321   9.238   7.115 -1.1457 -0.3874 -0.3977
  497MOL0     H65602   7.504   9.110   7.474  0.6970 -3.2737  0.0112
  497MOL0     H65603   7.304   8.575   6.995 -0.5414 -0.8392  0.6826
  497MOL0     H65604   7.318   8.325   6.989  0.7067 -0.0504 -1.6532
  498MOL0     O65605   8.129   2.444   1.603  0.2003 -0.2291  0.0266
  498MOL0     C65606   8.185   2.331   1.616 -0.5605 -0.0377  0.5457
  498MOL0     O65607   8.309   2.312   1.663  0.0234  0.3922 -0.6827
  498MOL0     C65608   8.361   2.406   1.743 -0.1409  0.7856  0.6604
  498MOL0     C65609   8.318   2.417   1.875  0.2873  0.4735  0.3927
  498MOL0     C65610   8.380   2.509   1.959 -0.2122 -0.2463 -0.5156
  498MOL0     C65611   8.486   2.580   1.923 -1.0650 -0.4462  0.1651
  498MOL0     O65612   8.545   2.665   2.010 -0.6340 -0.8046 -0.5345
  498MOL0     C65613   8.521   2.803   1.985 -0.3721  0.1383  0.3139
  498MOL0     C65614   8.613   2.907   2.052 -0.7137  0.1613 -0.7349
  498MOL0     C65615   8.540   3.006   2.143 -0.8055  0.8301 -1.0324
  498MOL0     C65616   8.476   2.937   2.265 -0.8772  1.2756 -0.1766
  498MOL0     C65617   8.420   3.039   2.377 -0.4340  0.7184  0.7460
  498MOL0     C65618   8.524   3.136   2.425  0.4238 -0.4373 -0.5629
  498MOL0     C65619   8.463   3.227   2.527  0.8021 -0.4669 -0.9943
  498MOL0     C65620   8.543   3.347   2.558 -0.4816  0.2453  0.4497
  498MOL0     N65621   8.479   3.428   2.662  0.4430  0.2941 -0.6545
  498MOL0     C65622   8.453   3.387   2.795  0.4382  1.5453 -0.1122
  498MOL0     C65623   8.410   3.495   2.851 -0.1603 -0.0424  0.4523
  498MOL0     C65624   8.367   3.503   2.993  1.1875 -0.5384 -0.0563
  498MOL0     C65625   8.236   3.589   3.011 -0.5008  0.5966 -0.3834
  498MOL0     C65626   8.123   3.523   2.938  0.0728 -0.5507 -0.0245
  498MOL0     C65627   7.969   3.576   2.963 -0.3476 -0.2588 -0.0281
  498MOL0     O65628   7.959   3.601   3.108  0.1845  0.8798  0.0933
  498MOL0     C65629   7.925   3.496   3.194  0.8477 -0.5341 -0.1380
  498MOL0     C65630   7.889   3.540   3.322 -0.3323 -0.3192 -0.5013
  498MOL0     C65631   7.852   3.454   3.428 -0.1464  0.8477 -1.0912
  498MOL0     C65632   7.836   3.320   3.395  0.8387  0.6827 -0.3005
  498MOL0     C65633   7.788   3.224   3.506  0.3213 -0.1861  0.2495
  498MOL0     O65634   7.741   3.102   3.465  0.1610 -0.1407  0.7429
  498MOL0     C65635   7.716   2.991   3.544  0.4131 -0.1306  1.0392
  498MOL0     C65636   7.591   2.945   3.557  0.6346  0.5119  0.7220
  498MOL0     C65637   7.554   2.850   3.662 -0.0779 -1.4540 -1.0253
  498MOL0     C65638   7.650   2.804   3.748 -0.2544 -0.2039 -0.2080
  498MOL0     O65639   7.622   2.735   3.863  0.3318  0.5577 -0.0982
  498MOL0     C65640   7.487   2.693   3.881  0.7557  0.5768  0.2700
  498MOL0     C65641   7.470   2.603   4.000 -0.0041 -1.0316 -0.5417
  498MOL0     C65642   7.322   2.586   4.048 -0.1066 -0.0324 -1.1284
  498MOL0     C65643   7.315   2.497   4.180  0.1293  0.6904 -0.2516
  498MOL0     C65644   7.165   2.484   4.234  0.2557 -0.2636 -0.1063
  498MOL0     C65645   7.109   2.614   4.278  0.1648 -0.7998 -0.7544
  498MOL0     C65646   6.969   2.592   4.352 -0.7663 -0.4475 -0.9779
  498MOL0     C65647   6.921   2.720   4.414  0.1412 -1.0226 -0.4452
  498MOL0    Cl65648   7.017   2.763   4.555 -0.2324  0.2902  0.2601
  498MOL0     C65649   7.780   2.849   3.731  0.9137  0.7968 -0.4598
  498MOL0     C65650   7.817   2.946   3.636 -0.5915  0.6923 -0.2272
  498MOL0     O65651   7.802   3.255   3.625  1.2590  0.2165 -0.2462
  498MOL0     C65652   7.870   3.275   3.264 -0.0941 -0.4699 -0.9028
  498MOL0     C65653   7.912   3.366   3.166 -0.3782  1.0525  0.0416
  498MOL0     N65654   8.419   3.604   2.763  0.4381 -0.0055 -0.3698
  498MOL0     N65655   8.455   3.557   2.654 -0.3691  0.9667  0.3637
  498MOL0     C65656   8.523   2.577   1.785  0.8875 -0.7862 -0.8006
  498MOL0     C65657   8.463   2.485   1.699  0.6173  0.1615 -0.3806
  498MOL0     C65658   8.114   2.225   1.542 -0.0368 -0.4712  0.0708
  498MOL0     C65659   8.182   2.109   1.516 -0.9766  0.1718 -0.3175
  498MOL0     C65660   8.123   1.998   1.448 -0.1175  0.8626  0.6247
  498MOL0     C65661   7.981   1.999   1.428  0.3988  0.4979 -0.1643
  498MOL0     O65662   7.911   1.898   1.370  0.1946  0.2759  0.2883
  498MOL0     C65663   7.990   1.782   1.320  0.6195  0.3724 -0.0075
  498MOL0     C65664   7.903   1.695   1.229  0.3888 -1.7504 -0.9826
  498MOL0     C65665   7.787   1.647   1.312  0.3479 -1.0625 -1.3592
  498MOL0     C65666   7.732   1.509   1.254  0.5505 -0.1269 -0.1781
  498MOL0     C65667   7.814   1.396   1.296  0.0507  1.2157 -0.8914
  498MOL0     C65668   7.869   1.288   1.320  0.2297 -0.3812 -0.2186
  498MOL0     C65669   7.909   2.118   1.463  0.3776  0.0571 -0.1411
  498MOL0     C65670   7.974   2.229   1.517  0.2003  0.2175 -0.0045
  498MOL0     H65671   8.247   2.353   1.928  2.5672 -1.0640  1.7481
  498MOL0     H65672   8.362   2.525   2.065  2.8783 -0.3293  0.1257
  498MOL0     H65673   8.418   2.824   2.014  0.0323 -0.0828  2.0603
  498MOL0     H65674   8.538   2.821   1.879 -2.1136  0.2775  0.0278
  498MOL0     H65675   8.654   2.970   1.973 -2.1516 -3.6579 -4.9428
  498MOL0     H65676   8.690   2.852   2.109  0.7654  2.0197 -0.8472
  498MOL0     H65677   8.468   3.062   2.083 -0.6209 -1.1192 -3.2103
  498MOL0     H65678   8.624   3.068   2.173 -0.9575  2.4713 -3.6794
  498MOL0     H65679   8.405   2.859   2.237 -1.1340  0.3022  2.8454
  498MOL0     H65680   8.547   2.864   2.306 -1.3213 -0.6131 -2.4845
  498MOL0     H65681   8.394   2.978   2.464  1.3272 -1.3362 -0.0788
  498MOL0     H65682   8.331   3.092   2.341  0.3152 -0.7454 -3.9199
  498MOL0     H65683   8.566   3.198   2.345  0.8294  0.2686  0.1798
  498MOL0     H65684   8.611   3.077   2.454  0.2299 -0.1706  0.6059
  498MOL0     H65685   8.363   3.250   2.489 -0.2842 -2.6440  0.3738
  498MOL0     H65686   8.468   3.165   2.617  2.2060  0.9519 -0.0306
  498MOL0     H65687   8.577   3.414   2.479  4.1190  0.9718  2.7093
  498MOL0     H65688   8.644   3.319   2.591 -0.0858  1.5321  0.4076
  498MOL0     H65689   8.452   3.287   2.838  2.4503  0.7116 -1.7986
  498MOL0     H65690   8.450   3.548   3.048 -0.3002 -0.3891  2.1962
  498MOL0     H65691   8.347   3.404   3.033 -0.2070 -1.2711 -2.3825
  498MOL0     H65692   8.265   3.692   2.985 -3.4592  1.2918 -1.3965
  498MOL0     H65693   8.205   3.606   3.115  0.7648  0.5960  0.0069
  498MOL0     H65694   8.131   3.545   2.831  1.0670  0.4104  0.2237
  498MOL0     H65695   8.114   3.415   2.954 -0.3156 -0.5156 -0.0079
  498MOL0     H65696   7.890   3.507   2.933 -1.8059  0.4357  2.0173
  498MOL0     H65697   7.955   3.669   2.906  0.9799  0.0963  0.1901
  498MOL0     H65698   7.889   3.648   3.329 -1.0632 -0.3530  0.1295
  498MOL0     H65699   7.833   3.483   3.531 -1.1222 -2.4577 -0.1943
  498MOL0     H65700   7.520   2.985   3.485  3.5685  1.7859 -1.6772
  498MOL0     H65701   7.452   2.812   3.662 -1.6716  2.3860  0.1423
  498MOL0     H65702   7.460   2.623   3.801  0.0285  0.0162  0.9935
  498MOL0     H65703   7.422   2.781   3.886  0.1270  0.0642  1.5872
  498MOL0     H65704   7.527   2.645   4.083  0.2181 -1.3170 -0.5476
  498MOL0     H65705   7.520   2.506   3.998 -0.2199 -1.3414  3.0334
  498MOL0     H65706   7.255   2.540   3.975 -0.3061  0.1189 -1.0406
  498MOL0     H65707   7.278   2.683   4.073  0.5031 -0.3320  1.3491
  498MOL0     H65708   7.348   2.395   4.162 -0.7376  0.2180  0.6818
  498MOL0     H65709   7.375   2.540   4.261  0.0924  1.2230 -0.4989
  498MOL0     H65710   7.172   2.412   4.316 -1.2662 -1.7182 -1.1759
  498MOL0     H65711   7.109   2.440   4.150  2.6920 -1.3954 -1.2395
  498MOL0     H65712   7.104   2.699   4.210 -1.2060  3.6311  4.1602
  498MOL0     H65713   7.175   2.655   4.356  0.1158 -1.1815 -0.5071
  498MOL0     H65714   6.902   2.554   4.275 -0.4495 -0.9281 -1.0190
  498MOL0     H65715   6.984   2.521   4.433  0.5091 -3.1470 -3.4103
  498MOL0     H65716   6.817   2.717   4.446 -0.0278  2.3848 -0.2959
  498MOL0     H65717   6.921   2.799   4.338 -0.3802 -1.7235 -1.1905
  498MOL0     H65718   7.853   2.810   3.801 -1.0293 -0.8911  0.7506
  498MOL0     H65719   7.920   2.979   3.643 -0.4620 -0.1066  3.5392
  498MOL0     H65720   7.867   3.170   3.239 -0.2561 -0.8286  0.5664
  498MOL0     H65721   7.927   3.331   3.065  0.5818 -0.2875  0.6112
  498MOL0     H65722   8.597   2.649   1.751 -0.8145  2.2963  1.5323
  498MOL0     H65723   8.499   2.463   1.599 -1.9439 -4.1503 -0.6379
  498MOL0     H65724   8.288   2.111   1.540 -1.2437 -1.0660  1.1566
  498MOL0     H65725   8.190   1.914   1.431 -1.9348 -0.3567 -0.8225
  498MOL0     H65726   8.030   1.712   1.394 -2.0630 -2.5342 -1.0300
  498MOL0     H65727   8.071   1.807   1.251  0.8541 -1.5199 -0.4689
  498MOL0     H65728   7.868   1.752   1.142 -1.6218 -1.8554 -0.2932
  498MOL0     H65729   7.954   1.601   1.210  1.2665 -1.7050  0.8842
  498MOL0     H65730   7.709   1.720   1.332  2.3458  0.7072  0.5996
  498MOL0     H65731   7.815   1.631   1.417 -0.2391  3.3514 -0.3492
  498MOL0     H65732   7.629   1.492   1.289  0.2163 -2.0710 -1.8794
  498MOL0     H65733   7.735   1.513   1.145  1.3804 -1.3022 -0.2198
  498MOL0     H65734   7.923   1.200   1.347  1.0038  0.4354  1.0086
  498MOL0     H65735   7.802   2.127   1.454  0.2556  0.8912  1.6998
  498MOL0     H65736   7.919   2.320   1.538  2.2647  1.5294 -0.0689
  499MOL0     O65737   8.227   5.426   1.987  0.2982 -0.1640  0.5377
  499MOL0     C65738   8.247   5.424   2.104 -0.3585  1.1484 -0.9039
  499MOL0     O65739   8.366   5.467   2.169 -0.5745 -0.1212  0.8766
  499MOL0     C65740   8.448   5.559   2.102  0.0560  0.4056  0.4099
  499MOL0     C65741   8.473   5.682   2.149 -0.7820 -0.6132 -0.4749
  499MOL0     C65742   8.570   5.766   2.074  0.2266  0.0278  0.1482
  499MOL0     C65743   8.637   5.717   1.963  0.2914  0.4700 -0.0480
  499MOL0     O65744   8.729   5.787   1.894 -0.4588 -0.4103 -0.3434
  499MOL0     C65745   8.834   5.835   1.985  0.5519  0.3906 -0.3432
  499MOL0     C65746   8.946   5.913   1.907 -0.4100 -0.8125 -0.6361
  499MOL0     C65747   9.016   5.815   1.814 -0.6886  0.0321  0.2426
  499MOL0     C65748   9.148   5.891   1.779 -0.0395 -0.0524 -0.0028
  499MOL0     C65749   9.236   5.816   1.673  0.1384 -1.2581 -0.2664
  499MOL0     C65750   9.355   5.898   1.621  0.4555 -0.2098  0.0905
  499MOL0     C65751   9.457   5.808   1.557 -0.1443 -0.3184  0.0020
  499MOL0     C65752   9.579   5.882   1.525 -0.2749 -0.5123  0.3900
  499MOL0     N65753   9.653   5.898   1.646 -0.3906  0.1114 -0.8657
  499MOL0     C65754   9.753   5.813   1.672 -0.3498 -0.1266 -0.0314
  499MOL0     C65755   9.818   5.854   1.776  0.4497  0.4696  0.5616
  499MOL0     C65756   9.938   5.783   1.828 -0.0563  0.0519 -0.0817
  499MOL0     C65757  10.074   5.826   1.756  0.6925  0.3565  0.1067
  499MOL0     C65758  10.091   5.980   1.775 -0.8071 -0.3925  0.9194
  499MOL0     C65759  10.226   6.041   1.734 -0.0430 -0.2975 -0.0063
  499MOL0     O65760  10.239   6.046   1.590  0.3074  0.3475 -0.5077
  499MOL0     C65761  10.353   6.089   1.536 -0.7231  0.3717  0.5767
  499MOL0     C65762  10.366   6.104   1.393  0.1002  0.8470 -0.1792
  499MOL0     C65763  10.484   6.151   1.326  0.5844 -0.9386 -0.3043
  499MOL0     C65764  10.597   6.192   1.394  0.3988  1.2170 -0.6272
  499MOL0     C65765  10.726   6.233   1.336 -0.2345  0.3131 -0.6113
  499MOL0     O65766  10.736   6.242   1.195  0.3373  0.4808  0.8928
  499MOL0     C65767  10.850   6.261   1.123  1.4373  0.8665 -0.5012
  499MOL0     C65768  10.828   6.325   1.002 -0.1075 -0.9472  0.7117
  499MOL0     C65769  10.941   6.359   0.924  0.2176  0.3655 -0.2263
  499MOL0     C65770  11.064   6.316   0.969 -0.9743  0.2440  0.4264
  499MOL0     O65771  11.182   6.353   0.898 -0.2001  0.4240  0.3624
  499MOL0     C65772  11.183   6.316   0.759  0.5693  0.6183  0.3748
  499MOL0     C65773  11.297   6.392   0.688 -0.2678  0.0913 -0.3377
  499MOL0     C65774  11.433   6.345   0.746  0.1293  0.1582 -0.3797
  499MOL0     C65775  11.565   6.362   0.668  0.0980  0.9125  0.1038
  499MOL0     C65776  11.693   6.306   0.745 -0.3342 -0.3590 -0.5446
  499MOL0     C65777  11.822   6.300   0.647 -0.2605  0.2725  0.9495
  499MOL0     C65778  11.912   6.188   0.683 -0.4783 -0.5476 -0.3641
  499MOL0     C65779  12.048   6.182   0.604  0.5016  0.1419  0.6153
  499MOL0    Cl65780  12.168   6.303   0.662  0.0200 -0.2147 -0.1839
  499MOL0     C65781  11.087   6.254   1.091 -0.2751 -0.7757 -0.4018
  499MOL0     C65782  10.975   6.214   1.165  0.8600 -0.0461 -0.4790
  499MOL0     O65783  10.821   6.239   1.415 -0.2170  0.7857 -0.3743
  499MOL0     C65784  10.590   6.159   1.537 -0.1650 -0.1417 -0.6867
  499MOL0     C65785  10.476   6.113   1.599  0.2627  0.2679 -0.9002
  499MOL0     N65786   9.743   5.959   1.833 -0.9961 -0.1060  0.5401
  499MOL0     N65787   9.638   5.979   1.756 -0.1809 -0.7716 -1.0554
  499MOL0     C65788   8.612   5.593   1.920  0.1506  0.0882 -0.0149
  499MOL0     C65789   8.518   5.513   1.991 -0.0282 -0.7850  0.9835
  499MOL0     C65790   8.145   5.360   2.196 -0.2764 -0.1424 -0.0248
  499MOL0     C65791   8.185   5.303   2.310  0.6994  0.3156  0.0909
  499MOL0     C65792   8.081   5.262   2.399  0.8706 -0.6191 -0.1754
  499MOL0     C65793   7.944   5.268   2.365  0.3867 -0.0872  0.2461
  499MOL0     O65794   7.865   5.193   2.446  0.2311 -0.5082 -0.4390
  499MOL0     C65795   7.719   5.204   2.428 -0.9526 -0.5877 -1.0819
  499MOL0     C65796   7.671   5.094   2.333  0.5236  0.6699 -0.7440
  499MOL0     C65797   7.665   4.966   2.403  0.6103 -0.0711 -1.4597
  499MOL0     C65798   7.595   4.865   2.316 -0.3732 -0.3291 -0.4683
  499MOL0     C65799   7.679   4.776   2.229 -0.2242  1.0553  0.6227
  499MOL0     C65800   7.744   4.684   2.177  0.8351  0.7298  0.1421
  499MOL0     C65801   7.905   5.336   2.253  0.1917  0.4933  0.5798
  499MOL0     C65802   8.012   5.372   2.166  0.0894  0.4738  0.5569
  499MOL0     H65803   8.415   5.720   2.233 -2.3197 -0.6819 -1.4756
  499MOL0     H65804   8.572   5.872   2.094 -0.9541  0.1387 -0.2653
  499MOL0     H65805   8.879   5.751   2.037 -0.8738 -0.9441 -1.1598
  499MOL0     H65806   8.792   5.894   2.067 -2.2946  0.1627 -1.4855
  499MOL0     H65807   9.018   5.940   1.984 -1.9883 -0.7546  0.8847
  499MOL0     H65808   8.903   5.998   1.853  1.1388 -1.0507 -2.3562
  499MOL0     H65809   8.951   5.789   1.730  0.6117 -0.2746 -0.6799
  499MOL0     H65810   9.036   5.720   1.864  0.8110 -0.4155 -1.1411
  499MOL0     H65811   9.128   5.988   1.732  0.7955 -0.6851 -1.7132
  499MOL0     H65812   9.203   5.897   1.874  0.9560 -1.3754 -0.4752
  499MOL0     H65813   9.174   5.797   1.585 -0.0360 -0.2874 -0.3652
  499MOL0     H65814   9.276   5.719   1.705  1.5547 -0.9590 -1.0141
  499MOL0     H65815   9.391   5.956   1.707  1.2654  1.7837 -1.5092
  499MOL0     H65816   9.314   5.973   1.554  0.1474 -2.1016 -1.9538
  499MOL0     H65817   9.480   5.722   1.620 -2.6116 -2.0365 -1.2950
  499MOL0     H65818   9.408   5.782   1.463  1.1333 -2.3484 -0.1492
  499MOL0     H65819   9.553   5.981   1.485 -1.5198 -0.9699  0.0342
  499MOL0     H65820   9.646   5.830   1.455  1.2528  0.9492  0.6945
  499MOL0     H65821   9.771   5.723   1.614  0.6837  0.0677 -0.0287
  499MOL0     H65822   9.929   5.674   1.831  3.6759 -0.4261  4.2113
  499MOL0     H65823   9.952   5.812   1.933  1.3353 -0.4126 -0.1227
  499MOL0     H65824  10.066   5.803   1.649  2.0576  3.8742 -0.9076
  499MOL0     H65825  10.160   5.771   1.795  1.7731  0.4738 -1.9566
  499MOL0     H65826  10.020   6.025   1.705  0.9241  3.3762  1.3341
  499MOL0     H65827  10.069   6.016   1.875  2.4546  0.0721  1.5651
  499MOL0     H65828  10.301   5.968   1.767  0.9871 -0.4777 -2.5266
  499MOL0     H65829  10.232   6.139   1.782  0.0387  0.1058 -0.8228
  499MOL0     H65830  10.277   6.079   1.336  1.0930  1.9384 -2.3062
  499MOL0     H65831  10.456   6.161   1.222 -1.0066  1.5550  0.2780
  499MOL0     H65832  10.730   6.359   0.970  0.0947 -0.8200  0.2296
  499MOL0     H65833  10.927   6.419   0.835  0.5749 -0.5641 -0.9188
  499MOL0     H65834  11.094   6.348   0.705  1.8211  0.7319 -1.7203
  499MOL0     H65835  11.202   6.208   0.753 -1.8412 -0.0244  2.4937
  499MOL0     H65836  11.282   6.499   0.704  3.1208  0.5307  0.5141
  499MOL0     H65837  11.289   6.369   0.581  1.8896  0.6472 -0.6592
  499MOL0     H65838  11.420   6.238   0.766  1.3493 -0.1653 -1.1789
  499MOL0     H65839  11.456   6.392   0.842  0.3866  1.6257 -1.1256
  499MOL0     H65840  11.559   6.311   0.571  4.2002  0.9034 -0.3226
  499MOL0     H65841  11.592   6.461   0.629  0.9061 -0.2222 -2.4992
  499MOL0     H65842  11.682   6.204   0.783 -0.1316  0.2619  1.2784
  499MOL0     H65843  11.712   6.368   0.833  1.3276 -0.7440 -0.6002
  499MOL0     H65844  11.874   6.396   0.634 -0.6255  0.5262  1.2982
  499MOL0     H65845  11.780   6.291   0.547  0.2168  1.6795  0.5951
  499MOL0     H65846  11.932   6.199   0.790  0.1706  1.6923 -0.6498
  499MOL0     H65847  11.852   6.098   0.670  2.1460 -2.0979 -2.7675
  499MOL0     H65848  12.025   6.186   0.497 -1.2279 -1.5211  0.8629
  499MOL0     H65849  12.086   6.083   0.627 -1.9529 -1.7474 -2.5613
  499MOL0     H65850  11.184   6.221   1.127 -0.1828  1.2406  1.4264
  499MOL0     H65851  10.998   6.154   1.253 -1.5493 -1.5880 -0.8294
  499MOL0     H65852  10.673   6.180   1.604 -0.8499  3.8686 -0.8285
  499MOL0     H65853  10.481   6.096   1.706  0.6228 -1.2222 -1.1230
  499MOL0     H65854   8.663   5.561   1.829 -0.2183  0.0649 -0.2163
  499MOL0     H65855   8.514   5.411   1.954  2.4464  0.1329 -2.3705
  499MOL0     H65856   8.287   5.304   2.348  1.5817 -3.1810 -1.8002
  499MOL0     H65857   8.099   5.207   2.491 -2.7200  1.4361  1.9686
  499MOL0     H65858   7.677   5.300   2.396  0.5827 -0.4616 -2.9251
  499MOL0     H65859   7.674   5.179   2.524  0.9764  0.2802  0.1107
  499MOL0     H65860   7.573   5.131   2.304  1.0044  1.9828 -0.7723
  499MOL0     H65861   7.734   5.079   2.245 -1.4856  2.0671 -2.5200
  499MOL0     H65862   7.620   4.982   2.502  1.6368  1.4959 -1.1952
  499MOL0     H65863   7.765   4.928   2.427  0.3564  0.3600  0.4774
  499MOL0     H65864   7.564   4.793   2.392  4.2404 -5.2323 -2.5423
  499MOL0     H65865   7.507   4.907   2.266 -2.5983 -2.4849  1.4503
  499MOL0     H65866   7.822   4.617   2.150  3.4707  2.6873  2.3388
  499MOL0     H65867   7.805   5.352   2.214 -0.3087 -0.8099  1.2728
  499MOL0     H65868   7.989   5.391   2.061  2.3397 -1.6605 -0.4373
  500MOL0     O65869  10.811   6.053   8.793 -0.0003  0.2905 -0.0460
  500MOL0     C65870  10.744   6.145   8.835 -0.4436 -0.7602 -0.1859
  500MOL0     O65871  10.780   6.272   8.862  0.6266  0.3472 -0.4835
  500MOL0     C65872  10.915   6.297   8.854  0.2977 -0.2394  0.0480
  500MOL0     C65873  10.951   6.344   8.735  0.0450  0.1069  0.3513
  500MOL0     C65874  11.088   6.382   8.720  0.6682 -0.1146 -0.2138
  500MOL0     C65875  11.174   6.375   8.827  0.2593 -0.3867 -0.0902
  500MOL0     O65876  11.307   6.423   8.823 -0.2599 -0.3218  0.6963
  500MOL0     C65877  11.375   6.489   8.703 -0.0516  0.5090 -0.2036
  500MOL0     C65878  11.307   6.629   8.672  0.4565  0.7190 -0.6122
  500MOL0     C65879  11.304   6.717   8.794  0.2496 -1.1481  0.8559
  500MOL0     C65880  11.259   6.862   8.780 -0.0877  0.1837 -0.5496
  500MOL0     C65881  11.262   6.954   8.905 -0.1566 -0.4769  0.2303
  500MOL0     C65882  11.169   6.916   9.014 -0.4873  0.6644  0.6652
  500MOL0     C65883  11.016   6.907   8.979  0.1325  0.2513 -0.2271
  500MOL0     C65884  10.935   6.917   9.110  0.4636  0.1797  0.2423
  500MOL0     N65885  10.953   6.795   9.197  1.1890 -1.0425 -1.2573
  500MOL0     C65886  10.906   6.670   9.174  0.1954 -0.8377 -1.0986
  500MOL0     C65887  10.940   6.587   9.278 -0.7539 -0.7348  0.5782
  500MOL0     C65888  10.912   6.441   9.286 -0.6009 -0.1324  0.1424
  500MOL0     C65889  10.776   6.423   9.347 -0.2049  0.7418 -0.1989
  500MOL0     C65890  10.718   6.296   9.301 -0.6911 -0.2810  0.5768
  500MOL0     C65891  10.600   6.250   9.374 -0.1842  0.7719 -0.1760
  500MOL0     O65892  10.542   6.129   9.326 -0.2072 -0.4616  0.3073
  500MOL0     C65893  10.404   6.102   9.332  0.4399 -0.4977  0.2611
  500MOL0     C65894  10.346   5.989   9.270  0.1856  0.3555 -0.2141
  500MOL0     C65895  10.212   5.968   9.253  0.3943  0.4167  0.1572
  500MOL0     C65896  10.119   6.053   9.317  0.8439 -0.2590  0.3195
  500MOL0     C65897   9.970   6.022   9.328 -0.1401  0.6271  0.6035
  500MOL0     O65898   9.939   5.890   9.314  0.8057  0.5259 -0.9635
  500MOL0     C65899   9.814   5.839   9.339  0.0933  0.7608  0.7175
  500MOL0     C65900   9.759   5.754   9.246 -0.0728 -0.1919 -0.8741
  500MOL0     C65901   9.624   5.710   9.279 -0.6592 -0.3287 -0.7292
  500MOL0     C65902   9.547   5.752   9.393  0.9340  0.2575 -0.4311
  500MOL0     O65903   9.415   5.713   9.416 -0.2787 -0.6951  0.5444
  500MOL0     C65904   9.357   5.650   9.303  0.0782  0.4980  0.0961
  500MOL0     C65905   9.203   5.629   9.327  0.1176 -0.4927  0.1964
  500MOL0     C65906   9.126   5.614   9.192  0.4435 -0.2123  0.2111
  500MOL0     C65907   9.186   5.488   9.113 -0.2707  0.1167  0.4298
  500MOL0     C65908   9.168   5.340   9.186  0.0438 -0.8833  0.6676
  500MOL0     C65909   9.019   5.299   9.196  0.2620 -0.7872  0.4203
  500MOL0     C65910   9.000   5.163   9.250 -0.0274 -0.3123 -0.1917
  500MOL0     C65911   8.884   5.151   9.345 -0.7142  0.7982  0.7825
  500MOL0    Cl65912   8.914   5.255   9.481  0.0887  0.2038 -0.7271
  500MOL0     C65913   9.616   5.825   9.484 -0.0633 -0.8492  1.1523
  500MOL0     C65914   9.746   5.869   9.456  0.8916 -0.6080 -0.7556
  500MOL0     O65915   9.896   6.112   9.354 -0.6317 -0.7945 -0.2789
  500MOL0     C65916  10.171   6.160   9.381  0.1206 -0.4434 -0.0074
  500MOL0     C65917  10.313   6.184   9.393  0.6581  0.5285  0.5984
  500MOL0     N65918  11.022   6.662   9.361  0.8764 -0.4419  0.4567
  500MOL0     N65919  11.028   6.786   9.314  1.1447 -0.3651 -0.3267
  500MOL0     C65920  11.130   6.319   8.946 -0.2923  0.0808 -0.5070
  500MOL0     C65921  11.004   6.259   8.952 -0.8983  0.5057 -0.2084
  500MOL0     C65922  10.591   6.134   8.855 -0.0716 -0.0018  0.6503
  500MOL0     C65923  10.502   6.240   8.870  1.1675  0.0756  0.2572
  500MOL0     C65924  10.362   6.226   8.882  0.7093 -0.0852 -0.3336
  500MOL0     C65925  10.309   6.096   8.856 -0.7687 -0.1383 -0.5156
  500MOL0     O65926  10.175   6.071   8.865 -0.0771 -0.0886 -0.3541
  500MOL0     C65927  10.100   5.957   8.805  0.7573  0.4811  0.2761
  500MOL0     C65928  10.070   5.991   8.661  0.3793  0.6545 -0.2288
  500MOL0     C65929  10.018   5.860   8.589 -0.3665  0.7539  0.2983
  500MOL0     C65930  10.117   5.751   8.555 -0.0023 -0.5642  0.8662
  500MOL0     C65931  10.048   5.629   8.491 -0.4496 -0.6343 -0.6053
  500MOL0     C65932  10.003   5.522   8.458 -0.3646 -1.1295  0.7261
  500MOL0     C65933  10.395   5.988   8.827 -0.3623 -1.4582  1.1039
  500MOL0     C65934  10.536   6.004   8.829 -1.0643 -0.4940  0.5867
  500MOL0     H65935  10.877   6.347   8.656 -0.1454 -2.6621  0.3259
  500MOL0     H65936  11.108   6.419   8.620  1.8405 -0.3707 -0.0868
  500MOL0     H65937  11.384   6.415   8.622 -0.0827 -1.9866  1.9248
  500MOL0     H65938  11.480   6.507   8.730  0.7143 -3.7108  0.3276
  500MOL0     H65939  11.210   6.607   8.629  1.4709 -2.9970 -1.3167
  500MOL0     H65940  11.367   6.683   8.598  0.6909  0.2747 -0.7456
  500MOL0     H65941  11.400   6.724   8.846  0.2300 -0.5051  0.8103
  500MOL0     H65942  11.235   6.672   8.866 -1.5528 -0.3821 -0.3152
  500MOL0     H65943  11.321   6.908   8.702 -0.6796 -0.1363 -1.2154
  500MOL0     H65944  11.159   6.867   8.737 -0.8803 -0.4431  1.1183
  500MOL0     H65945  11.230   7.050   8.863  2.2068 -0.6418 -2.2088
  500MOL0     H65946  11.365   6.969   8.939 -0.4816  1.4630  0.4570
  500MOL0     H65947  11.178   6.985   9.098  0.4456 -1.6521  2.6038
  500MOL0     H65948  11.200   6.813   9.039 -2.9228 -1.1933 -3.0933
  500MOL0     H65949  11.004   6.989   8.907  0.1651 -3.1785 -4.5932
  500MOL0     H65950  10.994   6.813   8.928  0.2613 -0.5867  1.2285
  500MOL0     H65951  10.829   6.926   9.086  0.7700 -0.4354 -1.4592
  500MOL0     H65952  10.959   7.008   9.165  0.2407  0.7062 -0.5191
  500MOL0     H65953  10.855   6.641   9.083  2.8597 -2.4956 -2.1785
  500MOL0     H65954  10.988   6.388   9.343 -0.5911 -0.6413 -0.3356
  500MOL0     H65955  10.900   6.405   9.183 -1.2794 -0.0178  0.1741
  500MOL0     H65956  10.710   6.502   9.311 -1.3867 -0.8676 -1.7248
  500MOL0     H65957  10.779   6.423   9.457 -2.3068 -4.6032  0.1824
  500MOL0     H65958  10.695   6.321   9.197  1.6429  0.0368  0.0969
  500MOL0     H65959  10.789   6.213   9.306  0.4771  0.7926  2.4286
  500MOL0     H65960  10.528   6.333   9.383 -2.1887 -0.8660 -0.3773
  500MOL0     H65961  10.639   6.222   9.472  0.2551  1.3839 -0.1699
  500MOL0     H65962  10.404   5.919   9.212 -2.1211 -0.8497 -1.2245
  500MOL0     H65963  10.166   5.883   9.205 -0.5337  0.9356  0.0973
  500MOL0     H65964   9.814   5.719   9.159  1.0463 -1.6283  0.3423
  500MOL0     H65965   9.596   5.625   9.218  1.5143 -0.9101 -1.0064
  500MOL0     H65966   9.398   5.549   9.292 -1.1182  0.1344 -1.3421
  500MOL0     H65967   9.372   5.706   9.210 -2.1971 -0.4231 -0.9098
  500MOL0     H65968   9.166   5.717   9.381  2.4938 -0.2267  1.5145
  500MOL0     H65969   9.178   5.550   9.399 -2.1543 -0.0385  0.0011
  500MOL0     H65970   9.135   5.710   9.140  0.4718 -1.4900 -2.2813
  500MOL0     H65971   9.018   5.599   9.202 -0.0369  0.5163 -2.9091
  500MOL0     H65972   9.130   5.475   9.020 -1.4430 -0.4904  1.1891
  500MOL0     H65973   9.294   5.499   9.099  0.2458 -3.0952  1.0657
  500MOL0     H65974   9.204   5.329   9.288 -3.1644  2.5804  2.4237
  500MOL0     H65975   9.222   5.272   9.119  0.6266  0.6367 -0.4931
  500MOL0     H65976   8.969   5.292   9.099 -3.2169  0.7223  1.9285
  500MOL0     H65977   8.959   5.361   9.263  1.7644 -0.2479  1.3299
  500MOL0     H65978   8.986   5.086   9.174  3.9403 -0.2148 -1.2437
  500MOL0     H65979   9.089   5.132   9.306 -0.0520 -1.8045 -0.9303
  500MOL0     H65980   8.879   5.053   9.393  0.9603  0.5766  0.5568
  500MOL0     H65981   8.795   5.182   9.290 -0.4260  2.1984  1.0535
  500MOL0     H65982   9.564   5.843   9.578 -1.8281 -4.7696  1.1472
  500MOL0     H65983   9.793   5.928   9.534  0.7021 -0.2379 -0.9225
  500MOL0     H65984  10.108   6.228   9.439  0.2735 -0.7836  0.5707
  500MOL0     H65985  10.339   6.267   9.458 -0.5088  2.8477 -1.7101
  500MOL0     H65986  11.193   6.301   9.032  2.3761 -0.3750 -2.4230
  500MOL0     H65987  10.986   6.199   9.041  3.7520 -0.0044  0.6420
  500MOL0     H65988  10.543   6.336   8.897 -1.9681  0.9455  2.5182
  500MOL0     H65989  10.294   6.304   8.912  0.6684 -0.5505  0.8535
  500MOL0     H65990  10.010   5.952   8.867 -1.2696  2.3790 -2.3240
  500MOL0     H65991  10.153   5.862   8.813  0.3934  0.1112 -1.3984
  500MOL0     H65992   9.989   6.063   8.651 -2.1258 -1.7814  1.0298
  500MOL0     H65993  10.157   6.037   8.614  2.0473 -0.2199  1.8139
  500MOL0     H65994   9.956   5.872   8.500 -2.8790 -1.7869  1.5550
  500MOL0     H65995   9.950   5.816   8.664  0.4759 -0.1676  0.5385
  500MOL0     H65996  10.190   5.803   8.492 -0.5332  1.9199  2.1774
  500MOL0     H65997  10.162   5.715   8.648  2.3206 -0.7041 -0.2278
  500MOL0     H65998   9.979   5.430   8.409  1.0740 -0.1758 -1.9963
  500MOL0     H65999  10.354   5.896   8.788 -2.3957  0.6001 -2.0962
  500MOL0     H66000  10.599   5.919   8.806 -2.1426 -0.5092 -2.8495
  501MOL0     O66001   8.699  11.266   6.584  0.4945  0.2350 -0.6725
  501MOL0     C66002   8.617  11.347   6.559  0.0138 -0.1883 -0.0134
  501MOL0     O66003   8.625  11.446   6.457  0.1101  0.8920  0.5505
  501MOL0     C66004   8.722  11.455   6.367 -1.0629  0.7830  0.3843
  501MOL0     C66005   8.775  11.586   6.338 -0.0082  0.2904 -0.2591
  501MOL0     C66006   8.877  11.604   6.247  0.2283  0.7056 -0.0329
  501MOL0     C66007   8.947  11.498   6.185  1.1904  0.0248 -0.7807
  501MOL0     O66008   9.044  11.522   6.097 -0.0879  0.5450 -0.4874
  501MOL0     C66009   9.113  11.647   6.097 -1.2650  0.4145  0.8033
  501MOL0     C66010   9.250  11.633   6.033 -0.0468 -0.2446  0.0125
  501MOL0     C66011   9.355  11.531   6.082  0.0983 -0.4140  0.0653
  501MOL0     C66012   9.369  11.522   6.230 -0.3444 -0.7364  0.1756
  501MOL0     C66013   9.496  11.433   6.257 -0.2130 -0.5491 -0.3826
  501MOL0     C66014   9.626  11.487   6.196 -0.1504 -0.4869  0.2941
  501MOL0     C66015   9.663  11.630   6.245  0.4700  0.8228  0.4925
  501MOL0     C66016   9.803  11.672   6.209  0.9369 -0.4072 -0.5620
  501MOL0     N66017   9.910  11.619   6.293 -1.0279 -0.1233 -0.4667
  501MOL0     C66018  10.049  11.669   6.304 -0.4118  1.3653  0.6381
  501MOL0     C66019  10.094  11.615   6.423 -0.9179 -0.1504  0.0254
  501MOL0     C66020  10.231  11.631   6.487  0.3362  0.5561 -0.0469
  501MOL0     C66021  10.304  11.769   6.464 -0.0173  0.2429  0.0900
  501MOL0     C66022  10.440  11.772   6.533 -0.2492  0.6747 -0.1866
  501MOL0     C66023  10.536  11.889   6.491 -0.5238 -0.8049 -0.2457
  501MOL0     O66024  10.472  12.022   6.494  0.6958 -0.1039 -0.2308
  501MOL0     C66025  10.474  12.073   6.365  1.0968  1.6712  0.5818
  501MOL0     C66026  10.592  12.092   6.282  0.0246  0.3734 -0.2211
  501MOL0     C66027  10.591  12.131   6.152  0.0330 -0.6121  0.3716
  501MOL0     C66028  10.468  12.161   6.090  0.5013  0.2796 -0.4043
  501MOL0     C66029  10.467  12.219   5.956  0.5461  0.0861  0.1909
  501MOL0     O66030  10.581  12.197   5.878 -0.1605 -0.1878  0.7418
  501MOL0     C66031  10.568  12.219   5.739  0.5951 -0.3533  0.3371
  501MOL0     C66032  10.614  12.127   5.642  1.5035 -0.6157  0.1511
  501MOL0     C66033  10.600  12.149   5.502 -0.9582 -0.5174 -0.5962
  501MOL0     C66034  10.575  12.279   5.459  0.4177 -0.0572 -0.6793
  501MOL0     O66035  10.573  12.314   5.329  0.2075 -0.5129  0.0001
  501MOL0     C66036  10.636  12.233   5.225 -0.0887 -0.4464 -0.5039
  501MOL0     C66037  10.777  12.287   5.214  0.6342  0.1794  0.1598
  501MOL0     C66038  10.860  12.200   5.118 -0.2846  0.3945 -0.8116
  501MOL0     C66039  10.994  12.245   5.137  1.0142  0.1918  0.4615
  501MOL0     C66040  11.069  12.159   5.041 -0.5564  0.4691 -1.1101
  501MOL0     C66041  11.217  12.190   5.024  0.5108 -0.4766  0.3647
  501MOL0     C66042  11.296  12.173   5.149 -0.0501 -0.4341  0.6227
  501MOL0     C66043  11.450  12.200   5.130  0.6511 -0.0810  0.4980
  501MOL0    Cl66044  11.524  12.081   5.021 -0.4433 -0.1723 -0.0672
  501MOL0     C66045  10.538  12.367   5.551  0.5168 -0.2001 -0.2479
  501MOL0     C66046  10.536  12.343   5.695  1.1893  0.1772  0.6958
  501MOL0     O66047  10.362  12.273   5.912 -0.3260  1.0504  0.0400
  501MOL0     C66048  10.345  12.144   6.165 -0.0810 -0.1377 -0.2164
  501MOL0     C66049  10.353  12.090   6.302  0.0444  0.1829  0.0256
  501MOL0     N66050   9.995  11.537   6.471 -0.1277 -0.9120  0.6800
  501MOL0     N66051   9.889  11.541   6.402  0.3415 -0.1552  0.6833
  501MOL0     C66052   8.891  11.372   6.216  0.1104  0.8153  0.3024
  501MOL0     C66053   8.793  11.347   6.312  0.3323 -1.2160 -0.2751
  501MOL0     C66054   8.494  11.346   6.646 -0.5865 -0.6194 -0.1511
  501MOL0     C66055   8.384  11.438   6.631  1.0422 -0.3016  0.1695
  501MOL0     C66056   8.282  11.450   6.716  0.1358 -0.1494 -0.0818
  501MOL0     C66057   8.263  11.361   6.825  0.8905  0.4221  0.0176
  501MOL0     O66058   8.152  11.372   6.904 -0.8880 -0.8989 -0.0460
  501MOL0     C66059   8.139  11.291   7.021 -0.6353 -0.2656 -0.9307
  501MOL0     C66060   8.221  11.322   7.153 -0.2037 -0.9351  0.7511
  501MOL0     C66061   8.221  11.474   7.175  0.1572  0.8585 -0.4912
  501MOL0     C66062   8.247  11.517   7.319  0.0282 -0.4431 -0.4513
  501MOL0     C66063   8.166  11.442   7.415 -1.0156 -0.8543 -1.0342
  501MOL0     C66064   8.102  11.355   7.471 -0.2656  0.4729  0.3849
  501MOL0     C66065   8.361  11.262   6.840 -0.3750  0.0581 -0.1253
  501MOL0     C66066   8.482  11.264   6.761 -0.2125  0.5096 -0.3008
  501MOL0     H66067   8.729  11.678   6.374  0.8236  1.0603 -1.0909
  501MOL0     H66068   8.903  11.705   6.217 -2.7687  1.9440  1.1209
  501MOL0     H66069   9.116  11.688   6.199 -0.9810  0.4872  0.7658
  501MOL0     H66070   9.049  11.707   6.032 -1.6494  2.5670  2.9824
  501MOL0     H66071   9.306  11.726   6.044  0.8081 -0.3272 -2.8792
  501MOL0     H66072   9.221  11.617   5.929 -0.0770  0.2413 -0.0530
  501MOL0     H66073   9.446  11.553   6.025  0.2160 -0.6630  0.1563
  501MOL0     H66074   9.320  11.431   6.054 -0.7729 -0.3508  0.8815
  501MOL0     H66075   9.376  11.616   6.285 -0.6267 -0.7985  0.3183
  501MOL0     H66076   9.278  11.486   6.278 -0.3501  1.3269  1.8580
  501MOL0     H66077   9.472  11.332   6.224  0.0774 -1.3689  1.8008
  501MOL0     H66078   9.513  11.426   6.364  3.1080  0.4017 -0.7494
  501MOL0     H66079   9.625  11.480   6.086  0.2653 -0.4900  0.2898
  501MOL0     H66080   9.704  11.417   6.228 -1.8908 -1.7480  1.9452
  501MOL0     H66081   9.590  11.697   6.198 -0.7016 -0.2729  0.6973
  501MOL0     H66082   9.660  11.628   6.354  0.5547 -1.4212  0.5045
  501MOL0     H66083   9.809  11.779   6.228  1.8994 -0.1039 -2.3395
  501MOL0     H66084   9.825  11.657   6.103  1.8286  1.2968 -0.6525
  501MOL0     H66085  10.101  11.734   6.235 -1.5106 -1.8208 -3.5987
  501MOL0     H66086  10.303  11.556   6.452 -0.1079  0.9598 -1.9588
  501MOL0     H66087  10.233  11.618   6.596  2.7476 -1.9205 -0.2761
  501MOL0     H66088  10.235  11.840   6.511 -3.2215 -4.7057  3.9675
  501MOL0     H66089  10.310  11.779   6.355 -3.0510  0.6739 -0.1357
  501MOL0     H66090  10.441  11.777   6.643  2.8210  0.5711 -0.1104
  501MOL0     H66091  10.487  11.677   6.504  0.5745  1.0989 -0.2891
  501MOL0     H66092  10.570  11.853   6.393  1.4737 -1.1690  0.5371
  501MOL0     H66093  10.614  11.899   6.566 -1.3267 -3.1543  1.0208
  501MOL0     H66094  10.692  12.075   6.322  1.3721 -0.1996 -3.5489
  501MOL0     H66095  10.682  12.151   6.096 -0.3356 -1.6792 -0.6482
  501MOL0     H66096  10.638  12.025   5.672  3.2848 -0.4328 -0.5108
  501MOL0     H66097  10.643  12.073   5.439 -1.1648  0.4563 -1.9522
  501MOL0     H66098  10.581  12.235   5.131 -0.8634 -1.0447 -0.0808
  501MOL0     H66099  10.650  12.129   5.256  0.6416 -0.2611 -0.1776
  501MOL0     H66100  10.824  12.301   5.312 -0.8219 -0.9246  1.0482
  501MOL0     H66101  10.775  12.394   5.189 -0.5979  0.9259  3.0463
  501MOL0     H66102  10.811  12.214   5.021  0.9256  2.3781 -1.1840
  501MOL0     H66103  10.842  12.097   5.150 -0.2413  0.5155 -0.3824
  501MOL0     H66104  11.010  12.353   5.135 -1.0647  0.6060  2.0863
  501MOL0     H66105  11.029  12.212   5.236  3.8729 -0.5711 -0.7107
  501MOL0     H66106  11.009  12.152   4.950 -0.7829  4.8178 -1.4980
  501MOL0     H66107  11.073  12.060   5.088  0.2589  1.5033  1.1319
  501MOL0     H66108  11.222  12.284   4.968 -3.3859 -2.1739 -3.4415
  501MOL0     H66109  11.271  12.123   4.957  3.4494  2.2171 -0.2090
  501MOL0     H66110  11.251  12.242   5.221  1.2057 -0.9539  1.9415
  501MOL0     H66111  11.289  12.071   5.187  0.5932 -1.3045 -1.4487
  501MOL0     H66112  11.490  12.188   5.232  2.1910 -2.0481 -0.2780
  501MOL0     H66113  11.469  12.304   5.099  0.5792 -1.3571 -4.6255
  501MOL0     H66114  10.515  12.469   5.523 -0.2247  1.1267  4.3966
  501MOL0     H66115  10.513  12.424   5.763 -1.5702  1.0094 -1.0374
  501MOL0     H66116  10.245  12.158   6.127 -0.3688  0.3706  0.7036
  501MOL0     H66117  10.261  12.070   6.356 -0.2385 -0.5781 -0.7136
  501MOL0     H66118   8.939  11.289   6.165 -2.1695 -1.1535  1.1756
  501MOL0     H66119   8.768  11.245   6.342 -2.1219 -0.8569 -0.8689
  501MOL0     H66120   8.388  11.514   6.553 -0.2045 -0.4342 -0.0359
  501MOL0     H66121   8.210  11.527   6.693  0.2560  0.0708  0.2699
  501MOL0     H66122   8.153  11.195   6.972 -0.0540  0.1600 -1.6140
  501MOL0     H66123   8.033  11.303   7.042 -0.2550  1.5956  0.1462
  501MOL0     H66124   8.156  11.272   7.225 -2.7121 -0.0412 -0.7432
  501MOL0     H66125   8.325  11.288   7.148  0.2239  0.3479  0.5211
  501MOL0     H66126   8.119  11.503   7.147  0.1130  2.2331  0.9687
  501MOL0     H66127   8.297  11.522   7.113  1.8014 -0.5170  0.3552
  501MOL0     H66128   8.354  11.508   7.344  0.3330 -1.2130 -1.9682
  501MOL0     H66129   8.216  11.621   7.334 -2.0566 -1.1747  0.6317
  501MOL0     H66130   8.046  11.268   7.503  2.5646 -1.3387  0.7359
  501MOL0     H66131   8.376  11.193   6.923 -0.9935  0.2929  0.1814
  501MOL0     H66132   8.567  11.203   6.790 -0.4622  0.6721  0.8141
  502MOL0     O66133  10.705   3.908   1.371  0.3483  0.3046 -0.2827
  502MOL0     C66134  10.776   3.983   1.293 -0.4795  0.4147  0.0595
  502MOL0     O66135  10.909   4.012   1.307  0.3191 -0.0731  0.0335
  502MOL0     C66136  10.971   3.974   1.419 -0.7471 -1.1261 -0.5873
  502MOL0     C66137  11.026   4.075   1.493  0.7117 -0.3471  0.1951
  502MOL0     C66138  11.118   4.051   1.596 -0.5421  0.2898 -0.3157
  502MOL0     C66139  11.153   3.921   1.615  0.6139 -0.2039 -0.2510
  502MOL0     O66140  11.256   3.872   1.693 -0.0293 -0.0234  0.8391
  502MOL0     C66141  11.374   3.953   1.690 -0.1204  0.1136 -0.1042
  502MOL0     C66142  11.499   3.874   1.741 -0.2070 -0.5984 -0.4785
  502MOL0     C66143  11.493   3.851   1.887 -0.1634 -0.1486 -0.7463
  502MOL0     C66144  11.625   3.784   1.940  0.2907  0.3877 -0.3356
  502MOL0     C66145  11.630   3.793   2.092  0.5436  2.5216  0.2375
  502MOL0     C66146  11.521   3.724   2.168  0.7194 -0.1880  1.3651
  502MOL0     C66147  11.525   3.570   2.149  0.3645  0.4362 -0.0395
  502MOL0     C66148  11.656   3.504   2.185 -0.4846 -0.9812 -0.0654
  502MOL0     N66149  11.647   3.356   2.180  0.5554  0.0632  0.0367
  502MOL0     C66150  11.704   3.251   2.252 -0.8504 -0.0610  0.0767
  502MOL0     C66151  11.653   3.134   2.200 -1.3427  0.3170  0.1444
  502MOL0     C66152  11.715   3.001   2.229  0.0688 -0.3006  0.6485
  502MOL0     C66153  11.606   2.928   2.312 -0.0060 -0.2130  0.6132
  502MOL0     C66154  11.648   2.784   2.359  0.2395 -0.5406  0.3033
  502MOL0     C66155  11.553   2.739   2.458 -0.2636  0.4662  0.1953
  502MOL0     O66156  11.589   2.602   2.487  0.3794  1.4083 -0.6053
  502MOL0     C66157  11.572   2.546   2.609  0.3126 -0.0597 -0.6028
  502MOL0     C66158  11.533   2.615   2.727  0.2452  0.2234 -0.2617
  502MOL0     C66159  11.513   2.548   2.846 -0.9358 -0.0390 -0.2039
  502MOL0     C66160  11.558   2.410   2.854  0.4121 -0.4186 -0.4068
  502MOL0     C66161  11.541   2.341   2.980  0.3057  0.0210 -0.5065
  502MOL0     O66162  11.494   2.419   3.093 -0.1179  0.1057 -0.4121
  502MOL0     C66163  11.465   2.344   3.209 -0.6262 -0.4052 -0.2585
  502MOL0     C66164  11.384   2.229   3.217  0.0380  0.4986 -0.5682
  502MOL0     C66165  11.374   2.160   3.338  0.1712 -0.0554  1.0611
  502MOL0     C66166  11.449   2.197   3.450 -0.3494 -0.0481  1.1125
  502MOL0     O66167  11.425   2.117   3.559 -0.1192  0.4369  0.1691
  502MOL0     C66168  11.511   2.122   3.671  0.0560  0.6075 -0.7333
  502MOL0     C66169  11.456   2.220   3.778 -0.2277 -0.5974 -0.0669
  502MOL0     C66170  11.562   2.284   3.866  0.6564  0.3998  0.8065
  502MOL0     C66171  11.540   2.432   3.907  0.0371 -0.3118  0.1707
  502MOL0     C66172  11.399   2.464   3.947  0.4330 -0.5294 -0.9877
  502MOL0     C66173  11.389   2.618   3.964  0.3606 -0.4165 -0.0899
  502MOL0     C66174  11.257   2.662   4.039 -0.4395  0.2417 -0.3286
  502MOL0     C66175  11.122   2.621   3.973 -0.4895  0.4783 -0.7332
  502MOL0    Cl66176  10.974   2.625   4.079 -0.1345  0.0008  0.2253
  502MOL0     C66177  11.540   2.298   3.439  0.1652 -0.0584 -0.1470
  502MOL0     C66178  11.538   2.383   3.325  0.0391  0.3516  0.7272
  502MOL0     O66179  11.561   2.217   2.980 -0.0005  0.9614 -0.4835
  502MOL0     C66180  11.596   2.342   2.732 -0.6282 -0.4545 -0.9074
  502MOL0     C66181  11.603   2.414   2.615  0.2389  0.2072 -0.3884
  502MOL0     N66182  11.574   3.159   2.090 -0.2914 -0.6930  0.2630
  502MOL0     N66183  11.569   3.289   2.089  0.6929  1.1392 -0.4177
  502MOL0     C66184  11.085   3.820   1.546  1.1127  0.4655  0.1710
  502MOL0     C66185  10.991   3.844   1.445  1.1609  0.1300  0.1717
  502MOL0     C66186  10.715   4.047   1.180  0.2989  0.3164  1.1147
  502MOL0     C66187  10.579   4.097   1.172 -0.0679 -0.2454 -0.0884
  502MOL0     C66188  10.524   4.152   1.057  1.3654  0.5530  0.2880
  502MOL0     C66189  10.605   4.170   0.943 -0.1171  0.3576 -0.1874
  502MOL0     O66190  10.551   4.236   0.832 -0.6726 -0.9255 -0.2186
  502MOL0     C66191  10.441   4.175   0.767 -0.1689  1.3586 -0.2784
  502MOL0     C66192  10.341   4.285   0.736  0.2612  0.1912  0.4433
  502MOL0     C66193  10.252   4.331   0.853 -0.2746 -0.7016  0.8059
  502MOL0     C66194  10.138   4.418   0.797 -0.3507  1.2165  0.0439
  502MOL0     C66195  10.025   4.439   0.883  0.6090  0.3169  0.3705
  502MOL0     C66196   9.923   4.458   0.952  0.1293 -0.9772 -0.2126
  502MOL0     C66197  10.735   4.120   0.949  0.2752  0.9560 -0.1212
  502MOL0     C66198  10.793   4.068   1.066  0.1296 -0.3897  0.2054
  502MOL0     H66199  10.995   4.176   1.466  2.0736 -0.7856 -3.6318
  502MOL0     H66200  11.161   4.133   1.652 -1.2819  0.7243 -0.3659
  502MOL0     H66201  11.364   4.037   1.759  3.2829  1.5329 -1.0835
  502MOL0     H66202  11.409   3.986   1.592  5.0986 -0.4172  1.2632
  502MOL0     H66203  11.594   3.928   1.733  0.1210 -0.5945  2.5271
  502MOL0     H66204  11.500   3.781   1.683  2.3198  0.6261 -2.6346
  502MOL0     H66205  11.403   3.789   1.892 -1.8208  2.0419 -1.8772
  502MOL0     H66206  11.483   3.951   1.930  1.0244  1.0745 -3.1159
  502MOL0     H66207  11.630   3.677   1.921 -0.7052  0.2599  0.0630
  502MOL0     H66208  11.718   3.828   1.900  0.7050  0.7535  0.9787
  502MOL0     H66209  11.635   3.897   2.125  0.3113  2.3188  0.9390
  502MOL0     H66210  11.724   3.746   2.123 -1.3566 -1.6698  0.3739
  502MOL0     H66211  11.421   3.752   2.132  2.2222  1.9666 -1.5137
  502MOL0     H66212  11.527   3.747   2.275 -0.2520  0.6006  1.2692
  502MOL0     H66213  11.451   3.521   2.212  1.0146 -0.0756  0.3446
  502MOL0     H66214  11.505   3.540   2.045  1.8637  0.1339 -0.2615
  502MOL0     H66215  11.684   3.535   2.286 -1.7076 -0.5162  0.1524
  502MOL0     H66216  11.744   3.527   2.124 -0.7386  0.5951  0.1098
  502MOL0     H66217  11.773   3.260   2.335 -2.4759 -0.7496  1.5720
  502MOL0     H66218  11.808   3.012   2.285 -1.1530 -0.2749  2.7696
  502MOL0     H66219  11.732   2.940   2.140  1.2906  0.8192  0.0847
  502MOL0     H66220  11.519   2.927   2.246  1.5443  2.7409 -1.7461
  502MOL0     H66221  11.588   2.991   2.400  2.3870  1.7746 -0.1981
  502MOL0     H66222  11.646   2.721   2.269 -0.9853  0.5662 -0.4746
  502MOL0     H66223  11.753   2.790   2.391  0.5124 -0.8340 -0.5017
  502MOL0     H66224  11.449   2.729   2.424  0.7287 -2.6751 -2.5170
  502MOL0     H66225  11.543   2.804   2.545 -0.9343  0.1539  0.3612
  502MOL0     H66226  11.508   2.720   2.732 -1.1037 -0.1324  1.8308
  502MOL0     H66227  11.474   2.601   2.932 -3.8888 -0.5766 -1.0724
  502MOL0     H66228  11.345   2.174   3.131 -1.3778 -1.3005  1.1181
  502MOL0     H66229  11.308   2.075   3.350 -1.6969  1.5118  2.3212
  502MOL0     H66230  11.608   2.151   3.629  0.3569  0.5855 -0.0673
  502MOL0     H66231  11.517   2.021   3.713  2.8760  1.2262  0.5820
  502MOL0     H66232  11.396   2.165   3.851 -1.2159  0.8308  0.2416
  502MOL0     H66233  11.398   2.289   3.715  0.8112 -0.1230 -0.5290
  502MOL0     H66234  11.654   2.268   3.808 -0.0528 -2.3898  0.2772
  502MOL0     H66235  11.576   2.219   3.953 -0.7453 -0.4005  0.4655
  502MOL0     H66236  11.609   2.472   3.981  0.9088  0.9391 -1.2414
  502MOL0     H66237  11.562   2.503   3.826  2.1132  0.6441  1.4893
  502MOL0     H66238  11.359   2.418   4.038  0.4118  0.1985 -0.6158
  502MOL0     H66239  11.321   2.440   3.874  0.3980 -2.2030 -0.4301
  502MOL0     H66240  11.402   2.693   3.885 -0.3748  0.7478  0.8474
  502MOL0     H66241  11.475   2.632   4.031  2.3817 -1.0058 -2.4069
  502MOL0     H66242  11.256   2.616   4.138 -0.8751  1.1025  0.0795
  502MOL0     H66243  11.265   2.767   4.068  1.2024 -0.4483  2.0275
  502MOL0     H66244  11.130   2.516   3.941 -1.4960 -1.4164  4.3250
  502MOL0     H66245  11.110   2.692   3.891 -1.7923 -1.8391 -2.6962
  502MOL0     H66246  11.595   2.339   3.524  1.2583 -0.5241 -0.6066
  502MOL0     H66247  11.592   2.477   3.315 -1.4794  1.5294  2.8848
  502MOL0     H66248  11.646   2.247   2.750 -0.2298 -0.3482 -1.4377
  502MOL0     H66249  11.642   2.366   2.526 -0.0629 -0.4152 -0.1895
  502MOL0     H66250  11.112   3.718   1.571 -1.0013  0.3439  2.2673
  502MOL0     H66251  10.951   3.764   1.383  1.8111 -0.9147  1.0775
  502MOL0     H66252  10.511   4.075   1.253 -2.3128 -2.9863 -2.4921
  502MOL0     H66253  10.420   4.184   1.054  1.3668  0.9537  2.5157
  502MOL0     H66254  10.396   4.087   0.814 -0.3773  0.7530 -1.5653
  502MOL0     H66255  10.462   4.135   0.667  0.8819  2.0824 -0.3631
  502MOL0     H66256  10.399   4.369   0.697  0.1832 -0.1417 -0.4146
  502MOL0     H66257  10.276   4.249   0.655 -0.7500 -3.8681  2.7785
  502MOL0     H66258  10.320   4.392   0.913 -0.2400  0.8885 -0.7624
  502MOL0     H66259  10.214   4.248   0.913 -0.3967 -1.1315  0.1430
  502MOL0     H66260  10.193   4.506   0.761  2.5328 -0.3442  0.2670
  502MOL0     H66261  10.098   4.364   0.711  1.7882  0.0891 -0.3112
  502MOL0     H66262   9.850   4.478   1.028  0.6267  3.0876 -0.5919
  502MOL0     H66263  10.799   4.140   0.863  2.3826 -3.2758  0.1739
  502MOL0     H66264  10.898   4.043   1.066 -0.1373 -1.7634  2.3203
  503MOL0     O66265   0.568   6.591   1.272  0.1600 -0.6532 -0.0488
  503MOL0     C66266   0.608   6.570   1.158  0.1371 -1.0003  0.3780
  503MOL0     O66267   0.571   6.466   1.078  0.2200  0.3752  0.6191
  503MOL0     C66268   0.453   6.396   1.105 -0.4074 -0.4417 -0.3560
  503MOL0     C66269   0.452   6.256   1.121  0.6297  0.1204 -0.7944
  503MOL0     C66270   0.331   6.195   1.148  0.0994  0.2504 -0.4462
  503MOL0     C66271   0.210   6.261   1.147 -0.6690 -1.2842  0.4384
  503MOL0     O66272   0.096   6.187   1.155  0.0343 -1.0851 -0.4197
  503MOL0     C66273   0.059   6.115   1.036  0.2316  0.3514  0.6509
  503MOL0     C66274  -0.016   5.986   1.091 -0.6451 -1.0453  0.8971
  503MOL0     C66275  -0.090   5.920   0.978 -0.6135 -0.0007  0.5004
  503MOL0     C66276  -0.181   5.801   1.028  0.6680 -0.0499 -0.1019
  503MOL0     C66277  -0.299   5.758   0.942  0.1927 -0.4655  0.5317
  503MOL0     C66278  -0.401   5.693   1.034  0.1645 -0.2831 -0.1380
  503MOL0     C66279  -0.501   5.611   0.950 -0.2133 -0.3313 -0.3014
  503MOL0     C66280  -0.573   5.706   0.852 -0.4449 -0.2501  0.2032
  503MOL0     N66281  -0.673   5.620   0.784  0.9348  0.2885 -0.0063
  503MOL0     C66282  -0.772   5.671   0.707 -0.1021  0.4261  1.0815
  503MOL0     C66283  -0.820   5.570   0.621 -0.3332 -0.1141 -0.3699
  503MOL0     C66284  -0.916   5.600   0.510 -0.1290  0.7518 -0.1367
  503MOL0     C66285  -1.054   5.605   0.566 -0.5567 -0.0269  0.2380
  503MOL0     C66286  -1.144   5.612   0.447  0.5338  0.5422 -0.4064
  503MOL0     C66287  -1.289   5.583   0.490  0.1727 -0.4551  0.6678
  503MOL0     O66288  -1.378   5.592   0.379 -0.0185  0.4894 -0.0350
  503MOL0     C66289  -1.508   5.590   0.416  0.7059 -0.5580 -0.4307
  503MOL0     C66290  -1.567   5.566   0.541  0.4344 -1.1421 -0.3457
  503MOL0     C66291  -1.701   5.594   0.569 -0.1523  0.0974  0.1201
  503MOL0     C66292  -1.782   5.643   0.471  0.3916  0.9026 -0.4894
  503MOL0     C66293  -1.918   5.671   0.508 -0.2702  0.3067  1.4371
  503MOL0     O66294  -1.933   5.751   0.617 -0.0820 -0.0622 -0.0198
  503MOL0     C66295  -2.053   5.773   0.681 -0.5502 -0.6448  0.9598
  503MOL0     C66296  -2.159   5.682   0.687 -1.0768 -0.6553  0.4354
  503MOL0     C66297  -2.279   5.733   0.741 -0.5800 -0.2549  0.5894
  503MOL0     C66298  -2.296   5.869   0.782 -0.3151  0.2627  0.8899
  503MOL0     O66299  -2.412   5.916   0.828 -0.6572  0.2554 -0.2739
  503MOL0     C66300  -2.511   5.828   0.885 -0.5332 -0.5615 -1.0874
  503MOL0     C66301  -2.615   5.791   0.774 -0.0723 -0.2529  0.0133
  503MOL0     C66302  -2.744   5.739   0.837 -0.4583  0.5339 -0.6195
  503MOL0     C66303  -2.844   5.692   0.737  0.7077 -0.0773  0.9483
  503MOL0     C66304  -2.808   5.567   0.643 -0.2866 -0.8741  0.5462
  503MOL0     C66305  -2.928   5.552   0.547  0.5520 -0.1188 -0.6106
  503MOL0     C66306  -2.924   5.420   0.455  0.3360 -0.2319  0.5011
  503MOL0     C66307  -2.965   5.451   0.321  1.0588  0.1673  0.7270
  503MOL0    Cl66308  -2.875   5.569   0.240 -0.6622 -0.2521 -0.5848
  503MOL0     C66309  -2.187   5.943   0.796 -0.3832  0.8464  0.4891
  503MOL0     C66310  -2.067   5.904   0.744  0.1821 -0.7406  0.4435
  503MOL0     O66311  -2.011   5.619   0.443 -0.5322 -0.2322 -0.3662
  503MOL0     C66312  -1.737   5.652   0.344 -0.2720  0.1638  0.1793
  503MOL0     C66313  -1.605   5.633   0.318 -0.0219 -0.3693  0.5542
  503MOL0     N66314  -0.742   5.459   0.655 -0.2809  0.7037 -0.1709
  503MOL0     N66315  -0.665   5.486   0.753  0.3851 -0.3314 -0.1876
  503MOL0     C66316   0.210   6.406   1.141 -0.0615  0.0526  0.2263
  503MOL0     C66317   0.332   6.468   1.111  0.2806  0.1755  0.1326
  503MOL0     C66318   0.724   6.646   1.121  0.5378  0.7759  0.8770
  503MOL0     C66319   0.793   6.739   1.198 -1.4495  0.1169 -0.1774
  503MOL0     C66320   0.916   6.796   1.153 -0.4906 -1.6525 -0.0870
  503MOL0     C66321   0.974   6.761   1.033 -0.0702  0.5861  0.9831
  503MOL0     O66322   1.092   6.821   0.994 -0.3192 -0.2029  0.9430
  503MOL0     C66323   1.139   6.814   0.859 -0.0675 -0.3074  0.5603
  503MOL0     C66324   1.284   6.841   0.834  0.0592 -0.2465  0.4674
  503MOL0     C66325   1.348   6.958   0.920  0.0122 -0.5107 -0.2620
  503MOL0     C66326   1.278   7.088   0.888 -0.2912 -0.8428 -0.0942
  503MOL0     C66327   1.305   7.125   0.746 -1.2694  0.0136 -0.0286
  503MOL0     C66328   1.329   7.126   0.626 -0.0153 -0.6275 -0.8354
  503MOL0     C66329   0.899   6.671   0.952 -0.7415  0.2685 -0.1609
  503MOL0     C66330   0.785   6.605   0.993 -0.2230  1.2057  0.1472
  503MOL0     H66331   0.546   6.208   1.096  0.4767  0.3750 -1.9152
  503MOL0     H66332   0.351   6.089   1.164 -0.4667  0.3403  0.9391
  503MOL0     H66333   0.145   6.078   0.981  1.7642  2.5648  1.4462
  503MOL0     H66334  -0.002   6.176   0.969  1.8235 -0.9685 -2.1605
  503MOL0     H66335  -0.088   6.021   1.166  0.9842  0.9048  1.6587
  503MOL0     H66336   0.053   5.915   1.138  2.2056 -0.9205 -2.6927
  503MOL0     H66337  -0.009   5.887   0.912 -1.0108  0.0264 -0.0147
  503MOL0     H66338  -0.145   6.004   0.936 -0.1494 -0.1484 -0.4443
  503MOL0     H66339  -0.125   5.709   1.048 -3.3761 -3.0307 -1.3569
  503MOL0     H66340  -0.208   5.832   1.129  1.5303 -1.5520  0.6301
  503MOL0     H66341  -0.266   5.695   0.858 -0.1687  2.0021 -1.5955
  503MOL0     H66342  -0.343   5.848   0.897  0.9479 -0.4344 -0.1645
  503MOL0     H66343  -0.460   5.766   1.090  1.0394 -1.0489  1.8813
  503MOL0     H66344  -0.347   5.631   1.106  3.9299  1.8154 -0.8814
  503MOL0     H66345  -0.456   5.528   0.895 -0.6196  0.7302 -2.3688
  503MOL0     H66346  -0.579   5.571   1.015 -0.2559  0.7494  0.3410
  503MOL0     H66347  -0.517   5.749   0.769 -0.5494 -0.5537 -0.0282
  503MOL0     H66348  -0.624   5.789   0.901  0.1034 -0.7686  1.7116
  503MOL0     H66349  -0.809   5.772   0.692  0.8895  0.5546 -0.8372
  503MOL0     H66350  -0.906   5.517   0.440 -1.4715  0.6616 -0.2382
  503MOL0     H66351  -0.881   5.692   0.463 -0.7531  0.7647 -0.5798
  503MOL0     H66352  -1.080   5.689   0.631 -0.8209 -0.8809  1.2733
  503MOL0     H66353  -1.069   5.512   0.622  2.6053 -1.9851 -1.8299
  503MOL0     H66354  -1.151   5.714   0.408  2.4057  0.5456 -0.8108
  503MOL0     H66355  -1.112   5.559   0.357  1.3718 -0.8478  0.6665
  503MOL0     H66356  -1.321   5.665   0.555 -1.6084  2.6229 -3.6396
  503MOL0     H66357  -1.297   5.483   0.534 -2.4696 -0.1371  1.1075
  503MOL0     H66358  -1.505   5.530   0.623  1.2687 -0.8123 -0.8193
  503MOL0     H66359  -1.739   5.564   0.666 -0.8741 -1.6833 -0.6732
  503MOL0     H66360  -2.145   5.578   0.659  0.1501  0.4329 -3.5548
  503MOL0     H66361  -2.363   5.665   0.737  1.1388 -2.6759  2.6534
  503MOL0     H66362  -2.562   5.878   0.968  2.6265 -0.1680  0.7416
  503MOL0     H66363  -2.469   5.741   0.935 -0.2667  1.7727  3.2293
  503MOL0     H66364  -2.587   5.711   0.705  0.8372  0.7454 -0.8170
  503MOL0     H66365  -2.638   5.887   0.727  0.3537  0.1089  0.5180
  503MOL0     H66366  -2.783   5.819   0.901  2.7064  0.6918  1.3159
  503MOL0     H66367  -2.732   5.660   0.912 -0.2382  1.1689  0.0315
  503MOL0     H66368  -2.932   5.665   0.796  0.7707  2.4890  2.3554
  503MOL0     H66369  -2.865   5.772   0.665 -1.0423 -1.8006 -0.5900
  503MOL0     H66370  -2.800   5.473   0.700 -1.3088 -2.3444 -1.5906
  503MOL0     H66371  -2.717   5.593   0.588  0.5394  1.9565  3.0036
  503MOL0     H66372  -2.951   5.638   0.485 -0.2689  0.0516 -0.0897
  503MOL0     H66373  -3.008   5.532   0.620  0.3741  0.5144 -0.6227
  503MOL0     H66374  -2.821   5.384   0.450  0.4475 -0.0390  1.2890
  503MOL0     H66375  -2.991   5.346   0.499 -0.2987  0.7910  1.2874
  503MOL0     H66376  -3.072   5.464   0.343  1.0236 -1.0561  1.3285
  503MOL0     H66377  -2.959   5.363   0.257  1.8022  1.9069 -1.7629
  503MOL0     H66378  -2.192   6.039   0.846  2.9719 -0.2899  3.3996
  503MOL0     H66379  -1.975   5.962   0.751  0.8164 -1.4501 -1.4933
  503MOL0     H66380  -1.808   5.694   0.273 -0.1796  2.7908  1.5093
  503MOL0     H66381  -1.551   5.660   0.227 -0.4325  0.8653  0.6531
  503MOL0     H66382   0.118   6.463   1.148 -0.6322 -0.9002  0.7357
  503MOL0     H66383   0.331   6.574   1.085 -0.4994 -0.3477 -2.2409
  503MOL0     H66384   0.748   6.766   1.293 -0.8293  2.7229 -0.5620
  503MOL0     H66385   0.969   6.862   1.221  0.6554 -2.2201 -0.4070
  503MOL0     H66386   1.095   6.893   0.796  1.7169  0.7993  0.6463
  503MOL0     H66387   1.114   6.727   0.797  2.0758  1.4715 -3.1486
  503MOL0     H66388   1.331   6.745   0.858 -1.3832 -2.3546 -4.0358
  503MOL0     H66389   1.302   6.859   0.728 -3.8640 -0.4424 -0.3903
  503MOL0     H66390   1.454   6.969   0.892  0.6164  0.2097  2.1003
  503MOL0     H66391   1.353   6.941   1.028  0.6888 -0.8148 -0.3337
  503MOL0     H66392   1.170   7.087   0.904 -0.4074 -1.5203 -0.8317
  503MOL0     H66393   1.313   7.168   0.953 -2.5157 -0.9610  1.3746
  503MOL0     H66394   1.339   7.126   0.519 -0.7948  0.6267 -0.9328
  503MOL0     H66395   0.947   6.647   0.857  2.2147 -3.1803  1.9419
  503MOL0     H66396   0.734   6.529   0.934  1.8855 -1.2309  1.3054
  504MOL0     O66397   1.461   8.171   3.107 -0.6847  0.0126 -1.4199
  504MOL0     C66398   1.450   8.060   3.050 -0.5915  0.1066  0.0405
  504MOL0     O66399   1.341   8.032   2.972  0.7259  0.4099  0.2048
  504MOL0     C66400   1.275   8.146   2.919  0.2818  0.8597 -1.0155
  504MOL0     C66401   1.312   8.197   2.794 -0.6613 -0.3172 -0.3961
  504MOL0     C66402   1.258   8.315   2.744 -0.4145  0.2679 -0.1386
  504MOL0     C66403   1.174   8.392   2.820  0.3978  0.3853 -0.6710
  504MOL0     O66404   1.131   8.507   2.760  0.6329 -0.1586  0.8515
  504MOL0     C66405   1.095   8.618   2.840  0.3924 -0.4783  0.3596
  504MOL0     C66406   1.088   8.738   2.745 -0.4162 -0.0111 -0.8352
  504MOL0     C66407   1.213   8.747   2.655  0.5832 -0.1489 -0.2163
  504MOL0     C66408   1.343   8.738   2.741 -0.8080 -1.0410  0.7666
  504MOL0     C66409   1.477   8.783   2.668  0.3047 -0.0436 -0.4787
  504MOL0     C66410   1.516   8.696   2.557  0.4083  0.1120 -0.4366
  504MOL0     C66411   1.573   8.783   2.443 -1.0435  0.0495  0.1976
  504MOL0     C66412   1.709   8.847   2.465 -0.6692  0.7148  0.1818
  504MOL0     N66413   1.815   8.741   2.482 -0.0465 -0.2711  0.2683
  504MOL0     C66414   1.899   8.716   2.384  0.4112  0.3318 -0.0806
  504MOL0     C66415   1.980   8.621   2.422  0.1172  0.5605  0.4745
  504MOL0     C66416   2.097   8.562   2.344  0.5693  0.0410 -0.6489
  504MOL0     C66417   2.080   8.584   2.192  0.3827  0.3438 -0.5979
  504MOL0     C66418   2.154   8.473   2.115  0.3397  0.4284  0.4661
  504MOL0     C66419   2.064   8.350   2.095  0.0808  0.5274  0.1312
  504MOL0     O66420   2.000   8.369   1.971 -0.0182 -0.1573  0.4115
  504MOL0     C66421   1.942   8.277   1.891  0.6382 -0.2959 -0.4906
  504MOL0     C66422   1.930   8.148   1.925 -0.1944  0.8151 -0.1274
  504MOL0     C66423   1.874   8.065   1.836 -0.2466 -0.0636  0.1051
  504MOL0     C66424   1.826   8.110   1.705  0.3680 -0.2806  0.1546
  504MOL0     C66425   1.745   8.030   1.615 -0.3383  0.7314  0.3706
  504MOL0     O66426   1.741   7.898   1.642  0.0422 -0.1629 -0.1126
  504MOL0     C66427   1.660   7.814   1.588  0.8336  0.2958  0.3654
  504MOL0     C66428   1.695   7.678   1.615 -0.0836 -0.0564 -0.3518
  504MOL0     C66429   1.612   7.576   1.566 -0.3649  0.1039  0.2689
  504MOL0     C66430   1.493   7.604   1.498  0.0271  0.3933  0.2920
  504MOL0     O66431   1.403   7.499   1.460  0.0675  0.6242 -0.8056
  504MOL0     C66432   1.435   7.434   1.326 -0.8045 -0.2986 -0.5742
  504MOL0     C66433   1.377   7.296   1.326 -0.4103  0.3730 -0.0669
  504MOL0     C66434   1.228   7.309   1.305  0.7704 -0.1437 -0.1682
  504MOL0     C66435   1.162   7.169   1.301  0.4662  0.1565  0.5927
  504MOL0     C66436   1.015   7.192   1.269  0.4011  0.3920 -0.0810
  504MOL0     C66437   0.983   7.178   1.113 -0.5804 -0.1401 -0.0432
  504MOL0     C66438   0.832   7.207   1.090  0.3493  0.5511 -0.4974
  504MOL0     C66439   0.796   7.115   0.968  1.1127  0.5206 -0.3162
  504MOL0    Cl66440   0.663   7.198   0.869  0.1227  0.4797  0.1750
  504MOL0     C66441   1.466   7.736   1.469  0.0710 -0.0434 -0.8261
  504MOL0     C66442   1.549   7.838   1.509 -0.4330  0.6955  0.1139
  504MOL0     O66443   1.699   8.081   1.511  0.1505  1.1367  0.4708
  504MOL0     C66444   1.843   8.247   1.677  0.1376 -0.6057 -0.5229
  504MOL0     C66445   1.904   8.327   1.766 -0.7744  0.2013 -1.0983
  504MOL0     N66446   1.938   8.580   2.543 -1.0984 -0.1879 -0.6502
  504MOL0     N66447   1.846   8.659   2.589  0.0995  0.6671  0.4911
  504MOL0     C66448   1.132   8.345   2.948 -0.0699 -0.5365 -0.2782
  504MOL0     C66449   1.178   8.213   2.989  0.1708  0.0576 -0.2607
  504MOL0     C66450   1.558   7.960   3.074 -1.5191 -0.2500 -0.0481
  504MOL0     C66451   1.566   7.838   3.006  0.3275 -0.5355 -0.6534
  504MOL0     C66452   1.674   7.753   3.009  0.0641 -0.1989 -0.5727
  504MOL0     C66453   1.783   7.786   3.096  0.1210  0.4900  0.5060
  504MOL0     O66454   1.865   7.673   3.116 -0.4811 -0.3026 -0.4255
  504MOL0     C66455   1.996   7.696   3.168  0.1728 -0.7146  0.2527
  504MOL0     C66456   2.015   7.602   3.295 -0.0355 -0.6284  0.1808
  504MOL0     C66457   2.165   7.570   3.321  0.3043 -0.1030  0.6827
  504MOL0     C66458   2.253   7.703   3.340 -0.9589 -0.0937 -0.3533
  504MOL0     C66459   2.344   7.737   3.228 -0.4798  0.1654 -0.8378
  504MOL0     C66460   2.414   7.768   3.134 -0.0967 -0.2891 -0.2817
  504MOL0     C66461   1.779   7.904   3.167 -0.3197  0.7706 -0.0554
  504MOL0     C66462   1.670   7.994   3.163  0.3360  0.8086 -0.9394
  504MOL0     H66463   1.390   8.149   2.735 -1.2224 -2.7242  0.7183
  504MOL0     H66464   1.287   8.371   2.655  0.4672  0.0801  0.0243
  504MOL0     H66465   1.164   8.631   2.924  4.4724 -2.1827 -2.4097
  504MOL0     H66466   0.994   8.597   2.878 -1.1757  0.0270 -3.1203
  504MOL0     H66467   1.085   8.830   2.804  1.0698 -0.2113 -0.4201
  504MOL0     H66468   1.004   8.753   2.676 -0.7635  1.4432 -0.1265
  504MOL0     H66469   1.214   8.847   2.611 -0.0722  2.3257  4.6883
  504MOL0     H66470   1.213   8.677   2.571 -3.0824  1.2661 -1.5557
  504MOL0     H66471   1.329   8.803   2.827  3.1170  0.2888  0.5906
  504MOL0     H66472   1.356   8.637   2.781  1.6403 -1.0650  0.0555
  504MOL0     H66473   1.559   8.792   2.740 -1.8564 -0.3059  2.1462
  504MOL0     H66474   1.445   8.880   2.628 -1.9806  0.3417  2.0010
  504MOL0     H66475   1.423   8.648   2.524 -1.3888  3.1325 -0.1290
  504MOL0     H66476   1.585   8.616   2.584 -0.4836 -0.1137  1.3296
  504MOL0     H66477   1.567   8.716   2.357 -0.6552 -1.0258  0.9816
  504MOL0     H66478   1.505   8.867   2.426 -0.1750  1.3301  2.6058
  504MOL0     H66479   1.709   8.921   2.546  0.2421  1.2999 -0.3432
  504MOL0     H66480   1.731   8.902   2.373  0.7103 -2.0670 -1.2741
  504MOL0     H66481   1.894   8.759   2.285 -0.7722 -0.5381 -0.4190
  504MOL0     H66482   2.103   8.454   2.359  1.1162  0.1119 -0.3263
  504MOL0     H66483   2.190   8.614   2.370 -0.3177  1.2293  0.2758
  504MOL0     H66484   2.115   8.685   2.170  1.2094 -0.2635 -2.2864
  504MOL0     H66485   1.978   8.581   2.153  1.7214 -3.1054 -4.6070
  504MOL0     H66486   2.189   8.518   2.022 -1.1447 -0.6188 -0.6469
  504MOL0     H66487   2.242   8.452   2.176  0.3747 -0.2452  0.1913
  504MOL0     H66488   1.983   8.343   2.168 -1.3824 -2.5993 -1.5572
  504MOL0     H66489   2.120   8.256   2.091 -1.0503 -0.3026  2.2770
  504MOL0     H66490   1.966   8.105   2.018 -2.4341  1.7363  1.2589
  504MOL0     H66491   1.846   7.964   1.863 -0.7102 -0.2665 -1.0554
  504MOL0     H66492   1.779   7.653   1.679 -0.1573  0.8260  0.0985
  504MOL0     H66493   1.631   7.471   1.585 -3.3907 -0.7195 -0.6802
  504MOL0     H66494   1.544   7.430   1.318 -0.7995  0.8800 -1.2739
  504MOL0     H66495   1.413   7.487   1.233  0.3620 -0.0121 -0.6924
  504MOL0     H66496   1.392   7.243   1.421 -0.5438  1.2431  0.4467
  504MOL0     H66497   1.422   7.233   1.249 -1.8521 -1.2651  0.3519
  504MOL0     H66498   1.207   7.377   1.222  1.0787  3.0344  2.1884
  504MOL0     H66499   1.187   7.358   1.393  1.1575  0.9619 -0.5847
  504MOL0     H66500   1.223   7.110   1.233  2.5618 -0.4681  2.8390
  504MOL0     H66501   1.175   7.125   1.401  0.7449 -1.1426  0.0049
  504MOL0     H66502   0.999   7.293   1.308  2.1708  0.6016  0.1533
  504MOL0     H66503   0.949   7.122   1.320  1.2736  0.5599  1.3267
  504MOL0     H66504   1.008   7.079   1.074 -3.0855 -0.6007 -0.6956
  504MOL0     H66505   1.043   7.253   1.061 -2.8344  1.1251 -0.9958
  504MOL0     H66506   0.761   7.189   1.172  1.6362  0.0810  0.5450
  504MOL0     H66507   0.823   7.311   1.055 -0.0800  0.8029  0.3148
  504MOL0     H66508   0.768   7.014   1.000 -1.7431  1.4359  0.3849
  504MOL0     H66509   0.879   7.106   0.897 -0.2914  0.2960 -1.9897
  504MOL0     H66510   1.383   7.767   1.406  0.8851 -1.5268 -2.7225
  504MOL0     H66511   1.510   7.939   1.503 -1.8698  0.1330 -0.5059
  504MOL0     H66512   1.814   8.291   1.582  0.3309  1.5407  0.3608
  504MOL0     H66513   1.928   8.431   1.746  0.1805 -0.2332 -2.3474
  504MOL0     H66514   1.070   8.402   3.016 -0.9330 -0.0393 -1.4338
  504MOL0     H66515   1.141   8.169   3.081 -0.2737  0.9213 -0.0133
  504MOL0     H66516   1.490   7.803   2.937  1.6677 -1.8211 -1.5489
  504MOL0     H66517   1.675   7.657   2.957  3.3873  0.4323 -1.9174
  504MOL0     H66518   2.019   7.796   3.207  4.1253 -0.9148 -1.0844
  504MOL0     H66519   2.059   7.686   3.079 -1.0945  1.8029 -1.0338
  504MOL0     H66520   1.971   7.665   3.374  0.5660 -0.8530  0.7046
  504MOL0     H66521   1.969   7.503   3.285 -1.3278  0.0336 -0.6564
  504MOL0     H66522   2.207   7.508   3.241  2.1928 -3.2688  3.8368
  504MOL0     H66523   2.174   7.502   3.406  1.8808 -1.3975 -0.4499
  504MOL0     H66524   2.186   7.790   3.346  0.7125  1.3199 -1.2289
  504MOL0     H66525   2.310   7.693   3.432  0.6511  2.7280 -0.9203
  504MOL0     H66526   2.482   7.794   3.057  3.0871 -1.0218  2.0788
  504MOL0     H66527   1.867   7.911   3.231 -1.8891 -2.5985  2.8504
  504MOL0     H66528   1.680   8.080   3.228  0.1243 -0.6871  1.1487
  505MOL0     O66529   0.065   5.317   4.858 -0.0441  0.0394 -0.3497
  505MOL0     C66530   0.007   5.308   4.752  1.3343  0.1263 -0.9282
  505MOL0     O66531   0.052   5.248   4.645 -0.0208 -0.1488  0.2421
  505MOL0     C66532   0.180   5.201   4.637 -1.3929 -0.5808 -0.5671
  505MOL0     C66533   0.301   5.259   4.694  0.2937 -0.8147 -0.2107
  505MOL0     C66534   0.424   5.198   4.670  0.3088 -0.2063 -0.0742
  505MOL0     C66535   0.445   5.096   4.578 -0.0137 -0.4076  1.1991
  505MOL0     O66536   0.569   5.037   4.551  0.1489  0.0581  0.0224
  505MOL0     C66537   0.668   5.048   4.655 -1.0050  0.3215  0.1264
  505MOL0     C66538   0.778   4.928   4.634  0.1680 -0.1200  0.3062
  505MOL0     C66539   0.725   4.792   4.582 -1.2760 -0.3944 -0.4440
  505MOL0     C66540   0.830   4.675   4.591 -0.3214  0.6250  0.1784
  505MOL0     C66541   0.780   4.572   4.480 -0.3466  0.9333 -0.1966
  505MOL0     C66542   0.863   4.445   4.491 -0.9335  0.0012 -0.1498
  505MOL0     C66543   1.003   4.430   4.430 -0.0346  0.3052 -0.1031
  505MOL0     C66544   1.121   4.506   4.490 -0.2741 -1.3420 -0.5837
  505MOL0     N66545   1.251   4.471   4.432  1.0884 -0.0654  0.0872
  505MOL0     C66546   1.286   4.360   4.373 -0.0943 -1.1792  0.4384
  505MOL0     C66547   1.414   4.383   4.337 -0.5463  0.3663 -0.9710
  505MOL0     C66548   1.517   4.296   4.275 -1.0310 -0.8507  0.2487
  505MOL0     C66549   1.577   4.194   4.378 -0.4394 -0.2234 -0.2213
  505MOL0     C66550   1.655   4.262   4.480 -0.6766 -0.5867  0.5557
  505MOL0     C66551   1.641   4.195   4.621 -0.0700  0.2451 -0.4695
  505MOL0     O66552   1.503   4.177   4.667 -0.1759  0.0853 -0.6511
  505MOL0     C66553   1.432   4.290   4.720  0.1515  0.6970 -0.1856
  505MOL0     C66554   1.477   4.417   4.730 -1.1208 -0.5642  0.4489
  505MOL0     C66555   1.388   4.515   4.773  0.7134  0.3200  0.1928
  505MOL0     C66556   1.256   4.485   4.816  0.2570 -0.2718 -0.0842
  505MOL0     C66557   1.158   4.593   4.866  0.0345  0.1493  0.8785
  505MOL0     O66558   1.215   4.711   4.882  0.7259 -0.1321  0.0418
  505MOL0     C66559   1.142   4.815   4.939  0.9612 -0.3974  0.3852
  505MOL0     C66560   1.136   4.835   5.076 -0.2080 -0.1146  0.1140
  505MOL0     C66561   1.049   4.938   5.133 -0.7336  0.1449 -0.2536
  505MOL0     C66562   0.998   5.036   5.050  0.2384 -0.2064 -0.5096
  505MOL0     O66563   0.923   5.131   5.110 -0.9318  0.3269  1.0727
  505MOL0     C66564   0.882   5.236   5.023 -0.1063  0.4165  0.2209
  505MOL0     C66565   0.842   5.358   5.106  0.1437 -1.1653  0.3611
  505MOL0     C66566   0.876   5.495   5.051 -0.4845  0.2180  0.6392
  505MOL0     C66567   0.823   5.615   5.131 -0.1598 -0.0778 -0.1299
  505MOL0     C66568   0.802   5.747   5.053 -0.4813  0.1805  0.1815
  505MOL0     C66569   0.914   5.807   4.974 -0.7951  0.4990 -0.3508
  505MOL0     C66570   1.053   5.822   5.050  0.1300  0.3892  1.4737
  505MOL0     C66571   1.140   5.916   4.965  0.1051  0.8509 -0.4933
  505MOL0    Cl66572   1.091   6.082   4.976 -0.5618  0.3272  0.0822
  505MOL0     C66573   1.010   5.016   4.912  0.0682  0.4815 -0.2131
  505MOL0     C66574   1.088   4.912   4.852 -0.5022 -0.3634  0.2941
  505MOL0     O66575   1.047   4.560   4.896 -0.4462 -0.0391 -0.4609
  505MOL0     C66576   1.210   4.359   4.789 -0.8573  0.4836 -0.8659
  505MOL0     C66577   1.295   4.258   4.745  0.2567  0.3939  1.2351
  505MOL0     N66578   1.452   4.516   4.372 -0.3329  0.5522  0.6361
  505MOL0     N66579   1.350   4.565   4.433 -0.2143  0.7901 -0.0323
  505MOL0     C66580   0.340   5.059   4.500  0.3847  0.2287  0.0109
  505MOL0     C66581   0.210   5.108   4.531 -1.6485 -0.5080  0.4123
  505MOL0     C66582  -0.133   5.359   4.749  0.4806  0.0243  0.8599
  505MOL0     C66583  -0.207   5.366   4.634  0.0550  0.3688 -0.4692
  505MOL0     C66584  -0.328   5.435   4.643 -0.6655  0.2099 -0.0882
  505MOL0     C66585  -0.389   5.470   4.764  0.5598 -0.2742  0.4401
  505MOL0     O66586  -0.516   5.528   4.775  0.6712  0.9049  0.6627
  505MOL0     C66587  -0.591   5.566   4.657  0.6411 -1.4711  0.1378
  505MOL0     C66588  -0.725   5.610   4.719  0.4905 -0.5690  0.4181
  505MOL0     C66589  -0.837   5.614   4.614 -0.3108  0.3794  0.0923
  505MOL0     C66590  -0.966   5.653   4.682  0.3985  0.2679 -0.0372
  505MOL0     C66591  -1.027   5.554   4.771  0.2040  1.6740 -0.0754
  505MOL0     C66592  -1.061   5.471   4.850 -0.0848  0.1196 -0.0107
  505MOL0     C66593  -0.309   5.467   4.877  1.2946 -0.6215  0.0592
  505MOL0     C66594  -0.182   5.416   4.871 -0.2293  0.7387  0.7522
  505MOL0     H66595   0.297   5.349   4.755  1.6584 -1.0835  0.3034
  505MOL0     H66596   0.510   5.247   4.714 -0.1202  0.1435  0.3805
  505MOL0     H66597   0.627   5.036   4.756 -4.2078  1.1684 -0.9467
  505MOL0     H66598   0.707   5.150   4.646 -0.8284  0.3655  1.2308
  505MOL0     H66599   0.819   4.916   4.735  4.1511  0.0695 -1.1218
  505MOL0     H66600   0.859   4.969   4.574 -0.5399 -0.9832 -1.2925
  505MOL0     H66601   0.688   4.815   4.482  1.4679  0.2226 -1.3958
  505MOL0     H66602   0.635   4.755   4.631  0.6723  0.3932  4.2613
  505MOL0     H66603   0.926   4.726   4.582 -0.2483  1.4093  3.6815
  505MOL0     H66604   0.836   4.628   4.690 -0.9645 -0.4241 -0.2618
  505MOL0     H66605   0.803   4.620   4.384  4.2686 -0.0882  0.1859
  505MOL0     H66606   0.672   4.554   4.490  0.0910 -3.1527 -1.1157
  505MOL0     H66607   0.803   4.376   4.430 -0.8934 -0.8924  0.7892
  505MOL0     H66608   0.870   4.410   4.595  1.9621  0.2107 -0.2053
  505MOL0     H66609   1.025   4.323   4.425  2.9899  0.8876 -3.6201
  505MOL0     H66610   0.979   4.457   4.326 -2.4882 -0.5784  0.1708
  505MOL0     H66611   1.121   4.473   4.594 -3.6168 -4.0962 -1.2753
  505MOL0     H66612   1.115   4.614   4.475  3.4426 -0.8288  0.5816
  505MOL0     H66613   1.229   4.268   4.363 -2.7527  0.5209 -0.9940
  505MOL0     H66614   1.597   4.366   4.250 -0.1490 -0.5642  3.5015
  505MOL0     H66615   1.482   4.239   4.188 -3.2172 -2.1758  1.9037
  505MOL0     H66616   1.642   4.126   4.323 -1.1582  0.0671 -1.4541
  505MOL0     H66617   1.493   4.137   4.418  0.2605 -1.0853  0.0312
  505MOL0     H66618   1.760   4.261   4.451 -0.9880  1.6070 -0.8344
  505MOL0     H66619   1.625   4.367   4.488 -0.3879 -0.4625  0.0731
  505MOL0     H66620   1.695   4.258   4.693 -2.1167  2.3607 -0.6365
  505MOL0     H66621   1.687   4.096   4.628 -2.9706 -1.1222  0.6369
  505MOL0     H66622   1.573   4.439   4.684 -0.5775  0.8721  2.1503
  505MOL0     H66623   1.432   4.615   4.773 -1.8575  1.5904 -1.9580
  505MOL0     H66624   1.192   4.771   5.143  0.1248  1.0922  1.0291
  505MOL0     H66625   1.034   4.945   5.240  0.9956  1.1444 -0.0376
  505MOL0     H66626   0.810   5.203   4.948 -1.8710 -2.2066  2.8135
  505MOL0     H66627   0.971   5.269   4.970 -1.0101  0.6877 -1.1637
  505MOL0     H66628   0.884   5.372   5.206 -0.2185  7.2645  0.0716
  505MOL0     H66629   0.734   5.344   5.121 -0.0103 -0.0130  0.4420
  505MOL0     H66630   0.834   5.499   4.950 -0.6135  1.8618  0.7391
  505MOL0     H66631   0.985   5.499   5.036  0.1154 -3.8554  2.4371
  505MOL0     H66632   0.723   5.576   5.152  0.3706 -4.1485 -3.8575
  505MOL0     H66633   0.888   5.628   5.218  1.5501 -2.2200 -0.9981
  505MOL0     H66634   0.780   5.822   5.130  1.4374 -1.6600  2.6725
  505MOL0     H66635   0.703   5.755   5.006 -1.5326 -0.2223  2.2176
  505MOL0     H66636   0.886   5.902   4.929  2.0642  1.1665 -0.9392
  505MOL0     H66637   0.931   5.746   4.885  2.4631  2.7173 -1.4071
  505MOL0     H66638   1.041   5.854   5.154 -1.1585 -0.1181  1.5037
  505MOL0     H66639   1.112   5.730   5.050  0.4157  0.5677  1.9267
  505MOL0     H66640   1.133   5.903   4.857  1.7749 -0.6977 -0.4741
  505MOL0     H66641   1.247   5.909   4.990  0.1306 -1.1938 -1.0634
  505MOL0     H66642   0.966   5.080   4.837  2.4245  0.3556 -1.7953
  505MOL0     H66643   1.098   4.902   4.745  2.8394  1.2956  0.3265
  505MOL0     H66644   1.111   4.325   4.817 -0.7374  1.0299  0.2733
  505MOL0     H66645   1.260   4.158   4.721  1.4306 -1.0206  4.7959
  505MOL0     H66646   0.356   4.999   4.411 -0.9273 -0.9211  0.5076
  505MOL0     H66647   0.130   5.068   4.469 -0.0712  0.8960 -2.7672
  505MOL0     H66648  -0.169   5.335   4.538  3.0622 -0.8938  0.9870
  505MOL0     H66649  -0.381   5.454   4.550  0.0159 -1.2091 -0.8001
  505MOL0     H66650  -0.605   5.478   4.594  0.7309 -1.0477 -0.4843
  505MOL0     H66651  -0.551   5.650   4.600  0.8153 -1.0088  0.9258
  505MOL0     H66652  -0.761   5.542   4.797 -3.2488  1.2514  0.5049
  505MOL0     H66653  -0.716   5.707   4.769  2.9058  0.5280 -1.9056
  505MOL0     H66654  -0.837   5.522   4.555  1.6493 -1.0567  2.1459
  505MOL0     H66655  -0.809   5.693   4.544 -1.4980  1.4688  0.7960
  505MOL0     H66656  -0.948   5.755   4.716  1.7807  0.3761 -1.0169
  505MOL0     H66657  -1.036   5.662   4.598  1.3357 -1.1589 -1.0313
  505MOL0     H66658  -1.092   5.405   4.928 -1.1322  0.1503 -0.3820
  505MOL0     H66659  -0.346   5.510   4.970  5.6996 -0.0246  1.7678
  505MOL0     H66660  -0.133   5.422   4.968  1.4981 -2.6903  0.2309
  506MOL0     O66661   6.135   2.054  10.906 -0.7263 -0.4327  0.2329
  506MOL0     C66662   6.223   2.092  10.987 -1.1744 -0.2378 -0.3422
  506MOL0     O66663   6.362   2.060  10.973  0.7964  0.3111  0.4661
  506MOL0     C66664   6.392   1.982  10.868  0.1102  0.1970  0.5201
  506MOL0     C66665   6.344   1.849  10.852  0.6275 -0.0814 -0.9167
  506MOL0     C66666   6.380   1.770  10.733  1.1820 -0.5522 -0.0907
  506MOL0     C66667   6.471   1.827  10.638 -0.6193 -0.1935  0.3766
  506MOL0     O66668   6.513   1.775  10.513 -0.9573 -0.0880  0.6126
  506MOL0     C66669   6.481   1.633  10.498  0.5081  0.2713 -0.8666
  506MOL0     C66670   6.551   1.588  10.369  0.1434  0.6048 -0.3221
  506MOL0     C66671   6.530   1.447  10.331  0.2220  0.1786 -0.0274
  506MOL0     C66672   6.590   1.401  10.196 -0.3321 -0.6417 -0.2548
  506MOL0     C66673   6.590   1.255  10.163  0.9209  0.6370  0.2371
  506MOL0     C66674   6.454   1.191  10.144 -0.4241 -0.2645 -0.2284
  506MOL0     C66675   6.461   1.036  10.144 -0.4086  0.6834 -0.4502
  506MOL0     C66676   6.352   0.990  10.051 -0.0706  0.2054  0.4296
  506MOL0     N66677   6.212   1.009  10.092 -0.2400 -0.9454 -0.3215
  506MOL0     C66678   6.126   0.919  10.152 -0.1531  0.4330  0.5303
  506MOL0     C66679   6.023   0.998  10.197 -0.2390 -0.2571 -0.1305
  506MOL0     C66680   5.901   0.939  10.271  0.2110  0.6314  0.4636
  506MOL0     C66681   5.873   0.998  10.413 -0.0891  0.1587 -0.0543
  506MOL0     C66682   5.939   0.908  10.512 -0.9863  1.6316 -0.4361
  506MOL0     C66683   5.910   0.956  10.655  0.8456  0.5786  0.0927
  506MOL0     O66684   5.923   1.092  10.669 -0.3409 -0.5944  0.0766
  506MOL0     C66685   5.913   1.147  10.795 -0.4061 -0.6125 -0.4418
  506MOL0     C66686   5.887   1.076  10.920  0.3252  0.3378  0.4147
  506MOL0     C66687   5.840   1.146  11.027  0.5696  1.0994 -0.4273
  506MOL0     C66688   5.820   1.288  11.015  1.2925 -0.6326  0.7810
  506MOL0     C66689   5.757   1.351  11.126  0.1834  0.0990 -0.6009
  506MOL0     O66690   5.788   1.484  11.145  0.1087  0.2217  0.5806
  506MOL0     C66691   5.729   1.547  11.247 -0.6819  0.0127  0.2294
  506MOL0     C66692   5.807   1.570  11.367 -0.1281 -0.5369  0.3992
  506MOL0     C66693   5.747   1.641  11.466 -0.1030 -0.2420 -1.6358
  506MOL0     C66694   5.615   1.686  11.453  1.0695 -0.2645  0.4281
  506MOL0     O66695   5.539   1.763  11.544  0.6131  0.2685 -0.0730
  506MOL0     C66696   5.572   1.758  11.688  0.5250  0.5799 -0.2521
  506MOL0     C66697   5.539   1.615  11.731  0.5642  0.8667  0.0653
  506MOL0     C66698   5.520   1.588  11.879 -0.0035 -0.4381 -0.0015
  506MOL0     C66699   5.602   1.680  11.976  0.0664  0.0307  0.1157
  506MOL0     C66700   5.552   1.657  12.121 -0.4284 -1.2381 -0.2369
  506MOL0     C66701   5.624   1.742  12.225 -0.5996 -0.4614  0.5641
  506MOL0     C66702   5.544   1.757  12.368 -0.3571 -0.0254  0.1447
  506MOL0     C66703   5.600   1.668  12.478 -0.2425 -0.5541 -1.2294
  506MOL0    Cl66704   5.589   1.500  12.431  0.2110 -0.0624  0.2962
  506MOL0     C66705   5.540   1.647  11.339  0.5293  0.2026  0.4221
  506MOL0     C66706   5.596   1.581  11.230 -0.1073  0.5147  0.8032
  506MOL0     O66707   5.697   1.286  11.218 -0.3201 -0.1786 -0.1977
  506MOL0     C66708   5.861   1.364  10.903 -0.7061 -0.4886  0.6280
  506MOL0     C66709   5.907   1.288  10.790  0.4739  0.1329  0.5168
  506MOL0     N66710   6.036   1.129  10.147  0.6784  0.0267  0.2074
  506MOL0     N66711   6.149   1.129  10.091  0.1140 -0.2383  0.3791
  506MOL0     C66712   6.506   1.961  10.650  0.1403  0.2426 -0.1814
  506MOL0     C66713   6.469   2.030  10.763 -0.6935 -0.4077  0.6593
  506MOL0     C66714   6.183   2.182  11.103 -0.5488  0.3580 -0.4510
  506MOL0     C66715   6.047   2.211  11.132 -0.0964  0.0593  0.8666
  506MOL0     C66716   6.008   2.288  11.239 -0.2693 -0.6603  0.7382
  506MOL0     C66717   6.097   2.337  11.330 -0.9375 -0.2973  0.5463
  506MOL0     O66718   6.071   2.426  11.441 -0.0934 -0.2682 -0.1863
  506MOL0     C66719   5.990   2.539  11.408 -0.0446 -1.7155 -0.5390
  506MOL0     C66720   5.975   2.630  11.534 -0.5617  0.2692 -0.3679
  506MOL0     C66721   5.890   2.554  11.635 -1.3182  0.6522 -0.0559
  506MOL0     C66722   5.843   2.654  11.738 -0.0524 -0.2374 -0.0132
  506MOL0     C66723   5.782   2.606  11.862  0.9674  0.3032  0.4110
  506MOL0     C66724   5.722   2.553  11.949 -0.1281 -0.4789  0.4391
  506MOL0     C66725   6.229   2.310  11.299  0.6201  0.1605 -0.9771
  506MOL0     C66726   6.278   2.230  11.188 -0.3262 -0.0345 -0.2822
  506MOL0     H66727   6.271   1.820  10.926 -1.1882  0.6440 -2.3278
  506MOL0     H66728   6.331   1.675  10.715 -1.9121  1.0178 -0.6457
  506MOL0     H66729   6.374   1.622  10.480 -0.2663 -1.1604  3.3315
  506MOL0     H66730   6.501   1.577  10.590 -0.2530  0.7531 -0.3962
  506MOL0     H66731   6.656   1.613  10.382 -0.2675  2.0397  0.5037
  506MOL0     H66732   6.512   1.659  10.295  0.3005  1.7036  0.6163
  506MOL0     H66733   6.421   1.441  10.332  0.1540  1.0523  1.4505
  506MOL0     H66734   6.574   1.376  10.401 -1.0028 -1.1103 -0.5157
  506MOL0     H66735   6.546   1.448  10.108  2.7872  2.4994 -0.3652
  506MOL0     H66736   6.692   1.441  10.192 -1.0467  1.2516 -0.7480
  506MOL0     H66737   6.639   1.198  10.242  0.7002 -2.3489 -1.6458
  506MOL0     H66738   6.645   1.234  10.071  2.5057 -0.2808  1.3351
  506MOL0     H66739   6.426   1.237  10.049  1.6340  0.8957 -0.3338
  506MOL0     H66740   6.393   1.219  10.230  2.3734  0.0612  1.8036
  506MOL0     H66741   6.553   1.008  10.092 -0.8378 -0.5257 -0.5791
  506MOL0     H66742   6.456   0.999  10.247 -3.8958 -0.1248 -0.7740
  506MOL0     H66743   6.371   0.883  10.036 -1.7078 -0.4009  2.3333
  506MOL0     H66744   6.373   1.029   9.951  2.1486 -0.5382  0.5459
  506MOL0     H66745   6.139   0.812  10.167 -1.9194  0.2630  1.0542
  506MOL0     H66746   5.924   0.833  10.262  0.8436  0.9289 -2.4519
  506MOL0     H66747   5.812   0.948  10.209 -0.1281 -1.0651  0.6810
  506MOL0     H66748   5.765   0.999  10.434 -0.0461 -0.8903  0.2447
  506MOL0     H66749   5.911   1.099  10.431  0.1267 -0.0570  0.7086
  506MOL0     H66750   5.904   0.807  10.491  0.8067  1.2138 -1.5992
  506MOL0     H66751   6.047   0.912  10.492 -0.5318  0.8542  1.5850
  506MOL0     H66752   5.977   0.904  10.724  0.7527  0.6733  0.2565
  506MOL0     H66753   5.808   0.924  10.680  0.7939 -0.5205 -1.4269
  506MOL0     H66754   5.909   0.970  10.916  0.1582  0.1659  2.9418
  506MOL0     H66755   5.813   1.083  11.111 -0.4285  1.4053 -0.5001
  506MOL0     H66756   5.905   1.527  11.382 -0.5709 -1.9142 -0.5100
  506MOL0     H66757   5.802   1.666  11.556 -0.0235 -0.4322 -1.6325
  506MOL0     H66758   5.523   1.831  11.753  4.1011  2.0793  1.0201
  506MOL0     H66759   5.679   1.779  11.700  0.0185  3.6608 -0.2568
  506MOL0     H66760   5.603   1.531  11.705 -2.3212 -1.4345 -0.0209
  506MOL0     H66761   5.448   1.578  11.684  1.7078 -2.1120  0.0062
  506MOL0     H66762   5.553   1.485  11.899 -0.7037 -0.8818 -1.0352
  506MOL0     H66763   5.412   1.603  11.889 -0.5445 -2.6501 -1.6164
  506MOL0     H66764   5.710   1.663  11.966  0.5698  2.1268  1.4427
  506MOL0     H66765   5.580   1.786  11.959 -0.4031  0.1204  1.2166
  506MOL0     H66766   5.554   1.550  12.143  1.8204 -1.2119 -0.0783
  506MOL0     H66767   5.445   1.681  12.110  0.1013  0.0053 -5.5274
  506MOL0     H66768   5.654   1.841  12.189  1.1641 -1.9966 -2.6607
  506MOL0     H66769   5.720   1.694  12.247  1.1149  2.4883  0.0715
  506MOL0     H66770   5.544   1.861  12.401  0.8931  0.7266 -1.9928
  506MOL0     H66771   5.440   1.731  12.348 -0.4020 -0.3847  0.8293
  506MOL0     H66772   5.532   1.701  12.558  0.8778 -0.1647 -0.4103
  506MOL0     H66773   5.704   1.697  12.498 -0.4268  0.0226 -1.0836
  506MOL0     H66774   5.437   1.677  11.323  1.3163  1.5301 -3.0798
  506MOL0     H66775   5.539   1.532  11.152  0.8719 -1.7795  1.4591
  506MOL0     H66776   5.883   1.469  10.888  3.7519 -1.4707 -1.3697
  506MOL0     H66777   5.918   1.333  10.692 -3.8338 -2.1136 -1.2562
  506MOL0     H66778   6.560   2.014  10.573  1.2379  2.4226  1.9521
  506MOL0     H66779   6.494   2.136  10.763 -1.2830 -0.2624  1.0384
  506MOL0     H66780   5.958   2.171  11.084 -0.5556  3.5449 -1.5495
  506MOL0     H66781   5.899   2.295  11.245 -0.7511 -1.3496 -3.7536
  506MOL0     H66782   5.893   2.510  11.365 -0.0361 -0.1627 -1.7392
  506MOL0     H66783   6.045   2.596  11.332 -0.0485  3.9824  3.1018
  506MOL0     H66784   6.076   2.648  11.571  0.4066 -2.4385 -1.4551
  506MOL0     H66785   5.932   2.728  11.514 -0.2322  0.5009  0.0240
  506MOL0     H66786   5.943   2.466  11.674 -0.7189  1.0804  0.1093
  506MOL0     H66787   5.802   2.514  11.583 -1.0492  0.9518 -0.7505
  506MOL0     H66788   5.924   2.718  11.773 -0.4004  1.3080 -1.8741
  506MOL0     H66789   5.777   2.717  11.679  0.9758 -1.9775 -3.3110
  506MOL0     H66790   5.674   2.518  12.038 -0.8248 -1.9519 -0.4706
  506MOL0     H66791   6.300   2.347  11.372 -1.7121  0.6323  1.2052
  506MOL0     H66792   6.386   2.227  11.177  0.6030  3.5678  4.6858
  507MOL0     O66793   3.238   4.567  10.418  0.3471 -0.8273 -0.6762
  507MOL0     C66794   3.155   4.532  10.499 -0.2374 -0.0953  0.0086
  507MOL0     O66795   3.169   4.529  10.639 -0.5967  0.0326 -0.1900
  507MOL0     C66796   3.265   4.592  10.714  0.5292 -0.1023  0.3310
  507MOL0     C66797   3.335   4.709  10.673 -0.9408  0.1232 -0.3828
  507MOL0     C66798   3.424   4.772  10.754  0.2643 -0.8274  0.2941
  507MOL0     C66799   3.470   4.714  10.875 -0.2890  0.5922  0.0841
  507MOL0     O66800   3.579   4.758  10.944 -1.1038 -0.5234 -0.2620
  507MOL0     C66801   3.644   4.875  10.912  0.4391  0.2888  0.3246
  507MOL0     C66802   3.743   4.910  11.022 -0.5491  0.2360  0.9089
  507MOL0     C66803   3.795   5.052  11.022 -0.1365  0.5702 -0.5255
  507MOL0     C66804   3.694   5.157  11.079 -0.6492  0.5810 -0.2791
  507MOL0     C66805   3.747   5.300  11.059  0.8071  0.6641 -0.4038
  507MOL0     C66806   3.721   5.404  11.163 -1.2061  0.0079  0.0698
  507MOL0     C66807   3.762   5.391  11.302  0.3723 -0.6893  0.6240
  507MOL0     C66808   3.908   5.394  11.352 -1.0197  0.5989 -0.5442
  507MOL0     N66809   3.962   5.530  11.351  0.5848 -0.6799  0.1365
  507MOL0     C66810   3.990   5.605  11.237  0.1556  0.1060 -0.6055
  507MOL0     C66811   4.073   5.705  11.274  0.0941 -0.8217  0.3894
  507MOL0     C66812   4.122   5.816  11.183  0.0174 -0.9913 -0.6143
  507MOL0     C66813   4.038   5.938  11.226  0.9517 -0.2875  0.0248
  507MOL0     C66814   4.110   6.024  11.328  0.5731 -0.4696  0.0522
  507MOL0     C66815   4.065   6.167  11.332 -0.2446  0.1315 -0.4471
  507MOL0     O66816   4.096   6.242  11.207  0.4664 -1.1319 -0.1187
  507MOL0     C66817   4.101   6.375  11.220 -0.0612 -0.1987 -0.6078
  507MOL0     C66818   4.144   6.446  11.104  0.4711  1.6105 -0.3880
  507MOL0     C66819   4.135   6.573  11.103  0.4518  0.1034  0.1250
  507MOL0     C66820   4.110   6.649  11.219 -0.0821  0.8258  1.0202
  507MOL0     C66821   4.115   6.795  11.214  0.6020 -0.4547  0.2367
  507MOL0     O66822   4.180   6.840  11.108 -0.2254 -0.0184  0.0546
  507MOL0     C66823   4.214   6.970  11.117  0.1495 -0.3221  0.1121
  507MOL0     C66824   4.145   7.075  11.052  0.5338  0.5143 -0.5083
  507MOL0     C66825   4.186   7.209  11.063  0.3237 -0.7796 -0.2407
  507MOL0     C66826   4.302   7.251  11.127 -0.5251  0.4735 -1.6404
  507MOL0     O66827   4.337   7.386  11.126 -0.4632  0.4770  0.5148
  507MOL0     C66828   4.229   7.476  11.120 -0.0457 -0.2985  0.0153
  507MOL0     C66829   4.283   7.602  11.160 -0.6670 -0.0664 -0.0482
  507MOL0     C66830   4.220   7.726  11.097 -0.1977  0.5003  0.3301
  507MOL0     C66831   4.076   7.761  11.130 -0.8356  0.0617 -0.3886
  507MOL0     C66832   4.029   7.905  11.100  0.2347  0.0990 -0.3269
  507MOL0     C66833   3.890   7.925  11.149  0.8606 -0.4407 -0.2883
  507MOL0     C66834   3.878   8.080  11.152  0.1987  0.0473  0.4304
  507MOL0     C66835   3.731   8.103  11.176  0.0209 -0.3595 -0.0174
  507MOL0    Cl66836   3.700   8.284  11.151  0.1100 -0.4717  0.4167
  507MOL0     C66837   4.375   7.148  11.192  0.3272 -0.4813 -0.2530
  507MOL0     C66838   4.336   7.013  11.181  0.4668 -1.0517 -0.3639
  507MOL0     O66839   4.041   6.862  11.286 -0.6966 -1.0632 -0.3302
  507MOL0     C66840   4.072   6.585  11.342  0.1525 -0.3436  0.0196
  507MOL0     C66841   4.056   6.443  11.336 -0.5449 -0.3229 -0.6090
  507MOL0     N66842   4.090   5.702  11.412 -0.1377 -1.0268  0.0761
  507MOL0     N66843   4.038   5.589  11.454 -0.2427 -0.0392  0.7832
  507MOL0     C66844   3.417   4.588  10.909 -0.4638 -0.0425  0.1181
  507MOL0     C66845   3.315   4.533  10.831 -0.7222 -0.7544  0.5146
  507MOL0     C66846   3.034   4.468  10.450 -0.3213  0.4983  0.8369
  507MOL0     C66847   3.012   4.436  10.319 -0.0007 -1.0626 -0.7448
  507MOL0     C66848   2.900   4.368  10.274  0.2644 -0.4469 -0.2034
  507MOL0     C66849   2.794   4.330  10.360  0.0098 -0.0268  0.0909
  507MOL0     O66850   2.692   4.251  10.318  0.0514 -0.5302  0.6722
  507MOL0     C66851   2.719   4.112  10.271 -0.6263 -0.9292 -0.9919
  507MOL0     C66852   2.646   4.008  10.349  0.0015  0.6736 -0.0855
  507MOL0     C66853   2.705   3.864  10.312 -1.2648 -0.2682  0.5202
  507MOL0     C66854   2.639   3.802  10.199 -0.2781 -0.3279  0.5217
  507MOL0     C66855   2.693   3.671  10.152  0.2991 -0.4773 -0.1376
  507MOL0     C66856   2.739   3.567  10.109 -0.2894 -0.0324 -0.1601
  507MOL0     C66857   2.825   4.349  10.495  0.0156 -0.1211 -0.1708
  507MOL0     C66858   2.933   4.428  10.542  0.2614  0.2435 -0.7085
  507MOL0     H66859   3.299   4.755  10.582 -3.7147 -2.0673 -0.5404
  507MOL0     H66860   3.483   4.858  10.724 -1.7742  0.0938 -1.3162
  507MOL0     H66861   3.568   4.954  10.905 -0.0682 -0.1645  0.6543
  507MOL0     H66862   3.697   4.862  10.817  1.6178  1.2050  0.8336
  507MOL0     H66863   3.832   4.847  11.014  0.7720  2.1103  0.1459
  507MOL0     H66864   3.692   4.886  11.116 -2.3368  1.1383  0.2186
  507MOL0     H66865   3.820   5.075  10.918 -1.0782 -0.1029 -0.9098
  507MOL0     H66866   3.888   5.061  11.079  1.7493  0.5970 -3.4083
  507MOL0     H66867   3.598   5.147  11.027 -0.8037 -2.2757  0.3913
  507MOL0     H66868   3.693   5.119  11.181  2.8344 -2.0085 -1.0451
  507MOL0     H66869   3.693   5.325  10.967 -2.2605 -6.2720 -1.0450
  507MOL0     H66870   3.855   5.303  11.038  0.8446  1.9848 -0.1344
  507MOL0     H66871   3.615   5.429  11.170 -0.9423  0.8120  1.6655
  507MOL0     H66872   3.765   5.498  11.128  2.4527 -1.7568 -0.5401
  507MOL0     H66873   3.701   5.466  11.353 -0.0894 -0.3074 -0.4716
  507MOL0     H66874   3.724   5.295  11.339 -1.0366  0.0265  1.1086
  507MOL0     H66875   3.973   5.336  11.287  0.9415  0.6859  1.2392
  507MOL0     H66876   3.902   5.342  11.448 -0.1141 -2.0708 -1.8296
  507MOL0     H66877   3.954   5.586  11.137  1.2456  0.3987 -1.0730
  507MOL0     H66878   4.096   5.803  11.078 -0.4006  2.5214 -1.0669
  507MOL0     H66879   4.228   5.844  11.194 -0.3637 -0.3862  2.7799
  507MOL0     H66880   3.944   5.908  11.274  1.2668  1.6826  2.0371
  507MOL0     H66881   4.010   5.989  11.133  0.7638 -2.1727 -1.0023
  507MOL0     H66882   4.105   5.970  11.423  1.0072 -1.8848 -0.7003
  507MOL0     H66883   4.217   6.024  11.302 -0.0901 -2.8376 -3.3061
  507MOL0     H66884   4.110   6.216  11.419 -1.8466  0.9564 -0.0203
  507MOL0     H66885   3.957   6.167  11.352 -0.2568 -0.8243 -0.4790
  507MOL0     H66886   4.176   6.377  11.026  2.3639 -0.8756  2.3633
  507MOL0     H66887   4.147   6.630  11.011 -0.4503  1.6903  0.9514
  507MOL0     H66888   4.061   7.037  10.994  3.9936 -2.2906 -4.3673
  507MOL0     H66889   4.119   7.278  11.011  0.7653  0.5650  0.9077
  507MOL0     H66890   4.141   7.447  11.178  0.7790 -5.3539 -0.7786
  507MOL0     H66891   4.200   7.491  11.016  1.4417  0.3462 -0.3371
  507MOL0     H66892   4.389   7.616  11.134 -0.0751  0.2169  2.2336
  507MOL0     H66893   4.286   7.614  11.269  2.7889 -1.8407  0.2143
  507MOL0     H66894   4.236   7.709  10.990  2.2403 -0.1710  0.7239
  507MOL0     H66895   4.285   7.810  11.122  0.4209  0.6224 -1.5361
  507MOL0     H66896   4.014   7.688  11.077 -1.2982 -0.1508  0.4187
  507MOL0     H66897   4.063   7.740  11.237  0.2439 -2.9746 -0.7586
  507MOL0     H66898   4.034   7.926  10.993 -0.3954 -1.0250 -0.5893
  507MOL0     H66899   4.101   7.966  11.155  0.9187 -2.7248  2.1704
  507MOL0     H66900   3.871   7.867  11.239  0.3015 -2.2128 -1.4901
  507MOL0     H66901   3.828   7.883  11.069 -0.8958  0.9475  0.2671
  507MOL0     H66902   3.931   8.122  11.237  0.8918 -1.6680  0.8799
  507MOL0     H66903   3.914   8.117  11.055 -2.0536  2.0219  0.2502
  507MOL0     H66904   3.707   8.083  11.281 -2.9190 -2.5859 -1.0077
  507MOL0     H66905   3.656   8.057  11.112  0.8959 -4.1567  1.4173
  507MOL0     H66906   4.472   7.167  11.237  0.4262  2.1651 -1.3750
  507MOL0     H66907   4.396   6.936  11.227  0.9865  0.3968  1.4891
  507MOL0     H66908   4.040   6.642  11.428  1.6570  1.5864 -0.6121
  507MOL0     H66909   4.024   6.389  11.424  1.8365 -1.5405 -0.3941
  507MOL0     H66910   3.449   4.529  10.995  0.3441 -1.1413 -0.9068
  507MOL0     H66911   3.260   4.443  10.857 -0.6488 -1.5473 -1.8456
  507MOL0     H66912   3.085   4.476  10.249 -0.0313  3.3694  1.3912
  507MOL0     H66913   2.891   4.347  10.167  0.9299 -0.7055 -0.2147
  507MOL0     H66914   2.826   4.093  10.281 -0.3011  1.0407 -0.2515
  507MOL0     H66915   2.705   4.119  10.163 -2.3684  3.2275 -0.6951
  507MOL0     H66916   2.642   4.028  10.456 -6.8105  0.2730  0.1731
  507MOL0     H66917   2.546   4.006  10.304  0.1633 -0.9677 -0.4646
  507MOL0     H66918   2.704   3.804  10.403 -1.9340  1.0075  1.3972
  507MOL0     H66919   2.811   3.874  10.285 -1.3376  1.1451  0.6492
  507MOL0     H66920   2.536   3.780  10.231 -0.3416  0.1839  0.6805
  507MOL0     H66921   2.636   3.867  10.111 -0.4377 -1.1337 -0.0762
  507MOL0     H66922   2.779   3.487  10.049  1.6124  3.4823 -4.0823
  507MOL0     H66923   2.751   4.306  10.561 -0.9247  2.3846  0.4981
  507MOL0     H66924   2.949   4.451  10.647 -3.0321 -0.6837  0.1353
  508MOL0     O66925   4.860   6.878  10.247 -0.7519  0.3000  0.3045
  508MOL0     C66926   4.833   6.906  10.361  0.6053 -0.4124  0.3244
  508MOL0     O66927   4.843   7.033  10.416  0.8619 -0.0306 -0.9678
  508MOL0     C66928   4.872   7.149  10.352 -0.4884 -0.6523 -0.1476
  508MOL0     C66929   4.945   7.148  10.232  0.1226 -0.0386 -0.6150
  508MOL0     C66930   4.992   7.270  10.177  0.7022  0.1961  0.6762
  508MOL0     C66931   4.965   7.391  10.245 -0.0102 -0.6539  0.0016
  508MOL0     O66932   5.004   7.512  10.199  0.3926  0.2795  0.1496
  508MOL0     C66933   5.116   7.501  10.108 -0.2674  0.2406  0.2040
  508MOL0     C66934   5.162   7.637  10.061  0.2781 -0.2726  0.1652
  508MOL0     C66935   5.289   7.656   9.968 -0.6528 -0.4990 -0.9040
  508MOL0     C66936   5.315   7.808   9.970  0.1945  0.0940  0.3426
  508MOL0     C66937   5.448   7.830   9.893 -0.7808  0.0218 -0.6430
  508MOL0     C66938   5.440   7.789   9.746 -0.2969  0.8200  0.9516
  508MOL0     C66939   5.554   7.819   9.648 -0.4603  0.4964  0.0070
  508MOL0     C66940   5.667   7.719   9.672 -0.1101  0.5117  0.1938
  508MOL0     N66941   5.766   7.729   9.567  0.0811 -0.1108  0.3043
  508MOL0     C66942   5.851   7.625   9.528  0.6065 -0.1447 -0.0825
  508MOL0     C66943   5.961   7.674   9.460 -0.2598 -0.1374  0.3853
  508MOL0     C66944   6.075   7.590   9.398 -0.8106  0.8439 -0.3976
  508MOL0     C66945   6.213   7.655   9.435  0.5240 -0.3027  1.0768
  508MOL0     C66946   6.248   7.768   9.342  0.7841  0.5865 -0.1276
  508MOL0     C66947   6.377   7.832   9.369  0.6525 -0.5507  0.0547
  508MOL0     O66948   6.418   7.911   9.255  0.6468 -0.7778 -0.0218
  508MOL0     C66949   6.548   7.951   9.258 -0.5989  0.7246 -0.9879
  508MOL0     C66950   6.604   7.981   9.131  0.4580  0.3468  0.3608
  508MOL0     C66951   6.733   8.018   9.121 -0.2280  0.8879 -0.4197
  508MOL0     C66952   6.819   8.021   9.237 -0.6730 -0.2969  0.0403
  508MOL0     C66953   6.956   8.057   9.218 -0.8001 -0.4257  1.0656
  508MOL0     O66954   7.004   8.102   9.093  0.2511 -0.4299  0.1846
  508MOL0     C66955   7.122   8.172   9.091 -0.0330  1.0209 -1.0197
  508MOL0     C66956   7.231   8.127   9.015  0.5165 -1.1929  0.4648
  508MOL0     C66957   7.347   8.216   9.001 -0.0916  0.4962  0.3526
  508MOL0     C66958   7.353   8.344   9.053  0.4534  0.1998 -0.6783
  508MOL0     O66959   7.441   8.443   9.025 -0.3378  0.7331  0.0245
  508MOL0     C66960   7.513   8.440   8.897 -0.6805  0.7459 -0.0925
  508MOL0     C66961   7.654   8.400   8.931 -0.3941  0.3917 -0.3461
  508MOL0     C66962   7.739   8.379   8.804  0.5373 -0.0542 -0.3974
  508MOL0     C66963   7.889   8.379   8.831  0.5991 -0.6291 -0.6520
  508MOL0     C66964   7.960   8.318   8.710 -0.0389  0.6593  0.9169
  508MOL0     C66965   8.108   8.283   8.755 -0.3569 -0.3845 -0.4183
  508MOL0     C66966   8.189   8.306   8.634  0.4314 -0.0728  0.4670
  508MOL0     C66967   8.247   8.452   8.655  0.1520  0.3381 -0.5732
  508MOL0    Cl66968   8.394   8.494   8.564  0.4148 -0.2626  0.0705
  508MOL0     C66969   7.244   8.378   9.131  0.1333 -0.5705  0.0940
  508MOL0     C66970   7.133   8.302   9.153 -0.2700 -0.4620 -0.2453
  508MOL0     O66971   7.029   8.048   9.312  0.9476 -0.4009 -0.0302
  508MOL0     C66972   6.767   7.991   9.356  0.0842 -0.7243  1.1596
  508MOL0     C66973   6.640   7.957   9.365  0.5921 -0.6031 -0.1038
  508MOL0     N66974   5.945   7.816   9.460  0.7940 -0.3293 -0.1483
  508MOL0     N66975   5.837   7.847   9.524  1.1627 -0.0945  0.4881
  508MOL0     C66976   4.890   7.393  10.355 -0.1917  0.5370  0.8948
  508MOL0     C66977   4.851   7.268  10.417 -0.3079 -0.6200 -0.3902
  508MOL0     C66978   4.757   6.801  10.441 -0.9160  0.2124  1.1660
  508MOL0     C66979   4.747   6.664  10.394 -0.4086 -0.1349  0.3373
  508MOL0     C66980   4.682   6.570  10.460  0.7146 -0.4008 -0.9064
  508MOL0     C66981   4.624   6.590  10.589  0.6380 -0.6872  0.1447
  508MOL0     O66982   4.556   6.492  10.660  0.5238  0.8317  1.2620
  508MOL0     C66983   4.499   6.536  10.780  0.3638 -0.0130 -0.0550
  508MOL0     C66984   4.612   6.518  10.879  1.0850  0.3706  0.1540
  508MOL0     C66985   4.565   6.508  11.027  0.2080 -0.2116  0.4470
  508MOL0     C66986   4.491   6.636  11.074  0.4551 -0.0064  0.3471
  508MOL0     C66987   4.583   6.755  11.074  0.7795  0.3580  0.1618
  508MOL0     C66988   4.626   6.871  11.055 -0.6746 -0.0266  0.6845
  508MOL0     C66989   4.630   6.727  10.637  0.3997 -0.8477  0.2154
  508MOL0     C66990   4.708   6.831  10.568  0.5975  0.3872  0.2841
  508MOL0     H66991   4.972   7.056  10.181  0.0779 -1.2059  1.3393
  508MOL0     H66992   5.019   7.260  10.072  0.5624  0.7074  0.5907
  508MOL0     H66993   5.090   7.439  10.023 -1.5871  2.5303 -1.1647
  508MOL0     H66994   5.198   7.453  10.162 -0.4478  1.4428  1.6221
  508MOL0     H66995   5.184   7.693  10.152  1.6156 -0.7955  0.1972
  508MOL0     H66996   5.085   7.692  10.006 -0.2680 -0.5840  0.6121
  508MOL0     H66997   5.270   7.623   9.866 -1.3793 -3.5011  0.0900
  508MOL0     H66998   5.372   7.605  10.019  1.6642  2.1026 -1.8517
  508MOL0     H66999   5.241   7.856   9.905 -0.5513 -2.0970 -0.5530
  508MOL0     H67000   5.317   7.839  10.074 -0.0076 -0.5979  0.5568
  508MOL0     H67001   5.517   7.761   9.942 -1.7493  0.8167  2.0514
  508MOL0     H67002   5.492   7.929   9.908 -1.7185  0.4482 -0.6200
  508MOL0     H67003   5.353   7.843   9.707  0.6919  0.6158 -1.7480
  508MOL0     H67004   5.415   7.682   9.737  1.7222  0.4597 -1.7172
  508MOL0     H67005   5.526   7.829   9.543 -0.1668  1.5034  0.0052
  508MOL0     H67006   5.590   7.917   9.683  0.9851  0.2514 -0.7259
  508MOL0     H67007   5.620   7.620   9.673  2.3230 -0.8012 -2.3662
  508MOL0     H67008   5.712   7.733   9.770  1.5561 -1.3721 -0.2380
  508MOL0     H67009   5.839   7.522   9.562 -0.4201  0.2842  0.9087
  508MOL0     H67010   6.075   7.590   9.289  0.7310  0.2852 -0.4162
  508MOL0     H67011   6.074   7.487   9.435 -1.0138  1.7233  2.3178
  508MOL0     H67012   6.296   7.585   9.423  1.0504 -0.1006  3.1529
  508MOL0     H67013   6.203   7.684   9.540  0.5396  2.3844  0.4219
  508MOL0     H67014   6.252   7.716   9.246  0.6545  0.4289 -0.0464
  508MOL0     H67015   6.163   7.836   9.350  0.2630 -0.2549  2.1920
  508MOL0     H67016   6.453   7.755   9.386  1.5086  0.2669  0.0506
  508MOL0     H67017   6.374   7.891   9.460  0.9020  1.2080 -1.0298
  508MOL0     H67018   6.549   7.971   9.038 -1.2384  0.7733  1.2696
  508MOL0     H67019   6.787   8.023   9.027  1.1070  1.4068  0.3376
  508MOL0     H67020   7.250   8.033   8.964  2.6481 -1.8530  2.3714
  508MOL0     H67021   7.417   8.177   8.928 -0.7558 -0.7326  0.3360
  508MOL0     H67022   7.519   8.534   8.841  1.8909  1.6615  1.4919
  508MOL0     H67023   7.456   8.370   8.836 -4.4773  0.7055  3.0876
  508MOL0     H67024   7.652   8.308   8.990  0.2743 -0.2994 -1.3653
  508MOL0     H67025   7.710   8.476   8.987  0.2988  0.5762 -1.2713
  508MOL0     H67026   7.703   8.459   8.739 -0.1084  1.4423  1.7038
  508MOL0     H67027   7.718   8.283   8.758  0.0456  0.0101 -0.3067
  508MOL0     H67028   7.929   8.480   8.845  0.7304 -0.6667 -0.7570
  508MOL0     H67029   7.910   8.312   8.915  0.5028  0.8168  0.5779
  508MOL0     H67030   7.961   8.384   8.623 -3.0200 -2.3876 -1.7221
  508MOL0     H67031   7.909   8.231   8.667 -1.8123 -0.4701  4.8263
  508MOL0     H67032   8.099   8.180   8.790 -0.4978 -0.5250 -0.8690
  508MOL0     H67033   8.134   8.334   8.849 -0.2515 -1.3092  0.0675
  508MOL0     H67034   8.275   8.239   8.627  0.9926  0.2034  3.5192
  508MOL0     H67035   8.120   8.297   8.549 -1.4686 -0.1537  1.9501
  508MOL0     H67036   8.276   8.455   8.760  0.1973 -0.1335 -0.5680
  508MOL0     H67037   8.173   8.530   8.634  1.2126  2.0175  1.5675
  508MOL0     H67038   7.249   8.476   9.178 -0.7971 -1.1899  1.5589
  508MOL0     H67039   7.058   8.358   9.209  0.8293  1.4423 -0.5645
  508MOL0     H67040   6.833   7.987   9.442  1.5082 -1.5743  0.0730
  508MOL0     H67041   6.611   7.940   9.468 -0.2622  1.0725 -0.0352
  508MOL0     H67042   4.863   7.488  10.400  3.0963  0.9245  2.3852
  508MOL0     H67043   4.804   7.270  10.515  0.8857  0.6039  0.1873
  508MOL0     H67044   4.753   6.642  10.288  0.6578 -1.4316  0.6416
  508MOL0     H67045   4.660   6.477  10.410  0.3066 -1.1009  0.5447
  508MOL0     H67046   4.412   6.472  10.801  0.1349 -0.1747 -1.4316
  508MOL0     H67047   4.455   6.636  10.777  0.1219  0.2423  4.4894
  508MOL0     H67048   4.664   6.428  10.843 -1.0423 -0.8878  0.0281
  508MOL0     H67049   4.685   6.598  10.868  0.5831  1.1398  2.0307
  508MOL0     H67050   4.654   6.499  11.090 -0.0338 -0.8065  0.7175
  508MOL0     H67051   4.500   6.421  11.034 -1.5678  0.9472 -0.9173
  508MOL0     H67052   4.408   6.650  11.003 -0.2102 -2.0312  0.6396
  508MOL0     H67053   4.440   6.628  11.171 -1.2067 -1.2241 -0.5583
  508MOL0     H67054   4.671   6.968  11.042 -1.1406 -0.0589 -1.5241
  508MOL0     H67055   4.595   6.764  10.733 -0.2145 -0.0795 -0.2869
  508MOL0     H67056   4.720   6.927  10.618 -2.8181  1.1302 -0.0595
  509MOL0     O67057  10.264   0.093   6.986  0.2488  0.0833 -0.5306
  509MOL0     C67058  10.326   0.082   6.882  0.5558 -0.4725 -0.1064
  509MOL0     O67059  10.282   0.021   6.775  0.9325  0.7695  0.0775
  509MOL0     C67060  10.194  -0.086   6.799 -0.2398 -1.4388  0.4485
  509MOL0     C67061  10.239  -0.220   6.820 -0.0996 -0.1334  0.1368
  509MOL0     C67062  10.161  -0.325   6.838 -0.4330 -0.2596 -0.3688
  509MOL0     C67063  10.018  -0.318   6.831 -0.6837  0.7209  0.8736
  509MOL0     O67064   9.935  -0.427   6.850  0.0928 -0.1308 -1.0024
  509MOL0     C67065   9.792  -0.409   6.883 -0.7991  0.0871  0.3253
  509MOL0     C67066   9.735  -0.541   6.936 -0.3249  0.3408  0.3648
  509MOL0     C67067   9.768  -0.578   7.079  0.0894 -1.0571  0.0110
  509MOL0     C67068   9.914  -0.594   7.113 -0.4349  1.1632 -0.4073
  509MOL0     C67069   9.940  -0.639   7.255 -0.3945  0.3482  0.5719
  509MOL0     C67070  10.028  -0.555   7.345 -0.0455 -0.8063 -0.1036
  509MOL0     C67071  10.035  -0.616   7.485  0.1979  0.6953 -0.1185
  509MOL0     C67072  10.110  -0.524   7.582 -0.8007 -0.3224 -0.3246
  509MOL0     N67073  10.252  -0.528   7.556 -0.0660  0.2949 -0.6910
  509MOL0     C67074  10.332  -0.637   7.533 -0.1879  0.7089 -0.0458
  509MOL0     C67075  10.454  -0.595   7.493  0.7546 -0.4311  0.4965
  509MOL0     C67076  10.577  -0.683   7.482 -0.4599  0.2923  0.7209
  509MOL0     C67077  10.608  -0.688   7.336  0.4362 -0.1365 -0.1365
  509MOL0     C67078  10.744  -0.747   7.309 -0.6790 -0.0336 -0.9243
  509MOL0     C67079  10.754  -0.767   7.154 -0.0785 -0.2708  0.3970
  509MOL0     O67080  10.886  -0.832   7.148  0.4777 -0.4290 -0.2484
  509MOL0     C67081  10.937  -0.852   7.027  0.8173 -0.2638 -0.5644
  509MOL0     C67082  11.075  -0.871   7.007 -0.4933  1.0419  0.2912
  509MOL0     C67083  11.130  -0.893   6.883  1.0942 -0.1021  0.4712
  509MOL0     C67084  11.045  -0.900   6.774  0.3219 -0.4129  0.5721
  509MOL0     C67085  11.098  -0.947   6.639 -0.8990 -0.5075  0.4489
  509MOL0     O67086  11.012  -0.978   6.547 -0.1545 -0.2803 -0.3093
  509MOL0     C67087  11.064  -1.038   6.434 -0.1805 -0.0196 -0.0262
  509MOL0     C67088  11.071  -1.176   6.412  0.4273 -0.3536  0.2683
  509MOL0     C67089  11.131  -1.219   6.287  0.4116  0.1325  0.9688
  509MOL0     C67090  11.151  -1.133   6.176 -0.0440 -0.2570 -0.5154
  509MOL0     O67091  11.186  -1.166   6.049 -0.6030  0.2957  0.3404
  509MOL0     C67092  11.193  -1.080   5.936  1.0021  0.6778  0.4344
  509MOL0     C67093  11.209  -1.171   5.812  0.5320  0.5021 -0.2684
  509MOL0     C67094  11.226  -1.092   5.682  1.2980  0.3823 -0.1060
  509MOL0     C67095  11.345  -0.991   5.686 -0.6261  0.0984  0.2252
  509MOL0     C67096  11.390  -0.966   5.546  0.1439 -0.1449 -0.4589
  509MOL0     C67097  11.506  -0.866   5.546  0.0193 -0.1489  0.9164
  509MOL0     C67098  11.637  -0.890   5.632  0.5157  0.7046  0.2676
  509MOL0     C67099  11.739  -0.791   5.587  0.1511 -0.0267  0.3803
  509MOL0    Cl67100  11.891  -0.811   5.674 -0.1630 -0.5103 -0.2961
  509MOL0     C67101  11.119  -1.004   6.199 -0.6853 -0.7566  0.4938
  509MOL0     C67102  11.085  -0.957   6.324 -0.4465 -0.0976 -0.1516
  509MOL0     O67103  11.216  -0.953   6.625  0.0105  1.2008 -0.1690
  509MOL0     C67104  10.911  -0.877   6.789 -0.6625  0.6584 -0.0255
  509MOL0     C67105  10.853  -0.858   6.912  0.4822 -0.9587 -0.8626
  509MOL0     N67106  10.444  -0.454   7.494 -0.2170  0.2365  0.4948
  509MOL0     N67107  10.328  -0.425   7.529 -0.1738 -0.1139 -0.2549
  509MOL0     C67108   9.972  -0.185   6.807 -0.8444 -0.1469 -0.1398
  509MOL0     C67109  10.057  -0.074   6.791  0.6277 -0.4035  0.6461
  509MOL0     C67110  10.460   0.153   6.868  0.1958  0.1951 -0.0044
  509MOL0     C67111  10.536   0.121   6.755  1.1146 -0.4524  0.2876
  509MOL0     C67112  10.657   0.192   6.728 -0.4139  0.3287 -0.3334
  509MOL0     C67113  10.700   0.287   6.822  0.7763 -0.3126  0.3130
  509MOL0     O67114  10.826   0.344   6.826 -0.0974  0.5427 -0.3720
  509MOL0     C67115  10.885   0.365   6.696  0.0496  0.4492 -0.0760
  509MOL0     C67116  11.030   0.312   6.685 -0.1889 -0.0454 -0.6243
  509MOL0     C67117  11.112   0.382   6.575 -0.1783 -0.6933 -0.0722
  509MOL0     C67118  11.255   0.345   6.564 -0.4665  0.9251  0.0824
  509MOL0     C67119  11.342   0.377   6.677  1.1420  0.1707  0.0980
  509MOL0     C67120  11.417   0.417   6.769 -0.8234  0.1668  0.2180
  509MOL0     C67121  10.631   0.306   6.946  0.3487  0.8009  0.2163
  509MOL0     C67122  10.501   0.251   6.954  0.1998  0.0500 -0.6513
  509MOL0     H67123  10.347  -0.234   6.821 -0.0983 -0.3487 -1.3245
  509MOL0     H67124  10.196  -0.427   6.856 -0.2677 -0.3273 -1.0643
  509MOL0     H67125   9.738  -0.367   6.798  0.7075 -3.2479 -2.5816
  509MOL0     H67126   9.772  -0.333   6.958 -3.3192 -0.1975  0.0126
  509MOL0     H67127   9.775  -0.630   6.885  1.6602 -0.0191  2.3782
  509MOL0     H67128   9.626  -0.541   6.927 -0.4877 -3.9057  0.2030
  509MOL0     H67129   9.726  -0.679   7.084  0.7611 -1.3355  0.2248
  509MOL0     H67130   9.720  -0.499   7.137  2.8842  1.9278 -1.4071
  509MOL0     H67131   9.952  -0.678   7.054 -1.1570 -1.5127  2.6634
  509MOL0     H67132   9.968  -0.504   7.082  0.1964  1.1891  0.7062
  509MOL0     H67133   9.993  -0.735   7.252  1.6278  1.3797  1.5291
  509MOL0     H67134   9.840  -0.651   7.298 -0.7892  1.8617  0.1345
  509MOL0     H67135   9.990  -0.453   7.358 -0.2539 -0.5351 -2.4269
  509MOL0     H67136  10.128  -0.544   7.301  0.0922 -1.0321  0.1493
  509MOL0     H67137   9.937  -0.627   7.532  0.9750  0.4831  1.5407
  509MOL0     H67138  10.088  -0.711   7.472  0.2086  0.9652 -2.3931
  509MOL0     H67139  10.097  -0.562   7.683  3.6138  1.3864  1.1469
  509MOL0     H67140  10.058  -0.428   7.571 -1.6998 -0.8158 -0.4657
  509MOL0     H67141  10.316  -0.745   7.531 -1.1879  0.8429 -0.0581
  509MOL0     H67142  10.577  -0.789   7.509  0.9160 -0.3502 -1.5515
  509MOL0     H67143  10.663  -0.638   7.533  1.5448 -1.4852 -0.8975
  509MOL0     H67144  10.614  -0.586   7.296 -1.1258  0.4876  1.1095
  509MOL0     H67145  10.527  -0.737   7.281 -1.0082 -1.8935  3.2791
  509MOL0     H67146  10.822  -0.679   7.346 -3.2805  1.6595  1.9125
  509MOL0     H67147  10.749  -0.843   7.361  2.4880  0.0023 -0.9584
  509MOL0     H67148  10.762  -0.670   7.104  1.8185 -1.7874 -2.5194
  509MOL0     H67149  10.675  -0.831   7.115  1.6810 -1.4878 -1.3977
  509MOL0     H67150  11.144  -0.881   7.090 -0.6299  0.1361  0.3103
  509MOL0     H67151  11.236  -0.914   6.881  0.7923 -1.9759  1.6119
  509MOL0     H67152  11.047  -1.248   6.489 -1.5775 -1.5013 -1.3242
  509MOL0     H67153  11.161  -1.323   6.278 -0.1052  0.0514  0.0664
  509MOL0     H67154  11.279  -1.013   5.931  0.0621  2.2135  2.8484
  509MOL0     H67155  11.101  -1.024   5.916 -0.8055 -1.8826  0.9704
  509MOL0     H67156  11.130  -1.247   5.806 -0.5407  1.6247 -0.7308
  509MOL0     H67157  11.296  -1.237   5.823  1.1416  1.3049 -0.1900
  509MOL0     H67158  11.130  -1.044   5.662 -0.2508 -1.2191  2.7840
  509MOL0     H67159  11.237  -1.168   5.604 -2.2466  1.2609 -1.6596
  509MOL0     H67160  11.301  -0.903   5.733 -0.6138  0.5408 -0.5841
  509MOL0     H67161  11.428  -1.026   5.748 -0.3980 -3.4168 -1.7936
  509MOL0     H67162  11.307  -0.920   5.491 -1.4960  1.1248  2.7636
  509MOL0     H67163  11.420  -1.067   5.518  2.5498 -0.4848  2.7293
  509MOL0     H67164  11.466  -0.767   5.569  0.3035  0.3254 -0.5586
  509MOL0     H67165  11.555  -0.869   5.449  1.7611  0.0195  1.7542
  509MOL0     H67166  11.617  -0.873   5.738 -0.9116 -1.4283  0.3916
  509MOL0     H67167  11.667  -0.994   5.620 -1.1329  0.1799  0.4739
  509MOL0     H67168  11.697  -0.691   5.585  3.7957  1.7827  3.0726
  509MOL0     H67169  11.762  -0.808   5.482 -4.2798 -0.1535 -0.7895
  509MOL0     H67170  11.119  -0.920   6.130 -0.6162 -2.7544 -2.1120
  509MOL0     H67171  11.058  -0.856   6.351 -1.5451 -0.8626  1.8080
  509MOL0     H67172  10.849  -0.877   6.700 -1.0445  0.4522  0.2361
  509MOL0     H67173  10.746  -0.864   6.928  0.6399 -0.4214  0.6014
  509MOL0     H67174   9.865  -0.169   6.818 -0.4581  0.9401  4.6091
  509MOL0     H67175  10.011   0.022   6.771 -0.2343 -0.8446  0.4413
  509MOL0     H67176  10.508   0.055   6.673  0.6739  1.5685 -1.2834
  509MOL0     H67177  10.704   0.179   6.631 -3.4002  1.3229 -2.0282
  509MOL0     H67178  10.892   0.473   6.679  0.5951  0.8576  2.4565
  509MOL0     H67179  10.831   0.332   6.606 -0.4024 -0.9331  0.6686
  509MOL0     H67180  11.088   0.313   6.778 -1.9012 -0.6421  0.5054
  509MOL0     H67181  11.022   0.209   6.650 -1.6952  0.6457 -2.5495
  509MOL0     H67182  11.108   0.489   6.596  0.9588 -0.4357 -1.0250
  509MOL0     H67183  11.058   0.372   6.480 -0.6418  0.4179  0.0641
  509MOL0     H67184  11.259   0.237   6.547 -3.0765  0.3162  2.7075
  509MOL0     H67185  11.302   0.386   6.474 -1.2997 -2.6698 -2.1696
  509MOL0     H67186  11.481   0.456   6.845 -3.6426 -1.2271  3.5859
  509MOL0     H67187  10.668   0.366   7.029 -0.9310 -2.5497  3.4849
  509MOL0     H67188  10.447   0.282   7.043  2.6494  3.3455 -0.0974
  510MOL0     O67189   6.137   1.762   2.956  0.4584  0.1855  0.1751
  510MOL0     C67190   6.060   1.691   3.015  0.0377 -0.0776 -0.4436
  510MOL0     O67191   5.941   1.722   3.066  0.2055 -0.2350 -0.7668
  510MOL0     C67192   5.885   1.836   3.031  0.3125 -0.5258 -0.2669
  510MOL0     C67193   5.865   1.947   3.118  0.1650 -0.3907 -0.0862
  510MOL0     C67194   5.785   2.053   3.088  0.5275 -0.1953  0.3514
  510MOL0     C67195   5.713   2.055   2.967  0.2672  0.5026  0.6498
  510MOL0     O67196   5.636   2.158   2.927  0.2301 -0.0966 -0.4075
  510MOL0     C67197   5.578   2.248   3.022  0.1402 -0.3319 -0.1479
  510MOL0     C67198   5.454   2.319   2.937  0.1127 -0.2235 -0.2317
  510MOL0     C67199   5.412   2.460   2.994  0.4324 -0.0681 -0.5504
  510MOL0     C67200   5.370   2.455   3.137  0.8892  1.0897  0.2353
  510MOL0     C67201   5.475   2.500   3.231  0.3736  0.0626 -0.6690
  510MOL0     C67202   5.412   2.521   3.363  0.2721  0.0702 -0.6309
  510MOL0     C67203   5.522   2.491   3.469  0.1034 -0.0116  0.1765
  510MOL0     C67204   5.590   2.616   3.517 -0.4475 -0.1181 -0.2149
  510MOL0     N67205   5.502   2.696   3.607  0.5531  0.3985  0.3962
  510MOL0     C67206   5.521   2.707   3.739  0.3177  0.8857 -0.6845
  510MOL0     C67207   5.451   2.813   3.783  0.0599  0.7378 -0.2036
  510MOL0     C67208   5.454   2.870   3.925 -0.7717 -0.5141  0.3487
  510MOL0     C67209   5.591   2.944   3.943  0.1894 -1.7814 -0.1037
  510MOL0     C67210   5.569   3.100   3.903 -0.6189  0.1201  0.1111
  510MOL0     C67211   5.685   3.187   3.905 -0.9659 -0.5451 -0.0624
  510MOL0     O67212   5.765   3.171   4.025  0.5350  0.7103  0.3999
  510MOL0     C67213   5.795   3.280   4.107  0.5565  0.0439  0.0809
  510MOL0     C67214   5.781   3.257   4.243  0.2692  0.1543 -1.1403
  510MOL0     C67215   5.785   3.368   4.330 -0.0874 -0.3924  0.0506
  510MOL0     C67216   5.797   3.505   4.276  0.6242  0.6043 -0.1749
  510MOL0     C67217   5.791   3.621   4.371 -0.9855 -0.5364  0.3574
  510MOL0     O67218   5.809   3.746   4.316  0.6787 -0.0119  0.8266
  510MOL0     C67219   5.785   3.851   4.412 -0.5881  0.7603  0.2023
  510MOL0     C67220   5.894   3.907   4.483  0.4926  0.1900 -0.2029
  510MOL0     C67221   5.863   4.001   4.581 -0.5064  0.5409 -0.1217
  510MOL0     C67222   5.733   4.024   4.624  0.0726 -0.1093 -0.3528
  510MOL0     O67223   5.720   4.096   4.741  0.2163  0.6071 -0.5134
  510MOL0     C67224   5.614   4.192   4.749 -0.0239  0.6163 -0.8210
  510MOL0     C67225   5.642   4.248   4.887 -0.6481 -0.1910 -0.7767
  510MOL0     C67226   5.742   4.366   4.878 -0.2351  0.0872 -0.4343
  510MOL0     C67227   5.777   4.440   5.008  0.4040 -0.4753  0.3838
  510MOL0     C67228   5.856   4.573   4.971 -0.6028 -0.3549  0.4806
  510MOL0     C67229   5.880   4.682   5.085 -0.1292 -0.1036 -0.2813
  510MOL0     C67230   5.931   4.816   5.041  0.1538 -0.1835  0.5985
  510MOL0     C67231   5.832   4.893   4.955  0.4154 -0.0934  0.9744
  510MOL0    Cl67232   5.689   4.929   5.050  0.1517  0.1499  0.0527
  510MOL0     C67233   5.636   3.980   4.536 -0.3871  1.2790 -0.5111
  510MOL0     C67234   5.665   3.900   4.428  0.5607  0.4948  0.8968
  510MOL0     O67235   5.805   3.593   4.490  0.2136 -0.2227 -0.6774
  510MOL0     C67236   5.813   3.521   4.138  0.0332  0.3035  0.3527
  510MOL0     C67237   5.814   3.408   4.056 -0.6826 -1.5333  0.7993
  510MOL0     N67238   5.387   2.860   3.673  0.4157 -0.6408 -0.2877
  510MOL0     N67239   5.409   2.793   3.568 -0.2558  0.4063 -0.6438
  510MOL0     C67240   5.736   1.959   2.873  0.3533 -0.7242  0.0828
  510MOL0     C67241   5.819   1.850   2.911  0.0518  0.3609 -1.3376
  510MOL0     C67242   6.127   1.563   3.068  0.7207  0.5811  0.6714
  510MOL0     C67243   6.064   1.486   3.173 -0.0973 -0.9489  0.6346
  510MOL0     C67244   6.129   1.365   3.225 -0.1328 -0.1060  1.0759
  510MOL0     C67245   6.241   1.312   3.158  0.3409 -0.0160  0.6942
  510MOL0     O67246   6.300   1.188   3.185  0.4245 -0.9556 -0.4223
  510MOL0     C67247   6.220   1.094   3.258 -0.2387 -1.5427  0.5521
  510MOL0     C67248   6.296   0.962   3.255 -0.0432  0.2665  0.2448
  510MOL0     C67249   6.293   0.882   3.114 -0.6015  0.0272 -0.2703
  510MOL0     C67250   6.147   0.828   3.074  0.3880  0.2873  0.3678
  510MOL0     C67251   6.103   0.705   3.148 -0.5002 -0.3978 -0.4529
  510MOL0     C67252   6.060   0.602   3.195  0.8986  0.4702  0.4600
  510MOL0     C67253   6.305   1.400   3.063 -0.2624  0.5582 -0.1529
  510MOL0     C67254   6.249   1.516   3.026  0.3083 -0.1356 -1.3172
  510MOL0     H67255   5.922   1.952   3.210 -0.2435  2.4593  0.1034
  510MOL0     H67256   5.784   2.136   3.159  1.8646 -0.1139  0.3124
  510MOL0     H67257   5.651   2.314   3.069  1.3485 -1.1157 -0.8462
  510MOL0     H67258   5.520   2.196   3.099  1.6156 -0.6745  0.7816
  510MOL0     H67259   5.362   2.261   2.947 -1.6367  2.3464 -0.7404
  510MOL0     H67260   5.481   2.343   2.834 -2.0923 -3.5359 -1.7400
  510MOL0     H67261   5.327   2.495   2.934  2.6884  4.6157 -1.5211
  510MOL0     H67262   5.491   2.536   2.988  1.8491 -1.5903 -2.7563
  510MOL0     H67263   5.279   2.516   3.147 -1.3502 -2.3290  3.6599
  510MOL0     H67264   5.328   2.355   3.155 -2.5664  2.1524 -0.9654
  510MOL0     H67265   5.537   2.587   3.207  1.0084 -0.3428 -0.5294
  510MOL0     H67266   5.544   2.416   3.221 -1.5347 -1.3442 -3.0442
  510MOL0     H67267   5.333   2.446   3.379 -0.6868  1.1914  0.0711
  510MOL0     H67268   5.369   2.620   3.380  1.2385  0.9607 -2.9938
  510MOL0     H67269   5.486   2.460   3.567  0.6909  0.0404  0.4180
  510MOL0     H67270   5.591   2.412   3.438  0.8823  0.6808  0.0839
  510MOL0     H67271   5.613   2.673   3.426 -3.7061 -2.1286 -2.5031
  510MOL0     H67272   5.685   2.582   3.558 -0.4958 -3.2210 -2.3769
  510MOL0     H67273   5.596   2.648   3.792 -2.6655 -1.5475  1.1424
  510MOL0     H67274   5.433   2.788   3.994 -2.5656 -2.4009 -2.2365
  510MOL0     H67275   5.372   2.942   3.925 -1.6297 -1.4449 -1.2448
  510MOL0     H67276   5.670   2.910   3.876  1.5751  0.3318  0.3548
  510MOL0     H67277   5.632   2.922   4.043 -0.4635 -3.3848 -0.1606
  510MOL0     H67278   5.528   3.087   3.802 -0.0028 -1.6862  0.0615
  510MOL0     H67279   5.502   3.155   3.970  1.5691 -0.7272  3.2120
  510MOL0     H67280   5.643   3.287   3.894  1.0372  0.1411 -2.1856
  510MOL0     H67281   5.746   3.168   3.816 -0.2513 -0.3065  0.3597
  510MOL0     H67282   5.768   3.161   4.293  3.3980  1.3136  2.3993
  510MOL0     H67283   5.771   3.346   4.435 -4.1256 -0.6182 -0.3536
  510MOL0     H67284   5.994   3.866   4.479  0.2244 -0.4037 -1.5667
  510MOL0     H67285   5.940   4.033   4.649  0.0054  2.2673 -1.4477
  510MOL0     H67286   5.515   4.145   4.749 -0.0883  0.5717  2.1017
  510MOL0     H67287   5.619   4.280   4.684  0.6299  1.5042  0.3760
  510MOL0     H67288   5.663   4.172   4.963  0.4033  0.6432 -0.2008
  510MOL0     H67289   5.549   4.298   4.915  1.2805  1.4780  3.5627
  510MOL0     H67290   5.684   4.434   4.815 -1.8212 -0.4065  0.4289
  510MOL0     H67291   5.830   4.323   4.830 -1.6717 -1.9243 -1.4091
  510MOL0     H67292   5.684   4.469   5.059 -1.0120 -3.9934  0.0949
  510MOL0     H67293   5.828   4.382   5.086  0.5477  0.4460  0.9850
  510MOL0     H67294   5.803   4.612   4.883 -2.5418 -2.4581  0.6450
  510MOL0     H67295   5.953   4.545   4.929 -0.2667 -0.6543  1.4398
  510MOL0     H67296   5.956   4.635   5.148 -1.3431  1.5372  2.6069
  510MOL0     H67297   5.790   4.693   5.145  0.4218  0.1673  0.5077
  510MOL0     H67298   5.963   4.884   5.120 -2.0237  1.5402  0.1002
  510MOL0     H67299   6.028   4.801   4.993  1.1284  1.3448  2.0182
  510MOL0     H67300   5.802   4.831   4.870  2.9356 -0.2896  0.1622
  510MOL0     H67301   5.881   4.983   4.918  1.7030 -1.5647 -1.1359
  510MOL0     H67302   5.530   3.994   4.552 -0.3066  1.3043 -0.0029
  510MOL0     H67303   5.579   3.876   4.366  1.4768  0.9332 -0.6050
  510MOL0     H67304   5.810   3.622   4.098 -1.6668  1.1793  2.4806
  510MOL0     H67305   5.835   3.408   3.949  3.2338 -1.4539  1.4144
  510MOL0     H67306   5.671   1.944   2.788  0.7548  1.8792 -0.7651
  510MOL0     H67307   5.824   1.756   2.856 -1.8272 -2.7712  3.1795
  510MOL0     H67308   5.971   1.522   3.216  0.1468  1.1460 -0.4110
  510MOL0     H67309   6.091   1.308   3.309 -2.1325 -0.5854 -0.0794
  510MOL0     H67310   6.113   1.090   3.235 -0.0792 -3.2159 -0.0268
  510MOL0     H67311   6.227   1.132   3.360  0.9833  0.4602 -0.1997
  510MOL0     H67312   6.400   0.984   3.281  0.2010  0.2596 -0.6882
  510MOL0     H67313   6.274   0.884   3.329 -0.9799 -0.9890 -1.2819
  510MOL0     H67314   6.369   0.803   3.115  2.1699  2.4321 -2.6292
  510MOL0     H67315   6.335   0.952   3.041  2.0001 -1.2936 -0.1749
  510MOL0     H67316   6.073   0.901   3.107  1.7098  2.0341 -0.3723
  510MOL0     H67317   6.140   0.820   2.966 -0.0246 -2.1012  0.5142
  510MOL0     H67318   6.021   0.508   3.227 -0.2083  0.5235 -0.6514
  510MOL0     H67319   6.398   1.369   3.016 -0.6227  1.1069 -1.2608
  510MOL0     H67320   6.308   1.580   2.961  1.6863  1.8077  1.6329
  511MOL0     O67321   0.629  10.118   5.604  0.5401  0.1529 -0.1623
  511MOL0     C67322   0.523  10.161   5.560  0.3938  0.1363 -0.3223
  511MOL0     O67323   0.509  10.249   5.461 -0.2401 -0.3430 -0.4603
  511MOL0     C67324   0.610  10.335   5.423 -0.3449 -0.0161  0.1961
  511MOL0     C67325   0.635  10.355   5.288  0.7937 -0.4741 -0.1878
  511MOL0     C67326   0.729  10.443   5.244 -0.2974 -0.1506  0.2817
  511MOL0     C67327   0.814  10.514   5.332  0.0327  0.6848 -1.0010
  511MOL0     O67328   0.924  10.589   5.287 -0.4150  0.3517 -0.6116
  511MOL0     C67329   0.893  10.705   5.213  0.7586 -0.1350  0.5586
  511MOL0     C67330   0.835  10.824   5.297 -0.2614 -1.6669  0.0535
  511MOL0     C67331   0.814  10.957   5.216  0.0819 -1.4962  0.2387
  511MOL0     C67332   0.931  10.986   5.120 -0.2726  0.4897 -0.2638
  511MOL0     C67333   0.910  11.127   5.049  0.5073  0.4056  0.3599
  511MOL0     C67334   0.764  11.182   5.045  0.6338  0.0551 -1.3565
  511MOL0     C67335   0.763  11.307   4.955  0.2468  0.4969  0.1526
  511MOL0     C67336   0.627  11.342   4.895 -0.3966  0.7735 -0.5730
  511MOL0     N67337   0.522  11.365   4.998  0.1070  0.1655  0.0804
  511MOL0     C67338   0.539  11.366   5.143  0.0696 -0.8852  0.7907
  511MOL0     C67339   0.411  11.352   5.178 -0.5105  0.7245 -0.4923
  511MOL0     C67340   0.376  11.333   5.325  0.1769 -0.4146  0.7384
  511MOL0     C67341   0.378  11.476   5.392  0.1372  0.1287  0.6259
  511MOL0     C67342   0.296  11.473   5.527  0.7273  0.4422  0.2059
  511MOL0     C67343   0.299  11.600   5.611 -0.1455 -0.6589  0.3381
  511MOL0     O67344   0.229  11.695   5.538  0.4360  0.1622 -0.3375
  511MOL0     C67345   0.093  11.688   5.548  0.3296  0.8598  0.5654
  511MOL0     C67346   0.013  11.617   5.637  0.5527 -1.0032  0.4706
  511MOL0     C67347  -0.132  11.630   5.637  0.1718  0.1325  0.2198
  511MOL0     C67348  -0.183  11.715   5.540 -0.0603  0.3638  0.6930
  511MOL0     C67349  -0.333  11.727   5.520  1.1840 -0.3330  0.6158
  511MOL0     O67350  -0.379  11.760   5.395  0.0862 -1.0023 -0.4385
  511MOL0     C67351  -0.516  11.756   5.355 -0.0513 -0.2343  0.2689
  511MOL0     C67352  -0.633  11.722   5.418  0.0863 -0.0588  0.4434
  511MOL0     C67353  -0.755  11.739   5.349 -0.8469  0.5308  0.5711
  511MOL0     C67354  -0.766  11.789   5.217 -0.0471  0.1567 -0.9812
  511MOL0     O67355  -0.887  11.823   5.155 -0.0337  1.0329 -0.3031
  511MOL0     C67356  -0.985  11.867   5.252 -0.2822 -0.4976  0.5252
  511MOL0     C67357  -1.044  11.982   5.179  1.4519 -0.1044 -0.1515
  511MOL0     C67358  -1.169  12.030   5.255  0.7789 -0.1594  0.2919
  511MOL0     C67359  -1.240  12.168   5.215 -0.3371  1.1703 -1.2464
  511MOL0     C67360  -1.146  12.281   5.262 -1.1094 -0.2660  0.3197
  511MOL0     C67361  -1.202  12.419   5.248 -0.0907 -0.1750 -0.1336
  511MOL0     C67362  -1.097  12.517   5.316 -0.2242  0.5430 -0.3097
  511MOL0     C67363  -1.111  12.658   5.252  0.0372  0.3361 -0.2046
  511MOL0    Cl67364  -1.266  12.718   5.309 -0.4250 -0.3905 -0.2574
  511MOL0     C67365  -0.644  11.809   5.149  0.0534  0.0616  0.3189
  511MOL0     C67366  -0.520  11.805   5.221 -0.7891 -0.1128 -0.6988
  511MOL0     O67367  -0.401  11.694   5.624 -0.0268 -0.3033  0.2305
  511MOL0     C67368  -0.098  11.771   5.435  1.4887  0.0660  1.0880
  511MOL0     C67369   0.033  11.755   5.442 -0.2976  0.8623  0.3950
  511MOL0     N67370   0.320  11.348   5.075  0.5611  0.0033  0.0708
  511MOL0     N67371   0.391  11.357   4.967  0.1564 -0.3048 -0.1645
  511MOL0     C67372   0.800  10.495   5.478 -1.1453 -0.4304  0.5258
  511MOL0     C67373   0.697  10.408   5.513 -0.8586  0.6661 -0.6617
  511MOL0     C67374   0.397  10.111   5.622 -0.1527 -0.7038  0.7393
  511MOL0     C67375   0.274  10.142   5.558  0.0841 -0.9138 -0.5811
  511MOL0     C67376   0.156  10.111   5.617  0.3373  0.5454  0.3184
  511MOL0     C67377   0.156  10.031   5.733  0.2128  0.3930  0.4032
  511MOL0     O67378   0.038   9.981   5.780  0.2226 -0.3467  0.9174
  511MOL0     C67379  -0.002   9.849   5.744 -0.8673 -0.1529  0.9296
  511MOL0     C67380  -0.123   9.833   5.838 -0.4908  0.7045  0.0094
  511MOL0     C67381  -0.099   9.829   5.994 -0.7304 -0.7685  0.4272
  511MOL0     C67382  -0.229   9.874   6.071  0.5608  0.3155  0.0826
  511MOL0     C67383  -0.334   9.772   6.029  0.6423 -0.2298  0.4831
  511MOL0     C67384  -0.429   9.702   5.994 -0.5537  0.3239 -0.9285
  511MOL0     C67385   0.274   9.980   5.785 -0.0856 -0.4299 -0.6213
  511MOL0     C67386   0.395  10.037   5.745  0.2130 -0.3481  0.2812
  511MOL0     H67387   0.581  10.296   5.215  1.6166  1.6509 -2.6981
  511MOL0     H67388   0.745  10.424   5.139  1.6937 -1.0248  0.7122
  511MOL0     H67389   0.830  10.666   5.132  2.0033 -2.1325  0.4860
  511MOL0     H67390   0.984  10.739   5.163 -0.5930  0.1311 -1.8717
  511MOL0     H67391   0.912  10.848   5.371 -0.7837  1.6265 -0.3061
  511MOL0     H67392   0.740  10.802   5.346 -1.6724 -0.0866 -1.8022
  511MOL0     H67393   0.813  11.056   5.262 -1.5093 -1.2953 -0.1919
  511MOL0     H67394   0.720  10.958   5.160 -0.1975 -0.6693  0.7045
  511MOL0     H67395   1.028  10.983   5.171 -1.1757  0.2190  1.5014
  511MOL0     H67396   0.925  10.908   5.043 -0.0151  1.0539 -0.8593
  511MOL0     H67397   0.958  11.112   4.952 -0.5727 -0.3305 -0.0884
  511MOL0     H67398   0.980  11.193   5.100  2.7935  0.6128 -2.8186
  511MOL0     H67399   0.729  11.202   5.147  0.3249 -2.4098 -0.9162
  511MOL0     H67400   0.699  11.103   5.005  1.6320 -0.5530 -1.8118
  511MOL0     H67401   0.806  11.388   5.015 -3.9404  2.9846  0.1767
  511MOL0     H67402   0.834  11.289   4.873 -0.1451  0.1201 -0.1078
  511MOL0     H67403   0.589  11.270   4.823 -1.3620 -1.0628  1.6449
  511MOL0     H67404   0.635  11.435   4.838  1.8607  1.4826  0.7512
  511MOL0     H67405   0.629  11.366   5.203  0.0676 -0.3350  0.7936
  511MOL0     H67406   0.443  11.260   5.371 -1.5371 -2.5890 -0.0838
  511MOL0     H67407   0.277  11.292   5.343  0.9676 -2.5889  0.3995
  511MOL0     H67408   0.324  11.548   5.331 -1.5459 -2.2304 -0.8306
  511MOL0     H67409   0.480  11.514   5.405  0.9705 -1.0704 -1.8085
  511MOL0     H67410   0.197  11.437   5.497  0.5326 -0.3586  1.7201
  511MOL0     H67411   0.340  11.394   5.589 -2.0892 -0.6737  0.9083
  511MOL0     H67412   0.405  11.625   5.611 -0.2565 -0.0509 -1.6895
  511MOL0     H67413   0.251  11.586   5.709 -1.8734  0.5535 -0.2904
  511MOL0     H67414   0.047  11.562   5.724  0.2642 -2.1341 -0.1076
  511MOL0     H67415  -0.202  11.586   5.707  0.3153 -0.0647  0.2414
  511MOL0     H67416  -0.616  11.687   5.519  3.1949 -0.1648  0.0032
  511MOL0     H67417  -0.841  11.712   5.410  0.4191 -1.7819  1.4689
  511MOL0     H67418  -0.946  11.895   5.350 -0.4275 -0.3906  0.5522
  511MOL0     H67419  -1.061  11.790   5.266  1.4429 -1.7178  4.5555
  511MOL0     H67420  -1.079  11.953   5.079 -0.0465 -0.8389  0.5548
  511MOL0     H67421  -0.968  12.059   5.166 -0.1382  1.9634  1.9059
  511MOL0     H67422  -1.152  12.036   5.363  1.9010 -1.9527  0.2550
  511MOL0     H67423  -1.238  11.946   5.242  1.7901 -1.5118  2.8136
  511MOL0     H67424  -1.262  12.167   5.108 -0.3087  0.7862 -1.2518
  511MOL0     H67425  -1.336  12.162   5.269  0.8050  1.4350  0.9212
  511MOL0     H67426  -1.060  12.271   5.195 -2.7435 -0.3546 -1.8356
  511MOL0     H67427  -1.108  12.268   5.364 -0.5588 -1.7698 -0.0396
  511MOL0     H67428  -1.301  12.421   5.293 -1.2853 -2.2871 -2.4120
  511MOL0     H67429  -1.220  12.430   5.141  0.9318 -0.6579 -0.3666
  511MOL0     H67430  -1.133  12.520   5.419 -3.1288  0.2554 -1.2375
  511MOL0     H67431  -0.995  12.479   5.304  0.5907  3.1832 -2.8306
  511MOL0     H67432  -1.110  12.645   5.144  2.1892 -0.0760 -0.1691
  511MOL0     H67433  -1.034  12.728   5.286  0.3631  0.0933 -0.4315
  511MOL0     H67434  -0.646  11.852   5.050  1.1281  1.5645  0.9177
  511MOL0     H67435  -0.426  11.837   5.177 -0.6010  2.0572  1.0935
  511MOL0     H67436  -0.135  11.822   5.347 -1.0656 -1.8593  0.9157
  511MOL0     H67437   0.098  11.799   5.367  0.5021 -0.4117  0.3191
  511MOL0     H67438   0.862  10.533   5.559 -1.9355  1.8284  0.1113
  511MOL0     H67439   0.680  10.389   5.618 -0.2100  1.3479 -0.4283
  511MOL0     H67440   0.267  10.192   5.462 -2.7445  0.1022  0.0571
  511MOL0     H67441   0.054  10.129   5.585 -0.1926  1.0248  2.1736
  511MOL0     H67442   0.066   9.766   5.768 -0.4327 -0.3380 -0.8403
  511MOL0     H67443  -0.029   9.851   5.638  2.6996 -1.6387 -0.1696
  511MOL0     H67444  -0.195   9.913   5.821 -0.3091  0.1543 -4.4142
  511MOL0     H67445  -0.172   9.741   5.807 -2.8172  2.0340 -0.4539
  511MOL0     H67446  -0.023   9.898   6.033 -0.1929 -0.0881 -1.6809
  511MOL0     H67447  -0.068   9.727   6.017  3.0714  0.0352 -0.5591
  511MOL0     H67448  -0.210   9.870   6.179 -0.3188  0.7261  0.2586
  511MOL0     H67449  -0.258   9.975   6.042  2.4870  2.1306  3.7952
  511MOL0     H67450  -0.509   9.640   5.958  2.2148 -3.1258 -1.7192
  511MOL0     H67451   0.256   9.909   5.865 -2.4134 -3.9568 -3.9063
  511MOL0     H67452   0.482  10.004   5.799  0.6279  0.1647 -0.0615
  512MOL0     O67453   2.564   8.118   6.825 -0.3444  0.1084 -0.3998
  512MOL0     C67454   2.523   8.047   6.729  0.2318  0.0331 -0.7740
  512MOL0     O67455   2.432   7.944   6.746  0.2147  0.4016 -0.0836
  512MOL0     C67456   2.376   7.905   6.865 -0.1057  0.7666  0.5015
  512MOL0     C67457   2.324   7.994   6.962  0.1551  0.1696 -0.1677
  512MOL0     C67458   2.251   7.956   7.071 -0.5583 -0.8638 -1.1725
  512MOL0     C67459   2.206   7.830   7.088 -0.4317 -1.3065 -0.5589
  512MOL0     O67460   2.113   7.808   7.182  0.7713  0.2535 -0.2057
  512MOL0     C67461   2.015   7.702   7.151  0.7566  0.1738 -0.5923
  512MOL0     C67462   1.884   7.748   7.217  1.0249  0.1362  0.8420
  512MOL0     C67463   1.829   7.868   7.133 -0.0823 -0.4297  0.0211
  512MOL0     C67464   1.756   7.831   7.007  0.3161 -0.1317 -0.1266
  512MOL0     C67465   1.711   7.944   6.924 -0.1216  0.1280 -0.3979
  512MOL0     C67466   1.596   7.891   6.843 -0.5654  0.5702  0.3033
  512MOL0     C67467   1.650   7.820   6.714 -0.5453 -0.5625 -0.5765
  512MOL0     C67468   1.628   7.912   6.594 -0.6568  0.0174  0.3667
  512MOL0     N67469   1.667   7.834   6.480 -0.3115  0.1047  0.2992
  512MOL0     C67470   1.594   7.738   6.423  0.1582 -0.2315 -0.0410
  512MOL0     C67471   1.646   7.706   6.306  0.0200 -0.2104 -0.1487
  512MOL0     C67472   1.601   7.597   6.218 -0.6139  0.1950 -0.8996
  512MOL0     C67473   1.456   7.627   6.163 -0.2403 -0.4774  0.6419
  512MOL0     C67474   1.416   7.508   6.076  0.2784 -0.1815 -0.5055
  512MOL0     C67475   1.269   7.517   6.031 -0.8112 -0.4603 -0.1733
  512MOL0     O67476   1.173   7.479   6.129 -0.2387 -0.2642 -0.6314
  512MOL0     C67477   1.133   7.347   6.144 -0.5021 -0.5794 -0.1090
  512MOL0     C67478   1.024   7.331   6.229 -0.7297 -0.3710 -0.3942
  512MOL0     C67479   0.981   7.201   6.254  0.0037 -0.2145  0.0619
  512MOL0     C67480   1.028   7.089   6.180 -0.2626  0.3132  0.1629
  512MOL0     C67481   0.967   6.956   6.191  0.8847  0.0913  0.3754
  512MOL0     O67482   0.884   6.948   6.291 -0.1369 -0.0536 -0.7738
  512MOL0     C67483   0.804   6.837   6.315 -0.4958  0.5367 -0.1387
  512MOL0     C67484   0.856   6.708   6.322 -0.3703 -0.1020  1.1347
  512MOL0     C67485   0.777   6.599   6.341  0.1654 -0.0900  0.5150
  512MOL0     C67486   0.642   6.603   6.365  0.6147 -0.5915  0.5918
  512MOL0     O67487   0.574   6.484   6.369 -0.7452  0.5183 -0.1321
  512MOL0     C67488   0.438   6.488   6.389  0.8019 -0.6866  0.5399
  512MOL0     C67489   0.382   6.341   6.389  0.6099 -0.8593 -0.7416
  512MOL0     C67490   0.426   6.268   6.522  0.2734  0.3305  0.3167
  512MOL0     C67491   0.362   6.126   6.529  0.1279 -0.3976 -0.0729
  512MOL0     C67492   0.207   6.128   6.544 -0.5266 -1.0042 -0.5164
  512MOL0     C67493   0.148   6.002   6.606 -0.5431  0.0649 -0.2860
  512MOL0     C67494   0.119   5.891   6.510  1.0191  0.0992 -0.7190
  512MOL0     C67495   0.083   5.755   6.579 -0.3894 -0.2808 -0.1673
  512MOL0    Cl67496   0.244   5.673   6.591  0.3822  0.0612  0.3095
  512MOL0     C67497   0.589   6.729   6.368  0.2774 -0.1554 -1.0293
  512MOL0     C67498   0.667   6.845   6.356 -0.0011  0.4772 -0.7352
  512MOL0     O67499   0.997   6.861   6.108  0.0459  0.1044  0.0732
  512MOL0     C67500   1.143   7.105   6.086  0.8891  0.1223 -1.2618
  512MOL0     C67501   1.189   7.229   6.070  0.6889 -0.4891  0.3353
  512MOL0     N67502   1.753   7.784   6.278  0.4512  0.3002 -0.7843
  512MOL0     N67503   1.754   7.874   6.379  0.1996  0.6521 -0.1541
  512MOL0     C67504   2.251   7.742   6.994  1.0343  0.6341  0.5532
  512MOL0     C67505   2.338   7.769   6.884 -0.0668  0.1107 -0.0623
  512MOL0     C67506   2.590   8.046   6.598 -0.5714  0.2326 -0.2764
  512MOL0     C67507   2.546   7.979   6.489  0.5420 -0.0769  0.8678
  512MOL0     C67508   2.616   7.996   6.369  0.4415 -0.5360 -0.1259
  512MOL0     C67509   2.730   8.076   6.357  0.2911  0.6051  1.3171
  512MOL0     O67510   2.798   8.084   6.234  0.3580  1.0504 -0.2353
  512MOL0     C67511   2.936   8.078   6.216  0.2513 -0.6563 -0.7156
  512MOL0     C67512   3.002   7.950   6.274  0.2220  0.1601 -0.2034
  512MOL0     C67513   3.143   7.921   6.218  0.1260  0.1897  0.1641
  512MOL0     C67514   3.244   7.908   6.326 -0.3249  0.6349  0.4817
  512MOL0     C67515   3.216   7.787   6.419 -0.2491  0.0379 -0.7315
  512MOL0     C67516   3.192   7.700   6.502  1.0834  0.7041  0.3483
  512MOL0     C67517   2.776   8.154   6.458  0.5071  0.0612 -1.2001
  512MOL0     C67518   2.706   8.129   6.584 -0.5445 -0.7902  0.5792
  512MOL0     H67519   2.333   8.101   6.949 -0.2332  0.4988  1.9689
  512MOL0     H67520   2.238   8.019   7.158  2.2368 -3.1899  1.1446
  512MOL0     H67521   2.043   7.609   7.203  0.7469  0.5895  0.1640
  512MOL0     H67522   2.005   7.666   7.048 -1.8031 -2.3152  0.3793
  512MOL0     H67523   1.907   7.782   7.319  0.4804  3.9149 -0.1486
  512MOL0     H67524   1.807   7.670   7.215 -0.8566  1.9006  1.0630
  512MOL0     H67525   1.907   7.930   7.089 -1.4990  0.6263 -1.1090
  512MOL0     H67526   1.778   7.941   7.197 -0.3725 -0.9913  0.4380
  512MOL0     H67527   1.815   7.758   6.951  0.8125 -1.4498  1.9699
  512MOL0     H67528   1.664   7.779   7.037 -0.5507  2.4316  2.0703
  512MOL0     H67529   1.794   7.982   6.863  0.4048  2.5002  1.6372
  512MOL0     H67530   1.676   8.015   6.999 -6.0824 -1.7569 -0.8751
  512MOL0     H67531   1.543   7.981   6.810  3.1572  3.0763  0.5816
  512MOL0     H67532   1.523   7.827   6.895  1.6769 -1.0004  1.7102
  512MOL0     H67533   1.754   7.792   6.729 -1.4993 -4.9573 -0.8497
  512MOL0     H67534   1.604   7.721   6.707  2.2935 -2.2211  1.8841
  512MOL0     H67535   1.695   7.997   6.609 -0.6636 -0.0143  0.5816
  512MOL0     H67536   1.523   7.943   6.590 -1.0802 -1.4315 -2.8202
  512MOL0     H67537   1.522   7.676   6.474  2.9063 -1.5730  2.4746
  512MOL0     H67538   1.588   7.500   6.266 -1.3734 -1.5525 -4.2772
  512MOL0     H67539   1.677   7.583   6.140  2.0948  2.1480  1.1763
  512MOL0     H67540   1.469   7.714   6.098  0.2319  0.0538  1.4313
  512MOL0     H67541   1.388   7.651   6.246 -0.0497 -0.2322  0.7279
  512MOL0     H67542   1.478   7.489   5.989 -1.8586  0.4045 -2.2396
  512MOL0     H67543   1.424   7.413   6.130  1.3019 -0.2921 -0.8407
  512MOL0     H67544   1.257   7.450   5.945  0.0376  0.8007 -1.3180
  512MOL0     H67545   1.244   7.617   5.994  2.5697  0.0186 -1.5510
  512MOL0     H67546   0.975   7.417   6.271 -1.2763  1.1506 -3.7871
  512MOL0     H67547   0.895   7.182   6.318 -0.1460 -0.1564 -0.1196
  512MOL0     H67548   0.962   6.695   6.307  0.6976  5.4885  1.9514
  512MOL0     H67549   0.806   6.494   6.341 -3.7141 -1.3391  1.7595
  512MOL0     H67550   0.384   6.550   6.316  1.7497  0.3693  0.7077
  512MOL0     H67551   0.417   6.540   6.483  4.1748  0.2836  0.8990
  512MOL0     H67552   0.426   6.297   6.300  1.5212 -0.3742 -0.5458
  512MOL0     H67553   0.278   6.361   6.364  0.8781  3.2266  0.6213
  512MOL0     H67554   0.396   6.323   6.612 -1.7424  0.6660 -0.5113
  512MOL0     H67555   0.533   6.245   6.524  0.4475  1.0049  2.8564
  512MOL0     H67556   0.386   6.067   6.440 -2.7240 -2.4848  0.3658
  512MOL0     H67557   0.401   6.081   6.621 -0.0562  0.9773  0.7059
  512MOL0     H67558   0.161   6.148   6.447 -1.2454 -4.5884 -1.0734
  512MOL0     H67559   0.173   6.207   6.611 -0.4507 -2.0873  0.8369
  512MOL0     H67560   0.055   6.032   6.656  0.7943  2.7615  0.7624
  512MOL0     H67561   0.225   5.974   6.679 -0.9428  0.2780  0.2294
  512MOL0     H67562   0.033   5.909   6.445 -1.3457 -2.7267  1.3274
  512MOL0     H67563   0.208   5.866   6.451  0.4099 -2.7995 -0.5634
  512MOL0     H67564   0.028   5.692   6.508 -0.1346 -1.8255  0.9475
  512MOL0     H67565   0.030   5.768   6.674 -1.8825  3.1741 -1.3127
  512MOL0     H67566   0.488   6.746   6.403  1.8032  0.8767  3.4760
  512MOL0     H67567   0.626   6.946   6.350 -0.9992  0.0904 -0.6591
  512MOL0     H67568   1.189   7.023   6.032  1.5030  0.7997 -1.7884
  512MOL0     H67569   1.261   7.248   5.991  1.1127 -3.7402 -0.1884
  512MOL0     H67570   2.215   7.641   7.009  1.6336 -0.5153 -4.0526
  512MOL0     H67571   2.364   7.693   6.811 -2.7630  1.3661 -2.5104
  512MOL0     H67572   2.466   7.905   6.487 -0.8123  1.2607  2.5409
  512MOL0     H67573   2.592   7.939   6.280 -0.4398 -1.7775  0.8629
  512MOL0     H67574   2.986   8.170   6.247 -0.4871 -0.1063 -1.1179
  512MOL0     H67575   2.961   8.071   6.110 -1.2444  2.4080 -1.3850
  512MOL0     H67576   3.005   7.960   6.383 -1.9380  1.3273 -0.1993
  512MOL0     H67577   2.940   7.862   6.252 -0.3165  0.3825  0.3918
  512MOL0     H67578   3.180   7.993   6.144  0.3852  1.0499  1.1102
  512MOL0     H67579   3.131   7.824   6.168 -1.0272 -0.7005  2.0464
  512MOL0     H67580   3.346   7.891   6.289 -0.5728 -0.4177  0.2532
  512MOL0     H67581   3.260   7.992   6.394  2.9381  0.0465  0.6312
  512MOL0     H67582   3.192   7.613   6.563  0.0702  1.0776  0.8954
  512MOL0     H67583   2.858   8.223   6.443  0.9805 -0.5531 -1.4984
  512MOL0     H67584   2.744   8.173   6.676  3.0584 -5.0914  1.4905
  513MOL0     O67585  10.477  10.945   1.552  0.1180 -0.4878 -0.0467
  513MOL0     C67586  10.408  10.937   1.457  0.4699  0.3585 -0.4640
  513MOL0     O67587  10.274  10.958   1.459  0.5068  0.2750  0.1944
  513MOL0     C67588  10.195  10.899   1.553 -0.8845 -0.1366 -0.4896
  513MOL0     C67589  10.053  10.926   1.551 -1.1303 -0.1107  0.3834
  513MOL0     C67590   9.962  10.878   1.640 -0.7062 -0.4919  0.0515
  513MOL0     C67591  10.003  10.784   1.738 -0.0265 -0.1315 -0.5176
  513MOL0     O67592   9.916  10.746   1.831  0.2812  0.0021 -0.6447
  513MOL0     C67593   9.923  10.819   1.956  0.7646  0.4303  0.4978
  513MOL0     C67594   9.904  10.721   2.068  0.3008  0.4923 -0.2905
  513MOL0     C67595   9.989  10.588   2.071 -0.8459 -0.2421  0.1293
  513MOL0     C67596   9.915  10.463   2.002 -0.8492  0.3581  0.0393
  513MOL0     C67597   9.998  10.351   1.927 -0.6088 -0.0991 -0.1928
  513MOL0     C67598   9.919  10.230   1.883 -0.2498 -0.4600 -0.5046
  513MOL0     C67599  10.018  10.136   1.801  0.6102  0.4798  0.3243
  513MOL0     C67600   9.953  10.005   1.733 -0.3668  0.0361  0.1637
  513MOL0     N67601   9.872  10.049   1.618 -0.8251  0.1607  0.1200
  513MOL0     C67602   9.937  10.067   1.495 -1.0361 -0.4267  0.2655
  513MOL0     C67603   9.834  10.094   1.410 -0.5804  0.1338 -0.2917
  513MOL0     C67604   9.823  10.127   1.257 -0.3674 -0.8694  0.5951
  513MOL0     C67605   9.814  10.282   1.232  0.1376  0.6123 -0.4304
  513MOL0     C67606   9.868  10.326   1.096 -0.1194  0.5769  1.1685
  513MOL0     C67607   9.768  10.291   0.987  0.5173 -0.2794 -0.2496
  513MOL0     O67608   9.752  10.147   0.951 -0.1444 -0.7159  0.0437
  513MOL0     C67609   9.682  10.108   0.838  1.2569  0.5162  0.1112
  513MOL0     C67610   9.718   9.989   0.777 -0.1670 -0.4914  0.5971
  513MOL0     C67611   9.667   9.946   0.659  0.2502 -0.7783  0.1087
  513MOL0     C67612   9.576  10.034   0.590 -0.6199 -0.6968 -0.2553
  513MOL0     C67613   9.504   9.973   0.473 -0.1301 -0.9095 -0.1346
  513MOL0     O67614   9.526   9.837   0.453 -0.4610 -0.1285 -0.0972
  513MOL0     C67615   9.473   9.771   0.344 -0.4052  0.7245 -0.3066
  513MOL0     C67616   9.364   9.700   0.374  0.0914 -0.3744  0.0912
  513MOL0     C67617   9.307   9.623   0.269  0.2765 -0.3407  0.4938
  513MOL0     C67618   9.361   9.637   0.137 -0.3937  0.6997  0.4749
  513MOL0     O67619   9.321   9.564   0.025 -0.4854 -0.3662  0.4064
  513MOL0     C67620   9.180   9.552   0.015 -0.3347  0.3508 -0.2550
  513MOL0     C67621   9.165   9.477  -0.112 -0.0182  0.2581 -0.0289
  513MOL0     C67622   9.209   9.554  -0.234 -1.7064  0.4964  0.2322
  513MOL0     C67623   9.152   9.474  -0.357 -0.7206 -0.3560 -0.6985
  513MOL0     C67624   9.198   9.508  -0.497  0.4374  0.0650  1.3342
  513MOL0     C67625   9.344   9.510  -0.524  0.2336 -0.6414  0.3321
  513MOL0     C67626   9.400   9.546  -0.662  0.8908 -0.1431 -0.5018
  513MOL0     C67627   9.396   9.430  -0.759 -0.1172 -0.4181  0.1144
  513MOL0    Cl67628   9.328   9.495  -0.910 -0.4400  0.4342  0.3190
  513MOL0     C67629   9.468   9.714   0.118 -0.3471 -0.1637 -0.1858
  513MOL0     C67630   9.535   9.780   0.219 -0.0756 -0.7907 -0.0940
  513MOL0     O67631   9.435  10.046   0.401  0.5741 -0.1921  0.3228
  513MOL0     C67632   9.550  10.164   0.634  0.1294  0.1552  0.7532
  513MOL0     C67633   9.596  10.195   0.758 -0.5821  0.7971 -0.5556
  513MOL0     N67634   9.714  10.059   1.482 -0.1637  0.1530 -0.0700
  513MOL0     N67635   9.738  10.034   1.603  0.1072 -0.7872  0.4503
  513MOL0     C67636  10.138  10.747   1.739  1.4505 -0.0807  0.3813
  513MOL0     C67637  10.232  10.805   1.649  0.8728 -0.0589  0.2368
  513MOL0     C67638  10.468  10.927   1.326 -0.4693 -0.1527  0.5147
  513MOL0     C67639  10.385  10.906   1.209  0.0008  0.7376  0.0030
  513MOL0     C67640  10.441  10.889   1.086 -0.9306 -0.3278  0.2985
  513MOL0     C67641  10.579  10.907   1.066  0.6444  0.3805 -0.3899
  513MOL0     O67642  10.645  10.880   0.951 -0.1749 -0.1843  0.6303
  513MOL0     C67643  10.586  10.852   0.823  0.6750 -0.1565 -0.1527
  513MOL0     C67644  10.515  10.709   0.808 -0.4192 -0.4400 -0.1674
  513MOL0     C67645  10.500  10.669   0.657  0.3693  0.0025 -0.0526
  513MOL0     C67646  10.416  10.541   0.623 -0.1371  0.1837 -1.1279
  513MOL0     C67647  10.395  10.512   0.482  0.4102  0.3629 -1.1784
  513MOL0     C67648  10.345  10.494   0.369  0.5139 -0.5386 -0.8094
  513MOL0     C67649  10.661  10.947   1.180 -0.5424 -0.3552  1.2187
  513MOL0     C67650  10.605  10.959   1.308 -0.5405 -0.2709  0.3538
  513MOL0     H67651  10.025  10.996   1.472  1.3269 -1.7654 -2.1457
  513MOL0     H67652   9.857  10.905   1.634 -0.4013  0.7452  0.0683
  513MOL0     H67653   9.837  10.886   1.970 -0.7559 -1.8612  3.1257
  513MOL0     H67654  10.006  10.887   1.976  0.8925 -0.3372  2.9308
  513MOL0     H67655   9.800  10.691   2.054  1.1960 -2.5290 -1.2766
  513MOL0     H67656   9.914  10.779   2.160 -4.7550  0.8377  0.3402
  513MOL0     H67657  10.011  10.580   2.178 -0.3385  1.4573  0.1729
  513MOL0     H67658  10.085  10.611   2.025 -2.2392 -0.0398 -2.9708
  513MOL0     H67659   9.863  10.417   2.087  1.7304  0.2801  1.7196
  513MOL0     H67660   9.833  10.498   1.940  1.5088  0.6413 -3.1932
  513MOL0     H67661  10.079  10.324   1.996 -1.9318 -1.0815  1.0239
  513MOL0     H67662  10.035  10.399   1.836  2.7635 -0.9756  0.5746
  513MOL0     H67663   9.835  10.262   1.821  0.1282  1.1400 -0.2260
  513MOL0     H67664   9.875  10.179   1.969 -0.9308  0.4640 -0.3003
  513MOL0     H67665  10.055  10.192   1.714 -3.5913  0.9455 -1.4156
  513MOL0     H67666  10.100  10.102   1.864  2.5153  0.9798 -1.7352
  513MOL0     H67667   9.890   9.951   1.804  0.3547 -0.8639  0.1350
  513MOL0     H67668  10.030   9.933   1.703  1.1951  1.1266  1.3733
  513MOL0     H67669  10.045  10.062   1.483 -0.6488 -1.4870  3.2074
  513MOL0     H67670   9.730  10.088   1.213 -1.1319  0.9160  0.5570
  513MOL0     H67671   9.903  10.083   1.197  0.2327  0.1300  0.6463
  513MOL0     H67672   9.880  10.331   1.305  1.7928  0.7068 -1.9229
  513MOL0     H67673   9.709  10.309   1.248 -0.6167 -2.1128 -0.3077
  513MOL0     H67674   9.873  10.435   1.106  3.1063  0.8848 -1.8721
  513MOL0     H67675   9.966  10.289   1.065  0.0522  1.5543  0.5138
  513MOL0     H67676   9.790  10.346   0.896  0.6040 -1.8247 -1.2015
  513MOL0     H67677   9.667  10.314   1.022 -0.1352 -3.4895  0.2858
  513MOL0     H67678   9.795   9.935   0.833 -0.0906 -1.6708 -0.6090
  513MOL0     H67679   9.683   9.844   0.625  5.2522 -0.0471 -0.3628
  513MOL0     H67680   9.343   9.670   0.476 -1.8412  1.8114  0.3962
  513MOL0     H67681   9.238   9.542   0.290  1.2016 -0.5713  3.0246
  513MOL0     H67682   9.132   9.650   0.013 -0.6771  0.2126  0.5970
  513MOL0     H67683   9.141   9.489   0.095 -3.4323  0.1175 -1.7878
  513MOL0     H67684   9.060   9.449  -0.120 -0.6951  2.8815 -1.4997
  513MOL0     H67685   9.221   9.383  -0.100  1.4113  0.9521 -0.9105
  513MOL0     H67686   9.317   9.538  -0.239 -1.9447 -1.1506 -0.5464
  513MOL0     H67687   9.192   9.661  -0.245 -0.8514  0.4170 -2.6715
  513MOL0     H67688   9.189   9.376  -0.328 -0.5220  0.3304  1.6106
  513MOL0     H67689   9.042   9.471  -0.357 -0.8622 -2.7335  3.2302
  513MOL0     H67690   9.145   9.598  -0.531  1.8312  0.2764 -0.4800
  513MOL0     H67691   9.163   9.427  -0.561  1.2350  0.8404 -0.1421
  513MOL0     H67692   9.392   9.416  -0.494  0.9568 -1.4231 -2.9282
  513MOL0     H67693   9.375   9.587  -0.452 -2.8543  1.1208 -0.0576
  513MOL0     H67694   9.345   9.633  -0.702  0.9933 -0.7163 -1.9696
  513MOL0     H67695   9.500   9.584  -0.639 -1.1107  3.6325  3.4042
  513MOL0     H67696   9.346   9.341  -0.717 -1.7175 -1.4972 -3.6288
  513MOL0     H67697   9.497   9.394  -0.780 -0.3840 -0.6909 -0.7593
  513MOL0     H67698   9.505   9.698   0.017  1.6292 -0.1166  0.5065
  513MOL0     H67699   9.618   9.845   0.196  0.0250  0.7255  3.7464
  513MOL0     H67700   9.501  10.243   0.579  2.1107  0.6402 -0.4244
  513MOL0     H67701   9.582  10.301   0.776 -3.1244  0.4520 -0.0248
  513MOL0     H67702  10.168  10.673   1.813  0.0375 -1.7299 -0.5979
  513MOL0     H67703  10.332  10.762   1.657 -0.2144 -2.6457  0.8338
  513MOL0     H67704  10.277  10.906   1.212 -0.0903  0.2518 -1.8430
  513MOL0     H67705  10.396  10.857   0.993  0.3134 -1.5030  0.0767
  513MOL0     H67706  10.673  10.860   0.758  0.1495  3.0038 -0.5996
  513MOL0     H67707  10.510  10.928   0.803 -0.8869 -1.2668  1.2301
  513MOL0     H67708  10.565  10.631   0.866 -0.5014 -0.6404 -0.3667
  513MOL0     H67709  10.413  10.717   0.847 -1.3998 -2.0214 -2.2530
  513MOL0     H67710  10.600  10.662   0.612 -0.2439  0.2900 -1.5212
  513MOL0     H67711  10.451  10.754   0.610 -0.6499 -0.6829 -0.2560
  513MOL0     H67712  10.460  10.449   0.662  1.0735 -0.5539 -3.9790
  513MOL0     H67713  10.321  10.549   0.678  2.2500  1.6238  3.3099
  513MOL0     H67714  10.284  10.456   0.290  1.8900 -3.0780 -0.7889
  513MOL0     H67715  10.768  10.961   1.166 -0.9120  2.7996  0.9807
  513MOL0     H67716  10.657  11.000   1.394 -2.4384  0.6902  1.1116
  514MOL0     O67717   7.712   0.211   8.914  0.7844  0.0640 -0.2346
  514MOL0     C67718   7.629   0.263   8.994 -0.4761 -0.2772 -0.2064
  514MOL0     O67719   7.496   0.273   8.975 -0.3206 -0.0356  0.4739
  514MOL0     C67720   7.454   0.240   8.845 -0.9457 -0.0128 -1.1038
  514MOL0     C67721   7.492   0.305   8.728 -0.8054  0.0564 -0.6205
  514MOL0     C67722   7.455   0.264   8.604  0.3686 -0.1974 -0.5308
  514MOL0     C67723   7.377   0.144   8.588  0.0354 -0.3359 -0.4456
  514MOL0     O67724   7.330   0.085   8.476 -0.0126 -0.4498 -0.6622
  514MOL0     C67725   7.261   0.183   8.393 -0.8398 -1.2963  1.0292
  514MOL0     C67726   7.129   0.123   8.344  1.1264 -0.9076  0.4253
  514MOL0     C67727   7.044   0.204   8.243 -0.2474  0.3963 -0.8562
  514MOL0     C67728   6.909   0.137   8.233  0.3691  0.3769  0.2385
  514MOL0     C67729   6.809   0.239   8.181 -0.1536 -0.1113  0.6243
  514MOL0     C67730   6.659   0.197   8.188 -1.0277  0.5027 -0.1834
  514MOL0     C67731   6.572   0.321   8.153 -0.0003 -0.5339  0.8362
  514MOL0     C67732   6.427   0.282   8.162  0.9405  0.4952  1.2667
  514MOL0     N67733   6.351   0.394   8.119  0.6084 -0.5131 -0.0041
  514MOL0     C67734   6.304   0.415   7.987 -0.5042 -0.1956  0.2912
  514MOL0     C67735   6.246   0.535   8.003  0.0151  0.1525  1.1950
  514MOL0     C67736   6.188   0.623   7.890 -0.4672 -0.4782 -0.5984
  514MOL0     C67737   6.044   0.577   7.842  0.5005  0.0902  1.0458
  514MOL0     C67738   6.037   0.433   7.795  0.1555 -0.1504 -0.9114
  514MOL0     C67739   6.139   0.414   7.677  0.2064 -1.7234 -0.1752
  514MOL0     O67740   6.132   0.284   7.634 -0.1505  0.5274  0.3019
  514MOL0     C67741   6.019   0.243   7.559  0.0171 -0.4001  0.1728
  514MOL0     C67742   5.915   0.326   7.513 -1.0857 -0.4645  0.4725
  514MOL0     C67743   5.799   0.274   7.464 -0.5643  0.5653 -0.2057
  514MOL0     C67744   5.783   0.137   7.448 -0.0758  0.3999  0.4886
  514MOL0     C67745   5.663   0.087   7.376  0.2149  0.2492 -0.0822
  514MOL0     O67746   5.588   0.178   7.309  0.4868 -0.8101 -0.0852
  514MOL0     C67747   5.484   0.132   7.235  1.5963  0.0595 -0.4233
  514MOL0     C67748   5.498   0.025   7.140  0.0256  0.0429  0.3423
  514MOL0     C67749   5.383  -0.018   7.078  0.5536 -0.2943  0.4187
  514MOL0     C67750   5.256   0.040   7.105 -0.3098  0.5987 -0.4161
  514MOL0     O67751   5.139  -0.013   7.039 -0.0999 -0.4627  0.0131
  514MOL0     C67752   5.089  -0.133   7.090 -0.3609  0.6468  0.0729
  514MOL0     C67753   4.974  -0.117   7.187 -0.6799 -0.6157  0.4331
  514MOL0     C67754   4.863  -0.029   7.130 -0.4682  0.0493 -0.6030
  514MOL0     C67755   4.735  -0.013   7.213 -0.0618  0.5051  0.2486
  514MOL0     C67756   4.622   0.051   7.134 -0.3490  0.6815  0.0851
  514MOL0     C67757   4.506   0.104   7.227  0.3835  0.0092 -0.1950
  514MOL0     C67758   4.369   0.114   7.142 -0.0946 -0.5049  0.0720
  514MOL0     C67759   4.254   0.169   7.225 -0.4336  0.0987  0.3075
  514MOL0    Cl67760   4.219   0.067   7.363  0.1071 -0.5020 -0.5292
  514MOL0     C67761   5.240   0.141   7.196 -0.3865 -0.2008  1.1048
  514MOL0     C67762   5.359   0.193   7.256  0.9588  0.2773 -0.4404
  514MOL0     O67763   5.635  -0.032   7.389 -0.0702 -0.0236 -0.0420
  514MOL0     C67764   5.879   0.051   7.499  0.5914  0.6542  0.3250
  514MOL0     C67765   5.993   0.100   7.558  0.7761 -0.4552  0.7092
  514MOL0     N67766   6.246   0.575   8.130  0.1175 -0.0728 -0.7741
  514MOL0     N67767   6.306   0.493   8.203  0.3685  0.0178 -0.4024
  514MOL0     C67768   7.327   0.083   8.714 -0.4111 -0.9888 -0.1408
  514MOL0     C67769   7.367   0.134   8.838 -0.3294  0.2418 -0.1605
  514MOL0     C67770   7.684   0.285   9.127  0.5714 -0.5557  0.3087
  514MOL0     C67771   7.607   0.349   9.227 -0.5805 -0.6102 -0.4845
  514MOL0     C67772   7.652   0.383   9.352 -0.4330  0.3263  0.8754
  514MOL0     C67773   7.785   0.365   9.388 -0.2775  0.2657 -1.0646
  514MOL0     O67774   7.825   0.422   9.514 -0.1551  0.0937  0.0998
  514MOL0     C67775   7.949   0.381   9.568 -0.8713  0.1535 -0.0395
  514MOL0     C67776   8.038   0.502   9.579 -0.8765 -0.1266 -0.3715
  514MOL0     C67777   8.171   0.476   9.668  0.8999 -0.4068  0.0755
  514MOL0     C67778   8.267   0.363   9.619 -0.5705  1.0661  0.5157
  514MOL0     C67779   8.380   0.416   9.543 -0.7765  0.7220  0.4289
  514MOL0     C67780   8.475   0.465   9.489 -0.3544 -0.1110 -0.4572
  514MOL0     C67781   7.867   0.304   9.296 -0.5369  0.7551 -0.1069
  514MOL0     C67782   7.826   0.271   9.163  0.1434 -0.3188  0.0774
  514MOL0     H67783   7.569   0.378   8.750  0.8895 -2.4189  2.3868
  514MOL0     H67784   7.484   0.321   8.515 -0.5035 -1.1214 -1.4363
  514MOL0     H67785   7.329   0.214   8.313 -1.2265  0.1278  1.2337
  514MOL0     H67786   7.242   0.277   8.444  3.6508  0.4700 -0.0559
  514MOL0     H67787   7.075   0.120   8.440 -0.1225  2.9842  0.0150
  514MOL0     H67788   7.146   0.019   8.314  2.2616 -0.5218 -0.2999
  514MOL0     H67789   7.100   0.183   8.151 -0.6228  0.9225 -1.2121
  514MOL0     H67790   7.030   0.309   8.270 -2.0035 -0.5214  2.3519
  514MOL0     H67791   6.906   0.050   8.166  1.2758 -0.6766  1.5070
  514MOL0     H67792   6.867   0.090   8.323 -1.4093  0.3535 -0.5789
  514MOL0     H67793   6.831   0.247   8.074 -2.3527 -0.4467  0.0944
  514MOL0     H67794   6.830   0.339   8.219  2.0963  0.6080 -2.1579
  514MOL0     H67795   6.626   0.159   8.285  0.2862  1.1184  0.5469
  514MOL0     H67796   6.647   0.125   8.107 -2.1904  1.8195 -1.2306
  514MOL0     H67797   6.590   0.394   8.232  0.0366  0.0140  0.3234
  514MOL0     H67798   6.593   0.378   8.062  0.6622 -4.9256 -2.0949
  514MOL0     H67799   6.406   0.260   8.268 -1.7622 -2.0024  0.3554
  514MOL0     H67800   6.413   0.193   8.100  2.4782 -1.1741  3.1769
  514MOL0     H67801   6.323   0.357   7.897 -1.2659 -1.5273  0.9615
  514MOL0     H67802   6.256   0.645   7.808  1.3041  2.7950  1.5192
  514MOL0     H67803   6.179   0.720   7.940  0.3585 -0.7048  0.0203
  514MOL0     H67804   5.996   0.640   7.766 -0.2344 -0.5915  0.9300
  514MOL0     H67805   5.971   0.570   7.923  1.2555  1.3492  1.8719
  514MOL0     H67806   6.064   0.358   7.870  0.4391  1.4234  0.6271
  514MOL0     H67807   5.938   0.405   7.759  0.0256  0.6689 -1.2093
  514MOL0     H67808   6.245   0.429   7.698  0.2475 -0.8499 -0.9076
  514MOL0     H67809   6.112   0.484   7.597  1.1728 -0.3950  0.6102
  514MOL0     H67810   5.938   0.432   7.512  1.3724 -0.9426  0.1680
  514MOL0     H67811   5.722   0.350   7.447 -1.2108  0.1889  0.9414
  514MOL0     H67812   5.592  -0.026   7.121  0.4778  1.1000 -0.3553
  514MOL0     H67813   5.374  -0.114   7.027  1.7937  0.2011 -0.7926
  514MOL0     H67814   5.170  -0.197   7.127  1.6991  1.0050 -3.3596
  514MOL0     H67815   5.045  -0.183   7.002 -1.1851 -0.2807  0.9819
  514MOL0     H67816   5.013  -0.080   7.283 -2.7734  2.4219  0.2754
  514MOL0     H67817   4.914  -0.205   7.208 -2.0061  0.2370  0.3616
  514MOL0     H67818   4.841  -0.067   7.030 -2.8283 -3.3732  1.0222
  514MOL0     H67819   4.915   0.066   7.112  0.8836 -0.8321 -1.5285
  514MOL0     H67820   4.717  -0.117   7.244  2.0040 -0.6166 -1.9942
  514MOL0     H67821   4.766   0.044   7.301  5.4632  0.4879 -1.3123
  514MOL0     H67822   4.593  -0.033   7.070  1.1425 -1.3168  1.9015
  514MOL0     H67823   4.650   0.136   7.071 -2.4920  1.9472  0.7099
  514MOL0     H67824   4.542   0.200   7.265  1.5831 -0.3071 -0.4612
  514MOL0     H67825   4.486   0.043   7.316 -1.5217 -2.7909 -2.3533
  514MOL0     H67826   4.396   0.180   7.059  2.0266 -2.5897 -1.0049
  514MOL0     H67827   4.347   0.016   7.101  0.7904 -0.0643 -1.5278
  514MOL0     H67828   4.165   0.181   7.163 -0.3604 -1.5764 -0.1900
  514MOL0     H67829   4.282   0.271   7.252  0.4608 -0.3025  0.9722
  514MOL0     H67830   5.140   0.181   7.207 -0.3120 -0.5568  3.6509
  514MOL0     H67831   5.354   0.277   7.324  3.0382 -0.0195  0.1555
  514MOL0     H67832   5.861  -0.056   7.500 -2.1512  1.0400  0.9386
  514MOL0     H67833   6.057   0.023   7.600  0.3224 -1.2892 -0.0966
  514MOL0     H67834   7.259  -0.001   8.704  1.5253 -2.3257 -3.5450
  514MOL0     H67835   7.338   0.095   8.935  2.5343  1.7626  1.4585
  514MOL0     H67836   7.504   0.368   9.197 -1.1733 -3.3423 -0.4709
  514MOL0     H67837   7.585   0.439   9.416 -0.6166  0.5472  0.4941
  514MOL0     H67838   7.996   0.293   9.524  1.2974  1.8617 -1.4129
  514MOL0     H67839   7.931   0.346   9.669  1.0360  1.5116  0.8484
  514MOL0     H67840   8.071   0.548   9.485  1.1883 -0.3621  0.1914
  514MOL0     H67841   7.973   0.575   9.628  0.5036 -0.9133  2.8456
  514MOL0     H67842   8.126   0.460   9.766  2.2592 -2.0054  0.4939
  514MOL0     H67843   8.244   0.557   9.678  1.0290 -0.7200  1.9990
  514MOL0     H67844   8.332   0.326   9.699  3.2073  2.5924 -1.5473
  514MOL0     H67845   8.213   0.289   9.560 -0.5804  0.1738  1.6083
  514MOL0     H67846   8.569   0.493   9.446 -0.3125 -3.2071 -2.7712
  514MOL0     H67847   7.970   0.290   9.325 -1.5747 -0.4998  3.5898
  514MOL0     H67848   7.898   0.231   9.092 -1.5572 -1.1794 -1.2166
  515MOL0     O67849   0.102   0.101   4.289  0.5356 -0.3222  1.0398
  515MOL0     C67850   0.120   0.099   4.406  0.0257 -0.7519 -0.5426
  515MOL0     O67851   0.071   0.191   4.496 -0.3870 -0.3215  0.9038
  515MOL0     C67852   0.032   0.315   4.446  0.6525 -0.3419 -1.1290
  515MOL0     C67853  -0.012   0.405   4.545 -0.3309  0.0227  0.4320
  515MOL0     C67854  -0.045   0.535   4.522 -0.5177 -0.1159  0.2002
  515MOL0     C67855  -0.044   0.587   4.390  0.2550 -0.0847  0.2096
  515MOL0     O67856  -0.078   0.717   4.367 -0.0043 -0.7651 -0.8009
  515MOL0     C67857  -0.013   0.804   4.266  0.3438 -0.3426 -0.0510
  515MOL0     C67858  -0.087   0.951   4.237  0.1668  0.3551  0.4378
  515MOL0     C67859  -0.116   1.022   4.362  0.0617  0.6601  0.0655
  515MOL0     C67860  -0.197   1.150   4.346  0.2475 -0.2781 -0.4970
  515MOL0     C67861  -0.244   1.199   4.488 -0.9371 -0.5694 -0.6080
  515MOL0     C67862  -0.385   1.256   4.490 -0.3950  0.4548  0.1520
  515MOL0     C67863  -0.423   1.264   4.630 -0.3848  0.5981  0.4456
  515MOL0     C67864  -0.572   1.284   4.638  0.9407  0.3970 -0.9427
  515MOL0     N67865  -0.628   1.270   4.781  0.4067 -0.6432 -0.3537
  515MOL0     C67866  -0.638   1.374   4.876  0.1726  0.5700 -0.1004
  515MOL0     C67867  -0.718   1.318   4.972  0.5633  0.0631 -0.1853
  515MOL0     C67868  -0.777   1.377   5.096 -0.2108  0.1368  0.2612
  515MOL0     C67869  -0.749   1.298   5.222 -0.1933  0.3801  0.7862
  515MOL0     C67870  -0.599   1.274   5.252  0.4610  0.2803  0.9314
  515MOL0     C67871  -0.587   1.217   5.394  0.4667 -0.1942 -0.2107
  515MOL0     O67872  -0.637   1.302   5.496  0.2800 -0.0024  0.4493
  515MOL0     C67873  -0.655   1.252   5.623 -0.8496  0.2923  0.6500
  515MOL0     C67874  -0.606   1.119   5.659  0.0684  0.2969  0.5616
  515MOL0     C67875  -0.613   1.087   5.794  0.5578 -0.2794  0.7733
  515MOL0     C67876  -0.674   1.175   5.889  0.2129  0.0407 -0.8060
  515MOL0     C67877  -0.695   1.127   6.033  0.7432  0.6696  0.5550
  515MOL0     O67878  -0.697   1.222   6.128 -0.6486 -0.7504 -0.0925
  515MOL0     C67879  -0.739   1.206   6.261 -1.0969  0.5863 -0.0143
  515MOL0     C67880  -0.687   1.297   6.349 -0.3264 -0.0209 -0.5224
  515MOL0     C67881  -0.706   1.282   6.488  0.0880 -0.7592  0.9195
  515MOL0     C67882  -0.783   1.185   6.544  1.0731 -0.2242  0.6310
  515MOL0     O67883  -0.797   1.175   6.682  0.3849  0.1190 -0.3984
  515MOL0     C67884  -0.713   1.084   6.747  0.2628 -0.1145 -0.2554
  515MOL0     C67885  -0.752   1.072   6.900 -0.4327 -0.0352 -1.1063
  515MOL0     C67886  -0.727   1.212   6.973  0.7196  0.5400 -0.0722
  515MOL0     C67887  -0.661   1.199   7.116 -0.2773  0.4047  0.6735
  515MOL0     C67888  -0.618   1.331   7.192  1.0507 -0.1188 -0.2172
  515MOL0     C67889  -0.735   1.438   7.190 -0.6020  0.4525  0.8614
  515MOL0     C67890  -0.698   1.568   7.265  0.8539  0.8892 -0.6135
  515MOL0     C67891  -0.553   1.626   7.262  0.3074  0.2751  0.0086
  515MOL0    Cl67892  -0.501   1.724   7.399  0.3368 -0.1173  0.3530
  515MOL0     C67893  -0.842   1.094   6.456  0.5362 -0.4246  0.8892
  515MOL0     C67894  -0.808   1.098   6.322 -0.2094  0.4654  0.3581
  515MOL0     O67895  -0.698   1.003   6.044  0.6966 -0.1708  0.0540
  515MOL0     C67896  -0.723   1.299   5.852  0.7222  0.4384 -0.3916
  515MOL0     C67897  -0.710   1.339   5.718 -0.1998  0.1933 -0.0019
  515MOL0     N67898  -0.755   1.194   4.936  0.5829 -0.0427  0.0547
  515MOL0     N67899  -0.707   1.168   4.819 -0.2843  0.4107 -0.6687
  515MOL0     C67900   0.025   0.503   4.292  0.1614  0.3915 -0.0617
  515MOL0     C67901   0.066   0.375   4.325  0.9047 -1.0004  0.6597
  515MOL0     C67902   0.196  -0.024   4.441  0.3320 -0.0789  0.4478
  515MOL0     C67903   0.262  -0.109   4.347  0.0663 -0.0197 -0.7350
  515MOL0     C67904   0.338  -0.212   4.397 -0.0587 -0.4247  1.1974
  515MOL0     C67905   0.348  -0.240   4.528  0.1782  0.0037  0.4866
  515MOL0     O67906   0.413  -0.355   4.561  0.3710 -0.5075 -0.0630
  515MOL0     C67907   0.377  -0.422   4.688  0.1214 -0.6015 -0.1840
  515MOL0     C67908   0.437  -0.553   4.711 -0.0880  0.7589  0.6466
  515MOL0     C67909   0.414  -0.604   4.851  0.6880  0.6919  0.9795
  515MOL0     C67910   0.504  -0.546   4.950  0.2669 -0.5748  0.2722
  515MOL0     C67911   0.491  -0.623   5.075 -0.4478  0.1615  1.1998
  515MOL0     C67912   0.477  -0.688   5.174  0.8136  0.4049 -0.0805
  515MOL0     C67913   0.289  -0.156   4.625 -0.6567 -0.6635  0.1458
  515MOL0     C67914   0.217  -0.051   4.576 -0.0900 -1.0354 -0.4245
  515MOL0     H67915  -0.019   0.366   4.646 -0.5048 -1.3476 -0.0841
  515MOL0     H67916  -0.075   0.607   4.598 -1.5033  0.5021 -0.7547
  515MOL0     H67917  -0.018   0.758   4.167 -1.6827 -3.2018  1.2376
  515MOL0     H67918   0.089   0.829   4.299  0.1768 -0.5566  0.6358
  515MOL0     H67919  -0.185   0.912   4.208  0.0201 -1.4339  3.0126
  515MOL0     H67920  -0.043   1.014   4.159 -1.0229  2.4511  1.3843
  515MOL0     H67921  -0.023   1.049   4.412 -0.9264  4.5017  0.1408
  515MOL0     H67922  -0.183   0.959   4.421 -3.1454  2.5174 -1.3201
  515MOL0     H67923  -0.140   1.231   4.298 -5.2035  2.4742 -3.3133
  515MOL0     H67924  -0.291   1.129   4.294 -1.8557  0.9306  2.5282
  515MOL0     H67925  -0.169   1.270   4.524 -1.0118 -2.1600  3.1539
  515MOL0     H67926  -0.252   1.112   4.554 -1.1432  0.9884  1.5199
  515MOL0     H67927  -0.453   1.185   4.442  0.8344  0.0648 -1.0690
  515MOL0     H67928  -0.386   1.358   4.451  3.5791  1.7942  2.9192
  515MOL0     H67929  -0.408   1.171   4.685 -0.9551  1.1337  1.5482
  515MOL0     H67930  -0.381   1.346   4.690 -0.2735  1.3796 -0.6630
  515MOL0     H67931  -0.631   1.211   4.582 -1.7838 -0.7292  2.9556
  515MOL0     H67932  -0.589   1.390   4.614 -0.0890  0.1851 -1.2174
  515MOL0     H67933  -0.598   1.475   4.878  1.7514 -0.0405  0.3804
  515MOL0     H67934  -0.883   1.396   5.077 -0.0001  2.6100  1.1364
  515MOL0     H67935  -0.738   1.478   5.113  0.3709 -0.1919  0.9536
  515MOL0     H67936  -0.796   1.201   5.203 -0.2302 -0.1880  3.3978
  515MOL0     H67937  -0.801   1.343   5.307  2.7646 -1.0368  3.5598
  515MOL0     H67938  -0.555   1.198   5.186 -0.7557  2.4488 -2.6290
  515MOL0     H67939  -0.542   1.366   5.234  1.2525 -0.2965  0.4132
  515MOL0     H67940  -0.480   1.206   5.414 -0.0375 -0.3817  3.0037
  515MOL0     H67941  -0.632   1.118   5.386  1.3274 -1.0256  3.2330
  515MOL0     H67942  -0.562   1.041   5.597 -2.6290 -0.4036 -0.6144
  515MOL0     H67943  -0.586   0.988   5.830  2.9498  0.6259  1.6761
  515MOL0     H67944  -0.630   1.379   6.308  3.7887 -3.6736 -2.9586
  515MOL0     H67945  -0.663   1.359   6.551  0.9159 -0.7630  0.3685
  515MOL0     H67946  -0.608   1.103   6.727  0.0577  1.2425 -0.1349
  515MOL0     H67947  -0.736   0.983   6.713  1.3465 -0.7147  0.7470
  515MOL0     H67948  -0.687   0.997   6.945 -2.7172 -2.3319 -1.3916
  515MOL0     H67949  -0.858   1.049   6.913 -1.1642  2.9527 -0.9196
  515MOL0     H67950  -0.823   1.264   6.985  0.7718  0.9169 -1.1783
  515MOL0     H67951  -0.674   1.283   6.909  2.9539 -2.9429 -2.3843
  515MOL0     H67952  -0.727   1.136   7.176  1.4705 -2.5735 -0.3315
  515MOL0     H67953  -0.576   1.133   7.097 -0.8713 -0.5690  1.3472
  515MOL0     H67954  -0.532   1.368   7.136 -0.5217  1.8609 -1.4879
  515MOL0     H67955  -0.582   1.303   7.291 -1.7405  0.0211  0.9270
  515MOL0     H67956  -0.825   1.389   7.226 -1.6017 -1.4961 -3.5458
  515MOL0     H67957  -0.751   1.451   7.082 -0.0949 -1.4690  0.5125
  515MOL0     H67958  -0.766   1.646   7.232 -0.9123 -0.4534 -0.3001
  515MOL0     H67959  -0.723   1.540   7.368 -0.1997  1.3424 -0.7400
  515MOL0     H67960  -0.532   1.683   7.171  0.5823 -1.4881 -1.0866
  515MOL0     H67961  -0.485   1.540   7.261  2.0291  1.5821  0.2306
  515MOL0     H67962  -0.907   1.017   6.496 -1.3245 -1.1179 -2.9970
  515MOL0     H67963  -0.850   1.031   6.248  0.2604  0.6811 -0.1140
  515MOL0     H67964  -0.771   1.355   5.932  1.7632 -1.2341  1.5266
  515MOL0     H67965  -0.733   1.440   5.686 -0.9297 -0.3509 -1.2620
  515MOL0     H67966   0.049   0.537   4.192  1.0773 -1.0407 -0.3661
  515MOL0     H67967   0.104   0.320   4.239 -2.4548 -2.1531 -0.2730
  515MOL0     H67968   0.264  -0.099   4.239  2.9552  2.2507 -0.5974
  515MOL0     H67969   0.392  -0.272   4.323 -2.2382 -2.9451  1.4994
  515MOL0     H67970   0.268  -0.431   4.689  0.2592 -3.5385 -1.3465
  515MOL0     H67971   0.434  -0.370   4.766 -0.6404 -0.2115  0.1273
  515MOL0     H67972   0.406  -0.622   4.632  0.0654 -0.7629  1.8746
  515MOL0     H67973   0.545  -0.547   4.694 -0.2805  0.2587 -0.9258
  515MOL0     H67974   0.434  -0.711   4.843 -1.0619  0.2455  2.0609
  515MOL0     H67975   0.308  -0.593   4.876  0.5352 -1.1158  1.2534
  515MOL0     H67976   0.609  -0.558   4.922  0.4988 -0.9426  1.2606
  515MOL0     H67977   0.480  -0.439   4.943 -0.6285 -0.7699  0.2666
  515MOL0     H67978   0.469  -0.752   5.259 -0.3497  0.1384 -0.3719
  515MOL0     H67979   0.306  -0.172   4.731 -0.8285 -0.5865  0.1858
  515MOL0     H67980   0.177   0.024   4.643 -2.7031 -1.4238 -1.4230
  516MOL0     O67981   2.422   5.374  10.833  0.1254  0.3444  0.0146
  516MOL0     C67982   2.468   5.365  10.718 -0.5813 -1.2464  0.2695
  516MOL0     O67983   2.555   5.457  10.661  0.3871 -0.1841 -0.1927
  516MOL0     C67984   2.580   5.580  10.715 -0.6670 -0.1439 -0.4438
  516MOL0     C67985   2.691   5.643  10.651 -0.1052  0.2086  0.6983
  516MOL0     C67986   2.731   5.781  10.676 -0.2323 -0.5272 -0.4384
  516MOL0     C67987   2.658   5.855  10.770 -0.0618  0.7182  0.5435
  516MOL0     O67988   2.697   5.978  10.804 -0.2322 -1.1420 -0.4990
  516MOL0     C67989   2.736   6.062  10.705  0.8274 -0.8723 -0.4583
  516MOL0     C67990   2.769   6.199  10.770  0.0508  0.2356  0.4065
  516MOL0     C67991   2.667   6.312  10.774 -0.6724 -0.1412  0.0593
  516MOL0     C67992   2.703   6.429  10.863 -0.2932  0.2219 -0.5727
  516MOL0     C67993   2.592   6.529  10.870 -1.2521 -0.0910  0.5789
  516MOL0     C67994   2.644   6.649  10.952 -0.0570  0.3170 -0.1989
  516MOL0     C67995   2.537   6.749  10.963 -0.0072 -0.6715 -0.5022
  516MOL0     C67996   2.560   6.858  11.075 -0.8214  0.0490  0.2301
  516MOL0     N67997   2.694   6.912  11.073 -0.3376 -0.9075 -0.4504
  516MOL0     C67998   2.764   6.978  10.975  0.2913  0.6901 -0.4044
  516MOL0     C67999   2.892   6.976  11.020  0.2549  0.1930 -0.0005
  516MOL0     C68000   3.009   7.024  10.927  0.5970  0.3048  0.4647
  516MOL0     C68001   3.060   6.908  10.847  0.1575 -0.2463  0.8371
  516MOL0     C68002   2.978   6.879  10.716 -0.0498 -0.1832 -0.8338
  516MOL0     C68003   3.053   6.802  10.613  0.3992  0.7005  1.6374
  516MOL0     O68004   3.091   6.674  10.676  0.3002 -0.5344  0.4542
  516MOL0     C68005   3.122   6.568  10.607 -0.3615 -0.5610 -0.0570
  516MOL0     C68006   3.145   6.577  10.474  0.3730 -0.9723  0.4788
  516MOL0     C68007   3.155   6.466  10.391  0.0453  0.1124  0.1099
  516MOL0     C68008   3.139   6.342  10.442  0.0835 -0.0976 -0.3270
  516MOL0     C68009   3.105   6.219  10.359 -0.2940  0.5027  0.2904
  516MOL0     O68010   3.063   6.104  10.429 -0.6703 -0.3276  0.1777
  516MOL0     C68011   3.044   5.991  10.370 -0.1185 -0.4765 -0.0639
  516MOL0     C68012   3.160   5.920  10.336 -0.2493  0.0901 -0.3620
  516MOL0     C68013   3.144   5.788  10.295 -1.0228 -0.9510  0.2912
  516MOL0     C68014   3.020   5.725  10.283 -0.8553 -0.4886 -0.2062
  516MOL0     O68015   3.002   5.588  10.241 -0.9569 -0.9222  0.4441
  516MOL0     C68016   3.100   5.493  10.289 -0.5770 -0.5311 -0.4052
  516MOL0     C68017   3.086   5.370  10.204  0.0614  0.3302  0.8127
  516MOL0     C68018   2.981   5.268  10.236 -0.0313 -1.6858 -0.1198
  516MOL0     C68019   2.995   5.159  10.133  0.5502 -0.6396  0.1588
  516MOL0     C68020   2.886   5.047  10.156  0.3467  0.4859  0.6844
  516MOL0     C68021   2.749   5.096  10.116 -0.4645 -0.7776 -0.9778
  516MOL0     C68022   2.624   5.001  10.122  0.5295 -0.0728 -0.5283
  516MOL0     C68023   2.506   5.082  10.063  0.7064 -0.4624 -0.1973
  516MOL0    Cl68024   2.380   4.960  10.042  0.3554  0.1549  0.0648
  516MOL0     C68025   2.911   5.799  10.315  0.1753 -0.0697  0.4009
  516MOL0     C68026   2.921   5.928  10.373  0.3232 -0.6338  0.2989
  516MOL0     O68027   3.122   6.218  10.235  0.5119  0.3085  0.6716
  516MOL0     C68028   3.122   6.337  10.577  0.0527 -0.9432 -0.2117
  516MOL0     C68029   3.107   6.444  10.665 -0.4425 -1.0803 -0.3333
  516MOL0     N68030   2.906   6.903  11.144 -0.7746 -0.5578  0.3959
  516MOL0     N68031   2.784   6.877  11.172 -0.2634 -0.3820  0.2842
  516MOL0     C68032   2.538   5.798  10.828 -0.2149 -0.1331 -0.3331
  516MOL0     C68033   2.505   5.665  10.795  0.5852 -0.5435 -0.1931
  516MOL0     C68034   2.426   5.245  10.644  0.4753 -0.2731  0.3347
  516MOL0     C68035   2.357   5.138  10.706 -0.5008  0.6778 -0.8457
  516MOL0     C68036   2.313   5.035  10.640 -0.1126  0.3043  0.0422
  516MOL0     C68037   2.346   5.017  10.504 -0.4283  0.7165 -0.1076
  516MOL0     O68038   2.317   4.901  10.439 -0.9219 -0.6645  0.1853
  516MOL0     C68039   2.353   4.775  10.499 -0.3838  0.3231  0.1886
  516MOL0     C68040   2.472   4.700  10.435  0.2513  1.1056 -0.2441
  516MOL0     C68041   2.446   4.676  10.288 -0.0204  0.0031 -0.4062
  516MOL0     C68042   2.555   4.585  10.232 -0.5895  0.9239 -1.8142
  516MOL0     C68043   2.688   4.655  10.216  0.2984 -0.1202 -0.1508
  516MOL0     C68044   2.804   4.703  10.215  0.2505  0.8942  0.6502
  516MOL0     C68045   2.417   5.117  10.438  0.6464  0.8674 -0.0730
  516MOL0     C68046   2.466   5.226  10.509  0.8470 -0.8086  0.6351
  516MOL0     H68047   2.749   5.595  10.574  1.1356  1.1676  1.0017
  516MOL0     H68048   2.822   5.824  10.635 -0.6732  1.1920  0.3088
  516MOL0     H68049   2.660   6.069  10.627  0.3406 -1.3573 -0.0367
  516MOL0     H68050   2.818   6.021  10.645  1.6745  0.0988  0.0008
  516MOL0     H68051   2.871   6.229  10.744  1.2234  0.5244  4.5286
  516MOL0     H68052   2.783   6.167  10.874 -2.9570 -2.6374  0.0789
  516MOL0     H68053   2.573   6.272  10.814 -0.8414  0.9981  0.8503
  516MOL0     H68054   2.655   6.358  10.675 -0.0688 -0.3293 -0.1027
  516MOL0     H68055   2.729   6.381  10.958 -2.4749 -0.0595 -0.0489
  516MOL0     H68056   2.794   6.475  10.825  0.4005 -0.9978 -0.4535
  516MOL0     H68057   2.506   6.478  10.914 -0.9287 -1.3433 -0.1823
  516MOL0     H68058   2.559   6.551  10.767 -0.0302  0.8787  0.3799
  516MOL0     H68059   2.736   6.688  10.908  0.8643  1.6069  2.5930
  516MOL0     H68060   2.656   6.595  11.047  1.6138 -0.9939 -1.0973
  516MOL0     H68061   2.526   6.801  10.867  0.1157  0.2812 -0.0088
  516MOL0     H68062   2.437   6.716  10.992 -0.1793  0.0661 -0.2256
  516MOL0     H68063   2.539   6.822  11.176 -0.0351 -1.0027  0.0469
  516MOL0     H68064   2.498   6.944  11.047 -0.4017 -0.4571 -2.6227
  516MOL0     H68065   2.746   7.017  10.875  0.8060 -0.6764 -1.0719
  516MOL0     H68066   3.083   7.063  10.997  0.4182  1.1707  0.1877
  516MOL0     H68067   2.989   7.116  10.872  0.4944  0.1278  0.2028
  516MOL0     H68068   3.083   6.816  10.902 -0.5170 -0.9470 -0.0057
  516MOL0     H68069   3.160   6.928  10.809  0.4572 -3.0159 -0.1010
  516MOL0     H68070   2.895   6.815  10.748 -2.4530  2.3612 -1.5821
  516MOL0     H68071   2.942   6.972  10.672  1.2251  1.7661  1.9245
  516MOL0     H68072   3.146   6.849  10.582 -0.0814  3.0690  3.4721
  516MOL0     H68073   2.987   6.783  10.528 -1.1064  1.0552  2.6706
  516MOL0     H68074   3.151   6.673  10.425 -1.9114 -0.4794  1.0276
  516MOL0     H68075   3.148   6.472  10.283  0.2251 -4.0881 -0.2801
  516MOL0     H68076   3.258   5.959  10.360 -0.1769  0.1345 -0.7218
  516MOL0     H68077   3.240   5.739  10.282  0.7225  2.5264 -1.5514
  516MOL0     H68078   3.088   5.465  10.394  0.6334  1.2011  0.2318
  516MOL0     H68079   3.204   5.525  10.275 -1.2176  0.9020 -2.3308
  516MOL0     H68080   3.179   5.315  10.220  0.8016  1.8683  2.1712
  516MOL0     H68081   3.083   5.399  10.099  1.4903  1.3094  1.0141
  516MOL0     H68082   2.884   5.319  10.233  0.4676  0.2739  5.5537
  516MOL0     H68083   2.979   5.230  10.339  2.1933 -1.4158  0.0710
  516MOL0     H68084   3.005   5.189  10.028 -0.5674 -2.8176 -0.6337
  516MOL0     H68085   3.094   5.114  10.148  1.5887  1.7338  0.8266
  516MOL0     H68086   2.888   5.016  10.261 -1.5943  1.7411  1.1485
  516MOL0     H68087   2.918   4.963  10.093 -0.5761  0.9989 -0.5244
  516MOL0     H68088   2.759   5.135  10.014 -0.0874  2.2579  0.1129
  516MOL0     H68089   2.721   5.176  10.185 -4.9853 -1.5434 -1.6496
  516MOL0     H68090   2.648   4.908  10.070 -0.1890  0.2751 -1.5162
  516MOL0     H68091   2.608   4.974  10.226 -1.2403 -0.9635 -1.0058
  516MOL0     H68092   2.537   5.122   9.966 -1.5479  1.4854 -0.2026
  516MOL0     H68093   2.470   5.158  10.132  1.5411  0.4779 -0.7798
  516MOL0     H68094   2.810   5.760  10.312 -0.4078  1.2602  1.7817
  516MOL0     H68095   2.833   5.978  10.411 -0.5567 -0.0973 -2.2065
  516MOL0     H68096   3.130   6.239  10.623  2.4519  0.6099  3.1737
  516MOL0     H68097   3.086   6.446  10.771 -0.2292 -0.7480 -0.2926
  516MOL0     H68098   2.481   5.846  10.907  0.8152 -1.1954  1.1098
  516MOL0     H68099   2.418   5.620  10.842  0.9330  0.8194  1.9011
  516MOL0     H68100   2.332   5.138  10.811  1.6257 -0.1104 -0.3043
  516MOL0     H68101   2.262   4.952  10.688  2.1840 -1.0120  0.3733
  516MOL0     H68102   2.272   4.702  10.506  1.0461 -1.5534 -1.5297
  516MOL0     H68103   2.384   4.790  10.603 -1.6550  0.0382  0.6207
  516MOL0     H68104   2.557   4.768  10.436  1.1737 -0.0209  0.0175
  516MOL0     H68105   2.505   4.613  10.492  2.6088  2.3235  0.3716
  516MOL0     H68106   2.447   4.762  10.221  1.8316 -2.3123 -3.6360
  516MOL0     H68107   2.352   4.621  10.272 -1.6982  1.5399  2.9972
  516MOL0     H68108   2.583   4.512  10.309 -0.2386  2.9073  0.0212
  516MOL0     H68109   2.519   4.524  10.149  1.2382 -2.0838 -0.5681
  516MOL0     H68110   2.891   4.765  10.218  1.1679 -0.3055 -0.0675
  516MOL0     H68111   2.442   5.118  10.332  3.0579 -0.3119  0.4259
  516MOL0     H68112   2.517   5.307  10.459 -0.4841 -0.4106 -0.1263
  517MOL0     O68113   8.679   4.665   6.925  0.0644 -0.1969 -0.3934
  517MOL0     C68114   8.586   4.721   6.990 -0.2487  0.5977  0.8303
  517MOL0     O68115   8.563   4.711   7.123 -0.4646  0.2075 -0.0883
  517MOL0     C68116   8.660   4.666   7.210 -0.0114 -0.2582 -0.4787
  517MOL0     C68117   8.635   4.713   7.338  1.0081 -0.8484  0.3878
  517MOL0     C68118   8.693   4.681   7.455  0.1923  1.1431 -0.5079
  517MOL0     C68119   8.803   4.589   7.446 -0.7216  0.2632  0.2880
  517MOL0     O68120   8.876   4.569   7.565  0.3263  0.4736 -0.2059
  517MOL0     C68121   9.003   4.627   7.565 -0.9677  0.9645 -0.3660
  517MOL0     C68122   9.113   4.525   7.601 -0.0693  0.6476 -0.5402
  517MOL0     C68123   9.113   4.499   7.749  0.1484  0.0107 -0.3609
  517MOL0     C68124   9.248   4.457   7.803  0.0013 -0.2829  0.6596
  517MOL0     C68125   9.264   4.452   7.960 -0.5639 -0.1494  0.4437
  517MOL0     C68126   9.304   4.585   8.012  0.4269 -0.4936 -1.2190
  517MOL0     C68127   9.453   4.617   8.002 -0.1845  0.4145 -0.0336
  517MOL0     C68128   9.547   4.507   8.055 -0.2974  0.3464  0.3369
  517MOL0     N68129   9.685   4.546   8.043 -0.3426  0.0987 -0.4769
  517MOL0     C68130   9.758   4.563   7.932  0.0207 -0.2043  0.4734
  517MOL0     C68131   9.883   4.598   7.974  0.4949 -0.9088 -0.5844
  517MOL0     C68132  10.009   4.593   7.897  0.5338  0.6729  0.3457
  517MOL0     C68133  10.020   4.673   7.773 -0.0163 -0.1252 -0.4422
  517MOL0     C68134  10.157   4.634   7.699  0.4386  0.1684  0.3784
  517MOL0     C68135  10.146   4.682   7.556  0.5087 -0.5388 -0.0620
  517MOL0     O68136  10.062   4.586   7.493  0.2509 -0.3213 -0.0441
  517MOL0     C68137   9.968   4.629   7.402 -0.2802 -0.1755 -1.0483
  517MOL0     C68138   9.860   4.725   7.420 -0.3580  0.7840 -0.3409
  517MOL0     C68139   9.766   4.752   7.320 -0.0480 -0.4941  0.4949
  517MOL0     C68140   9.776   4.690   7.199 -0.5735 -0.1573  0.8672
  517MOL0     C68141   9.681   4.708   7.091  0.4859  0.0650 -0.2649
  517MOL0     O68142   9.712   4.643   6.969  0.6646  0.1840  0.0618
  517MOL0     C68143   9.627   4.645   6.857 -0.4748 -0.2046  0.0311
  517MOL0     C68144   9.490   4.616   6.864  0.6823  0.0409  0.1528
  517MOL0     C68145   9.410   4.624   6.745 -0.5374  1.1618 -0.1796
  517MOL0     C68146   9.478   4.632   6.620  0.2582  1.0104 -0.7127
  517MOL0     O68147   9.400   4.642   6.509 -0.4137 -0.1472  0.7393
  517MOL0     C68148   9.371   4.770   6.459  0.1855  0.4885 -0.0362
  517MOL0     C68149   9.324   4.883   6.549  0.4689  0.3180  0.1616
  517MOL0     C68150   9.438   4.974   6.611  0.0568  0.3571 -0.2744
  517MOL0     C68151   9.396   5.033   6.748 -0.3750  0.3231  0.6837
  517MOL0     C68152   9.454   5.174   6.775 -1.2745 -0.8544  0.5295
  517MOL0     C68153   9.466   5.221   6.922 -0.1814  0.8688 -1.1224
  517MOL0     C68154   9.564   5.131   7.001  0.3668  0.4288  0.1519
  517MOL0     C68155   9.589   5.204   7.140 -0.7007  0.2719  0.9275
  517MOL0    Cl68156   9.669   5.093   7.258  0.0212 -0.1343  0.4586
  517MOL0     C68157   9.617   4.640   6.611  0.5161  0.2740 -0.0096
  517MOL0     C68158   9.690   4.650   6.732  0.4151 -0.7320 -0.0149
  517MOL0     O68159   9.581   4.782   7.114 -0.4786  0.2152 -0.6407
  517MOL0     C68160   9.882   4.594   7.185 -0.1830 -0.4158  0.3344
  517MOL0     C68161   9.979   4.574   7.280  0.1737  0.3177 -0.1933
  517MOL0     N68162   9.875   4.604   8.115 -0.1353  0.6412 -0.0625
  517MOL0     N68163   9.755   4.573   8.152  0.1720  0.0668  0.4662
  517MOL0     C68164   8.824   4.526   7.322 -0.6035 -0.1679 -0.1594
  517MOL0     C68165   8.759   4.566   7.203  0.3667  0.5299 -0.3048
  517MOL0     C68166   8.476   4.783   6.914 -0.6053 -0.1243 -0.0130
  517MOL0     C68167   8.497   4.823   6.782 -0.2357  0.0289  0.3530
  517MOL0     C68168   8.395   4.901   6.711 -1.0447 -0.0340 -0.1678
  517MOL0     C68169   8.276   4.933   6.773 -0.3280 -0.1930 -0.8882
  517MOL0     O68170   8.184   5.008   6.702  0.4210 -0.6876 -0.7637
  517MOL0     C68171   8.058   5.054   6.771  0.4346 -1.3128  0.1084
  517MOL0     C68172   7.970   5.129   6.672  2.0543  0.8528 -0.5575
  517MOL0     C68173   7.929   5.043   6.546  0.9909 -0.2157 -0.1841
  517MOL0     C68174   7.821   5.106   6.461  0.3109 -0.3713  0.2135
  517MOL0     C68175   7.776   5.005   6.367  0.0715  0.2743  0.8666
  517MOL0     C68176   7.737   4.924   6.279  0.8913 -0.5372  0.0781
  517MOL0     C68177   8.259   4.894   6.909 -0.0402  0.6617  0.1790
  517MOL0     C68178   8.359   4.828   6.978 -0.7154 -0.4713 -0.4489
  517MOL0     H68179   8.554   4.782   7.361  0.5799 -2.3295  3.8835
  517MOL0     H68180   8.663   4.728   7.548  1.5148  2.2954 -0.6365
  517MOL0     H68181   9.008   4.710   7.636  0.5164 -1.1818  2.2470
  517MOL0     H68182   9.021   4.662   7.463 -3.2524 -0.5386 -1.3659
  517MOL0     H68183   9.198   4.579   7.558 -0.2359  0.7897 -0.6974
  517MOL0     H68184   9.096   4.432   7.546  0.1265  0.4565 -0.2797
  517MOL0     H68185   9.033   4.432   7.781 -0.5823 -0.3855 -2.8255
  517MOL0     H68186   9.093   4.593   7.802  1.2943  0.5750 -0.8951
  517MOL0     H68187   9.271   4.355   7.770  0.0156 -0.6254  1.6865
  517MOL0     H68188   9.326   4.525   7.768 -0.6385  1.9647  3.2231
  517MOL0     H68189   9.333   4.376   7.999 -2.2582  0.5489  5.4112
  517MOL0     H68190   9.172   4.433   8.016  1.2258 -1.1068  3.2918
  517MOL0     H68191   9.280   4.582   8.119  2.4334  0.0300 -0.7143
  517MOL0     H68192   9.243   4.665   7.969  1.1457  1.0840  0.5377
  517MOL0     H68193   9.478   4.644   7.899 -1.1773 -0.2322 -0.4542
  517MOL0     H68194   9.483   4.697   8.070  0.5484 -1.2601  1.7018
  517MOL0     H68195   9.540   4.428   7.979  2.9204  0.3012 -0.0345
  517MOL0     H68196   9.520   4.477   8.157  1.5536  2.4290  1.5325
  517MOL0     H68197   9.724   4.544   7.831  2.1509  0.1753 -0.3573
  517MOL0     H68198  10.035   4.489   7.873  3.6319  1.9239 -2.5696
  517MOL0     H68199  10.094   4.630   7.955  1.4460  2.6377 -2.0440
  517MOL0     H68200  10.023   4.779   7.797  0.2213 -0.9947  4.4113
  517MOL0     H68201   9.929   4.650   7.717 -1.0740 -1.3737  1.6513
  517MOL0     H68202  10.224   4.695   7.759 -1.4094  1.2886  1.4154
  517MOL0     H68203  10.181   4.527   7.704 -3.3961 -0.9384 -1.0464
  517MOL0     H68204  10.248   4.690   7.518  0.3072 -0.0569 -0.5082
  517MOL0     H68205  10.104   4.783   7.559 -0.9400 -1.1288  2.3403
  517MOL0     H68206   9.834   4.767   7.517 -0.4902 -0.7018  0.2919
  517MOL0     H68207   9.683   4.821   7.333  2.4468  2.7714  0.4625
  517MOL0     H68208   9.443   4.590   6.958 -3.0690  0.6142 -1.4188
  517MOL0     H68209   9.302   4.622   6.759 -0.5436 -3.0750  0.4490
  517MOL0     H68210   9.283   4.753   6.396 -0.6060 -2.3573  1.6715
  517MOL0     H68211   9.459   4.814   6.409  0.5196  1.2639  1.1974
  517MOL0     H68212   9.251   4.849   6.623  0.7769 -3.2862 -1.0183
  517MOL0     H68213   9.262   4.955   6.496  0.6356  2.0307  2.1472
  517MOL0     H68214   9.466   5.045   6.533 -0.1926  0.9710  0.1837
  517MOL0     H68215   9.527   4.919   6.642 -0.9965 -0.8206  0.8073
  517MOL0     H68216   9.287   5.035   6.761 -0.3062  0.5759  1.2511
  517MOL0     H68217   9.430   4.968   6.828  1.3326 -0.2993 -0.4926
  517MOL0     H68218   9.389   5.245   6.723  0.1252  0.6548  0.7548
  517MOL0     H68219   9.553   5.188   6.731 -2.1118 -0.5770 -1.4137
  517MOL0     H68220   9.364   5.213   6.961  0.3941 -0.7908  0.1739
  517MOL0     H68221   9.497   5.325   6.921 -1.3466  1.2306 -1.7569
  517MOL0     H68222   9.512   5.039   7.029  4.6088 -2.0797  0.6907
  517MOL0     H68223   9.654   5.110   6.942  0.9804  1.7157  0.5839
  517MOL0     H68224   9.490   5.236   7.173 -0.6456  2.6897 -0.9917
  517MOL0     H68225   9.650   5.294   7.129  1.0928 -1.0708 -1.3448
  517MOL0     H68226   9.659   4.626   6.512 -2.9656 -0.7068 -1.5009
  517MOL0     H68227   9.797   4.642   6.722  0.4915 -0.2993  0.4050
  517MOL0     H68228   9.897   4.523   7.104 -1.4156 -2.7363  2.0163
  517MOL0     H68229  10.056   4.500   7.260  2.2015  0.9217  4.1401
  517MOL0     H68230   8.908   4.457   7.319  1.1144  1.7476  0.9153
  517MOL0     H68231   8.780   4.526   7.103  2.9279 -1.7278  0.9842
  517MOL0     H68232   8.588   4.795   6.729  1.6796  1.5340  2.6469
  517MOL0     H68233   8.415   4.931   6.609  1.4164  0.5194  0.4168
  517MOL0     H68234   8.079   5.130   6.846  1.8014 -2.8482  1.3638
  517MOL0     H68235   8.008   4.974   6.827 -2.8912  0.5624  0.0700
  517MOL0     H68236   7.885   5.172   6.725  1.1667  2.6705 -3.2418
  517MOL0     H68237   8.005   5.225   6.633 -3.6416  3.3679 -0.3870
  517MOL0     H68238   7.878   4.957   6.593 -1.5002  3.1869  4.1100
  517MOL0     H68239   8.011   5.024   6.476  0.8942  0.4571 -0.4793
  517MOL0     H68240   7.746   5.140   6.533  2.8365  0.5039  2.6210
  517MOL0     H68241   7.859   5.202   6.426  2.1069 -0.0721  2.6361
  517MOL0     H68242   7.712   4.839   6.219 -1.8609  1.6068 -2.0399
  517MOL0     H68243   8.171   4.926   6.964 -0.2512 -0.8937  0.7842
  517MOL0     H68244   8.347   4.814   7.085  1.7794 -1.4955 -0.2330
  518MOL0     O68245   0.242   9.665   2.790 -0.1607 -0.1061 -0.3150
  518MOL0     C68246   0.252   9.788   2.786 -0.6015  0.3256 -0.3375
  518MOL0     O68247   0.356   9.859   2.843 -0.4709 -0.6983  0.2656
  518MOL0     C68248   0.469   9.794   2.892  0.0520  0.6820 -0.4737
  518MOL0     C68249   0.485   9.781   3.035  0.0111  0.2182  0.3083
  518MOL0     C68250   0.597   9.727   3.079 -0.5609 -0.0290  0.0142
  518MOL0     C68251   0.709   9.691   2.995  0.6444 -0.0940 -0.4130
  518MOL0     O68252   0.836   9.656   3.036 -0.3390 -0.0233 -0.2384
  518MOL0     C68253   0.839   9.577   3.155  1.0883 -0.2696 -0.2683
  518MOL0     C68254   0.949   9.470   3.151 -0.1365 -0.0895  0.1624
  518MOL0     C68255   0.935   9.375   3.023  0.5934  0.0724 -0.0676
  518MOL0     C68256   0.990   9.235   3.048  0.1572 -0.9043 -0.7110
  518MOL0     C68257   1.144   9.244   3.073 -0.4106  0.4193  0.1012
  518MOL0     C68258   1.198   9.097   3.043 -0.2635  0.2441  0.4491
  518MOL0     C68259   1.349   9.084   3.090 -0.3517  0.1879 -0.9472
  518MOL0     C68260   1.430   9.169   2.988 -0.9690 -0.2600  1.0506
  518MOL0     N68261   1.575   9.130   2.971  0.1505  0.0070 -1.3832
  518MOL0     C68262   1.638   9.006   2.954 -0.7015  1.0363  0.4005
  518MOL0     C68263   1.774   9.043   2.943  0.3288  0.5565  0.2325
  518MOL0     C68264   1.896   8.950   2.924 -0.3292  2.0139  0.4939
  518MOL0     C68265   1.980   8.979   2.801  0.3672 -0.2715  0.2398
  518MOL0     C68266   2.126   8.911   2.809 -1.0450 -0.7772  0.2709
  518MOL0     C68267   2.110   8.757   2.804 -0.1550 -0.5095  0.8056
  518MOL0     O68268   2.221   8.701   2.869  0.5334  0.0523 -0.5154
  518MOL0     C68269   2.332   8.672   2.794  0.2776 -0.5840 -0.8876
  518MOL0     C68270   2.450   8.633   2.861 -0.7820 -0.5191 -1.1193
  518MOL0     C68271   2.575   8.626   2.787  0.7639  0.7458  0.1371
  518MOL0     C68272   2.570   8.627   2.640 -0.4365  0.5430  0.2856
  518MOL0     C68273   2.681   8.592   2.559 -0.3979  0.8016  0.4012
  518MOL0     O68274   2.665   8.621   2.426  0.2204  0.4612 -0.4226
  518MOL0     C68275   2.757   8.587   2.334  0.2418 -0.0393  0.5196
  518MOL0     C68276   2.763   8.668   2.223 -0.6039 -0.0690  0.3502
  518MOL0     C68277   2.836   8.652   2.110 -0.1536 -0.3459 -0.0029
  518MOL0     C68278   2.925   8.540   2.110  0.5175  0.0315 -0.5117
  518MOL0     O68279   2.994   8.530   1.995  0.1130  0.5901  0.1330
  518MOL0     C68280   3.068   8.404   1.977  0.4173 -0.8570  0.1098
  518MOL0     C68281   3.129   8.404   1.835 -0.0070  1.0360  0.5921
  518MOL0     C68282   3.057   8.313   1.731 -0.3211 -0.2774  0.5002
  518MOL0     C68283   3.129   8.188   1.698  0.2981  0.8910 -0.8158
  518MOL0     C68284   3.105   8.155   1.551  0.5379  0.7330 -0.3432
  518MOL0     C68285   3.165   8.015   1.517 -0.2248  0.3557 -1.0471
  518MOL0     C68286   3.143   7.974   1.376 -0.8822 -0.3193  1.0946
  518MOL0     C68287   3.230   7.858   1.324  0.0852 -1.6644 -0.8656
  518MOL0    Cl68288   3.258   7.872   1.154  0.3066 -0.7630  0.0691
  518MOL0     C68289   2.935   8.461   2.227 -0.2379 -0.3288 -0.7410
  518MOL0     C68290   2.846   8.480   2.339 -0.0335  1.3165 -0.0096
  518MOL0     O68291   2.775   8.529   2.609 -0.0012  0.7198 -0.0389
  518MOL0     C68292   2.450   8.661   2.577  0.3064 -0.3747 -0.2450
  518MOL0     C68293   2.340   8.690   2.650  0.0698 -0.1460 -0.3654
  518MOL0     N68294   1.786   9.181   2.966  0.0223  0.8953  0.1644
  518MOL0     N68295   1.668   9.228   2.987 -0.2937 -0.2478  0.7412
  518MOL0     C68296   0.697   9.722   2.864  0.8344 -0.5564  0.5128
  518MOL0     C68297   0.578   9.765   2.812  0.5625  0.6380 -0.7296
  518MOL0     C68298   0.169   9.858   2.685 -0.5405 -0.2878 -0.3396
  518MOL0     C68299   0.057   9.799   2.616 -0.1603 -0.0172 -0.2438
  518MOL0     C68300  -0.007   9.875   2.522  1.3256 -0.0575  0.0182
  518MOL0     C68301   0.029  10.009   2.495  0.6554  0.1844 -0.3290
  518MOL0     O68302  -0.033  10.091   2.399 -0.4744  1.2139  0.9538
  518MOL0     C68303  -0.165  10.055   2.365 -0.5693 -0.4763 -0.0469
  518MOL0     C68304  -0.222  10.151   2.263  0.0374  0.4369  0.5621
  518MOL0     C68305  -0.383  10.132   2.256 -0.4999 -1.0237 -0.5422
  518MOL0     C68306  -0.446  10.236   2.353 -0.2149 -0.1581  0.4239
  518MOL0     C68307  -0.592  10.242   2.344  0.1035 -0.9608  0.3676
  518MOL0     C68308  -0.713  10.251   2.347  1.1944  1.1937  1.0056
  518MOL0     C68309   0.144  10.064   2.559 -0.3741 -0.5598 -0.5453
  518MOL0     C68310   0.215   9.991   2.656  1.2879 -0.4647 -0.2139
  518MOL0     H68311   0.408   9.795   3.110 -1.5939 -0.1142 -1.2163
  518MOL0     H68312   0.604   9.700   3.184 -0.4186 -2.0409 -0.4750
  518MOL0     H68313   0.753   9.511   3.171  1.8480 -1.0752  0.6232
  518MOL0     H68314   0.850   9.644   3.241 -0.0751 -2.0169  1.3305
  518MOL0     H68315   0.915   9.425   3.245  0.1547  2.7288  1.7408
  518MOL0     H68316   1.050   9.510   3.167 -1.1170  2.3272  0.7331
  518MOL0     H68317   0.988   9.425   2.941  1.8837  1.0027  1.2962
  518MOL0     H68318   0.826   9.374   3.010  0.3364  1.5826  1.5793
  518MOL0     H68319   0.948   9.188   3.138 -1.2322 -1.5295 -1.6425
  518MOL0     H68320   0.964   9.179   2.957 -0.2511 -1.0655 -0.4983
  518MOL0     H68321   1.174   9.286   3.169  1.7087 -1.6189  0.4298
  518MOL0     H68322   1.177   9.311   2.992  1.0592  0.8556  1.0309
  518MOL0     H68323   1.188   9.075   2.936  3.1224  0.4947 -0.0275
  518MOL0     H68324   1.117   9.039   3.088  0.6716  0.0855  1.9983
  518MOL0     H68325   1.358   9.143   3.182  1.0910 -0.3737 -0.6972
  518MOL0     H68326   1.383   8.981   3.104 -1.9695 -0.2639 -0.1097
  518MOL0     H68327   1.423   9.277   2.996  0.7827  0.2079 -2.0354
  518MOL0     H68328   1.391   9.147   2.888  2.1883  0.3978 -0.4770
  518MOL0     H68329   1.600   8.905   2.940  1.1379  0.0242  2.1231
  518MOL0     H68330   1.855   8.851   2.903  1.8256  0.6180  2.4387
  518MOL0     H68331   1.960   8.941   3.013  1.5685  1.1197 -0.8937
  518MOL0     H68332   1.994   9.087   2.791  0.3152 -0.4286 -1.7949
  518MOL0     H68333   1.927   8.948   2.711 -2.0087  3.2014  0.2528
  518MOL0     H68334   2.189   8.943   2.725  0.4247  1.5987  2.1453
  518MOL0     H68335   2.175   8.946   2.900 -1.1322  0.6480 -0.2024
  518MOL0     H68336   2.087   8.717   2.705 -1.6562  1.7628  0.1653
  518MOL0     H68337   2.022   8.734   2.866 -1.1474  0.2302 -0.2744
  518MOL0     H68338   2.449   8.601   2.964  1.5967  2.5638 -0.0074
  518MOL0     H68339   2.660   8.600   2.850  1.4022  1.8172 -0.2594
  518MOL0     H68340   2.692   8.751   2.224 -0.4155  0.0889  0.6676
  518MOL0     H68341   2.814   8.701   2.016  1.2139 -0.5752 -0.4609
  518MOL0     H68342   3.015   8.310   1.993  1.1477 -1.1322  0.9747
  518MOL0     H68343   3.155   8.398   2.043 -0.2723 -1.7699  0.9683
  518MOL0     H68344   3.234   8.371   1.840  0.4617  2.4617  0.6016
  518MOL0     H68345   3.144   8.506   1.799  0.6003  0.8265  0.2342
  518MOL0     H68346   3.041   8.371   1.639 -1.4818  4.1311  3.1577
  518MOL0     H68347   2.958   8.284   1.768 -0.8864  0.5149 -0.3286
  518MOL0     H68348   3.237   8.197   1.712  0.4084 -1.8879  0.9062
  518MOL0     H68349   3.095   8.112   1.769  1.4049  0.2818 -0.9184
  518MOL0     H68350   3.144   8.232   1.484  0.7596 -0.3231 -1.4665
  518MOL0     H68351   2.997   8.142   1.547  0.5772  0.6223 -2.8065
  518MOL0     H68352   3.132   7.943   1.592  0.0207 -0.1920 -1.4589
  518MOL0     H68353   3.271   8.008   1.542 -1.1055  1.9322  4.2456
  518MOL0     H68354   3.040   7.935   1.369 -0.5696 -0.9348 -0.6753
  518MOL0     H68355   3.150   8.069   1.323 -2.0573 -0.5998  0.3921
  518MOL0     H68356   3.180   7.765   1.351  0.4314 -2.3918 -2.5770
  518MOL0     H68357   3.329   7.868   1.370  0.3176 -0.5513 -1.5468
  518MOL0     H68358   2.995   8.371   2.240 -2.4985 -2.0699 -1.6670
  518MOL0     H68359   2.848   8.407   2.420 -2.7253  2.7317  1.4469
  518MOL0     H68360   2.448   8.672   2.469  2.1064  0.3842 -0.2395
  518MOL0     H68361   2.264   8.726   2.580  2.5872  2.0072 -2.2054
  518MOL0     H68362   0.783   9.711   2.799 -0.1214  0.5093 -0.9810
  518MOL0     H68363   0.571   9.765   2.703  1.6764 -5.4185 -1.1644
  518MOL0     H68364   0.022   9.697   2.629  1.0202 -0.3792  0.2542
  518MOL0     H68365  -0.088   9.828   2.467 -0.1768 -0.0145  2.1033
  518MOL0     H68366  -0.225  10.059   2.456 -1.0529 -2.6823 -0.2019
  518MOL0     H68367  -0.174   9.954   2.322  1.2437 -0.3953 -0.7017
  518MOL0     H68368  -0.206  10.254   2.295 -0.5639  2.3053 -4.3525
  518MOL0     H68369  -0.181  10.143   2.162 -1.3918 -0.5938  0.0290
  518MOL0     H68370  -0.413  10.030   2.283  1.7300 -1.3463  1.0815
  518MOL0     H68371  -0.414  10.144   2.152  1.1564  0.6829 -0.8864
  518MOL0     H68372  -0.423  10.217   2.458 -1.0412  1.3491  0.9133
  518MOL0     H68373  -0.400  10.329   2.318  1.6473 -1.0509  0.4154
  518MOL0     H68374  -0.820  10.255   2.348  0.6683 -2.2793 -4.0525
  518MOL0     H68375   0.193  10.156   2.530  1.6887 -0.7856  1.8462
  518MOL0     H68376   0.303  10.041   2.695  0.4595  0.7797  0.1427
  519MOL0     O68377   4.380   8.002   1.879 -0.8368 -0.2344 -0.3605
  519MOL0     C68378   4.268   7.997   1.830 -0.7681  1.3138  0.6136
  519MOL0     O68379   4.154   8.016   1.894 -0.3433  0.1727 -0.1234
  519MOL0     C68380   4.166   8.063   2.019 -0.3010 -0.8326  0.5440
  519MOL0     C68381   4.117   8.009   2.139 -0.9267  0.2194 -0.1558
  519MOL0     C68382   4.136   8.072   2.268  0.1877 -0.8080 -0.2087
  519MOL0     C68383   4.185   8.202   2.275 -0.3136 -0.0502  1.0875
  519MOL0     O68384   4.216   8.244   2.397 -0.5184 -0.1411 -0.0585
  519MOL0     C68385   4.225   8.389   2.418 -0.4761  0.1299  0.5387
  519MOL0     C68386   4.208   8.423   2.568 -0.2912  0.4067 -0.0931
  519MOL0     C68387   4.272   8.557   2.591 -0.3895 -1.0480  0.9709
  519MOL0     C68388   4.260   8.598   2.732  0.1111  0.0250 -0.8752
  519MOL0     C68389   4.322   8.731   2.751 -0.4081 -1.4579  0.4609
  519MOL0     C68390   4.308   8.787   2.889  0.1174 -0.5506 -0.3589
  519MOL0     C68391   4.351   8.936   2.895 -0.8233  0.0307  0.6510
  519MOL0     C68392   4.255   9.021   2.972 -0.9839  0.8236 -0.5085
  519MOL0     N68393   4.270   8.969   3.109  0.4483  0.1339 -0.5412
  519MOL0     C68394   4.375   8.998   3.198  0.1065  1.0378 -1.0594
  519MOL0     C68395   4.330   8.962   3.317  0.1998  1.0335  0.1785
  519MOL0     C68396   4.407   8.959   3.455 -0.2579  0.6163 -0.3994
  519MOL0     C68397   4.522   9.052   3.473 -1.0519  0.0526 -0.0834
  519MOL0     C68398   4.590   9.058   3.606  0.6833  1.1466  0.2109
  519MOL0     C68399   4.700   9.166   3.613 -0.0420 -0.4084 -0.9233
  519MOL0     O68400   4.748   9.177   3.748 -0.3590 -0.2826  0.2591
  519MOL0     C68401   4.680   9.255   3.838 -0.7431 -0.3345 -0.3283
  519MOL0     C68402   4.721   9.258   3.972  0.1652 -0.6743 -0.4830
  519MOL0     C68403   4.664   9.348   4.070  1.2159 -0.1585 -0.3558
  519MOL0     C68404   4.561   9.436   4.035  0.1405  1.0696 -0.0933
  519MOL0     C68405   4.493   9.501   4.146 -0.2240  0.0559 -0.3201
  519MOL0     O68406   4.378   9.564   4.121  0.4212  0.5149 -0.2893
  519MOL0     C68407   4.318   9.643   4.213 -0.6847 -0.3141 -0.7138
  519MOL0     C68408   4.189   9.670   4.171  0.5045  0.7868  0.2428
  519MOL0     C68409   4.110   9.735   4.266  0.4027 -0.0206 -0.8029
  519MOL0     C68410   4.154   9.767   4.396  0.1528  0.5960 -0.0649
  519MOL0     O68411   4.057   9.825   4.484 -0.3075  0.9693  0.7017
  519MOL0     C68412   4.100   9.911   4.589  0.5216  0.2867 -0.0263
  519MOL0     C68413   4.025  10.050   4.601  0.0399 -0.8728  0.4260
  519MOL0     C68414   4.038  10.145   4.473 -0.1129  0.5694  0.2802
  519MOL0     C68415   3.905  10.186   4.412  0.2367  0.1669 -0.0222
  519MOL0     C68416   3.833  10.065   4.343 -0.1259 -0.1305 -0.1317
  519MOL0     C68417   3.900  10.019   4.212 -0.1518 -0.2774 -0.0216
  519MOL0     C68418   3.850  10.104   4.093 -0.1246  0.1841 -0.1955
  519MOL0     C68419   3.900  10.054   3.966  0.5498  0.7886  0.4039
  519MOL0    Cl68420   3.829   9.887   3.924  0.0291 -0.2217 -0.4184
  519MOL0     C68421   4.287   9.745   4.423  0.7337  0.2959 -0.6212
  519MOL0     C68422   4.368   9.687   4.340  0.4635  0.0316 -0.1766
  519MOL0     O68423   4.552   9.503   4.258  0.3686  0.4181 -0.6801
  519MOL0     C68424   4.509   9.428   3.904  0.0459 -0.2148  0.4453
  519MOL0     C68425   4.572   9.346   3.811 -0.0233 -0.6593 -0.5038
  519MOL0     N68426   4.198   8.912   3.308  0.0878 -0.1074  0.6096
  519MOL0     N68427   4.166   8.927   3.180 -0.6147  0.1581  0.2768
  519MOL0     C68428   4.224   8.261   2.155  0.3636  0.1081  0.3092
  519MOL0     C68429   4.204   8.201   2.027  0.2681  0.6364  0.6440
  519MOL0     C68430   4.260   7.938   1.689 -0.2394 -1.2611 -0.0717
  519MOL0     C68431   4.144   7.870   1.643  0.0097 -0.3563  0.4178
  519MOL0     C68432   4.136   7.792   1.526  0.7273 -0.8445  0.4018
  519MOL0     C68433   4.240   7.794   1.433 -0.5553 -0.9169 -0.5610
  519MOL0     O68434   4.225   7.724   1.317 -0.2339  0.1711 -0.4708
  519MOL0     C68435   4.347   7.716   1.236 -0.1822 -0.7779  0.7779
  519MOL0     C68436   4.315   7.653   1.095 -0.5266  0.7892  0.0268
  519MOL0     C68437   4.238   7.522   1.108  0.8022  0.7081 -0.2741
  519MOL0     C68438   4.300   7.412   1.205  0.3879  0.0733  0.3313
  519MOL0     C68439   4.232   7.281   1.194  0.1386 -0.6704  0.0923
  519MOL0     C68440   4.164   7.180   1.192 -0.5658 -0.1402 -0.8811
  519MOL0     C68441   4.348   7.874   1.466 -0.2948 -0.7555  0.2923
  519MOL0     C68442   4.360   7.947   1.586 -0.4083  0.3957 -1.2669
  519MOL0     H68443   4.097   7.904   2.119  0.7536 -0.1681  0.0213
  519MOL0     H68444   4.119   8.026   2.364 -1.7664  1.6913  0.7345
  519MOL0     H68445   4.135   8.435   2.377 -1.6040 -2.1378  0.3269
  519MOL0     H68446   4.319   8.433   2.381 -1.1706  2.1048  0.9898
  519MOL0     H68447   4.257   8.346   2.629 -2.6369  1.3603  3.2413
  519MOL0     H68448   4.106   8.428   2.607  0.2206 -0.0181  1.3923
  519MOL0     H68449   4.231   8.628   2.519 -1.9499 -0.9984  1.8510
  519MOL0     H68450   4.379   8.565   2.569 -1.0028  3.6447 -1.6163
  519MOL0     H68451   4.155   8.616   2.757  0.4789 -0.0667  0.8875
  519MOL0     H68452   4.313   8.520   2.788  3.3013  1.2537 -1.9420
  519MOL0     H68453   4.290   8.809   2.681  1.5577  1.4242  2.5389
  519MOL0     H68454   4.427   8.708   2.728 -0.3351 -0.8575  0.1806
  519MOL0     H68455   4.366   8.714   2.946 -2.2128 -1.8047  0.5719
  519MOL0     H68456   4.209   8.770   2.933 -0.2780  0.5129 -0.8164
  519MOL0     H68457   4.453   8.939   2.933 -1.4096 -0.1492  2.3328
  519MOL0     H68458   4.343   8.975   2.793 -0.7102 -0.8880  0.2772
  519MOL0     H68459   4.153   8.998   2.940 -1.3009 -0.0254  1.0373
  519MOL0     H68460   4.269   9.129   2.966 -0.4573  0.6693 -2.8740
  519MOL0     H68461   4.474   9.037   3.179 -0.5710  2.7362 -1.2459
  519MOL0     H68462   4.449   8.859   3.470  4.0784  2.5289  2.0299
  519MOL0     H68463   4.334   8.978   3.533 -1.2092  0.1269 -1.1383
  519MOL0     H68464   4.499   9.148   3.426  1.8366  1.0870  0.4095
  519MOL0     H68465   4.601   9.010   3.410  1.9463  3.4574  1.0860
  519MOL0     H68466   4.521   9.077   3.688  1.0502  0.8330  0.6000
  519MOL0     H68467   4.637   8.961   3.626  0.9359  1.4903  1.3652
  519MOL0     H68468   4.672   9.259   3.563  1.7531 -0.2269 -1.6810
  519MOL0     H68469   4.778   9.143   3.540  1.6795 -0.5173  0.8613
  519MOL0     H68470   4.806   9.201   4.007  1.7471  1.2029 -1.1030
  519MOL0     H68471   4.713   9.351   4.167  1.5834  3.5339 -0.4795
  519MOL0     H68472   4.158   9.636   4.072  0.7163 -0.0949  0.4742
  519MOL0     H68473   4.010   9.769   4.240  0.5539  0.8300 -0.2982
  519MOL0     H68474   4.205   9.938   4.576 -0.0232  3.5483  1.2943
  519MOL0     H68475   4.095   9.866   4.688  2.4362  1.7519  0.7997
  519MOL0     H68476   4.068  10.099   4.688 -1.2195 -1.8755  1.6559
  519MOL0     H68477   3.923  10.023   4.627 -1.3427  2.1031 -1.4064
  519MOL0     H68478   4.102  10.093   4.402 -0.8282  0.9410 -0.6575
  519MOL0     H68479   4.085  10.239   4.505 -3.2084  1.4104  3.0075
  519MOL0     H68480   3.836  10.241   4.475 -0.9635 -0.8379 -0.4056
  519MOL0     H68481   3.922  10.271   4.345 -1.9149  0.5486 -0.1653
  519MOL0     H68482   3.727  10.090   4.326  0.5042  1.7767 -1.5391
  519MOL0     H68483   3.830   9.980   4.412 -0.4927  1.9002  2.5013
  519MOL0     H68484   3.870   9.919   4.179  2.8931  0.0528 -4.6810
  519MOL0     H68485   4.009  10.017   4.222 -0.1078  0.4055 -0.2910
  519MOL0     H68486   3.741  10.115   4.093 -0.3659 -1.7772 -1.8131
  519MOL0     H68487   3.883  10.208   4.095 -0.1168  0.1962 -0.7665
  519MOL0     H68488   4.009  10.056   3.957  0.5133  1.8985  0.1186
  519MOL0     H68489   3.868  10.125   3.890 -1.3957  0.8654  1.2442
  519MOL0     H68490   4.322   9.766   4.523  3.8300 -0.4497 -1.4401
  519MOL0     H68491   4.469   9.681   4.378  0.7301  1.7188 -0.5489
  519MOL0     H68492   4.417   9.483   3.885  0.6405  0.2307 -1.3094
  519MOL0     H68493   4.527   9.351   3.712  2.6630 -0.8820 -1.8301
  519MOL0     H68494   4.255   8.364   2.150  2.2018 -0.4367 -0.3950
  519MOL0     H68495   4.228   8.252   1.934  1.0672 -0.2009  0.3887
  519MOL0     H68496   4.066   7.869   1.718  2.0749 -0.9690  2.7049
  519MOL0     H68497   4.042   7.738   1.523 -2.6019  4.2676  0.7776
  519MOL0     H68498   4.420   7.659   1.295 -0.7310  0.7276  3.0522
  519MOL0     H68499   4.395   7.811   1.211  1.9957 -1.6959  1.1923
  519MOL0     H68500   4.256   7.727   1.039 -4.4437 -2.0818 -0.0181
  519MOL0     H68501   4.404   7.636   1.033  0.5656  0.8403  1.5140
  519MOL0     H68502   4.236   7.470   1.012 -1.5381 -0.6106  0.4128
  519MOL0     H68503   4.137   7.552   1.138  1.4033  2.2230  0.3068
  519MOL0     H68504   4.399   7.396   1.161 -0.4801  1.0819 -2.2313
  519MOL0     H68505   4.303   7.436   1.311 -2.6258 -0.5008  0.6076
  519MOL0     H68506   4.113   7.087   1.204  0.0500 -0.4907 -0.9439
  519MOL0     H68507   4.440   7.881   1.408  1.3628  1.4590  2.9351
  519MOL0     H68508   4.451   7.999   1.614 -0.8143  1.2814 -1.5662
  520MOL0     O68509   3.758  11.318   8.568 -0.2234 -0.5222 -0.0154
  520MOL0     C68510   3.861  11.312   8.633 -0.5518  0.3529  0.2324
  520MOL0     O68511   3.898  11.398   8.730 -0.4122 -1.0177  0.3052
  520MOL0     C68512   3.816  11.503   8.760 -0.5626 -0.8140 -0.2491
  520MOL0     C68513   3.797  11.542   8.893 -0.6086 -0.1058 -0.0895
  520MOL0     C68514   3.720  11.650   8.924  0.0155 -0.0802  0.0289
  520MOL0     C68515   3.668  11.736   8.827  0.1102  0.9153  0.0967
  520MOL0     O68516   3.590  11.853   8.844 -0.7148 -0.3652  0.1830
  520MOL0     C68517   3.525  11.860   8.971  0.7979 -0.2830  0.6348
  520MOL0     C68518   3.424  11.979   8.960  0.2917 -0.1535  1.2395
  520MOL0     C68519   3.315  12.010   9.068  0.0439  0.6889  0.0962
  520MOL0     C68520   3.196  11.925   9.047  0.4879  0.8624 -0.1130
  520MOL0     C68521   3.079  11.947   9.152 -0.6799  0.0046  1.0116
  520MOL0     C68522   3.020  11.804   9.193 -1.4564 -0.8216 -0.1373
  520MOL0     C68523   2.966  11.726   9.081 -0.1545  0.4643 -0.0697
  520MOL0     C68524   3.001  11.582   9.090  1.1307  0.8087  0.0446
  520MOL0     N68525   3.134  11.562   9.041 -0.2801  0.3897 -0.5301
  520MOL0     C68526   3.169  11.552   8.909  0.6216  0.3035  0.6573
  520MOL0     C68527   3.308  11.548   8.905 -0.3751 -0.8511  0.4322
  520MOL0     C68528   3.390  11.537   8.777  0.3921  1.2941  0.1001
  520MOL0     C68529   3.343  11.420   8.683 -0.6287 -0.5922  1.1119
  520MOL0     C68530   3.321  11.289   8.758 -0.1660  0.1339  0.0209
  520MOL0     C68531   3.328  11.166   8.659  0.4799  0.0960 -0.0173
  520MOL0     O68532   3.271  11.052   8.719  0.2075 -0.1661  0.2869
  520MOL0     C68533   3.344  10.981   8.811 -0.1804  0.3729  0.4017
  520MOL0     C68534   3.476  11.003   8.848 -0.2563 -0.2010 -0.5749
  520MOL0     C68535   3.548  10.927   8.936 -0.0585 -0.9866 -0.6782
  520MOL0     C68536   3.476  10.814   8.983 -0.0915  0.4327 -0.1466
  520MOL0     C68537   3.551  10.726   9.083 -0.9226  0.0678 -0.3186
  520MOL0     O68538   3.676  10.764   9.129  0.5858 -0.5271  0.8446
  520MOL0     C68539   3.739  10.697   9.232 -0.2043 -0.8204 -0.9936
  520MOL0     C68540   3.733  10.754   9.355  0.9120 -0.1225 -0.3871
  520MOL0     C68541   3.774  10.687   9.469 -0.3681 -0.2642 -0.1585
  520MOL0     C68542   3.844  10.564   9.462  0.2922 -0.2292  0.6742
  520MOL0     O68543   3.884  10.510   9.580  0.0382  1.0371  0.6127
  520MOL0     C68544   4.016  10.443   9.582  0.9103 -0.0524  0.4091
  520MOL0     C68545   4.044  10.414   9.728 -0.1348 -0.0718 -1.3116
  520MOL0     C68546   4.196  10.432   9.753 -0.4719 -0.4557  0.3883
  520MOL0     C68547   4.249  10.369   9.888  0.1832 -0.8760 -0.1319
  520MOL0     C68548   4.233  10.446  10.028  0.9512  0.6507 -0.2065
  520MOL0     C68549   4.362  10.420  10.116  0.2664 -0.8912  0.8246
  520MOL0     C68550   4.345  10.506  10.239  0.6421  0.5911  0.7186
  520MOL0     C68551   4.467  10.548  10.315 -0.1817  0.1410  0.3014
  520MOL0    Cl68552   4.562  10.420  10.382 -0.0850  0.5191 -0.4201
  520MOL0     C68553   3.853  10.502   9.330  0.1130  0.6516  0.3523
  520MOL0     C68554   3.807  10.574   9.215  0.6573 -0.8740  0.3355
  520MOL0     O68555   3.491  10.623   9.115 -0.1023 -0.0581  0.1031
  520MOL0     C68556   3.344  10.791   8.944 -0.1395  0.1495  0.8031
  520MOL0     C68557   3.275  10.882   8.868 -0.5520 -0.1311 -0.4689
  520MOL0     N68558   3.359  11.560   9.036 -0.1696  0.0873  0.1997
  520MOL0     N68559   3.252  11.554   9.111 -0.5941  1.1909 -0.5780
  520MOL0     C68560   3.687  11.699   8.695 -0.3761 -0.5141  0.2501
  520MOL0     C68561   3.759  11.592   8.659  0.5146  0.2756  0.2242
  520MOL0     C68562   3.953  11.212   8.592 -0.7560 -0.9810 -0.1102
  520MOL0     C68563   3.961  11.165   8.459 -0.0856 -0.1584 -0.8322
  520MOL0     C68564   4.054  11.061   8.432  0.7913  1.1640 -0.0417
  520MOL0     C68565   4.116  10.975   8.531  0.9282  0.7810  0.6165
  520MOL0     O68566   4.171  10.853   8.513 -0.1407  0.1872 -0.4610
  520MOL0     C68567   4.194  10.816   8.378  0.9223  0.4669 -0.0233
  520MOL0     C68568   4.248  10.671   8.376  0.3078  1.1931  0.0338
  520MOL0     C68569   4.275  10.610   8.234  0.8988 -0.0574 -1.1813
  520MOL0     C68570   4.322  10.461   8.254  0.0851 -0.3370  0.7689
  520MOL0     C68571   4.334  10.403   8.120  0.0285  0.4100  0.3410
  520MOL0     C68572   4.329  10.358   8.008 -0.1368 -0.5690 -0.5099
  520MOL0     C68573   4.106  11.033   8.665 -0.0749 -0.1189  0.0659
  520MOL0     C68574   4.026  11.141   8.690 -0.3605 -0.2150 -0.6723
  520MOL0     H68575   3.831  11.467   8.965  0.0465  1.0482  0.8365
  520MOL0     H68576   3.694  11.679   9.025  3.4831  1.6762  0.5759
  520MOL0     H68577   3.599  11.873   9.051  1.8198  1.4011 -0.5230
  520MOL0     H68578   3.467  11.767   8.980  0.4266 -0.2355 -0.9647
  520MOL0     H68579   3.369  11.964   8.867 -0.1922 -1.8807  1.7688
  520MOL0     H68580   3.483  12.071   8.965  0.8132 -0.4651  0.8896
  520MOL0     H68581   3.292  12.117   9.069  4.1752  1.7925 -1.8026
  520MOL0     H68582   3.346  11.995   9.172  0.2476  2.1108  0.2578
  520MOL0     H68583   3.154  11.929   8.946  1.0283  0.4050 -0.3631
  520MOL0     H68584   3.236  11.823   9.046  1.1381  1.0653  1.7494
  520MOL0     H68585   2.996  12.003   9.106 -0.7453 -3.0280 -3.2326
  520MOL0     H68586   3.113  11.995   9.244  3.6051 -0.5713 -0.0911
  520MOL0     H68587   2.949  11.813   9.276  2.5016  1.5897  3.4489
  520MOL0     H68588   3.098  11.738   9.232  0.3885 -0.4014 -2.8779
  520MOL0     H68589   2.859  11.733   9.103  0.3944 -1.1882  4.2545
  520MOL0     H68590   2.977  11.771   8.982 -2.2939 -1.6104 -1.3576
  520MOL0     H68591   2.932  11.512   9.041  0.6120 -1.0792  3.1874
  520MOL0     H68592   2.985  11.554   9.194 -0.7058  1.2812 -0.0689
  520MOL0     H68593   3.097  11.549   8.827 -2.5939  5.9133  2.6977
  520MOL0     H68594   3.488  11.514   8.820 -0.0625 -1.6263 -0.1772
  520MOL0     H68595   3.395  11.631   8.721 -0.2175  1.4131  0.2305
  520MOL0     H68596   3.428  11.393   8.620 -0.4991  0.3605  0.8666
  520MOL0     H68597   3.248  11.443   8.634 -1.3113 -0.4585  2.4388
  520MOL0     H68598   3.397  11.277   8.836 -0.1669  0.0990  0.0158
  520MOL0     H68599   3.223  11.296   8.807  0.8563  3.7267  1.9649
  520MOL0     H68600   3.431  11.151   8.626  0.4896  1.3535 -0.6168
  520MOL0     H68601   3.269  11.183   8.568 -0.1525  0.0573  0.3745
  520MOL0     H68602   3.533  11.090   8.815 -1.0966 -0.7148 -3.6886
  520MOL0     H68603   3.644  10.959   8.975  0.7474 -1.8945 -1.8562
  520MOL0     H68604   3.680  10.847   9.368  0.6416 -0.7135  4.4283
  520MOL0     H68605   3.764  10.727   9.569  0.2741  1.1790 -0.6427
  520MOL0     H68606   4.084  10.519   9.542  2.5670 -2.3754 -1.4704
  520MOL0     H68607   4.022  10.364   9.506 -0.6530  0.9794 -0.8636
  520MOL0     H68608   4.002  10.316   9.753  0.4411 -0.0281 -0.1116
  520MOL0     H68609   3.993  10.486   9.794 -1.1296 -2.0006  0.1535
  520MOL0     H68610   4.229  10.535   9.739 -0.2490 -0.8113 -2.1800
  520MOL0     H68611   4.246  10.368   9.680 -3.3436 -2.0405 -0.3415
  520MOL0     H68612   4.217  10.264   9.889  1.5090 -1.3158 -0.7387
  520MOL0     H68613   4.358  10.374   9.873  0.6909 -0.7948  2.9082
  520MOL0     H68614   4.147  10.401  10.079  2.3112 -1.7886  0.0878
  520MOL0     H68615   4.211  10.553  10.017 -0.3133  0.6583  1.7898
  520MOL0     H68616   4.450  10.454  10.060 -2.1937 -1.8148 -4.0721
  520MOL0     H68617   4.378  10.316  10.146  1.6110 -1.2635 -1.0194
  520MOL0     H68618   4.303  10.598  10.196  1.4605 -0.4262 -2.4805
  520MOL0     H68619   4.274  10.458  10.307  0.9699  0.0804  0.6993
  520MOL0     H68620   4.434  10.634  10.375 -1.7447  0.5512 -1.0747
  520MOL0     H68621   4.537  10.602  10.250  1.3311 -1.1147  0.8322
  520MOL0     H68622   3.899  10.406   9.308  1.3648  1.1463  0.7378
  520MOL0     H68623   3.832  10.537   9.116  1.1263  0.0024  0.1126
  520MOL0     H68624   3.292  10.701   8.976 -0.4599 -0.9069 -2.3180
  520MOL0     H68625   3.171  10.877   8.835  0.0612 -1.6226 -2.3898
  520MOL0     H68626   3.645  11.762   8.617  1.7219  0.9602  0.2171
  520MOL0     H68627   3.787  11.574   8.556  3.1062  1.4419  0.6553
  520MOL0     H68628   3.909  11.206   8.372 -0.2037 -1.1398 -1.2386
  520MOL0     H68629   4.057  11.032   8.327 -1.4995 -2.2101  0.6426
  520MOL0     H68630   4.249  10.895   8.325  0.4367  0.6471 -0.2615
  520MOL0     H68631   4.098  10.813   8.325  0.9156 -0.3496  0.0193
  520MOL0     H68632   4.344  10.667   8.428  0.2081 -1.6035  0.1318
  520MOL0     H68633   4.179  10.605   8.430  0.1717 -1.3181 -2.9572
  520MOL0     H68634   4.342  10.669   8.170 -1.9415  0.7012 -3.6636
  520MOL0     H68635   4.180  10.616   8.181 -0.7946  1.9773  1.7733
  520MOL0     H68636   4.422  10.460   8.297 -0.2866 -1.6686  1.6531
  520MOL0     H68637   4.254  10.402   8.317  1.3270 -2.0685  0.5441
  520MOL0     H68638   4.300  10.308   7.917 -1.5243 -0.5215 -0.1229
  520MOL0     H68639   4.140  10.976   8.751  2.8063  1.8309  0.4052
  520MOL0     H68640   4.013  11.174   8.793 -0.0723 -0.0923 -0.6727
  521MOL0     O68641   0.464   1.545  10.160  0.4561  0.5450  0.1822
  521MOL0     C68642   0.357   1.553  10.209  0.3691 -1.0977 -0.1039
  521MOL0     O68643   0.298   1.677  10.244 -0.0304  0.6200 -1.1727
  521MOL0     C68644   0.352   1.797  10.215 -0.2470 -0.0365 -0.0032
  521MOL0     C68645   0.377   1.885  10.318  0.2275  0.2798 -0.3529
  521MOL0     C68646   0.439   2.009  10.296 -0.0410  0.3218 -0.5128
  521MOL0     C68647   0.465   2.046  10.159 -0.2122 -0.1686  0.1044
  521MOL0     O68648   0.523   2.172  10.145 -0.2567  0.8469 -0.2040
  521MOL0     C68649   0.511   2.250  10.026  0.5886 -0.1995  0.0251
  521MOL0     C68650   0.606   2.199   9.921 -0.7890 -0.4092  0.5991
  521MOL0     C68651   0.622   2.297   9.808 -0.0943 -0.4649  0.5615
  521MOL0     C68652   0.728   2.397   9.867  1.3861 -0.4488 -0.3082
  521MOL0     C68653   0.738   2.529   9.799 -0.7297  0.0850 -0.3062
  521MOL0     C68654   0.779   2.513   9.657 -0.7197  0.8887 -0.2980
  521MOL0     C68655   0.767   2.640   9.564  0.0820 -0.1835  0.0013
  521MOL0     C68656   0.847   2.620   9.430 -0.6189 -0.0322  0.8539
  521MOL0     N68657   0.993   2.597   9.456  0.2818 -0.1047  0.5069
  521MOL0     C68658   1.094   2.541   9.385  0.2190 -0.2022 -0.1690
  521MOL0     C68659   1.209   2.576   9.438 -0.7592  1.1856  0.3765
  521MOL0     C68660   1.348   2.554   9.395  0.1256  0.3109 -1.0023
  521MOL0     C68661   1.414   2.425   9.445  0.3698  0.0007 -0.4715
  521MOL0     C68662   1.375   2.374   9.587  1.0957 -0.7901 -0.3904
  521MOL0     C68663   1.467   2.254   9.643  0.7851 -0.2920  0.2993
  521MOL0     O68664   1.604   2.300   9.652  0.7147  0.1269  0.4356
  521MOL0     C68665   1.693   2.238   9.738 -0.4216  0.4937 -0.3904
  521MOL0     C68666   1.701   2.105   9.764  0.5537  1.0095  0.1475
  521MOL0     C68667   1.787   2.044   9.860  0.0830 -0.4227 -0.0512
  521MOL0     C68668   1.858   2.139   9.939 -0.6047  0.1659 -0.4112
  521MOL0     C68669   1.935   2.078  10.060 -0.1492 -0.4122  0.1867
  521MOL0     O68670   2.037   2.156  10.107  0.2145 -0.2703  1.2335
  521MOL0     C68671   2.131   2.107  10.200 -0.6499  0.3284  0.8509
  521MOL0     C68672   2.252   2.057  10.154 -0.3673  0.5220  0.1654
  521MOL0     C68673   2.338   2.008  10.246  0.0403  0.5597 -0.2037
  521MOL0     C68674   2.318   2.003  10.385 -0.4364 -0.7797  0.3902
  521MOL0     O68675   2.422   1.974  10.472  0.1687  0.5078 -0.2831
  521MOL0     C68676   2.402   1.912  10.604  0.4408 -0.6017  0.5454
  521MOL0     C68677   2.439   2.022  10.709  0.8455  0.3267 -0.1040
  521MOL0     C68678   2.331   2.061  10.803  0.8905  0.1985  0.1461
  521MOL0     C68679   2.263   1.958  10.903 -0.3574 -0.4865  0.1591
  521MOL0     C68680   2.369   1.901  11.005 -1.2881  0.6797 -0.0519
  521MOL0     C68681   2.414   2.000  11.116  0.0359  0.4481  0.4562
  521MOL0     C68682   2.540   1.946  11.184 -0.9583 -0.5619 -0.1827
  521MOL0     C68683   2.630   2.057  11.249 -0.2621 -1.0016  0.5229
  521MOL0    Cl68684   2.745   1.994  11.374 -0.0518 -0.4025 -0.0655
  521MOL0     C68685   2.192   2.047  10.430 -0.0298  0.1056  0.5126
  521MOL0     C68686   2.098   2.103  10.339  0.2364  0.1539  1.3462
  521MOL0     O68687   1.908   1.963  10.091  0.3620  0.0164  0.0861
  521MOL0     C68688   1.865   2.273   9.901  0.4628 -0.3170  0.2784
  521MOL0     C68689   1.784   2.331   9.805  0.4433  0.5144 -0.1048
  521MOL0     N68690   1.182   2.646   9.557  0.3208  0.4055  0.0721
  521MOL0     N68691   1.054   2.663   9.559 -0.1483  0.4486 -0.0205
  521MOL0     C68692   0.423   1.963  10.058 -0.6579  0.1928  0.1785
  521MOL0     C68693   0.370   1.838  10.083  0.0033  0.6982 -0.1268
  521MOL0     C68694   0.289   1.430  10.241 -0.4690  0.0799  0.3309
  521MOL0     C68695   0.350   1.303  10.235  0.2491  0.0463  0.0608
  521MOL0     C68696   0.289   1.185  10.283 -0.0622  0.2888 -0.8822
  521MOL0     C68697   0.161   1.194  10.343  0.2122 -0.8384 -0.2849
  521MOL0     O68698   0.115   1.085  10.405 -0.2109  0.2051  0.3905
  521MOL0     C68699  -0.019   1.092  10.454  0.1132 -0.3089 -0.1495
  521MOL0     C68700  -0.079   0.970  10.528 -0.0381  0.3152  0.5738
  521MOL0     C68701  -0.004   0.901  10.644 -0.3510  0.8319 -0.5834
  521MOL0     C68702  -0.036   0.754  10.669 -1.3830  0.2194 -0.0992
  521MOL0     C68703  -0.084   0.719  10.802  0.0057 -0.2071  0.6592
  521MOL0     C68704  -0.111   0.690  10.913 -0.4233 -0.3029 -1.0086
  521MOL0     C68705   0.091   1.323  10.327 -0.7431  0.8759 -0.0452
  521MOL0     C68706   0.150   1.437  10.270  0.3008  0.2586 -0.1920
  521MOL0     H68707   0.355   1.863  10.422  0.7970  0.7280 -0.1312
  521MOL0     H68708   0.472   2.071  10.378  0.0417  0.8224 -0.9169
  521MOL0     H68709   0.534   2.352  10.060  0.4562  0.0580 -0.6376
  521MOL0     H68710   0.409   2.258   9.987 -0.0248 -1.7498  1.2490
  521MOL0     H68711   0.576   2.109   9.867 -0.0952 -0.6267  0.5574
  521MOL0     H68712   0.703   2.178   9.967  1.2263  2.4457 -1.9375
  521MOL0     H68713   0.527   2.344   9.783  0.5948  2.4135  2.7849
  521MOL0     H68714   0.653   2.244   9.718 -1.1609  0.5480 -0.4246
  521MOL0     H68715   0.708   2.418   9.972  1.7675 -1.7622  0.0456
  521MOL0     H68716   0.825   2.346   9.867  0.9804 -1.2236 -0.4067
  521MOL0     H68717   0.816   2.577   9.860  2.7038 -5.1957  0.0784
  521MOL0     H68718   0.644   2.585   9.810  0.0255  1.1424  1.2827
  521MOL0     H68719   0.727   2.431   9.609  1.9563 -1.3329  0.3514
  521MOL0     H68720   0.885   2.489   9.646 -1.1792  0.0457 -3.8484
  521MOL0     H68721   0.661   2.664   9.558  0.2217  2.1521  3.6914
  521MOL0     H68722   0.804   2.730   9.614 -2.9365  0.7681  0.7522
  521MOL0     H68723   0.832   2.713   9.375  1.4865  1.4196  2.5598
  521MOL0     H68724   0.821   2.544   9.356 -0.8440  2.6773 -2.0346
  521MOL0     H68725   1.081   2.475   9.300  0.4238  1.2678 -1.3865
  521MOL0     H68726   1.406   2.638   9.434  1.0362 -0.3636 -0.8801
  521MOL0     H68727   1.359   2.563   9.286  2.1411  0.7153 -0.7923
  521MOL0     H68728   1.522   2.441   9.456  0.7107 -2.4041  0.4565
  521MOL0     H68729   1.416   2.339   9.377  3.7299 -2.4512  2.3635
  521MOL0     H68730   1.385   2.461   9.652  0.7875 -0.3715 -0.8861
  521MOL0     H68731   1.274   2.332   9.585  2.2521 -3.8526 -2.6816
  521MOL0     H68732   1.448   2.165   9.582 -2.1561  0.2289  0.3113
  521MOL0     H68733   1.432   2.228   9.743 -0.1054  2.0527  0.6454
  521MOL0     H68734   1.633   2.035   9.717  1.0115 -1.6900  3.1967
  521MOL0     H68735   1.786   1.937   9.877 -1.0876 -0.5847 -1.0270
  521MOL0     H68736   2.272   2.064  10.047 -1.2954  1.9899  0.0573
  521MOL0     H68737   2.435   1.972  10.213 -0.2397 -0.0433 -0.3810
  521MOL0     H68738   2.472   1.828  10.610  0.6224 -0.4543  0.5076
  521MOL0     H68739   2.298   1.879  10.607 -0.0970  0.8935 -0.3198
  521MOL0     H68740   2.469   2.110  10.651 -2.4634 -0.3830 -3.2915
  521MOL0     H68741   2.521   1.977  10.766 -0.4949 -0.2374  1.4526
  521MOL0     H68742   2.254   2.106  10.740  2.2511  0.2606 -1.5600
  521MOL0     H68743   2.372   2.136  10.872  1.1875  0.0488  0.1328
  521MOL0     H68744   2.179   2.005  10.954 -0.2980  0.5154 -0.6321
  521MOL0     H68745   2.236   1.878  10.833 -2.5820  2.4328 -2.6225
  521MOL0     H68746   2.450   1.872  10.936 -0.3847  1.6010  0.5902
  521MOL0     H68747   2.320   1.814  11.050 -0.2701  0.3480  0.4510
  521MOL0     H68748   2.347   1.996  11.202 -0.5591  1.5224  0.0599
  521MOL0     H68749   2.402   2.106  11.095 -2.1686  0.3154  0.8617
  521MOL0     H68750   2.515   1.882  11.269  1.1270 -3.5337 -1.6321
  521MOL0     H68751   2.604   1.893  11.112  1.1569  0.1490  1.0869
  521MOL0     H68752   2.585   2.144  11.298  2.4219  1.0243 -0.3857
  521MOL0     H68753   2.690   2.097  11.167 -2.8499  4.4998  0.8499
  521MOL0     H68754   2.157   2.038  10.533 -2.6452 -1.6813 -0.4076
  521MOL0     H68755   2.000   2.140  10.365 -1.3985 -0.9328 -2.5708
  521MOL0     H68756   1.927   2.344   9.955 -2.0900  0.6071  2.1721
  521MOL0     H68757   1.798   2.432   9.768  1.5791  0.4039  0.0023
  521MOL0     H68758   0.441   1.983   9.953 -0.3033  1.2940  0.4339
  521MOL0     H68759   0.358   1.774   9.996  1.4488  0.4785 -0.1889
  521MOL0     H68760   0.450   1.292  10.195  0.1758  2.9914 -1.1976
  521MOL0     H68761   0.352   1.099  10.301  0.3751  0.4717 -1.5093
  521MOL0     H68762  -0.089   1.114  10.373  1.7467  1.7728 -1.1095
  521MOL0     H68763  -0.033   1.174  10.525  3.0777 -1.4578  1.9720
  521MOL0     H68764  -0.179   1.002  10.559  0.6175  2.0076  1.0381
  521MOL0     H68765  -0.092   0.899  10.445  4.9849 -0.5639  0.2177
  521MOL0     H68766  -0.027   0.964  10.731  0.2474  2.2029 -1.3812
  521MOL0     H68767   0.104   0.912  10.632  0.0977  1.2152  2.6753
  521MOL0     H68768  -0.119   0.735  10.600 -0.8274  2.4800 -1.4769
  521MOL0     H68769   0.050   0.694  10.636 -1.9244  0.6216 -2.4034
  521MOL0     H68770  -0.125   0.669  11.017 -0.1240 -0.7435 -1.0535
  521MOL0     H68771  -0.009   1.330  10.370 -1.7554  2.8485 -2.4906
  521MOL0     H68772   0.097   1.530  10.251 -0.7893 -0.5601 -1.3412
  522MOL0     O68773   8.645   8.088   7.254  0.4103  0.4604 -0.1407
  522MOL0     C68774   8.705   8.021   7.337 -0.9282  0.4568 -0.0707
  522MOL0     O68775   8.666   7.914   7.403  0.1455  0.3410  0.0818
  522MOL0     C68776   8.537   7.867   7.385  0.1036 -0.2875  0.6561
  522MOL0     C68777   8.438   7.927   7.462 -0.1947  0.3931 -0.6490
  522MOL0     C68778   8.314   7.864   7.486  0.5190 -1.0312 -0.6570
  522MOL0     C68779   8.289   7.740   7.429 -0.8413 -0.9818  1.6107
  522MOL0     O68780   8.174   7.679   7.468 -0.7723 -0.3444  0.7687
  522MOL0     C68781   8.167   7.537   7.483 -0.5064 -0.2101 -0.2083
  522MOL0     C68782   8.221   7.487   7.627  0.3914 -0.2488  0.5076
  522MOL0     C68783   8.370   7.453   7.632 -0.3460  0.2694 -0.2428
  522MOL0     C68784   8.415   7.308   7.594  0.6683 -0.3369 -0.3549
  522MOL0     C68785   8.567   7.313   7.538  0.3368 -0.3993  0.3623
  522MOL0     C68786   8.606   7.173   7.483  0.1346 -0.1556 -0.0946
  522MOL0     C68787   8.753   7.152   7.430 -0.1680 -0.9236  0.1539
  522MOL0     C68788   8.822   7.272   7.347  0.1123  0.6522  0.1521
  522MOL0     N68789   8.733   7.322   7.240  0.3622  0.4120  0.5809
  522MOL0     C68790   8.699   7.251   7.133  0.6253  0.0070  0.3022
  522MOL0     C68791   8.611   7.332   7.061 -0.4520  0.6077 -0.5988
  522MOL0     C68792   8.526   7.275   6.937 -0.6004  0.0722 -1.1672
  522MOL0     C68793   8.571   7.317   6.795 -0.9597  0.3407  0.6343
  522MOL0     C68794   8.458   7.357   6.708 -0.3878 -1.2311 -0.0753
  522MOL0     C68795   8.516   7.401   6.568  1.0511 -0.1197 -0.2432
  522MOL0     O68796   8.400   7.452   6.497  0.3525  0.0310 -0.4022
  522MOL0     C68797   8.403   7.491   6.366 -0.6525 -0.2435  0.0246
  522MOL0     C68798   8.289   7.554   6.329 -0.4667 -0.0807 -0.8982
  522MOL0     C68799   8.282   7.600   6.202 -0.6376 -0.5810  0.1575
  522MOL0     C68800   8.398   7.603   6.116  0.2346  0.3298 -0.0989
  522MOL0     C68801   8.396   7.683   5.986  0.5279 -0.0974 -1.4397
  522MOL0     O68802   8.276   7.740   5.955  0.0858 -0.6609  0.6655
  522MOL0     C68803   8.270   7.779   5.820  0.3804  0.0012  0.0162
  522MOL0     C68804   8.160   7.725   5.741  0.0727 -1.2469 -0.8452
  522MOL0     C68805   8.164   7.741   5.604 -0.4954  0.6545 -0.7269
  522MOL0     C68806   8.245   7.826   5.532 -0.2438  1.0475  0.5144
  522MOL0     O68807   8.231   7.831   5.396  0.7525  0.0441 -0.1138
  522MOL0     C68808   8.306   7.926   5.326  0.6786  0.0038 -0.0336
  522MOL0     C68809   8.353   7.885   5.188 -0.3827 -0.3149 -0.8559
  522MOL0     C68810   8.248   7.886   5.068  0.3190  0.1331 -0.5742
  522MOL0     C68811   8.124   7.800   5.099  0.2108  0.3564  0.2133
  522MOL0     C68812   8.009   7.815   5.008  0.0844 -0.7215 -0.3353
  522MOL0     C68813   7.880   7.734   5.037 -1.3944 -1.1389 -0.1406
  522MOL0     C68814   7.758   7.790   4.963 -0.2902 -0.0114 -0.9724
  522MOL0     C68815   7.720   7.703   4.841  0.0732 -0.7090 -0.5208
  522MOL0    Cl68816   7.852   7.659   4.742 -0.1841 -0.3237  0.4747
  522MOL0     C68817   8.337   7.901   5.613 -0.4105  0.3743 -0.3477
  522MOL0     C68818   8.350   7.868   5.752  0.6452  0.4762  0.5107
  522MOL0     O68819   8.502   7.678   5.920  0.2390  0.8807  0.7052
  522MOL0     C68820   8.524   7.549   6.163 -0.1666 -0.1372  0.0869
  522MOL0     C68821   8.524   7.495   6.295  0.9532 -0.6680 -0.0365
  522MOL0     N68822   8.596   7.447   7.129  0.0378 -0.3247 -0.6010
  522MOL0     N68823   8.675   7.445   7.232 -0.6298  0.5331  1.4406
  522MOL0     C68824   8.385   7.687   7.333 -0.5233 -0.3198 -0.2077
  522MOL0     C68825   8.516   7.748   7.323 -0.9701 -0.0527  0.2222
  522MOL0     C68826   8.854   8.053   7.342  0.3668 -0.6582  0.8559
  522MOL0     C68827   8.953   7.963   7.374  0.0447  0.2565 -0.1778
  522MOL0     C68828   9.088   7.997   7.362  0.4801  0.2514  0.0786
  522MOL0     C68829   9.134   8.119   7.308  0.4811  0.0541  0.4360
  522MOL0     O68830   9.267   8.136   7.286  0.5275  0.3097 -0.4472
  522MOL0     C68831   9.313   8.221   7.179  0.2961 -0.2422  0.2275
  522MOL0     C68832   9.456   8.234   7.176  0.7877  0.5385  0.4892
  522MOL0     C68833   9.509   8.299   7.044 -0.2291  0.0583 -0.5385
  522MOL0     C68834   9.638   8.372   7.063  1.0566 -0.2882  0.2783
  522MOL0     C68835   9.668   8.442   6.939  0.6328  0.0462  0.3766
  522MOL0     C68836   9.695   8.502   6.845 -0.8360 -0.4302  0.2016
  522MOL0     C68837   9.028   8.201   7.267 -0.7393 -0.7692 -0.0211
  522MOL0     C68838   8.888   8.181   7.293 -0.9698 -1.0822 -0.5983
  522MOL0     H68839   8.460   8.019   7.515  0.1895 -0.0568 -0.0196
  522MOL0     H68840   8.243   7.916   7.550  0.1910 -1.8440 -0.3516
  522MOL0     H68841   8.229   7.488   7.407  1.0738 -0.1969  1.0204
  522MOL0     H68842   8.060   7.517   7.470 -0.9153  0.0530  2.2403
  522MOL0     H68843   8.165   7.399   7.659  2.6853 -1.8332  0.3063
  522MOL0     H68844   8.195   7.569   7.695  1.3569  0.6958 -0.2229
  522MOL0     H68845   8.411   7.475   7.731  0.3075  2.3833 -0.9360
  522MOL0     H68846   8.424   7.527   7.572  1.9477  1.4050  2.9300
  522MOL0     H68847   8.405   7.238   7.677  2.5087 -2.1073 -1.5160
  522MOL0     H68848   8.361   7.271   7.507  0.7598 -1.5000  0.0607
  522MOL0     H68849   8.641   7.340   7.614  1.3737 -1.3356 -0.2892
  522MOL0     H68850   8.566   7.396   7.467  1.5305 -0.8743 -0.2297
  522MOL0     H68851   8.531   7.158   7.405  1.1417  1.1452 -1.3837
  522MOL0     H68852   8.571   7.098   7.555 -4.0922  0.7468 -0.9487
  522MOL0     H68853   8.826   7.121   7.505  1.0884  4.1765  1.4438
  522MOL0     H68854   8.751   7.080   7.348  2.7516  2.1682 -2.9942
  522MOL0     H68855   8.926   7.247   7.322 -0.9861 -4.5463 -0.4694
  522MOL0     H68856   8.831   7.351   7.421 -2.3429 -1.8612  3.4616
  522MOL0     H68857   8.700   7.142   7.129  2.4555 -0.1811  3.0844
  522MOL0     H68858   8.422   7.292   6.967 -1.0456 -3.2734 -0.3592
  522MOL0     H68859   8.522   7.166   6.947  1.2654 -0.0020 -0.7914
  522MOL0     H68860   8.619   7.232   6.746  2.2153  1.4119  1.6595
  522MOL0     H68861   8.646   7.396   6.801 -2.9775  2.2408  2.9961
  522MOL0     H68862   8.366   7.297   6.708 -3.0001  2.4564  0.1664
  522MOL0     H68863   8.404   7.444   6.745 -1.4750 -1.7772 -0.3275
  522MOL0     H68864   8.547   7.309   6.518 -1.4774 -0.3279 -1.5888
  522MOL0     H68865   8.600   7.470   6.583  1.6238 -1.2575  2.5368
  522MOL0     H68866   8.199   7.553   6.388  0.0643  1.7624 -0.0116
  522MOL0     H68867   8.184   7.628   6.165 -0.5300  3.1395  2.2160
  522MOL0     H68868   8.089   7.656   5.784  0.3328 -1.4749 -0.7770
  522MOL0     H68869   8.101   7.679   5.541  1.7099 -3.4614  0.7823
  522MOL0     H68870   8.402   7.945   5.375 -1.1192  2.4305  2.8954
  522MOL0     H68871   8.245   8.017   5.321 -2.8797 -2.2402 -0.8769
  522MOL0     H68872   8.396   7.785   5.190  2.0690  0.7000  0.8127
  522MOL0     H68873   8.435   7.954   5.169 -1.2643  1.1296  0.4002
  522MOL0     H68874   8.290   7.863   4.970 -1.2083 -2.3529 -0.7184
  522MOL0     H68875   8.211   7.989   5.056  3.0131  1.0834 -1.5150
  522MOL0     H68876   8.161   7.698   5.092 -0.4032  0.1102  0.5246
  522MOL0     H68877   8.085   7.823   5.199  0.1924 -1.4754  0.6611
  522MOL0     H68878   8.034   7.781   4.907  1.3289 -0.7670 -0.0261
  522MOL0     H68879   7.982   7.920   5.003 -2.4845 -1.0339  2.8655
  522MOL0     H68880   7.859   7.738   5.144 -1.4844  1.4206 -0.2040
  522MOL0     H68881   7.918   7.639   4.996  2.4411 -0.3501  1.1518
  522MOL0     H68882   7.676   7.796   5.035 -0.4060 -0.9796 -1.0032
  522MOL0     H68883   7.771   7.897   4.945 -3.1722  1.5465  4.2769
  522MOL0     H68884   7.640   7.753   4.786 -0.9784 -2.2957 -0.5079
  522MOL0     H68885   7.678   7.605   4.868 -0.7393  0.4343  2.8100
  522MOL0     H68886   8.400   7.984   5.581 -2.2654  3.1158  2.4679
  522MOL0     H68887   8.431   7.917   5.805  2.1337 -1.5502  0.2620
  522MOL0     H68888   8.619   7.552   6.110 -1.9233  0.6588 -3.3243
  522MOL0     H68889   8.609   7.441   6.334  2.4684  1.8121  0.3513
  522MOL0     H68890   8.359   7.588   7.298 -3.8813  0.8911 -1.6528
  522MOL0     H68891   8.594   7.693   7.272  1.3770  2.5014  0.7651
  522MOL0     H68892   8.914   7.868   7.411 -0.1843  0.7735  0.9721
  522MOL0     H68893   9.151   7.919   7.403 -1.7170 -0.8276  1.5952
  522MOL0     H68894   9.267   8.320   7.182 -1.5052 -0.8420 -3.0112
  522MOL0     H68895   9.289   8.167   7.087  0.7304 -1.9324  1.0585
  522MOL0     H68896   9.486   8.287   7.266 -0.8262 -0.6002  1.7568
  522MOL0     H68897   9.494   8.133   7.191  0.0941 -0.2441 -2.2917
  522MOL0     H68898   9.429   8.358   6.998 -1.4978  0.4773  2.0223
  522MOL0     H68899   9.525   8.222   6.969 -0.6611 -1.6414  1.0366
  522MOL0     H68900   9.628   8.439   7.148 -1.6894 -0.8995  0.5299
  522MOL0     H68901   9.714   8.294   7.077  1.7722  0.3146 -0.1729
  522MOL0     H68902   9.724   8.561   6.760 -2.7975  3.0310  1.7051
  522MOL0     H68903   9.036   8.282   7.195 -1.5548  1.6606  2.4511
  522MOL0     H68904   8.823   8.252   7.243  0.1861  1.1207  0.8487
  523MOL0     O68905  11.398   8.374   4.228  0.2319 -0.0859  0.1607
  523MOL0     C68906  11.368   8.417   4.114 -0.0718  0.3971 -0.3690
  523MOL0     O68907  11.364   8.546   4.082  0.2497  0.4120  0.6115
  523MOL0     C68908  11.437   8.630   4.167  0.4965  0.0517 -0.4399
  523MOL0     C68909  11.576   8.603   4.211 -0.4435 -0.9548 -0.0473
  523MOL0     C68910  11.642   8.698   4.291  0.1102  0.2454 -0.3255
  523MOL0     C68911  11.572   8.811   4.331 -0.4385 -0.0866 -0.0784
  523MOL0     O68912  11.638   8.896   4.418 -0.7389 -0.2708 -0.3921
  523MOL0     C68913  11.761   8.953   4.363  0.1366 -0.8476  0.1433
  523MOL0     C68914  11.723   9.078   4.300  0.1831  0.1461 -0.0307
  523MOL0     C68915  11.838   9.172   4.266  0.9401 -0.3412  0.1206
  523MOL0     C68916  11.784   9.312   4.206 -0.4891  0.2215 -0.1654
  523MOL0     C68917  11.744   9.406   4.325  0.0712  0.4471  0.2785
  523MOL0     C68918  11.713   9.560   4.291  0.7810 -0.2907  0.1052
  523MOL0     C68919  11.605   9.554   4.175  0.9622  0.6179 -0.2965
  523MOL0     C68920  11.529   9.688   4.138 -1.1384  0.0972 -1.4231
  523MOL0     N68921  11.601   9.803   4.093 -0.4466 -0.3664  0.3189
  523MOL0     C68922  11.570   9.939   4.117  0.6703  0.5561 -0.7802
  523MOL0     C68923  11.650  10.008   4.032 -0.3617  0.0131 -0.4212
  523MOL0     C68924  11.666  10.157   4.011  0.1157  0.9580 -0.1664
  523MOL0     C68925  11.721  10.217   4.139  0.3778  0.1987  0.1519
  523MOL0     C68926  11.704  10.373   4.130 -0.5031  0.5560  0.7192
  523MOL0     C68927  11.716  10.440   4.256 -0.7172 -0.5746 -0.4659
  523MOL0     O68928  11.587  10.422   4.328  0.1996 -0.2128 -0.1039
  523MOL0     C68929  11.530  10.532   4.389 -0.7986  1.2352 -0.3021
  523MOL0     C68930  11.411  10.506   4.454  0.0105  1.1973  0.3092
  523MOL0     C68931  11.350  10.607   4.535 -0.1599  0.3461  1.2859
  523MOL0     C68932  11.413  10.733   4.553  0.1265  0.4333  0.6199
  523MOL0     C68933  11.359  10.834   4.649  0.2107  0.6241 -0.4631
  523MOL0     O68934  11.455  10.926   4.691  0.9968 -0.2935 -0.1856
  523MOL0     C68935  11.402  11.039   4.739  0.3423 -0.7461 -0.0290
  523MOL0     C68936  11.433  11.084   4.870  0.1211  0.5569 -0.8216
  523MOL0     C68937  11.405  11.215   4.902 -0.1794 -0.2413 -0.2096
  523MOL0     C68938  11.335  11.303   4.818  0.6126 -0.0430 -0.8170
  523MOL0     O68939  11.297  11.420   4.868 -0.2304 -0.1644  0.6491
  523MOL0     C68940  11.186  11.500   4.821  0.0085  1.3955 -0.5133
  523MOL0     C68941  11.221  11.615   4.740 -1.0482  0.3379  0.3944
  523MOL0     C68942  11.104  11.710   4.697 -0.2705 -0.3048 -0.6634
  523MOL0     C68943  11.107  11.833   4.786 -0.0627  0.0432 -0.4349
  523MOL0     C68944  10.994  11.932   4.755 -0.9992  0.5251  0.4409
  523MOL0     C68945  11.038  12.031   4.646 -0.4998 -0.6031  0.1967
  523MOL0     C68946  10.960  12.157   4.662 -1.0565  0.4252 -1.2156
  523MOL0     C68947  10.939  12.225   4.527  0.0502  0.7144  0.9698
  523MOL0    Cl68948  10.839  12.360   4.506  0.0193  0.6894 -0.7176
  523MOL0     C68949  11.299  11.258   4.688  0.2493 -0.2205 -0.2722
  523MOL0     C68950  11.336  11.130   4.652 -0.5797  0.6420 -0.9693
  523MOL0     O68951  11.240  10.814   4.693 -0.7948  0.2644  0.1413
  523MOL0     C68952  11.534  10.756   4.499 -0.0875  0.5698  0.2380
  523MOL0     C68953  11.602  10.661   4.415  0.0215  0.0486 -0.4214
  523MOL0     N68954  11.728   9.926   3.953  0.3172  0.6840  0.2770
  523MOL0     N68955  11.691   9.808   3.996  0.1192  0.1624  0.2400
  523MOL0     C68956  11.443   8.840   4.284 -0.1848 -0.2847  0.8383
  523MOL0     C68957  11.378   8.747   4.200 -0.5760  0.4164  0.2513
  523MOL0     C68958  11.328   8.317   4.011 -0.3982 -0.4899  0.3997
  523MOL0     C68959  11.337   8.180   4.025 -1.0523  0.4300 -0.6858
  523MOL0     C68960  11.335   8.092   3.916 -0.3543 -0.0180 -0.8109
  523MOL0     C68961  11.315   8.138   3.783 -0.0863 -0.6227 -0.3666
  523MOL0     O68962  11.301   8.057   3.670 -0.2719  0.1371  0.1198
  523MOL0     C68963  11.192   7.968   3.682 -0.0641  0.5793 -0.1625
  523MOL0     C68964  11.052   8.016   3.720  0.2764 -0.1208 -0.5450
  523MOL0     C68965  10.942   7.919   3.668  0.3800 -0.7984  0.6907
  523MOL0     C68966  10.813   7.984   3.694 -0.0876  0.3163 -0.3539
  523MOL0     C68967  10.694   7.895   3.676  0.3133  0.0151 -0.0316
  523MOL0     C68968  10.606   7.812   3.669  0.3600 -0.0414 -0.7567
  523MOL0     C68969  11.283   8.276   3.764 -0.4761 -0.0259  1.1483
  523MOL0     C68970  11.280   8.363   3.881  0.0238 -0.2169  0.0713
  523MOL0     H68971  11.639   8.517   4.187  0.5222 -0.8109  1.7850
  523MOL0     H68972  11.741   8.674   4.330 -0.5184  3.5664  3.9923
  523MOL0     H68973  11.830   8.893   4.303  1.5391  0.9874 -0.1943
  523MOL0     H68974  11.825   8.991   4.444 -2.3730  2.4560  0.7924
  523MOL0     H68975  11.657   9.129   4.371  0.4196  0.8772 -0.3278
  523MOL0     H68976  11.666   9.062   4.208  1.2803  1.9375 -1.0786
  523MOL0     H68977  11.898   9.117   4.193  0.0626  1.6286 -2.2404
  523MOL0     H68978  11.897   9.184   4.357  0.8848 -2.4715  0.4915
  523MOL0     H68979  11.861   9.367   4.152  1.6406 -0.9900  1.4728
  523MOL0     H68980  11.697   9.296   4.141 -1.1722 -2.7584  1.2937
  523MOL0     H68981  11.825   9.409   4.399 -1.6932  1.3749  2.2926
  523MOL0     H68982  11.655   9.369   4.376 -1.8236  2.8987 -1.0511
  523MOL0     H68983  11.801   9.611   4.250 -0.5581  1.8420 -0.2246
  523MOL0     H68984  11.667   9.607   4.378 -1.1412  2.3558 -2.1666
  523MOL0     H68985  11.648   9.521   4.080  1.0399 -0.4215  0.0880
  523MOL0     H68986  11.524   9.487   4.203  1.0954  1.5468  2.5952
  523MOL0     H68987  11.470   9.729   4.221  0.0371 -2.0796  0.5953
  523MOL0     H68988  11.444   9.670   4.072 -3.5520 -0.1057  1.4998
  523MOL0     H68989  11.486   9.977   4.175  0.2619  0.1113 -1.0701
  523MOL0     H68990  11.574  10.190   3.963 -2.5210 -3.5508  1.1454
  523MOL0     H68991  11.747  10.174   3.940 -0.2193 -0.8352 -1.0240
  523MOL0     H68992  11.828  10.193   4.140  0.5026  0.1766 -2.9965
  523MOL0     H68993  11.671  10.174   4.226 -1.0020 -0.7955 -1.0692
  523MOL0     H68994  11.800  10.394   4.082  0.5607 -4.8460 -0.1615
  523MOL0     H68995  11.615  10.398   4.072  0.6933 -0.7397 -1.8815
  523MOL0     H68996  11.739  10.543   4.226 -3.4582 -0.3113 -2.0031
  523MOL0     H68997  11.803  10.413   4.318 -0.9798  2.3699  1.3809
  523MOL0     H68998  11.379  10.403   4.454  0.8375  0.9067  2.1497
  523MOL0     H68999  11.257  10.588   4.587 -0.1815  0.7301  1.3923
  523MOL0     H69000  11.488  11.007   4.924  0.2922  1.8490  0.9426
  523MOL0     H69001  11.426  11.246   5.004  0.6673  1.3328 -0.8117
  523MOL0     H69002  11.124  11.529   4.907  1.4679  2.2151  0.2934
  523MOL0     H69003  11.128  11.434   4.755 -2.8498  3.0084  0.2025
  523MOL0     H69004  11.279  11.588   4.652 -3.3314  0.5279 -1.2674
  523MOL0     H69005  11.287  11.668   4.810 -1.1025  1.5131 -0.4034
  523MOL0     H69006  11.002  11.673   4.702 -0.1846 -0.6412 -1.3365
  523MOL0     H69007  11.120  11.725   4.590  0.7982 -0.1922 -0.5061
  523MOL0     H69008  11.098  11.791   4.887 -3.8930 -1.6591 -1.3087
  523MOL0     H69009  11.208  11.876   4.781  1.1475 -2.5171  0.0569
  523MOL0     H69010  10.964  11.994   4.840  2.1291  0.6585  1.6101
  523MOL0     H69011  10.909  11.878   4.713  1.1643  0.9706 -5.4909
  523MOL0     H69012  11.026  11.996   4.543  4.3922  2.8712 -1.9536
  523MOL0     H69013  11.145  12.053   4.653  0.2564 -3.7662  0.1760
  523MOL0     H69014  10.860  12.135   4.702 -0.0359  1.0933  1.9646
  523MOL0     H69015  10.996  12.228   4.737  3.8405 -1.6730 -1.2671
  523MOL0     H69016  10.890  12.146   4.469 -0.9208  0.6990  1.7980
  523MOL0     H69017  11.034  12.258   4.483 -0.4661  1.8055  0.6432
  523MOL0     H69018  11.236  11.316   4.621  1.8866 -0.2414 -1.9020
  523MOL0     H69019  11.327  11.089   4.552  4.0897 -1.3493 -0.8526
  523MOL0     H69020  11.597  10.844   4.510 -0.5634  1.0207 -0.5377
  523MOL0     H69021  11.702  10.688   4.384  0.3768  1.8118  1.9586
  523MOL0     H69022  11.392   8.935   4.295  0.9129  0.7114 -1.7568
  523MOL0     H69023  11.274   8.755   4.173 -0.3041  1.4295 -0.5413
  523MOL0     H69024  11.358   8.138   4.123 -2.2437 -0.2438 -0.7019
  523MOL0     H69025  11.357   7.988   3.940  1.2000  0.7825  1.7061
  523MOL0     H69026  11.215   7.882   3.745 -1.0778  0.8487  0.6028
  523MOL0     H69027  11.185   7.915   3.587 -0.3041 -1.6443  1.0388
  523MOL0     H69028  11.051   8.018   3.829  2.1579  0.7633 -0.5108
  523MOL0     H69029  11.034   8.116   3.679  0.4000 -0.2894 -1.0234
  523MOL0     H69030  10.931   7.828   3.727  0.2276 -2.7531 -2.1406
  523MOL0     H69031  10.960   7.901   3.561 -0.4542 -0.3957  0.4734
  523MOL0     H69032  10.805   8.018   3.798 -2.0236  1.8490 -0.9278
  523MOL0     H69033  10.803   8.063   3.619 -1.3220  1.1228  0.6001
  523MOL0     H69034  10.549   7.722   3.664  1.3312 -0.6095 -2.6740
  523MOL0     H69035  11.272   8.298   3.659 -1.6435 -1.2071  1.0050
  523MOL0     H69036  11.261   8.467   3.853  1.6617  0.0281 -0.2309
  524MOL0     O69037   9.553   8.075   8.969  0.2589  0.2131 -0.2834
  524MOL0     C69038   9.539   8.191   9.013 -0.9859  0.8998  0.6689
  524MOL0     O69039   9.597   8.240   9.122  1.0671  0.4545 -0.5036
  524MOL0     C69040   9.718   8.205   9.168 -0.2532  0.0636  0.3958
  524MOL0     C69041   9.815   8.145   9.083  0.1761 -0.5794  0.3513
  524MOL0     C69042   9.943   8.104   9.140 -0.0622 -0.3896 -0.1196
  524MOL0     C69043   9.976   8.126   9.275  0.9154  0.1252  1.1134
  524MOL0     O69044  10.098   8.093   9.329  0.2077  0.0132 -0.1565
  524MOL0     C69045  10.158   7.973   9.275  0.3621 -1.8263 -0.0834
  524MOL0     C69046  10.263   7.924   9.370  0.0216  0.1623 -0.0010
  524MOL0     C69047  10.215   7.898   9.520 -0.1423 -0.3241  0.0864
  524MOL0     C69048  10.321   7.835   9.607  0.3667 -0.5487  1.3100
  524MOL0     C69049  10.289   7.846   9.758 -0.1605  0.8070  0.0757
  524MOL0     C69050  10.313   7.984   9.823  1.4628 -0.3547  0.3155
  524MOL0     C69051  10.275   7.996   9.965  0.1130 -0.2958  0.2372
  524MOL0     C69052  10.377   7.918  10.052  0.2292  0.4110  0.2502
  524MOL0     N69053  10.318   7.915  10.187  0.3135  0.3019  0.7209
  524MOL0     C69054  10.310   7.796  10.261 -0.0914 -0.4796  0.5531
  524MOL0     C69055  10.233   7.825  10.369  0.4072  0.2018  0.4134
  524MOL0     C69056  10.200   7.708  10.459  0.2834 -0.2252 -0.4352
  524MOL0     C69057  10.075   7.631  10.403  0.2560  0.9790 -0.1814
  524MOL0     C69058   9.937   7.705  10.408  0.2593  0.9479  0.8029
  524MOL0     C69059   9.877   7.717  10.552  0.0108 -0.4248 -0.1038
  524MOL0     O69060   9.865   7.588  10.605 -0.6167  0.1242 -0.7802
  524MOL0     C69061   9.763   7.517  10.549  0.5523 -0.7405  0.2193
  524MOL0     C69062   9.790   7.391  10.510 -0.6019  0.3945  0.5972
  524MOL0     C69063   9.692   7.303  10.466  0.3685 -0.1227 -0.0926
  524MOL0     C69064   9.559   7.344  10.461 -0.4351  0.0132 -0.6616
  524MOL0     C69065   9.450   7.257  10.427  0.1116  0.8824 -0.6741
  524MOL0     O69066   9.322   7.317  10.445  0.0726 -0.3601 -0.0940
  524MOL0     C69067   9.208   7.243  10.440 -0.1897  0.1194  0.3032
  524MOL0     C69068   9.097   7.293  10.371 -0.1950 -0.8862  0.6922
  524MOL0     C69069   8.977   7.218  10.372 -0.3762  1.2810  0.3010
  524MOL0     C69070   8.978   7.090  10.427  0.2055 -0.2805 -0.5965
  524MOL0     O69071   8.865   7.008  10.407 -0.1883 -0.5797 -0.9516
  524MOL0     C69072   8.875   6.875  10.357 -0.2729 -0.9711 -0.2433
  524MOL0     C69073   8.744   6.823  10.300  0.1014  0.1717  0.0881
  524MOL0     C69074   8.682   6.908  10.194  0.1794  0.0382  1.2612
  524MOL0     C69075   8.557   6.844  10.138 -0.4654 -0.8226 -0.4028
  524MOL0     C69076   8.524   6.907   9.999  0.0074 -0.0495 -0.3938
  524MOL0     C69077   8.457   7.045  10.007 -0.4925 -0.4212 -1.0826
  524MOL0     C69078   8.366   7.079   9.887 -0.1918  0.2976 -0.5564
  524MOL0     C69079   8.369   7.222   9.852 -0.3087  0.2647  0.4674
  524MOL0    Cl69080   8.327   7.334   9.989 -0.3114 -0.1052 -0.0458
  524MOL0     C69081   9.088   7.034  10.491 -0.2375 -0.1060  0.2658
  524MOL0     C69082   9.204   7.120  10.503  0.9002 -0.2622  0.3420
  524MOL0     O69083   9.474   7.139  10.387  0.3833  0.2781  0.4130
  524MOL0     C69084   9.542   7.479  10.501  0.2066  0.3080  0.7515
  524MOL0     C69085   9.640   7.564  10.536 -0.2982  0.8544  0.0274
  524MOL0     N69086  10.206   7.957  10.363  0.6469 -0.1370 -0.5027
  524MOL0     N69087  10.253   8.016  10.254  0.3209 -0.2412  0.3468
  524MOL0     C69088   9.881   8.183   9.358  0.3286 -0.0279  1.0661
  524MOL0     C69089   9.756   8.229   9.301  1.4450  0.8183 -0.0731
  524MOL0     C69090   9.451   8.268   8.929  0.0421 -0.1854  0.4948
  524MOL0     C69091   9.417   8.232   8.797 -0.3691 -0.0076  0.1180
  524MOL0     C69092   9.332   8.319   8.720 -1.3972 -0.2391 -0.4411
  524MOL0     C69093   9.268   8.427   8.782 -0.1029 -0.0602  0.7335
  524MOL0     O69094   9.169   8.503   8.737 -1.0159  0.5521  0.4099
  524MOL0     C69095   9.058   8.440   8.665  0.0533 -0.0231  0.4413
  524MOL0     C69096   8.971   8.337   8.750 -0.4920 -1.1305  0.3846
  524MOL0     C69097   8.848   8.278   8.672  0.2148 -0.3047 -0.6637
  524MOL0     C69098   8.794   8.150   8.747 -0.6125 -1.0041 -0.8490
  524MOL0     C69099   8.671   8.097   8.674  0.0091  0.3957 -0.6135
  524MOL0     C69100   8.569   8.058   8.624  0.7130  0.3859  0.7378
  524MOL0     C69101   9.306   8.460   8.915  0.0668 -0.8433 -0.1566
  524MOL0     C69102   9.394   8.385   8.990 -0.0865 -0.2286 -0.4118
  524MOL0     H69103   9.804   8.118   8.978  2.2942  2.5020 -0.8111
  524MOL0     H69104  10.026   8.069   9.079  3.0134  1.3941  2.6694
  524MOL0     H69105  10.211   8.004   9.184 -3.0269  1.6447 -1.1583
  524MOL0     H69106  10.098   7.887   9.242 -1.9230 -0.3169 -0.1057
  524MOL0     H69107  10.340   8.002   9.378 -2.4855  2.9966 -1.4442
  524MOL0     H69108  10.309   7.831   9.337  1.5415  0.5847  0.8049
  524MOL0     H69109  10.134   7.825   9.527  0.4730 -1.1852 -1.3968
  524MOL0     H69110  10.176   7.986   9.573 -1.9496  0.0762 -1.8144
  524MOL0     H69111  10.329   7.729   9.585 -2.7737 -0.9800  1.8548
  524MOL0     H69112  10.417   7.879   9.577  0.2171 -1.2006 -0.2224
  524MOL0     H69113  10.372   7.789   9.801  0.7857 -0.3489 -3.0531
  524MOL0     H69114  10.197   7.801   9.797  0.9659 -0.6952  1.0780
  524MOL0     H69115  10.265   8.055   9.755  0.2367 -1.9915 -0.5742
  524MOL0     H69116  10.418   8.010   9.806  2.1262 -2.7071  0.4580
  524MOL0     H69117  10.280   8.102   9.990  2.5808 -0.5305  0.9914
  524MOL0     H69118  10.171   7.964   9.979  0.6067 -2.1151 -0.0235
  524MOL0     H69119  10.476   7.966  10.047  0.7198 -0.6297 -0.5881
  524MOL0     H69120  10.399   7.816  10.019 -2.2888 -0.1588  0.1759
  524MOL0     H69121  10.352   7.702  10.225 -0.4433 -0.8334  1.0428
  524MOL0     H69122  10.180   7.755  10.556  2.4736  1.6541 -0.8073
  524MOL0     H69123  10.289   7.649  10.482  0.4685 -0.3225 -1.3852
  524MOL0     H69124  10.072   7.537  10.459  2.1866  0.6834 -0.5000
  524MOL0     H69125  10.088   7.597  10.300 -2.4147  1.9053 -0.8975
  524MOL0     H69126   9.955   7.803  10.365 -2.6293 -0.6998 -5.2898
  524MOL0     H69127   9.862   7.664  10.340 -2.5526  4.0611  1.7522
  524MOL0     H69128   9.787   7.779  10.550  0.4391  0.2004 -0.2508
  524MOL0     H69129   9.940   7.760  10.630 -0.4746  2.2938 -1.0990
  524MOL0     H69130   9.890   7.349  10.512 -0.6884  0.0585 -0.9367
  524MOL0     H69131   9.723   7.204  10.434 -2.3808 -1.4721  1.1146
  524MOL0     H69132   9.091   7.397  10.338  0.1389 -1.5345 -1.6056
  524MOL0     H69133   8.884   7.250  10.325 -1.1752  2.4185  2.4935
  524MOL0     H69134   8.912   6.812  10.439 -1.0460  2.0326  2.6332
  524MOL0     H69135   8.954   6.875  10.281  1.7787  0.7183  1.7329
  524MOL0     H69136   8.664   6.820  10.375 -0.5061 -0.0563 -0.5454
  524MOL0     H69137   8.762   6.720  10.267  1.4801 -0.2028  1.9210
  524MOL0     H69138   8.752   6.915  10.110  1.3964 -0.6997  2.1737
  524MOL0     H69139   8.668   7.014  10.220  1.5502  0.3771  0.6959
  524MOL0     H69140   8.579   6.739  10.122  0.2703 -0.8132  0.4562
  524MOL0     H69141   8.470   6.857  10.205 -0.3823  1.1675 -0.6130
  524MOL0     H69142   8.453   6.847   9.941  0.4087  0.4136 -1.3820
  524MOL0     H69143   8.618   6.922   9.945  0.1073  1.4217  0.1490
  524MOL0     H69144   8.546   7.108  10.006 -0.9416  0.2981  0.9014
  524MOL0     H69145   8.407   7.058  10.103  2.5064 -1.1336  0.7312
  524MOL0     H69146   8.404   7.025   9.800  1.0759 -1.5781  1.0843
  524MOL0     H69147   8.263   7.053   9.912 -0.2807 -0.3819 -1.5558
  524MOL0     H69148   8.301   7.240   9.769 -0.3369 -1.9559 -0.0459
  524MOL0     H69149   8.469   7.258   9.823  0.3384 -1.2996  0.6451
  524MOL0     H69150   9.073   6.932  10.526  0.6161 -2.1798 -4.6682
  524MOL0     H69151   9.296   7.085  10.549  2.6011 -0.6765 -3.0306
  524MOL0     H69152   9.438   7.509  10.495  0.3736  0.5509 -1.5564
  524MOL0     H69153   9.617   7.669  10.554 -0.6761  0.5236  1.6248
  524MOL0     H69154   9.908   8.190   9.463  0.5469 -2.4097  1.2316
  524MOL0     H69155   9.691   8.287   9.365  0.4262  3.4724 -3.2020
  524MOL0     H69156   9.449   8.138   8.754  1.8052  0.1150  1.3466
  524MOL0     H69157   9.320   8.295   8.615 -0.6063 -0.9882 -0.3732
  524MOL0     H69158   9.100   8.393   8.576  1.8285 -0.8276  1.6442
  524MOL0     H69159   8.994   8.519   8.623  1.1583  0.2137 -0.8621
  524MOL0     H69160   9.033   8.252   8.783  0.9074 -0.6663 -0.9512
  524MOL0     H69161   8.925   8.385   8.837 -2.1629 -2.7385  0.4571
  524MOL0     H69162   8.890   8.263   8.572 -1.2732  0.8402 -1.4984
  524MOL0     H69163   8.771   8.356   8.670  0.8157  0.3165 -2.7345
  524MOL0     H69164   8.870   8.073   8.733 -2.8386 -3.2512 -1.3950
  524MOL0     H69165   8.783   8.173   8.853  4.8764 -0.1522 -0.1618
  524MOL0     H69166   8.482   8.009   8.587  0.6502  2.2735 -1.8277
  524MOL0     H69167   9.245   8.534   8.966 -0.6478 -0.0518 -2.0876
  524MOL0     H69168   9.413   8.426   9.089 -0.8239 -4.1937  1.5707
  525MOL0     O69169   5.404   1.847  11.069 -0.0053 -0.0344 -0.8668
  525MOL0     C69170   5.497   1.926  11.053  0.7150 -0.5085  0.3971
  525MOL0     O69171   5.498   2.054  11.099  0.1502 -0.0203 -0.3744
  525MOL0     C69172   5.399   2.076  11.193 -0.1744 -0.0241 -0.4482
  525MOL0     C69173   5.378   2.012  11.313 -0.4054 -0.2703 -0.3408
  525MOL0     C69174   5.275   2.043  11.403  0.3509 -0.2548  0.3601
  525MOL0     C69175   5.205   2.157  11.386  0.4960 -0.2806  0.1133
  525MOL0     O69176   5.104   2.191  11.467  0.3739  0.8204 -0.1870
  525MOL0     C69177   5.096   2.139  11.604  0.3882  1.0611  1.2367
  525MOL0     C69178   4.977   2.204  11.670 -0.3847  0.0852 -0.0258
  525MOL0     C69179   4.961   2.347  11.641 -0.2482 -0.5065 -0.0709
  525MOL0     C69180   4.838   2.409  11.712  0.0807 -0.8523 -0.4147
  525MOL0     C69181   4.826   2.557  11.711 -0.2296 -0.6036  0.6090
  525MOL0     C69182   4.744   2.606  11.840 -0.3409  0.8219 -0.1679
  525MOL0     C69183   4.716   2.756  11.834  0.6998 -0.1456 -0.3146
  525MOL0     C69184   4.636   2.824  11.946 -1.0231 -0.1388 -0.8412
  525MOL0     N69185   4.697   2.823  12.077 -0.2194 -0.0853 -0.0077
  525MOL0     C69186   4.824   2.864  12.102 -0.4915 -1.0284  0.5691
  525MOL0     C69187   4.842   2.850  12.238  0.4783  0.0196 -0.6187
  525MOL0     C69188   4.968   2.861  12.315  0.4008  0.5760 -1.6834
  525MOL0     C69189   5.030   2.732  12.358 -0.0409 -0.0923  0.4470
  525MOL0     C69190   5.113   2.663  12.240  0.4657  0.6111  0.3754
  525MOL0     C69191   5.029   2.554  12.164  0.4225 -0.4409 -0.7209
  525MOL0     O69192   5.105   2.470  12.078  0.2250  0.4370 -0.0556
  525MOL0     C69193   5.141   2.532  11.962  0.0070  0.7945 -0.4340
  525MOL0     C69194   5.099   2.658  11.909 -0.8825  0.2452  0.7470
  525MOL0     C69195   5.172   2.715  11.800  0.6892  0.6246 -0.1775
  525MOL0     C69196   5.282   2.648  11.747 -0.4261  0.0392 -0.0749
  525MOL0     C69197   5.370   2.713  11.645 -0.5433  0.3551 -0.1122
  525MOL0     O69198   5.483   2.653  11.605 -0.5501  1.5313  0.7004
  525MOL0     C69199   5.549   2.688  11.487 -0.0096  0.4880  0.8307
  525MOL0     C69200   5.525   2.628  11.362 -1.0296  0.5471 -0.3769
  525MOL0     C69201   5.590   2.665  11.249  0.1209  0.7940 -0.2168
  525MOL0     C69202   5.675   2.771  11.257 -0.1088 -0.0375 -0.9123
  525MOL0     O69203   5.741   2.799  11.143  0.0791  0.3473 -0.0817
  525MOL0     C69204   5.878   2.860  11.159  0.5889 -0.7229  0.7317
  525MOL0     C69205   5.941   2.872  11.020  0.1759  1.1384 -0.5823
  525MOL0     C69206   6.064   2.959  10.995  0.4209  0.5915 -0.7730
  525MOL0     C69207   6.060   3.097  11.062 -0.4423 -0.9410  0.8644
  525MOL0     C69208   6.159   3.197  11.002 -0.2923 -0.5109 -0.0081
  525MOL0     C69209   6.149   3.341  11.047 -1.0343  0.0939 -1.0515
  525MOL0     C69210   6.278   3.405  10.994  0.7404 -0.5695 -0.4627
  525MOL0     C69211   6.396   3.404  11.103  0.0522 -0.2589  0.5326
  525MOL0    Cl69212   6.345   3.505  11.242  0.0360 -0.2911  0.0767
  525MOL0     C69213   5.694   2.846  11.371  0.4261  0.3618  0.0516
  525MOL0     C69214   5.631   2.800  11.488 -0.7757 -0.1554  0.8840
  525MOL0     O69215   5.323   2.824  11.613  0.7943  1.3334 -0.1475
  525MOL0     C69216   5.310   2.516  11.786  0.8916 -0.3706 -0.6370
  525MOL0     C69217   5.245   2.464  11.901 -0.0037 -0.4539  0.3272
  525MOL0     N69218   4.717   2.807  12.292  0.1602  0.8777  0.6241
  525MOL0     N69219   4.629   2.802  12.193  0.1511 -0.3628 -0.1126
  525MOL0     C69220   5.229   2.232  11.266 -0.0320  0.8875 -0.2840
  525MOL0     C69221   5.326   2.191  11.178  0.0666  0.0080  0.3970
  525MOL0     C69222   5.604   1.892  10.969 -0.1156  0.1542  0.3152
  525MOL0     C69223   5.623   1.759  10.934 -0.3556 -0.3927  0.3721
  525MOL0     C69224   5.723   1.718  10.853  0.4296  0.3494 -0.1281
  525MOL0     C69225   5.817   1.806  10.806 -0.9409  0.3594  0.5168
  525MOL0     O69226   5.918   1.750  10.724  0.7504 -0.6277 -0.7667
  525MOL0     C69227   5.965   1.809  10.605 -0.2196  0.4878 -0.3297
  525MOL0     C69228   5.963   1.717  10.482  0.3654 -0.1127  0.4855
  525MOL0     C69229   6.064   1.601  10.503  0.1442 -0.5436 -0.5513
  525MOL0     C69230   6.071   1.500  10.393  0.4238  0.5895 -0.5380
  525MOL0     C69231   5.944   1.427  10.375  0.1686  0.0388 -1.2980
  525MOL0     C69232   5.851   1.352  10.353 -0.1596  0.5586 -0.5634
  525MOL0     C69233   5.810   1.943  10.838 -0.0815 -0.1827 -0.7675
  525MOL0     C69234   5.701   1.989  10.915  0.8792 -0.0989 -0.7496
  525MOL0     H69235   5.428   1.920  11.342 -3.0489 -1.8283 -0.4034
  525MOL0     H69236   5.260   1.984  11.493 -1.1049  1.8988  1.5994
  525MOL0     H69237   5.186   2.165  11.660  1.2285  5.6692 -1.6926
  525MOL0     H69238   5.063   2.036  11.619 -2.4766  1.8189  0.6584
  525MOL0     H69239   4.989   2.181  11.777  1.6588  0.8053 -0.0561
  525MOL0     H69240   4.891   2.145  11.637  0.6057 -1.6527  0.3484
  525MOL0     H69241   4.955   2.356  11.533  3.3325 -1.6419 -0.4984
  525MOL0     H69242   5.058   2.395  11.659 -1.8241  1.8291  3.3705
  525MOL0     H69243   4.758   2.366  11.651 -2.3040  0.9607  1.2030
  525MOL0     H69244   4.831   2.374  11.815 -0.9733  0.5551  0.0311
  525MOL0     H69245   4.770   2.593  11.624 -0.5843  0.3396  1.2051
  525MOL0     H69246   4.922   2.608  11.704 -1.7038  2.1508 -2.2949
  525MOL0     H69247   4.804   2.587  11.930  0.0506 -0.0219 -0.6006
  525MOL0     H69248   4.647   2.555  11.843  1.1068 -2.1114  0.5973
  525MOL0     H69249   4.818   2.794  11.832  0.2250  1.3479  1.2945
  525MOL0     H69250   4.662   2.771  11.740 -0.5000 -0.7585  0.2437
  525MOL0     H69251   4.543   2.765  11.942 -0.1884 -1.4237 -2.5906
  525MOL0     H69252   4.628   2.930  11.920  0.0605  0.1613  0.0018
  525MOL0     H69253   4.896   2.906  12.033 -3.2595  1.9643 -0.7522
  525MOL0     H69254   4.933   2.914  12.405 -1.6739  0.5609 -2.4303
  525MOL0     H69255   5.046   2.919  12.266  1.5814  2.4323  2.0227
  525MOL0     H69256   4.956   2.657  12.388  0.8320 -0.0359  2.9516
  525MOL0     H69257   5.087   2.747  12.450  1.8381 -3.0328 -0.1142
  525MOL0     H69258   5.152   2.748  12.182  1.4554 -0.0055  0.1166
  525MOL0     H69259   5.204   2.620  12.283  1.6129  2.6922  0.1718
  525MOL0     H69260   4.947   2.605  12.112  2.0005  0.6080 -2.3045
  525MOL0     H69261   4.970   2.488  12.228 -1.4846  1.3257 -0.5526
  525MOL0     H69262   5.018   2.711  11.957 -0.8004 -0.6039  1.8906
  525MOL0     H69263   5.149   2.816  11.768 -0.3608  1.0638  1.8409
  525MOL0     H69264   5.467   2.538  11.347  2.5556 -1.7212 -1.9479
  525MOL0     H69265   5.576   2.615  11.154  1.0867  4.9073 -2.7897
  525MOL0     H69266   5.936   2.795  11.225  2.3620 -0.4252 -0.4760
  525MOL0     H69267   5.857   2.962  11.192 -1.3335 -0.5798 -0.7961
  525MOL0     H69268   5.855   2.918  10.971 -2.0090 -1.2066  0.8235
  525MOL0     H69269   5.969   2.774  10.980  1.4432  2.2475 -2.5877
  525MOL0     H69270   6.064   2.971  10.886 -2.9178  1.0765 -0.8063
  525MOL0     H69271   6.155   2.902  11.016 -0.2115 -0.4133 -0.7282
  525MOL0     H69272   5.964   3.144  11.039  1.0898  1.9642 -0.0918
  525MOL0     H69273   6.076   3.084  11.169 -1.5249 -1.4828  0.9700
  525MOL0     H69274   6.144   3.208  10.894  1.7718  2.1295 -0.1352
  525MOL0     H69275   6.257   3.156  11.029 -0.4390 -0.2861  0.8720
  525MOL0     H69276   6.158   3.350  11.156 -0.3279 -0.4644 -1.0524
  525MOL0     H69277   6.062   3.397  11.011 -0.1672  0.5327 -2.5602
  525MOL0     H69278   6.309   3.342  10.910  2.7702 -0.7447  0.3644
  525MOL0     H69279   6.258   3.501  10.946 -0.0613  0.0307  1.0282
  525MOL0     H69280   6.483   3.460  11.067 -1.2881  2.8769  1.7642
  525MOL0     H69281   6.436   3.309  11.139  1.4784  1.2029  3.0912
  525MOL0     H69282   5.752   2.938  11.377 -0.3188  0.7734  1.3322
  525MOL0     H69283   5.634   2.859  11.579 -1.4111  2.0223 -0.4367
  525MOL0     H69284   5.381   2.460  11.727 -1.5479 -3.7931 -0.6409
  525MOL0     H69285   5.269   2.364  11.935  0.9892 -0.2909  0.1148
  525MOL0     H69286   5.174   2.320  11.236  0.6153  1.8928  1.3835
  525MOL0     H69287   5.343   2.248  11.087  1.9426  0.2622  0.8633
  525MOL0     H69288   5.551   1.681  10.953 -0.3892 -0.4429  0.0383
  525MOL0     H69289   5.729   1.612  10.829 -1.7499 -0.0081  0.6883
  525MOL0     H69290   6.068   1.829  10.637 -0.9335  1.5888  1.4151
  525MOL0     H69291   5.916   1.906  10.590 -2.2295 -0.0097  2.3035
  525MOL0     H69292   5.858   1.691  10.468 -0.1585  0.9731  2.0988
  525MOL0     H69293   5.983   1.783  10.398  0.0916  0.2157  0.6751
  525MOL0     H69294   6.026   1.548  10.591 -1.7012 -2.3623 -2.3378
  525MOL0     H69295   6.164   1.635  10.533 -0.9846  1.5668  1.0958
  525MOL0     H69296   6.083   1.552  10.297 -2.3727  4.8179  1.1028
  525MOL0     H69297   6.157   1.436  10.416 -0.2217  0.2298  0.9687
  525MOL0     H69298   5.760   1.301  10.328  0.5407  0.3460 -2.8278
  525MOL0     H69299   5.874   2.011  10.782 -1.2321  0.1875 -1.6734
  525MOL0     H69300   5.680   2.095  10.924 -2.0674 -0.6123 -0.5753
  526MOL0     O69301   9.900   7.624   4.285 -0.0019  0.2693  0.1796
  526MOL0     C69302   9.777   7.614   4.280 -0.1354 -0.5569 -0.0317
  526MOL0     O69303   9.698   7.533   4.361 -0.6780  0.6427 -0.3708
  526MOL0     C69304   9.744   7.461   4.470  0.9951 -0.5153  0.1878
  526MOL0     C69305   9.639   7.374   4.511  0.5185  0.7395  0.6380
  526MOL0     C69306   9.664   7.297   4.624 -1.1725 -0.8317  0.1607
  526MOL0     C69307   9.777   7.321   4.704  0.2654 -0.5324 -0.8903
  526MOL0     O69308   9.809   7.258   4.830  0.8841  1.0313  0.0295
  526MOL0     C69309   9.710   7.178   4.905 -0.4357  0.1488 -0.5402
  526MOL0     C69310   9.611   7.253   4.991 -0.5812  0.0467  0.2698
  526MOL0     C69311   9.478   7.313   4.945  0.2655 -0.5245 -0.1346
  526MOL0     C69312   9.403   7.362   5.071  0.1080  0.0125 -0.7082
  526MOL0     C69313   9.296   7.466   5.030  0.2687 -0.0371  0.2664
  526MOL0     C69314   9.253   7.533   5.157  0.0240 -1.2925  0.4171
  526MOL0     C69315   9.117   7.598   5.155 -0.6490 -0.8610 -0.2251
  526MOL0     C69316   8.986   7.521   5.127  1.0499  0.6239 -0.5740
  526MOL0     N69317   8.968   7.405   5.223  0.0946 -0.6321  0.5850
  526MOL0     C69318   9.024   7.281   5.214 -0.3468 -0.1540 -0.8404
  526MOL0     C69319   9.001   7.227   5.334 -0.7138 -0.5454  0.0018
  526MOL0     C69320   9.051   7.092   5.372  0.8213 -0.4703  0.0258
  526MOL0     C69321   9.171   7.102   5.471 -0.3075  0.5071  0.1807
  526MOL0     C69322   9.255   6.983   5.474  0.3459 -0.1736  0.3199
  526MOL0     C69323   9.355   6.981   5.589  0.1392  0.5623  0.1117
  526MOL0     O69324   9.298   6.995   5.711  0.2288 -0.5855  0.5541
  526MOL0     C69325   9.356   6.936   5.817  0.0334  0.6902  0.4851
  526MOL0     C69326   9.484   6.877   5.825  0.0804  0.1090 -0.2797
  526MOL0     C69327   9.551   6.853   5.946 -0.0621  0.0612  0.3543
  526MOL0     C69328   9.469   6.863   6.060 -0.4282  0.1878  0.1399
  526MOL0     C69329   9.523   6.837   6.197 -0.8711 -0.2649 -0.2623
  526MOL0     O69330   9.633   6.753   6.204 -0.0334 -0.1243 -0.2787
  526MOL0     C69331   9.663   6.711   6.328  0.1768  0.0446 -0.6230
  526MOL0     C69332   9.688   6.799   6.436  0.4414 -0.8347  0.2059
  526MOL0     C69333   9.714   6.754   6.571 -0.1079  0.1737  0.2034
  526MOL0     C69334   9.722   6.615   6.596  0.6832  0.1858  0.0153
  526MOL0     O69335   9.753   6.579   6.722 -0.7499  0.4455 -0.8593
  526MOL0     C69336   9.779   6.444   6.767  0.0738  0.0188 -0.4964
  526MOL0     C69337   9.750   6.451   6.919 -0.7726 -1.1032 -0.2535
  526MOL0     C69338   9.783   6.314   6.978 -0.0735  0.3051  0.4796
  526MOL0     C69339   9.738   6.311   7.127 -0.4447 -0.0213 -0.0563
  526MOL0     C69340   9.809   6.204   7.200 -0.5110 -0.5732 -0.4855
  526MOL0     C69341   9.759   6.068   7.158  0.6526  0.7903  1.2129
  526MOL0     C69342   9.789   5.956   7.258 -0.3947  0.2184  0.3504
  526MOL0     C69343   9.666   5.946   7.357 -0.9332 -0.2442  0.0923
  526MOL0    Cl69344   9.704   5.800   7.471 -0.2515 -0.5740 -0.0049
  526MOL0     C69345   9.709   6.522   6.484  0.1054 -0.2109  0.2335
  526MOL0     C69346   9.679   6.573   6.358 -0.1306 -0.8166  1.0144
  526MOL0     O69347   9.464   6.896   6.290  0.3343  0.6539 -0.2000
  526MOL0     C69348   9.333   6.913   6.056 -0.0713 -0.1156 -0.4756
  526MOL0     C69349   9.279   6.949   5.933 -0.1661  0.1487 -0.0586
  526MOL0     N69350   8.916   7.304   5.402 -0.4666 -1.1362  0.2189
  526MOL0     N69351   8.893   7.419   5.338 -1.0033  0.3225 -0.0510
  526MOL0     C69352   9.879   7.405   4.655 -1.3053  0.0136 -0.0677
  526MOL0     C69353   9.863   7.473   4.535 -0.4453 -0.5821 -0.7212
  526MOL0     C69354   9.702   7.705   4.191 -0.1155  0.3213 -0.9460
  526MOL0     C69355   9.757   7.793   4.108 -0.7474 -0.0245  0.2685
  526MOL0     C69356   9.679   7.872   4.028 -0.0297 -0.5977 -1.0714
  526MOL0     C69357   9.537   7.856   4.017 -0.4540  0.1427 -0.3416
  526MOL0     O69358   9.448   7.928   3.941 -0.1708  0.2073 -1.2642
  526MOL0     C69359   9.478   8.068   3.916  0.1438  0.5983 -0.4677
  526MOL0     C69360   9.405   8.104   3.789  1.0106  0.0975  0.8945
  526MOL0     C69361   9.454   8.034   3.661 -0.1189 -0.4938  0.2579
  526MOL0     C69362   9.385   8.097   3.534 -0.1209 -0.5242 -0.1934
  526MOL0     C69363   9.393   8.002   3.422 -0.0727  0.0554  0.4449
  526MOL0     C69364   9.397   7.921   3.330 -0.4820 -0.5100 -0.9987
  526MOL0     C69365   9.477   7.755   4.092 -1.0117  0.5281  0.6982
  526MOL0     C69366   9.563   7.686   4.183  0.4013  0.1862  0.3538
  526MOL0     H69367   9.550   7.371   4.449  0.5231 -3.2477  0.5600
  526MOL0     H69368   9.602   7.222   4.674 -2.3859 -0.3500 -0.5761
  526MOL0     H69369   9.763   7.113   4.975 -3.3073 -0.2701  1.4118
  526MOL0     H69370   9.656   7.105   4.845 -3.4360  0.3341  1.7179
  526MOL0     H69371   9.668   7.338   5.030 -3.3563  0.4678  3.9374
  526MOL0     H69372   9.586   7.182   5.070 -0.6269 -0.5601 -0.2843
  526MOL0     H69373   9.419   7.245   4.883  1.6717 -0.3408 -1.7376
  526MOL0     H69374   9.501   7.398   4.880  0.1188 -1.7969 -1.9342
  526MOL0     H69375   9.359   7.282   5.131 -0.8355  1.5556  0.7494
  526MOL0     H69376   9.470   7.411   5.143  0.7797 -1.9186  0.0362
  526MOL0     H69377   9.214   7.414   4.978  1.7906 -1.1597 -1.1123
  526MOL0     H69378   9.327   7.534   4.951  1.2768  2.5181  2.7123
  526MOL0     H69379   9.319   7.618   5.179 -0.6673 -0.1041 -1.7484
  526MOL0     H69380   9.258   7.459   5.237 -0.3838 -2.0033 -0.1977
  526MOL0     H69381   9.105   7.652   5.249 -4.1557 -0.1902 -0.9472
  526MOL0     H69382   9.132   7.674   5.077  1.0077 -0.8656  0.0437
  526MOL0     H69383   8.989   7.477   5.027  1.5210 -0.7059 -0.0088
  526MOL0     H69384   8.900   7.589   5.134 -0.8082 -1.7490  3.5710
  526MOL0     H69385   9.088   7.241   5.136  0.6432  1.6296 -0.9925
  526MOL0     H69386   9.079   7.031   5.286 -0.3906 -0.0648 -0.6744
  526MOL0     H69387   8.969   7.035   5.417 -2.7716  1.9746 -2.8398
  526MOL0     H69388   9.125   7.119   5.569 -3.2479 -0.9539 -0.8371
  526MOL0     H69389   9.241   7.184   5.448 -1.1026  1.3394  0.6739
  526MOL0     H69390   9.178   6.911   5.504 -0.0118 -0.0007 -0.1757
  526MOL0     H69391   9.293   6.958   5.375 -1.5166  1.7353 -0.9577
  526MOL0     H69392   9.430   7.060   5.576 -1.6531  2.5829  1.2998
  526MOL0     H69393   9.398   6.881   5.582  0.2716  0.3780  2.6487
  526MOL0     H69394   9.541   6.874   5.733 -3.2143  0.2584 -2.4955
  526MOL0     H69395   9.657   6.832   5.937  0.1318  1.6898 -4.7435
  526MOL0     H69396   9.685   6.906   6.425  0.6295 -0.1511  4.8488
  526MOL0     H69397   9.726   6.819   6.657 -1.4926  0.7457 -0.0009
  526MOL0     H69398   9.878   6.412   6.731  1.0111  3.7671 -1.6706
  526MOL0     H69399   9.705   6.369   6.738  0.2422 -1.8491  3.2721
  526MOL0     H69400   9.644   6.474   6.929 -1.3112 -3.0670 -1.0267
  526MOL0     H69401   9.816   6.519   6.975 -2.7922 -2.6153  4.5344
  526MOL0     H69402   9.891   6.297   6.975  0.3719  2.7677  0.7277
  526MOL0     H69403   9.726   6.241   6.919 -2.6478  0.2532  2.8323
  526MOL0     H69404   9.763   6.409   7.169  2.8343 -1.4415  1.5811
  526MOL0     H69405   9.629   6.301   7.136 -1.1166  1.6688 -4.0331
  526MOL0     H69406   9.786   6.216   7.306 -1.2611  1.7015 -0.8562
  526MOL0     H69407   9.918   6.209   7.188 -0.3930  1.6998  1.0011
  526MOL0     H69408   9.814   6.041   7.067  1.5949 -2.4558  2.6008
  526MOL0     H69409   9.652   6.069   7.137  0.9582  0.4104 -0.5095
  526MOL0     H69410   9.811   5.862   7.206 -3.3407 -1.7397  2.3218
  526MOL0     H69411   9.877   5.987   7.315 -0.7688  1.1565  0.4414
  526MOL0     H69412   9.572   5.927   7.305  0.3691 -2.4517 -1.5971
  526MOL0     H69413   9.654   6.046   7.401 -0.7568  0.2562 -0.9876
  526MOL0     H69414   9.720   6.415   6.503 -1.4623 -0.4026  0.1981
  526MOL0     H69415   9.686   6.508   6.271  0.1180  0.4455  0.0706
  526MOL0     H69416   9.278   6.957   6.138  0.4511  3.6067 -1.9252
  526MOL0     H69417   9.180   6.994   5.925  0.9149  2.5139 -1.1314
  526MOL0     H69418   9.971   7.413   4.712 -2.6005  2.0481  1.9564
  526MOL0     H69419   9.952   7.534   4.526 -0.8391  0.8077  2.9458
  526MOL0     H69420   9.865   7.802   4.100 -0.8824  0.1827 -2.2397
  526MOL0     H69421   9.735   7.944   3.968 -1.1693  0.7785 -0.5422
  526MOL0     H69422   9.585   8.090   3.905  0.5394 -0.6990  0.4350
  526MOL0     H69423   9.434   8.130   3.995  1.0059  1.8767 -0.9702
  526MOL0     H69424   9.296   8.096   3.798  1.3203 -2.6480  3.6045
  526MOL0     H69425   9.440   8.207   3.780  4.8046 -0.3855  5.8111
  526MOL0     H69426   9.443   7.926   3.670  1.3620 -0.6293  0.6780
  526MOL0     H69427   9.561   8.050   3.645 -0.5041  1.2503 -0.9735
  526MOL0     H69428   9.284   8.135   3.549  0.2930 -0.0108  1.5261
  526MOL0     H69429   9.446   8.183   3.505 -0.8431 -0.6404 -2.2450
  526MOL0     H69430   9.387   7.861   3.242  2.1543 -0.7440 -1.2028
  526MOL0     H69431   9.371   7.740   4.076 -1.0727  1.3399  0.2373
  526MOL0     H69432   9.503   7.617   4.241 -1.1893  0.2400 -1.1396
  527MOL0     O69433   6.631   1.290   8.677 -0.1187 -0.6062 -0.6099
  527MOL0     C69434   6.714   1.339   8.594 -0.1059 -0.2872  0.4252
  527MOL0     O69435   6.770   1.462   8.600  0.1455 -0.2161  0.8241
  527MOL0     C69436   6.737   1.556   8.698  0.9194  0.4182  0.1663
  527MOL0     C69437   6.836   1.649   8.723  1.1980  0.2546 -1.0983
  527MOL0     C69438   6.823   1.755   8.815 -0.3949 -0.1202  0.2035
  527MOL0     C69439   6.695   1.772   8.879 -0.2787 -0.0164  0.5031
  527MOL0     O69440   6.686   1.859   8.984  0.3710 -0.0472  0.3626
  527MOL0     C69441   6.697   2.002   8.958 -0.2998  0.3776  0.3600
  527MOL0     C69442   6.606   2.081   9.052 -0.3285  0.0566 -0.2801
  527MOL0     C69443   6.459   2.051   9.024  0.3043 -1.0562 -0.6114
  527MOL0     C69444   6.357   2.139   9.105 -0.2531 -0.7852 -0.1460
  527MOL0     C69445   6.384   2.149   9.260  1.0496  0.1559  0.4173
  527MOL0     C69446   6.333   2.260   9.336  0.5950 -0.2273 -0.9836
  527MOL0     C69447   6.354   2.244   9.491 -0.3627  0.8613 -0.0399
  527MOL0     C69448   6.230   2.181   9.547 -0.2158  0.0518 -0.0380
  527MOL0     N69449   6.233   2.183   9.694  1.2865  0.7000 -0.0671
  527MOL0     C69450   6.211   2.295   9.770  0.5417 -0.9258  0.4879
  527MOL0     C69451   6.279   2.273   9.879  0.1529  0.1481  0.3740
  527MOL0     C69452   6.269   2.356   9.994 -0.1342 -0.0518 -0.5087
  527MOL0     C69453   6.404   2.410  10.021 -0.7806 -0.5286  0.4807
  527MOL0     C69454   6.501   2.321  10.108 -0.5613  0.0108  0.4648
  527MOL0     C69455   6.439   2.273  10.244  0.3022  0.0801 -0.6753
  527MOL0     O69456   6.528   2.205  10.336  0.7274 -0.3138 -0.2531
  527MOL0     C69457   6.588   2.092  10.289 -0.0683  0.4718 -0.1649
  527MOL0     C69458   6.526   1.983  10.215 -0.2858 -0.1471 -0.0607
  527MOL0     C69459   6.608   1.881  10.164  1.0051  0.5424  0.2760
  527MOL0     C69460   6.736   1.869  10.204 -0.7506 -1.0779  0.0144
  527MOL0     C69461   6.832   1.757  10.153  0.1511  0.1120 -1.0458
  527MOL0     O69462   6.798   1.711  10.031  0.0420  0.6749  0.0545
  527MOL0     C69463   6.843   1.592   9.986 -0.3677 -0.2575  0.5834
  527MOL0     C69464   6.973   1.556   9.990 -0.6043 -0.3290 -0.2475
  527MOL0     C69465   7.008   1.427   9.959  0.2978 -0.6302 -0.8037
  527MOL0     C69466   6.926   1.351   9.884 -0.2074  0.4856  0.2767
  527MOL0     O69467   6.971   1.224   9.838  0.0991 -0.8277 -0.6309
  527MOL0     C69468   6.915   1.173   9.717 -0.1360  0.1211  0.9000
  527MOL0     C69469   7.000   1.047   9.686  0.2551 -0.7049 -0.9810
  527MOL0     C69470   6.929   0.969   9.573  0.5588 -0.3821  0.3690
  527MOL0     C69471   7.041   0.903   9.488 -0.6354 -0.5240 -1.1601
  527MOL0     C69472   6.988   0.815   9.379  0.7935  0.2096 -0.3921
  527MOL0     C69473   6.907   0.685   9.429 -0.6808 -0.7125  0.5346
  527MOL0     C69474   6.841   0.636   9.290  0.1546 -0.2234  0.6740
  527MOL0     C69475   6.748   0.522   9.305  0.1342  0.5086 -0.2443
  527MOL0    Cl69476   6.599   0.547   9.410 -0.5340 -0.1816  0.0772
  527MOL0     C69477   6.800   1.388   9.863  0.0086  0.0952 -0.1011
  527MOL0     C69478   6.751   1.506   9.921 -0.6179  0.3085 -0.1518
  527MOL0     O69479   6.907   1.712  10.237  0.5920 -0.2333  0.4770
  527MOL0     C69480   6.795   1.966  10.288 -0.5204  0.6055 -1.0869
  527MOL0     C69481   6.717   2.070  10.334  0.0798  0.2000  0.6453
  527MOL0     N69482   6.330   2.143   9.876  0.5166 -0.6654  0.3611
  527MOL0     N69483   6.296   2.092   9.765  0.3335  0.1177  0.8133
  527MOL0     C69484   6.597   1.677   8.855  0.4298 -0.6863 -1.0484
  527MOL0     C69485   6.621   1.566   8.774  0.0727 -1.2830  0.2968
  527MOL0     C69486   6.761   1.256   8.479 -0.5794 -0.2114  0.0234
  527MOL0     C69487   6.732   1.118   8.466 -0.7675 -0.4871 -1.5521
  527MOL0     C69488   6.808   1.034   8.385  0.2684  0.0403 -0.4889
  527MOL0     C69489   6.901   1.085   8.299  0.0056  0.0004 -0.7644
  527MOL0     O69490   6.974   1.003   8.211  0.0162  0.0475 -0.2958
  527MOL0     C69491   6.909   0.961   8.088 -0.3221 -1.3971  0.1979
  527MOL0     C69492   7.002   1.031   7.987  0.7550 -0.1464 -0.3349
  527MOL0     C69493   6.931   1.065   7.856  0.6531  0.1383  1.0868
  527MOL0     C69494   7.010   1.155   7.771 -0.6974 -0.1654 -0.7940
  527MOL0     C69495   7.154   1.118   7.756  0.4568 -0.1992 -0.0011
  527MOL0     C69496   7.277   1.101   7.747  0.7314 -0.0429 -0.3149
  527MOL0     C69497   6.927   1.224   8.296  0.4500  0.2346  0.8376
  527MOL0     C69498   6.855   1.306   8.382  0.7121  0.5218  0.2169
  527MOL0     H69499   6.926   1.631   8.666 -0.9794 -2.3789 -4.0681
  527MOL0     H69500   6.910   1.809   8.850 -0.7097 -0.6778  1.9396
  527MOL0     H69501   6.682   2.032   8.854  2.0609 -0.8262 -0.3797
  527MOL0     H69502   6.801   2.021   8.983 -0.5381  0.5435  1.2744
  527MOL0     H69503   6.627   2.186   9.032  1.2268 -0.6707 -2.8412
  527MOL0     H69504   6.634   2.067   9.157  2.2361 -2.0465 -1.1473
  527MOL0     H69505   6.420   1.956   9.062 -3.2218 -0.8615 -3.2502
  527MOL0     H69506   6.434   2.065   8.918  2.6188  0.1890 -1.0718
  527MOL0     H69507   6.365   2.244   9.073  3.0187 -0.9712 -0.2291
  527MOL0     H69508   6.260   2.094   9.080 -1.4287  1.7332 -0.4566
  527MOL0     H69509   6.491   2.142   9.278  1.3037 -1.0873 -1.3182
  527MOL0     H69510   6.346   2.062   9.314  2.3676  0.2108  1.4781
  527MOL0     H69511   6.224   2.261   9.326  0.5225  2.2864 -0.5748
  527MOL0     H69512   6.378   2.352   9.298  1.1158  0.7826  1.8743
  527MOL0     H69513   6.436   2.173   9.502 -0.7245  0.2108 -1.4060
  527MOL0     H69514   6.364   2.344   9.536  0.5350 -0.2114  2.3206
  527MOL0     H69515   6.217   2.077   9.516 -0.7451 -0.6489  2.3280
  527MOL0     H69516   6.137   2.224   9.508  0.1271 -2.1569 -3.7785
  527MOL0     H69517   6.154   2.386   9.749 -1.6409 -2.6272 -1.5991
  527MOL0     H69518   6.223   2.306  10.080  3.7113  1.3316  2.6677
  527MOL0     H69519   6.213   2.449   9.974 -2.4347 -0.3809  3.2463
  527MOL0     H69520   6.409   2.507  10.070  0.7749 -0.1553 -0.3779
  527MOL0     H69521   6.462   2.419   9.929 -2.2542  2.5215 -0.2833
  527MOL0     H69522   6.524   2.230  10.052  0.0147 -0.3426  1.2564
  527MOL0     H69523   6.593   2.374  10.131 -1.6795  2.0572  0.4850
  527MOL0     H69524   6.364   2.201  10.210 -0.4575  1.0224 -1.0688
  527MOL0     H69525   6.391   2.359  10.292  1.0294 -0.6062  1.3848
  527MOL0     H69526   6.421   1.995  10.188 -0.2542  1.8956  0.5700
  527MOL0     H69527   6.573   1.821  10.081  2.2590  0.0368  0.0858
  527MOL0     H69528   7.051   1.620  10.029 -0.5258  0.0832 -1.0490
  527MOL0     H69529   7.110   1.398   9.979 -0.2948 -2.3506 -0.0647
  527MOL0     H69530   6.929   1.248   9.639 -1.8768 -1.4739 -1.0603
  527MOL0     H69531   6.811   1.147   9.735 -0.4802 -0.3674 -1.5206
  527MOL0     H69532   7.015   0.987   9.776  0.5752  1.2847  0.3582
  527MOL0     H69533   7.106   1.068   9.672  0.7551 -1.5442  1.1830
  527MOL0     H69534   6.877   1.041   9.509  0.5033  0.1239  0.9744
  527MOL0     H69535   6.855   0.901   9.616 -0.1713  1.5291  2.3681
  527MOL0     H69536   7.096   0.979   9.431 -1.0623 -1.3404 -2.7151
  527MOL0     H69537   7.107   0.844   9.552  1.0963 -0.0577 -2.4385
  527MOL0     H69538   7.080   0.781   9.331  2.2590  3.2239  0.0055
  527MOL0     H69539   6.922   0.865   9.307  1.3037 -0.3824 -1.2876
  527MOL0     H69540   6.840   0.706   9.513 -1.6015 -2.4189  0.2790
  527MOL0     H69541   6.962   0.597   9.465 -0.8621 -1.4691 -0.9800
  527MOL0     H69542   6.785   0.713   9.236  2.0171 -0.1988 -1.3048
  527MOL0     H69543   6.927   0.618   9.225 -1.2145  0.4488 -1.4068
  527MOL0     H69544   6.807   0.439   9.344  1.3268  2.8915  3.5733
  527MOL0     H69545   6.708   0.490   9.208 -0.9127 -0.8656  0.6067
  527MOL0     H69546   6.744   1.324   9.796  0.7332 -0.3324 -0.3004
  527MOL0     H69547   6.648   1.533   9.906 -1.5166 -1.7546  1.6173
  527MOL0     H69548   6.893   1.949  10.332 -0.3591  0.6389 -1.4286
  527MOL0     H69549   6.749   2.147  10.404 -0.9547  2.4482 -1.2021
  527MOL0     H69550   6.517   1.692   8.927  4.5989  1.9555  3.6269
  527MOL0     H69551   6.535   1.501   8.767  0.1089 -1.4515  1.2788
  527MOL0     H69552   6.659   1.078   8.536 -2.0362 -0.1833 -2.6566
  527MOL0     H69553   6.795   0.927   8.386  0.2185  0.0288  1.2672
  527MOL0     H69554   6.809   1.004   8.074  0.9890  2.0086  0.3025
  527MOL0     H69555   6.885   0.855   8.073 -0.6756 -1.2229 -0.5244
  527MOL0     H69556   7.028   1.132   8.020  1.2058 -0.2735 -0.2921
  527MOL0     H69557   7.099   0.982   7.976  0.0856 -1.4647 -0.5320
  527MOL0     H69558   6.839   1.123   7.869  0.1673  0.1765 -1.8751
  527MOL0     H69559   6.912   0.965   7.815  2.1222  0.1628  0.2980
  527MOL0     H69560   6.972   1.175   7.670  1.4656 -1.0625 -1.8459
  527MOL0     H69561   7.003   1.255   7.816  2.6852  0.5794 -1.6331
  527MOL0     H69562   7.383   1.092   7.736  0.8181 -0.4095  0.7058
  527MOL0     H69563   6.990   1.258   8.214 -0.6509  1.8243  0.6254
  527MOL0     H69564   6.863   1.414   8.368 -1.3333  0.6907  0.0428
  528MOL0     O69565   9.169   1.720   4.958 -0.8103 -0.3030  0.1819
  528MOL0     C69566   9.092   1.770   5.036 -0.7546  0.0419 -0.4381
  528MOL0     O69567   8.971   1.817   5.005 -0.1605  0.3479 -0.6185
  528MOL0     C69568   8.927   1.839   4.876  0.2148  0.1340  0.5044
  528MOL0     C69569   9.002   1.878   4.767 -0.6118 -0.2039 -0.1965
  528MOL0     C69570   8.945   1.889   4.650  1.0593  1.6378  0.2393
  528MOL0     C69571   8.806   1.875   4.639 -0.3634  0.3979  0.6312
  528MOL0     O69572   8.735   1.899   4.524 -0.4426  0.1966 -0.0015
  528MOL0     C69573   8.810   1.962   4.417  0.1306  0.1024 -0.2079
  528MOL0     C69574   8.720   1.987   4.294 -0.1800 -0.0666  0.8791
  528MOL0     C69575   8.803   2.069   4.199 -0.0918  0.1026  0.1656
  528MOL0     C69576   8.716   2.081   4.070 -0.9523  0.1046  1.2409
  528MOL0     C69577   8.784   2.181   3.977 -0.7419 -0.5303  0.5952
  528MOL0     C69578   8.922   2.129   3.929 -0.0345 -0.0786  0.9325
  528MOL0     C69579   8.993   2.242   3.850  0.1754  0.1262 -0.2647
  528MOL0     C69580   9.124   2.193   3.780  0.4346 -0.2974 -0.4570
  528MOL0     N69581   9.140   2.255   3.642  0.6948  0.7281 -0.3866
  528MOL0     C69582   9.062   2.223   3.526  0.5174  0.1034 -0.1471
  528MOL0     C69583   9.107   2.303   3.428 -0.1729 -0.7094 -0.1875
  528MOL0     C69584   9.064   2.288   3.287  0.0597  0.8362  0.5967
  528MOL0     C69585   9.120   2.159   3.207  0.0632 -1.3587  0.2635
  528MOL0     C69586   9.274   2.158   3.211  0.5530 -0.3442 -1.0094
  528MOL0     C69587   9.334   2.053   3.113  0.0525  0.2214  0.6849
  528MOL0     O69588   9.280   1.917   3.145  0.9770 -0.3653 -0.6583
  528MOL0     C69589   9.331   1.811   3.071  0.5695  0.1712 -0.5877
  528MOL0     C69590   9.415   1.825   2.955  0.1045 -0.5568 -0.3576
  528MOL0     C69591   9.480   1.716   2.899 -0.8091  0.1324  0.3509
  528MOL0     C69592   9.459   1.589   2.942  1.1175  0.0064  0.4068
  528MOL0     C69593   9.523   1.485   2.866  0.4706 -0.0018 -0.0299
  528MOL0     O69594   9.616   1.516   2.767  0.6162 -0.0944  0.0744
  528MOL0     C69595   9.649   1.423   2.671 -0.5451 -0.9914  0.1599
  528MOL0     C69596   9.578   1.430   2.550 -1.1646 -0.9518  0.2130
  528MOL0     C69597   9.593   1.340   2.458 -0.0716  0.2082  0.4930
  528MOL0     C69598   9.690   1.234   2.463  0.3602 -0.6833 -0.8298
  528MOL0     O69599   9.703   1.151   2.359 -0.2104 -0.2694 -0.0603
  528MOL0     C69600   9.814   1.063   2.348  0.6120  0.1298  0.4364
  528MOL0     C69601   9.812   1.015   2.199  0.7130 -0.2741  0.5595
  528MOL0     C69602   9.675   0.951   2.158  0.3776 -0.9129 -0.6153
  528MOL0     C69603   9.651   0.926   2.011 -1.2181 -0.2265 -0.6094
  528MOL0     C69604   9.743   0.823   1.950  0.6289 -0.5618 -0.2072
  528MOL0     C69605   9.727   0.675   2.007  0.2487 -0.5774 -0.0183
  528MOL0     C69606   9.859   0.590   1.970  0.2980 -0.6375 -0.2231
  528MOL0     C69607   9.835   0.445   2.005 -0.2134 -0.1289  1.0463
  528MOL0    Cl69608   9.805   0.417   2.173 -0.2290  0.0476 -0.1988
  528MOL0     C69609   9.765   1.236   2.583  0.2929  0.5052 -0.9108
  528MOL0     C69610   9.742   1.323   2.689  0.0106  0.8021 -0.5169
  528MOL0     O69611   9.489   1.371   2.903 -0.2946 -0.6822  0.1655
  528MOL0     C69612   9.366   1.568   3.046  0.7313  0.2861  0.8053
  528MOL0     C69613   9.313   1.681   3.114  0.1075  0.8483 -0.1759
  528MOL0     N69614   9.209   2.379   3.477 -0.2860  0.1138 -0.3772
  528MOL0     N69615   9.228   2.347   3.605 -0.1435 -0.2594 -0.0820
  528MOL0     C69616   8.727   1.850   4.752 -0.4146 -0.2039 -0.5150
  528MOL0     C69617   8.793   1.830   4.872 -0.2386  0.5009 -1.2825
  528MOL0     C69618   9.120   1.768   5.179  0.2928 -0.1979 -1.1978
  528MOL0     C69619   9.250   1.723   5.216 -0.1952  0.3298  0.1294
  528MOL0     C69620   9.291   1.716   5.353  0.3474 -0.8453 -0.1322
  528MOL0     C69621   9.194   1.748   5.449  0.9091 -0.0602 -0.4241
  528MOL0     O69622   9.228   1.755   5.572 -0.4318  0.6541 -0.7965
  528MOL0     C69623   9.233   1.633   5.649 -0.1154  0.6383  0.3181
  528MOL0     C69624   9.111   1.538   5.634 -0.5372  0.8689 -0.6569
  528MOL0     C69625   9.174   1.406   5.603  0.7045  0.3604 -0.7411
  528MOL0     C69626   9.058   1.308   5.561  0.5951  0.0632  0.2225
  528MOL0     C69627   9.106   1.171   5.537  0.6701  0.2479 -0.2121
  528MOL0     C69628   9.138   1.059   5.535  0.3703  0.3493 -0.2117
  528MOL0     C69629   9.069   1.797   5.417 -0.2212  0.0970  0.4102
  528MOL0     C69630   9.032   1.802   5.284 -0.5086 -0.3837  0.9910
  528MOL0     H69631   9.110   1.883   4.779 -0.7538 -1.6091  2.5753
  528MOL0     H69632   8.996   1.912   4.557 -0.9078  0.8388 -1.1142
  528MOL0     H69633   8.897   1.901   4.393  0.8702  0.8325  0.5856
  528MOL0     H69634   8.845   2.058   4.456 -5.3741  1.7766  1.6148
  528MOL0     H69635   8.629   2.042   4.320  1.6110  1.7634  3.8023
  528MOL0     H69636   8.689   1.893   4.248  4.1062 -1.7235  0.9653
  528MOL0     H69637   8.897   2.020   4.173 -1.5182 -1.8295 -1.7903
  528MOL0     H69638   8.814   2.164   4.251  1.6744  0.6354 -1.1028
  528MOL0     H69639   8.715   1.988   4.013 -0.7714  2.6157 -3.3803
  528MOL0     H69640   8.616   2.117   4.094 -2.2448 -1.4216 -1.3855
  528MOL0     H69641   8.804   2.275   4.030 -0.3992 -0.0996 -0.2651
  528MOL0     H69642   8.711   2.194   3.897 -0.1174  1.9020  0.3208
  528MOL0     H69643   8.897   2.051   3.857  3.9304  0.6711 -1.5522
  528MOL0     H69644   9.002   2.101   3.999  1.0025 -1.6187 -0.7763
  528MOL0     H69645   8.923   2.281   3.776  0.2001  0.5335 -0.0728
  528MOL0     H69646   9.028   2.315   3.923  0.5088 -0.7134  0.4315
  528MOL0     H69647   9.123   2.084   3.766  0.3591 -0.0549 -2.5934
  528MOL0     H69648   9.201   2.237   3.843  2.3270  2.0761 -4.0896
  528MOL0     H69649   8.992   2.140   3.533  1.1698 -0.3487  1.5374
  528MOL0     H69650   9.084   2.375   3.225 -0.0812  1.8114  1.8727
  528MOL0     H69651   8.956   2.271   3.290  0.0764  0.1531 -1.4640
  528MOL0     H69652   9.083   2.174   3.105  0.3283 -2.0312  0.0606
  528MOL0     H69653   9.065   2.073   3.245 -2.2886 -0.1726 -0.2624
  528MOL0     H69654   9.311   2.256   3.181  2.5082  0.8579  4.2252
  528MOL0     H69655   9.318   2.149   3.311  0.4876 -2.6695 -1.1381
  528MOL0     H69656   9.441   2.034   3.107 -0.2932 -1.4737 -2.9541
  528MOL0     H69657   9.312   2.094   3.014  0.4861  1.1095  0.9464
  528MOL0     H69658   9.447   1.923   2.922 -3.5816  0.5626 -0.9863
  528MOL0     H69659   9.533   1.729   2.805  0.7421 -3.3152  0.5839
  528MOL0     H69660   9.510   1.514   2.539  0.5768  0.2244 -3.2946
  528MOL0     H69661   9.545   1.359   2.362 -2.0251  1.6433  1.6979
  528MOL0     H69662   9.775   0.994   2.423 -1.3264 -0.5063 -1.0651
  528MOL0     H69663   9.916   1.098   2.363  0.8991  0.0460 -1.1471
  528MOL0     H69664   9.885   0.935   2.183  0.5545 -0.9423  2.8471
  528MOL0     H69665   9.844   1.099   2.136 -1.7280  2.0778  2.1802
  528MOL0     H69666   9.602   1.030   2.179  1.3241 -0.2258  0.1407
  528MOL0     H69667   9.658   0.865   2.224  0.6275  1.7784  3.3351
  528MOL0     H69668   9.546   0.898   2.009 -1.2898 -0.3068  1.6301
  528MOL0     H69669   9.654   1.024   1.962  1.8469  0.6814  1.0930
  528MOL0     H69670   9.848   0.849   1.962  0.8361 -0.7593 -1.4712
  528MOL0     H69671   9.733   0.827   1.841 -0.1346  2.3917 -0.1205
  528MOL0     H69672   9.635   0.629   1.970  0.1589 -0.4076 -0.0032
  528MOL0     H69673   9.721   0.677   2.117  0.2753  1.7947 -0.0232
  528MOL0     H69674   9.891   0.621   1.870 -1.6385 -1.0493 -1.0175
  528MOL0     H69675   9.931   0.632   2.041  0.9870 -2.1301  0.0005
  528MOL0     H69676   9.919   0.381   1.978 -1.0942 -0.5746 -0.8439
  528MOL0     H69677   9.752   0.405   1.945  0.3683 -0.6160  0.5512
  528MOL0     H69678   9.841   1.160   2.600 -0.9846 -0.2378  2.1959
  528MOL0     H69679   9.783   1.315   2.789  0.1531  0.8559 -0.5698
  528MOL0     H69680   9.353   1.467   3.083  0.6891 -0.8631 -2.1244
  528MOL0     H69681   9.267   1.669   3.211 -0.8879 -2.5859 -0.9245
  528MOL0     H69682   8.619   1.836   4.748 -0.8141  1.2699 -7.4308
  528MOL0     H69683   8.734   1.798   4.957 -0.1091 -0.5373 -1.5569
  528MOL0     H69684   9.326   1.707   5.141  0.6871  0.0216  1.0585
  528MOL0     H69685   9.389   1.678   5.381  0.3483 -1.1607 -0.5443
  528MOL0     H69686   9.243   1.663   5.754 -1.8944  3.9172 -0.3259
  528MOL0     H69687   9.331   1.591   5.625  0.4330  1.0756  1.6847
  528MOL0     H69688   9.059   1.526   5.729 -1.3890  1.3592 -1.0487
  528MOL0     H69689   9.035   1.567   5.560 -2.3666 -1.0228  0.3812
  528MOL0     H69690   9.224   1.378   5.696  2.5431  4.8564 -0.0908
  528MOL0     H69691   9.256   1.407   5.530  2.6843 -1.9313  1.2849
  528MOL0     H69692   8.984   1.307   5.642  1.6081  0.9958  1.2039
  528MOL0     H69693   9.007   1.348   5.473 -0.0156  4.1639  2.1895
  528MOL0     H69694   9.166   0.956   5.527 -1.1074 -0.0276 -0.8665
  528MOL0     H69695   8.995   1.837   5.486  0.4090 -1.0228  1.7834
  528MOL0     H69696   8.931   1.831   5.259  0.3345  2.3995  0.3976
  529MOL0     O69697   8.726   7.262   6.135  0.3451 -0.0485  0.2175
  529MOL0     C69698   8.791   7.234   6.031 -0.0737  0.4582  0.0732
  529MOL0     O69699   8.921   7.177   6.028  0.6098  0.2140  0.6770
  529MOL0     C69700   8.984   7.150   6.147 -0.7447  0.2318 -0.4656
  529MOL0     C69701   9.013   7.014   6.181  0.1932 -0.6323  0.8938
  529MOL0     C69702   9.075   6.985   6.302  0.2103 -0.0397  0.8163
  529MOL0     C69703   9.115   7.085   6.388 -0.4177  0.6385 -1.4565
  529MOL0     O69704   9.182   7.059   6.511 -0.9113  0.4909  0.3377
  529MOL0     C69705   9.178   6.923   6.559  0.4670 -0.1079 -0.3490
  529MOL0     C69706   9.251   6.906   6.693 -1.0000  0.1316 -1.1301
  529MOL0     C69707   9.370   6.997   6.722 -0.1934  1.6041  0.7629
  529MOL0     C69708   9.420   6.984   6.857 -0.0654  0.6096  0.1352
  529MOL0     C69709   9.551   7.073   6.883  0.4840  0.1676 -0.3155
  529MOL0     C69710   9.528   7.225   6.852 -0.0154  0.1420 -0.1608
  529MOL0     C69711   9.624   7.294   6.946  0.1860 -0.9575  0.6280
  529MOL0     C69712   9.773   7.248   6.940  0.3090 -0.1509  0.0299
  529MOL0     N69713   9.863   7.347   6.995 -0.3382  0.0462  0.1705
  529MOL0     C69714   9.863   7.483   6.964 -0.0506 -0.1777 -0.1873
  529MOL0     C69715   9.937   7.537   7.059 -1.4201  0.0647  0.2129
  529MOL0     C69716   9.974   7.684   7.068  0.2100  0.0491 -0.3241
  529MOL0     C69717  10.117   7.721   7.130 -0.6797 -0.4658  0.4841
  529MOL0     C69718  10.227   7.682   7.026  1.1924  0.1002  0.1360
  529MOL0     C69719  10.210   7.738   6.882 -0.6015  0.0548  0.9458
  529MOL0     O69720  10.324   7.685   6.805 -0.0172 -0.2514  0.1100
  529MOL0     C69721  10.368   7.748   6.695  0.2020  0.2215  0.9861
  529MOL0     C69722  10.336   7.878   6.653  0.8364  0.0258 -0.2248
  529MOL0     C69723  10.375   7.923   6.533 -0.6021  0.3122 -0.3785
  529MOL0     C69724  10.471   7.847   6.460  0.9476  0.1537 -0.6297
  529MOL0     C69725  10.500   7.891   6.328  0.2449 -0.1296  0.4857
  529MOL0     O69726  10.413   7.976   6.270  0.4318 -0.2317 -0.2123
  529MOL0     C69727  10.420   8.033   6.145  0.0546  0.5748 -0.0776
  529MOL0     C69728  10.323   8.131   6.124  0.1894  0.7853 -0.4440
  529MOL0     C69729  10.290   8.173   5.993  0.1463  0.8556 -0.0216
  529MOL0     C69730  10.365   8.121   5.876 -0.3611 -0.5365 -0.7319
  529MOL0     O69731  10.322   8.177   5.759  0.0428  0.2148  0.6116
  529MOL0     C69732  10.255   8.080   5.675 -0.5748 -0.5172  0.7684
  529MOL0     C69733  10.336   8.062   5.544  0.2668  0.2597  0.2565
  529MOL0     C69734  10.392   7.920   5.522 -0.0054 -0.4289 -0.6141
  529MOL0     C69735  10.290   7.808   5.471 -0.4762 -0.1502 -1.0228
  529MOL0     C69736  10.351   7.670   5.430 -0.9122  0.1501 -0.1074
  529MOL0     C69737  10.416   7.590   5.543  0.3654  0.5367  0.3284
  529MOL0     C69738  10.338   7.610   5.684 -0.5068 -0.8122  1.4280
  529MOL0     C69739  10.388   7.510   5.791  0.7268 -0.1174 -0.1728
  529MOL0    Cl69740  10.300   7.520   5.941 -0.3142 -0.3234 -0.1548
  529MOL0     C69741  10.466   8.033   5.899 -1.1987  0.6315 -0.3894
  529MOL0     C69742  10.488   7.983   6.030  0.8012  0.2507  0.1082
  529MOL0     O69743  10.613   7.865   6.287 -0.1212  0.2857 -0.6735
  529MOL0     C69744  10.513   7.720   6.503  0.0533 -0.3763 -0.1932
  529MOL0     C69745  10.459   7.672   6.618 -1.4156 -0.8180  0.2851
  529MOL0     N69746  10.000   7.434   7.126 -0.3382 -0.3652 -0.2404
  529MOL0     N69747   9.953   7.324   7.097  0.5125 -1.1198  0.2973
  529MOL0     C69748   9.083   7.216   6.353  0.3516  1.0370 -0.3492
  529MOL0     C69749   9.024   7.258   6.232 -0.3501  1.1388  0.0092
  529MOL0     C69750   8.733   7.283   5.906  0.0536  0.1732  0.0527
  529MOL0     C69751   8.798   7.249   5.783 -0.6688  0.1632  0.1573
  529MOL0     C69752   8.731   7.262   5.664 -0.8403 -0.5016  0.8505
  529MOL0     C69753   8.612   7.320   5.650  1.4354  0.2030  0.8853
  529MOL0     O69754   8.551   7.323   5.519  0.3911 -0.5104 -0.2452
  529MOL0     C69755   8.460   7.433   5.506  0.7668  1.4486  0.0895
  529MOL0     C69756   8.325   7.381   5.532  1.0317  0.0509  0.8661
  529MOL0     C69757   8.269   7.300   5.415  0.3167 -0.2284  1.1184
  529MOL0     C69758   8.130   7.240   5.450  0.5784 -0.0540  0.0913
  529MOL0     C69759   8.064   7.192   5.324 -0.5535 -0.0119 -0.0233
  529MOL0     C69760   8.011   7.169   5.217  0.4428  0.1238 -0.1242
  529MOL0     C69761   8.550   7.366   5.771  0.1425  1.1849 -0.2776
  529MOL0     C69762   8.600   7.338   5.897  0.7902  0.4927 -0.5178
  529MOL0     H69763   8.975   6.944   6.108 -0.8437 -0.3420  1.1417
  529MOL0     H69764   9.077   6.879   6.321 -2.0930  0.2822  3.6150
  529MOL0     H69765   9.230   6.859   6.488  2.5576  2.3639 -1.1961
  529MOL0     H69766   9.073   6.894   6.569  0.4094  0.8529  3.0467
  529MOL0     H69767   9.263   6.800   6.719 -0.7419  0.4625  0.1364
  529MOL0     H69768   9.180   6.940   6.769  0.0240  0.9048 -0.4957
  529MOL0     H69769   9.346   7.103   6.714 -0.6632  1.3724 -1.6391
  529MOL0     H69770   9.445   6.973   6.646  0.4585 -0.7168  2.0366
  529MOL0     H69771   9.341   7.012   6.927 -0.5644 -0.6521  0.1028
  529MOL0     H69772   9.454   6.882   6.878  0.8993  1.4066  2.8137
  529MOL0     H69773   9.633   7.025   6.829  1.4133 -1.4326  2.3722
  529MOL0     H69774   9.576   7.053   6.987 -0.8997  0.3855  0.0735
  529MOL0     H69775   9.428   7.258   6.882 -1.5990 -1.8179 -2.7776
  529MOL0     H69776   9.550   7.233   6.745  0.4480  2.2912  0.0538
  529MOL0     H69777   9.612   7.397   6.911  0.5580 -1.8628 -2.4484
  529MOL0     H69778   9.587   7.297   7.049  0.0034  0.7590  0.5531
  529MOL0     H69779   9.802   7.232   6.835  2.8373  2.9742  0.0782
  529MOL0     H69780   9.785   7.163   7.007  0.0383 -0.1875  0.0314
  529MOL0     H69781   9.806   7.543   6.893 -1.2295  0.5890  1.3343
  529MOL0     H69782   9.900   7.733   7.133  0.0958  1.6010 -1.5821
  529MOL0     H69783   9.964   7.729   6.969  1.3361  1.2712  0.0906
  529MOL0     H69784  10.131   7.671   7.226 -1.4821 -3.1526 -0.7274
  529MOL0     H69785  10.116   7.829   7.153  3.6102 -0.1425 -0.0518
  529MOL0     H69786  10.318   7.727   7.068  1.7296  0.2240 -1.1229
  529MOL0     H69787  10.245   7.574   7.029  1.2114  0.0769 -0.7328
  529MOL0     H69788  10.187   7.845   6.875 -1.4372 -0.2533 -2.3523
  529MOL0     H69789  10.121   7.685   6.846 -0.8803 -0.5188  2.3988
  529MOL0     H69790  10.256   7.921   6.712 -0.4164 -1.1086 -1.0234
  529MOL0     H69791  10.343   8.021   6.501 -0.6816  1.5512  3.0481
  529MOL0     H69792  10.260   8.153   6.210 -1.2111  1.5826 -1.6330
  529MOL0     H69793  10.210   8.246   5.980  3.0676  3.9912 -1.8246
  529MOL0     H69794  10.155   8.113   5.647 -0.5422 -2.4175 -1.9841
  529MOL0     H69795  10.243   7.983   5.723 -0.8088 -2.2114 -2.4140
  529MOL0     H69796  10.419   8.132   5.549  1.1324 -0.7462  0.4045
  529MOL0     H69797  10.271   8.084   5.459 -1.0391  1.0914  1.4212
  529MOL0     H69798  10.432   7.883   5.617 -0.9065  0.8507  0.3056
  529MOL0     H69799  10.483   7.928   5.461  0.8429 -0.3737  0.6063
  529MOL0     H69800  10.206   7.796   5.539 -1.1667  1.0839 -1.6115
  529MOL0     H69801  10.243   7.850   5.382 -0.9319  1.8802  0.1142
  529MOL0     H69802  10.435   7.688   5.363  0.1658 -1.0712  0.8587
  529MOL0     H69803  10.282   7.609   5.371 -0.0356  0.5105 -1.5380
  529MOL0     H69804  10.510   7.640   5.569 -0.2100  2.3195 -0.8349
  529MOL0     H69805  10.442   7.487   5.516 -0.5442  0.9085 -2.1323
  529MOL0     H69806  10.354   7.712   5.719 -1.3460 -0.1516 -0.0602
  529MOL0     H69807  10.231   7.598   5.667 -0.0389 -0.9247 -2.2690
  529MOL0     H69808  10.494   7.526   5.814  0.1558  1.7413  1.4154
  529MOL0     H69809  10.384   7.411   5.744 -2.1338 -1.4008  2.4143
  529MOL0     H69810  10.528   7.985   5.823  0.4377  0.3985  1.0136
  529MOL0     H69811  10.539   7.889   6.049 -1.9563 -1.4015 -0.2419
  529MOL0     H69812  10.575   7.654   6.442  1.0703 -0.3031  0.7281
  529MOL0     H69813  10.475   7.570   6.651 -4.1010 -0.4433  3.2192
  529MOL0     H69814   9.120   7.282   6.431  0.0794 -0.3851  1.0483
  529MOL0     H69815   8.983   7.356   6.208 -3.2314  1.1536  3.9625
  529MOL0     H69816   8.892   7.195   5.780 -1.4123 -1.1488 -1.8917
  529MOL0     H69817   8.778   7.232   5.571  0.1761 -0.0709  1.2128
  529MOL0     H69818   8.476   7.470   5.404 -1.3553  2.9078  0.2294
  529MOL0     H69819   8.495   7.517   5.566 -0.0861  1.3379  0.7471
  529MOL0     H69820   8.326   7.300   5.605  1.4185 -1.2915 -0.5719
  529MOL0     H69821   8.253   7.456   5.564 -0.2799 -0.7230 -0.1723
  529MOL0     H69822   8.339   7.224   5.378 -0.0990 -0.2976  0.4675
  529MOL0     H69823   8.244   7.372   5.337 -2.3104 -0.8599  1.2995
  529MOL0     H69824   8.146   7.145   5.502  0.7815 -0.3366 -0.4760
  529MOL0     H69825   8.074   7.317   5.504  2.9289  2.1615 -0.4395
  529MOL0     H69826   7.972   7.127   5.127  2.8455 -1.1231 -0.6546
  529MOL0     H69827   8.451   7.406   5.756 -1.3407 -1.4186  1.7799
  529MOL0     H69828   8.521   7.362   5.967 -1.5030  0.9073 -3.0692
  530MOL0     O69829  10.169   2.400   3.297  0.0479  0.1841  0.4618
  530MOL0     C69830  10.111   2.337   3.381  1.3545  0.4245  0.1745
  530MOL0     O69831  10.046   2.393   3.490 -0.5269  0.1411 -0.7859
  530MOL0     C69832  10.050   2.525   3.499 -0.1900  0.1837  1.1446
  530MOL0     C69833   9.984   2.610   3.411 -0.7485  0.7087  0.3723
  530MOL0     C69834  10.000   2.752   3.419 -0.8986 -0.1143 -1.1870
  530MOL0     C69835  10.079   2.812   3.528  0.0626  0.3641  1.2654
  530MOL0     O69836  10.083   2.946   3.531  0.7342 -0.0318  0.9465
  530MOL0     C69837  10.210   3.010   3.568 -0.4749  0.0698  0.4238
  530MOL0     C69838  10.204   3.088   3.705  0.4751  1.7605  0.0217
  530MOL0     C69839  10.075   3.168   3.750  0.2491  0.8163  0.2967
  530MOL0     C69840  10.103   3.246   3.871 -0.0029 -0.2493  0.0786
  530MOL0     C69841   9.983   3.323   3.909 -0.6075 -0.3957 -0.4799
  530MOL0     C69842   9.986   3.374   4.054  0.8023  0.5858  0.7934
  530MOL0     C69843  10.054   3.513   4.052 -0.0008 -0.0526  0.5082
  530MOL0     C69844   9.957   3.627   4.037 -0.5163 -0.0574 -0.2681
  530MOL0     N69845   9.888   3.647   4.166 -1.1020  0.5137 -0.1972
  530MOL0     C69846   9.844   3.776   4.198  0.2036  0.6724 -0.1629
  530MOL0     C69847   9.846   3.775   4.331 -0.0916 -0.4177  0.4917
  530MOL0     C69848   9.786   3.891   4.413  0.2715 -0.3269 -0.1396
  530MOL0     C69849   9.706   4.010   4.353 -0.4092 -0.1960 -0.1176
  530MOL0     C69850   9.585   3.968   4.279  0.6901 -0.0886  0.2940
  530MOL0     C69851   9.495   3.860   4.333 -0.1797 -0.1887  0.4371
  530MOL0     O69852   9.413   3.823   4.222 -0.6602  0.9777  0.0035
  530MOL0     C69853   9.304   3.751   4.238  0.3192  0.3527 -0.6368
  530MOL0     C69854   9.211   3.777   4.137 -0.0616  0.3616  0.5933
  530MOL0     C69855   9.086   3.708   4.137 -0.1622 -0.6648 -0.0900
  530MOL0     C69856   9.070   3.614   4.225  0.0243 -0.4710 -0.0883
  530MOL0     C69857   8.948   3.521   4.217 -0.3218  0.8919 -0.3385
  530MOL0     O69858   8.874   3.534   4.106  0.2366 -0.3826 -0.0955
  530MOL0     C69859   8.766   3.458   4.079  0.3313 -0.2630 -0.1156
  530MOL0     C69860   8.635   3.504   4.108 -0.4242 -1.1223  0.4826
  530MOL0     C69861   8.524   3.433   4.060 -0.8379 -0.1721  0.6404
  530MOL0     C69862   8.538   3.329   3.974  0.5815  0.3246 -1.1462
  530MOL0     O69863   8.427   3.283   3.910 -0.2672  0.0249  0.4111
  530MOL0     C69864   8.430   3.176   3.804  0.2253  0.3505  0.6219
  530MOL0     C69865   8.486   3.235   3.672 -0.1943  0.0849 -0.4927
  530MOL0     C69866   8.473   3.137   3.548  0.0812  1.0864  0.0415
  530MOL0     C69867   8.541   3.003   3.580 -0.4883  0.7666  0.7951
  530MOL0     C69868   8.550   2.919   3.446  0.2776  0.6412  0.0765
  530MOL0     C69869   8.641   2.801   3.453  1.0326 -0.2884 -0.3778
  530MOL0     C69870   8.652   2.730   3.316  0.8869  1.4125 -0.6262
  530MOL0     C69871   8.719   2.593   3.343  1.2466 -0.4339 -0.6970
  530MOL0    Cl69872   8.695   2.479   3.206 -0.0414  0.4831 -0.1345
  530MOL0     C69873   8.669   3.281   3.951  0.7714  0.3262 -0.3495
  530MOL0     C69874   8.779   3.338   4.008  1.2570 -0.3482 -0.2215
  530MOL0     O69875   8.920   3.448   4.317  0.2472  0.1660  0.4274
  530MOL0     C69876   9.153   3.588   4.335 -0.7560 -1.2804 -0.4647
  530MOL0     C69877   9.272   3.664   4.343 -1.5782  0.3829  1.2205
  530MOL0     N69878   9.904   3.662   4.380  1.3110  0.1529  0.3372
  530MOL0     N69879   9.925   3.585   4.283  0.1151  0.0319  0.2462
  530MOL0     C69880  10.148   2.722   3.612 -0.8106 -0.1560  0.3346
  530MOL0     C69881  10.139   2.582   3.590 -0.2062 -0.6883  0.0948
  530MOL0     C69882  10.087   2.191   3.356 -0.5008  0.1860 -0.0024
  530MOL0     C69883  10.102   2.129   3.232  0.0366 -0.8976  0.2653
  530MOL0     C69884  10.063   1.995   3.222 -0.1001 -0.3344 -0.9695
  530MOL0     C69885  10.014   1.931   3.329 -0.1315 -0.1219 -0.2832
  530MOL0     O69886   9.978   1.795   3.313 -0.3239  0.1352 -0.1476
  530MOL0     C69887   9.855   1.753   3.364  0.0076 -0.5405 -1.0131
  530MOL0     C69888   9.779   1.651   3.270 -0.5000 -0.6721 -0.0726
  530MOL0     C69889   9.873   1.533   3.224  0.0269 -0.8697 -0.3147
  530MOL0     C69890   9.804   1.410   3.156  0.4150  0.0057 -0.3516
  530MOL0     C69891   9.917   1.335   3.084 -0.0808 -0.1338  0.3446
  530MOL0     C69892  10.016   1.301   3.016  0.1492  0.5223 -0.4095
  530MOL0     C69893  10.016   1.988   3.455  0.6285 -0.5333  0.3509
  530MOL0     C69894  10.049   2.121   3.471  0.7234 -0.1473  0.1432
  530MOL0     H69895   9.920   2.580   3.329 -0.4333  2.9485 -0.8030
  530MOL0     H69896   9.951   2.820   3.349  1.3099  2.4510 -0.4018
  530MOL0     H69897  10.235   3.088   3.496  2.2050 -3.2083 -2.5416
  530MOL0     H69898  10.302   2.951   3.566 -0.0285  0.7464  0.5495
  530MOL0     H69899  10.285   3.160   3.692  1.7530  0.6140  1.2435
  530MOL0     H69900  10.243   3.026   3.787  4.9081  0.7567 -2.5088
  530MOL0     H69901  10.005   3.087   3.771 -1.1319  2.3189  1.7814
  530MOL0     H69902  10.035   3.232   3.671 -3.7241  1.1746  2.3612
  530MOL0     H69903  10.135   3.178   3.950  2.7761 -1.3579 -1.8812
  530MOL0     H69904  10.190   3.310   3.857  0.2857 -0.9842 -1.6908
  530MOL0     H69905   9.887   3.271   3.899 -1.4759  0.5985  1.8202
  530MOL0     H69906   9.971   3.414   3.849 -0.1535  0.9473  1.3947
  530MOL0     H69907  10.043   3.297   4.108  1.6496 -0.6787 -1.7705
  530MOL0     H69908   9.892   3.388   4.107  1.5784  5.5640  1.3120
  530MOL0     H69909  10.109   3.522   4.146  0.3191 -0.9893  0.4242
  530MOL0     H69910  10.126   3.509   3.969 -3.5304 -0.1642 -2.8370
  530MOL0     H69911   9.889   3.610   3.953 -0.3937  2.1764 -0.8674
  530MOL0     H69912  10.005   3.722   4.013 -2.7452  1.0684 -0.5160
  530MOL0     H69913   9.804   3.851   4.130  1.4518  0.6974 -0.9126
  530MOL0     H69914   9.869   3.944   4.461 -0.1492  0.7332 -0.5368
  530MOL0     H69915   9.735   3.852   4.502  1.4452 -0.7123  0.3867
  530MOL0     H69916   9.762   4.079   4.289  1.4701  0.6898  2.3077
  530MOL0     H69917   9.687   4.075   4.439 -1.1821 -1.3607  0.6059
  530MOL0     H69918   9.520   4.056   4.275  0.4648 -0.0557  2.9544
  530MOL0     H69919   9.614   3.948   4.176 -2.8146  0.4882 -0.9303
  530MOL0     H69920   9.440   3.892   4.421 -4.4213 -1.6089 -1.4524
  530MOL0     H69921   9.557   3.777   4.370  1.2622  1.5454  2.1459
  530MOL0     H69922   9.222   3.856   4.063 -3.0677  0.7946  0.4974
  530MOL0     H69923   9.017   3.732   4.057  1.1097 -0.6171 -1.2112
  530MOL0     H69924   8.620   3.593   4.167 -0.0042 -0.5124 -0.3030
  530MOL0     H69925   8.423   3.453   4.095 -0.1013  1.1768  2.1292
  530MOL0     H69926   8.325   3.150   3.793  0.5331 -1.1523  1.0315
  530MOL0     H69927   8.478   3.081   3.827 -1.7854 -1.4841 -2.1061
  530MOL0     H69928   8.592   3.259   3.687 -0.7894  3.4859 -0.9268
  530MOL0     H69929   8.427   3.325   3.653 -1.5343 -0.8586 -0.9306
  530MOL0     H69930   8.509   3.186   3.457 -2.3969 -2.8554 -3.4293
  530MOL0     H69931   8.364   3.126   3.543  0.0068 -0.7942  3.1975
  530MOL0     H69932   8.637   3.027   3.626 -0.2413  1.2710  0.0400
  530MOL0     H69933   8.480   2.948   3.652 -5.0337  4.6978  0.4387
  530MOL0     H69934   8.588   2.977   3.361  1.8324 -0.3662  0.0519
  530MOL0     H69935   8.457   2.869   3.419  2.3556 -3.1731 -0.6669
  530MOL0     H69936   8.584   2.742   3.525 -1.5732  0.3810 -1.7647
  530MOL0     H69937   8.741   2.826   3.490 -0.2697  1.7367  2.0459
  530MOL0     H69938   8.555   2.724   3.267  1.1826 -2.1063 -1.0383
  530MOL0     H69939   8.726   2.789   3.261  2.6060 -1.5161 -1.6925
  530MOL0     H69940   8.675   2.543   3.430 -0.3220 -0.8100 -1.6633
  530MOL0     H69941   8.826   2.616   3.350  1.3358 -0.8301 -0.7156
  530MOL0     H69942   8.689   3.188   3.899  2.5443 -1.3902  3.0468
  530MOL0     H69943   8.877   3.296   3.988  2.5198  1.5504  1.6323
  530MOL0     H69944   9.132   3.517   4.415  0.4586 -0.0837  0.9938
  530MOL0     H69945   9.344   3.647   4.423  1.5097 -0.0797 -1.4282
  530MOL0     H69946  10.214   2.760   3.689  1.4453 -1.5092 -0.8218
  530MOL0     H69947  10.201   2.511   3.643 -0.6865  0.3109  2.1242
  530MOL0     H69948  10.133   2.198   3.155 -1.1557 -0.2182  0.3721
  530MOL0     H69949  10.065   1.948   3.124  1.6077  2.1985 -2.2802
  530MOL0     H69950   9.786   1.836   3.382  2.2064  1.7296 -2.4121
  530MOL0     H69951   9.872   1.720   3.468  0.4457  3.7502  0.4741
  530MOL0     H69952   9.688   1.608   3.312 -0.9123 -1.5095 -1.7390
  530MOL0     H69953   9.765   1.712   3.181  1.4162 -0.9828 -0.6397
  530MOL0     H69954   9.926   1.478   3.302 -1.6490 -1.5575  0.4056
  530MOL0     H69955   9.955   1.570   3.162  0.2154  0.8540  0.8853
  530MOL0     H69956   9.755   1.358   3.239 -1.0993  3.1971  0.9074
  530MOL0     H69957   9.728   1.444   3.086 -1.4610 -1.9646  0.5932
  530MOL0     H69958  10.099   1.274   2.956  0.4405 -0.7282  0.5140
  530MOL0     H69959   9.987   1.929   3.542 -1.8776  0.3293  0.1821
  530MOL0     H69960  10.060   2.165   3.569  0.9731  0.8871 -0.3342
  531MOL0     O69961   5.375   0.538   9.785  0.0483  0.4733  0.1374
  531MOL0     C69962   5.255   0.530   9.808  0.1385 -1.0772  0.0562
  531MOL0     O69963   5.182   0.424   9.778 -0.4774  0.5785 -0.5755
  531MOL0     C69964   5.232   0.314   9.719 -0.2839  0.2348  0.2451
  531MOL0     C69965   5.357   0.244   9.755  0.6215 -0.3791 -0.7164
  531MOL0     C69966   5.391   0.131   9.688  0.6838 -0.3535  0.6384
  531MOL0     C69967   5.320   0.090   9.570 -0.3492  0.2494 -0.5889
  531MOL0     O69968   5.354  -0.026   9.497  0.3863 -0.5320 -0.5380
  531MOL0     C69969   5.486  -0.032   9.454 -0.6638  0.4769 -0.6362
  531MOL0     C69970   5.490  -0.112   9.326  0.0572 -0.8276  0.5899
  531MOL0     C69971   5.630  -0.152   9.281 -0.6459  0.5372 -0.0792
  531MOL0     C69972   5.625  -0.196   9.132 -0.1537  0.3828  0.5312
  531MOL0     C69973   5.770  -0.245   9.088 -0.5129  0.9781 -0.0550
  531MOL0     C69974   5.820  -0.370   9.149 -0.4743 -0.6931 -0.3002
  531MOL0     C69975   5.721  -0.494   9.170 -0.3810  0.3078  0.5440
  531MOL0     C69976   5.776  -0.634   9.203  0.2672 -0.6912  0.1131
  531MOL0     N69977   5.837  -0.618   9.330 -0.1284 -0.4031 -0.3488
  531MOL0     C69978   5.771  -0.659   9.439  0.0366  0.3021 -0.6407
  531MOL0     C69979   5.854  -0.675   9.535  0.2205 -0.4728 -0.2965
  531MOL0     C69980   5.833  -0.695   9.684 -0.0977  0.0771 -0.4309
  531MOL0     C69981   5.722  -0.610   9.741 -0.0302  0.1190  0.5245
  531MOL0     C69982   5.746  -0.466   9.743 -0.4270 -0.4598  0.6589
  531MOL0     C69983   5.641  -0.387   9.806 -0.0758 -0.4449  0.8515
  531MOL0     O69984   5.529  -0.369   9.718 -0.1588 -0.5097 -0.2165
  531MOL0     C69985   5.419  -0.290   9.761 -0.2713 -1.2590  0.7667
  531MOL0     C69986   5.297  -0.308   9.684  0.0111 -0.6152 -0.0903
  531MOL0     C69987   5.193  -0.222   9.712 -0.3457 -0.3194 -0.7418
  531MOL0     C69988   5.203  -0.121   9.819  0.7045 -0.2074 -0.4198
  531MOL0     C69989   5.085  -0.034   9.857  0.4860 -0.0695 -0.0828
  531MOL0     O69990   5.096   0.063   9.949  0.3284 -0.6492  1.2004
  531MOL0     C69991   4.986   0.139   9.970  1.1327 -0.0319  0.5775
  531MOL0     C69992   4.925   0.139  10.097 -0.8525  1.0045  1.3590
  531MOL0     C69993   4.811   0.206  10.121 -0.5059 -0.3649 -0.6770
  531MOL0     C69994   4.751   0.285  10.021 -0.2457 -0.4055  0.7344
  531MOL0     O69995   4.629   0.342  10.048 -0.8801 -0.1695 -0.1331
  531MOL0     C69996   4.524   0.345   9.950  0.4574 -0.3000 -0.2124
  531MOL0     C69997   4.402   0.419  10.015 -0.2642  0.0934  0.8933
  531MOL0     C69998   4.442   0.572  10.030 -0.2235 -0.2481 -0.8965
  531MOL0     C69999   4.329   0.663  10.091  0.2325 -0.2137  0.9275
  531MOL0     C70000   4.394   0.788  10.118 -0.8216 -0.7885  0.0011
  531MOL0     C70001   4.484   0.793  10.243  0.4524  0.5214  0.7391
  531MOL0     C70002   4.504   0.938  10.290 -0.2955 -0.0083  0.4213
  531MOL0     C70003   4.403   0.969  10.399 -0.5886 -0.6394  0.1649
  531MOL0    Cl70004   4.460   0.863  10.542  0.4326  0.0113  0.2039
  531MOL0     C70005   4.810   0.282   9.888  0.4436 -0.4811 -0.0221
  531MOL0     C70006   4.932   0.216   9.869  0.2006  0.1981  0.3007
  531MOL0     O70007   4.984  -0.072   9.799 -0.6175 -0.5076 -0.0664
  531MOL0     C70008   5.318  -0.123   9.901 -0.1906  1.2398  1.3845
  531MOL0     C70009   5.415  -0.208   9.875 -0.3459 -0.6968 -0.2732
  531MOL0     N70010   5.979  -0.637   9.485 -0.2261 -0.6678 -0.5170
  531MOL0     N70011   5.966  -0.600   9.360  0.0649 -0.3702 -0.3795
  531MOL0     C70012   5.213   0.165   9.532 -0.0477 -0.4313 -0.4509
  531MOL0     C70013   5.158   0.262   9.608 -0.2526 -0.1773 -0.5729
  531MOL0     C70014   5.174   0.652   9.850 -1.2058 -0.7297 -0.9994
  531MOL0     C70015   5.230   0.775   9.888  0.8469  0.0952  0.2708
  531MOL0     C70016   5.156   0.885   9.932  0.7422 -0.6064  0.0833
  531MOL0     C70017   5.017   0.876   9.963  0.3003  0.2733 -0.5656
  531MOL0     O70018   4.934   0.985   9.999 -0.1552  0.1633  0.8632
  531MOL0     C70019   4.990   1.069  10.095  0.8792  0.4409  0.4065
  531MOL0     C70020   4.883   1.116  10.192  0.1171 -0.0399 -0.4708
  531MOL0     C70021   4.923   1.229  10.283  0.6922 -0.4217  0.4394
  531MOL0     C70022   4.809   1.310  10.356 -0.6832 -0.1777 -0.8176
  531MOL0     C70023   4.759   1.222  10.461  0.1022  1.1872 -0.6272
  531MOL0     C70024   4.724   1.145  10.552  0.1192  0.1019  0.3125
  531MOL0     C70025   4.963   0.741   9.952  0.2088  0.1359 -0.0027
  531MOL0     C70026   5.033   0.633   9.884  0.6681 -0.1003  0.0553
  531MOL0     H70027   5.423   0.287   9.829 -1.0412  4.3205 -1.6717
  531MOL0     H70028   5.478   0.074   9.718 -1.7593 -4.4979  0.5949
  531MOL0     H70029   5.540  -0.083   9.535 -4.2723 -1.3998  0.7943
  531MOL0     H70030   5.542   0.062   9.444 -1.4807  1.3136  1.8124
  531MOL0     H70031   5.443  -0.045   9.252 -1.7929 -2.6107  0.0472
  531MOL0     H70032   5.433  -0.205   9.332  0.1573 -0.9276  0.0721
  531MOL0     H70033   5.672  -0.226   9.351 -0.7940 -0.4602 -1.0284
  531MOL0     H70034   5.698  -0.066   9.293  0.0397 -0.0499  0.3413
  531MOL0     H70035   5.548  -0.274   9.123 -2.3822  2.7158 -2.8263
  531MOL0     H70036   5.597  -0.109   9.072  2.2319  2.5958  2.4090
  531MOL0     H70037   5.846  -0.168   9.106  2.4266 -0.7255 -3.7355
  531MOL0     H70038   5.772  -0.250   8.979  6.0255 -0.5913 -0.2740
  531MOL0     H70039   5.846  -0.331   9.247 -0.5159  3.0381 -1.6060
  531MOL0     H70040   5.914  -0.404   9.103  0.2828 -1.4901  1.7139
  531MOL0     H70041   5.642  -0.474   9.244 -0.4928  3.3348 -0.2769
  531MOL0     H70042   5.664  -0.507   9.078 -1.1678  1.9787  0.7596
  531MOL0     H70043   5.846  -0.663   9.124  0.5612 -0.2382  0.1995
  531MOL0     H70044   5.693  -0.704   9.214  0.6170 -0.8107  2.9500
  531MOL0     H70045   5.664  -0.674   9.453  0.0909  0.5154  0.0247
  531MOL0     H70046   5.927  -0.666   9.732  1.1022  0.9445 -3.1372
  531MOL0     H70047   5.808  -0.801   9.701  1.7254 -0.3206 -0.0735
  531MOL0     H70048   5.699  -0.644   9.842  0.9629  0.0284  0.7254
  531MOL0     H70049   5.630  -0.626   9.684 -0.6795  2.8571  0.6532
  531MOL0     H70050   5.839  -0.453   9.800 -0.2272 -1.0346  0.4769
  531MOL0     H70051   5.762  -0.424   9.643 -2.3596  1.3251  1.0428
  531MOL0     H70052   5.683  -0.287   9.816 -1.8397  0.6135 -1.3804
  531MOL0     H70053   5.606  -0.413   9.907 -1.8249 -4.4621 -0.5649
  531MOL0     H70054   5.287  -0.384   9.607 -3.1172  1.0365 -1.4963
  531MOL0     H70055   5.097  -0.228   9.661 -0.6786 -1.2047 -0.0366
  531MOL0     H70056   4.984   0.091  10.174  2.3690 -0.9850 -2.0071
  531MOL0     H70057   4.772   0.204  10.223 -0.5726 -1.1636 -0.7096
  531MOL0     H70058   4.503   0.241   9.923 -0.4890 -0.8007  2.2178
  531MOL0     H70059   4.554   0.398   9.859 -2.2776 -1.5386 -1.9568
  531MOL0     H70060   4.379   0.369  10.109  2.5198 -2.2491  0.4582
  531MOL0     H70061   4.322   0.410   9.941  0.0883  0.1129  0.5033
  531MOL0     H70062   4.478   0.612   9.935 -0.1818  3.2687  0.4392
  531MOL0     H70063   4.524   0.573  10.103 -1.9878 -0.1154  1.2041
  531MOL0     H70064   4.257   0.668  10.009  0.1684 -0.3831  0.9714
  531MOL0     H70065   4.290   0.620  10.184  1.7438 -0.2812  1.5561
  531MOL0     H70066   4.311   0.854  10.145  2.7033  2.9814  2.8411
  531MOL0     H70067   4.442   0.840  10.035  2.5229  3.7812  4.2191
  531MOL0     H70068   4.579   0.745  10.220 -0.7134 -1.4210 -0.2941
  531MOL0     H70069   4.438   0.734  10.322  0.6994  0.1047  0.5753
  531MOL0     H70070   4.606   0.941  10.330 -0.9430  0.3872  2.1619
  531MOL0     H70071   4.491   1.007  10.206 -1.4421  1.6372  1.8717
  531MOL0     H70072   4.301   0.941  10.372 -0.4411 -1.5064  0.4652
  531MOL0     H70073   4.399   1.073  10.431  1.9976 -0.1726 -0.7907
  531MOL0     H70074   4.765   0.347   9.813 -0.4263 -0.3935  0.5622
  531MOL0     H70075   4.987   0.211   9.776 -0.5768 -2.1009 -0.0880
  531MOL0     H70076   5.309  -0.061   9.990  0.1163  1.5582  1.1991
  531MOL0     H70077   5.499  -0.199   9.944 -3.0465  2.4687  3.0219
  531MOL0     H70078   5.171   0.153   9.432 -1.7127  0.8730  0.0408
  531MOL0     H70079   5.074   0.322   9.574 -0.2088  1.4138  1.9291
  531MOL0     H70080   5.337   0.794   9.890  0.6917  0.8817  1.4331
  531MOL0     H70081   5.201   0.984   9.932  0.9153 -0.6654  1.2765
  531MOL0     H70082   5.039   1.155  10.048 -2.3431  2.3890  0.2618
  531MOL0     H70083   5.066   1.017  10.153  1.7828 -0.4722 -1.5286
  531MOL0     H70084   4.805   1.162  10.130 -0.9693  0.1888  1.0248
  531MOL0     H70085   4.844   1.035  10.253  1.9367  1.4153  2.9409
  531MOL0     H70086   4.964   1.295  10.207 -2.4451  1.3745  0.1246
  531MOL0     H70087   5.000   1.203  10.356  0.9436  2.0012  1.1054
  531MOL0     H70088   4.838   1.404  10.403 -1.2363  0.9587 -2.6538
  531MOL0     H70089   4.730   1.327  10.282 -0.4568 -3.4208 -1.9533
  531MOL0     H70090   4.688   1.098  10.641  1.7606 -2.1924 -0.1598
  531MOL0     H70091   4.856   0.727   9.966  0.1853 -0.2603 -0.5007
  531MOL0     H70092   4.984   0.537   9.880 -1.0650  0.7837 -0.9980
  532MOL0     O70093   9.589   0.649  11.124  0.0248  0.6754 -0.1204
  532MOL0     C70094   9.651   0.754  11.153 -0.0597 -0.6734 -0.1181
  532MOL0     O70095   9.743   0.759  11.247  0.2811 -0.1509 -0.4498
  532MOL0     C70096   9.732   0.686  11.362 -0.6935 -0.4030 -0.2400
  532MOL0     C70097   9.833   0.712  11.457 -0.4419  0.8131 -0.7242
  532MOL0     C70098   9.833   0.656  11.582 -0.0769  0.7984 -0.6164
  532MOL0     C70099   9.745   0.556  11.621  0.7672 -0.2093 -0.2815
  532MOL0     O70100   9.747   0.512  11.749  0.0857  0.1859 -0.1518
  532MOL0     C70101   9.622   0.480  11.806 -0.1484  0.1825  0.0838
  532MOL0     C70102   9.599   0.329  11.797  0.3664 -0.6740  0.3558
  532MOL0     C70103   9.740   0.249  11.824 -0.7515  0.6605  0.4535
  532MOL0     C70104   9.728   0.102  11.835  0.5080 -0.3176  0.4226
  532MOL0     C70105   9.678   0.032  11.708 -0.1193  0.0540  0.2581
  532MOL0     C70106   9.692  -0.122  11.718 -0.4469  0.7304  0.4958
  532MOL0     C70107   9.711  -0.186  11.577 -0.3376  0.3592 -0.1821
  532MOL0     C70108   9.584  -0.171  11.499  0.9923 -0.3755  0.2611
  532MOL0     N70109   9.572  -0.255  11.377  0.0649  0.5225  0.3630
  532MOL0     C70110   9.588  -0.203  11.250  0.4476 -0.9305  0.5732
  532MOL0     C70111   9.587  -0.317  11.182 -0.2889 -0.2052  0.4666
  532MOL0     C70112   9.619  -0.314  11.038  0.1516  0.6377  0.7191
  532MOL0     C70113   9.531  -0.230  10.946 -0.3029  0.3693  0.0149
  532MOL0     C70114   9.583  -0.232  10.806 -0.9425 -0.3143 -1.2942
  532MOL0     C70115   9.489  -0.139  10.718 -0.2254 -0.7962  0.0692
  532MOL0     O70116   9.430  -0.221  10.619  0.7621 -0.3589  0.0549
  532MOL0     C70117   9.384  -0.148  10.506 -0.3190 -1.5861 -0.1645
  532MOL0     C70118   9.290  -0.048  10.516  0.7883 -0.5337  0.3129
  532MOL0     C70119   9.249   0.032  10.404 -0.6283 -1.0018 -0.0451
  532MOL0     C70120   9.299  -0.006  10.271 -1.0308 -1.4822 -0.4903
  532MOL0     C70121   9.265   0.056  10.147 -0.2551 -1.0150 -0.8042
  532MOL0     O70122   9.326  -0.005  10.039 -0.2102 -0.8574 -0.3221
  532MOL0     C70123   9.290  -0.005   9.907 -0.4752  0.4897  0.2952
  532MOL0     C70124   9.166   0.038   9.859  0.3197 -0.2430 -0.1553
  532MOL0     C70125   9.144   0.034   9.724 -0.2177  0.7471 -1.2845
  532MOL0     C70126   9.250  -0.008   9.640 -0.8221 -0.5186  0.3915
  532MOL0     O70127   9.229   0.004   9.504  0.1372  0.1505 -0.5407
  532MOL0     C70128   9.202   0.139   9.452 -0.1916 -0.0429  1.2509
  532MOL0     C70129   9.221   0.140   9.302  1.0097 -0.3976 -0.4934
  532MOL0     C70130   9.363   0.093   9.262 -0.3718  0.2364 -0.6846
  532MOL0     C70131   9.372   0.047   9.119 -0.4730 -0.0474  0.1060
  532MOL0     C70132   9.476  -0.050   9.078 -0.2663  0.2891  0.6711
  532MOL0     C70133   9.452  -0.098   8.927  0.0013  0.3076  0.3664
  532MOL0     C70134   9.561  -0.195   8.874 -0.2991 -0.1852 -0.1499
  532MOL0     C70135   9.655  -0.118   8.785  0.2117 -1.3380  0.7650
  532MOL0    Cl70136   9.577  -0.100   8.619 -0.0084  0.3983 -0.1355
  532MOL0     C70137   9.377  -0.059   9.684  0.6425 -0.1226 -0.0993
  532MOL0     C70138   9.403  -0.046   9.824  0.5580  0.0768  0.0607
  532MOL0     O70139   9.179   0.142  10.146  0.6145 -0.4338 -0.5276
  532MOL0     C70140   9.404  -0.106  10.264 -0.9203 -0.4434  0.5510
  532MOL0     C70141   9.439  -0.173  10.380  1.1786  0.2550 -0.1496
  532MOL0     N70142   9.583  -0.433  11.262 -0.1212  0.3676  0.2168
  532MOL0     N70143   9.573  -0.395  11.383  0.3690  0.0206 -1.3187
  532MOL0     C70144   9.646   0.526  11.526  0.0337  1.0266 -0.0130
  532MOL0     C70145   9.642   0.583  11.396 -0.2639 -0.1911 -0.5062
  532MOL0     C70146   9.660   0.851  11.038  0.9525  0.7164 -0.2673
  532MOL0     C70147   9.569   0.833  10.933 -0.4565  0.3688 -0.0722
  532MOL0     C70148   9.581   0.899  10.817 -0.6472 -0.6269  0.9685
  532MOL0     C70149   9.680   1.002  10.802  0.3354 -0.1309  0.9535
  532MOL0     O70150   9.669   1.090  10.692  0.3100  0.5443  0.8069
  532MOL0     C70151   9.765   1.190  10.664 -0.0747  0.4458  0.5511
  532MOL0     C70152   9.709   1.277  10.548 -0.5937  0.1275  0.3766
  532MOL0     C70153   9.711   1.209  10.406 -0.0163 -0.2512  0.1521
  532MOL0     C70154   9.853   1.190  10.352 -0.7270  0.3745 -0.3738
  532MOL0     C70155   9.922   1.313  10.307  1.1979  0.6131 -0.4360
  532MOL0     C70156   9.965   1.418  10.261  0.4113 -0.5547 -0.5638
  532MOL0     C70157   9.776   1.020  10.907 -0.4737  0.4435 -0.8891
  532MOL0     C70158   9.763   0.941  11.021  0.3670 -0.5630 -0.0138
  532MOL0     H70159   9.895   0.800  11.446  0.0976  0.2311 -2.7406
  532MOL0     H70160   9.904   0.698  11.652 -1.5072 -0.5566  1.8067
  532MOL0     H70161   9.540   0.541  11.766 -0.4503 -1.2577 -1.6609
  532MOL0     H70162   9.627   0.508  11.911 -0.8169 -0.2809  0.2474
  532MOL0     H70163   9.562   0.299  11.699  0.5069 -1.5484  0.5604
  532MOL0     H70164   9.523   0.315  11.874 -1.4011  0.7218 -1.0279
  532MOL0     H70165   9.778   0.296  11.915  1.7529 -2.4091  1.1434
  532MOL0     H70166   9.816   0.271  11.748  1.0129 -0.0326  1.9439
  532MOL0     H70167   9.830   0.065  11.848  0.7514 -0.8524 -2.2769
  532MOL0     H70168   9.660   0.081  11.918  0.0184  1.6396  0.5487
  532MOL0     H70169   9.723   0.073  11.617 -0.6853  2.1416  0.8640
  532MOL0     H70170   9.572   0.048  11.684  0.1123 -0.4152 -1.1710
  532MOL0     H70171   9.607  -0.172  11.765  1.6051 -1.4263  2.0647
  532MOL0     H70172   9.783  -0.148  11.771 -0.5024 -0.8875 -0.1598
  532MOL0     H70173   9.797  -0.137  11.533 -1.0374  0.3839 -1.5652
  532MOL0     H70174   9.735  -0.292  11.581 -1.8308  0.0053  0.4040
  532MOL0     H70175   9.561  -0.068  11.468  3.6657  0.2335  0.0916
  532MOL0     H70176   9.503  -0.194  11.570  1.2315  1.3554  1.1708
  532MOL0     H70177   9.595  -0.102  11.211 -0.2876 -1.2791 -0.5284
  532MOL0     H70178   9.601  -0.420  11.017 -2.7192  0.4675  3.3101
  532MOL0     H70179   9.723  -0.283  11.020 -0.1813  0.5986 -1.6995
  532MOL0     H70180   9.530  -0.127  10.983 -3.2066 -0.0156  1.2260
  532MOL0     H70181   9.425  -0.251  10.956 -1.3289  4.2771 -0.9315
  532MOL0     H70182   9.689  -0.207  10.792 -0.8419 -0.4059 -0.7180
  532MOL0     H70183   9.563  -0.335  10.778 -1.2515 -1.2609  1.9879
  532MOL0     H70184   9.548  -0.059  10.672  1.7031 -2.7935 -1.0529
  532MOL0     H70185   9.401  -0.099  10.770  0.0794 -0.5284  0.3935
  532MOL0     H70186   9.250  -0.037  10.616 -0.0559 -2.1438  0.1954
  532MOL0     H70187   9.167   0.100  10.420 -0.4239 -1.1650  1.8763
  532MOL0     H70188   9.085   0.042   9.932 -0.6637  0.1370 -1.2403
  532MOL0     H70189   9.047   0.042   9.677 -1.0236 -0.3925  0.0870
  532MOL0     H70190   9.270   0.211   9.499  1.3608 -2.3125  2.6889
  532MOL0     H70191   9.095   0.156   9.469 -1.2873  0.5135 -4.2740
  532MOL0     H70192   9.199   0.236   9.253  0.6029 -1.6959 -3.0105
  532MOL0     H70193   9.152   0.068   9.258  0.4891 -0.7358  0.8312
  532MOL0     H70194   9.386   0.012   9.333  0.3795  1.4245  0.4799
  532MOL0     H70195   9.438   0.172   9.271 -1.7944  1.4770  1.4164
  532MOL0     H70196   9.279   0.003   9.082  0.4367 -1.7411 -0.2765
  532MOL0     H70197   9.384   0.141   9.065 -0.9481 -0.0043  0.0762
  532MOL0     H70198   9.474  -0.146   9.132 -1.0793 -1.6300 -2.4757
  532MOL0     H70199   9.572   0.000   9.083  0.8566 -1.5792 -0.6776
  532MOL0     H70200   9.451  -0.008   8.865  1.0367  0.3354  0.3722
  532MOL0     H70201   9.352  -0.138   8.910  0.8755 -1.1209 -1.9429
  532MOL0     H70202   9.613  -0.257   8.947 -1.6639 -1.3825 -0.1635
  532MOL0     H70203   9.500  -0.257   8.808  1.2109 -1.2909 -0.5682
  532MOL0     H70204   9.754  -0.164   8.781  1.8490  1.7615  1.9713
  532MOL0     H70205   9.672  -0.019   8.829 -4.0385 -1.2641  2.6927
  532MOL0     H70206   9.459  -0.080   9.616  4.7281  4.4148  2.7439
  532MOL0     H70207   9.500  -0.051   9.873 -0.5325 -0.3331  2.3379
  532MOL0     H70208   9.450  -0.130  10.168  1.3318  2.7294  0.6593
  532MOL0     H70209   9.520  -0.245  10.371  0.9269 -0.1346  0.6098
  532MOL0     H70210   9.558   0.464  11.542  0.0743  0.2151 -2.5213
  532MOL0     H70211   9.554   0.559  11.338 -0.6051  1.0938 -0.5500
  532MOL0     H70212   9.489   0.760  10.945  0.5739 -1.0499 -1.5357
  532MOL0     H70213   9.491   0.897  10.757  0.2157  1.8861 -0.5530
  532MOL0     H70214   9.861   1.139  10.649 -0.4318 -0.4725  1.3177
  532MOL0     H70215   9.779   1.255  10.751  4.5082 -1.1282  1.3087
  532MOL0     H70216   9.606   1.307  10.573 -1.1180  0.3836 -1.8318
  532MOL0     H70217   9.765   1.371  10.548 -0.2431 -0.0387 -1.8274
  532MOL0     H70218   9.660   1.269  10.330 -4.2017 -1.7644  1.4937
  532MOL0     H70219   9.655   1.116  10.420 -0.7416 -0.3847 -2.9242
  532MOL0     H70220   9.924   1.138  10.417 -0.8486 -1.0900 -1.3611
  532MOL0     H70221   9.848   1.123  10.265  4.3309 -2.3363  0.9986
  532MOL0     H70222   9.991   1.521  10.242 -0.9795 -0.2536 -0.9331
  532MOL0     H70223   9.865   1.083  10.900 -0.3910  0.5538  0.8029
  532MOL0     H70224   9.822   0.955  11.111 -0.9653  1.5183  0.6157
  533MOL0     O70225   7.871   6.591   8.703  0.5154 -0.0843  0.3855
  533MOL0     C70226   7.849   6.602   8.817  0.7918 -0.7796 -0.7257
  533MOL0     O70227   7.732   6.569   8.878  0.8016 -0.2791 -0.2789
  533MOL0     C70228   7.646   6.487   8.813  1.2701 -0.4698 -0.4561
  533MOL0     C70229   7.672   6.356   8.794 -0.1441  0.5502 -0.3966
  533MOL0     C70230   7.580   6.263   8.739  0.2592 -0.0670 -1.6306
  533MOL0     C70231   7.451   6.300   8.709  0.5118 -1.1135 -0.0060
  533MOL0     O70232   7.350   6.223   8.663  0.0667 -0.6322 -0.3425
  533MOL0     C70233   7.371   6.139   8.555 -0.8889 -0.6850 -0.3086
  533MOL0     C70234   7.235   6.095   8.508  0.2304 -0.2444 -0.3161
  533MOL0     C70235   7.230   5.978   8.415  0.5435 -0.3824 -0.4433
  533MOL0     C70236   7.297   6.011   8.286  0.4044  0.1658 -0.0670
  533MOL0     C70237   7.223   5.931   8.178 -0.3672  0.2841 -0.9422
  533MOL0     C70238   7.084   5.969   8.127 -0.1126 -0.6265 -0.0875
  533MOL0     C70239   7.042   5.882   8.023  0.1693  0.3932  0.1529
  533MOL0     C70240   6.899   5.930   7.978  0.3984  0.5841  1.1197
  533MOL0     N70241   6.863   5.883   7.842  0.5560  0.6443 -0.0715
  533MOL0     C70242   6.900   5.932   7.718  0.5559  0.2832  0.3828
  533MOL0     C70243   6.832   5.853   7.634 -0.1170 -0.8139  0.4569
  533MOL0     C70244   6.829   5.861   7.475 -0.2436  0.4091 -0.5519
  533MOL0     C70245   6.739   5.987   7.442 -0.1270  0.1661 -0.7028
  533MOL0     C70246   6.597   5.960   7.488  0.8124  0.3653  0.6537
  533MOL0     C70247   6.517   5.852   7.399  0.3278 -0.6769 -0.3086
  533MOL0     O70248   6.540   5.870   7.265  0.2388  0.3463 -0.2184
  533MOL0     C70249   6.494   5.772   7.187 -0.4092 -0.3408 -0.1070
  533MOL0     C70250   6.419   5.665   7.221 -0.4313  0.6168  0.3982
  533MOL0     C70251   6.377   5.578   7.122 -0.3306 -0.9843  0.1720
  533MOL0     C70252   6.412   5.593   6.996  0.0969 -0.1536  0.1356
  533MOL0     C70253   6.353   5.503   6.888 -0.1221  0.4883  1.1164
  533MOL0     O70254   6.370   5.543   6.753  0.7197  0.6117 -0.0371
  533MOL0     C70255   6.313   5.469   6.650 -0.0049  0.5564 -1.1864
  533MOL0     C70256   6.177   5.474   6.627 -0.0841  0.8026 -0.2798
  533MOL0     C70257   6.118   5.396   6.530  0.1837  0.2065  1.0624
  533MOL0     C70258   6.189   5.291   6.463  0.3449 -0.3460  0.5952
  533MOL0     O70259   6.140   5.205   6.365 -0.4049 -1.0641  0.7916
  533MOL0     C70260   6.003   5.184   6.340  1.1100 -0.8971  0.0817
  533MOL0     C70261   5.980   5.034   6.319 -0.2521  0.1032  0.5455
  533MOL0     C70262   6.111   4.949   6.283  0.3638  0.2825 -0.7434
  533MOL0     C70263   6.075   4.791   6.279  0.2307  0.3381  0.5587
  533MOL0     C70264   6.189   4.697   6.284 -0.0630 -0.8576 -0.2427
  533MOL0     C70265   6.134   4.550   6.301 -0.4230 -0.7327 -0.5567
  533MOL0     C70266   6.259   4.452   6.321  0.4754 -0.2222  0.3865
  533MOL0     C70267   6.201   4.314   6.365  0.6472  0.4906  0.8698
  533MOL0    Cl70268   6.335   4.209   6.419 -0.7701  0.0721 -0.1571
  533MOL0     C70269   6.325   5.284   6.498 -1.0731 -0.4102  1.1302
  533MOL0     C70270   6.388   5.372   6.584 -0.2543 -0.9465  0.4037
  533MOL0     O70271   6.297   5.396   6.920 -0.8488  0.4159 -1.2354
  533MOL0     C70272   6.502   5.692   6.967  0.1481 -0.2485  0.7589
  533MOL0     C70273   6.546   5.790   7.056  0.6214 -1.2983 -0.2609
  533MOL0     N70274   6.754   5.760   7.705 -0.0783  0.6102 -0.7471
  533MOL0     N70275   6.775   5.770   7.834 -1.1880 -0.7037  0.5757
  533MOL0     C70276   7.427   6.438   8.707 -0.1153 -0.4439 -0.4739
  533MOL0     C70277   7.525   6.528   8.754  0.3286 -0.3306 -0.2821
  533MOL0     C70278   7.938   6.692   8.903 -0.3548 -0.4032  0.9730
  533MOL0     C70279   7.918   6.720   9.037  0.8033  0.5913 -0.0465
  533MOL0     C70280   8.019   6.773   9.116  0.2144 -0.0353 -0.3601
  533MOL0     C70281   8.117   6.852   9.056  0.3793 -0.1198  0.9617
  533MOL0     O70282   8.193   6.924   9.144  0.1667  0.2288  0.6723
  533MOL0     C70283   8.285   7.019   9.089  0.2169 -0.2802 -0.7806
  533MOL0     C70284   8.345   7.108   9.193  0.2198 -0.0067  0.7792
  533MOL0     C70285   8.397   7.040   9.314 -0.0243  1.3202  0.0496
  533MOL0     C70286   8.499   7.114   9.401 -0.0674 -0.1452  0.4628
  533MOL0     C70287   8.571   7.019   9.488 -0.1339  0.2264  0.4541
  533MOL0     C70288   8.615   6.931   9.557  1.1681 -0.4254  0.5130
  533MOL0     C70289   8.132   6.839   8.920 -0.1496  0.4283  0.3673
  533MOL0     C70290   8.043   6.768   8.839  0.2092  0.4809  0.4328
  533MOL0     H70291   7.769   6.322   8.831 -0.3004  0.1204 -0.3679
  533MOL0     H70292   7.607   6.158   8.732  0.9815  0.1032 -1.3983
  533MOL0     H70293   7.432   6.053   8.584  0.7094  0.9530  1.5691
  533MOL0     H70294   7.421   6.204   8.482  1.1538  0.6764  2.1214
  533MOL0     H70295   7.177   6.182   8.475 -1.8246 -1.2153  0.4984
  533MOL0     H70296   7.189   6.045   8.593 -3.7351 -1.5187 -2.9092
  533MOL0     H70297   7.132   5.933   8.396 -0.3690  1.1547  0.4236
  533MOL0     H70298   7.294   5.902   8.461  2.1634  0.3619 -1.3811
  533MOL0     H70299   7.289   6.119   8.268 -2.4992 -0.0186 -0.3776
  533MOL0     H70300   7.401   5.977   8.287 -0.2820 -2.0689  0.9644
  533MOL0     H70301   7.224   5.826   8.209 -2.1737  1.1638  2.5520
  533MOL0     H70302   7.281   5.943   8.086  0.5177 -2.4308 -0.8303
  533MOL0     H70303   7.100   6.071   8.092  2.1546 -1.1971 -0.8738
  533MOL0     H70304   7.014   5.971   8.211 -0.4985  2.2975 -0.3901
  533MOL0     H70305   7.117   5.871   7.944 -0.7057  1.3770 -0.8549
  533MOL0     H70306   7.028   5.782   8.066  1.7250 -2.1619 -4.4753
  533MOL0     H70307   6.897   6.039   7.972  1.3306  0.5371 -1.8507
  533MOL0     H70308   6.817   5.910   8.047 -1.3897  3.9077  0.1508
  533MOL0     H70309   6.948   6.029   7.701 -0.0885  0.5652  0.1245
  533MOL0     H70310   6.780   5.773   7.432 -3.4624  0.4975  2.4339
  533MOL0     H70311   6.928   5.856   7.429  0.5953 -2.1245  1.3337
  533MOL0     H70312   6.738   6.015   7.336 -1.3535  2.6898 -0.0990
  533MOL0     H70313   6.790   6.069   7.492 -1.0954  0.4138 -0.0944
  533MOL0     H70314   6.588   5.930   7.592 -3.1567 -0.0869  0.3400
  533MOL0     H70315   6.532   6.048   7.491 -0.0495 -0.2148 -0.1483
  533MOL0     H70316   6.412   5.865   7.428  0.6164  0.8919  0.1372
  533MOL0     H70317   6.552   5.752   7.427  3.5218  0.4654  0.2078
  533MOL0     H70318   6.382   5.653   7.322 -2.1449  1.5036 -0.0885
  533MOL0     H70319   6.313   5.496   7.152 -1.1108  0.5400  3.0233
  533MOL0     H70320   6.100   5.535   6.673 -0.9598 -0.1149 -0.5171
  533MOL0     H70321   6.012   5.410   6.511  0.6261  2.3637 -0.1525
  533MOL0     H70322   5.966   5.231   6.249  0.3711 -0.5683  0.5386
  533MOL0     H70323   5.939   5.220   6.421 -0.0948  1.2121 -1.6820
  533MOL0     H70324   5.904   5.033   6.240  0.9399 -1.7093 -0.6586
  533MOL0     H70325   5.935   5.002   6.413  0.2634 -0.0469  0.7392
  533MOL0     H70326   6.190   4.964   6.357 -1.3201  2.8684  0.6835
  533MOL0     H70327   6.154   4.992   6.192  0.9476  3.9523  1.0995
  533MOL0     H70328   6.016   4.768   6.368  3.1482  0.0940  2.5901
  533MOL0     H70329   6.013   4.759   6.195 -1.1281 -1.5630  2.1887
  533MOL0     H70330   6.235   4.725   6.379 -1.4236 -2.4878  0.9582
  533MOL0     H70331   6.257   4.709   6.199  0.3756  0.3380  0.2516
  533MOL0     H70332   6.074   4.524   6.213 -3.7289  0.1440  1.2656
  533MOL0     H70333   6.072   4.551   6.391  0.7717  0.6540  0.2858
  533MOL0     H70334   6.314   4.442   6.227 -0.5209 -0.8245 -0.1439
  533MOL0     H70335   6.329   4.491   6.396  1.6593 -1.5490  0.0248
  533MOL0     H70336   6.150   4.262   6.284 -0.3490  2.5631  0.0834
  533MOL0     H70337   6.135   4.317   6.453 -1.6941 -1.3290 -0.7135
  533MOL0     H70338   6.374   5.210   6.436 -0.5136  2.3699 -2.0074
  533MOL0     H70339   6.493   5.352   6.607 -0.3105 -1.1063  0.5279
  533MOL0     H70340   6.539   5.700   6.865 -1.7382  1.5373  0.1437
  533MOL0     H70341   6.609   5.874   7.031  0.1504 -0.8995 -0.1271
  533MOL0     H70342   7.326   6.472   8.687 -0.2370 -0.5965 -0.1369
  533MOL0     H70343   7.508   6.631   8.786  2.4323 -0.0631  0.1557
  533MOL0     H70344   7.834   6.674   9.088 -1.3805 -0.7168 -4.4004
  533MOL0     H70345   8.026   6.796   9.222  0.4051 -0.4419 -0.2821
  533MOL0     H70346   8.236   7.093   9.026  3.0018  4.1271  1.6659
  533MOL0     H70347   8.366   6.978   9.028  1.5295 -2.6021  2.2457
  533MOL0     H70348   8.422   7.163   9.139 -0.3126  0.2024  0.2145
  533MOL0     H70349   8.266   7.180   9.218  0.1438 -0.3352  1.4965
  533MOL0     H70350   8.439   6.945   9.278  0.1126  2.5104 -3.2375
  533MOL0     H70351   8.316   7.006   9.379  0.4502 -1.1781 -0.5362
  533MOL0     H70352   8.576   7.160   9.338 -0.0544  0.4514  0.9020
  533MOL0     H70353   8.456   7.204   9.447  1.2343  0.1478  1.1640
  533MOL0     H70354   8.634   6.850   9.624 -0.9971 -0.5487  1.0327
  533MOL0     H70355   8.198   6.903   8.863  1.5328 -2.1180 -0.7457
  533MOL0     H70356   8.044   6.760   8.731 -0.0182  3.0311  0.1806
  534MOL0     O70357   1.493   8.965   9.284  0.1510 -0.2572 -0.5946
  534MOL0     C70358   1.407   9.053   9.265 -0.1320 -0.3927  0.5302
  534MOL0     O70359   1.369   9.112   9.150  0.5083 -0.4482 -0.3613
  534MOL0     C70360   1.438   9.085   9.028  0.9633 -0.5892  0.4921
  534MOL0     C70361   1.521   9.187   8.988  0.0065  0.8993 -0.0665
  534MOL0     C70362   1.585   9.185   8.859 -0.1276 -0.8884 -0.0642
  534MOL0     C70363   1.568   9.072   8.772 -0.4887 -0.1618  0.2412
  534MOL0     O70364   1.652   9.072   8.659 -0.2902 -0.8842 -0.4784
  534MOL0     C70365   1.674   8.940   8.599  0.0828 -0.5028 -0.3246
  534MOL0     C70366   1.756   8.975   8.478 -0.9169  0.0266 -0.0660
  534MOL0     C70367   1.768   8.853   8.388 -0.6763  0.0347 -0.1581
  534MOL0     C70368   1.833   8.898   8.255 -0.6195 -0.1480  0.5558
  534MOL0     C70369   1.976   8.960   8.282  0.3998  0.2865 -0.2868
  534MOL0     C70370   2.077   8.860   8.343  0.7756 -0.8218  0.5716
  534MOL0     C70371   2.220   8.854   8.281 -0.8979  0.7804  0.4113
  534MOL0     C70372   2.294   8.987   8.307  0.3350 -0.2390  0.0069
  534MOL0     N70373   2.424   8.995   8.239  0.3502 -0.3643  0.2437
  534MOL0     C70374   2.476   8.913   8.133 -0.1509 -0.8973 -0.3213
  534MOL0     C70375   2.575   8.984   8.080 -0.0236 -0.0745 -0.4558
  534MOL0     C70376   2.656   8.947   7.959 -0.9447  0.0761 -0.0416
  534MOL0     C70377   2.796   8.904   7.988 -0.0993 -0.5266  1.0227
  534MOL0     C70378   2.864   8.825   7.883 -0.4940  1.0056 -0.2468
  534MOL0     C70379   3.026   8.823   7.859  0.8363 -0.3654 -0.1193
  534MOL0     O70380   3.057   8.710   7.777 -0.5176 -0.5159  0.2478
  534MOL0     C70381   3.187   8.668   7.775 -1.0355  0.4070  0.2076
  534MOL0     C70382   3.297   8.752   7.762 -0.7710 -0.3043  0.4496
  534MOL0     C70383   3.428   8.696   7.769 -0.9118  0.1224  0.3591
  534MOL0     C70384   3.451   8.557   7.765 -0.9165  0.4102 -0.4960
  534MOL0     C70385   3.591   8.506   7.737  0.3174  0.0954  0.6756
  534MOL0     O70386   3.690   8.598   7.744 -0.4493  0.1569 -0.3040
  534MOL0     C70387   3.825   8.558   7.736 -0.5327  0.0213 -1.5586
  534MOL0     C70388   3.880   8.505   7.615  0.4319  0.5711 -0.2625
  534MOL0     C70389   4.018   8.488   7.610  0.0751  0.5028  0.1760
  534MOL0     C70390   4.101   8.512   7.709 -0.2766  0.6935  0.0620
  534MOL0     O70391   4.240   8.486   7.697  0.8797  0.5935 -0.4953
  534MOL0     C70392   4.278   8.353   7.728 -1.3139 -0.4288 -0.0267
  534MOL0     C70393   4.431   8.360   7.750  0.1195 -0.8201 -0.4319
  534MOL0     C70394   4.469   8.481   7.846 -0.5603  0.6045 -0.0647
  534MOL0     C70395   4.601   8.448   7.899 -0.4577  0.0542  0.6779
  534MOL0     C70396   4.680   8.548   7.997  0.0512  0.1669 -0.3312
  534MOL0     C70397   4.575   8.621   8.081  0.7299 -0.1313  0.5248
  534MOL0     C70398   4.646   8.694   8.199  0.4304 -0.4151 -0.3838
  534MOL0     C70399   4.572   8.828   8.226  0.3652 -0.3252  0.3981
  534MOL0    Cl70400   4.580   8.933   8.086 -0.3825 -0.0269 -0.6425
  534MOL0     C70401   4.055   8.574   7.827 -0.6911 -0.2439 -0.0241
  534MOL0     C70402   3.917   8.602   7.838 -0.0406 -0.9230  0.3745
  534MOL0     O70403   3.613   8.386   7.732 -0.3193  0.2581 -0.4229
  534MOL0     C70404   3.341   8.474   7.766  0.4609  0.5397  0.0190
  534MOL0     C70405   3.211   8.528   7.769 -0.1219  1.1799 -0.2027
  534MOL0     N70406   2.573   9.111   8.135 -0.0766  0.1290  0.7296
  534MOL0     N70407   2.484   9.115   8.231  0.5775  0.0609 -0.1650
  534MOL0     C70408   1.488   8.966   8.821  0.6047 -0.8156 -0.1802
  534MOL0     C70409   1.424   8.977   8.940  1.8341  0.1519 -0.1789
  534MOL0     C70410   1.328   9.102   9.382 -0.6880  0.0031  0.2311
  534MOL0     C70411   1.260   9.222   9.379 -0.2814 -0.9910  0.4776
  534MOL0     C70412   1.197   9.271   9.495  0.1092  1.0437  0.0891
  534MOL0     C70413   1.190   9.200   9.613  0.3247  0.7631  0.0971
  534MOL0     O70414   1.100   9.224   9.710  0.3556 -0.7993  0.2188
  534MOL0     C70415   1.138   9.326   9.795  0.0375 -0.0088 -0.5973
  534MOL0     C70416   1.022   9.357   9.887 -0.8648  0.0274  0.0751
  534MOL0     C70417   1.014   9.249   9.989  0.9963  0.0022  0.5199
  534MOL0     C70418   0.901   9.282  10.089  0.3787  0.1644  0.1120
  534MOL0     C70419   0.883   9.168  10.173 -0.0410  0.8125 -0.2707
  534MOL0     C70420   0.878   9.071  10.250  0.6647 -0.1563 -0.6899
  534MOL0     C70421   1.267   9.083   9.620  0.0309 -0.5236  0.0153
  534MOL0     C70422   1.325   9.032   9.500 -0.1119  0.4311  0.8991
  534MOL0     H70423   1.527   9.273   9.054  4.0428 -0.3224  1.4689
  534MOL0     H70424   1.653   9.264   8.828 -1.1767 -0.0848 -0.3324
  534MOL0     H70425   1.583   8.886   8.569 -0.7289  0.5931  0.0634
  534MOL0     H70426   1.745   8.877   8.653  3.6444 -0.6955 -4.6974
  534MOL0     H70427   1.852   8.996   8.525 -1.4971  2.2147  0.2800
  534MOL0     H70428   1.714   9.061   8.425  2.0942  1.3911 -0.4195
  534MOL0     H70429   1.666   8.819   8.368 -1.0468  1.1211 -0.2132
  534MOL0     H70430   1.835   8.784   8.441 -0.2827  0.5162 -0.0157
  534MOL0     H70431   1.855   8.807   8.198  4.2490  0.1822  1.5251
  534MOL0     H70432   1.772   8.971   8.201  0.4769 -0.0096 -0.5338
  534MOL0     H70433   1.975   9.048   8.347 -0.6751  1.1991 -1.4702
  534MOL0     H70434   2.015   8.993   8.185  1.6556  1.0496  0.4459
  534MOL0     H70435   2.024   8.764   8.344 -2.5922  0.8844  1.0019
  534MOL0     H70436   2.076   8.887   8.449 -4.0026  0.8012  0.3311
  534MOL0     H70437   2.278   8.770   8.321 -2.1853  0.1573  1.0587
  534MOL0     H70438   2.220   8.827   8.175 -1.9104 -1.7321  0.9802
  534MOL0     H70439   2.305   9.009   8.413 -0.0388  1.1237 -0.2144
  534MOL0     H70440   2.228   9.060   8.258  1.7619 -1.0218 -3.3649
  534MOL0     H70441   2.458   8.807   8.118 -0.5133 -0.8622 -0.1412
  534MOL0     H70442   2.655   9.032   7.890 -1.6938 -1.3145 -1.8501
  534MOL0     H70443   2.591   8.870   7.916 -3.7800  1.4843  1.4052
  534MOL0     H70444   2.799   8.852   8.085  1.1913 -0.4297  1.0536
  534MOL0     H70445   2.858   8.992   8.005 -0.4070 -0.0943 -0.0393
  534MOL0     H70446   2.842   8.721   7.910  0.9781  0.9941  1.0148
  534MOL0     H70447   2.810   8.835   7.788 -0.0733  0.0628 -0.6008
  534MOL0     H70448   3.079   8.811   7.954  0.4666 -0.9517  0.0228
  534MOL0     H70449   3.061   8.915   7.812  0.4123 -1.0543 -1.8807
  534MOL0     H70450   3.283   8.859   7.776  1.2938  0.1416 -0.5324
  534MOL0     H70451   3.513   8.764   7.763 -0.3228 -0.7231 -1.3701
  534MOL0     H70452   3.813   8.478   7.534 -1.6318  2.0229  0.8720
  534MOL0     H70453   4.058   8.449   7.517  1.4468 -1.4551  1.5032
  534MOL0     H70454   4.264   8.286   7.643 -1.3457 -1.4102  0.7438
  534MOL0     H70455   4.232   8.318   7.821  0.0164  0.5890  1.0579
  534MOL0     H70456   4.475   8.366   7.650  1.7998  2.0805  0.3701
  534MOL0     H70457   4.470   8.270   7.798  0.3587  0.7692  2.5928
  534MOL0     H70458   4.402   8.480   7.933  0.7900  1.1588  1.0144
  534MOL0     H70459   4.464   8.581   7.802 -0.5589 -0.4960 -2.7170
  534MOL0     H70460   4.592   8.350   7.947  1.5580 -1.8708 -2.5388
  534MOL0     H70461   4.665   8.433   7.812 -1.0946 -2.4714  0.5728
  534MOL0     H70462   4.734   8.619   7.932 -3.3096  2.0749 -1.2738
  534MOL0     H70463   4.755   8.495   8.057  0.8256  1.8413  0.2641
  534MOL0     H70464   4.499   8.554   8.122 -0.3793 -0.5964 -2.1225
  534MOL0     H70465   4.516   8.692   8.024 -0.8363 -0.1425  2.0580
  534MOL0     H70466   4.627   8.643   8.294 -2.7995 -0.7885 -1.1005
  534MOL0     H70467   4.751   8.722   8.186  0.4816 -0.1493  0.5407
  534MOL0     H70468   4.614   8.868   8.319 -1.7593  0.1962  1.1892
  534MOL0     H70469   4.467   8.808   8.250  0.5478 -0.0098  1.5042
  534MOL0     H70470   4.122   8.601   7.907  1.7183 -2.0635 -1.3048
  534MOL0     H70471   3.879   8.655   7.925  1.0076  1.9520 -0.7659
  534MOL0     H70472   3.356   8.366   7.762 -0.8790  0.3058  0.6624
  534MOL0     H70473   3.124   8.465   7.758 -0.1503  1.2718 -0.5095
  534MOL0     H70474   1.456   8.886   8.755  1.7171  0.9637 -3.0288
  534MOL0     H70475   1.358   8.896   8.969  0.3110  0.6776 -1.9087
  534MOL0     H70476   1.233   9.261   9.282 -0.1109 -0.6662  0.5595
  534MOL0     H70477   1.127   9.353   9.482  0.7789  2.3692  3.6494
  534MOL0     H70478   1.172   9.413   9.738 -1.2889  1.3352  0.5712
  534MOL0     H70479   1.219   9.292   9.860 -2.8008  0.4220  3.5279
  534MOL0     H70480   1.049   9.441   9.952 -1.3311  0.4339 -0.2450
  534MOL0     H70481   0.930   9.381   9.833 -0.6672 -0.6705 -0.6011
  534MOL0     H70482   1.103   9.252  10.053 -0.1256  3.3641  2.1297
  534MOL0     H70483   0.989   9.153   9.942  0.0448  0.5491 -0.1247
  534MOL0     H70484   0.915   9.373  10.149 -1.4433  0.8957 -0.5019
  534MOL0     H70485   0.800   9.300  10.051 -0.1320  0.9127  1.7151
  534MOL0     H70486   0.841   8.998  10.318  0.8803  1.1676  0.9262
  534MOL0     H70487   1.269   9.021   9.709 -0.1553 -2.1079 -1.0336
  534MOL0     H70488   1.400   8.953   9.499  0.9308  1.3429 -1.7604
  535MOL0     O70489   6.486   5.159   4.462 -0.3360 -0.4443  0.0827
  535MOL0     C70490   6.576   5.131   4.536  0.6734 -0.4654  0.5422
  535MOL0     O70491   6.593   5.020   4.599 -1.0453 -0.4832 -0.4090
  535MOL0     C70492   6.500   4.927   4.604  0.5551  0.1673  0.2576
  535MOL0     C70493   6.543   4.801   4.562 -0.3874 -0.6202 -0.7881
  535MOL0     C70494   6.457   4.695   4.520 -0.7763  0.0338 -0.5103
  535MOL0     C70495   6.315   4.724   4.541 -0.4922  0.4840  1.1720
  535MOL0     O70496   6.226   4.625   4.511  0.4859  0.7392  0.1937
  535MOL0     C70497   6.127   4.603   4.617 -0.2199 -0.0717  1.4572
  535MOL0     C70498   6.073   4.465   4.602  0.4578  0.5449 -0.5830
  535MOL0     C70499   6.162   4.380   4.699  1.1149 -0.4320 -0.6423
  535MOL0     C70500   6.112   4.239   4.678 -0.0396 -0.2134 -0.9323
  535MOL0     C70501   6.222   4.134   4.732  0.4967 -0.6492 -0.9544
  535MOL0     C70502   6.340   4.116   4.629  0.0985 -1.0106 -0.7685
  535MOL0     C70503   6.432   3.989   4.668  0.0748  0.0233  0.6494
  535MOL0     C70504   6.538   3.986   4.564 -0.8049  0.9354 -0.6700
  535MOL0     N70505   6.606   3.854   4.555  0.7775 -0.3375  0.4275
  535MOL0     C70506   6.561   3.736   4.500 -0.7920  1.4932 -0.5425
  535MOL0     C70507   6.652   3.641   4.538 -0.5085 -0.5812 -1.0632
  535MOL0     C70508   6.647   3.493   4.522 -1.3982 -0.3792  0.4456
  535MOL0     C70509   6.757   3.453   4.418  0.1090 -0.6868 -0.3675
  535MOL0     C70510   6.740   3.308   4.359 -0.6533 -0.2989 -0.8574
  535MOL0     C70511   6.756   3.200   4.467  0.0820 -0.5023 -0.3598
  535MOL0     O70512   6.640   3.175   4.547 -0.3075 -1.1294  0.2743
  535MOL0     C70513   6.669   3.116   4.667  0.1690 -0.2114  0.0696
  535MOL0     C70514   6.757   3.014   4.685 -0.0002 -0.1802  0.3561
  535MOL0     C70515   6.778   2.959   4.803  0.6953  0.4810  0.1407
  535MOL0     C70516   6.720   3.002   4.918 -0.9146 -0.1297 -0.4621
  535MOL0     C70517   6.758   2.941   5.048  0.5847 -0.9856  1.0289
  535MOL0     O70518   6.795   2.814   5.046 -0.8051 -1.2229  0.4202
  535MOL0     C70519   6.839   2.749   5.155  0.0160  0.6281  0.9651
  535MOL0     C70520   6.972   2.735   5.167 -0.3715 -0.0384  0.0847
  535MOL0     C70521   7.016   2.675   5.288  0.1147  0.2321 -1.1554
  535MOL0     C70522   6.932   2.623   5.390  0.3795  0.6606  0.5193
  535MOL0     O70523   6.991   2.562   5.505  0.9714 -0.8506  0.1004
  535MOL0     C70524   6.909   2.490   5.588  0.0003 -0.0362 -0.5748
  535MOL0     C70525   6.896   2.342   5.543 -0.3274 -0.1217 -0.2542
  535MOL0     C70526   7.022   2.254   5.561  1.3677  1.2984  0.0308
  535MOL0     C70527   6.984   2.106   5.560 -0.4434  0.4407  0.7203
  535MOL0     C70528   7.099   2.010   5.507  0.3142 -0.5672 -1.5855
  535MOL0     C70529   7.229   2.045   5.569  0.0550  0.6313 -0.4692
  535MOL0     C70530   7.343   1.936   5.545 -0.2663 -0.2083  0.2993
  535MOL0     C70531   7.483   2.004   5.516  0.0728 -0.0880  0.0015
  535MOL0    Cl70532   7.546   2.066   5.673 -0.0056 -0.2429 -0.2145
  535MOL0     C70533   6.791   2.639   5.369  0.3999  0.0812  0.8161
  535MOL0     C70534   6.749   2.703   5.251 -0.3079  0.8528 -0.0855
  535MOL0     O70535   6.754   3.015   5.147  0.4683 -0.1567 -0.1015
  535MOL0     C70536   6.630   3.109   4.909  0.2077 -0.4579  1.2564
  535MOL0     C70537   6.604   3.163   4.783  0.2617 -0.3976 -0.2683
  535MOL0     N70538   6.756   3.712   4.595 -0.0536  0.0070 -0.2718
  535MOL0     N70539   6.732   3.835   4.603 -0.8749  0.3154 -0.9234
  535MOL0     C70540   6.275   4.845   4.591  0.9172 -0.6106 -0.0498
  535MOL0     C70541   6.361   4.949   4.624 -0.5299 -0.0467 -0.0196
  535MOL0     C70542   6.670   5.233   4.559  0.0807 -0.4332  0.0097
  535MOL0     C70543   6.772   5.202   4.644  0.0353 -0.1819 -0.3373
  535MOL0     C70544   6.863   5.296   4.680 -0.1293 -0.0592  0.3255
  535MOL0     C70545   6.869   5.424   4.616 -0.2913 -0.2661 -0.2698
  535MOL0     O70546   6.971   5.510   4.643 -0.4797  0.0378  0.1663
  535MOL0     C70547   7.023   5.501   4.770 -0.4665  0.3786  0.2159
  535MOL0     C70548   7.101   5.635   4.779 -0.5641  0.9142 -0.4058
  535MOL0     C70549   7.193   5.631   4.915  0.5773 -0.2992  0.6449
  535MOL0     C70550   7.313   5.540   4.915  0.6270 -0.5102 -0.2923
  535MOL0     C70551   7.401   5.569   5.036  1.4335  0.0657 -0.7545
  535MOL0     C70552   7.480   5.576   5.128  0.5193 -1.3694  0.0577
  535MOL0     C70553   6.781   5.458   4.521 -0.3051 -1.1596  0.3650
  535MOL0     C70554   6.685   5.365   4.500  0.2941 -0.6762 -0.6145
  535MOL0     H70555   6.651   4.793   4.563 -0.0568  2.6312 -1.1757
  535MOL0     H70556   6.493   4.601   4.479  0.9638 -0.1422  1.2628
  535MOL0     H70557   6.045   4.670   4.588  0.9158  0.4397 -0.8019
  535MOL0     H70558   6.158   4.628   4.719 -0.7186  1.8292  1.1832
  535MOL0     H70559   6.107   4.430   4.503  4.3033  2.1668 -0.0121
  535MOL0     H70560   5.964   4.458   4.605  0.3005 -0.4066 -3.8564
  535MOL0     H70561   6.152   4.410   4.804  0.7387 -1.1643 -0.4687
  535MOL0     H70562   6.267   4.392   4.672  1.9672  0.9049  2.7480
  535MOL0     H70563   6.016   4.235   4.729 -0.2235 -0.2040 -1.2797
  535MOL0     H70564   6.094   4.227   4.571 -0.2850  0.1404 -0.9297
  535MOL0     H70565   6.176   4.035   4.737 -0.0128 -0.3549  1.0299
  535MOL0     H70566   6.255   4.151   4.835 -0.4692 -0.1488 -0.7153
  535MOL0     H70567   6.405   4.204   4.635 -0.4345 -0.7215  3.6304
  535MOL0     H70568   6.303   4.105   4.526 -0.2522 -1.8225 -0.5599
  535MOL0     H70569   6.468   3.988   4.771  1.0558  0.3852  0.3205
  535MOL0     H70570   6.372   3.897   4.667  0.8284 -0.4770  0.4288
  535MOL0     H70571   6.610   4.067   4.580  0.3848  0.2109 -2.1857
  535MOL0     H70572   6.487   4.006   4.470 -1.7203  4.1343  0.3729
  535MOL0     H70573   6.462   3.717   4.461  0.0029  0.4196 -2.1808
  535MOL0     H70574   6.554   3.450   4.484 -1.0518  1.4243 -2.7447
  535MOL0     H70575   6.667   3.447   4.620 -3.6953 -1.6905  0.3822
  535MOL0     H70576   6.851   3.453   4.475  0.0654  3.7663  0.0503
  535MOL0     H70577   6.767   3.526   4.336 -0.7550  1.3812  1.2752
  535MOL0     H70578   6.640   3.310   4.314 -1.3285  2.7637  0.4557
  535MOL0     H70579   6.814   3.287   4.282 -0.5459 -4.2670  0.1174
  535MOL0     H70580   6.838   3.215   4.538 -2.3166 -1.3371  2.8072
  535MOL0     H70581   6.777   3.106   4.413  2.1033 -0.3256  0.0400
  535MOL0     H70582   6.811   2.974   4.600 -1.0892 -0.0767 -0.4098
  535MOL0     H70583   6.840   2.871   4.820  2.0981  1.7126  1.8006
  535MOL0     H70584   7.026   2.782   5.086 -1.7037  1.3892 -0.0204
  535MOL0     H70585   7.124   2.674   5.296 -0.0006  1.0571  1.0573
  535MOL0     H70586   6.813   2.542   5.597  0.0734  0.2200 -1.2042
  535MOL0     H70587   6.947   2.495   5.691 -3.0568 -0.6374  0.7015
  535MOL0     H70588   6.855   2.344   5.442 -2.1224  0.0865  0.4450
  535MOL0     H70589   6.814   2.293   5.597  0.3361  0.3640  1.2350
  535MOL0     H70590   7.087   2.274   5.647  0.0358  0.5205  1.2707
  535MOL0     H70591   7.074   2.264   5.465 -0.9412  0.0270 -1.4653
  535MOL0     H70592   6.967   2.070   5.662  3.9678  0.2856  1.5865
  535MOL0     H70593   6.892   2.095   5.501  0.6393  0.5694 -1.0952
  535MOL0     H70594   7.102   2.017   5.397 -1.1415  2.5851 -1.5323
  535MOL0     H70595   7.071   1.911   5.543  0.2119  0.4535  1.4219
  535MOL0     H70596   7.215   2.068   5.675  2.2569 -1.1040  0.2814
  535MOL0     H70597   7.267   2.136   5.523  1.4645 -0.4702 -1.5932
  535MOL0     H70598   7.357   1.866   5.628 -1.7068  1.3484  1.9436
  535MOL0     H70599   7.324   1.870   5.460  2.4280 -1.5630  0.6433
  535MOL0     H70600   7.473   2.087   5.446 -1.6863  2.0787  2.6215
  535MOL0     H70601   7.548   1.919   5.491 -1.2661 -1.2111  0.1817
  535MOL0     H70602   6.710   2.606   5.432 -2.1944 -0.2515 -2.3956
  535MOL0     H70603   6.644   2.729   5.236 -0.6532 -0.9753 -1.1218
  535MOL0     H70604   6.581   3.154   4.995 -1.4257  1.0378 -0.3856
  535MOL0     H70605   6.527   3.240   4.776  0.4816  0.3156  3.3069
  535MOL0     H70606   6.174   4.864   4.624  1.3654  0.0672  0.9709
  535MOL0     H70607   6.318   5.040   4.664 -3.4934 -1.5412  0.4349
  535MOL0     H70608   6.782   5.103   4.688 -1.6764 -0.7986 -1.2447
  535MOL0     H70609   6.926   5.261   4.761  2.2690  2.3820 -0.3293
  535MOL0     H70610   7.085   5.411   4.775 -1.8359 -0.5376  3.4402
  535MOL0     H70611   6.946   5.480   4.844  0.8361 -1.2679  1.1843
  535MOL0     H70612   7.169   5.649   4.694 -1.2552  0.5045 -1.0389
  535MOL0     H70613   7.030   5.719   4.776 -0.0389  1.3415 -2.0504
  535MOL0     H70614   7.126   5.590   4.991 -3.7639  0.7816 -2.1974
  535MOL0     H70615   7.204   5.734   4.949  1.1248  0.1338 -0.7736
  535MOL0     H70616   7.280   5.436   4.907  0.0176 -0.3087 -0.4216
  535MOL0     H70617   7.382   5.556   4.831 -0.2383  1.4438 -0.6942
  535MOL0     H70618   7.549   5.584   5.210  0.0706 -3.8885  0.7640
  535MOL0     H70619   6.786   5.553   4.468  1.8272 -1.9324 -0.9293
  535MOL0     H70620   6.613   5.392   4.423 -0.3199  1.2906  0.5492
  536MOL0     O70621   9.717   8.567   0.153  0.2937  0.2311  0.8280
  536MOL0     C70622   9.784   8.469   0.147 -0.0060  0.1089  0.2900
  536MOL0     O70623   9.741   8.341   0.187 -0.5003 -0.0590  0.2168
  536MOL0     C70624   9.623   8.322   0.241 -0.2166  0.3973 -0.6088
  536MOL0     C70625   9.602   8.327   0.382 -0.6874 -0.4694 -0.2595
  536MOL0     C70626   9.477   8.314   0.440 -0.2805 -0.0216  1.0903
  536MOL0     C70627   9.377   8.254   0.362  0.0489  0.7829  0.1803
  536MOL0     O70628   9.257   8.222   0.420  0.4174 -1.4750 -0.2767
  536MOL0     C70629   9.198   8.335   0.487  0.7468  0.1949 -0.3962
  536MOL0     C70630   9.041   8.323   0.507 -0.2211  1.6692 -0.0844
  536MOL0     C70631   8.991   8.186   0.571 -0.5146  0.0437 -0.6550
  536MOL0     C70632   8.841   8.180   0.566  0.1401  0.2268  0.2786
  536MOL0     C70633   8.772   8.091   0.677 -0.0915  0.1542  0.1478
  536MOL0     C70634   8.784   8.133   0.822 -0.0880 -0.1964 -0.2669
  536MOL0     C70635   8.742   8.278   0.847 -0.0941 -0.2112  0.2417
  536MOL0     C70636   8.597   8.306   0.798 -0.2759 -0.2070 -0.7510
  536MOL0     N70637   8.555   8.435   0.846 -0.2110 -0.7648 -0.6008
  536MOL0     C70638   8.482   8.447   0.961 -0.0507  0.1426 -0.8267
  536MOL0     C70639   8.421   8.567   0.953 -0.3571  0.1666 -0.1212
  536MOL0     C70640   8.337   8.619   1.061  0.0056 -0.5459 -0.0271
  536MOL0     C70641   8.185   8.624   1.018  0.3009  0.1849 -0.7384
  536MOL0     C70642   8.099   8.709   1.118 -0.6900 -0.8223  0.3882
  536MOL0     C70643   7.952   8.737   1.069  0.2433  0.6103 -0.4818
  536MOL0     O70644   7.892   8.607   1.039 -0.0947  0.6182  0.4239
  536MOL0     C70645   7.782   8.573   1.104  0.6750 -0.7437 -0.9025
  536MOL0     C70646   7.693   8.491   1.044 -0.2398 -1.2912  0.1530
  536MOL0     C70647   7.590   8.432   1.112 -0.2149  0.0429  0.2046
  536MOL0     C70648   7.575   8.463   1.251 -0.0658 -0.1267 -0.0787
  536MOL0     C70649   7.448   8.420   1.323 -1.3495 -0.3785  0.5743
  536MOL0     O70650   7.446   8.471   1.442  0.5492  0.1873  0.1493
  536MOL0     C70651   7.327   8.477   1.514  0.7297 -0.0877 -0.1222
  536MOL0     C70652   7.212   8.545   1.457  0.3534  0.5604 -0.3484
  536MOL0     C70653   7.089   8.550   1.532 -0.5774  0.2293 -0.0129
  536MOL0     C70654   7.093   8.500   1.661  0.2209  0.3029  0.4932
  536MOL0     O70655   6.979   8.487   1.729 -0.2597  0.3324  0.3425
  536MOL0     C70656   6.890   8.372   1.705 -0.0079  0.5490 -1.2252
  536MOL0     C70657   6.763   8.360   1.797  0.8546  0.2662  0.5238
  536MOL0     C70658   6.772   8.323   1.947 -0.4009  0.6883  1.1472
  536MOL0     C70659   6.883   8.388   2.036 -0.1309  0.2486  0.5083
  536MOL0     C70660   6.877   8.346   2.183 -0.5563  0.4505 -0.0418
  536MOL0     C70661   6.967   8.448   2.261  0.3126 -0.7625 -1.0132
  536MOL0     C70662   6.962   8.418   2.414 -0.2696 -0.4012  0.9239
  536MOL0     C70663   7.052   8.521   2.489 -0.1231  0.1360 -0.2601
  536MOL0    Cl70664   7.050   8.488   2.657  0.2343  0.6253 -0.2903
  536MOL0     C70665   7.206   8.433   1.708 -0.1988 -0.8304  0.1801
  536MOL0     C70666   7.325   8.425   1.639  0.3932 -0.0151  0.3725
  536MOL0     O70667   7.367   8.345   1.266  0.0986  0.7004 -0.0299
  536MOL0     C70668   7.665   8.545   1.315 -0.9256  0.3324 -0.0801
  536MOL0     C70669   7.763   8.604   1.245  0.1002  0.1717 -0.3001
  536MOL0     N70670   8.470   8.628   0.843 -0.4063 -0.2176  0.3887
  536MOL0     N70671   8.549   8.547   0.773  0.1849 -0.4714 -0.1143
  536MOL0     C70672   9.397   8.221   0.226 -0.2490  0.5448  0.6356
  536MOL0     C70673   9.521   8.251   0.169  0.2706  0.2022  0.1716
  536MOL0     C70674   9.921   8.485   0.101  0.3694  0.7407 -0.6992
  536MOL0     C70675   9.959   8.591   0.015 -0.6900  0.6657  0.3893
  536MOL0     C70676  10.095   8.597  -0.016 -0.4930 -0.7361  0.2970
  536MOL0     C70677  10.193   8.521   0.043 -0.7915  0.8662  0.4773
  536MOL0     O70678  10.323   8.556   0.012 -0.1761 -0.2624 -0.4472
  536MOL0     C70679  10.389   8.640   0.112 -0.3852  0.4963 -0.7665
  536MOL0     C70680  10.520   8.695   0.051 -0.1025  0.0542  0.1371
  536MOL0     C70681  10.506   8.795  -0.071 -0.2192 -0.0700 -0.2188
  536MOL0     C70682  10.386   8.884  -0.047 -0.8906  0.1833 -0.4192
  536MOL0     C70683  10.372   8.987  -0.144  1.0292 -0.5938  0.5699
  536MOL0     C70684  10.365   9.077  -0.227 -0.3338  0.8645 -0.5305
  536MOL0     C70685  10.153   8.407   0.108  0.2137  0.3668 -0.6108
  536MOL0     C70686  10.016   8.387   0.140 -0.1981 -0.1954  0.2381
  536MOL0     H70687   9.682   8.357   0.450 -1.8052 -1.3393  1.5219
  536MOL0     H70688   9.455   8.329   0.545  4.5543  2.5517  2.0021
  536MOL0     H70689   9.208   8.427   0.429  0.9078 -1.1484 -2.6424
  536MOL0     H70690   9.239   8.356   0.586 -2.9465  0.3543  1.2609
  536MOL0     H70691   8.999   8.337   0.407  3.0308 -1.1480 -2.0419
  536MOL0     H70692   9.012   8.409   0.569 -1.4149  0.8466  0.5468
  536MOL0     H70693   9.026   8.190   0.674 -2.4528 -0.3185  0.0403
  536MOL0     H70694   9.033   8.108   0.507  1.2768  1.5634 -1.4610
  536MOL0     H70695   8.800   8.281   0.577 -0.8004 -0.0764 -0.2838
  536MOL0     H70696   8.787   8.142   0.478 -0.4820 -0.6309  1.0137
  536MOL0     H70697   8.820   7.993   0.667 -1.9259 -0.6662 -1.1166
  536MOL0     H70698   8.664   8.082   0.661 -0.6726  2.4249  2.1483
  536MOL0     H70699   8.887   8.125   0.859 -0.8275 -0.6735  1.8298
  536MOL0     H70700   8.715   8.069   0.877  0.4733 -1.5320 -1.0801
  536MOL0     H70701   8.746   8.295   0.955  3.7944  0.1710  0.1859
  536MOL0     H70702   8.810   8.341   0.789  1.4524 -1.5779  0.4625
  536MOL0     H70703   8.542   8.226   0.849  0.3334  0.8171  1.6664
  536MOL0     H70704   8.595   8.297   0.689  2.8368  1.6154 -1.0969
  536MOL0     H70705   8.466   8.373   1.039 -1.9110 -0.3450 -1.6153
  536MOL0     H70706   8.372   8.721   1.082  1.1533 -0.7545 -0.8577
  536MOL0     H70707   8.333   8.567   1.157 -0.2133  3.6492  2.4956
  536MOL0     H70708   8.146   8.522   1.023  0.3392  0.2266  2.0228
  536MOL0     H70709   8.176   8.659   0.915  4.1721  1.0349 -0.9434
  536MOL0     H70710   8.101   8.658   1.215 -0.8463 -0.2625  0.6952
  536MOL0     H70711   8.154   8.803   1.130 -1.1705 -0.6500  1.3870
  536MOL0     H70712   7.946   8.789   0.973 -2.7096 -0.1918 -0.8448
  536MOL0     H70713   7.886   8.795   1.135 -2.3542 -1.3823 -1.1494
  536MOL0     H70714   7.706   8.473   0.938 -4.0968 -1.6822 -0.4173
  536MOL0     H70715   7.520   8.363   1.067 -1.6899  1.6774 -0.1268
  536MOL0     H70716   7.219   8.590   1.358 -0.8575  1.1321 -0.1987
  536MOL0     H70717   6.996   8.595   1.496 -0.2074  0.1346 -1.1354
  536MOL0     H70718   6.951   8.285   1.733 -1.3514 -0.0715 -0.0727
  536MOL0     H70719   6.853   8.375   1.602 -1.7141 -0.2603 -0.6772
  536MOL0     H70720   6.694   8.292   1.746  0.6397  0.5562  0.4267
  536MOL0     H70721   6.711   8.456   1.791 -0.1663 -0.3402 -0.9255
  536MOL0     H70722   6.782   8.215   1.960  1.1750  1.0269  3.4133
  536MOL0     H70723   6.674   8.345   1.990 -2.4461 -0.3739 -2.5632
  536MOL0     H70724   6.976   8.353   1.989 -0.7022  1.2860 -1.5170
  536MOL0     H70725   6.874   8.497   2.029  1.2100  0.2830 -2.1538
  536MOL0     H70726   6.921   8.247   2.190 -1.1922 -0.0932 -2.6330
  536MOL0     H70727   6.775   8.344   2.224 -0.1329  1.5795  1.1449
  536MOL0     H70728   6.919   8.545   2.244  0.2180 -0.9080 -1.5920
  536MOL0     H70729   7.070   8.451   2.224 -0.0564  1.2335 -2.0044
  536MOL0     H70730   6.860   8.426   2.454 -1.5741 -1.4468 -1.9134
  536MOL0     H70731   7.008   8.321   2.435  1.7556  0.0364 -1.1092
  536MOL0     H70732   7.019   8.622   2.463 -0.5314  0.0605 -0.0469
  536MOL0     H70733   7.156   8.506   2.458  0.1532 -1.6074  1.3072
  536MOL0     H70734   7.202   8.382   1.803  1.2975 -1.3880 -0.0338
  536MOL0     H70735   7.421   8.388   1.675  1.0697  0.3627 -0.9730
  536MOL0     H70736   7.649   8.569   1.420 -0.2724  2.0979 -0.3507
  536MOL0     H70737   7.839   8.660   1.298  0.5467 -1.1220  0.4816
  536MOL0     H70738   9.319   8.181   0.162  0.2535  1.2900 -0.4882
  536MOL0     H70739   9.527   8.228   0.063  2.0806 -1.3452  0.5617
  536MOL0     H70740   9.886   8.662  -0.023 -2.1216 -0.8086  0.2724
  536MOL0     H70741  10.115   8.677  -0.086 -2.2246  0.6669  1.3328
  536MOL0     H70742  10.414   8.581   0.200 -2.5140  0.9814  0.2338
  536MOL0     H70743  10.326   8.725   0.139 -1.4558 -0.4323 -0.2561
  536MOL0     H70744  10.572   8.745   0.134  0.8938  0.8342 -0.9155
  536MOL0     H70745  10.591   8.620   0.017  2.6863  3.3410 -2.0396
  536MOL0     H70746  10.472   8.727  -0.150 -0.3962 -0.5204  0.2381
  536MOL0     H70747  10.599   8.848  -0.095 -0.2681 -0.0963 -0.4727
  536MOL0     H70748  10.300   8.816  -0.052  0.7036 -1.9345 -0.6233
  536MOL0     H70749  10.402   8.936   0.047  2.7485 -3.5117  1.3195
  536MOL0     H70750  10.365   9.162  -0.292  0.7888  1.3071  0.0090
  536MOL0     H70751  10.222   8.331   0.140 -2.8677 -2.0263  0.8540
  536MOL0     H70752   9.994   8.298   0.199 -0.0317  1.4122  2.8978
  537MOL0     O70753   3.829   7.834   6.122  0.7455 -0.5989 -0.2181
  537MOL0     C70754   3.722   7.881   6.080 -0.5574  0.5112 -1.0449
  537MOL0     O70755   3.622   7.929   6.162 -0.3376 -0.1832  0.2582
  537MOL0     C70756   3.642   7.954   6.295  0.9521  0.4604 -0.1948
  537MOL0     C70757   3.605   8.074   6.346  0.6324  0.0426 -0.7989
  537MOL0     C70758   3.634   8.105   6.485  0.1960 -0.3711  0.2705
  537MOL0     C70759   3.701   8.008   6.564  0.7202 -0.4905  0.0488
  537MOL0     O70760   3.734   8.036   6.694  0.9823  0.0759  0.0694
  537MOL0     C70761   3.642   8.107   6.768 -0.1929 -0.2092 -0.1451
  537MOL0     C70762   3.716   8.134   6.899 -0.5671 -0.2843  0.4335
  537MOL0     C70763   3.757   8.019   6.996  0.1840 -0.3269  0.7365
  537MOL0     C70764   3.818   7.902   6.927 -0.2014  0.0561 -0.3755
  537MOL0     C70765   3.956   7.933   6.882  0.0305  0.8618 -0.3918
  537MOL0     C70766   4.015   7.807   6.800  0.0486 -0.5080  0.0038
  537MOL0     C70767   4.166   7.784   6.823 -0.0394 -0.9379  0.4868
  537MOL0     C70768   4.226   7.700   6.708 -0.8865 -0.1036 -0.3273
  537MOL0     N70769   4.247   7.789   6.590  0.5026  0.0261  0.2894
  537MOL0     C70770   4.172   7.779   6.469  0.6292 -0.8177  0.2606
  537MOL0     C70771   4.221   7.873   6.381 -0.4057 -0.1901  0.6548
  537MOL0     C70772   4.187   7.901   6.237 -0.8347 -0.3990 -0.0569
  537MOL0     C70773   4.140   8.041   6.199 -0.1640 -0.0708  0.3105
  537MOL0     C70774   4.016   8.082   6.279  0.1272 -0.0327 -0.4181
  537MOL0     C70775   4.049   8.190   6.385  0.0803  0.5943  0.5350
  537MOL0     O70776   4.078   8.316   6.328 -0.6631  0.7258  0.2416
  537MOL0     C70777   4.064   8.427   6.409  0.4385  0.3069 -0.1921
  537MOL0     C70778   4.104   8.420   6.543 -0.6776  0.1678 -0.1508
  537MOL0     C70779   4.102   8.541   6.617 -1.3009 -0.8641 -0.4623
  537MOL0     C70780   4.082   8.669   6.562  0.4657 -0.7590 -0.3926
  537MOL0     C70781   4.071   8.802   6.635  0.1629  0.7739  0.0107
  537MOL0     O70782   4.085   8.910   6.563 -0.2738 -0.2235  0.1221
  537MOL0     C70783   4.067   9.041   6.614  0.3332  0.2913 -0.0431
  537MOL0     C70784   4.031   9.133   6.511  0.6301  0.6266 -1.1636
  537MOL0     C70785   4.026   9.270   6.535  0.4608  0.4522  0.2402
  537MOL0     C70786   4.060   9.315   6.669 -0.4656 -0.2747 -0.4113
  537MOL0     O70787   4.045   9.447   6.684 -0.3585  0.4369  0.4194
  537MOL0     C70788   4.122   9.511   6.785  0.2694 -0.8114  0.7848
  537MOL0     C70789   4.137   9.663   6.755 -0.1596  0.4443 -0.0638
  537MOL0     C70790   4.016   9.749   6.737  0.5051 -1.1562 -0.4944
  537MOL0     C70791   4.044   9.897   6.695  0.3949  0.0899 -0.0284
  537MOL0     C70792   4.080   9.922   6.553 -0.9734  0.2737  0.1214
  537MOL0     C70793   4.157  10.064   6.553 -0.5584  0.0626 -0.5176
  537MOL0     C70794   4.170  10.118   6.411 -0.1315 -0.1284  0.4448
  537MOL0     C70795   4.259  10.024   6.337 -0.0110  0.5125  0.1456
  537MOL0    Cl70796   4.335  10.085   6.182  0.2352 -0.4678 -0.2904
  537MOL0     C70797   4.084   9.226   6.773 -0.2173 -0.1732 -0.4342
  537MOL0     C70798   4.086   9.087   6.747 -0.5571  0.2497 -0.0280
  537MOL0     O70799   4.037   8.793   6.754 -0.4315  0.5596  0.0435
  537MOL0     C70800   4.048   8.671   6.422  0.0307 -0.5692 -0.0818
  537MOL0     C70801   4.037   8.549   6.343  0.0895  0.4943 -0.7885
  537MOL0     N70802   4.324   7.930   6.451 -0.2303  0.0272 -0.2242
  537MOL0     N70803   4.345   7.880   6.573 -0.5317  0.9788 -0.9396
  537MOL0     C70804   3.731   7.888   6.512  0.1748 -0.7576 -0.5097
  537MOL0     C70805   3.700   7.859   6.378 -0.6459  0.0256  0.2054
  537MOL0     C70806   3.684   7.860   5.945  0.1076  0.4943 -0.4036
  537MOL0     C70807   3.774   7.794   5.859  0.6158  0.5274  0.6038
  537MOL0     C70808   3.734   7.783   5.726  0.2037 -0.3473  0.5018
  537MOL0     C70809   3.626   7.845   5.674  0.3543 -0.0252  0.0149
  537MOL0     O70810   3.591   7.843   5.540 -0.3472 -0.8847 -0.2270
  537MOL0     C70811   3.680   7.838   5.430 -0.7103 -0.0014 -0.3595
  537MOL0     C70812   3.674   7.972   5.342  0.0232  0.1768 -0.3039
  537MOL0     C70813   3.669   8.103   5.416 -0.4181 -0.6201  0.2448
  537MOL0     C70814   3.704   8.211   5.316  0.5276  0.3379 -0.1129
  537MOL0     C70815   3.608   8.214   5.199 -0.7064 -0.0924  0.0442
  537MOL0     C70816   3.523   8.231   5.109  0.1724  0.5881  0.0096
  537MOL0     C70817   3.542   7.913   5.749  0.0076  0.5425 -0.1045
  537MOL0     C70818   3.574   7.918   5.887 -0.8142 -0.5098  0.1498
  537MOL0     H70819   3.539   8.141   6.293  0.0321 -1.0040 -1.4121
  537MOL0     H70820   3.609   8.205   6.520  0.2104 -1.0874  2.4903
  537MOL0     H70821   3.555   8.043   6.782 -0.9115  1.2421  2.9612
  537MOL0     H70822   3.611   8.203   6.725 -1.9669  1.0787  3.5354
  537MOL0     H70823   3.652   8.208   6.946 -0.8373  0.7444 -1.4474
  537MOL0     H70824   3.808   8.188   6.874 -1.0438  0.5484  0.4590
  537MOL0     H70825   3.665   7.987   7.046 -0.3600  3.5208  2.5375
  537MOL0     H70826   3.831   8.059   7.066  1.6390 -0.0932 -0.8742
  537MOL0     H70827   3.829   7.822   7.001  2.9298  0.8480  0.2087
  537MOL0     H70828   3.759   7.862   6.845 -1.3375 -0.7180  0.8007
  537MOL0     H70829   4.015   7.952   6.972 -0.7954  1.2514  0.0710
  537MOL0     H70830   3.961   8.016   6.811  0.6295  2.5159  1.4763
  537MOL0     H70831   3.989   7.820   6.694 -0.2191  2.3958  0.3398
  537MOL0     H70832   3.969   7.719   6.845 -0.9953  0.5711  1.1530
  537MOL0     H70833   4.218   7.879   6.836  0.2899 -0.2246 -4.1443
  537MOL0     H70834   4.169   7.721   6.912 -3.2126  0.7749  1.9295
  537MOL0     H70835   4.153   7.625   6.676 -1.4563  1.2947 -2.4922
  537MOL0     H70836   4.323   7.653   6.728 -0.5509  0.6184 -0.2312
  537MOL0     H70837   4.096   7.704   6.451 -0.6193 -0.0128  1.9370
  537MOL0     H70838   4.112   7.831   6.198  1.1309 -1.5846 -1.9384
  537MOL0     H70839   4.281   7.881   6.185 -1.3479  0.2382 -1.2687
  537MOL0     H70840   4.122   8.045   6.091 -0.7645 -0.4270  0.3906
  537MOL0     H70841   4.217   8.116   6.215 -1.5805  1.2474  1.2520
  537MOL0     H70842   3.953   8.136   6.208 -0.4768  0.5988  0.5837
  537MOL0     H70843   3.963   7.994   6.318  1.7012 -0.6194  0.4642
  537MOL0     H70844   4.139   8.161   6.441  2.6560  5.0640 -0.7717
  537MOL0     H70845   3.980   8.200   6.469 -0.4502 -1.5793  0.4137
  537MOL0     H70846   4.137   8.332   6.597 -0.6571  1.5881  2.3281
  537MOL0     H70847   4.116   8.546   6.725  0.2297 -0.1254 -0.6754
  537MOL0     H70848   4.001   9.097   6.413 -3.8279 -1.7854  0.7693
  537MOL0     H70849   4.011   9.331   6.446 -2.5138  0.0042  0.3372
  537MOL0     H70850   4.224   9.475   6.803  1.9027  1.3581 -2.9678
  537MOL0     H70851   4.067   9.503   6.879 -1.1486  2.0222  0.3068
  537MOL0     H70852   4.206   9.673   6.670  0.8862  1.6029  0.8895
  537MOL0     H70853   4.194   9.706   6.838 -5.2042  3.2987  2.4347
  537MOL0     H70854   3.972   9.745   6.837 -4.4267  0.0932 -2.3281
  537MOL0     H70855   3.930   9.704   6.687 -0.5937  0.0309  0.2690
  537MOL0     H70856   3.963   9.960   6.734  0.0663 -0.6124  0.4391
  537MOL0     H70857   4.127   9.930   6.758 -0.6225 -0.8451  1.8761
  537MOL0     H70858   3.994   9.930   6.486  0.1846 -3.0546 -1.9882
  537MOL0     H70859   4.141   9.838   6.519 -2.5480 -1.9207  2.3498
  537MOL0     H70860   4.259  10.077   6.590 -1.5389 -1.5865  3.2953
  537MOL0     H70861   4.111  10.145   6.611 -0.2446  1.6687 -2.3909
  537MOL0     H70862   4.068  10.127   6.371 -0.9057 -3.0635  1.4787
  537MOL0     H70863   4.212  10.218   6.419 -2.4105  0.8531  0.9494
  537MOL0     H70864   4.193   9.942   6.310 -0.3270  1.1945 -1.2326
  537MOL0     H70865   4.341   9.990   6.402  1.2393  2.2751 -0.4195
  537MOL0     H70866   4.103   9.269   6.871 -2.1219  2.2513 -1.0194
  537MOL0     H70867   4.112   9.020   6.828 -0.7017  1.2817  0.9000
  537MOL0     H70868   4.025   8.765   6.372  0.7785 -0.8168 -0.9170
  537MOL0     H70869   4.001   8.550   6.241  0.2229  0.4773 -0.8352
  537MOL0     H70870   3.772   7.810   6.575 -0.4366  0.4260  1.4488
  537MOL0     H70871   3.723   7.757   6.351  0.9491 -0.0139  1.5151
  537MOL0     H70872   3.858   7.738   5.899 -1.3804 -3.7429 -0.5884
  537MOL0     H70873   3.802   7.716   5.675  1.1242 -2.1067  3.7619
  537MOL0     H70874   3.663   7.755   5.361 -1.2083  1.2528 -1.7929
  537MOL0     H70875   3.779   7.818   5.473 -1.8880 -2.5112  1.4337
  537MOL0     H70876   3.768   7.965   5.287  1.5689  1.4602  1.9925
  537MOL0     H70877   3.582   7.971   5.281  1.1952  0.2365 -2.1505
  537MOL0     H70878   3.747   8.106   5.493  2.0058 -1.2952 -2.0325
  537MOL0     H70879   3.574   8.122   5.467  0.2324 -0.7023  1.5582
  537MOL0     H70880   3.711   8.310   5.363  1.2935  0.2527 -0.0347
  537MOL0     H70881   3.809   8.206   5.285  1.7774  3.7110  2.8560
  537MOL0     H70882   3.444   8.238   5.037 -1.0601  1.3316  1.3819
  537MOL0     H70883   3.451   7.947   5.701 -1.6954 -1.6452  1.3831
  537MOL0     H70884   3.507   7.966   5.958  0.2827  0.1483  0.7643
  538MOL0     O70885   2.878   3.927   3.494  0.4851  0.2784 -0.0937
  538MOL0     C70886   2.753   3.936   3.515  1.0591 -0.3776  0.1038
  538MOL0     O70887   2.683   3.867   3.605  0.4108  0.8517 -0.3050
  538MOL0     C70888   2.743   3.793   3.709 -0.5995 -0.4025 -0.4145
  538MOL0     C70889   2.688   3.665   3.731 -0.1263  0.7559  0.6478
  538MOL0     C70890   2.739   3.585   3.825 -1.1560 -0.5078  0.7619
  538MOL0     C70891   2.827   3.642   3.920 -0.0985  0.4571 -0.0734
  538MOL0     O70892   2.854   3.555   4.025 -0.1562 -0.5172 -0.0926
  538MOL0     C70893   2.940   3.603   4.129 -0.7929 -0.6544 -1.1371
  538MOL0     C70894   2.920   3.524   4.264  0.1676  0.7736  0.3142
  538MOL0     C70895   3.014   3.554   4.383  0.3865  0.1623  0.7431
  538MOL0     C70896   2.986   3.462   4.508 -0.5416 -1.1277  0.2017
  538MOL0     C70897   3.094   3.484   4.624 -0.5523  0.7268  0.0605
  538MOL0     C70898   3.069   3.611   4.705 -0.8900  0.3005  0.4160
  538MOL0     C70899   3.182   3.639   4.809 -0.6314  0.6764  0.5770
  538MOL0     C70900   3.168   3.772   4.879 -0.2553 -0.8080 -0.4394
  538MOL0     N70901   3.292   3.776   4.955  0.6233 -0.5153  0.7280
  538MOL0     C70902   3.415   3.803   4.890 -0.3278 -0.3298 -0.6504
  538MOL0     C70903   3.510   3.726   4.946 -0.6784 -1.3971  0.2320
  538MOL0     C70904   3.659   3.717   4.917 -0.3652 -0.0087 -0.2145
  538MOL0     C70905   3.734   3.773   5.035  0.5509  0.3481 -0.3534
  538MOL0     C70906   3.868   3.724   5.017 -0.1360 -0.2325  0.5810
  538MOL0     C70907   3.972   3.805   5.108  0.5251  0.4378  0.0573
  538MOL0     O70908   3.992   3.931   5.050  0.3866  0.1639 -0.2354
  538MOL0     C70909   4.056   4.014   5.143 -0.3197  0.1942 -0.6574
  538MOL0     C70910   4.107   3.989   5.273  0.0239 -0.1225  0.3960
  538MOL0     C70911   4.153   4.094   5.354 -1.3070  0.0284  1.1256
  538MOL0     C70912   4.168   4.223   5.298  0.0739  0.1849 -0.5372
  538MOL0     C70913   4.209   4.331   5.390 -0.0305 -0.4125  0.0249
  538MOL0     O70914   4.236   4.455   5.334  0.4618 -0.5898 -0.5043
  538MOL0     C70915   4.258   4.568   5.405  0.5002  0.7135 -1.0435
  538MOL0     C70916   4.386   4.591   5.458 -0.6880 -0.2455  0.2418
  538MOL0     C70917   4.415   4.725   5.496 -0.3476  1.6732  0.5739
  538MOL0     C70918   4.311   4.820   5.503  0.9075 -0.1788  0.7969
  538MOL0     O70919   4.319   4.949   5.549 -0.1816 -0.0747  0.5718
  538MOL0     C70920   4.456   5.001   5.570  0.6861  0.7288 -0.8594
  538MOL0     C70921   4.451   5.147   5.594 -0.8777  0.8689 -0.6434
  538MOL0     C70922   4.593   5.205   5.625  0.0791 -0.0812 -0.2399
  538MOL0     C70923   4.685   5.198   5.501 -0.8083 -0.3469  0.0111
  538MOL0     C70924   4.763   5.334   5.494  0.1995 -0.5014  0.2791
  538MOL0     C70925   4.871   5.323   5.382  0.5206 -0.7385  1.0199
  538MOL0     C70926   4.826   5.381   5.248  1.0088  0.4237 -0.8092
  538MOL0     C70927   4.919   5.363   5.129 -0.3721  0.0112  0.4640
  538MOL0    Cl70928   5.087   5.390   5.156 -0.0250  0.0583  0.3607
  538MOL0     C70929   4.187   4.793   5.448  0.2514 -0.2990  0.1419
  538MOL0     C70930   4.159   4.661   5.407 -0.5654 -0.0599 -0.3491
  538MOL0     O70931   4.211   4.311   5.509 -0.8355  0.1365 -0.0676
  538MOL0     C70932   4.131   4.239   5.158  0.0922 -0.0881 -0.0974
  538MOL0     C70933   4.083   4.133   5.080  0.3895 -0.7868 -0.4519
  538MOL0     N70934   3.453   3.653   5.047  0.2147  1.1012  0.5507
  538MOL0     N70935   3.326   3.683   5.046 -0.1892 -0.1543 -0.0863
  538MOL0     C70936   2.876   3.772   3.900  0.2058  0.3223 -0.3886
  538MOL0     C70937   2.829   3.849   3.798 -0.5813  0.0855  0.1304
  538MOL0     C70938   2.673   4.008   3.418  0.1603 -0.1646 -0.0308
  538MOL0     C70939   2.727   4.098   3.340  0.2618 -0.7717 -0.2444
  538MOL0     C70940   2.661   4.174   3.244 -0.5385  0.4417  0.1223
  538MOL0     C70941   2.520   4.148   3.228  0.5483 -0.5959 -0.3002
  538MOL0     O70942   2.438   4.203   3.137  0.3982 -0.0419  0.1472
  538MOL0     C70943   2.474   4.331   3.081 -0.5629 -0.1874  0.3271
  538MOL0     C70944   2.558   4.301   2.952  0.6229  0.6953  0.8703
  538MOL0     C70945   2.475   4.203   2.867 -0.6965 -0.0393  1.5598
  538MOL0     C70946   2.516   4.050   2.897  0.6919  0.0689 -0.2590
  538MOL0     C70947   2.453   3.971   2.786  0.0968  0.3271  0.2149
  538MOL0     C70948   2.396   3.902   2.707  0.0934  0.0911  0.3783
  538MOL0     C70949   2.461   4.048   3.308  0.0557  0.7492  1.2047
  538MOL0     C70950   2.535   3.977   3.404 -0.3094  0.3169  0.4827
  538MOL0     H70951   2.612   3.618   3.669  0.2356  1.3046 -0.2482
  538MOL0     H70952   2.712   3.481   3.841  2.4113 -1.2104  3.3313
  538MOL0     H70953   2.917   3.707   4.155  0.3545 -0.7261  0.3162
  538MOL0     H70954   3.045   3.601   4.096 -0.9145 -5.1118 -1.8487
  538MOL0     H70955   2.915   3.417   4.242  2.1834  0.1494  2.4524
  538MOL0     H70956   2.817   3.539   4.298 -0.1350 -2.2482  1.0408
  538MOL0     H70957   2.996   3.659   4.408  3.1063  0.8050  0.3755
  538MOL0     H70958   3.118   3.531   4.360  0.7023  0.8035  1.4921
  538MOL0     H70959   2.895   3.489   4.562 -0.7941  3.3382 -2.0081
  538MOL0     H70960   2.972   3.357   4.482 -0.2541 -1.0304 -0.3511
  538MOL0     H70961   3.190   3.501   4.574 -0.6918  1.8069  0.1371
  538MOL0     H70962   3.089   3.390   4.679 -0.6969  1.1854  0.8366
  538MOL0     H70963   2.974   3.605   4.758 -1.5533 -5.2575 -0.8794
  538MOL0     H70964   3.052   3.690   4.631 -1.1217 -0.9527 -0.9177
  538MOL0     H70965   3.183   3.559   4.883  0.5844  1.4236  1.4125
  538MOL0     H70966   3.268   3.635   4.741 -0.5402 -0.3135  0.7389
  538MOL0     H70967   3.084   3.763   4.948  1.3760 -2.5396  1.4505
  538MOL0     H70968   3.156   3.859   4.813  0.5253  0.0680  0.5187
  538MOL0     H70969   3.429   3.865   4.802 -1.0696 -0.0959 -0.6073
  538MOL0     H70970   3.688   3.776   4.830  0.8684 -2.0306 -1.2411
  538MOL0     H70971   3.691   3.614   4.901 -0.6661 -0.3635  1.3407
  538MOL0     H70972   3.709   3.737   5.135  1.3195 -0.3143 -0.3826
  538MOL0     H70973   3.732   3.882   5.040  6.0728  0.6851  2.6859
  538MOL0     H70974   3.877   3.616   5.033 -2.1729 -0.2674  1.8765
  538MOL0     H70975   3.901   3.743   4.914 -0.1562  2.0599  0.9368
  538MOL0     H70976   4.064   3.747   5.102  1.9208  2.2332  2.3902
  538MOL0     H70977   3.934   3.810   5.211  1.2342  2.8866  0.2719
  538MOL0     H70978   4.092   3.890   5.315 -0.3446  0.2329  1.1327
  538MOL0     H70979   4.187   4.087   5.457 -0.6522  2.6118  1.1639
  538MOL0     H70980   4.462   4.514   5.464  2.5736  2.6651 -0.3474
  538MOL0     H70981   4.518   4.737   5.529 -0.2501 -0.0486  1.0171
  538MOL0     H70982   4.509   4.985   5.476  0.4021 -1.0981 -0.7309
  538MOL0     H70983   4.518   4.948   5.642 -1.3632 -0.8114 -0.1322
  538MOL0     H70984   4.394   5.162   5.686  1.1849  2.3810  0.4846
  538MOL0     H70985   4.402   5.210   5.520 -0.9166  0.9067 -0.5858
  538MOL0     H70986   4.642   5.154   5.708  0.3114  0.0693 -0.2809
  538MOL0     H70987   4.596   5.308   5.663  1.8660 -0.9039  2.0538
  538MOL0     H70988   4.754   5.115   5.519  1.3256  1.6234  1.4105
  538MOL0     H70989   4.632   5.177   5.407  0.0522 -0.2228 -0.5215
  538MOL0     H70990   4.821   5.339   5.587 -2.1257 -1.8674  1.8979
  538MOL0     H70991   4.690   5.414   5.482 -0.1475 -1.0192 -1.3336
  538MOL0     H70992   4.917   5.226   5.365  2.1807 -0.5476  3.9464
  538MOL0     H70993   4.960   5.382   5.403  1.0784 -2.0789  2.5966
  538MOL0     H70994   4.734   5.322   5.242  1.7420 -1.0034  0.8800
  538MOL0     H70995   4.789   5.484   5.251 -3.4085 -0.9532  1.3444
  538MOL0     H70996   4.880   5.422   5.046  5.2422  2.5305 -0.8091
  538MOL0     H70997   4.912   5.259   5.095  5.7864 -0.8611  0.7287
  538MOL0     H70998   4.120   4.878   5.446  1.0711  0.3821 -2.3206
  538MOL0     H70999   4.062   4.635   5.367 -0.6135  0.3472 -0.5063
  538MOL0     H71000   4.134   4.337   5.111  0.2453 -0.4576 -0.8751
  538MOL0     H71001   4.045   4.153   4.980 -1.0568 -0.0946  0.2050
  538MOL0     H71002   2.939   3.815   3.977 -0.7314 -1.1525  1.2765
  538MOL0     H71003   2.850   3.953   3.774  0.0867  0.2718  1.4085
  538MOL0     H71004   2.831   4.125   3.329  0.0684 -0.5886 -1.9786
  538MOL0     H71005   2.702   4.248   3.177 -0.1203 -2.4069 -3.0129
  538MOL0     H71006   2.541   4.388   3.146  3.0201 -4.7607  1.1603
  538MOL0     H71007   2.380   4.384   3.063 -0.5577 -0.3808 -0.2834
  538MOL0     H71008   2.568   4.398   2.902  1.2431 -0.8931 -2.3955
  538MOL0     H71009   2.659   4.263   2.968  0.3711 -0.3728  0.0882
  538MOL0     H71010   2.509   4.226   2.766 -0.3164 -1.6168  1.3107
  538MOL0     H71011   2.368   4.222   2.866 -0.2620  2.9735 -0.1584
  538MOL0     H71012   2.625   4.039   2.901  0.3793 -3.9565  2.7938
  538MOL0     H71013   2.479   4.017   2.994 -1.4453 -2.1587 -1.7098
  538MOL0     H71014   2.338   3.858   2.629  2.1266 -1.8508 -0.1320
  538MOL0     H71015   2.356   4.024   3.289  0.8252 -1.0088 -1.4006
  538MOL0     H71016   2.481   3.893   3.447  0.4183 -0.1525  0.4953
  539MOL0     O71017   4.217   6.120   0.565 -0.0577 -0.0934 -0.0320
  539MOL0     C71018   4.216   6.089   0.683 -0.2905  0.1304 -0.3194
  539MOL0     O71019   4.318   6.035   0.759  0.3669 -0.1780 -0.4681
  539MOL0     C71020   4.435   6.030   0.685  0.4581 -0.4522  1.3673
  539MOL0     C71021   4.447   5.920   0.598 -0.1574  0.6468 -0.7228
  539MOL0     C71022   4.562   5.911   0.516  0.8892 -0.0320 -1.1406
  539MOL0     C71023   4.663   6.009   0.531 -0.8556  0.2833  0.0438
  539MOL0     O71024   4.778   6.031   0.452  0.1330 -0.0740 -0.0057
  539MOL0     C71025   4.769   5.957   0.323  0.6450 -0.5593  0.4877
  539MOL0     C71026   4.885   6.003   0.230 -0.1352  0.1805 -1.0866
  539MOL0     C71027   5.023   5.990   0.306 -0.9112  0.0026  0.1174
  539MOL0     C71028   5.146   6.019   0.221  0.0394 -1.1255  0.2085
  539MOL0     C71029   5.165   6.173   0.223 -0.9231 -0.5260  0.1218
  539MOL0     C71030   5.237   6.235   0.099 -0.4003 -1.5184 -0.4301
  539MOL0     C71031   5.243   6.391   0.123 -0.4732 -0.8970  0.1450
  539MOL0     C71032   5.258   6.474  -0.004 -0.2471  1.2932  0.1299
  539MOL0     N71033   5.129   6.507  -0.075 -0.0466  0.2486  0.2301
  539MOL0     C71034   5.131   6.563  -0.199 -0.2346 -0.2006  0.3946
  539MOL0     C71035   5.005   6.582  -0.232 -0.6195 -0.1809 -0.0797
  539MOL0     C71036   4.951   6.641  -0.357  0.0693 -0.3080 -0.1088
  539MOL0     C71037   5.054   6.713  -0.434 -0.2912  0.5247  1.0787
  539MOL0     C71038   5.005   6.796  -0.554  1.2790 -0.3436 -1.3997
  539MOL0     C71039   5.133   6.859  -0.616  0.8098 -0.4241 -0.5679
  539MOL0     O71040   5.201   6.939  -0.527 -0.2057  0.2195 -0.5232
  539MOL0     C71041   5.324   6.997  -0.580 -0.1367  0.4923  0.1158
  539MOL0     C71042   5.399   6.947  -0.679 -0.6523 -0.5552  0.7336
  539MOL0     C71043   5.517   7.007  -0.728 -0.3147  0.0380  0.4284
  539MOL0     C71044   5.555   7.126  -0.663  0.3622 -0.0543 -0.4181
  539MOL0     C71045   5.676   7.194  -0.719 -0.3115 -0.1157 -0.5611
  539MOL0     O71046   5.704   7.310  -0.658  0.0412 -0.5497  0.4376
  539MOL0     C71047   5.815   7.383  -0.696  0.3748  0.2219 -0.6240
  539MOL0     C71048   5.940   7.340  -0.648 -0.8544 -0.1093  0.3307
  539MOL0     C71049   6.051   7.427  -0.652  0.3312 -0.4696  1.0714
  539MOL0     C71050   6.032   7.562  -0.697 -0.3639  0.1043  0.4745
  539MOL0     O71051   6.130   7.654  -0.674 -0.7239 -0.6410  0.1422
  539MOL0     C71052   6.204   7.642  -0.553  0.3272  1.3743 -0.8710
  539MOL0     C71053   6.232   7.788  -0.518 -0.2313  0.4065 -0.2177
  539MOL0     C71054   6.319   7.872  -0.604  0.6780 -0.4250 -0.1963
  539MOL0     C71055   6.348   8.013  -0.536  0.3146  0.0311 -0.0778
  539MOL0     C71056   6.362   8.107  -0.660 -0.9070 -1.0744  0.1883
  539MOL0     C71057   6.419   8.251  -0.633  1.2481  0.2017 -0.2427
  539MOL0     C71058   6.398   8.333  -0.761 -0.0924  0.1331 -1.3041
  539MOL0     C71059   6.396   8.480  -0.729 -0.1689 -0.0353  0.0590
  539MOL0    Cl71060   6.544   8.532  -0.631  0.2572  0.1327  0.2635
  539MOL0     C71061   5.911   7.590  -0.760  0.2056  0.2349 -0.5079
  539MOL0     C71062   5.798   7.501  -0.770  0.2002 -0.5774  0.9187
  539MOL0     O71063   5.754   7.137  -0.803  1.0646 -0.0465 -0.0332
  539MOL0     C71064   5.482   7.180  -0.552  0.1009 -0.2357  0.0442
  539MOL0     C71065   5.358   7.117  -0.524  0.0939  0.2931 -0.0641
  539MOL0     N71066   4.930   6.537  -0.137  0.0732 -0.0958 -0.2698
  539MOL0     N71067   4.999   6.484  -0.043 -0.5068 -0.3886  0.0748
  539MOL0     C71068   4.653   6.121   0.619 -0.2000 -0.5557 -0.2731
  539MOL0     C71069   4.532   6.133   0.696 -0.1326 -0.2914  0.7065
  539MOL0     C71070   4.084   6.110   0.748 -0.0723  0.5015 -0.0890
  539MOL0     C71071   3.979   6.185   0.699 -0.8703  0.6412  0.6319
  539MOL0     C71072   3.862   6.209   0.773  0.3135  0.3309  0.6348
  539MOL0     C71073   3.864   6.175   0.914 -0.3802  0.3239  1.0417
  539MOL0     O71074   3.748   6.194   0.986  0.3315 -0.0940  0.1584
  539MOL0     C71075   3.646   6.282   0.941  0.9198 -0.7474 -0.2501
  539MOL0     C71076   3.518   6.266   1.027 -1.2859  1.0118 -0.3937
  539MOL0     C71077   3.417   6.366   0.982 -0.0328 -0.3344 -0.8267
  539MOL0     C71078   3.283   6.314   1.029  0.1722  0.0419 -0.0506
  539MOL0     C71079   3.190   6.414   0.969  0.4407  0.9558 -0.8750
  539MOL0     C71080   3.116   6.493   0.917  0.4581  0.0874  0.0371
  539MOL0     C71081   3.978   6.101   0.964 -0.7392 -0.2061  0.0665
  539MOL0     C71082   4.081   6.066   0.878 -0.3627  0.7049 -0.6468
  539MOL0     H71083   4.358   5.858   0.604 -0.5695  1.3143  0.1157
  539MOL0     H71084   4.564   5.838   0.435 -1.4014 -0.5745 -0.8000
  539MOL0     H71085   4.669   5.970   0.279  1.7093  1.1855 -1.6215
  539MOL0     H71086   4.784   5.851   0.344  2.9214 -0.1167  1.3891
  539MOL0     H71087   4.864   6.106   0.198  0.2588  1.2121  1.7027
  539MOL0     H71088   4.877   5.943   0.139 -3.7856 -2.5518  0.8063
  539MOL0     H71089   5.020   5.888   0.344  1.5602 -0.1535 -0.0031
  539MOL0     H71090   5.021   6.065   0.387 -1.8986 -0.0531  0.1606
  539MOL0     H71091   5.232   5.971   0.269  0.1424 -1.3827 -0.2369
  539MOL0     H71092   5.133   5.971   0.124 -4.8651 -1.4751  0.7680
  539MOL0     H71093   5.226   6.200   0.310 -2.9573  0.5749  1.2858
  539MOL0     H71094   5.069   6.223   0.237 -0.8903 -0.9055  2.0095
  539MOL0     H71095   5.179   6.205   0.011 -1.7347 -0.9841  0.2402
  539MOL0     H71096   5.337   6.192   0.090 -0.1521 -0.5352 -3.4744
  539MOL0     H71097   5.155   6.430   0.175  0.1525  2.8946 -1.3510
  539MOL0     H71098   5.336   6.414   0.176  1.9576 -0.4386 -3.9212
  539MOL0     H71099   5.313   6.422  -0.083 -1.3447 -0.4250  0.4495
  539MOL0     H71100   5.316   6.562   0.024  2.0502  0.1433 -0.7567
  539MOL0     H71101   5.222   6.581  -0.255  1.2248 -1.6464  2.1848
  539MOL0     H71102   4.872   6.711  -0.330  1.0855  1.9615 -2.5386
  539MOL0     H71103   4.902   6.561  -0.413  1.2583 -1.4152  0.3695
  539MOL0     H71104   5.125   6.642  -0.477 -0.4169  1.2580 -0.3945
  539MOL0     H71105   5.107   6.782  -0.367  2.6322  0.1316 -0.6462
  539MOL0     H71106   4.960   6.725  -0.624 -1.0289  0.7403 -1.1226
  539MOL0     H71107   4.923   6.861  -0.521  2.2515 -0.8218  2.4525
  539MOL0     H71108   5.097   6.922  -0.698 -2.6723 -0.4269  0.8034
  539MOL0     H71109   5.199   6.781  -0.655  2.9934 -0.0855  2.1132
  539MOL0     H71110   5.372   6.853  -0.727  2.1567 -1.2110  0.3025
  539MOL0     H71111   5.571   6.960  -0.810 -2.5668 -1.4182 -0.3119
  539MOL0     H71112   5.949   7.242  -0.600 -1.8690 -0.1901  0.3977
  539MOL0     H71113   6.147   7.394  -0.613  0.1177 -3.1732 -0.4123
  539MOL0     H71114   6.305   7.603  -0.567  0.2571  2.0194 -3.7094
  539MOL0     H71115   6.146   7.601  -0.470  3.8001 -2.8430 -0.1869
  539MOL0     H71116   6.284   7.789  -0.422 -2.4743 -2.6647  1.1815
  539MOL0     H71117   6.132   7.828  -0.501  0.2958  0.5220  3.4086
  539MOL0     H71118   6.263   7.876  -0.698  0.1934 -1.5960  0.0217
  539MOL0     H71119   6.416   7.827  -0.627  0.5007 -0.2263 -1.3705
  539MOL0     H71120   6.259   8.044  -0.481 -0.8509 -0.2586 -1.7182
  539MOL0     H71121   6.440   8.020  -0.478  0.1105  3.9768  0.0042
  539MOL0     H71122   6.265   8.115  -0.711 -0.2749 -0.6104 -0.9767
  539MOL0     H71123   6.420   8.061  -0.740 -3.7195 -5.4999  0.3229
  539MOL0     H71124   6.517   8.246  -0.586  0.1596 -1.5550  2.1203
  539MOL0     H71125   6.358   8.287  -0.549  0.3929  0.6823 -1.0598
  539MOL0     H71126   6.484   8.323  -0.829  0.9380  4.1081 -0.8510
  539MOL0     H71127   6.305   8.301  -0.808  1.1679 -2.5761 -2.1432
  539MOL0     H71128   6.310   8.505  -0.665 -0.2440  0.2073 -0.1374
  539MOL0     H71129   6.391   8.536  -0.823  0.6537  0.6805  0.4297
  539MOL0     H71130   5.911   7.690  -0.803  3.1741  0.7344  0.3981
  539MOL0     H71131   5.701   7.539  -0.800 -0.8006 -3.9073 -0.5278
  539MOL0     H71132   5.512   7.270  -0.499  0.3421  1.8402 -3.3458
  539MOL0     H71133   5.282   7.156  -0.458  0.3725  0.6925  0.0272
  539MOL0     H71134   4.742   6.183   0.613 -1.3318  0.9486 -3.8609
  539MOL0     H71135   4.512   6.209   0.770 -1.1163 -1.4637  1.6875
  539MOL0     H71136   3.984   6.225   0.597  6.7508  0.9769  0.5208
  539MOL0     H71137   3.788   6.264   0.715  2.2595  1.3834 -1.0121
  539MOL0     H71138   3.611   6.270   0.838  0.1820 -0.3817 -0.0432
  539MOL0     H71139   3.675   6.387   0.938  0.6970 -0.5956  1.6319
  539MOL0     H71140   3.489   6.160   1.019 -0.8862  0.7933  0.8004
  539MOL0     H71141   3.545   6.282   1.132 -0.0805 -4.2270  0.4137
  539MOL0     H71142   3.411   6.384   0.874  1.3121 -2.9813 -1.4138
  539MOL0     H71143   3.425   6.471   1.011 -2.9028  0.3264 -1.9981
  539MOL0     H71144   3.256   6.212   1.001 -3.9804  1.2035 -0.9530
  539MOL0     H71145   3.283   6.322   1.138 -0.4230  1.0775 -0.1126
  539MOL0     H71146   3.059   6.565   0.863 -0.2787  0.7691  1.6634
  539MOL0     H71147   3.979   6.060   1.065  2.7922 -0.7098 -0.0612
  539MOL0     H71148   4.152   5.997   0.922  0.1951 -0.0863 -2.6460
  540MOL0     O71149   0.495  10.720   4.007 -0.4974 -0.2096  0.8979
  540MOL0     C71150   0.563  10.822   4.011 -0.6786 -0.5084 -0.4873
  540MOL0     O71151   0.619  10.886   3.910 -0.8374  0.3779  0.5860
  540MOL0     C71152   0.617  10.845   3.783  0.5659  0.9101  0.3480
  540MOL0     C71153   0.563  10.940   3.682  0.4480  0.1116  0.6176
  540MOL0     C71154   0.552  10.904   3.551 -0.1303  0.0156 -0.8709
  540MOL0     C71155   0.593  10.777   3.508 -0.5159 -0.3571 -0.5027
  540MOL0     O71156   0.598  10.731   3.376 -0.8778 -0.3542  0.8223
  540MOL0     C71157   0.631  10.819   3.263  0.1237  0.6710  0.5704
  540MOL0     C71158   0.741  10.746   3.203 -0.7188 -0.5011 -0.5750
  540MOL0     C71159   0.815  10.824   3.092 -0.1562  0.1339  0.1896
  540MOL0     C71160   0.952  10.761   3.066 -0.4063 -0.0903  0.4037
  540MOL0     C71161   1.015  10.831   2.947 -0.1562 -0.1364 -0.0795
  540MOL0     C71162   1.145  10.771   2.898  0.4487 -0.0265 -0.6267
  540MOL0     C71163   1.183  10.823   2.762 -0.4669 -0.1803  0.4233
  540MOL0     C71164   1.303  10.764   2.699 -0.1189 -0.2846  0.0383
  540MOL0     N71165   1.341  10.847   2.595 -0.0061  0.0925  1.0084
  540MOL0     C71166   1.467  10.889   2.577  0.3860 -0.4438  0.0809
  540MOL0     C71167   1.462  10.959   2.462  0.7217 -0.7036 -0.7757
  540MOL0     C71168   1.581  11.028   2.397 -0.1223  1.2533 -0.4615
  540MOL0     C71169   1.551  11.176   2.355  1.2174 -0.1159  0.2716
  540MOL0     C71170   1.685  11.248   2.315  0.3489 -0.9218 -0.7888
  540MOL0     C71171   1.720  11.192   2.178  0.2138  0.1563 -0.7026
  540MOL0     O71172   1.802  11.282   2.101  0.0610  0.1514 -1.0239
  540MOL0     C71173   1.751  11.384   2.020  0.5411 -0.0887 -1.1338
  540MOL0     C71174   1.840  11.452   1.947 -0.4745 -0.3614  0.3021
  540MOL0     C71175   1.809  11.565   1.884  0.1674  0.5987 -0.8245
  540MOL0     C71176   1.679  11.601   1.870 -0.0977 -0.5438 -0.1593
  540MOL0     C71177   1.641  11.728   1.799  0.2304 -0.4273 -0.3151
  540MOL0     O71178   1.748  11.799   1.754  0.1400  0.7694  1.0103
  540MOL0     C71179   1.730  11.903   1.661 -0.1221  0.2704  0.2037
  540MOL0     C71180   1.661  11.891   1.535  0.0399  0.4262  0.5468
  540MOL0     C71181   1.664  11.991   1.440  0.0494  0.1356  0.2481
  540MOL0     C71182   1.738  12.111   1.454 -0.0058 -0.5843 -0.9616
  540MOL0     O71183   1.784  12.212   1.370 -0.1521  0.0920 -0.6518
  540MOL0     C71184   1.745  12.196   1.240 -0.1804 -0.0219 -0.0840
  540MOL0     C71185   1.791  12.314   1.157 -0.3840  0.6630 -0.3430
  540MOL0     C71186   1.750  12.279   1.008 -0.4316 -0.3405 -0.3592
  540MOL0     C71187   1.792  12.407   0.937  0.6451 -0.5734 -0.1902
  540MOL0     C71188   1.764  12.403   0.789 -0.1873  0.4303 -0.5505
  540MOL0     C71189   1.627  12.392   0.753  0.9299 -0.7612  0.5123
  540MOL0     C71190   1.595  12.439   0.607 -0.1637 -0.1495 -0.1577
  540MOL0     C71191   1.458  12.405   0.551  0.6749  0.3536 -0.0530
  540MOL0    Cl71192   1.352  12.474   0.668  0.7758  0.0338  0.5683
  540MOL0     C71193   1.804  12.125   1.582  0.6915  0.3560  1.7333
  540MOL0     C71194   1.808  12.022   1.679 -0.0750  0.0581 -0.0531
  540MOL0     O71195   1.523  11.766   1.786 -0.3174  0.5630 -0.1976
  540MOL0     C71196   1.580  11.528   1.942 -0.3355 -0.0133  0.4485
  540MOL0     C71197   1.612  11.414   2.018 -0.0091 -0.4035  0.2307
  540MOL0     N71198   1.335  10.967   2.418 -0.3688 -0.4472  0.0056
  540MOL0     N71199   1.261  10.911   2.509 -0.3637 -0.9335 -0.1791
  540MOL0     C71200   0.636  10.682   3.605  0.2685 -0.3179  0.5455
  540MOL0     C71201   0.648  10.711   3.740 -0.5389 -0.2476 -0.1251
  540MOL0     C71202   0.604  10.865   4.144  0.1130  0.3836 -0.0286
  540MOL0     C71203   0.648  10.997   4.161 -0.3167  0.5871 -0.5786
  540MOL0     C71204   0.706  11.041   4.287  1.0244  1.0901  0.2656
  540MOL0     C71205   0.706  10.957   4.396  0.2351  0.0188 -0.1173
  540MOL0     O71206   0.742  11.018   4.513  0.2872  0.0233 -0.1665
  540MOL0     C71207   0.851  10.951   4.578  0.7773 -0.0567 -1.3734
  540MOL0     C71208   0.893  11.037   4.696  0.4063  0.7136 -0.4173
  540MOL0     C71209   0.988  11.154   4.665  0.9808 -0.7443 -0.1415
  540MOL0     C71210   0.914  11.266   4.579  0.2620  0.3899  0.2648
  540MOL0     C71211   1.022  11.358   4.526 -0.4429 -0.1511 -0.2816
  540MOL0     C71212   1.120  11.409   4.469  0.5035 -0.9663 -0.3541
  540MOL0     C71213   0.673  10.822   4.377 -0.1805 -0.0157 -0.4696
  540MOL0     C71214   0.621  10.780   4.255  0.0472 -0.2444  1.2822
  540MOL0     H71215   0.549  11.045   3.706 -0.5471  0.1245  0.0305
  540MOL0     H71216   0.515  10.979   3.481 -0.9441  1.7836  1.3086
  540MOL0     H71217   0.651  10.923   3.293 -0.8852  1.7249 -2.1297
  540MOL0     H71218   0.543  10.821   3.198  0.1956 -2.0587  0.2621
  540MOL0     H71219   0.707  10.651   3.162  3.1960 -2.0882 -0.6535
  540MOL0     H71220   0.812  10.720   3.282 -2.1679 -0.5468  0.7545
  540MOL0     H71221   0.839  10.923   3.133  0.1005 -0.1776  0.8038
  540MOL0     H71222   0.765  10.817   2.995  0.9363  0.9336 -0.4582
  540MOL0     H71223   1.007  10.768   3.161  0.3554  0.2658 -0.0572
  540MOL0     H71224   0.922  10.659   3.043  0.5554 -0.6366  1.5152
  540MOL0     H71225   1.039  10.935   2.971 -2.4250  1.0539 -2.4905
  540MOL0     H71226   0.950  10.832   2.860  1.1771 -0.2155 -1.1037
  540MOL0     H71227   1.125  10.664   2.882  0.8549  0.1580 -2.5481
  540MOL0     H71228   1.231  10.789   2.964  0.2559  0.2739 -0.4607
  540MOL0     H71229   1.102  10.807   2.690  0.5957 -0.8931 -0.6420
  540MOL0     H71230   1.200  10.930   2.777 -1.2761 -0.1005  0.8442
  540MOL0     H71231   1.291  10.666   2.653  2.1385 -1.2285  1.3145
  540MOL0     H71232   1.378  10.769   2.778  1.1487  1.0401 -1.1800
  540MOL0     H71233   1.555  10.843   2.622 -0.2376 -0.4156  1.3606
  540MOL0     H71234   1.604  10.972   2.306 -2.9165  0.3000 -0.6930
  540MOL0     H71235   1.665  11.037   2.466  0.2010 -1.5476 -0.3704
  540MOL0     H71236   1.501  11.235   2.433  0.7326  0.9829 -0.8416
  540MOL0     H71237   1.481  11.172   2.271 -0.3491 -1.1398  1.5630
  540MOL0     H71238   1.658  11.354   2.304  1.6200 -0.0292  3.0839
  540MOL0     H71239   1.758  11.240   2.396 -0.3328 -1.3920 -0.2051
  540MOL0     H71240   1.638  11.181   2.106  3.0156 -0.9701 -4.0084
  540MOL0     H71241   1.770  11.095   2.190  2.1457  0.8592 -2.5329
  540MOL0     H71242   1.941  11.412   1.945 -0.1894  0.3265  0.6538
  540MOL0     H71243   1.880  11.619   1.822  0.8677 -0.6790 -1.1762
  540MOL0     H71244   1.602  11.800   1.524 -0.1801  0.4167  1.6702
  540MOL0     H71245   1.601  11.996   1.352 -0.0069  0.9988  0.3282
  540MOL0     H71246   1.636  12.204   1.237 -0.2374 -0.6741  0.0307
  540MOL0     H71247   1.797  12.105   1.208  4.1261  1.7677  1.1500
  540MOL0     H71248   1.900  12.315   1.155 -0.2657  0.8547  2.5016
  540MOL0     H71249   1.772  12.410   1.206  1.1531  1.7039 -1.7128
  540MOL0     H71250   1.641  12.273   0.996 -0.3291 -2.0732 -0.5595
  540MOL0     H71251   1.798  12.185   0.982  2.8256  1.0940 -0.0092
  540MOL0     H71252   1.740  12.495   0.976 -1.6174 -2.8796  2.3688
  540MOL0     H71253   1.900  12.410   0.959  1.0085  0.5977 -1.9379
  540MOL0     H71254   1.817  12.321   0.738  1.0419  2.0945 -2.0841
  540MOL0     H71255   1.809  12.496   0.752  1.3846 -0.4296 -0.9289
  540MOL0     H71256   1.560  12.438   0.826 -0.0773  0.0581 -0.8896
  540MOL0     H71257   1.587  12.291   0.766 -1.0049 -0.0297  0.4695
  540MOL0     H71258   1.609  12.548   0.610  0.0885 -0.2024  1.8463
  540MOL0     H71259   1.677  12.399   0.546  0.9239  3.3628 -1.2915
  540MOL0     H71260   1.444  12.297   0.539  0.1255  0.5137 -0.9316
  540MOL0     H71261   1.437  12.448   0.453 -0.1378 -3.8467 -1.9337
  540MOL0     H71262   1.859  12.216   1.606  2.4594  0.7123 -2.7271
  540MOL0     H71263   1.851  12.031   1.778  2.1651  0.5518 -1.0106
  540MOL0     H71264   1.475  11.555   1.940  0.3714  2.9890 -0.2573
  540MOL0     H71265   1.524  11.372   2.066 -0.9670 -1.4615 -2.2516
  540MOL0     H71266   0.687  10.590   3.576  0.4324 -0.9435  2.6231
  540MOL0     H71267   0.683  10.649   3.822  0.1161 -0.3080 -0.4455
  540MOL0     H71268   0.644  11.071   4.082  0.2759  1.3268  0.0714
  540MOL0     H71269   0.735  11.146   4.293 -3.0402  2.5054 -1.1995
  540MOL0     H71270   0.929  10.920   4.508  1.0862 -1.8723 -0.2676
  540MOL0     H71271   0.817  10.855   4.617  1.1686  1.1957  2.5434
  540MOL0     H71272   0.803  11.059   4.754 -0.3151  0.4409 -1.4015
  540MOL0     H71273   0.959  10.974   4.757 -0.8601 -0.5377 -0.3073
  540MOL0     H71274   1.077  11.108   4.622  1.9356 -0.2386  1.2051
  540MOL0     H71275   1.023  11.200   4.758  2.8260 -2.1324 -0.0917
  540MOL0     H71276   0.868  11.217   4.493 -0.1842  0.7303  0.3033
  540MOL0     H71277   0.841  11.322   4.639  0.2867  3.3018 -2.2114
  540MOL0     H71278   1.204  11.459   4.426  2.3190 -1.5961  2.2661
  540MOL0     H71279   0.667  10.757   4.463  1.3337 -0.7501 -0.8940
  540MOL0     H71280   0.599  10.673   4.249  1.7184 -0.8283  3.7379
  541MOL0     O71281   6.933  10.196   2.384  0.5491 -0.5530  0.3633
  541MOL0     C71282   6.961  10.080   2.359 -0.0360 -1.0711  0.6914
  541MOL0     O71283   7.059  10.001   2.420  0.6474  0.0586  0.3421
  541MOL0     C71284   7.157  10.069   2.493 -0.2097 -0.0182  1.1277
  541MOL0     C71285   7.159  10.072   2.633  0.2937  0.0088 -0.6070
  541MOL0     C71286   7.247  10.160   2.701 -0.2258 -0.6705 -0.4528
  541MOL0     C71287   7.348  10.221   2.628  0.4339  0.6828  0.0292
  541MOL0     O71288   7.457  10.281   2.683  0.0258  0.3049  0.0605
  541MOL0     C71289   7.507  10.240   2.812  0.0858  0.9840  0.8566
  541MOL0     C71290   7.651  10.201   2.793 -0.1282 -0.6351  0.4257
  541MOL0     C71291   7.729  10.316   2.718 -0.3053 -0.6053 -0.1299
  541MOL0     C71292   7.867  10.269   2.670 -0.0114  0.1843  0.1505
  541MOL0     C71293   7.958  10.395   2.626  0.4796  0.1289  0.2400
  541MOL0     C71294   7.908  10.473   2.504  0.2461  0.2819 -0.3074
  541MOL0     C71295   7.962  10.612   2.509  0.0762 -0.0744  0.9672
  541MOL0     C71296   7.996  10.647   2.356  0.0044  0.3218  0.9244
  541MOL0     N71297   8.125  10.593   2.320 -0.5314  0.7605 -0.4483
  541MOL0     C71298   8.149  10.499   2.226  1.1834  0.3987 -1.2329
  541MOL0     C71299   8.284  10.497   2.220  0.6862 -0.6587 -0.0869
  541MOL0     C71300   8.352  10.398   2.143 -0.5467  0.6525  0.2841
  541MOL0     C71301   8.465  10.323   2.214 -0.5609 -0.2854  0.3983
  541MOL0     C71302   8.418  10.204   2.287 -0.1919 -0.6452 -0.2494
  541MOL0     C71303   8.374  10.230   2.429  0.3690 -0.4824 -0.3271
  541MOL0     O71304   8.312  10.114   2.483  0.1021 -0.8213 -0.3130
  541MOL0     C71305   8.179  10.082   2.481 -0.1335  0.1448  0.6451
  541MOL0     C71306   8.085  10.155   2.396  1.2486 -1.3124 -0.9704
  541MOL0     C71307   7.956  10.098   2.382  0.7508  0.6271  0.8329
  541MOL0     C71308   7.918   9.979   2.454  0.1049  0.3724  0.7496
  541MOL0     C71309   7.786   9.899   2.427  0.2305  0.3263 -0.9204
  541MOL0     O71310   7.693   9.968   2.362  0.3564  0.0629  0.4116
  541MOL0     C71311   7.587   9.911   2.293  0.6310 -0.1386  0.0230
  541MOL0     C71312   7.493   9.990   2.227  0.4232  0.6734 -0.6486
  541MOL0     C71313   7.403   9.939   2.136 -0.8293  0.2647 -0.3990
  541MOL0     C71314   7.400   9.805   2.098  0.3339 -0.4852  0.6156
  541MOL0     O71315   7.293   9.741   2.028 -0.1201 -0.5437 -0.5398
  541MOL0     C71316   7.230   9.827   1.930  0.6310  0.8091 -0.9432
  541MOL0     C71317   7.147   9.740   1.834  0.0982  0.0245 -0.1134
  541MOL0     C71318   7.233   9.635   1.764  0.6451 -0.3350 -0.0283
  541MOL0     C71319   7.154   9.545   1.670  1.0074  0.3357  0.6086
  541MOL0     C71320   7.230   9.488   1.551 -1.1698  0.2807  1.0298
  541MOL0     C71321   7.135   9.431   1.435  0.2641 -0.2140  0.7937
  541MOL0     C71322   7.201   9.441   1.300  0.2790  0.6462  0.4946
  541MOL0     C71323   7.303   9.336   1.280 -0.0623 -0.0472 -0.0105
  541MOL0    Cl71324   7.229   9.188   1.216 -0.1409 -0.4451 -0.4754
  541MOL0     C71325   7.493   9.724   2.159  0.4781 -0.1938  0.2523
  541MOL0     C71326   7.584   9.774   2.246  0.3687  0.3040  0.3113
  541MOL0     O71327   7.778   9.786   2.471  0.9515 -0.2975  0.1042
  541MOL0     C71328   8.011   9.928   2.550  0.5219 -0.3714  1.4462
  541MOL0     C71329   8.137   9.976   2.554  0.3183 -0.6844 -0.9924
  541MOL0     N71330   8.340  10.577   2.318 -0.3048  0.0327  0.0622
  541MOL0     N71331   8.246  10.637   2.372 -0.0962  0.1848  0.0013
  541MOL0     C71332   7.351  10.218   2.488  0.1871  0.0695  0.1163
  541MOL0     C71333   7.246  10.149   2.416  0.3553  0.2939 -0.3406
  541MOL0     C71334   6.885  10.016   2.256  0.0036  0.1009  0.1434
  541MOL0     C71335   6.765  10.067   2.209  1.0477 -0.4901 -0.5984
  541MOL0     C71336   6.688   9.997   2.116  0.4105  0.4299 -0.5415
  541MOL0     C71337   6.735   9.876   2.070  0.0695  0.4484 -0.3419
  541MOL0     O71338   6.648   9.798   1.988  0.8374 -0.5377 -0.2216
  541MOL0     C71339   6.621   9.867   1.862 -1.0484 -0.8521  0.4008
  541MOL0     C71340   6.577   9.770   1.756 -0.8194 -0.7856  1.0734
  541MOL0     C71341   6.640   9.627   1.753 -0.5289 -0.8501 -0.1165
  541MOL0     C71342   6.764   9.623   1.675  0.5836  0.4584  0.6299
  541MOL0     C71343   6.805   9.488   1.651  0.3289 -0.1990 -0.7858
  541MOL0     C71344   6.848   9.376   1.626 -0.6038 -1.2381 -0.4602
  541MOL0     C71345   6.859   9.827   2.113 -0.0330  0.7384 -0.8527
  541MOL0     C71346   6.934   9.890   2.212  0.8126  0.2049  0.2924
  541MOL0     H71347   7.096  10.004   2.689  2.9235 -1.7989  0.3658
  541MOL0     H71348   7.226  10.167   2.807 -1.3504 -0.1276 -0.6998
  541MOL0     H71349   7.460  10.146   2.845  2.2401 -0.6288 -0.4096
  541MOL0     H71350   7.493  10.322   2.883 -1.2872  2.1266 -0.6549
  541MOL0     H71351   7.647  10.109   2.735  2.8287 -1.2423  1.0076
  541MOL0     H71352   7.709  10.179   2.883  1.9938 -1.8920 -1.1457
  541MOL0     H71353   7.741  10.401   2.785  0.2968 -0.0089 -0.9816
  541MOL0     H71354   7.682  10.352   2.626 -0.0188 -0.5449 -0.2518
  541MOL0     H71355   7.908  10.210   2.752 -0.0675 -0.1927 -0.0911
  541MOL0     H71356   7.847  10.192   2.595  4.4384  0.6218 -1.7993
  541MOL0     H71357   8.062  10.363   2.617  0.4937 -1.4696  4.0875
  541MOL0     H71358   7.964  10.461   2.712 -2.0582  1.1125 -0.2614
  541MOL0     H71359   7.799  10.477   2.515  0.1367 -1.8922 -0.1129
  541MOL0     H71360   7.943  10.412   2.420  0.8263  1.1714 -0.7179
  541MOL0     H71361   7.884  10.685   2.531  0.3143 -0.2135  2.3294
  541MOL0     H71362   8.053  10.626   2.568  1.4644 -1.4529 -0.7150
  541MOL0     H71363   7.986  10.755   2.350  0.4491  0.4490  2.1729
  541MOL0     H71364   7.924  10.608   2.282  2.2300 -0.3993 -0.9886
  541MOL0     H71365   8.075  10.434   2.181 -0.6530  1.5376  0.0157
  541MOL0     H71366   8.387  10.442   2.049 -2.5138 -0.0688 -0.8372
  541MOL0     H71367   8.275  10.327   2.111 -1.4618  2.0544 -0.7306
  541MOL0     H71368   8.533  10.385   2.272  3.2992 -0.3267 -3.5698
  541MOL0     H71369   8.541  10.294   2.141 -0.5539  0.9708 -0.1198
  541MOL0     H71370   8.330  10.177   2.227  0.9268  0.4360 -2.5069
  541MOL0     H71371   8.499  10.132   2.287  0.3748 -0.0145 -0.2889
  541MOL0     H71372   8.297  10.307   2.437  0.8793  0.0763 -0.7287
  541MOL0     H71373   8.460  10.248   2.493  0.9090 -0.6528 -0.9968
  541MOL0     H71374   8.121  10.240   2.339  0.7908  0.3421  1.0691
  541MOL0     H71375   7.884  10.140   2.312  0.3657 -1.4784 -0.1107
  541MOL0     H71376   7.480  10.095   2.250 -1.0139 -0.0633  2.5519
  541MOL0     H71377   7.331  10.007   2.091  0.0138 -0.1656 -2.5381
  541MOL0     H71378   7.313   9.872   1.875  0.7324 -0.1099 -1.5554
  541MOL0     H71379   7.175   9.910   1.977  0.0637 -0.2503  0.3252
  541MOL0     H71380   7.095   9.805   1.763 -1.1026  1.1687  1.7297
  541MOL0     H71381   7.072   9.678   1.885 -0.2301 -1.2568 -2.0340
  541MOL0     H71382   7.287   9.572   1.835  0.2767  1.0481  1.5142
  541MOL0     H71383   7.301   9.701   1.709  2.0326  0.1062  2.1256
  541MOL0     H71384   7.103   9.471   1.732 -1.4504  2.1084  0.9001
  541MOL0     H71385   7.073   9.595   1.616 -0.9793 -5.5764 -2.6921
  541MOL0     H71386   7.307   9.419   1.588  3.0971  3.3134 -1.2638
  541MOL0     H71387   7.290   9.568   1.508 -0.8515  0.2203  1.3583
  541MOL0     H71388   7.040   9.484   1.436  0.9779  1.1233  0.3499
  541MOL0     H71389   7.108   9.327   1.457 -1.8512  0.5754  2.2280
  541MOL0     H71390   7.121   9.420   1.229  0.3431 -1.1688  0.9126
  541MOL0     H71391   7.247   9.540   1.290  1.7258 -0.1747 -1.8750
  541MOL0     H71392   7.356   9.313   1.373  0.1214  0.6966  0.0680
  541MOL0     H71393   7.377   9.362   1.204  3.2330  1.2310  3.3705
  541MOL0     H71394   7.494   9.617   2.145  0.9104 -0.7288  3.6140
  541MOL0     H71395   7.661   9.706   2.283  2.0633  1.2883 -1.2332
  541MOL0     H71396   7.986   9.841   2.610  2.3600 -2.2641 -0.3524
  541MOL0     H71397   8.205   9.917   2.614  1.0257  0.5689 -0.5282
  541MOL0     H71398   7.438  10.263   2.442  0.4604 -0.7494 -0.1720
  541MOL0     H71399   7.238  10.144   2.308  0.1470  4.4822 -0.6568
  541MOL0     H71400   6.724  10.157   2.254 -0.3978 -0.3213 -2.1706
  541MOL0     H71401   6.588  10.038   2.105  1.4504  3.2146 -0.4758
  541MOL0     H71402   6.704   9.936   1.843 -2.1020  0.8379  1.6368
  541MOL0     H71403   6.539   9.939   1.869  0.2762  0.7938 -0.3093
  541MOL0     H71404   6.470   9.763   1.778 -1.0734 -1.6102 -0.2901
  541MOL0     H71405   6.590   9.817   1.658  2.0966  0.5385  2.0009
  541MOL0     H71406   6.566   9.566   1.701  0.0545 -2.2563  0.6296
  541MOL0     H71407   6.650   9.592   1.856  2.9323 -0.7005 -0.2580
  541MOL0     H71408   6.762   9.694   1.592  0.4149  0.3105  0.5074
  541MOL0     H71409   6.842   9.660   1.744  1.3698 -0.9621  0.5493
  541MOL0     H71410   6.913   9.292   1.607  2.5063  1.0706 -0.7594
  541MOL0     H71411   6.902   9.736   2.072  0.7567  0.0567  1.3756
  541MOL0     H71412   7.026   9.843   2.243  0.1747 -1.5652 -0.4004
  542MOL0     O71413   4.544   0.268   9.672 -0.1296  0.2292  1.4016
  542MOL0     C71414   4.522   0.237   9.555 -0.0571  0.9356  1.2980
  542MOL0     O71415   4.438   0.298   9.464 -0.7711  0.8762  1.2725
  542MOL0     C71416   4.342   0.389   9.506 -0.0466 -0.5315 -0.2139
  542MOL0     C71417   4.390   0.497   9.581  0.4943 -0.5327  0.3057
  542MOL0     C71418   4.300   0.586   9.636  0.3821  0.6163 -0.3614
  542MOL0     C71419   4.156   0.573   9.614 -1.6730  0.0787  0.8470
  542MOL0     O71420   4.077   0.674   9.664  0.6306 -0.2192  0.1390
  542MOL0     C71421   4.096   0.733   9.789  0.3051 -0.8176  0.4356
  542MOL0     C71422   3.963   0.767   9.847 -0.2134  0.1229  0.0198
  542MOL0     C71423   3.945   0.921   9.863  0.7638  0.3577  0.7557
  542MOL0     C71424   3.804   0.960   9.914 -0.1170  0.4635 -0.2464
  542MOL0     C71425   3.783   1.109   9.890  0.3876 -1.3713 -0.0017
  542MOL0     C71426   3.685   1.144   9.782  0.0031  0.7669  0.4944
  542MOL0     C71427   3.695   1.292   9.731 -0.0470  0.0198  0.8348
  542MOL0     C71428   3.676   1.396   9.850 -1.0397 -0.0398 -0.9083
  542MOL0     N71429   3.695   1.534   9.796  0.3531  0.4908 -0.3870
  542MOL0     C71430   3.586   1.610   9.768 -0.0813 -1.4714  0.0925
  542MOL0     C71431   3.633   1.722   9.714  0.2296 -0.6235 -0.1343
  542MOL0     C71432   3.562   1.833   9.646 -0.9151 -0.0338  0.2110
  542MOL0     C71433   3.519   1.796   9.507 -0.5208  0.1511  0.5516
  542MOL0     C71434   3.647   1.784   9.417  0.2232 -0.0344  0.3978
  542MOL0     C71435   3.631   1.757   9.271  0.1864 -0.4573 -0.7524
  542MOL0     O71436   3.750   1.805   9.204  0.2740  0.5194  0.3355
  542MOL0     C71437   3.714   1.861   9.086 -0.2382  0.8135  0.1308
  542MOL0     C71438   3.723   1.786   8.968 -0.1974 -0.1063 -0.4578
  542MOL0     C71439   3.708   1.834   8.840  0.5687  0.5943 -0.3402
  542MOL0     C71440   3.690   1.984   8.828 -0.3625 -0.0107  0.7336
  542MOL0     C71441   3.674   2.040   8.698  0.6530  1.2478  0.4565
  542MOL0     O71442   3.587   1.980   8.617  0.3265 -0.3105 -0.8561
  542MOL0     C71443   3.586   2.022   8.485  0.3180 -0.0768 -0.6507
  542MOL0     C71444   3.649   1.947   8.387 -0.1530  0.6955 -0.3010
  542MOL0     C71445   3.656   1.991   8.259  1.2525 -0.2707  0.2273
  542MOL0     C71446   3.584   2.103   8.218  0.2224  0.5887  0.0749
  542MOL0     O71447   3.593   2.123   8.080  0.1413 -0.6030 -1.0143
  542MOL0     C71448   3.571   2.264   8.044 -0.6910  0.1200 -0.3446
  542MOL0     C71449   3.586   2.284   7.901 -0.1284  0.2758  0.1780
  542MOL0     C71450   3.452   2.238   7.834  0.1409 -0.0613 -0.0218
  542MOL0     C71451   3.454   2.257   7.679  1.4892  0.1219 -0.9024
  542MOL0     C71452   3.326   2.250   7.605  0.2633 -0.8540 -0.3681
  542MOL0     C71453   3.237   2.125   7.643  0.2517  0.7402 -0.6870
  542MOL0     C71454   3.295   2.003   7.580 -0.3377 -0.7267 -0.5159
  542MOL0     C71455   3.322   1.890   7.672  0.4015  0.6670 -0.8574
  542MOL0    Cl71456   3.164   1.804   7.713  0.5324  0.5530  0.6221
  542MOL0     C71457   3.490   2.166   8.312  0.9256 -0.9368 -1.4036
  542MOL0     C71458   3.506   2.136   8.444 -0.7784  0.2987  0.6730
  542MOL0     O71459   3.754   2.128   8.668 -0.3403 -0.5309 -0.5314
  542MOL0     C71460   3.674   2.056   8.947  0.1963 -0.3542  0.1448
  542MOL0     C71461   3.678   1.996   9.074  0.8287 -1.7529 -0.9867
  542MOL0     N71462   3.772   1.714   9.716  0.2955  0.3823 -0.5159
  542MOL0     N71463   3.806   1.602   9.763  0.0435  0.3347  0.2787
  542MOL0     C71464   4.112   0.465   9.531 -0.8879 -0.7491  0.4435
  542MOL0     C71465   4.203   0.373   9.480  0.1352 -0.6677  0.2222
  542MOL0     C71466   4.606   0.127   9.498  0.2543  0.7194 -0.0297
  542MOL0     C71467   4.721   0.093   9.568  0.1729 -1.0429  0.1481
  542MOL0     C71468   4.819   0.007   9.506  0.3365  0.2784 -0.7594
  542MOL0     C71469   4.782  -0.053   9.376 -0.3283 -0.0802 -0.1839
  542MOL0     O71470   4.862  -0.150   9.325 -0.2145  0.7193 -0.1619
  542MOL0     C71471   4.991  -0.180   9.380 -0.2479 -1.1613 -0.0731
  542MOL0     C71472   5.049  -0.301   9.299  0.5153 -0.6263 -0.3758
  542MOL0     C71473   5.155  -0.266   9.193  0.2424 -1.0888 -0.5248
  542MOL0     C71474   5.225  -0.396   9.153 -0.4790 -0.5953  0.4404
  542MOL0     C71475   5.322  -0.434   9.260  0.4339  0.2655  0.7594
  542MOL0     C71476   5.394  -0.483   9.344  0.0194 -0.9323  0.1731
  542MOL0     C71477   4.677  -0.014   9.307  0.7922  0.4663  0.9553
  542MOL0     C71478   4.590   0.078   9.368  0.4194 -0.5200  0.5143
  542MOL0     H71479   4.498   0.496   9.586  1.0161 -3.0345 -4.7416
  542MOL0     H71480   4.343   0.668   9.694  1.2924  0.3862 -0.6891
  542MOL0     H71481   4.160   0.821   9.780 -2.1274  1.0319  0.2497
  542MOL0     H71482   4.146   0.659   9.852 -0.6148 -0.1819  1.9624
  542MOL0     H71483   3.949   0.704   9.935  1.6141  2.7197  2.3465
  542MOL0     H71484   3.894   0.730   9.771  0.8276 -0.6781 -0.5727
  542MOL0     H71485   3.962   0.953   9.760  0.4178 -0.5137  0.4264
  542MOL0     H71486   4.027   0.963   9.923  2.2356 -1.0261 -0.2159
  542MOL0     H71487   3.726   0.907   9.858  1.7445 -2.9323  0.1227
  542MOL0     H71488   3.785   0.932  10.018 -0.8274  0.0150 -0.4898
  542MOL0     H71489   3.882   1.150   9.870  0.8297 -1.4051  1.9462
  542MOL0     H71490   3.738   1.151   9.981  0.6009 -1.7208  0.2663
  542MOL0     H71491   3.584   1.129   9.821  0.6956  0.8957  2.4412
  542MOL0     H71492   3.695   1.083   9.692 -1.1917  2.2759 -0.7226
  542MOL0     H71493   3.794   1.307   9.685 -0.1782  0.6896  0.7662
  542MOL0     H71494   3.620   1.315   9.655  0.1508  1.6056  1.0777
  542MOL0     H71495   3.757   1.377   9.921  0.2586 -1.3781 -2.6698
  542MOL0     H71496   3.576   1.393   9.893 -0.5844  0.4807  0.2528
  542MOL0     H71497   3.482   1.583   9.785 -1.4766  2.2554 -1.5144
  542MOL0     H71498   3.625   1.923   9.647 -1.0469  0.0652 -0.1606
  542MOL0     H71499   3.462   1.860   9.681 -1.7654 -3.3100  0.5790
  542MOL0     H71500   3.444   1.866   9.468  1.7692  0.3552 -4.2760
  542MOL0     H71501   3.467   1.699   9.512  0.2770 -0.2676  0.9043
  542MOL0     H71502   3.688   1.886   9.423  0.9071 -0.3993  3.3474
  542MOL0     H71503   3.727   1.719   9.452 -0.0195 -0.5506 -0.0019
  542MOL0     H71504   3.535   1.799   9.241 -0.4624  0.6322  2.4494
  542MOL0     H71505   3.606   1.654   9.244 -0.1465 -0.4332 -0.5532
  542MOL0     H71506   3.760   1.686   8.988  4.3505  1.7419  1.8599
  542MOL0     H71507   3.713   1.762   8.759  1.9872  1.1159 -0.7350
  542MOL0     H71508   3.720   1.868   8.409 -0.0869 -0.3507 -3.6938
  542MOL0     H71509   3.725   1.941   8.192  0.5900 -3.5353  1.7920
  542MOL0     H71510   3.649   2.322   8.095  1.4134 -2.2442 -0.6658
  542MOL0     H71511   3.474   2.300   8.077  0.5769  2.1670  1.4284
  542MOL0     H71512   3.665   2.219   7.860  0.0361 -1.0144  2.3823
  542MOL0     H71513   3.606   2.390   7.880  2.5898 -0.3586 -0.9737
  542MOL0     H71514   3.374   2.300   7.879 -1.5424 -3.3004  1.9425
  542MOL0     H71515   3.423   2.135   7.855 -0.4311 -0.0578 -0.7476
  542MOL0     H71516   3.506   2.350   7.655  0.9129  0.1561 -2.0889
  542MOL0     H71517   3.509   2.169   7.644  0.9721 -0.4796 -0.2503
  542MOL0     H71518   3.350   2.247   7.498 -0.6417 -2.5682 -0.5584
  542MOL0     H71519   3.281   2.347   7.625 -0.4497 -1.0376 -1.0197
  542MOL0     H71520   3.133   2.144   7.614  0.3200  3.3526  0.4502
  542MOL0     H71521   3.219   2.122   7.751  1.3888 -0.1181 -0.4978
  542MOL0     H71522   3.245   1.986   7.484 -0.7577  4.4492 -1.4819
  542MOL0     H71523   3.394   2.036   7.545 -1.3381  0.3667 -2.4960
  542MOL0     H71524   3.371   1.918   7.766 -1.4493  0.3395  0.2709
  542MOL0     H71525   3.365   1.806   7.618 -1.6004 -1.1711  0.2211
  542MOL0     H71526   3.417   2.236   8.276  3.7534  2.1622 -1.5715
  542MOL0     H71527   3.451   2.196   8.516 -0.1912  2.1450 -0.3583
  542MOL0     H71528   3.657   2.163   8.955  3.0512  0.2253 -0.3139
  542MOL0     H71529   3.651   2.059   9.158  2.4994 -0.2993 -1.4794
  542MOL0     H71530   4.007   0.447   9.511 -1.9891  2.8785  2.0655
  542MOL0     H71531   4.174   0.283   9.426  0.6016  0.4322 -1.9357
  542MOL0     H71532   4.738   0.135   9.666 -1.9414 -0.4599  0.3054
  542MOL0     H71533   4.904  -0.019   9.568  0.5150  3.3683  0.4981
  542MOL0     H71534   4.974  -0.212   9.483 -2.9586  1.1701  0.3164
  542MOL0     H71535   5.050  -0.088   9.374 -2.6229  0.5348  0.9703
  542MOL0     H71536   5.084  -0.378   9.369 -0.1403  1.3499  2.2945
  542MOL0     H71537   4.968  -0.348   9.242  0.9941 -2.9395  0.7122
  542MOL0     H71538   5.224  -0.191   9.231 -3.9806  2.2417  1.4251
  542MOL0     H71539   5.108  -0.233   9.100 -2.8233 -0.4639  1.1197
  542MOL0     H71540   5.146  -0.470   9.134 -0.7784 -0.0181 -0.6585
  542MOL0     H71541   5.277  -0.384   9.058 -1.6979  1.4359 -0.0329
  542MOL0     H71542   5.449  -0.542   9.414 -0.6203 -0.7972  0.7971
  542MOL0     H71543   4.654  -0.060   9.211  0.0825  1.0345  0.8500
  542MOL0     H71544   4.513   0.119   9.305 -0.1785 -1.9358  0.2888
  543MOL0     O71545   4.272   9.081   7.509 -0.7231  0.2183  0.5381
  543MOL0     C71546   4.199   8.984   7.531 -0.2992  0.2655  1.0847
  543MOL0     O71547   4.247   8.860   7.558 -0.7688  0.6640 -0.2235
  543MOL0     C71548   4.388   8.847   7.553  1.1877 -0.1054 -0.8689
  543MOL0     C71549   4.463   8.853   7.665 -0.2963 -0.1763 -0.3805
  543MOL0     C71550   4.605   8.839   7.654  0.4524 -0.2140 -0.5508
  543MOL0     C71551   4.663   8.799   7.535 -0.4042 -0.4233 -0.2538
  543MOL0     O71552   4.794   8.776   7.524 -0.9643  0.2150 -0.7825
  543MOL0     C71553   4.876   8.889   7.546  0.6816 -0.0852 -0.2249
  543MOL0     C71554   4.977   8.920   7.435 -0.6403  0.7631 -0.7192
  543MOL0     C71555   4.923   8.905   7.290  0.7590 -1.0714  0.4584
  543MOL0     C71556   5.019   8.964   7.182  0.5127 -0.2473 -0.3056
  543MOL0     C71557   4.995   8.915   7.044  0.5719 -0.7258  0.5432
  543MOL0     C71558   4.874   8.974   6.974  0.9209 -0.2249 -0.1665
  543MOL0     C71559   4.882   9.117   6.911 -0.0705  0.2946 -1.1185
  543MOL0     C71560   4.761   9.197   6.948 -0.2081  0.7220  0.3465
  543MOL0     N71561   4.759   9.226   7.095  0.1160  0.1306  0.3060
  543MOL0     C71562   4.673   9.160   7.188 -0.2335  0.1958 -0.2878
  543MOL0     C71563   4.680   9.234   7.301  0.0898 -0.0087 -0.6878
  543MOL0     C71564   4.600   9.214   7.422  0.4928  0.0586 -0.5439
  543MOL0     C71565   4.512   9.329   7.448 -0.6731  0.3331 -0.1229
  543MOL0     C71566   4.464   9.350   7.595 -0.5424 -0.3544 -0.5275
  543MOL0     C71567   4.428   9.497   7.615 -0.6916  0.1041 -1.3611
  543MOL0     O71568   4.351   9.550   7.507 -0.1758  0.0585  0.1575
  543MOL0     C71569   4.216   9.567   7.538  0.3596  0.3200  1.0962
  543MOL0     C71570   4.134   9.665   7.474  0.2549 -0.3325  0.1928
  543MOL0     C71571   3.996   9.682   7.490 -0.8011 -0.1465 -1.0890
  543MOL0     C71572   3.925   9.582   7.561  0.1249 -0.3739  0.3845
  543MOL0     C71573   3.773   9.586   7.576  0.2919  0.4840  0.6056
  543MOL0     O71574   3.718   9.711   7.577  0.3540 -0.6331  0.6152
  543MOL0     C71575   3.585   9.725   7.564  1.1232  0.0750  0.5761
  543MOL0     C71576   3.517   9.809   7.656 -1.1212  0.7454  1.1181
  543MOL0     C71577   3.382   9.843   7.651  0.2652  0.3511 -0.3304
  543MOL0     C71578   3.302   9.767   7.565 -1.6342  0.7997  0.2347
  543MOL0     O71579   3.170   9.781   7.544 -0.6635 -0.1643  0.2269
  543MOL0     C71580   3.091   9.813   7.659 -0.7432  0.1166 -0.5600
  543MOL0     C71581   2.958   9.810   7.601  0.4696 -0.1003  0.0380
  543MOL0     C71582   2.858   9.875   7.703  0.2787 -0.7905 -0.1546
  543MOL0     C71583   2.729   9.919   7.635  0.1817 -0.9545  0.5332
  543MOL0     C71584   2.617   9.958   7.735 -0.1131 -0.3867 -1.5299
  543MOL0     C71585   2.495  10.010   7.660 -0.2388  0.5298  0.5764
  543MOL0     C71586   2.361   9.985   7.735  0.6720  0.1039 -0.3085
  543MOL0     C71587   2.328  10.064   7.863 -0.2297 -0.8032 -0.5197
  543MOL0    Cl71588   2.311  10.238   7.824 -0.1555 -0.2455  0.6433
  543MOL0     C71589   3.367   9.680   7.478 -0.5082  0.4353 -0.3789
  543MOL0     C71590   3.506   9.656   7.469  0.4297 -0.0186 -0.4541
  543MOL0     O71591   3.704   9.485   7.595  0.0369 -0.0992  0.1871
  543MOL0     C71592   4.001   9.477   7.623 -0.5218 -0.6626  0.3172
  543MOL0     C71593   4.140   9.478   7.613 -0.4213  1.0777 -0.2456
  543MOL0     N71594   4.760   9.347   7.267  1.2450 -0.4758  0.0213
  543MOL0     N71595   4.804   9.340   7.153 -0.6832  0.0031  0.0142
  543MOL0     C71596   4.595   8.780   7.419 -0.0917 -1.2560  0.0463
  543MOL0     C71597   4.454   8.815   7.432  0.1305 -0.4610 -0.0167
  543MOL0     C71598   4.052   8.997   7.534  0.2217 -1.5237  0.0349
  543MOL0     C71599   4.003   9.120   7.488  1.1366 -0.1720 -0.1978
  543MOL0     C71600   3.862   9.144   7.504 -0.0480 -0.3696  0.1799
  543MOL0     C71601   3.768   9.050   7.553  0.3795  0.7930  0.8777
  543MOL0     O71602   3.633   9.091   7.555 -0.6674  0.2714  0.1871
  543MOL0     C71603   3.516   9.007   7.582 -1.3010 -0.4287 -0.5616
  543MOL0     C71604   3.397   9.091   7.579  0.1246 -1.3880 -0.5089
  543MOL0     C71605   3.390   9.193   7.698 -0.0969  0.2477 -0.2549
  543MOL0     C71606   3.280   9.302   7.668  0.1938  0.2092 -0.4867
  543MOL0     C71607   3.137   9.265   7.663 -0.0903 -0.1834  0.4283
  543MOL0     C71608   3.020   9.234   7.658 -0.0888  0.1763 -0.5252
  543MOL0     C71609   3.826   8.932   7.590  0.0191  0.5964  0.1433
  543MOL0     C71610   3.963   8.898   7.579 -0.2121 -0.2147  0.6480
  543MOL0     H71611   4.415   8.871   7.761  1.5106  0.2719  0.4882
  543MOL0     H71612   4.658   8.843   7.748 -1.7648 -0.6079  0.8002
  543MOL0     H71613   4.933   8.896   7.639  2.5471  0.8660 -1.3775
  543MOL0     H71614   4.815   8.980   7.540  1.3594  0.4515  0.7305
  543MOL0     H71615   5.051   8.842   7.456 -1.6688  0.0846  0.5807
  543MOL0     H71616   5.020   9.018   7.455  1.5757  0.3777 -3.1133
  543MOL0     H71617   4.837   8.970   7.275  2.6454  1.9395  1.6669
  543MOL0     H71618   4.911   8.797   7.276  2.0987 -1.2681  0.6773
  543MOL0     H71619   5.009   9.072   7.192  2.7244  0.1495 -1.6176
  543MOL0     H71620   5.122   8.938   7.208  0.3549 -1.0519 -0.4356
  543MOL0     H71621   4.983   8.807   7.058  0.2729 -0.9067 -1.0067
  543MOL0     H71622   5.079   8.942   6.980 -0.9173  0.7632 -0.8697
  543MOL0     H71623   4.787   8.974   7.040  1.1551 -1.3833  0.1688
  543MOL0     H71624   4.847   8.898   6.899 -1.0877 -0.2062  0.4705
  543MOL0     H71625   4.975   9.160   6.950  0.8858 -0.7301 -2.2006
  543MOL0     H71626   4.904   9.115   6.804  0.7595  0.2129 -0.9481
  543MOL0     H71627   4.668   9.149   6.915  0.1381 -0.0260  0.4516
  543MOL0     H71628   4.767   9.295   6.900  0.6152  0.5536  0.0954
  543MOL0     H71629   4.607   9.075   7.172  1.6142 -1.4063  0.1819
  543MOL0     H71630   4.676   9.201   7.500  0.2205 -3.0031 -0.6909
  543MOL0     H71631   4.551   9.117   7.413  1.6415 -0.8372  1.8770
  543MOL0     H71632   4.428   9.305   7.383  0.5885 -0.0505 -1.6514
  543MOL0     H71633   4.564   9.417   7.410  1.6882  0.6694  3.3644
  543MOL0     H71634   4.381   9.279   7.606  0.2387 -1.3705 -1.0209
  543MOL0     H71635   4.537   9.323   7.671 -1.6954  0.1131  0.8030
  543MOL0     H71636   4.521   9.554   7.604 -1.6772  1.5835 -2.4979
  543MOL0     H71637   4.385   9.513   7.715 -1.9352  2.3078 -2.1802
  543MOL0     H71638   4.181   9.739   7.410 -2.9021 -0.9735 -3.2185
  543MOL0     H71639   3.947   9.768   7.446  2.3607  1.1322 -2.3614
  543MOL0     H71640   3.579   9.863   7.727  1.1473 -1.5621  1.0731
  543MOL0     H71641   3.337   9.902   7.730  1.7509 -0.3632  1.1277
  543MOL0     H71642   3.112   9.916   7.689 -0.5514  0.4967 -1.9316
  543MOL0     H71643   3.107   9.738   7.738 -0.7390  2.2017  1.5167
  543MOL0     H71644   2.917   9.710   7.584 -0.4423 -0.1513  2.2744
  543MOL0     H71645   2.940   9.857   7.503  1.9997 -1.0544 -0.7527
  543MOL0     H71646   2.902   9.962   7.751 -0.4455 -0.4447 -0.1002
  543MOL0     H71647   2.837   9.808   7.787  0.0725  0.5552  0.9008
  543MOL0     H71648   2.735  10.009   7.574 -4.7195 -0.7397 -0.0574
  543MOL0     H71649   2.690   9.831   7.582  0.9497 -3.9476  4.4251
  543MOL0     H71650   2.644  10.037   7.806 -1.9274  1.1008 -2.4130
  543MOL0     H71651   2.588   9.873   7.797  0.5074  0.3511 -0.1664
  543MOL0     H71652   2.471   9.945   7.576 -3.9471  1.7914  0.4984
  543MOL0     H71653   2.496  10.111   7.620 -0.6244  1.7693  3.4318
  543MOL0     H71654   2.273   9.990   7.669 -0.0628  0.1456  0.6534
  543MOL0     H71655   2.359   9.881   7.766  0.1466 -0.7631 -2.9846
  543MOL0     H71656   2.414  10.050   7.928  0.6754 -2.3286 -1.9700
  543MOL0     H71657   2.240  10.036   7.921  1.0187 -0.3493  1.6929
  543MOL0     H71658   3.304   9.627   7.407  0.4022 -0.7006 -0.3632
  543MOL0     H71659   3.549   9.597   7.388  0.5754  2.1822 -2.0833
  543MOL0     H71660   3.951   9.388   7.661  0.4796 -0.4465  2.2701
  543MOL0     H71661   4.181   9.383   7.646 -4.2005  0.3689  3.2370
  543MOL0     H71662   4.645   8.726   7.339 -2.8156 -0.2054 -2.6082
  543MOL0     H71663   4.401   8.799   7.339 -0.5395 -2.9247  0.7191
  543MOL0     H71664   4.071   9.195   7.450 -0.5727  1.3373 -0.4196
  543MOL0     H71665   3.831   9.246   7.482 -0.3749 -0.6861 -0.8416
  543MOL0     H71666   3.514   8.955   7.678 -3.6063  2.9052  1.3491
  543MOL0     H71667   3.506   8.931   7.504  0.3071  1.1028 -2.3823
  543MOL0     H71668   3.405   9.146   7.485 -0.5340 -0.5854 -0.1095
  543MOL0     H71669   3.301   9.039   7.576 -0.1890 -0.8610  0.1904
  543MOL0     H71670   3.485   9.239   7.728 -1.0721  1.6903  0.7609
  543MOL0     H71671   3.366   9.138   7.790  1.5318 -0.7130 -0.3532
  543MOL0     H71672   3.301   9.387   7.734  2.7535 -0.4359 -0.3630
  543MOL0     H71673   3.293   9.342   7.567  2.4188 -1.0953 -0.7756
  543MOL0     H71674   2.919   9.210   7.629  0.6147  0.4775 -3.5804
  543MOL0     H71675   3.760   8.859   7.636 -0.7991  0.0728 -1.7527
  543MOL0     H71676   3.993   8.805   7.625 -0.5159 -0.0350  1.2228
  544MOL0     O71677   9.147   1.759   6.466 -0.0803  0.3423 -0.6685
  544MOL0     C71678   9.117   1.864   6.512 -0.1756 -0.6020 -0.3811
  544MOL0     O71679   9.130   1.901   6.649  0.1317  0.4291 -0.2655
  544MOL0     C71680   9.231   1.834   6.722 -0.2981  0.7477  1.0334
  544MOL0     C71681   9.358   1.804   6.668  0.1676 -0.4327 -0.1261
  544MOL0     C71682   9.448   1.743   6.751  0.1887  0.1550  0.3435
  544MOL0     C71683   9.425   1.708   6.882 -0.1839 -0.2620 -1.1637
  544MOL0     O71684   9.518   1.638   6.947 -0.9330  0.3703  0.0738
  544MOL0     C71685   9.489   1.598   7.085 -0.3497 -0.9150 -0.6091
  544MOL0     C71686   9.623   1.541   7.145  0.1868  0.2023  1.0329
  544MOL0     C71687   9.608   1.543   7.292  0.5901 -0.0159 -0.4678
  544MOL0     C71688   9.732   1.489   7.360 -0.0507 -0.1356  0.6461
  544MOL0     C71689   9.706   1.423   7.493  0.4838 -0.4839 -0.5080
  544MOL0     C71690   9.666   1.519   7.604  0.4323 -0.0774  0.4091
  544MOL0     C71691   9.667   1.453   7.745 -0.5179 -0.3577 -1.2252
  544MOL0     C71692   9.556   1.353   7.768 -0.4574  0.1307  1.5843
  544MOL0     N71693   9.419   1.424   7.773 -0.4507 -0.3436 -0.0815
  544MOL0     C71694   9.305   1.366   7.816  0.1910 -0.3674  0.2908
  544MOL0     C71695   9.217   1.462   7.856 -0.4107  0.7900  0.2007
  544MOL0     C71696   9.075   1.453   7.924 -1.5118  0.6364 -0.1225
  544MOL0     C71697   8.962   1.420   7.822  0.6386 -0.3978  1.1936
  544MOL0     C71698   8.910   1.544   7.743 -0.0208  1.2338 -0.5631
  544MOL0     C71699   8.818   1.519   7.628  0.2395 -0.3238  0.7748
  544MOL0     O71700   8.823   1.630   7.536  0.3886  0.6025 -0.4242
  544MOL0     C71701   8.784   1.608   7.409  0.1831  0.1875  0.6832
  544MOL0     C71702   8.733   1.491   7.351  0.1931  0.1339 -0.8535
  544MOL0     C71703   8.674   1.494   7.228  0.5087  0.7085 -0.3760
  544MOL0     C71704   8.675   1.609   7.146 -0.8295 -0.0210  0.2899
  544MOL0     C71705   8.592   1.618   7.016  0.1233  1.0804  0.5666
  544MOL0     O71706   8.612   1.732   6.945  0.1640 -0.6469  0.0807
  544MOL0     C71707   8.522   1.786   6.846  0.3132  0.1566 -0.3853
  544MOL0     C71708   8.525   1.927   6.832 -0.9489 -0.8594  0.3272
  544MOL0     C71709   8.436   1.997   6.754  0.3109  0.2442  0.0549
  544MOL0     C71710   8.346   1.924   6.680  0.0960 -0.7865  0.0840
  544MOL0     O71711   8.276   1.998   6.588 -0.1696  0.4407 -0.3462
  544MOL0     C71712   8.212   1.926   6.491  0.2275  0.1719  0.6948
  544MOL0     C71713   8.125   2.025   6.401  0.0684 -0.4998  0.1478
  544MOL0     C71714   8.031   1.947   6.309 -0.0430 -0.0570 -0.3549
  544MOL0     C71715   7.955   2.039   6.211 -0.2039  0.2161  0.5446
  544MOL0     C71716   7.857   1.959   6.133 -0.3921  0.0277  0.1001
  544MOL0     C71717   7.914   1.893   6.007 -0.2307  0.3271  0.3330
  544MOL0     C71718   7.940   1.998   5.903  1.0046  0.4029 -0.8461
  544MOL0     C71719   8.004   1.928   5.776  0.3360  0.2406 -0.5708
  544MOL0    Cl71720   7.872   1.841   5.672 -0.2405  0.1057  0.5508
  544MOL0     C71721   8.339   1.792   6.692  0.0107  0.7007 -0.5949
  544MOL0     C71722   8.418   1.718   6.778 -0.2509  0.2732 -0.8428
  544MOL0     O71723   8.520   1.521   6.983 -0.3213 -0.1506 -0.2324
  544MOL0     C71724   8.743   1.722   7.188 -0.0968  0.0090 -0.1788
  544MOL0     C71725   8.792   1.721   7.322 -0.1908 -0.7120  1.0327
  544MOL0     N71726   9.284   1.585   7.837 -0.3940  0.2118 -0.1027
  544MOL0     N71727   9.405   1.561   7.785  0.2406  0.3965  0.4603
  544MOL0     C71728   9.303   1.743   6.938 -0.6504  0.2294  0.2573
  544MOL0     C71729   9.205   1.807   6.856 -0.5280 -0.6294 -0.5087
  544MOL0     C71730   9.072   1.964   6.421  0.6023 -0.9840 -0.5582
  544MOL0     C71731   9.074   2.098   6.453  0.0669  0.6644 -0.5441
  544MOL0     C71732   9.035   2.198   6.371  0.1169  0.1576 -0.4838
  544MOL0     C71733   8.983   2.163   6.246 -0.0115 -1.0033  0.4777
  544MOL0     O71734   8.938   2.255   6.155  0.3213  0.4523 -0.0668
  544MOL0     C71735   8.919   2.395   6.177  0.6263  1.4183 -0.1262
  544MOL0     C71736   8.818   2.418   6.295  0.5822 -0.7384 -0.9652
  544MOL0     C71737   8.679   2.425   6.240 -0.7079 -0.0880 -0.2490
  544MOL0     C71738   8.578   2.438   6.361 -0.1501 -0.9339 -0.2433
  544MOL0     C71739   8.438   2.440   6.316 -0.4552  0.2331 -0.6315
  544MOL0     C71740   8.334   2.426   6.268 -0.7632  0.3310  0.4995
  544MOL0     C71741   8.977   2.030   6.204  0.8184 -0.4240  0.1858
  544MOL0     C71742   9.020   1.927   6.291 -0.0429  0.1541 -0.7159
  544MOL0     H71743   9.368   1.821   6.561 -2.6372 -1.1203 -0.5668
  544MOL0     H71744   9.546   1.719   6.711 -1.3228  1.1802 -4.5735
  544MOL0     H71745   9.405   1.529   7.100 -3.3713  2.8184  1.3846
  544MOL0     H71746   9.465   1.687   7.143 -0.2022 -1.1101 -0.2486
  544MOL0     H71747   9.710   1.603   7.121  2.2437 -1.9895  2.3629
  544MOL0     H71748   9.631   1.441   7.103 -1.9176  0.2951  0.2730
  544MOL0     H71749   9.526   1.474   7.313 -0.9570  2.2422  1.4317
  544MOL0     H71750   9.592   1.640   7.339 -1.1079 -1.4934  2.2652
  544MOL0     H71751   9.779   1.409   7.303  0.2343  1.6500 -1.7511
  544MOL0     H71752   9.805   1.570   7.369  0.1427 -0.4125  1.7664
  544MOL0     H71753   9.791   1.368   7.534 -1.0507 -0.6478  2.8211
  544MOL0     H71754   9.627   1.350   7.474  0.0844  0.5840 -3.4475
  544MOL0     H71755   9.569   1.567   7.585  0.1571 -1.5309 -2.5342
  544MOL0     H71756   9.745   1.594   7.593  2.0225 -1.9246 -1.6534
  544MOL0     H71757   9.769   1.416   7.762 -0.8529 -0.3677  1.0440
  544MOL0     H71758   9.656   1.533   7.819 -0.4305  0.3501 -1.9706
  544MOL0     H71759   9.575   1.286   7.853 -1.8580 -2.5073 -0.0364
  544MOL0     H71760   9.557   1.287   7.681  2.5378  2.2791 -0.2103
  544MOL0     H71761   9.290   1.258   7.816  2.0846 -0.6773 -0.7953
  544MOL0     H71762   9.055   1.552   7.966  1.5406  0.5621  1.8445
  544MOL0     H71763   9.078   1.377   8.002 -1.1175  1.5037  0.7217
  544MOL0     H71764   8.880   1.379   7.880 -0.1290 -0.1700  0.2966
  544MOL0     H71765   8.996   1.336   7.761 -0.3954  0.2750 -0.4007
  544MOL0     H71766   8.862   1.615   7.811 -2.0771 -2.4902  2.1898
  544MOL0     H71767   9.004   1.586   7.705  0.8347 -0.8688 -0.9041
  544MOL0     H71768   8.717   1.492   7.661 -0.0534 -0.7519 -0.4326
  544MOL0     H71769   8.862   1.435   7.574  0.7708  0.2511  0.2976
  544MOL0     H71770   8.718   1.399   7.407  0.6004  0.4219 -0.2536
  544MOL0     H71771   8.638   1.399   7.189  0.2061 -0.1270  1.8444
  544MOL0     H71772   8.600   1.977   6.892 -1.3093 -0.5759  0.5500
  544MOL0     H71773   8.441   2.104   6.738  2.5641  0.0095 -1.2499
  544MOL0     H71774   8.142   1.861   6.545 -0.7174  1.0275  0.5274
  544MOL0     H71775   8.274   1.867   6.423  0.1964  0.1636  0.6732
  544MOL0     H71776   8.190   2.091   6.344 -0.9121  1.3040  1.0306
  544MOL0     H71777   8.075   2.092   6.472 -1.5163 -2.7507  1.3005
  544MOL0     H71778   7.959   1.901   6.377  1.1606 -1.3577  0.0939
  544MOL0     H71779   8.089   1.873   6.253 -2.0255 -1.1673 -1.0425
  544MOL0     H71780   7.904   2.110   6.276 -1.1499  1.5119 -1.5110
  544MOL0     H71781   8.029   2.098   6.155 -0.7642  2.5998  2.1457
  544MOL0     H71782   7.776   2.026   6.102  1.6528  1.4666 -2.6122
  544MOL0     H71783   7.813   1.880   6.195  1.0264 -0.5526  0.4013
  544MOL0     H71784   7.839   1.822   5.971 -0.5260 -0.3936  2.2844
  544MOL0     H71785   8.008   1.842   6.030 -0.4986  0.9134  3.0711
  544MOL0     H71786   7.844   2.037   5.870  0.9313  0.4227 -0.6092
  544MOL0     H71787   8.004   2.078   5.942 -0.5128  1.2685 -0.0450
  544MOL0     H71788   8.084   1.858   5.803 -0.1419  0.1337  0.6496
  544MOL0     H71789   8.041   2.006   5.708 -0.2971 -1.3367 -2.8243
  544MOL0     H71790   8.272   1.732   6.631 -1.7047  0.4413  1.4440
  544MOL0     H71791   8.412   1.610   6.782  1.1625  0.1911 -0.2753
  544MOL0     H71792   8.747   1.821   7.143  3.5816  0.2076  0.3038
  544MOL0     H71793   8.828   1.813   7.366  1.9813  0.1465 -2.1310
  544MOL0     H71794   9.281   1.728   7.044  0.8710  1.1371  0.7296
  544MOL0     H71795   9.109   1.843   6.893 -0.4234 -1.1135  0.2447
  544MOL0     H71796   9.100   2.103   6.558  1.2622  0.2005 -0.8052
  544MOL0     H71797   9.045   2.299   6.410  2.6446  0.2631 -1.2411
  544MOL0     H71798   8.885   2.445   6.086 -2.5452  0.8645  0.6227
  544MOL0     H71799   9.014   2.445   6.202  1.7405 -0.3856 -0.5859
  544MOL0     H71800   8.829   2.347   6.378 -2.4413 -0.2527 -0.0371
  544MOL0     H71801   8.842   2.516   6.335 -1.5310 -0.9365  0.9931
  544MOL0     H71802   8.654   2.329   6.194 -1.0559 -0.0603 -0.1210
  544MOL0     H71803   8.668   2.504   6.165 -1.5731  1.5733  1.5525
  544MOL0     H71804   8.596   2.357   6.432  0.3982 -1.9712 -1.5275
  544MOL0     H71805   8.616   2.525   6.416  2.6804 -0.9690 -1.9551
  544MOL0     H71806   8.234   2.411   6.231 -0.7355  1.6128 -0.1553
  544MOL0     H71807   8.949   1.998   6.104  2.8641  1.8057 -1.2008
  544MOL0     H71808   9.010   1.824   6.257 -0.8693 -1.2881  3.3225
  545MOL0     O71809   6.304  10.277   9.553 -0.2693  0.4242  0.2853
  545MOL0     C71810   6.282  10.234   9.448  0.2955  0.4266  0.1292
  545MOL0     O71811   6.282  10.106   9.415 -0.1426 -0.1314 -0.6238
  545MOL0     C71812   6.383  10.023   9.471  0.3955 -0.2885  0.6523
  545MOL0     C71813   6.393   9.896   9.420  0.8290 -0.8941  0.3374
  545MOL0     C71814   6.479   9.805   9.464 -0.4431  0.1759 -0.2635
  545MOL0     C71815   6.573   9.828   9.560  0.3541 -1.3184 -0.1499
  545MOL0     O71816   6.665   9.729   9.594 -0.5452  0.7031 -0.8554
  545MOL0     C71817   6.772   9.756   9.687  0.6981  0.1481  0.4633
  545MOL0     C71818   6.858   9.633   9.689 -0.2845 -0.1440 -0.1967
  545MOL0     C71819   6.802   9.505   9.732  0.6343 -0.0581  0.7413
  545MOL0     C71820   6.902   9.404   9.787 -0.2155 -0.0380  0.2768
  545MOL0     C71821   6.838   9.283   9.856  0.4905  0.3861  0.1026
  545MOL0     C71822   6.949   9.186   9.894  0.7847 -0.1182 -0.7505
  545MOL0     C71823   6.910   9.066   9.978 -0.1711  0.6721  0.7215
  545MOL0     C71824   6.913   9.102  10.131  0.5760 -0.2386 -0.3761
  545MOL0     N71825   6.881   8.985  10.217 -0.4001 -0.5817  0.6195
  545MOL0     C71826   6.983   8.910  10.273  0.4253 -0.1295 -1.3800
  545MOL0     C71827   6.918   8.801  10.323  0.4454 -0.1047  0.5142
  545MOL0     C71828   6.990   8.701  10.419  0.4542  0.4498  0.1454
  545MOL0     C71829   7.103   8.614  10.346 -0.5748 -0.6472  0.4130
  545MOL0     C71830   7.113   8.486  10.424 -0.3712  0.8479  0.5336
  545MOL0     C71831   7.134   8.503  10.569  0.3252  0.2629 -0.0593
  545MOL0     O71832   7.240   8.589  10.600  0.4606 -0.9667  0.0050
  545MOL0     C71833   7.381   8.555  10.601  0.1603  0.3460  0.0931
  545MOL0     C71834   7.473   8.650  10.655  0.8190  0.0794 -0.7704
  545MOL0     C71835   7.606   8.625  10.655  0.1732 -1.1914 -0.5316
  545MOL0     C71836   7.658   8.502  10.623  0.4336  0.7069  0.6481
  545MOL0     C71837   7.800   8.470  10.632  0.6307 -0.0833 -0.4294
  545MOL0     O71838   7.838   8.350  10.565  0.6753 -0.4341 -0.1290
  545MOL0     C71839   7.966   8.317  10.558  0.6326 -1.2165 -0.0327
  545MOL0     C71840   8.038   8.329  10.436 -0.6149 -0.8834  0.2251
  545MOL0     C71841   8.176   8.298  10.437  0.7979 -0.9446  0.0384
  545MOL0     C71842   8.237   8.249  10.550 -0.0086  0.1720 -0.2135
  545MOL0     O71843   8.367   8.212  10.550  1.0728  0.2824 -0.2300
  545MOL0     C71844   8.450   8.326  10.522 -0.1721  0.4086  0.9267
  545MOL0     C71845   8.531   8.360  10.646  0.2248 -0.2982  0.5122
  545MOL0     C71846   8.641   8.252  10.674  0.0946  0.1846  0.5611
  545MOL0     C71847   8.752   8.245  10.562 -0.5599 -0.7218  0.6315
  545MOL0     C71848   8.811   8.108  10.556 -0.2857 -1.2465  0.7706
  545MOL0     C71849   8.967   8.109  10.531 -0.3701 -0.4256 -1.1022
  545MOL0     C71850   9.007   7.959  10.510 -0.2534  0.1223 -0.5823
  545MOL0     C71851   9.061   7.877  10.629  0.2414  0.3082  0.0233
  545MOL0    Cl71852   9.179   7.973  10.724 -0.2010  0.0201 -0.1127
  545MOL0     C71853   8.165   8.233  10.665 -0.7225  0.3795  0.5022
  545MOL0     C71854   8.032   8.261  10.668  0.2977  0.2492  0.3567
  545MOL0     O71855   7.888   8.546  10.681  0.0800  0.2450 -0.0155
  545MOL0     C71856   7.568   8.406  10.563 -0.0189  0.1490 -0.4788
  545MOL0     C71857   7.435   8.435  10.553  0.0262 -0.9634 -0.6320
  545MOL0     N71858   6.783   8.814  10.301  0.2499 -0.5596  0.4321
  545MOL0     N71859   6.767   8.921  10.224  0.6010  0.3208  0.1420
  545MOL0     C71860   6.576   9.960   9.615 -0.4251  0.3887  0.3092
  545MOL0     C71861   6.481  10.054   9.565 -0.2987  0.5184 -0.3254
  545MOL0     C71862   6.259  10.335   9.341 -0.7037  0.2596 -0.0750
  545MOL0     C71863   6.278  10.289   9.213 -0.1054  0.0655  0.9603
  545MOL0     C71864   6.257  10.384   9.106  0.4093  0.3098 -0.4964
  545MOL0     C71865   6.237  10.521   9.130 -0.0586 -0.7642  0.3196
  545MOL0     O71866   6.197  10.606   9.020 -0.3013  0.2638  0.9450
  545MOL0     C71867   6.188  10.747   9.036 -0.5445 -0.3885 -0.5186
  545MOL0     C71868   6.162  10.820   8.905 -0.1222  0.3294  0.5960
  545MOL0     C71869   6.152  10.967   8.935 -0.6203 -0.7081  0.8024
  545MOL0     C71870   6.063  11.044   8.821 -0.2614 -0.1172  0.6059
  545MOL0     C71871   6.123  11.032   8.682  0.1778 -0.7478  0.0534
  545MOL0     C71872   6.140  10.998   8.567 -0.1236 -1.2072  0.6694
  545MOL0     C71873   6.232  10.567   9.263  0.0445 -1.0372 -0.6176
  545MOL0     C71874   6.246  10.475   9.363 -0.7664 -0.3728 -0.6893
  545MOL0     H71875   6.324   9.864   9.342  0.5504  1.6319 -0.5498
  545MOL0     H71876   6.470   9.705   9.423  3.5747 -0.1917 -0.6325
  545MOL0     H71877   6.749   9.777   9.792  1.8792 -1.0524  0.9835
  545MOL0     H71878   6.833   9.837   9.647  1.4263 -0.3302  0.5965
  545MOL0     H71879   6.952   9.659   9.739 -1.3728 -1.2655  2.5939
  545MOL0     H71880   6.883   9.622   9.583  1.7010  0.3391  0.1781
  545MOL0     H71881   6.764   9.462   9.639 -0.3512  2.0950  0.0881
  545MOL0     H71882   6.709   9.515   9.789 -0.2736 -1.1476 -0.4938
  545MOL0     H71883   6.963   9.363   9.706  2.3290 -0.4643  2.3077
  545MOL0     H71884   6.964   9.456   9.860  2.2142 -0.7353 -1.1629
  545MOL0     H71885   6.774   9.237   9.780  5.0836 -0.0566 -3.9691
  545MOL0     H71886   6.773   9.312   9.939  0.5445  2.1893 -0.4305
  545MOL0     H71887   7.023   9.249   9.943 -2.0546  0.5845  3.1114
  545MOL0     H71888   7.004   9.147   9.808 -1.4126 -0.4293 -2.0879
  545MOL0     H71889   6.819   9.016   9.944  0.5823 -2.7053  3.0513
  545MOL0     H71890   6.985   8.987   9.966  0.2896  1.3320 -0.8125
  545MOL0     H71891   6.836   9.178  10.145  0.9448  0.1965 -0.6799
  545MOL0     H71892   7.013   9.133  10.164  0.1743  1.8160 -0.9669
  545MOL0     H71893   7.083   8.946  10.297  0.1876 -0.1782 -0.2340
  545MOL0     H71894   6.911   8.639  10.462  0.3813  0.9033  0.6783
  545MOL0     H71895   7.042   8.755  10.498  2.8017 -0.4543 -0.6986
  545MOL0     H71896   7.198   8.667  10.339  1.3773 -3.7738  1.1559
  545MOL0     H71897   7.082   8.595  10.240  3.2080  1.0600 -0.7947
  545MOL0     H71898   7.018   8.433  10.410  0.2500  0.1934 -1.5026
  545MOL0     H71899   7.192   8.424  10.382 -2.5515 -0.9642 -1.1489
  545MOL0     H71900   7.150   8.399  10.600  1.3352 -0.4623 -2.6883
  545MOL0     H71901   7.044   8.544  10.615 -0.9304 -5.0543  3.1531
  545MOL0     H71902   7.430   8.740  10.698  0.7694  0.7075 -2.0698
  545MOL0     H71903   7.674   8.699  10.696 -0.8612 -0.0756 -0.7618
  545MOL0     H71904   7.989   8.364  10.346  1.8930  1.3113 -0.4091
  545MOL0     H71905   8.238   8.302  10.348 -1.8898 -3.7483 -2.2183
  545MOL0     H71906   8.391   8.411  10.486 -1.3759 -1.7909 -2.9154
  545MOL0     H71907   8.520   8.295  10.444 -2.2422  0.0067 -0.8649
  545MOL0     H71908   8.463   8.365  10.732 -0.4130  0.6705 -0.0329
  545MOL0     H71909   8.579   8.456  10.625  1.8235 -1.5446 -2.0438
  545MOL0     H71910   8.597   8.152  10.664  0.7873  0.0380 -1.4614
  545MOL0     H71911   8.685   8.268  10.773 -0.2826 -1.6872  1.0761
  545MOL0     H71912   8.720   8.279  10.463  2.8270 -2.5918 -1.2750
  545MOL0     H71913   8.834   8.312  10.592  0.3677 -1.6133  0.1457
  545MOL0     H71914   8.770   8.057  10.469 -1.3547 -1.6142  1.4689
  545MOL0     H71915   8.798   8.054  10.650  3.6121  0.1705  2.3147
  545MOL0     H71916   9.022   8.166  10.606  0.3338  0.5641 -2.3182
  545MOL0     H71917   8.980   8.165  10.438  4.1095 -1.5081 -1.3646
  545MOL0     H71918   8.923   7.903  10.469  0.2035 -0.5135 -0.6576
  545MOL0     H71919   9.084   7.963  10.432 -1.7741  1.4795 -2.1029
  545MOL0     H71920   9.103   7.780  10.601  0.5927  0.9086 -1.6944
  545MOL0     H71921   8.980   7.860  10.701  0.4355 -0.6520  0.0307
  545MOL0     H71922   8.218   8.186  10.747 -0.0131  2.6365  1.4071
  545MOL0     H71923   7.976   8.249  10.760 -2.5194  3.2637 -0.7514
  545MOL0     H71924   7.600   8.309  10.525 -3.1700 -0.2202 -2.5708
  545MOL0     H71925   7.365   8.361  10.517 -0.4613  0.0910 -1.9455
  545MOL0     H71926   6.654  10.007   9.674  1.3867  2.5076 -3.4203
  545MOL0     H71927   6.505  10.156   9.595  3.1365 -0.3740  0.4081
  545MOL0     H71928   6.313  10.189   9.190  0.4185 -0.1668  2.6414
  545MOL0     H71929   6.267  10.365   8.999 -1.0596 -2.2207 -0.2623
  545MOL0     H71930   6.272  10.790   9.090 -0.3127 -1.4237 -0.0131
  545MOL0     H71931   6.102  10.771   9.100  1.9241  0.7761  2.6119
  545MOL0     H71932   6.247  10.799   8.839 -0.1897 -0.0912  0.6431
  545MOL0     H71933   6.071  10.774   8.865 -0.1824  0.2408  0.8348
  545MOL0     H71934   6.251  11.013   8.940  0.5319 -3.0827  1.3252
  545MOL0     H71935   6.098  10.988   9.028 -2.5737  0.6078 -0.5361
  545MOL0     H71936   5.962  11.003   8.820 -0.2329 -0.2310 -1.2341
  545MOL0     H71937   6.036  11.149   8.840 -1.2626 -0.3922  0.7395
  545MOL0     H71938   6.156  10.949   8.474  0.1077  2.3960 -1.3485
  545MOL0     H71939   6.225  10.673   9.286  0.8305 -1.0497 -0.2957
  545MOL0     H71940   6.246  10.497   9.469 -1.0157 -2.7206 -0.1379
  546MOL0     O71941  11.075   6.907   2.594 -0.0970 -0.4936  0.0155
  546MOL0     C71942  11.179   6.941   2.648 -0.2472 -0.3489  0.1256
  546MOL0     O71943  11.241   7.061   2.628 -0.9380  0.4942  0.2315
  546MOL0     C71944  11.182   7.155   2.545  0.0634 -1.0544  1.1457
  546MOL0     C71945  11.073   7.231   2.592 -0.0419 -0.0244  0.5393
  546MOL0     C71946  11.031   7.346   2.509  0.6389  0.5084  0.3527
  546MOL0     C71947  11.114   7.382   2.394 -0.2621  0.1837 -0.5548
  546MOL0     O71948  11.078   7.477   2.310 -0.0263  0.2679 -0.0488
  546MOL0     C71949  10.954   7.536   2.327  0.8133  0.2783  0.5066
  546MOL0     C71950  10.941   7.623   2.213 -0.5272 -1.4553  0.1900
  546MOL0     C71951  10.888   7.555   2.083 -0.7669 -1.2737 -0.0362
  546MOL0     C71952  10.764   7.614   2.028 -0.6207 -1.4121  0.2341
  546MOL0     C71953  10.619   7.557   2.055 -0.2254 -1.0456  0.5489
  546MOL0     C71954  10.619   7.403   2.052 -0.4395  0.9759 -0.0290
  546MOL0     C71955  10.463   7.373   2.069  0.4371 -0.6170  0.2115
  546MOL0     C71956  10.391   7.341   1.937  0.2341 -0.0143 -0.2762
  546MOL0     N71957  10.257   7.293   1.981 -0.3153  0.5066 -0.5676
  546MOL0     C71958  10.183   7.346   2.085 -0.3141  0.5240  0.0448
  546MOL0     C71959  10.070   7.292   2.088  0.7934  0.8635  0.3466
  546MOL0     C71960   9.964   7.345   2.180  0.9670  0.2842 -1.3195
  546MOL0     C71961   9.820   7.302   2.139  0.3457 -0.0955  0.1319
  546MOL0     C71962   9.716   7.338   2.250 -0.6906  0.0979  0.4261
  546MOL0     C71963   9.650   7.479   2.226  1.0620  0.4351 -0.8325
  546MOL0     O71964   9.742   7.592   2.253  0.7800  1.2349 -0.2120
  546MOL0     C71965   9.683   7.707   2.288  0.9438 -0.1560 -0.1795
  546MOL0     C71966   9.547   7.741   2.287 -0.1572 -0.6296  1.1000
  546MOL0     C71967   9.503   7.871   2.304 -0.1417  0.1074 -0.1215
  546MOL0     C71968   9.589   7.969   2.350 -0.0228  0.7004  0.2063
  546MOL0     C71969   9.540   8.098   2.391  0.2049 -0.0011 -0.1871
  546MOL0     O71970   9.634   8.190   2.410  0.6564 -1.1330 -0.3951
  546MOL0     C71971   9.595   8.318   2.457  0.0812 -0.6420 -0.3578
  546MOL0     C71972   9.495   8.388   2.388  0.4374  0.4944 -0.5825
  546MOL0     C71973   9.473   8.524   2.421 -0.7200  0.4239 -0.9532
  546MOL0     C71974   9.538   8.583   2.523 -0.0593  0.4915 -0.1718
  546MOL0     O71975   9.484   8.708   2.545 -0.3988  0.4884  0.0995
  546MOL0     C71976   9.571   8.819   2.518 -1.0281 -0.2390  0.2965
  546MOL0     C71977   9.476   8.950   2.533 -0.7700  1.9788  0.7177
  546MOL0     C71978   9.566   9.084   2.530  0.1824 -1.1524  0.7912
  546MOL0     C71979   9.491   9.225   2.523 -0.4268  0.8873  0.5142
  546MOL0     C71980   9.593   9.341   2.490  0.8765 -0.1349  0.1047
  546MOL0     C71981   9.515   9.475   2.496  0.2368 -0.3451  1.0217
  546MOL0     C71982   9.611   9.588   2.488 -0.5034 -0.2762  0.5383
  546MOL0     C71983   9.697   9.588   2.353  0.5941  0.4795  0.6932
  546MOL0    Cl71984   9.747   9.744   2.281 -0.0231 -0.1844 -0.3069
  546MOL0     C71985   9.636   8.515   2.593 -0.0510  0.6317 -0.6985
  546MOL0     C71986   9.670   8.386   2.555 -1.2834 -0.1770  0.7853
  546MOL0     O71987   9.416   8.109   2.403 -0.3569  0.1344 -0.2573
  546MOL0     C71988   9.727   7.938   2.361 -0.8704  0.4894  0.2856
  546MOL0     C71989   9.774   7.809   2.316 -0.4511 -0.1686 -0.4563
  546MOL0     N71990  10.063   7.202   1.981 -0.0532 -0.7976 -0.0189
  546MOL0     N71991  10.177   7.201   1.918 -0.5541  0.1741 -0.4456
  546MOL0     C71992  11.224   7.302   2.358  0.5754  0.0824 -0.4764
  546MOL0     C71993  11.254   7.188   2.432  0.5004  0.1629  0.5929
  546MOL0     C71994  11.247   6.845   2.731 -0.3276  0.0939 -1.3345
  546MOL0     C71995  11.381   6.871   2.771  0.1649 -0.9814 -0.1931
  546MOL0     C71996  11.442   6.787   2.865 -0.2371 -0.3624 -0.1514
  546MOL0     C71997  11.381   6.679   2.927  0.3024 -0.5747  1.0194
  546MOL0     O71998  11.442   6.619   3.035  0.2601  0.4398  0.0489
  546MOL0     C71999  11.379   6.500   3.093 -0.7159  0.3996  0.0125
  546MOL0     C72000  11.436   6.484   3.230 -0.0865  0.1826 -0.1236
  546MOL0     C72001  11.401   6.354   3.301 -0.5780 -0.0070  0.0818
  546MOL0     C72002  11.468   6.340   3.439  0.0557  0.2290 -0.4086
  546MOL0     C72003  11.613   6.318   3.427  0.9217 -0.0528 -0.3057
  546MOL0     C72004  11.731   6.331   3.397 -0.0247  0.7691  1.0650
  546MOL0     C72005  11.256   6.650   2.879  0.9135 -0.2354  0.5858
  546MOL0     C72006  11.186   6.733   2.790 -0.2376  0.2801 -0.1458
  546MOL0     H72007  11.016   7.199   2.678 -2.1334 -0.7547 -1.0105
  546MOL0     H72008  10.941   7.398   2.538  0.0911 -0.1459 -0.1445
  546MOL0     H72009  10.956   7.607   2.410  0.2488  1.3486 -0.3707
  546MOL0     H72010  10.879   7.456   2.338  1.8492 -1.1954 -2.3402
  546MOL0     H72011  11.037   7.665   2.181 -0.9430 -1.5182 -1.2177
  546MOL0     H72012  10.878   7.708   2.243  2.3570  1.8652 -2.2482
  546MOL0     H72013  10.880   7.447   2.101 -2.7656 -0.9943  1.0365
  546MOL0     H72014  10.964   7.560   2.004 -1.9847 -0.9149 -1.2147
  546MOL0     H72015  10.761   7.722   2.048 -0.1337 -1.6509  1.6951
  546MOL0     H72016  10.774   7.609   1.919 -0.1179  0.6791  0.1492
  546MOL0     H72017  10.539   7.596   1.992 -0.5011 -2.4526  0.0019
  546MOL0     H72018  10.597   7.576   2.161  1.6875 -1.6758  1.1109
  546MOL0     H72019  10.680   7.360   2.132 -2.7234 -0.0275  1.2729
  546MOL0     H72020  10.654   7.370   1.953 -0.9239  2.7546 -0.8216
  546MOL0     H72021  10.437   7.287   2.131 -6.0173 -0.6768 -1.8325
  546MOL0     H72022  10.413   7.459   2.115  0.0949 -0.7821  0.1526
  546MOL0     H72023  10.443   7.265   1.879 -1.1584 -0.9101 -0.4111
  546MOL0     H72024  10.373   7.434   1.883 -0.2826  0.9805  1.5072
  546MOL0     H72025  10.218   7.427   2.148  0.2010  1.3054 -1.2055
  546MOL0     H72026   9.965   7.451   2.207 -0.0608 -0.4885  2.3984
  546MOL0     H72027   9.974   7.285   2.271 -1.1173  0.6855 -0.7640
  546MOL0     H72028   9.817   7.194   2.119  0.9043 -0.0202 -0.3731
  546MOL0     H72029   9.795   7.334   2.037  2.7315 -0.2762 -0.5725
  546MOL0     H72030   9.647   7.260   2.285 -1.7650  2.0281  2.9499
  546MOL0     H72031   9.773   7.346   2.343  2.6885 -1.9405 -1.3164
  546MOL0     H72032   9.576   7.474   2.306  2.5539 -4.1282  0.5786
  546MOL0     H72033   9.594   7.483   2.132 -1.2170  2.6315  0.5011
  546MOL0     H72034   9.483   7.664   2.244  1.3437 -1.6779  0.6528
  546MOL0     H72035   9.400   7.887   2.276 -0.9751  0.7531  2.9757
  546MOL0     H72036   9.424   8.347   2.317 -1.1367  0.3637  1.0218
  546MOL0     H72037   9.382   8.562   2.375 -0.6602 -0.4296 -1.8107
  546MOL0     H72038   9.623   8.814   2.422 -1.8568 -1.7244 -0.1131
  546MOL0     H72039   9.662   8.822   2.579  1.0308 -2.2524 -2.3899
  546MOL0     H72040   9.421   8.948   2.628 -3.4299 -0.9222 -0.7185
  546MOL0     H72041   9.407   8.946   2.448 -1.9062  0.3201  1.6752
  546MOL0     H72042   9.642   9.077   2.451 -1.0917  1.4555 -0.8061
  546MOL0     H72043   9.625   9.099   2.620  2.9789  1.9437 -1.2983
  546MOL0     H72044   9.436   9.219   2.429  3.7339  0.1255 -2.1463
  546MOL0     H72045   9.423   9.242   2.607  1.0378  0.7440  1.7792
  546MOL0     H72046   9.636   9.314   2.393 -0.0799 -0.3442 -0.2773
  546MOL0     H72047   9.679   9.342   2.557  1.4469 -3.6695 -0.3833
  546MOL0     H72048   9.460   9.468   2.590  2.4120 -1.6633  2.2910
  546MOL0     H72049   9.445   9.477   2.413  1.1377  2.1877  0.2464
  546MOL0     H72050   9.552   9.680   2.495  1.1400  0.9160 -0.5604
  546MOL0     H72051   9.673   9.587   2.578 -1.3675 -0.4762  1.1476
  546MOL0     H72052   9.643   9.549   2.267  1.8845  0.6342 -0.2089
  546MOL0     H72053   9.783   9.522   2.369 -0.2396 -0.3756  1.8763
  546MOL0     H72054   9.680   8.549   2.686  2.0781 -2.0055 -0.6086
  546MOL0     H72055   9.749   8.329   2.601 -0.3219  1.3244  1.0769
  546MOL0     H72056   9.795   8.012   2.403 -3.4811  2.1218  1.8959
  546MOL0     H72057   9.879   7.787   2.324 -0.3298  0.0585 -1.3221
  546MOL0     H72058  11.281   7.336   2.272  1.2403  2.1079  0.6990
  546MOL0     H72059  11.348   7.135   2.418  0.3963  0.3556 -1.0440
  546MOL0     H72060  11.444   6.954   2.741  0.7485 -1.3297  0.0523
  546MOL0     H72061  11.534   6.821   2.911 -0.1185 -2.1989  1.0713
  546MOL0     H72062  11.394   6.403   3.045  0.3578 -2.5695  5.5176
  546MOL0     H72063  11.272   6.513   3.111 -0.2267  0.5644  3.5939
  546MOL0     H72064  11.544   6.497   3.219  0.1532  0.9335  2.4475
  546MOL0     H72065  11.399   6.566   3.293 -1.4510 -0.4847 -0.0213
  546MOL0     H72066  11.438   6.275   3.236 -1.3367  2.0608 -3.1122
  546MOL0     H72067  11.292   6.345   3.302 -1.0231  3.6450 -0.0118
  546MOL0     H72068  11.456   6.435   3.492  2.6242  1.3118 -1.6225
  546MOL0     H72069  11.438   6.253   3.499  3.3100 -0.6281  0.1702
  546MOL0     H72070  11.832   6.335   3.361  0.3840  1.5875  2.2388
  546MOL0     H72071  11.201   6.567   2.921 -2.0200  2.2336  1.9879
  546MOL0     H72072  11.082   6.712   2.768  0.5520 -2.2914 -1.8385
  547MOL0     O72073   0.647   2.927   3.560 -0.1729 -0.3090 -0.3433
  547MOL0     C72074   0.644   3.038   3.612 -0.6071  0.4432 -0.2417
  547MOL0     O72075   0.583   3.070   3.742  0.4542 -0.3685 -0.1017
  547MOL0     C72076   0.532   2.962   3.813  0.7409 -0.8700  0.2568
  547MOL0     C72077   0.442   2.877   3.758  0.0856 -0.1205 -0.5023
  547MOL0     C72078   0.404   2.763   3.831 -0.0636 -1.0146 -0.5721
  547MOL0     C72079   0.455   2.738   3.956  1.0020 -0.4238 -0.0726
  547MOL0     O72080   0.409   2.622   4.021 -0.4876 -0.5452 -0.3552
  547MOL0     C72081   0.410   2.627   4.166  0.0672  0.6441  0.1962
  547MOL0     C72082   0.489   2.506   4.223 -0.1048 -0.2223 -0.2119
  547MOL0     C72083   0.448   2.360   4.173 -0.5227  0.8196 -0.0101
  547MOL0     C72084   0.583   2.271   4.161  0.7107 -0.0623 -0.3252
  547MOL0     C72085   0.555   2.137   4.242 -0.4759 -0.3014  0.2137
  547MOL0     C72086   0.675   2.049   4.261 -0.6386 -0.2964  0.1406
  547MOL0     C72087   0.767   2.026   4.142 -0.5430  0.8546  0.3270
  547MOL0     C72088   0.721   1.915   4.036  0.2115  0.9434 -0.3888
  547MOL0     N72089   0.623   1.976   3.944  0.2947 -0.0535  0.2857
  547MOL0     C72090   0.673   2.047   3.841 -0.6721  1.3952  1.1081
  547MOL0     C72091   0.578   2.043   3.743 -0.4832 -0.2447 -0.1741
  547MOL0     C72092   0.594   2.102   3.600  0.0535  0.2062  0.1956
  547MOL0     C72093   0.663   2.006   3.502  0.3515 -0.4541  0.0747
  547MOL0     C72094   0.681   2.077   3.368 -0.2312 -0.1484 -0.1804
  547MOL0     C72095   0.780   2.184   3.382 -0.0990 -0.3518  0.3616
  547MOL0     O72096   0.906   2.133   3.429 -0.2701 -0.7886  0.4063
  547MOL0     C72097   1.003   2.220   3.485 -0.1329  0.0678  0.1635
  547MOL0     C72098   1.099   2.168   3.580  0.4613  0.4851  0.3314
  547MOL0     C72099   1.188   2.256   3.653 -0.0756 -0.1207 -0.7350
  547MOL0     C72100   1.182   2.397   3.620  0.0699  0.7507 -0.7453
  547MOL0     C72101   1.276   2.490   3.687 -0.3363  0.0902  0.1495
  547MOL0     O72102   1.288   2.613   3.621 -0.2142  0.0262  0.5357
  547MOL0     C72103   1.330   2.730   3.688 -0.4742  0.9703  0.7257
  547MOL0     C72104   1.447   2.786   3.653  0.1782  0.3060  0.2836
  547MOL0     C72105   1.503   2.893   3.726 -0.2512 -0.7754 -0.5811
  547MOL0     C72106   1.434   2.945   3.842  0.3685 -0.4426  0.0790
  547MOL0     O72107   1.469   3.048   3.919 -0.2369 -0.7383 -0.6779
  547MOL0     C72108   1.550   3.017   4.034  0.2769  0.5768  0.2018
  547MOL0     C72109   1.537   3.127   4.136  0.2369  0.7301 -0.2776
  547MOL0     C72110   1.395   3.136   4.194  0.5520  0.2694 -0.2229
  547MOL0     C72111   1.384   3.257   4.283 -0.6713 -0.0852 -0.3587
  547MOL0     C72112   1.488   3.249   4.396  0.0440 -0.5526 -0.2816
  547MOL0     C72113   1.484   3.347   4.510  0.7993  0.4176 -0.1614
  547MOL0     C72114   1.474   3.504   4.485 -0.6559  0.2206 -0.9707
  547MOL0     C72115   1.497   3.591   4.618  0.0686  0.3855  0.3049
  547MOL0    Cl72116   1.380   3.523   4.733  0.3289  0.2584 -0.4917
  547MOL0     C72117   1.311   2.885   3.867 -0.1750 -0.6230  0.7838
  547MOL0     C72118   1.256   2.788   3.783  0.2970  1.2686 -0.6639
  547MOL0     O72119   1.349   2.452   3.780  0.8049  0.4285  0.7687
  547MOL0     C72120   1.089   2.448   3.523 -1.0343  0.1075  0.5039
  547MOL0     C72121   1.003   2.360   3.457  0.8220  0.1174 -0.1459
  547MOL0     N72122   0.471   1.967   3.793  0.8092  0.3638 -0.2818
  547MOL0     N72123   0.500   1.927   3.912  0.7013 -0.1496  0.0824
  547MOL0     C72124   0.560   2.815   3.999 -0.1160 -0.1458  0.5831
  547MOL0     C72125   0.590   2.925   3.935 -0.3913  0.0352  1.0089
  547MOL0     C72126   0.717   3.152   3.547  0.2011 -0.6021  0.0788
  547MOL0     C72127   0.783   3.131   3.424 -1.0866  0.0483 -0.8912
  547MOL0     C72128   0.829   3.233   3.352 -0.1931 -0.9171 -0.6823
  547MOL0     C72129   0.810   3.362   3.392 -0.1655  0.1145  0.3265
  547MOL0     O72130   0.879   3.460   3.330 -0.2201 -0.4373 -0.8090
  547MOL0     C72131   0.860   3.465   3.188 -0.2663 -0.0354  0.7075
  547MOL0     C72132   0.892   3.597   3.130 -0.6496  0.6452 -0.8036
  547MOL0     C72133   1.033   3.648   3.157 -0.4916 -0.6324  0.0414
  547MOL0     C72134   1.076   3.758   3.053 -0.1705 -0.4602 -0.5729
  547MOL0     C72135   0.983   3.872   3.067 -0.0993  0.5330 -0.5246
  547MOL0     C72136   0.904   3.960   3.071  0.0549  0.4347  0.3315
  547MOL0     C72137   0.722   3.388   3.497 -0.0286  0.0752 -0.4232
  547MOL0     C72138   0.679   3.286   3.582 -0.4854  0.2512 -0.8525
  547MOL0     H72139   0.401   2.886   3.658  0.6955 -0.1887 -0.7669
  547MOL0     H72140   0.328   2.699   3.788 -0.6670  0.6240 -2.0675
  547MOL0     H72141   0.308   2.624   4.207 -1.2588  2.5194 -2.6458
  547MOL0     H72142   0.469   2.707   4.211 -0.2942  2.7199 -2.7572
  547MOL0     H72143   0.476   2.499   4.331  2.0510 -2.8526 -0.0373
  547MOL0     H72144   0.596   2.524   4.208  0.2813 -1.5975  0.7256
  547MOL0     H72145   0.402   2.369   4.074  0.8869  1.3954 -0.6383
  547MOL0     H72146   0.365   2.317   4.230  1.1497 -1.3607  0.9575
  547MOL0     H72147   0.604   2.251   4.056  0.6628 -1.6593 -0.0553
  547MOL0     H72148   0.671   2.322   4.201 -0.8726  2.5676  0.1298
  547MOL0     H72149   0.469   2.086   4.197 -0.3335 -0.1025 -0.2943
  547MOL0     H72150   0.506   2.161   4.337 -4.0712 -1.3558 -1.2145
  547MOL0     H72151   0.635   1.950   4.286 -1.0034 -0.2615 -0.2807
  547MOL0     H72152   0.727   2.088   4.349  1.3204  0.8034 -1.4411
  547MOL0     H72153   0.791   2.118   4.088  3.6282  0.5356  1.3152
  547MOL0     H72154   0.857   1.996   4.196  0.4337  1.8484 -0.6948
  547MOL0     H72155   0.688   1.832   4.100  0.7089  2.4996  2.0105
  547MOL0     H72156   0.809   1.884   3.979 -1.8272 -5.4703 -0.8142
  547MOL0     H72157   0.771   2.094   3.839  0.6227 -0.8600  3.9183
  547MOL0     H72158   0.645   2.196   3.619 -0.6875  0.7477 -0.4101
  547MOL0     H72159   0.495   2.126   3.560  1.3370  0.4825 -3.1788
  547MOL0     H72160   0.600   1.918   3.491  2.4296 -2.0519  0.2961
  547MOL0     H72161   0.760   1.968   3.537  1.8405 -0.3581 -3.5570
  547MOL0     H72162   0.717   2.005   3.294 -0.3575  1.2338 -1.6643
  547MOL0     H72163   0.588   2.108   3.318 -0.1902 -2.0423 -1.5381
  547MOL0     H72164   0.742   2.262   3.448  0.7107 -1.5079  2.2795
  547MOL0     H72165   0.792   2.234   3.286 -3.9063  1.2635  0.5218
  547MOL0     H72166   1.114   2.062   3.598  1.1644  0.3564 -0.8604
  547MOL0     H72167   1.261   2.218   3.723  0.3166  0.5589 -0.7628
  547MOL0     H72168   1.492   2.738   3.567  1.2414  0.6066  0.6517
  547MOL0     H72169   1.599   2.940   3.708 -0.2545  0.1556  1.6090
  547MOL0     H72170   1.657   3.019   4.010 -0.1471 -0.4765 -2.0148
  547MOL0     H72171   1.534   2.914   4.067  3.7319 -0.9466 -2.1939
  547MOL0     H72172   1.570   3.216   4.083 -0.3365  1.1078 -0.0145
  547MOL0     H72173   1.603   3.093   4.217  0.0790  0.8173 -0.1126
  547MOL0     H72174   1.369   3.044   4.248 -1.3766  0.0941 -1.3310
  547MOL0     H72175   1.318   3.136   4.116 -1.0859 -0.5645  1.3118
  547MOL0     H72176   1.398   3.348   4.225  0.6221  2.0082  2.9601
  547MOL0     H72177   1.283   3.256   4.327 -1.1012  2.7603 -1.1188
  547MOL0     H72178   1.578   3.258   4.334 -1.2703 -3.2793 -2.7933
  547MOL0     H72179   1.492   3.152   4.446 -1.3603 -0.2839  0.3873
  547MOL0     H72180   1.572   3.325   4.571 -0.3061 -1.9926  0.6708
  547MOL0     H72181   1.402   3.321   4.577  0.7782  1.3969  0.2054
  547MOL0     H72182   1.544   3.538   4.407 -0.3875  0.0287 -0.8141
  547MOL0     H72183   1.369   3.520   4.457 -1.4675 -0.1016  1.6502
  547MOL0     H72184   1.479   3.697   4.599 -0.2083  0.5102  1.2119
  547MOL0     H72185   1.601   3.594   4.653 -0.0566  3.1146  0.6633
  547MOL0     H72186   1.261   2.927   3.953  0.2644  1.1490  0.2068
  547MOL0     H72187   1.154   2.751   3.778  1.0496 -0.8276 -2.0101
  547MOL0     H72188   1.072   2.553   3.504 -1.9100 -0.2970 -1.1639
  547MOL0     H72189   0.936   2.400   3.381  0.3948  1.7269  1.0151
  547MOL0     H72190   0.616   2.800   4.090  0.0988 -3.2345  0.0276
  547MOL0     H72191   0.664   2.994   3.975 -0.2904 -0.5151  1.8006
  547MOL0     H72192   0.798   3.026   3.403 -0.5057 -0.5490  2.0322
  547MOL0     H72193   0.884   3.224   3.259 -2.6974 -0.6067 -2.2760
  547MOL0     H72194   0.755   3.444   3.163 -0.2019 -3.1683  2.5490
  547MOL0     H72195   0.926   3.394   3.138  0.1836  1.3178 -0.7037
  547MOL0     H72196   0.866   3.581   3.025 -0.0798 -1.7991 -0.6363
  547MOL0     H72197   0.830   3.677   3.171 -0.5730 -0.3929  1.4841
  547MOL0     H72198   1.113   3.573   3.145  1.9159  1.7956 -0.0418
  547MOL0     H72199   1.036   3.684   3.260 -2.6403 -1.9923  0.6409
  547MOL0     H72200   1.181   3.783   3.066 -0.2264  0.1160 -1.1733
  547MOL0     H72201   1.063   3.721   2.951 -1.1912 -0.4206 -0.4747
  547MOL0     H72202   0.832   4.038   3.064  0.9150  1.4512  2.0586
  547MOL0     H72203   0.697   3.489   3.528 -1.5991 -0.3197 -0.2859
  547MOL0     H72204   0.606   3.313   3.658 -0.9899  0.8594 -1.5294
  548MOL0     O72205   3.199   6.799   1.997  0.2450  0.2842 -0.4099
  548MOL0     C72206   3.284   6.742   2.071  0.5349  0.4017 -0.5804
  548MOL0     O72207   3.387   6.803   2.139  0.0976  0.4423  0.5395
  548MOL0     C72208   3.425   6.936   2.110 -0.8804 -0.0043  0.7258
  548MOL0     C72209   3.406   7.004   1.994  0.3929 -0.4192  0.9188
  548MOL0     C72210   3.438   7.135   1.970 -0.7072 -0.6295  0.1327
  548MOL0     C72211   3.500   7.200   2.072  0.2217 -0.8174 -0.1080
  548MOL0     O72212   3.517   7.332   2.037  0.1122  0.2844  0.2849
  548MOL0     C72213   3.613   7.410   2.113  0.9755  0.4515  0.4257
  548MOL0     C72214   3.661   7.533   2.041 -0.0993 -0.4200 -0.0975
  548MOL0     C72215   3.769   7.605   2.124 -0.9743 -0.4586  0.3626
  548MOL0     C72216   3.793   7.754   2.093  0.6891  0.1806 -0.1582
  548MOL0     C72217   3.695   7.830   2.179  0.3562 -0.3217 -0.1363
  548MOL0     C72218   3.666   7.960   2.098 -0.0154  0.2476 -0.1700
  548MOL0     C72219   3.545   8.034   2.170 -0.6514  0.3459  0.6056
  548MOL0     C72220   3.504   8.166   2.107  0.2298 -0.2517 -0.2595
  548MOL0     N72221   3.393   8.214   2.186 -0.4093 -0.4596 -0.0248
  548MOL0     C72222   3.406   8.291   2.294  0.2884  0.0102 -0.4089
  548MOL0     C72223   3.279   8.276   2.354  0.1949  0.2790 -0.0459
  548MOL0     C72224   3.247   8.331   2.489  0.2724 -0.0962  0.9179
  548MOL0     C72225   3.137   8.258   2.558 -0.1526  0.5112 -0.2900
  548MOL0     C72226   3.152   8.277   2.707  0.7244  0.1468 -0.5273
  548MOL0     C72227   3.088   8.413   2.737  0.5244  1.2020  0.2857
  548MOL0     O72228   3.048   8.419   2.877  0.0624 -0.4845  0.6718
  548MOL0     C72229   2.928   8.370   2.921 -0.2865  0.8065 -0.2985
  548MOL0     C72230   2.823   8.317   2.848 -0.3615  0.3886 -1.1963
  548MOL0     C72231   2.698   8.291   2.906  0.1578 -0.9309 -0.0752
  548MOL0     C72232   2.678   8.321   3.041 -0.0328  0.4340 -0.6833
  548MOL0     C72233   2.545   8.321   3.114  0.1559 -0.8918  0.2101
  548MOL0     O72234   2.452   8.248   3.060  0.0944  0.3627  0.5942
  548MOL0     C72235   2.326   8.252   3.114 -0.2458  0.3067  0.0808
  548MOL0     C72236   2.258   8.371   3.136  0.8867 -0.5785 -0.0854
  548MOL0     C72237   2.136   8.380   3.210 -0.1196  0.4676  0.1090
  548MOL0     C72238   2.085   8.259   3.254  0.4200  0.1907 -0.6025
  548MOL0     O72239   1.978   8.248   3.338 -0.5836  0.1914  0.2057
  548MOL0     C72240   1.920   8.363   3.408 -0.4913 -0.3803  0.7223
  548MOL0     C72241   1.815   8.435   3.321  0.4708  0.5334 -0.1133
  548MOL0     C72242   1.778   8.579   3.361 -0.7096  0.0064 -0.0377
  548MOL0     C72243   1.885   8.679   3.332  0.0674 -0.5124  0.1531
  548MOL0     C72244   1.867   8.832   3.379 -0.0829  0.2221  0.2998
  548MOL0     C72245   1.749   8.901   3.305 -0.3991 -0.9412 -0.5750
  548MOL0     C72246   1.743   9.057   3.329 -0.1442 -0.3410 -0.2247
  548MOL0     C72247   1.739   9.098   3.486 -0.2440  0.3153  0.8105
  548MOL0    Cl72248   1.633   8.987   3.577  0.0303 -0.1417 -0.0080
  548MOL0     C72249   2.141   8.137   3.223 -0.4956  0.1925  0.3181
  548MOL0     C72250   2.263   8.136   3.151 -0.0108  0.1477 -0.8493
  548MOL0     O72251   2.532   8.383   3.221  0.7935 -0.5148  0.4961
  548MOL0     C72252   2.785   8.371   3.112 -0.9503  0.8086 -0.7455
  548MOL0     C72253   2.912   8.390   3.053 -0.4637 -0.4513  0.5828
  548MOL0     N72254   3.203   8.196   2.273 -0.0619 -0.1634  0.1874
  548MOL0     N72255   3.274   8.158   2.172 -0.3861 -0.5299 -0.5306
  548MOL0     C72256   3.534   7.138   2.189  0.2145  0.8082  0.4424
  548MOL0     C72257   3.488   7.009   2.207 -0.1434 -0.6649  0.1874
  548MOL0     C72258   3.258   6.595   2.091 -0.5851 -0.4242 -0.2992
  548MOL0     C72259   3.130   6.540   2.077  0.9954 -0.5038 -0.2641
  548MOL0     C72260   3.110   6.416   2.132 -0.4814 -0.6872 -0.3215
  548MOL0     C72261   3.211   6.341   2.205 -0.1538  0.6314  0.3138
  548MOL0     O72262   3.177   6.217   2.264 -1.0759  0.2097  0.1417
  548MOL0     C72263   3.287   6.120   2.280 -0.0863  0.4627 -0.7998
  548MOL0     C72264   3.242   5.974   2.282 -0.0816  0.8174  0.3820
  548MOL0     C72265   3.342   5.881   2.209  0.2343 -0.6115  0.6410
  548MOL0     C72266   3.473   5.860   2.284 -0.7220 -0.5298  0.1441
  548MOL0     C72267   3.540   5.742   2.229  0.6456  0.3767 -1.1160
  548MOL0     C72268   3.601   5.649   2.198  0.2421  0.1210 -0.0506
  548MOL0     C72269   3.341   6.393   2.208  0.4743  0.8254 -0.2942
  548MOL0     C72270   3.363   6.519   2.149 -0.3640  0.1611  0.4171
  548MOL0     H72271   3.364   6.946   1.912  0.2726 -1.8629  1.9562
  548MOL0     H72272   3.396   7.192   1.888  0.4253 -2.7936 -2.0933
  548MOL0     H72273   3.693   7.338   2.131 -1.1914 -2.0694  0.6870
  548MOL0     H72274   3.574   7.431   2.213  1.4074  0.4910  0.5870
  548MOL0     H72275   3.576   7.597   2.015  1.1669  1.0699 -0.7462
  548MOL0     H72276   3.706   7.501   1.946  0.4008 -1.4022  0.4591
  548MOL0     H72277   3.858   7.551   2.092  1.3576  2.7824  0.8828
  548MOL0     H72278   3.749   7.599   2.231  1.1133 -1.0879  0.7589
  548MOL0     H72279   3.896   7.774   2.124  1.0801 -1.2666 -0.4543
  548MOL0     H72280   3.809   7.772   1.986  4.3408 -1.0646  0.0393
  548MOL0     H72281   3.739   7.853   2.276 -2.0748  1.2907  0.6863
  548MOL0     H72282   3.602   7.773   2.182  0.7177 -1.0330 -1.5087
  548MOL0     H72283   3.635   7.945   1.995  3.4048 -0.0123 -1.2974
  548MOL0     H72284   3.756   8.022   2.096  0.4457 -0.3890  0.3611
  548MOL0     H72285   3.453   7.976   2.174 -1.4571  1.2624 -2.2960
  548MOL0     H72286   3.584   8.043   2.271 -0.0833  1.8317  0.2751
  548MOL0     H72287   3.476   8.148   2.003  0.5816 -0.1924 -0.3663
  548MOL0     H72288   3.584   8.240   2.109 -0.5047  0.6201  2.7750
  548MOL0     H72289   3.496   8.341   2.330  1.0034 -2.1518  1.0438
  548MOL0     H72290   3.218   8.436   2.500  1.9660  0.3349  1.7519
  548MOL0     H72291   3.341   8.331   2.547  0.1483 -1.9757  1.1683
  548MOL0     H72292   3.156   8.152   2.542 -0.3645  0.4506 -0.1327
  548MOL0     H72293   3.033   8.271   2.526 -1.2503 -2.5317  1.6181
  548MOL0     H72294   3.102   8.196   2.761  2.3569 -0.5970 -0.0513
  548MOL0     H72295   3.253   8.260   2.746  0.8175 -1.2772 -1.3133
  548MOL0     H72296   3.004   8.440   2.673 -0.0788 -1.0548  0.0135
  548MOL0     H72297   3.153   8.499   2.722  2.0971 -0.0173 -0.1863
  548MOL0     H72298   2.849   8.319   2.743  2.5894  3.0994 -0.5545
  548MOL0     H72299   2.610   8.259   2.852 -1.0003  0.4159  0.9419
  548MOL0     H72300   2.300   8.458   3.085 -5.0508  1.5599 -2.2727
  548MOL0     H72301   2.101   8.481   3.229 -2.3929 -0.0604 -1.0012
  548MOL0     H72302   1.996   8.429   3.451 -0.7329 -1.7729  3.5090
  548MOL0     H72303   1.872   8.322   3.498 -1.1888 -1.4795 -0.1341
  548MOL0     H72304   1.724   8.374   3.324  1.4439 -1.1274 -1.9977
  548MOL0     H72305   1.816   8.447   3.213 -2.6210  1.7481 -0.1289
  548MOL0     H72306   1.756   8.581   3.468  2.4459  2.6662  0.7296
  548MOL0     H72307   1.684   8.616   3.318 -0.5455 -0.4530 -0.8120
  548MOL0     H72308   1.987   8.654   3.364  1.2327  2.2592 -1.0401
  548MOL0     H72309   1.888   8.672   3.223 -1.9825 -0.9768  0.0949
  548MOL0     H72310   1.959   8.889   3.365 -0.3169  0.9112  1.4280
  548MOL0     H72311   1.834   8.842   3.483 -2.6254  2.3132 -0.6138
  548MOL0     H72312   1.652   8.857   3.332 -0.5081  0.1422  0.9355
  548MOL0     H72313   1.766   8.883   3.198 -0.9534  2.3445 -1.3354
  548MOL0     H72314   1.834   9.082   3.272 -0.0966 -2.0489 -0.9542
  548MOL0     H72315   1.651   9.100   3.289 -2.6061 -3.0891  2.1385
  548MOL0     H72316   1.717   9.204   3.502 -1.2578  0.9563 -3.4837
  548MOL0     H72317   1.838   9.074   3.526 -0.5541 -0.4019  1.1668
  548MOL0     H72318   2.088   8.046   3.252  0.1046 -0.2156  0.1449
  548MOL0     H72319   2.302   8.039   3.123  2.1261 -0.3838  3.1857
  548MOL0     H72320   2.771   8.398   3.217 -0.0513 -2.1585  0.2172
  548MOL0     H72321   2.998   8.431   3.105 -0.6075  0.0967  0.3943
  548MOL0     H72322   3.560   7.188   2.281  2.0463 -2.0257  1.5843
  548MOL0     H72323   3.484   6.961   2.305 -2.9006  0.8235  0.9161
  548MOL0     H72324   3.048   6.597   2.034  1.9438 -0.5136 -2.2018
  548MOL0     H72325   3.011   6.374   2.120 -0.9144 -0.2789  1.4614
  548MOL0     H72326   3.342   6.143   2.371 -0.6110 -4.7438  1.1583
  548MOL0     H72327   3.359   6.142   2.201  0.3448  1.3018 -0.1848
  548MOL0     H72328   3.213   5.948   2.384 -0.0143  1.0947  0.4713
  548MOL0     H72329   3.150   5.975   2.223  0.1747  0.0200 -0.0537
  548MOL0     H72330   3.361   5.917   2.108  1.0823 -0.3435  0.8831
  548MOL0     H72331   3.292   5.784   2.208 -0.0912 -0.4531 -1.1036
  548MOL0     H72332   3.534   5.951   2.284 -1.0396 -0.2888  1.5830
  548MOL0     H72333   3.457   5.837   2.390 -1.1258 -0.5499  0.0805
  548MOL0     H72334   3.654   5.558   2.177  0.1460 -0.6187  2.5420
  548MOL0     H72335   3.421   6.342   2.261 -2.0999  0.1854  3.3609
  548MOL0     H72336   3.463   6.560   2.139 -0.4522 -0.0457 -2.1559
  549MOL0     O72337   5.445   6.992   2.243 -0.1727  0.5748 -0.3225
  549MOL0     C72338   5.337   7.048   2.256  0.4468  0.2505 -0.4938
  549MOL0     O72339   5.316   7.166   2.309  0.3590  0.1499  0.9966
  549MOL0     C72340   5.426   7.245   2.318  0.0832  0.5108 -0.1345
  549MOL0     C72341   5.462   7.345   2.218 -0.0085  0.5870 -0.0634
  549MOL0     C72342   5.582   7.409   2.213 -0.0731  0.0496  0.1825
  549MOL0     C72343   5.672   7.393   2.310  0.5432 -0.0549 -0.7883
  549MOL0     O72344   5.797   7.447   2.314  0.3707 -0.0979  0.1187
  549MOL0     C72345   5.808   7.589   2.279  0.2700 -0.6170 -0.2014
  549MOL0     C72346   5.952   7.626   2.301  0.1600 -0.4872 -0.7787
  549MOL0     C72347   6.016   7.582   2.439  0.1923 -0.3266 -0.1521
  549MOL0     C72348   5.971   7.684   2.542  0.2308  0.5617 -0.5975
  549MOL0     C72349   6.054   7.818   2.546 -0.4795  0.5862 -0.1427
  549MOL0     C72350   6.179   7.801   2.627  0.5565  0.8914  0.8266
  549MOL0     C72351   6.266   7.929   2.628 -0.2081 -1.2513 -0.0015
  549MOL0     C72352   6.327   7.964   2.765  0.4409 -0.2574  0.5726
  549MOL0     N72353   6.446   7.886   2.805 -0.5714  0.3684  0.2131
  549MOL0     C72354   6.558   7.933   2.863 -1.0806  0.4087 -0.4049
  549MOL0     C72355   6.649   7.831   2.867  0.1022  0.7007  0.3514
  549MOL0     C72356   6.788   7.839   2.918  0.2498  0.3792  0.3206
  549MOL0     C72357   6.818   7.811   3.065 -0.2255 -0.3124 -0.1686
  549MOL0     C72358   6.730   7.693   3.116 -0.8094  0.4048 -0.0370
  549MOL0     C72359   6.790   7.645   3.258  0.3900 -0.7395  0.6229
  549MOL0     O72360   6.718   7.526   3.296 -0.1561  0.1752  0.4396
  549MOL0     C72361   6.754   7.395   3.254  0.1341 -0.3492 -0.6713
  549MOL0     C72362   6.884   7.348   3.257  0.3253  1.2548  1.0977
  549MOL0     C72363   6.914   7.225   3.204  0.0602 -0.0074 -0.0127
  549MOL0     C72364   6.814   7.140   3.174  0.9622  0.7856 -0.6893
  549MOL0     C72365   6.847   6.995   3.133  0.7279 -0.2507 -0.9930
  549MOL0     O72366   6.745   6.907   3.157 -1.4124  0.6087 -0.1328
  549MOL0     C72367   6.784   6.778   3.193 -0.9930 -0.3787  0.6564
  549MOL0     C72368   6.911   6.730   3.228  0.5811  0.0286 -0.4164
  549MOL0     C72369   6.944   6.595   3.246  0.3591  0.3936 -0.7556
  549MOL0     C72370   6.847   6.497   3.238 -1.3213  0.1630 -0.1287
  549MOL0     O72371   6.862   6.370   3.290  0.6122 -0.1509 -0.0528
  549MOL0     C72372   6.989   6.308   3.290  0.0183 -0.3379  0.2585
  549MOL0     C72373   6.978   6.160   3.323 -0.2420 -0.2378 -0.9456
  549MOL0     C72374   7.020   6.119   3.473 -0.3027  0.2115  1.5452
  549MOL0     C72375   7.043   5.967   3.482  0.1604 -0.9068 -0.1552
  549MOL0     C72376   6.906   5.898   3.494  0.7119 -0.2597  0.3651
  549MOL0     C72377   6.930   5.749   3.481  1.6280  0.8042 -0.1384
  549MOL0     C72378   6.802   5.668   3.496 -0.1855 -0.1005 -0.7915
  549MOL0     C72379   6.815   5.573   3.612 -0.4576 -0.6783 -0.1636
  549MOL0    Cl72380   6.676   5.477   3.623  0.2553 -0.5433 -0.3281
  549MOL0     C72381   6.718   6.545   3.214  0.3819  1.2611 -0.9833
  549MOL0     C72382   6.691   6.680   3.201  0.2655  0.5150  0.0644
  549MOL0     O72383   6.956   6.978   3.086  0.0522 -0.0329 -0.3130
  549MOL0     C72384   6.685   7.182   3.181 -0.7129  0.7366  0.1256
  549MOL0     C72385   6.654   7.318   3.215  0.5568 -0.2875 -0.6127
  549MOL0     N72386   6.587   7.715   2.831 -0.3499  0.3299 -0.3199
  549MOL0     N72387   6.464   7.750   2.797  0.0036  0.1131 -0.8938
  549MOL0     C72388   5.638   7.307   2.413 -0.1106 -0.5993 -0.1628
  549MOL0     C72389   5.505   7.247   2.423  0.1734  0.6880 -0.1596
  549MOL0     C72390   5.224   6.968   2.224 -0.4619 -0.3435 -0.7846
  549MOL0     C72391   5.231   6.831   2.218  0.2141  0.2768 -0.2714
  549MOL0     C72392   5.111   6.748   2.204  0.9409 -0.6831 -0.3040
  549MOL0     C72393   4.981   6.808   2.207 -0.6646  1.0573  0.8955
  549MOL0     O72394   4.875   6.719   2.205 -0.0443 -0.4065 -0.0010
  549MOL0     C72395   4.754   6.778   2.246 -0.8764 -0.3174  0.0833
  549MOL0     C72396   4.641   6.683   2.248 -0.5354 -1.0772  0.6973
  549MOL0     C72397   4.609   6.645   2.103 -0.3608 -0.3106  0.0244
  549MOL0     C72398   4.634   6.502   2.050  0.6295 -0.5906  0.1944
  549MOL0     C72399   4.535   6.418   2.113  0.6943  0.3322  0.7005
  549MOL0     C72400   4.464   6.336   2.170 -0.7405  0.2585 -0.6485
  549MOL0     C72401   4.987   6.946   2.208  0.5589  0.5118 -0.3330
  549MOL0     C72402   5.100   7.027   2.217  0.4866  0.0285  0.6848
  549MOL0     H72403   5.392   7.347   2.135 -2.0524 -1.2846  1.5023
  549MOL0     H72404   5.603   7.461   2.120 -1.4422  3.7392  1.7171
  549MOL0     H72405   5.739   7.647   2.340  2.1980  1.8701 -0.1944
  549MOL0     H72406   5.769   7.606   2.178 -2.2994 -1.3213  0.5932
  549MOL0     H72407   5.965   7.734   2.286  3.4185 -0.8125 -1.0178
  549MOL0     H72408   6.017   7.584   2.223  2.3060  2.3684 -0.6758
  549MOL0     H72409   6.124   7.586   2.425  0.2162  2.1436  0.2543
  549MOL0     H72410   5.997   7.478   2.467  5.0251 -0.9971  1.6148
  549MOL0     H72411   5.867   7.710   2.519  0.5527 -0.6318 -3.9257
  549MOL0     H72412   5.983   7.635   2.639 -2.9561  0.0888 -0.3498
  549MOL0     H72413   5.999   7.894   2.603 -0.8467 -1.1552  1.9514
  549MOL0     H72414   6.086   7.842   2.444 -1.7342  2.0366 -0.2363
  549MOL0     H72415   6.243   7.724   2.584 -1.8581 -0.3019 -0.8618
  549MOL0     H72416   6.151   7.757   2.724  0.0596 -4.1506 -1.2810
  549MOL0     H72417   6.353   7.922   2.561 -0.4778  3.4776 -1.2430
  549MOL0     H72418   6.205   8.015   2.600  0.3151 -1.4147 -1.8202
  549MOL0     H72419   6.248   7.937   2.835 -0.8279  1.3290 -0.1649
  549MOL0     H72420   6.351   8.071   2.768 -1.0495  0.0878  0.7742
  549MOL0     H72421   6.598   8.034   2.877 -0.4087  0.1977 -0.7429
  549MOL0     H72422   6.829   7.934   2.884  0.2765  0.3583  0.2945
  549MOL0     H72423   6.855   7.767   2.871  1.5625  1.6233  0.2363
  549MOL0     H72424   6.801   7.906   3.117  1.4167 -0.1979  0.2216
  549MOL0     H72425   6.926   7.799   3.078  0.2514  0.4507 -2.7412
  549MOL0     H72426   6.623   7.717   3.122 -1.8122 -3.6035  2.5494
  549MOL0     H72427   6.730   7.609   3.046  0.5993 -0.9123  1.4577
  549MOL0     H72428   6.764   7.721   3.332 -1.1510 -1.3899  0.7953
  549MOL0     H72429   6.895   7.618   3.266 -0.2059 -2.7109  3.4664
  549MOL0     H72430   6.961   7.410   3.302  0.2481  1.6119  0.7402
  549MOL0     H72431   7.019   7.198   3.197  0.0939  0.4299 -3.8768
  549MOL0     H72432   6.994   6.796   3.254  1.1748 -1.3874  1.5418
  549MOL0     H72433   7.044   6.565   3.275 -0.4965 -1.9216  0.0893
  549MOL0     H72434   7.055   6.353   3.365 -4.5265  0.1629  4.4763
  549MOL0     H72435   7.028   6.327   3.189 -4.7572  4.4657 -1.1383
  549MOL0     H72436   7.043   6.105   3.255 -0.4391 -1.1610 -0.4125
  549MOL0     H72437   6.878   6.116   3.316 -1.9574  2.7762  1.5986
  549MOL0     H72438   6.964   6.153   3.560 -0.1230  1.9519  1.0241
  549MOL0     H72439   7.122   6.159   3.480 -0.5037  1.9815 -2.5941
  549MOL0     H72440   7.087   5.923   3.392  0.3507  1.1898 -1.1423
  549MOL0     H72441   7.098   5.946   3.574  0.7438 -1.9573 -0.7285
  549MOL0     H72442   6.852   5.932   3.404  0.8573 -1.1089 -0.0584
  549MOL0     H72443   6.852   5.931   3.583 -0.2038 -0.7189 -0.0047
  549MOL0     H72444   7.000   5.702   3.550  1.0711 -1.6112 -1.1331
  549MOL0     H72445   6.959   5.722   3.379 -0.3747 -0.4298 -0.4480
  549MOL0     H72446   6.727   5.746   3.506 -0.7652 -0.8496  1.1180
  549MOL0     H72447   6.789   5.608   3.405  0.3134 -0.3231 -0.7173
  549MOL0     H72448   6.811   5.638   3.700  2.7204 -2.2929  1.3386
  549MOL0     H72449   6.911   5.522   3.625 -0.7707 -0.7068  3.0710
  549MOL0     H72450   6.635   6.476   3.223  0.7491  1.0016  0.9536
  549MOL0     H72451   6.587   6.708   3.189  0.1053  0.7955  1.8082
  549MOL0     H72452   6.607   7.108   3.160  1.2967 -1.2406 -0.8186
  549MOL0     H72453   6.551   7.347   3.195  0.8614  1.5627  0.3355
  549MOL0     H72454   5.705   7.268   2.489 -0.3263 -4.5700 -1.7539
  549MOL0     H72455   5.482   7.183   2.507 -1.3138  0.5423 -0.6342
  549MOL0     H72456   5.329   6.785   2.227 -0.6080 -1.1979  2.0624
  549MOL0     H72457   5.110   6.639   2.208 -1.8203 -0.7282 -0.3502
  549MOL0     H72458   4.725   6.863   2.183  1.1869  0.2653 -0.1594
  549MOL0     H72459   4.778   6.812   2.347  1.5219 -3.2168  0.6239
  549MOL0     H72460   4.684   6.596   2.298  3.2777 -0.3734 -1.0278
  549MOL0     H72461   4.553   6.718   2.303 -0.7709 -1.3977  0.5229
  549MOL0     H72462   4.669   6.707   2.037  1.0140 -4.2267 -2.8031
  549MOL0     H72463   4.504   6.668   2.084 -0.2138  3.3473  2.6968
  549MOL0     H72464   4.626   6.504   1.941 -5.3371 -2.7012  0.2454
  549MOL0     H72465   4.737   6.466   2.065  1.2694  1.7730  2.0782
  549MOL0     H72466   4.406   6.285   2.244  1.4037 -1.0735  0.2098
  549MOL0     H72467   4.896   7.006   2.209 -0.2716 -0.6382 -2.2457
  549MOL0     H72468   5.087   7.135   2.214 -0.1122 -0.0499  0.3961
  550MOL0     O72469  10.530   4.177   0.401  0.2612 -0.0551 -0.4078
  550MOL0     C72470  10.635   4.239   0.392  1.0280 -0.8600 -0.2285
  550MOL0     O72471  10.662   4.341   0.303  0.4701  0.6091  0.6781
  550MOL0     C72472  10.570   4.364   0.196  0.1923 -0.1771  0.2295
  550MOL0     C72473  10.630   4.373   0.070 -0.0462 -0.7099  0.7884
  550MOL0     C72474  10.550   4.389  -0.044 -0.5054  0.8750  0.5002
  550MOL0     C72475  10.411   4.385  -0.037 -0.4348  0.1589 -0.6901
  550MOL0     O72476  10.348   4.410  -0.148 -0.0581 -0.3562  0.7168
  550MOL0     C72477  10.235   4.324  -0.175 -0.2372 -1.1413 -0.8047
  550MOL0     C72478  10.117   4.406  -0.209 -0.1981  0.3219 -0.6644
  550MOL0     C72479   9.997   4.325  -0.242 -0.5161 -0.0928 -0.1040
  550MOL0     C72480   9.880   4.409  -0.286  0.3679 -0.0549 -0.5327
  550MOL0     C72481   9.773   4.318  -0.349 -0.3846  0.3466  0.2752
  550MOL0     C72482   9.646   4.384  -0.404  0.2835  1.0443 -0.1944
  550MOL0     C72483   9.537   4.277  -0.434 -0.2305 -0.9945  0.3493
  550MOL0     C72484   9.580   4.189  -0.547 -0.3450 -0.9533  0.0673
  550MOL0     N72485   9.460   4.109  -0.592 -0.0468 -0.5203  0.4248
  550MOL0     C72486   9.483   3.976  -0.626 -0.1069  0.6184  0.2029
  550MOL0     C72487   9.368   3.937  -0.669  0.5126  0.8260  0.8513
  550MOL0     C72488   9.359   3.792  -0.716 -0.0599 -0.9001  0.0895
  550MOL0     C72489   9.225   3.735  -0.679 -1.0815  1.4629 -0.1065
  550MOL0     C72490   9.218   3.592  -0.743  0.0793  0.0631 -0.0912
  550MOL0     C72491   9.093   3.513  -0.719  0.3855 -0.6934 -0.2596
  550MOL0     O72492   9.119   3.375  -0.747  0.4201  0.1156  0.1491
  550MOL0     C72493   9.019   3.299  -0.790  0.4624  0.5194  0.4391
  550MOL0     C72494   9.052   3.204  -0.882  0.6000  0.4566 -1.1685
  550MOL0     C72495   8.964   3.110  -0.946  0.4546  0.1448  0.7044
  550MOL0     C72496   8.820   3.117  -0.915  0.6523  0.1376 -0.4793
  550MOL0     C72497   8.712   3.021  -0.946  0.1234 -0.4981 -0.7018
  550MOL0     O72498   8.598   3.030  -0.873  0.5690  0.6150  0.7966
  550MOL0     C72499   8.501   2.943  -0.917  0.5945  0.4958 -0.2042
  550MOL0     C72500   8.444   2.924  -1.048 -0.0663  0.1591 -0.4833
  550MOL0     C72501   8.344   2.830  -1.071 -1.3642  0.2996 -0.5918
  550MOL0     C72502   8.293   2.747  -0.970 -0.3371 -0.0753  0.6319
  550MOL0     O72503   8.194   2.663  -1.009 -0.0815  0.0282  0.1166
  550MOL0     C72504   8.230   2.546  -1.084  0.3245 -0.1503 -0.8775
  550MOL0     C72505   8.121   2.540  -1.185  0.3690  0.1821  0.0131
  550MOL0     C72506   8.102   2.410  -1.271  0.3314 -0.3346 -0.2279
  550MOL0     C72507   7.982   2.445  -1.361 -0.5879  0.9025  0.0538
  550MOL0     C72508   8.003   2.352  -1.484  0.0939 -0.0895  0.2258
  550MOL0     C72509   7.991   2.206  -1.443  0.0307 -0.1017  0.0098
  550MOL0     C72510   7.951   2.115  -1.570  0.7790  0.4281  0.3954
  550MOL0     C72511   8.061   2.024  -1.623 -0.0661  0.1583 -1.0959
  550MOL0    Cl72512   8.209   2.127  -1.665 -0.1853  0.3064  0.0962
  550MOL0     C72513   8.344   2.774  -0.833 -0.5090 -0.6386  0.5569
  550MOL0     C72514   8.443   2.869  -0.806  0.8766  0.0534 -0.5702
  550MOL0     O72515   8.732   2.939  -1.038  0.2239 -0.4361 -0.0635
  550MOL0     C72516   8.792   3.226  -0.821 -0.3026  0.0633  0.2945
  550MOL0     C72517   8.886   3.305  -0.760  0.2014  0.1960  0.0380
  550MOL0     N72518   9.274   4.043  -0.677  0.8187  0.2978 -0.3767
  550MOL0     N72519   9.333   4.147  -0.628  0.5525  0.3089 -0.0538
  550MOL0     C72520  10.354   4.398   0.087  0.3592  0.2676  0.3571
  550MOL0     C72521  10.426   4.371   0.200 -0.7171  0.3360  0.2026
  550MOL0     C72522  10.751   4.196   0.475  0.8337  0.1931  1.0599
  550MOL0     C72523  10.861   4.290   0.497  0.0929  0.2651  0.8983
  550MOL0     C72524  10.969   4.243   0.578 -0.1706 -0.2313 -0.4629
  550MOL0     C72525  10.964   4.117   0.643  0.2642  0.2621 -1.8523
  550MOL0     O72526  11.047   4.068   0.738  0.3929 -0.1499 -0.2008
  550MOL0     C72527  11.126   4.167   0.808 -0.5970 -0.6918 -0.0130
  550MOL0     C72528  11.181   4.104   0.936 -0.2087  0.8790  0.3476
  550MOL0     C72529  11.268   4.204   1.013  0.3299 -0.6323 -0.8064
  550MOL0     C72530  11.417   4.235   0.981 -0.6769 -0.0915 -0.2377
  550MOL0     C72531  11.419   4.336   0.878 -0.1749  0.3296  0.1111
  550MOL0     C72532  11.430   4.415   0.791 -0.1081  0.7378  0.0740
  550MOL0     C72533  10.846   4.042   0.635 -0.0500 -0.1356  0.4101
  550MOL0     C72534  10.748   4.083   0.548  1.1617  0.4008  0.3208
  550MOL0     H72535  10.736   4.354   0.057 -0.3350 -1.3896 -0.9868
  550MOL0     H72536  10.601   4.390  -0.140  0.1145 -1.8493  0.7157
  550MOL0     H72537  10.214   4.261  -0.088  1.3998  0.3700  0.7789
  550MOL0     H72538  10.270   4.258  -0.255 -2.2734  0.3097 -3.0159
  550MOL0     H72539  10.150   4.460  -0.298  1.4581  3.5519  1.6950
  550MOL0     H72540  10.081   4.464  -0.123 -1.1083 -0.6632 -0.3497
  550MOL0     H72541   9.956   4.260  -0.163  0.6157 -4.0988 -2.4995
  550MOL0     H72542  10.023   4.259  -0.325 -3.5932  1.8204 -2.7956
  550MOL0     H72543   9.828   4.461  -0.205  1.0774  0.6855 -0.5510
  550MOL0     H72544   9.924   4.483  -0.352 -1.0175  0.1681 -1.2324
  550MOL0     H72545   9.747   4.243  -0.273 -1.2351 -0.2850 -0.6295
  550MOL0     H72546   9.816   4.258  -0.429 -0.7036 -0.2438  0.5405
  550MOL0     H72547   9.681   4.429  -0.497  2.3801 -2.3631 -1.2237
  550MOL0     H72548   9.623   4.469  -0.339  1.9810  1.7159 -0.4233
  550MOL0     H72549   9.513   4.224  -0.341 -2.0826 -0.4448  0.2280
  550MOL0     H72550   9.450   4.336  -0.463  0.5386  0.6824  1.3231
  550MOL0     H72551   9.671   4.136  -0.517  0.4407  0.6754  0.7235
  550MOL0     H72552   9.619   4.260  -0.620 -1.2178 -0.1160  0.3980
  550MOL0     H72553   9.570   3.915  -0.602 -2.5563 -3.2727  0.1594
  550MOL0     H72554   9.429   3.725  -0.665 -0.4255 -0.6329  0.9455
  550MOL0     H72555   9.396   3.779  -0.819  0.7577 -1.3012  0.4197
  550MOL0     H72556   9.146   3.804  -0.708 -0.0492  1.8242 -2.1863
  550MOL0     H72557   9.229   3.710  -0.572 -0.7082 -1.8857 -0.7731
  550MOL0     H72558   9.230   3.616  -0.849 -0.8016  1.4095  0.0883
  550MOL0     H72559   9.306   3.534  -0.711 -1.1731  0.2084  4.2768
  550MOL0     H72560   9.014   3.555  -0.782 -1.3667 -0.1464  2.1701
  550MOL0     H72561   9.054   3.521  -0.617  1.4995 -2.0024  0.3120
  550MOL0     H72562   9.159   3.189  -0.890  1.0898  2.5927  0.3693
  550MOL0     H72563   8.996   3.022  -1.002 -0.1032 -0.6190  1.5610
  550MOL0     H72564   8.480   2.988  -1.128 -1.9368  1.4916 -0.3152
  550MOL0     H72565   8.294   2.825  -1.167 -2.8669  0.8778  0.1283
  550MOL0     H72566   8.244   2.461  -1.017  3.5560  1.8610  1.3130
  550MOL0     H72567   8.326   2.569  -1.130 -0.0864  0.6993 -1.3529
  550MOL0     H72568   8.153   2.615  -1.258  1.3681 -0.0403  0.2057
  550MOL0     H72569   8.028   2.554  -1.129 -0.5726  2.3616 -1.9269
  550MOL0     H72570   8.073   2.317  -1.221 -1.2960 -0.7678 -1.8792
  550MOL0     H72571   8.189   2.385  -1.332 -0.3633  0.4907 -1.6002
  550MOL0     H72572   7.889   2.427  -1.306 -0.6041 -0.6442 -0.4293
  550MOL0     H72573   7.991   2.548  -1.396 -0.3186  0.3115 -1.7481
  550MOL0     H72574   8.092   2.377  -1.544 -1.0961  0.3790 -1.4132
  550MOL0     H72575   7.910   2.369  -1.538  1.2843  1.9920 -1.3320
  550MOL0     H72576   7.936   2.187  -1.350  1.2215 -3.2857  0.2046
  550MOL0     H72577   8.092   2.171  -1.421 -0.7108 -0.6873  2.9370
  550MOL0     H72578   7.866   2.048  -1.553  0.3968  1.0352  0.8866
  550MOL0     H72579   7.921   2.187  -1.646 -0.8574  1.9619  2.3584
  550MOL0     H72580   8.022   1.959  -1.702  1.8608 -2.2756 -0.1892
  550MOL0     H72581   8.081   1.951  -1.544 -4.5727 -2.4654 -2.0206
  550MOL0     H72582   8.288   2.725  -0.754 -2.0607  1.6528  0.9962
  550MOL0     H72583   8.482   2.889  -0.707 -0.1223 -2.0902  0.3138
  550MOL0     H72584   8.690   3.235  -0.785  0.7873 -0.4629  3.9184
  550MOL0     H72585   8.852   3.376  -0.685  5.3857  4.2134 -0.8446
  550MOL0     H72586  10.249   4.419   0.103  0.2611  0.1961 -0.1818
  550MOL0     H72587  10.373   4.359   0.294  1.0482 -1.7414  1.0384
  550MOL0     H72588  10.866   4.387   0.449  3.4732  0.5300  1.5286
  550MOL0     H72589  11.044   4.321   0.586 -1.0045  0.5747 -0.2596
  550MOL0     H72590  11.060   4.244   0.850 -1.2894 -0.9610 -0.5811
  550MOL0     H72591  11.208   4.214   0.754 -0.0894  0.4824  1.6747
  550MOL0     H72592  11.105   4.060   1.000  0.8568  1.5910  2.1641
  550MOL0     H72593  11.251   4.026   0.903  0.4466  2.1939 -1.5748
  550MOL0     H72594  11.275   4.164   1.114  0.8911  0.6610 -0.3034
  550MOL0     H72595  11.203   4.293   1.014  1.1022 -0.0623  0.2320
  550MOL0     H72596  11.468   4.268   1.072  0.9869 -1.2312 -0.7249
  550MOL0     H72597  11.466   4.143   0.948 -1.3045 -1.1373  1.5494
  550MOL0     H72598  11.440   4.491   0.715 -1.1359  0.1668 -0.6567
  550MOL0     H72599  10.832   3.952   0.694  0.3327  1.0696  2.4264
  550MOL0     H72600  10.655   4.027   0.540  1.2663  0.5165 -3.7405
  551MOL0     O72601   1.355  11.306   9.907  0.1733  0.5943 -0.8503
  551MOL0     C72602   1.285  11.202   9.880  0.1582 -0.1105  0.8457
  551MOL0     O72603   1.333  11.085   9.819  0.7892  0.3184  0.3800
  551MOL0     C72604   1.452  11.070   9.769 -0.0252 -0.4037  0.4554
  551MOL0     C72605   1.549  11.168   9.750 -0.2762 -0.2164  0.2831
  551MOL0     C72606   1.673  11.138   9.707 -0.4573  0.5492  0.7624
  551MOL0     C72607   1.703  11.005   9.676 -0.5145  0.8576  1.4583
  551MOL0     O72608   1.830  10.988   9.621  0.3037 -0.4692  0.4256
  551MOL0     C72609   1.904  10.882   9.676  0.2236  0.1615 -0.0316
  551MOL0     C72610   2.058  10.904   9.685 -0.4517  0.0781  0.9688
  551MOL0     C72611   2.125  10.821   9.796  0.0966 -0.7895  1.0960
  551MOL0     C72612   2.276  10.818   9.784  0.3320  0.6367  0.3827
  551MOL0     C72613   2.340  10.953   9.825  0.2399 -0.0494 -0.6510
  551MOL0     C72614   2.479  10.947   9.882 -0.0170  0.2878 -0.8874
  551MOL0     C72615   2.520  11.086   9.939 -0.5914 -1.2048 -0.2499
  551MOL0     C72616   2.464  11.098  10.088 -0.3425  0.1794 -0.6350
  551MOL0     N72617   2.531  11.020  10.190  0.3207  0.3183 -0.3313
  551MOL0     C72618   2.660  10.966  10.198 -0.2612 -0.0256  0.0973
  551MOL0     C72619   2.666  10.908  10.325 -0.5573  0.3218  0.6089
  551MOL0     C72620   2.780  10.837  10.394 -1.2281 -0.0125 -0.4511
  551MOL0     C72621   2.910  10.911  10.377  1.4086 -0.3584 -0.4401
  551MOL0     C72622   3.032  10.824  10.390 -1.3246  0.3744 -1.0864
  551MOL0     C72623   3.162  10.874  10.308  0.0514  0.6856 -0.7934
  551MOL0     O72624   3.194  11.013  10.337 -0.4142  0.5615 -0.3360
  551MOL0     C72625   3.322  11.052  10.326 -0.5414 -0.7130 -0.2981
  551MOL0     C72626   3.339  11.185  10.372 -0.6675 -0.4576 -0.4397
  551MOL0     C72627   3.455  11.255  10.344  0.2308  0.2087 -0.1717
  551MOL0     C72628   3.569  11.195  10.289  0.6908  0.3269  0.5119
  551MOL0     C72629   3.693  11.265  10.279  0.0510  0.8433  0.2848
  551MOL0     O72630   3.802  11.180  10.233 -0.6170 -0.7661 -0.4018
  551MOL0     C72631   3.925  11.220  10.264 -0.6610 -1.0127 -0.3086
  551MOL0     C72632   4.005  11.125  10.325  0.0863 -0.4958 -0.2303
  551MOL0     C72633   4.137  11.138  10.361 -0.1865  0.8523 -0.0137
  551MOL0     C72634   4.205  11.244  10.314  0.1744  0.4286 -0.0383
  551MOL0     O72635   4.340  11.251  10.342  0.4973  0.3767 -0.4839
  551MOL0     C72636   4.423  11.337  10.273  0.2159 -0.4897 -0.1871
  551MOL0     C72637   4.451  11.314  10.126 -0.0877  0.1377 -1.4167
  551MOL0     C72638   4.579  11.386  10.073  0.5559  0.0116 -0.5049
  551MOL0     C72639   4.620  11.343   9.933 -0.1592  0.6323 -0.7312
  551MOL0     C72640   4.698  11.204   9.939 -0.4940 -0.2055  0.2200
  551MOL0     C72641   4.652  11.119   9.825  0.3239 -0.5006  0.5382
  551MOL0     C72642   4.762  11.024   9.771  0.4324  0.1727  0.7046
  551MOL0     C72643   4.703  10.956   9.647  0.4969 -0.5203  0.6044
  551MOL0    Cl72644   4.817  10.848   9.578 -0.2984  0.2216 -0.0183
  551MOL0     C72645   4.132  11.349  10.252 -0.2952  0.1944 -0.1208
  551MOL0     C72646   3.990  11.335  10.231  1.2089  1.2271  0.3605
  551MOL0     O72647   3.700  11.386  10.317  0.2426 -0.4683  0.2764
  551MOL0     C72648   3.552  11.067  10.244 -0.0269  0.7090  0.4268
  551MOL0     C72649   3.433  10.992  10.262 -0.7368 -0.0814 -0.5640
  551MOL0     N72650   2.540  10.921  10.385  0.5765 -0.7230 -0.4524
  551MOL0     N72651   2.463  10.974  10.297  0.9060  0.0083 -0.3360
  551MOL0     C72652   1.610  10.905   9.688 -0.0973 -0.3576 -0.1735
  551MOL0     C72653   1.482  10.932   9.739 -0.0295  0.1344 -0.3570
  551MOL0     C72654   1.143  11.200   9.913 -1.2065  0.0768  0.4201
  551MOL0     C72655   1.066  11.086   9.893 -0.1853 -0.0867  0.4571
  551MOL0     C72656   0.925  11.075   9.920  0.2582 -0.2420 -0.3404
  551MOL0     C72657   0.865  11.199   9.963  0.1143 -0.5585  0.0162
  551MOL0     O72658   0.730  11.191  10.003  0.3924  0.7937  0.6770
  551MOL0     C72659   0.659  11.298  10.069 -0.5733 -0.3159 -0.4573
  551MOL0     C72660   0.692  11.331  10.216  0.1774  0.4705 -0.2936
  551MOL0     C72661   0.687  11.215  10.320 -0.1948  0.2240 -0.0333
  551MOL0     C72662   0.805  11.137  10.315  0.4837  1.3848  0.0254
  551MOL0     C72663   0.909  11.209  10.378 -0.1834  0.1342  0.7822
  551MOL0     C72664   1.004  11.275  10.410  0.5741  0.3319  0.7144
  551MOL0     C72665   0.940  11.315   9.983 -1.9098  0.2790  0.6656
  551MOL0     C72666   1.077  11.312   9.957 -0.3215  0.0786  1.2716
  551MOL0     H72667   1.538  11.276   9.761  3.4144  0.4558 -1.0086
  551MOL0     H72668   1.746  11.218   9.698  0.7438 -0.6323 -0.4524
  551MOL0     H72669   1.882  10.795   9.614  3.9002  1.3955 -3.5424
  551MOL0     H72670   1.869  10.872   9.779 -3.0417  3.1880 -0.6376
  551MOL0     H72671   2.066  11.013   9.681 -0.0503  0.0185 -2.1111
  551MOL0     H72672   2.098  10.882   9.586  0.9115  0.8240  1.3161
  551MOL0     H72673   2.082  10.720   9.787 -2.5923  0.4059 -1.0410
  551MOL0     H72674   2.095  10.870   9.889 -0.8840  1.8442 -0.4870
  551MOL0     H72675   2.297  10.736   9.853 -1.8921 -1.9126 -1.7208
  551MOL0     H72676   2.304  10.788   9.682  0.4542  0.3117  0.5104
  551MOL0     H72677   2.284  10.998   9.907  1.6276 -0.7648  0.7507
  551MOL0     H72678   2.349  11.029   9.747 -3.2090  2.3858  1.0999
  551MOL0     H72679   2.562  10.928   9.814  0.9041 -0.0621  0.2981
  551MOL0     H72680   2.478  10.862   9.951 -1.6590  1.3071  0.4278
  551MOL0     H72681   2.627  11.090   9.961 -1.1535  0.8772  2.7994
  551MOL0     H72682   2.494  11.172   9.878 -2.2166 -0.2110  1.7222
  551MOL0     H72683   2.356  11.079  10.090 -0.4987  1.0349 -0.3414
  551MOL0     H72684   2.481  11.205  10.108 -0.1624  0.7361 -3.4133
  551MOL0     H72685   2.739  10.980  10.124 -2.0103  0.3831 -1.7903
  551MOL0     H72686   2.784  10.737  10.351  0.1825 -0.0274 -0.3527
  551MOL0     H72687   2.757  10.836  10.501  2.3931 -1.6829  0.4742
  551MOL0     H72688   2.930  10.992  10.447 -0.4295 -0.2642  0.0109
  551MOL0     H72689   2.906  10.951  10.275 -0.4124 -1.7390 -0.9626
  551MOL0     H72690   3.049  10.812  10.497 -3.2663 -3.2828 -1.0340
  551MOL0     H72691   3.003  10.725  10.353 -2.5407 -0.6279  2.1522
  551MOL0     H72692   3.143  10.870  10.200 -1.0629 -1.7560 -0.5772
  551MOL0     H72693   3.249  10.812  10.330  0.2388  1.2386  0.0973
  551MOL0     H72694   3.255  11.236  10.417  0.4347  0.8826  0.1798
  551MOL0     H72695   3.461  11.357  10.381  1.3899  0.3244 -0.6425
  551MOL0     H72696   3.952  11.036  10.359  0.1410  0.4782  2.6515
  551MOL0     H72697   4.188  11.067  10.426  0.3982  3.1395  2.1838
  551MOL0     H72698   4.520  11.337  10.323 -0.2024  0.3921  0.6428
  551MOL0     H72699   4.375  11.433  10.291 -0.4996 -0.6349 -1.2063
  551MOL0     H72700   4.365  11.335  10.062 -0.9651  0.6059 -0.1264
  551MOL0     H72701   4.458  11.205  10.131  0.9973  0.2446  1.5975
  551MOL0     H72702   4.663  11.375  10.142 -0.5324  0.9987  1.0723
  551MOL0     H72703   4.556  11.491  10.053 -0.6256 -0.8332 -4.2905
  551MOL0     H72704   4.533  11.355   9.868  0.6996 -0.5994 -2.1908
  551MOL0     H72705   4.695  11.415   9.899  0.5809  2.3696  3.8604
  551MOL0     H72706   4.691  11.140  10.028  0.5705  0.3240  0.7042
  551MOL0     H72707   4.806  11.215   9.928 -0.2926 -1.2313  1.0451
  551MOL0     H72708   4.621  11.192   9.749  1.5958  2.2953  2.4979
  551MOL0     H72709   4.561  11.067   9.856 -0.6753  0.3077 -0.8827
  551MOL0     H72710   4.847  11.086   9.743  1.4406 -1.1233  0.7869
  551MOL0     H72711   4.815  10.952   9.834  3.0701  0.3709 -1.1477
  551MOL0     H72712   4.680  11.031   9.572  2.5888 -1.0849 -0.6952
  551MOL0     H72713   4.623  10.890   9.680 -0.1115 -0.9101 -1.5314
  551MOL0     H72714   4.174  11.447  10.230  1.9209 -0.8159 -0.6907
  551MOL0     H72715   3.930  11.411  10.182 -2.2963  1.1719  4.0453
  551MOL0     H72716   3.623  11.015  10.180 -2.3071 -2.9922  0.5768
  551MOL0     H72717   3.431  10.894  10.215  0.5676  0.8129 -2.5758
  551MOL0     H72718   1.643  10.806   9.660 -1.3671 -0.7455 -0.3737
  551MOL0     H72719   1.409  10.856   9.761  0.5419  0.5775  3.8544
  551MOL0     H72720   1.099  11.000   9.837 -1.5030 -1.4454  1.6800
  551MOL0     H72721   0.864  10.989   9.897  0.9669 -0.6136 -0.8488
  551MOL0     H72722   0.551  11.281  10.065 -0.6587 -0.3226  1.3542
  551MOL0     H72723   0.684  11.379  10.000  1.2264 -0.0238  0.4674
  551MOL0     H72724   0.795  11.365  10.226  0.1791  0.5971 -0.7407
  551MOL0     H72725   0.631  11.417  10.245 -0.7727 -0.0352 -0.7378
  551MOL0     H72726   0.596  11.155  10.309 -1.3468  1.7793  0.6479
  551MOL0     H72727   0.679  11.265  10.418  0.6888 -1.6639  1.0591
  551MOL0     H72728   0.791  11.040  10.364  0.8674 -0.2220 -2.7751
  551MOL0     H72729   0.829  11.112  10.211  0.2742 -1.6465  0.6141
  551MOL0     H72730   1.094  11.332  10.423  0.5521  0.6980 -0.5569
  551MOL0     H72731   0.892  11.409  10.009 -4.8489 -0.8105 -0.3630
  551MOL0     H72732   1.130  11.405   9.977 -1.4987  0.6144  2.0441
  552MOL0     O72733   2.812   8.473   6.685  0.2709  0.5613  0.4540
  552MOL0     C72734   2.784   8.494   6.801  0.3937  0.6272  0.2942
  552MOL0     O72735   2.860   8.553   6.899  0.0335 -0.5562 -0.2092
  552MOL0     C72736   2.989   8.531   6.892 -0.4094 -0.1951 -0.1693
  552MOL0     C72737   3.069   8.614   6.816 -0.2463 -0.6576 -0.8305
  552MOL0     C72738   3.208   8.591   6.800 -1.0226  0.4449  0.8200
  552MOL0     C72739   3.272   8.487   6.864  0.0504  0.3315  0.8897
  552MOL0     O72740   3.412   8.458   6.851  0.7307  0.1303  0.6415
  552MOL0     C72741   3.505   8.565   6.829  0.4999 -0.7180 -0.4409
  552MOL0     C72742   3.504   8.649   6.955  0.4473 -0.6502  0.3470
  552MOL0     C72743   3.612   8.756   6.959  0.3403  0.2902  0.4848
  552MOL0     C72744   3.763   8.709   6.952 -0.0120 -0.0593  0.1268
  552MOL0     C72745   3.810   8.649   7.083  0.0372  0.7331 -0.4119
  552MOL0     C72746   3.948   8.589   7.077  0.0467  0.8573 -1.3090
  552MOL0     C72747   4.025   8.579   7.217 -0.2774  0.5719 -0.0675
  552MOL0     C72748   4.161   8.503   7.202 -0.2035 -0.7190  0.2798
  552MOL0     N72749   4.143   8.353   7.225  0.0077 -0.6059 -0.8915
  552MOL0     C72750   4.218   8.276   7.316 -0.0239 -0.7774  0.2583
  552MOL0     C72751   4.163   8.158   7.289 -0.6735 -0.2256  0.9065
  552MOL0     C72752   4.206   8.034   7.364 -0.9593  0.1685  0.3606
  552MOL0     C72753   4.101   7.919   7.353 -0.4574  1.2025 -0.9781
  552MOL0     C72754   4.157   7.778   7.405 -0.4919 -0.0735  0.2931
  552MOL0     C72755   4.262   7.720   7.317 -0.4770 -0.9426 -0.7749
  552MOL0     O72756   4.282   7.585   7.365  0.3776  0.1327  0.8309
  552MOL0     C72757   4.315   7.558   7.498  0.0409  0.3708 -0.5194
  552MOL0     C72758   4.394   7.638   7.581  0.6006  0.3372  0.8630
  552MOL0     C72759   4.431   7.602   7.705  0.4287 -0.8421 -0.5459
  552MOL0     C72760   4.389   7.486   7.761  0.8063  0.6836  0.0235
  552MOL0     C72761   4.425   7.461   7.901  1.1519 -0.3884 -0.1746
  552MOL0     O72762   4.521   7.531   7.959  0.0698  0.0481  0.2574
  552MOL0     C72763   4.521   7.539   8.095 -0.3004 -0.3057  0.2169
  552MOL0     C72764   4.522   7.671   8.164 -0.6418  0.7989  0.3905
  552MOL0     C72765   4.538   7.674   8.302  0.4373  0.1956  0.0810
  552MOL0     C72766   4.572   7.558   8.376 -0.1419  1.7004 -0.0340
  552MOL0     O72767   4.589   7.581   8.509 -0.0640  0.1732 -0.0555
  552MOL0     C72768   4.636   7.467   8.590  0.5052 -0.0656  0.5558
  552MOL0     C72769   4.789   7.454   8.583  0.0554  0.3523  0.4000
  552MOL0     C72770   4.834   7.326   8.652  0.4315 -0.0235 -0.7434
  552MOL0     C72771   4.908   7.364   8.786  0.1920 -0.7734  0.0133
  552MOL0     C72772   4.972   7.246   8.856 -0.4822  0.5411 -0.8362
  552MOL0     C72773   5.059   7.287   8.975 -0.6566 -0.1719 -0.4264
  552MOL0     C72774   5.139   7.174   9.037 -1.1736 -0.3216 -0.1623
  552MOL0     C72775   5.284   7.160   8.976  1.0580 -0.1628  0.4924
  552MOL0    Cl72776   5.363   7.024   9.065 -0.3334 -0.1469 -0.1816
  552MOL0     C72777   4.580   7.434   8.307 -0.2308  0.6188  0.4739
  552MOL0     C72778   4.555   7.427   8.172  0.4171  0.7573  0.2558
  552MOL0     O72779   4.354   7.376   7.961  0.7927 -0.5589  0.3258
  552MOL0     C72780   4.318   7.400   7.684 -0.1625  0.1125 -1.0042
  552MOL0     C72781   4.276   7.428   7.554 -0.2053 -0.5975 -0.8970
  552MOL0     N72782   4.084   8.154   7.182  0.3870  0.8613 -0.1534
  552MOL0     N72783   4.068   8.273   7.152  0.1657 -0.2556 -1.0841
  552MOL0     C72784   3.195   8.404   6.942 -0.5301  0.1343 -0.2379
  552MOL0     C72785   3.060   8.432   6.961  0.5370  0.3767 -0.2112
  552MOL0     C72786   2.636   8.477   6.840  0.2834  0.8332  0.7539
  552MOL0     C72787   2.586   8.509   6.966  0.2693 -0.5838 -0.1804
  552MOL0     C72788   2.457   8.503   6.997  0.1743 -0.0580  0.1581
  552MOL0     C72789   2.363   8.470   6.903  0.3648 -0.2723 -0.4476
  552MOL0     O72790   2.228   8.462   6.941  0.5694 -0.7103 -0.4491
  552MOL0     C72791   2.132   8.403   6.851  0.5503 -0.2971 -0.6470
  552MOL0     C72792   1.982   8.394   6.911 -0.0418  0.6304  0.0242
  552MOL0     C72793   1.958   8.266   6.975  0.0816  0.9315 -0.5038
  552MOL0     C72794   1.854   8.288   7.086 -0.1063  0.1952  0.7322
  552MOL0     C72795   1.720   8.296   7.025  0.2162  0.0221  1.2768
  552MOL0     C72796   1.611   8.300   6.968  0.7173  0.6016  0.3572
  552MOL0     C72797   2.404   8.458   6.768  0.4630 -0.2386  0.4804
  552MOL0     C72798   2.540   8.447   6.743  0.3782 -0.9129  1.0260
  552MOL0     H72799   3.027   8.696   6.759  1.9279  0.8202 -0.4258
  552MOL0     H72800   3.277   8.650   6.740  2.4484 -1.4145  2.6909
  552MOL0     H72801   3.500   8.633   6.744 -0.5201 -1.8467 -1.3102
  552MOL0     H72802   3.604   8.518   6.831  0.9889  0.1971  2.5357
  552MOL0     H72803   3.516   8.582   7.041 -0.6773 -0.0182  1.0146
  552MOL0     H72804   3.404   8.691   6.955 -0.7860 -3.3725  0.5341
  552MOL0     H72805   3.611   8.804   7.057  1.9119 -0.3597  0.8502
  552MOL0     H72806   3.590   8.828   6.880 -3.1734  1.7259  2.5135
  552MOL0     H72807   3.791   8.642   6.870  2.3702  1.2471 -0.2114
  552MOL0     H72808   3.830   8.794   6.938 -0.1410  0.0168 -0.0148
  552MOL0     H72809   3.732   8.576   7.105  1.7252 -0.6275  1.4481
  552MOL0     H72810   3.803   8.725   7.162 -2.0429 -0.1199  0.3086
  552MOL0     H72811   4.006   8.657   7.013  2.5434  2.4025  2.2557
  552MOL0     H72812   3.937   8.489   7.035  0.0087  0.0561  0.5010
  552MOL0     H72813   4.053   8.679   7.253  1.7807  0.2020 -0.5290
  552MOL0     H72814   3.967   8.510   7.278  2.1226  0.1485  1.8907
  552MOL0     H72815   4.233   8.544   7.274 -0.0682  0.4321 -0.4787
  552MOL0     H72816   4.208   8.504   7.103  1.2295  0.2410  0.9435
  552MOL0     H72817   4.274   8.307   7.403  0.0628 -1.5554  0.4890
  552MOL0     H72818   4.220   8.064   7.468  1.2635  0.3180  0.0584
  552MOL0     H72819   4.303   7.989   7.340 -2.0298 -2.4714  0.5742
  552MOL0     H72820   4.059   7.913   7.252  3.9981 -2.6727 -2.9587
  552MOL0     H72821   4.022   7.938   7.427  0.4927 -0.7216  0.6065
  552MOL0     H72822   4.199   7.785   7.506 -0.7030 -0.2797  0.3950
  552MOL0     H72823   4.087   7.695   7.403 -0.6731 -0.1119  3.3019
  552MOL0     H72824   4.355   7.776   7.332 -1.9272  0.7935  3.3557
  552MOL0     H72825   4.241   7.725   7.210 -0.8370 -0.0306 -0.6686
  552MOL0     H72826   4.428   7.730   7.535 -0.4401 -0.0908 -0.8428
  552MOL0     H72827   4.500   7.661   7.764 -0.5153 -0.1060 -0.1415
  552MOL0     H72828   4.516   7.767   8.114 -2.7107  1.0388  1.0442
  552MOL0     H72829   4.531   7.767   8.359  2.5708  0.7926 -0.5551
  552MOL0     H72830   4.585   7.372   8.573  1.3595 -0.9463  2.5917
  552MOL0     H72831   4.609   7.492   8.693  2.6111  0.7181  0.9849
  552MOL0     H72832   4.828   7.546   8.628  0.6958 -0.0580  0.6868
  552MOL0     H72833   4.811   7.449   8.476  0.1892  2.3568  0.2841
  552MOL0     H72834   4.898   7.272   8.582 -1.0445  0.0855 -2.2417
  552MOL0     H72835   4.750   7.262   8.682 -0.9372  0.5326 -3.1011
  552MOL0     H72836   4.994   7.420   8.746 -1.2925  0.9117 -0.9462
  552MOL0     H72837   4.845   7.434   8.842 -0.8998 -0.5252 -1.4584
  552MOL0     H72838   5.020   7.179   8.784 -0.8406 -0.8606  0.1910
  552MOL0     H72839   4.889   7.189   8.900 -0.8988 -0.3044 -2.6374
  552MOL0     H72840   4.990   7.332   9.047  1.1113 -1.7916  2.4430
  552MOL0     H72841   5.121   7.372   8.944  0.0583 -0.4092  0.3145
  552MOL0     H72842   5.154   7.194   9.143  2.9399 -1.6925 -0.3139
  552MOL0     H72843   5.084   7.082   9.017 -1.4479 -0.2217  0.1213
  552MOL0     H72844   5.341   7.248   9.008  2.3141 -0.6401 -0.3868
  552MOL0     H72845   5.274   7.146   8.868  1.9428  3.0176 -0.1204
  552MOL0     H72846   4.598   7.339   8.356  0.8423  0.3441 -0.4098
  552MOL0     H72847   4.549   7.325   8.134  0.2880  0.9024 -0.1256
  552MOL0     H72848   4.279   7.306   7.721  1.1521 -0.2823 -0.5598
  552MOL0     H72849   4.227   7.348   7.500 -0.7611  0.3817 -1.8728
  552MOL0     H72850   3.236   8.315   6.990 -1.3760  0.1115  0.4527
  552MOL0     H72851   3.007   8.367   7.029  1.3426  1.0186  1.0786
  552MOL0     H72852   2.657   8.531   7.045  2.7150  0.6724 -2.5159
  552MOL0     H72853   2.424   8.513   7.099 -1.2238 -1.0476 -0.1560
  552MOL0     H72854   2.162   8.300   6.828  2.3201 -0.3044  1.4530
  552MOL0     H72855   2.132   8.461   6.758 -3.6250 -1.0176 -1.3218
  552MOL0     H72856   1.960   8.481   6.973 -6.1689  0.0737 -0.7795
  552MOL0     H72857   1.923   8.408   6.820  0.5304  2.0905 -0.1502
  552MOL0     H72858   2.048   8.217   7.014 -0.7950  1.6680  2.8249
  552MOL0     H72859   1.920   8.193   6.903  1.9205 -3.4191  2.4922
  552MOL0     H72860   1.857   8.199   7.150 -1.9265 -1.5720 -1.4900
  552MOL0     H72861   1.864   8.377   7.149  0.0556 -0.7419  2.0683
  552MOL0     H72862   1.512   8.288   6.929 -0.0779 -2.2071  2.8317
  552MOL0     H72863   2.335   8.458   6.684  1.8656 -1.3841 -0.7368
  552MOL0     H72864   2.562   8.416   6.641 -1.6410 -0.2291  0.3249
  553MOL0     O72865   5.698   6.684   2.578 -0.1580 -0.2157  0.3190
  553MOL0     C72866   5.706   6.709   2.456  0.3320 -1.1180  0.1347
  553MOL0     O72867   5.761   6.817   2.396  0.0852  0.1973 -0.5494
  553MOL0     C72868   5.847   6.900   2.461 -0.6162 -0.5410 -0.2985
  553MOL0     C72869   5.917   6.887   2.582  0.1505  0.1879  0.4712
  553MOL0     C72870   6.010   6.992   2.621 -0.5756  0.2645  0.2176
  553MOL0     C72871   6.018   7.108   2.547  0.2771 -0.7494 -0.3867
  553MOL0     O72872   6.096   7.193   2.608  0.7590 -0.0471  0.1678
  553MOL0     C72873   6.192   7.271   2.536 -0.7207  0.4604  0.5787
  553MOL0     C72874   6.265   7.359   2.644  0.0454  0.5818 -0.7387
  553MOL0     C72875   6.412   7.375   2.601 -0.4016  0.1800 -0.2652
  553MOL0     C72876   6.433   7.446   2.461  0.7890 -0.3559 -0.0365
  553MOL0     C72877   6.580   7.452   2.438  0.0058 -1.1065  0.3489
  553MOL0     C72878   6.645   7.549   2.538 -0.7230 -0.7216  0.6788
  553MOL0     C72879   6.785   7.590   2.488 -0.4003 -0.6480  0.6811
  553MOL0     C72880   6.861   7.673   2.586  1.0329  0.4985  0.2514
  553MOL0     N72881   6.979   7.701   2.513 -0.1730 -0.6069  0.2279
  553MOL0     C72882   7.096   7.628   2.520  0.0947  0.4307 -0.0480
  553MOL0     C72883   7.171   7.651   2.411 -0.2451  0.2685 -0.0960
  553MOL0     C72884   7.305   7.580   2.384  0.2854 -0.7746  0.1558
  553MOL0     C72885   7.420   7.681   2.344 -0.4171 -0.3018 -0.2081
  553MOL0     C72886   7.556   7.607   2.336 -0.1813  0.6659 -0.6275
  553MOL0     C72887   7.669   7.707   2.311  0.7044 -0.1537  0.2926
  553MOL0     O72888   7.802   7.655   2.339  0.2399  0.0344  0.5866
  553MOL0     C72889   7.904   7.702   2.255  0.0523 -0.5782 -0.2534
  553MOL0     C72890   7.977   7.609   2.195 -0.7132  0.5575  0.3362
  553MOL0     C72891   8.086   7.645   2.113  0.5527  0.3180 -0.4743
  553MOL0     C72892   8.102   7.782   2.085  1.2844  0.9889  0.3704
  553MOL0     C72893   8.208   7.823   1.988 -0.9730  0.2352  0.2571
  553MOL0     O72894   8.209   7.948   1.940  0.9888  0.0662 -0.3536
  553MOL0     C72895   8.302   7.976   1.837  0.1821  0.6550  0.0515
  553MOL0     C72896   8.286   7.923   1.707 -0.6430 -0.3373 -0.3023
  553MOL0     C72897   8.396   7.927   1.615  0.8365  0.9767  0.0226
  553MOL0     C72898   8.510   7.993   1.634  0.5256 -0.6514  0.2824
  553MOL0     O72899   8.590   7.990   1.522  0.0151 -0.8282 -0.4228
  553MOL0     C72900   8.707   8.063   1.533 -0.1676  0.3583 -1.2245
  553MOL0     C72901   8.806   8.004   1.431 -0.3479 -1.0031 -0.2332
  553MOL0     C72902   8.926   8.098   1.398 -0.0618 -0.5409 -0.0096
  553MOL0     C72903   9.038   8.024   1.325 -0.1511  0.5971 -0.0887
  553MOL0     C72904   9.143   8.116   1.273 -0.9122 -0.2694 -0.3282
  553MOL0     C72905   9.197   8.217   1.372  0.2803  0.2259  0.4993
  553MOL0     C72906   9.314   8.311   1.330  0.1910 -0.2246  0.2876
  553MOL0     C72907   9.330   8.409   1.454 -0.5985 -0.1420 -0.2711
  553MOL0    Cl72908   9.482   8.483   1.425 -0.0987 -0.1543  0.1467
  553MOL0     C72909   8.526   8.049   1.770  0.6048  0.4505  0.2273
  553MOL0     C72910   8.428   8.031   1.864 -0.5800 -1.1061  0.5898
  553MOL0     O72911   8.297   7.737   1.957 -0.0033 -0.8386 -0.2586
  553MOL0     C72912   8.011   7.871   2.135  0.3843  0.5777 -0.1393
  553MOL0     C72913   7.919   7.833   2.229 -0.0930 -0.0458 -0.1202
  553MOL0     N72914   7.101   7.737   2.324 -0.2580 -0.1697  0.0501
  553MOL0     N72915   6.995   7.772   2.390  0.7387  0.2223 -0.1270
  553MOL0     C72916   5.939   7.129   2.436 -0.2573 -0.1935  1.3793
  553MOL0     C72917   5.849   7.024   2.391  1.0227  1.0081 -0.0246
  553MOL0     C72918   5.630   6.614   2.373 -0.3460 -0.9968 -0.3509
  553MOL0     C72919   5.599   6.641   2.240  0.8947  0.2566  0.3493
  553MOL0     C72920   5.532   6.547   2.162 -0.2178 -0.2474  0.6746
  553MOL0     C72921   5.492   6.422   2.207 -0.2864  0.5781  0.0270
  553MOL0     O72922   5.436   6.322   2.138 -0.0231  0.7368 -0.3392
  553MOL0     C72923   5.374   6.365   2.011 -0.3814 -0.0678  0.0220
  553MOL0     C72924   5.243   6.434   2.049 -0.5185  0.3175 -0.0664
  553MOL0     C72925   5.140   6.435   1.939  0.1143  0.3302 -0.3558
  553MOL0     C72926   5.096   6.575   1.901  0.0453  0.0416  0.3628
  553MOL0     C72927   4.963   6.583   1.861 -0.3189 -0.0916  0.0338
  553MOL0     C72928   4.871   6.640   1.813  0.5901 -0.0124 -0.0734
  553MOL0     C72929   5.518   6.395   2.340  0.5039  0.3894 -0.0226
  553MOL0     C72930   5.588   6.490   2.421 -0.3265  0.5200  0.3186
  553MOL0     H72931   5.911   6.788   2.628 -2.8894 -1.5793 -3.1606
  553MOL0     H72932   6.080   6.974   2.702  2.1751  1.3071 -1.7605
  553MOL0     H72933   6.154   7.325   2.448 -1.0034  1.2883  1.2025
  553MOL0     H72934   6.262   7.193   2.505 -1.3971 -0.4409  1.2709
  553MOL0     H72935   6.262   7.313   2.743  2.0746  0.3215 -0.7479
  553MOL0     H72936   6.229   7.462   2.644 -1.8679 -0.0395  0.1668
  553MOL0     H72937   6.463   7.279   2.614  1.7406  1.5100  1.9237
  553MOL0     H72938   6.458   7.438   2.677 -3.7617 -1.5159  3.5471
  553MOL0     H72939   6.394   7.389   2.376  2.1897 -1.4274  0.0167
  553MOL0     H72940   6.388   7.545   2.458 -0.3084 -0.7814  1.2856
  553MOL0     H72941   6.587   7.498   2.339  1.1301 -1.3455  0.2997
  553MOL0     H72942   6.630   7.356   2.457 -1.3597 -1.7753  0.6615
  553MOL0     H72943   6.661   7.502   2.635 -0.1242  0.0901  0.9884
  553MOL0     H72944   6.587   7.642   2.544  0.1209 -0.1251 -0.0404
  553MOL0     H72945   6.841   7.499   2.465  0.5824  0.5415 -2.1240
  553MOL0     H72946   6.767   7.632   2.389  0.3920 -6.1424 -2.2277
  553MOL0     H72947   6.888   7.633   2.685 -1.3059 -3.2663 -0.4398
  553MOL0     H72948   6.802   7.763   2.605 -0.0964 -0.1949  0.1395
  553MOL0     H72949   7.126   7.560   2.599  0.7653 -0.9254 -1.4135
  553MOL0     H72950   7.286   7.496   2.317  3.5279 -0.4434 -1.3779
  553MOL0     H72951   7.339   7.544   2.481 -2.1833 -0.4703  1.2129
  553MOL0     H72952   7.407   7.763   2.414 -0.6475 -0.3713 -0.1683
  553MOL0     H72953   7.410   7.725   2.244 -0.3046  1.5883  0.5757
  553MOL0     H72954   7.579   7.560   2.432 -3.9619  0.6132  0.4010
  553MOL0     H72955   7.563   7.543   2.247  0.4798  2.1713 -1.7120
  553MOL0     H72956   7.647   7.792   2.377  1.1498  1.2974 -1.3633
  553MOL0     H72957   7.648   7.738   2.208  0.7854 -0.5144  0.1652
  553MOL0     H72958   7.962   7.503   2.212  1.2462 -0.1521 -1.7504
  553MOL0     H72959   8.162   7.576   2.075 -0.1315 -0.7918  0.1080
  553MOL0     H72960   8.192   7.871   1.694  0.2152 -3.0840  3.1236
  553MOL0     H72961   8.372   7.869   1.526 -0.2901 -0.4473  1.2162
  553MOL0     H72962   8.749   8.054   1.633  0.6899  0.8760 -1.5275
  553MOL0     H72963   8.691   8.168   1.509  1.8466  0.5699 -1.8414
  553MOL0     H72964   8.754   7.993   1.335  0.7490  0.6688 -1.0630
  553MOL0     H72965   8.841   7.906   1.465  1.2030 -1.1948 -2.2110
  553MOL0     H72966   8.963   8.140   1.493  1.9049  2.2815 -1.8634
  553MOL0     H72967   8.892   8.181   1.336  0.0322  1.1064  2.0268
  553MOL0     H72968   9.076   7.938   1.381 -0.0309  1.1841  0.7478
  553MOL0     H72969   8.990   7.987   1.234 -1.8444  0.1026  0.9633
  553MOL0     H72970   9.105   8.171   1.186  0.2621 -0.4007 -0.9489
  553MOL0     H72971   9.228   8.058   1.237  1.2554  1.1864  2.1545
  553MOL0     H72972   9.234   8.168   1.463  0.3663  2.1093  1.5315
  553MOL0     H72973   9.118   8.288   1.399 -0.9053 -0.5759 -0.7099
  553MOL0     H72974   9.405   8.251   1.318 -0.7792 -1.6021 -0.5976
  553MOL0     H72975   9.294   8.358   1.233  1.1885 -0.1509  0.1050
  553MOL0     H72976   9.331   8.350   1.547  0.5631 -0.8317 -0.6959
  553MOL0     H72977   9.254   8.487   1.458 -2.0471 -1.5453  1.3215
  553MOL0     H72978   8.609   8.106   1.809  0.3497 -0.2685  1.9025
  553MOL0     H72979   8.450   8.065   1.965  0.0763 -0.2622  0.1696
  553MOL0     H72980   8.011   7.975   2.103 -0.2246  0.9278  0.9436
  553MOL0     H72981   7.855   7.907   2.275 -0.6006 -1.1627  1.0250
  553MOL0     H72982   5.969   7.216   2.379  1.7105 -0.3191  2.1749
  553MOL0     H72983   5.797   7.042   2.297  2.1899  0.5190 -0.7944
  553MOL0     H72984   5.630   6.740   2.208 -2.1789  1.4963  0.8861
  553MOL0     H72985   5.534   6.573   2.056 -1.1238  1.9700  1.1398
  553MOL0     H72986   5.344   6.270   1.967  1.2297 -0.5256 -0.1441
  553MOL0     H72987   5.430   6.433   1.946  0.4540  0.2086  1.0040
  553MOL0     H72988   5.210   6.385   2.141  0.6683 -1.3359 -0.4878
  553MOL0     H72989   5.269   6.537   2.077 -0.3264  0.2364  0.0537
  553MOL0     H72990   5.050   6.384   1.974  0.5762 -0.9915 -1.0299
  553MOL0     H72991   5.172   6.383   1.848  2.0886 -0.7807  0.8831
  553MOL0     H72992   5.109   6.647   1.983 -1.8567 -0.1562  0.8939
  553MOL0     H72993   5.158   6.606   1.817  1.4984 -0.8880  1.0581
  553MOL0     H72994   4.784   6.688   1.774 -1.9428 -1.5935  3.1190
  553MOL0     H72995   5.492   6.304   2.392  2.5543  1.3690  3.0499
  553MOL0     H72996   5.609   6.463   2.524  1.6572  0.2190 -0.1126
  554MOL0     O72997  10.630   6.722   5.169 -0.2187 -0.3351 -0.1630
  554MOL0     C72998  10.618   6.806   5.257 -0.5388  0.0602  0.3518
  554MOL0     O72999  10.519   6.897   5.274  1.1290  0.5710 -0.4470
  554MOL0     C73000  10.407   6.889   5.189 -0.1612 -0.0673  0.8365
  554MOL0     C73001  10.352   6.777   5.113 -0.1146 -0.7422  0.3269
  554MOL0     C73002  10.245   6.786   5.026 -0.0720 -0.2355  0.4383
  554MOL0     C73003  10.187   6.911   5.003 -0.8995  0.2216 -0.6565
  554MOL0     O73004  10.092   6.915   4.912  0.0849 -0.9230  0.3966
  554MOL0     C73005  10.084   7.008   4.802 -0.8201  0.0269 -0.3031
  554MOL0     C73006   9.972   6.955   4.716 -0.1746  0.0635  0.8556
  554MOL0     C73007   9.963   7.036   4.585 -0.5725 -0.7499 -0.0099
  554MOL0     C73008   9.847   6.987   4.503  0.6147  0.7084 -0.5590
  554MOL0     C73009   9.820   7.039   4.356 -0.0195 -0.0186  0.2477
  554MOL0     C73010   9.930   6.986   4.259 -0.2289 -0.0520  0.5067
  554MOL0     C73011   9.937   7.078   4.138  0.1229  0.5529  0.1011
  554MOL0     C73012   9.989   7.007   4.017 -0.1736  0.5631  0.4689
  554MOL0     N73013  10.132   6.968   4.038  0.1533 -0.3556  0.5966
  554MOL0     C73014  10.159   6.835   4.079 -0.2347 -0.1660 -0.4583
  554MOL0     C73015  10.288   6.838   4.111 -0.1089 -0.1409 -0.4120
  554MOL0     C73016  10.384   6.717   4.121 -0.2377  0.2214 -0.0086
  554MOL0     C73017  10.479   6.700   4.002 -0.3357  0.0841  0.5957
  554MOL0     C73018  10.402   6.656   3.884  0.2728 -0.1995 -0.2545
  554MOL0     C73019  10.490   6.588   3.785  0.3294 -0.3734  0.1494
  554MOL0     O73020  10.412   6.562   3.668  0.0367 -0.3298 -0.0674
  554MOL0     C73021  10.459   6.499   3.566 -0.4061  0.1780 -0.0289
  554MOL0     C73022  10.592   6.462   3.550 -0.3123 -1.1394  0.8303
  554MOL0     C73023  10.638   6.405   3.426  0.3975 -0.6174  0.4692
  554MOL0     C73024  10.547   6.397   3.314  0.0089  0.0811  0.6308
  554MOL0     C73025  10.583   6.360   3.172  0.7053 -1.1320 -0.3498
  554MOL0     O73026  10.496   6.383   3.072 -0.0457 -0.4451  0.2541
  554MOL0     C73027  10.520   6.336   2.946 -0.2446 -0.8242 -0.5832
  554MOL0     C73028  10.613   6.407   2.861  0.4675 -0.4772  0.0747
  554MOL0     C73029  10.634   6.357   2.733  0.8675 -0.0303  0.8397
  554MOL0     C73030  10.571   6.238   2.695  0.7156 -0.3125 -0.8546
  554MOL0     O73031  10.581   6.204   2.568 -1.0011 -0.1267  0.9886
  554MOL0     C73032  10.531   6.090   2.508  0.4195 -0.4499  0.8154
  554MOL0     C73033  10.582   6.072   2.364 -0.3495 -0.6233  0.4476
  554MOL0     C73034  10.725   6.100   2.333 -0.2788 -0.4665  0.5945
  554MOL0     C73035  10.827   6.023   2.412 -0.0974 -0.3035  0.3262
  554MOL0     C73036  10.974   6.082   2.397  0.4531 -0.8135  0.2842
  554MOL0     C73037  11.017   6.076   2.252  1.1629  0.7173  0.1717
  554MOL0     C73038  11.166   6.114   2.233 -0.1481  0.7188 -0.2222
  554MOL0     C73039  11.198   6.246   2.281 -0.7707 -0.8218 -0.2663
  554MOL0    Cl73040  11.354   6.292   2.210 -1.0318  0.1195  0.1531
  554MOL0     C73041  10.494   6.162   2.784 -0.5790  0.3015  0.2329
  554MOL0     C73042  10.469   6.212   2.910  0.1246 -0.6157  0.2197
  554MOL0     O73043  10.693   6.318   3.161 -0.1407 -0.3745 -0.6460
  554MOL0     C73044  10.412   6.425   3.336 -0.4207 -0.0070  0.0500
  554MOL0     C73045  10.372   6.482   3.455  0.4889  0.2150 -0.5603
  554MOL0     N73046  10.324   6.974   4.104 -0.4496 -0.0379 -0.9580
  554MOL0     N73047  10.233   7.047   4.069 -0.0864  0.3142  0.9664
  554MOL0     C73048  10.243   7.018   5.062 -0.3573  0.0438  0.7678
  554MOL0     C73049  10.342   7.012   5.162  0.0803  0.4268  0.2272
  554MOL0     C73050  10.724   6.810   5.358  0.4041  0.0140  0.3665
  554MOL0     C73051  10.692   6.846   5.492 -0.1647  0.7089 -0.1601
  554MOL0     C73052  10.798   6.856   5.579 -0.2304  0.0211  0.9198
  554MOL0     C73053  10.933   6.844   5.536  0.0863 -0.3455  0.0238
  554MOL0     O73054  11.039   6.863   5.615  0.1823  0.8715  0.2865
  554MOL0     C73055  11.118   6.983   5.582 -0.7003 -0.3309 -0.1328
  554MOL0     C73056  11.196   7.037   5.703 -0.2710 -0.4838  0.2626
  554MOL0     C73057  11.134   7.162   5.769  0.7557  0.3144 -0.5326
  554MOL0     C73058  10.984   7.157   5.796  1.0898  0.2855 -1.0494
  554MOL0     C73059  10.930   7.046   5.890 -0.8144  0.0157 -0.1075
  554MOL0     C73060  10.869   6.962   5.964 -0.2345 -0.4494  0.0868
  554MOL0     C73061  10.961   6.801   5.404 -0.1377  0.4284  0.1928
  554MOL0     C73062  10.862   6.782   5.312  0.6000 -0.3371  0.8505
  554MOL0     H73063  10.410   6.686   5.125 -1.8251 -1.5563  3.5692
  554MOL0     H73064  10.232   6.711   4.949  1.7995  1.5051 -1.7074
  554MOL0     H73065  10.186   7.016   4.762  0.9305 -3.5381  2.7810
  554MOL0     H73066  10.069   7.115   4.822  0.5993  0.7588 -2.6749
  554MOL0     H73067   9.874   6.959   4.765 -1.3417  0.9409 -1.3994
  554MOL0     H73068   9.993   6.854   4.680  1.4739  1.1064 -1.3581
  554MOL0     H73069  10.053   7.036   4.523 -0.1113  0.4020  0.6341
  554MOL0     H73070   9.932   7.139   4.604  0.8538 -0.2994 -0.0081
  554MOL0     H73071   9.847   6.878   4.502 -2.5177  0.6085 -0.5317
  554MOL0     H73072   9.759   7.018   4.560  2.5726  2.9845  1.4731
  554MOL0     H73073   9.812   7.148   4.358 -0.6254 -0.0628  2.0149
  554MOL0     H73074   9.720   7.013   4.321 -0.7940  2.4788  0.4080
  554MOL0     H73075   9.904   6.884   4.232 -1.4792  0.5581 -0.7339
  554MOL0     H73076  10.029   6.987   4.304  2.8462 -1.6398 -5.2532
  554MOL0     H73077   9.839   7.119   4.111  1.1565  1.8936 -1.8464
  554MOL0     H73078   9.997   7.167   4.160  3.0419 -1.1305 -0.5400
  554MOL0     H73079   9.976   7.069   3.927 -0.1434 -0.4155 -0.2231
  554MOL0     H73080   9.936   6.915   3.992 -1.3146  1.2444  0.2951
  554MOL0     H73081  10.087   6.755   4.089 -1.7097  1.3113  1.4820
  554MOL0     H73082  10.326   6.625   4.127  2.3395 -1.6766 -1.8689
  554MOL0     H73083  10.443   6.733   4.212 -0.5804 -0.2433  0.2998
  554MOL0     H73084  10.551   6.619   4.020  0.9746  1.1118  0.1312
  554MOL0     H73085  10.539   6.787   3.974  0.3133 -0.0665  1.4645
  554MOL0     H73086  10.330   6.579   3.912  1.5335 -2.0562 -1.8423
  554MOL0     H73087  10.351   6.743   3.843 -2.3388 -2.1004 -1.3333
  554MOL0     H73088  10.537   6.504   3.837  3.7223 -0.0160 -2.0334
  554MOL0     H73089  10.574   6.656   3.765 -1.3420  3.0516  3.4765
  554MOL0     H73090  10.660   6.478   3.633  1.2235  0.3704 -0.6366
  554MOL0     H73091  10.739   6.372   3.409  1.3057  2.9566 -2.5341
  554MOL0     H73092  10.652   6.503   2.892 -1.4272  0.1770  0.5550
  554MOL0     H73093  10.701   6.404   2.661  0.6127 -0.3126  0.4104
  554MOL0     H73094  10.424   6.109   2.495  0.8791  3.0384  1.1295
  554MOL0     H73095  10.551   6.004   2.572 -0.4002 -0.8709  0.5170
  554MOL0     H73096  10.532   6.155   2.313 -0.3763  0.2408  1.8307
  554MOL0     H73097  10.540   5.975   2.332 -0.9215 -0.4992  0.8008
  554MOL0     H73098  10.753   6.205   2.342 -4.0487  0.6755  0.6416
  554MOL0     H73099  10.742   6.084   2.227  1.5137  2.0922  0.3940
  554MOL0     H73100  10.804   6.037   2.518 -1.4074  1.8856 -0.1807
  554MOL0     H73101  10.815   5.917   2.389 -1.4846 -0.1879  0.4592
  554MOL0     H73102  11.039   6.029   2.468  1.4680  1.0714  0.8206
  554MOL0     H73103  10.968   6.187   2.426  0.1530 -0.4638 -0.9751
  554MOL0     H73104  10.955   6.150   2.201 -1.2462  0.0000  1.9284
  554MOL0     H73105  11.011   5.976   2.208  1.0643  0.9562 -0.3749
  554MOL0     H73106  11.234   6.043   2.281 -0.4873 -2.0523 -3.3987
  554MOL0     H73107  11.189   6.102   2.126  1.3367 -2.1891  0.3138
  554MOL0     H73108  11.204   6.250   2.390 -1.4688  1.5286 -0.2547
  554MOL0     H73109  11.113   6.312   2.257 -2.1493 -1.4179  2.5339
  554MOL0     H73110  10.452   6.066   2.756 -0.4442 -0.2769  1.9270
  554MOL0     H73111  10.422   6.148   2.984  0.4063 -1.7988 -0.5991
  554MOL0     H73112  10.341   6.412   3.255  0.4125 -0.5342 -0.6193
  554MOL0     H73113  10.268   6.508   3.464  0.0804 -0.7603 -2.0515
  554MOL0     H73114  10.192   7.114   5.051  0.3651  0.2507 -1.0104
  554MOL0     H73115  10.376   7.104   5.207 -1.0652  0.5929  0.8024
  554MOL0     H73116  10.589   6.856   5.525 -0.1741  1.9466 -0.5213
  554MOL0     H73117  10.790   6.874   5.685 -2.0588  1.9206  0.5298
  554MOL0     H73118  11.052   7.063   5.548 -3.1805 -0.5105  3.7535
  554MOL0     H73119  11.196   6.967   5.507  2.4186  3.4241  1.9247
  554MOL0     H73120  11.226   6.957   5.771  0.4697 -0.8897 -0.5135
  554MOL0     H73121  11.292   7.074   5.665 -1.2221 -0.2263 -2.0686
  554MOL0     H73122  11.155   7.252   5.712 -1.9276  1.7940  0.6137
  554MOL0     H73123  11.175   7.174   5.870 -0.8489  1.1166  0.0581
  554MOL0     H73124  10.957   7.251   5.845 -0.0061  1.0225 -2.9494
  554MOL0     H73125  10.936   7.159   5.698  0.9124  0.3732 -0.9609
  554MOL0     H73126  10.822   6.897   6.035  1.6889 -1.1608  0.7751
  554MOL0     H73127  11.065   6.786   5.377 -0.2820  0.3764 -0.3608
  554MOL0     H73128  10.890   6.755   5.211 -1.5595  1.1223 -0.2151
  555MOL0     O73129  10.337  10.591   3.643  0.2237  0.0645  0.2907
  555MOL0     C73130  10.310  10.595   3.523  0.1043  0.6664  0.4648
  555MOL0     O73131  10.258  10.700   3.455 -0.7634 -0.5814  0.6641
  555MOL0     C73132  10.246  10.814   3.517  0.4970 -0.8132 -0.0883
  555MOL0     C73133  10.156  10.831   3.628 -0.5318  0.3164 -0.4910
  555MOL0     C73134  10.147  10.953   3.699  0.5347  0.0259  0.5846
  555MOL0     C73135  10.219  11.068   3.668  0.4119 -0.1721 -0.8844
  555MOL0     O73136  10.217  11.190   3.739 -0.4187  0.3244 -0.2077
  555MOL0     C73137  10.183  11.197   3.877  0.3446  0.3862  0.3485
  555MOL0     C73138  10.190  11.346   3.917  0.4733  0.9444  0.6840
  555MOL0     C73139  10.167  11.386   4.063  0.3898 -0.7498 -0.3114
  555MOL0     C73140  10.199  11.529   4.064  0.4253  0.4011  0.2246
  555MOL0     C73141  10.143  11.583   4.200 -0.5569  1.0437 -0.3084
  555MOL0     C73142  10.171  11.728   4.217 -0.1066 -0.2620 -0.4923
  555MOL0     C73143  10.169  11.750   4.370 -0.2102 -0.1639  1.3242
  555MOL0     C73144  10.238  11.879   4.409 -0.7494  1.2386 -0.4182
  555MOL0     N73145  10.183  11.997   4.337  0.3407 -0.5046  0.2587
  555MOL0     C73146  10.254  12.065   4.233  0.2666  0.6165  0.0367
  555MOL0     C73147  10.186  12.172   4.205 -0.5308 -0.2406 -0.7191
  555MOL0     C73148  10.219  12.279   4.098 -0.7713  0.2771  0.1995
  555MOL0     C73149  10.316  12.384   4.148  0.0265  0.7184 -0.4454
  555MOL0     C73150  10.264  12.456   4.279 -0.2638 -0.3895 -0.0433
  555MOL0     C73151  10.177  12.576   4.240 -0.1647 -0.4463 -1.1318
  555MOL0     O73152  10.135  12.646   4.362 -0.8100  0.0017 -0.4225
  555MOL0     C73153  10.099  12.780   4.359 -0.3683 -0.5643 -0.5597
  555MOL0     C73154  10.075  12.845   4.243  0.8326  0.5204  0.4846
  555MOL0     C73155  10.048  12.978   4.246 -0.3647  0.7693  0.5648
  555MOL0     C73156  10.006  13.037   4.368  0.6278  0.7098  0.2983
  555MOL0     C73157   9.957  13.182   4.359 -0.0663 -0.8075  0.1944
  555MOL0     O73158   9.918  13.241   4.472  0.8404  0.5689 -0.2995
  555MOL0     C73159   9.867  13.372   4.469  0.7362  0.4923  0.7350
  555MOL0     C73160   9.749  13.398   4.541 -0.4181 -1.0895  0.2489
  555MOL0     C73161   9.693  13.530   4.549 -0.4387  0.2879 -0.7734
  555MOL0     C73162   9.768  13.631   4.482  0.3739  0.2154 -0.0555
  555MOL0     O73163   9.717  13.756   4.461  0.6631  0.1520 -0.2555
  555MOL0     C73164   9.624  13.813   4.554 -0.5389 -0.1563  0.1116
  555MOL0     C73165   9.685  13.855   4.688  0.7373  0.0016 -0.3732
  555MOL0     C73166   9.592  13.939   4.785 -0.3158  0.5717 -0.1811
  555MOL0     C73167   9.498  13.834   4.853  0.0958  0.0504 -0.0938
  555MOL0     C73168   9.445  13.872   5.000 -0.3445  0.9663 -0.5932
  555MOL0     C73169   9.562  13.864   5.097  0.3275  0.5236 -0.2535
  555MOL0     C73170   9.527  13.892   5.242  1.0140 -0.7545  0.5586
  555MOL0     C73171   9.637  13.854   5.337 -1.2873 -0.4507  0.3829
  555MOL0    Cl73172   9.769  13.971   5.362  0.0759 -0.1926  0.0833
  555MOL0     C73173   9.886  13.595   4.409  0.3577 -0.3064  0.8720
  555MOL0     C73174   9.928  13.471   4.398 -0.7655  0.2381 -0.1320
  555MOL0     O73175   9.934  13.226   4.245 -0.3557 -0.5243  0.2705
  555MOL0     C73176  10.017  12.958   4.482  0.2975 -0.1817 -0.5314
  555MOL0     C73177  10.073  12.837   4.481  0.2916 -0.3898 -0.2610
  555MOL0     N73178  10.075  12.180   4.281  0.6329  0.0926 -0.9328
  555MOL0     N73179  10.066  12.076   4.362 -0.4574 -0.3707 -0.1836
  555MOL0     C73180  10.315  11.050   3.566  0.8020  0.3097 -0.4946
  555MOL0     C73181  10.325  10.930   3.489 -0.4919 -0.0071 -0.0396
  555MOL0     C73182  10.320  10.463   3.460 -0.6543  0.3150  0.4614
  555MOL0     C73183  10.259  10.452   3.339 -0.7431 -0.1095  0.3621
  555MOL0     C73184  10.277  10.331   3.264 -0.2303  0.4056 -0.0951
  555MOL0     C73185  10.350  10.225   3.317 -0.2428  0.7350 -0.0730
  555MOL0     O73186  10.358  10.107   3.253 -0.7264  0.0734  0.8186
  555MOL0     C73187  10.238  10.020   3.250 -0.0891  1.0193  0.3595
  555MOL0     C73188  10.273   9.887   3.177 -0.3402 -0.3911 -0.7856
  555MOL0     C73189  10.152   9.786   3.184 -0.1412  0.2124 -0.1427
  555MOL0     C73190  10.170   9.669   3.093  0.0423  0.2656  0.0392
  555MOL0     C73191  10.066   9.566   3.121  0.3838 -1.1643 -0.6468
  555MOL0     C73192   9.964   9.494   3.137  0.1676  0.0731  0.0555
  555MOL0     C73193  10.415  10.243   3.445  0.3845 -0.0281  1.3307
  555MOL0     C73194  10.398  10.361   3.515  0.2483  0.1206 -0.7179
  555MOL0     H73195  10.097  10.751   3.671  0.3771 -0.8864 -1.3905
  555MOL0     H73196  10.075  10.943   3.780 -2.2754 -1.4637 -1.9006
  555MOL0     H73197  10.246  11.132   3.939 -2.2463 -1.0717  1.6127
  555MOL0     H73198  10.085  11.152   3.890  0.3499 -0.1278 -1.1589
  555MOL0     H73199  10.122  11.394   3.846  2.4524  5.7608  1.6265
  555MOL0     H73200  10.292  11.374   3.888  0.7928 -2.3120 -1.9019
  555MOL0     H73201  10.234  11.335   4.132  2.3003  2.4858  0.4155
  555MOL0     H73202  10.059  11.372   4.076  0.4776  0.9900  3.6874
  555MOL0     H73203  10.307  11.538   4.057  0.3394  0.9667 -0.5693
  555MOL0     H73204  10.151  11.576   3.977  0.1270 -1.5023 -0.6910
  555MOL0     H73205  10.197  11.528   4.277  0.2833 -1.4109 -2.4975
  555MOL0     H73206  10.037  11.570   4.221 -0.6619 -0.3997 -1.5433
  555MOL0     H73207  10.113  11.804   4.165  0.2112  0.3455  0.0350
  555MOL0     H73208  10.274  11.745   4.184  0.8751 -0.0636  2.4415
  555MOL0     H73209  10.070  11.735   4.414 -0.9707 -1.2495 -0.6320
  555MOL0     H73210  10.238  11.679   4.417  2.0502  0.7967 -0.3245
  555MOL0     H73211  10.345  11.868   4.390  0.1190  2.0513  3.1974
  555MOL0     H73212  10.233  11.897   4.517  0.4107  0.2128 -0.1671
  555MOL0     H73213  10.340  12.036   4.173  0.1665  1.6020 -0.5987
  555MOL0     H73214  10.124  12.328   4.074 -1.6476 -1.3717  0.1723
  555MOL0     H73215  10.258  12.241   4.003  3.4305  2.5961  0.7609
  555MOL0     H73216  10.341  12.458   4.071 -2.9374  2.3148 -0.0396
  555MOL0     H73217  10.410  12.330   4.161 -0.0830  0.2857 -1.3593
  555MOL0     H73218  10.209  12.385   4.341  2.3297 -0.6950  2.0768
  555MOL0     H73219  10.351  12.497   4.331 -1.8843  0.0330  2.4968
  555MOL0     H73220  10.087  12.552   4.183 -2.1944  0.8305  1.3382
  555MOL0     H73221  10.248  12.639   4.185  0.5504  1.3495  1.6270
  555MOL0     H73222  10.108  12.807   4.147  0.3766  2.8397 -0.6611
  555MOL0     H73223  10.028  13.033   4.155 -0.4430  0.9509  0.6914
  555MOL0     H73224   9.710  13.312   4.595  0.1016 -0.9292  0.8902
  555MOL0     H73225   9.603  13.552   4.605  0.2687 -0.6466  0.8076
  555MOL0     H73226   9.542  13.743   4.576 -0.3665 -0.1018  0.9536
  555MOL0     H73227   9.572  13.896   4.505 -2.4617 -0.8330  0.8989
  555MOL0     H73228   9.760  13.929   4.660  0.8412  0.4940  1.1159
  555MOL0     H73229   9.725  13.767   4.738 -0.3623  0.9603  2.3799
  555MOL0     H73230   9.529  14.018   4.744 -1.8733 -0.5381 -0.0214
  555MOL0     H73231   9.654  13.995   4.856 -0.8018  0.1610  0.5889
  555MOL0     H73232   9.416  13.824   4.781  1.2918 -0.5412 -1.4026
  555MOL0     H73233   9.556  13.741   4.855  0.5124  0.3123  1.4900
  555MOL0     H73234   9.357  13.813   5.026 -2.1264  2.7901 -2.1549
  555MOL0     H73235   9.403  13.972   5.014 -2.0530  0.0626  1.1031
  555MOL0     H73236   9.663  13.901   5.079  1.6233 -1.3573  2.4487
  555MOL0     H73237   9.579  13.756   5.097 -0.7032  0.2460 -3.5273
  555MOL0     H73238   9.522  14.001   5.244 -0.1053 -0.7883  0.2631
  555MOL0     H73239   9.429  13.853   5.272 -0.6247  2.3094 -0.3923
  555MOL0     H73240   9.672  13.752   5.319  1.3334  0.5469 -0.6356
  555MOL0     H73241   9.588  13.854   5.435  0.1000  0.2260  1.1155
  555MOL0     H73242   9.942  13.675   4.362  1.6571 -0.8270  1.4742
  555MOL0     H73243  10.018  13.450   4.342  0.3678  3.4043  0.3308
  555MOL0     H73244   9.986  12.986   4.582  6.1519 -1.2211  1.9910
  555MOL0     H73245  10.095  12.778   4.569  0.9764  1.2935  0.7292
  555MOL0     H73246  10.368  11.137   3.528 -3.5457  2.3267 -2.8181
  555MOL0     H73247  10.395  10.933   3.407  0.9726 -1.6587  1.0878
  555MOL0     H73248  10.202  10.526   3.283 -1.1673  0.2684  1.2725
  555MOL0     H73249  10.228  10.320   3.168 -4.2504 -3.3689  2.0340
  555MOL0     H73250  10.148  10.067   3.209 -0.4753  1.7763  1.9880
  555MOL0     H73251  10.210   9.989   3.351 -0.5341  3.0982  0.9227
  555MOL0     H73252  10.292   9.913   3.073 -1.8017  1.1331 -0.7260
  555MOL0     H73253  10.363   9.843   3.220 -0.9975  0.3894  1.5565
  555MOL0     H73254  10.052   9.831   3.171 -0.2554  0.9919  2.7583
  555MOL0     H73255  10.153   9.750   3.287  1.5615  0.8897  0.1082
  555MOL0     H73256  10.159   9.696   2.987  0.3733  2.2409  0.4803
  555MOL0     H73257  10.273   9.640   3.116 -0.3095 -1.1468 -0.0770
  555MOL0     H73258   9.891   9.421   3.166 -0.3573 -1.0081 -3.5954
  555MOL0     H73259  10.492  10.170   3.468  0.1239 -0.9967 -0.6326
  555MOL0     H73260  10.454  10.374   3.608 -1.8316  1.8179  0.4101
  556MOL0     O73261   6.909   1.195   0.379  0.1379  0.1815  1.9214
  556MOL0     C73262   6.966   1.106   0.316 -0.2755  0.2437 -0.4623
  556MOL0     O73263   7.042   1.119   0.191  1.0693 -0.0138 -0.2147
  556MOL0     C73264   7.083   1.247   0.157 -0.4641 -0.6040  0.6736
  556MOL0     C73265   7.086   1.292   0.026  1.1261 -0.2340  0.2834
  556MOL0     C73266   7.145   1.410  -0.010 -0.1293  0.2807  0.2779
  556MOL0     C73267   7.224   1.474   0.079 -0.1812 -0.6447  0.3421
  556MOL0     O73268   7.301   1.576   0.029  0.0313 -0.6345 -0.7684
  556MOL0     C73269   7.405   1.632   0.118  0.0360 -0.4116 -0.3694
  556MOL0     C73270   7.497   1.729   0.034 -1.1624  0.6442  0.2885
  556MOL0     C73271   7.579   1.828   0.108  0.2328  0.5373 -0.2024
  556MOL0     C73272   7.662   1.757   0.217 -0.3417  0.1252  0.7855
  556MOL0     C73273   7.745   1.857   0.295  0.5119  0.6732 -0.2368
  556MOL0     C73274   7.826   1.794   0.411  0.0581  0.6036 -0.2145
  556MOL0     C73275   7.965   1.865   0.424 -1.1575  0.7218  0.4341
  556MOL0     C73276   8.034   1.849   0.556 -0.4222 -0.3089  0.8445
  556MOL0     N73277   8.171   1.905   0.555 -0.5311 -0.6899 -0.1467
  556MOL0     C73278   8.199   2.045   0.589 -0.2288  0.2942 -0.1130
  556MOL0     C73279   8.337   2.034   0.623  0.0010  0.6900  0.1698
  556MOL0     C73280   8.429   2.143   0.674  0.1707 -0.1592  0.4426
  556MOL0     C73281   8.415   2.171   0.826 -0.3410  0.1955  0.1387
  556MOL0     C73282   8.487   2.297   0.872  0.9555  0.5565  0.4528
  556MOL0     C73283   8.637   2.273   0.883 -0.6432 -1.5502  0.5131
  556MOL0     O73284   8.708   2.397   0.895 -0.2469 -0.1165  0.1650
  556MOL0     C73285   8.754   2.426   1.023  0.4805  0.9807 -0.2848
  556MOL0     C73286   8.811   2.328   1.105  1.3958 -0.1933 -0.2502
  556MOL0     C73287   8.834   2.359   1.231 -0.5708 -0.3748 -0.1547
  556MOL0     C73288   8.820   2.485   1.290  0.0432 -0.0699 -0.4788
  556MOL0     C73289   8.857   2.515   1.428  0.7957  0.1850  0.1791
  556MOL0     O73290   8.935   2.434   1.496 -0.5058  0.7221 -0.2911
  556MOL0     C73291   8.989   2.486   1.609  0.0534 -0.5926  0.2203
  556MOL0     C73292   9.108   2.553   1.590  0.6780 -0.1314  0.2767
  556MOL0     C73293   9.156   2.621   1.701 -0.2412  0.1733  0.3666
  556MOL0     C73294   9.100   2.600   1.830  0.8165  0.2639  0.5661
  556MOL0     O73295   9.142   2.659   1.950 -1.2697 -0.0539 -0.0719
  556MOL0     C73296   9.261   2.733   1.940 -0.3925 -0.3541 -0.0244
  556MOL0     C73297   9.298   2.786   2.076  0.2939  0.6889  0.0107
  556MOL0     C73298   9.217   2.893   2.148 -0.6224 -0.3307  0.1992
  556MOL0     C73299   9.068   2.864   2.202 -0.4377  0.6147 -0.1511
  556MOL0     C73300   9.049   2.737   2.275 -0.6996 -0.6273 -0.1894
  556MOL0     C73301   8.905   2.738   2.323 -0.4100 -0.5646  0.6966
  556MOL0     C73302   8.871   2.614   2.406  0.1868  0.1722 -0.1879
  556MOL0     C73303   8.942   2.614   2.541 -0.8472  1.5752 -0.5167
  556MOL0    Cl73304   9.109   2.559   2.535 -0.0728 -0.1112 -0.1132
  556MOL0     C73305   8.976   2.530   1.838  0.1743  0.0011  0.0248
  556MOL0     C73306   8.921   2.465   1.729 -0.2492  0.2383  0.8810
  556MOL0     O73307   8.829   2.632   1.469  0.2602 -0.0930  0.2712
  556MOL0     C73308   8.768   2.585   1.203 -0.4242  0.0272 -0.6819
  556MOL0     C73309   8.732   2.551   1.069 -0.1952  0.3466 -0.4073
  556MOL0     N73310   8.379   1.910   0.600 -0.2208  0.9502 -0.8177
  556MOL0     N73311   8.284   1.828   0.571  0.3022  0.2388 -0.7460
  556MOL0     C73312   7.226   1.432   0.206 -0.0596 -0.7763 -0.6721
  556MOL0     C73313   7.148   1.330   0.255 -0.4888 -0.0847  0.5738
  556MOL0     C73314   6.953   0.972   0.376 -0.4626 -0.3240 -0.3455
  556MOL0     C73315   7.048   0.878   0.335  0.4709 -0.5205  0.8661
  556MOL0     C73316   7.036   0.748   0.386 -0.4542  0.1187 -0.3857
  556MOL0     C73317   6.944   0.705   0.473 -0.3843  0.3234 -0.7701
  556MOL0     O73318   6.941   0.570   0.513 -1.0826 -0.1569  0.3371
  556MOL0     C73319   6.864   0.544   0.629 -0.0025 -0.2142  0.0197
  556MOL0     C73320   6.856   0.393   0.658  0.1643  0.0743  0.4429
  556MOL0     C73321   6.780   0.341   0.787 -0.0452 -0.7413  0.2798
  556MOL0     C73322   6.767   0.189   0.791  0.1818  0.2773 -0.1410
  556MOL0     C73323   6.741   0.143   0.929 -0.0082  0.4381 -0.3127
  556MOL0     C73324   6.721   0.095   1.041 -0.6433 -0.4206  0.2821
  556MOL0     C73325   6.852   0.803   0.514  1.0401  0.3768  0.9262
  556MOL0     C73326   6.854   0.933   0.462 -0.7727  0.3824 -0.1915
  556MOL0     H73327   7.041   1.231  -0.052  2.7190  0.2879 -1.1205
  556MOL0     H73328   7.152   1.433  -0.116 -1.5944  2.0972  0.5221
  556MOL0     H73329   7.462   1.554   0.169  2.3897  0.5003 -1.4435
  556MOL0     H73330   7.360   1.690   0.200  0.0355 -0.2799 -0.4618
  556MOL0     H73331   7.432   1.781  -0.037  0.3807  0.7082 -1.1265
  556MOL0     H73332   7.562   1.666  -0.028  1.4064  0.5865  2.8254
  556MOL0     H73333   7.517   1.903   0.158  2.2314 -0.0445  3.5405
  556MOL0     H73334   7.639   1.878   0.032 -1.1503  4.3255  0.9953
  556MOL0     H73335   7.597   1.716   0.296 -1.5565  2.7532  1.2381
  556MOL0     H73336   7.724   1.676   0.176 -0.7479 -0.6402  1.6243
  556MOL0     H73337   7.686   1.940   0.335  3.2794  2.4557  0.4826
  556MOL0     H73338   7.813   1.913   0.230  2.0555  1.1049  1.6355
  556MOL0     H73339   7.845   1.687   0.396 -1.3216 -0.0286  2.1418
  556MOL0     H73340   7.773   1.807   0.505  3.6585  1.1764  1.9496
  556MOL0     H73341   8.029   1.840   0.339 -2.4114 -1.2826  0.0106
  556MOL0     H73342   7.928   1.968   0.423 -2.2849  0.3304 -0.3455
  556MOL0     H73343   8.044   1.744   0.584 -3.3607 -0.5574  1.3190
  556MOL0     H73344   7.977   1.902   0.632  3.2789  3.6043  1.2130
  556MOL0     H73345   8.146   2.136   0.564 -2.1531 -1.1452 -1.5613
  556MOL0     H73346   8.416   2.234   0.615  0.2203  1.0683  2.2709
  556MOL0     H73347   8.535   2.124   0.656 -0.1625 -1.4549 -0.3258
  556MOL0     H73348   8.466   2.088   0.875  1.3136 -0.8022 -2.9971
  556MOL0     H73349   8.311   2.183   0.860 -1.9165  0.6328 -4.2579
  556MOL0     H73350   8.454   2.386   0.817 -0.6425 -0.2123  0.1110
  556MOL0     H73351   8.457   2.307   0.977  0.6878 -1.1708  0.5725
  556MOL0     H73352   8.677   2.231   0.790  2.6981 -2.3614  2.1536
  556MOL0     H73353   8.655   2.197   0.961 -1.9251 -1.7862  0.5993
  556MOL0     H73354   8.847   2.239   1.053 -0.0828 -2.1653  1.9301
  556MOL0     H73355   8.876   2.275   1.286  0.2344 -0.5348 -1.0051
  556MOL0     H73356   9.162   2.543   1.496 -0.7604 -2.4498 -0.3969
  556MOL0     H73357   9.249   2.672   1.678  0.0955 -1.4611 -2.2625
  556MOL0     H73358   9.260   2.825   1.881  0.2579  0.1366  0.7027
  556MOL0     H73359   9.340   2.666   1.908 -0.9775  1.0102 -5.0951
  556MOL0     H73360   9.398   2.822   2.051 -0.0926  2.1591  0.4357
  556MOL0     H73361   9.318   2.703   2.145  0.1516  0.1173 -0.6288
  556MOL0     H73362   9.220   2.981   2.083 -2.3597 -0.6577 -0.3668
  556MOL0     H73363   9.281   2.931   2.229  1.4768  0.7487 -1.8464
  556MOL0     H73364   9.056   2.943   2.276 -0.7517  0.8051 -0.4009
  556MOL0     H73365   8.995   2.871   2.120  0.1068  2.8641 -0.4967
  556MOL0     H73366   9.125   2.753   2.352 -0.0263 -1.7365 -0.6086
  556MOL0     H73367   9.070   2.650   2.211 -1.9621 -1.5783  0.6274
  556MOL0     H73368   8.841   2.750   2.236 -0.1603  2.4715  0.8081
  556MOL0     H73369   8.888   2.820   2.394 -1.6537 -1.4573  1.4759
  556MOL0     H73370   8.766   2.630   2.434  0.4432  2.3564 -0.2958
  556MOL0     H73371   8.873   2.515   2.360 -0.4185 -0.7174  1.6338
  556MOL0     H73372   8.890   2.550   2.612  1.4338 -2.2365 -1.9804
  556MOL0     H73373   8.946   2.709   2.595  1.1762  0.0188  2.3019
  556MOL0     H73374   8.934   2.521   1.938  0.7219 -1.4302  0.1495
  556MOL0     H73375   8.824   2.417   1.726  0.4105 -1.0778 -1.8053
  556MOL0     H73376   8.758   2.691   1.226 -0.0003  0.1256 -0.9282
  556MOL0     H73377   8.691   2.616   0.992  0.6291 -1.4898 -2.4859
  556MOL0     H73378   7.292   1.473   0.282 -1.7331 -2.1333  1.6282
  556MOL0     H73379   7.133   1.310   0.360 -1.6556 -1.4825  0.1804
  556MOL0     H73380   7.131   0.899   0.268  0.9767  0.0455  1.6493
  556MOL0     H73381   7.105   0.671   0.352 -1.5841 -0.8663 -0.5087
  556MOL0     H73382   6.760   0.571   0.610  0.3483  1.6524  0.5501
  556MOL0     H73383   6.905   0.590   0.720 -3.2940 -0.0318  1.5498
  556MOL0     H73384   6.821   0.333   0.574  1.7276 -2.1762  1.3100
  556MOL0     H73385   6.958   0.355   0.660  0.5420  1.0216 -0.1546
  556MOL0     H73386   6.677   0.377   0.790 -0.2163 -0.4641 -3.7444
  556MOL0     H73387   6.836   0.375   0.875  1.6945  2.4040 -1.8651
  556MOL0     H73388   6.687   0.154   0.724  1.7901 -1.0823 -1.4491
  556MOL0     H73389   6.861   0.141   0.762  0.6717  0.1337  1.6116
  556MOL0     H73390   6.694   0.048   1.133 -1.6387 -3.4330 -1.4040
  556MOL0     H73391   6.769   0.790   0.583  0.1101  2.0315  0.1868
  556MOL0     H73392   6.784   1.010   0.494 -0.0534 -0.1713  3.1105
  557MOL0     O73393   2.538   1.605  11.310 -0.2887  0.2069  0.2081
  557MOL0     C73394   2.589   1.498  11.269  0.3238  0.1371 -0.2945
  557MOL0     O73395   2.682   1.486  11.175 -0.0384 -0.0819  0.5108
  557MOL0     C73396   2.725   1.592  11.106 -0.2728  0.5983  0.2876
  557MOL0     C73397   2.796   1.694  11.169 -0.3810 -0.6546 -0.1233
  557MOL0     C73398   2.848   1.798  11.092 -1.3300  0.0595 -0.1847
  557MOL0     C73399   2.834   1.818  10.952 -0.3951  0.9421 -0.2818
  557MOL0     O73400   2.900   1.919  10.885 -0.7956  0.8724  0.1856
  557MOL0     C73401   2.815   2.000  10.812 -0.1234  0.4805  0.0873
  557MOL0     C73402   2.906   2.115  10.773  0.1538  0.6287 -0.3320
  557MOL0     C73403   2.940   2.205  10.888 -0.1357 -0.6985 -0.2281
  557MOL0     C73404   3.041   2.316  10.861 -0.3705  0.3691 -0.1117
  557MOL0     C73405   3.064   2.415  10.976  0.5098 -0.9239 -0.3164
  557MOL0     C73406   2.946   2.476  11.048  0.4539  0.1780  0.3303
  557MOL0     C73407   2.968   2.602  11.141 -0.5286  0.7099  0.9518
  557MOL0     C73408   2.842   2.657  11.197  0.3173 -0.7743 -0.3487
  557MOL0     N73409   2.758   2.554  11.271  0.1017 -0.0556 -0.7534
  557MOL0     C73410   2.761   2.541  11.409 -0.2325  0.2059 -0.4937
  557MOL0     C73411   2.663   2.454  11.447 -0.2218 -1.1204 -0.3441
  557MOL0     C73412   2.649   2.397  11.596 -0.8958 -0.2963  0.4004
  557MOL0     C73413   2.657   2.245  11.594 -0.3905 -0.6428 -0.4368
  557MOL0     C73414   2.625   2.188  11.730  0.1838 -0.1905  0.1229
  557MOL0     C73415   2.536   2.071  11.721  0.9438 -0.0741 -0.9395
  557MOL0     O73416   2.396   2.087  11.697 -0.1348 -0.3468  0.8145
  557MOL0     C73417   2.320   1.982  11.640  0.9939  0.3061  0.3802
  557MOL0     C73418   2.365   1.908  11.528  0.1450  0.2120  0.6214
  557MOL0     C73419   2.278   1.830  11.455 -0.5928  0.6020 -0.0110
  557MOL0     C73420   2.149   1.809  11.491 -0.4834 -0.4490  0.3546
  557MOL0     C73421   2.061   1.731  11.407  0.0458  0.6695 -0.1909
  557MOL0     O73422   2.082   1.735  11.270  0.3863 -0.6091  0.3629
  557MOL0     C73423   1.981   1.677  11.187  0.6079 -0.9995 -0.5942
  557MOL0     C73424   1.901   1.567  11.218  0.4993  0.1285  1.3113
  557MOL0     C73425   1.837   1.501  11.118 -0.6360 -0.0664  0.2015
  557MOL0     C73426   1.839   1.542  10.980 -0.2963  0.5407 -0.4229
  557MOL0     O73427   1.771   1.468  10.889  0.2590  0.2760  0.6203
  557MOL0     C73428   1.824   1.339  10.866  0.0842 -0.3530 -0.3381
  557MOL0     C73429   1.755   1.289  10.742  1.4644  1.1811  0.0070
  557MOL0     C73430   1.791   1.348  10.614 -0.1198 -1.1058  0.0757
  557MOL0     C73431   1.686   1.331  10.509 -0.5862  0.1096 -0.2537
  557MOL0     C73432   1.731   1.372  10.359 -0.1431  0.4730 -0.1196
  557MOL0     C73433   1.831   1.279  10.290 -0.1388  0.2906 -0.3833
  557MOL0     C73434   1.870   1.327  10.148  0.3609 -0.2492 -0.2951
  557MOL0     C73435   1.953   1.221  10.083  0.7013 -0.4332 -0.7485
  557MOL0    Cl73436   2.106   1.220  10.151 -0.0652 -0.2463  0.1664
  557MOL0     C73437   1.914   1.650  10.946 -1.4153  0.0055  0.4045
  557MOL0     C73438   1.994   1.710  11.044  0.0954  0.5770 -0.7154
  557MOL0     O73439   1.971   1.673  11.466  0.7385  0.1119 -0.0733
  557MOL0     C73440   2.101   1.881  11.605  0.0465 -0.7977 -0.7044
  557MOL0     C73441   2.183   1.968  11.681  0.9479 -1.3202  1.4482
  557MOL0     N73442   2.610   2.414  11.331  0.2107 -0.3374 -0.0859
  557MOL0     N73443   2.657   2.471  11.228  0.0919 -0.0751  0.7605
  557MOL0     C73444   2.754   1.721  10.895 -0.5645 -0.2219  0.4179
  557MOL0     C73445   2.697   1.612  10.970 -0.0272 -0.4620 -1.5553
  557MOL0     C73446   2.525   1.376  11.321 -0.0002 -0.1669  0.1281
  557MOL0     C73447   2.574   1.249  11.290  0.3155 -0.3081 -0.5977
  557MOL0     C73448   2.510   1.128  11.325  0.9254 -0.4033  0.1843
  557MOL0     C73449   2.387   1.141  11.390  0.0145 -0.2622 -0.2284
  557MOL0     O73450   2.328   1.029  11.444 -0.2014 -0.3060  0.1775
  557MOL0     C73451   2.403   0.913  11.479  0.3199  1.5450 -0.2858
  557MOL0     C73452   2.319   0.817  11.572  0.0178 -0.2756 -0.0849
  557MOL0     C73453   2.247   0.702  11.488  0.6389  0.8878 -0.1167
  557MOL0     C73454   2.131   0.627  11.557  0.9705 -0.4425 -0.0178
  557MOL0     C73455   2.180   0.501  11.608  0.3167  1.2358  0.3433
  557MOL0     C73456   2.225   0.401  11.654  0.1324  0.0431  0.4229
  557MOL0     C73457   2.325   1.261  11.412 -0.6740 -0.2711 -0.4887
  557MOL0     C73458   2.397   1.377  11.378 -0.6508 -0.1778  0.1831
  557MOL0     H73459   2.827   1.702  11.273 -2.7744  2.2882  0.5246
  557MOL0     H73460   2.909   1.879  11.133 -3.0225  1.3237 -0.0488
  557MOL0     H73461   2.738   2.041  10.878  0.8753  2.8939 -0.1327
  557MOL0     H73462   2.782   1.935  10.731  0.1975  0.6301 -0.1698
  557MOL0     H73463   2.856   2.176  10.698  0.2954  1.5547  0.3066
  557MOL0     H73464   2.999   2.085  10.724  0.0641  0.3960 -0.3621
  557MOL0     H73465   2.988   2.149  10.968  2.0999  0.2924 -0.8012
  557MOL0     H73466   2.849   2.254  10.925  1.6217  2.1609  0.6212
  557MOL0     H73467   3.130   2.268  10.820 -2.0631 -5.0018  1.7050
  557MOL0     H73468   2.997   2.375  10.781 -0.9175 -0.9623 -0.8150
  557MOL0     H73469   3.134   2.492  10.943  1.5027 -2.1571 -1.2111
  557MOL0     H73470   3.116   2.354  11.051 -0.3231  0.4536  1.4627
  557MOL0     H73471   2.908   2.392  11.107  1.8257  0.1152  1.1803
  557MOL0     H73472   2.871   2.504  10.973 -0.5758 -0.4386  1.1023
  557MOL0     H73473   3.032   2.576  11.227 -0.9369 -2.1413  0.5117
  557MOL0     H73474   3.024   2.678  11.087 -3.3879  2.6157  0.4689
  557MOL0     H73475   2.787   2.709  11.119  0.5175  3.7761  2.1867
  557MOL0     H73476   2.867   2.741  11.262 -0.2048 -0.1723 -0.9123
  557MOL0     H73477   2.838   2.592  11.466 -3.4013  1.6276  2.9366
  557MOL0     H73478   2.553   2.429  11.637 -3.6766 -2.8701 -3.3551
  557MOL0     H73479   2.733   2.431  11.656  0.5530 -0.6643 -1.3276
  557MOL0     H73480   2.759   2.210  11.577  0.1867  1.4038 -1.4144
  557MOL0     H73481   2.584   2.210  11.521 -0.7050  1.2800 -1.0997
  557MOL0     H73482   2.712   2.167  11.793 -2.2112 -4.2888  2.4679
  557MOL0     H73483   2.568   2.262  11.787  0.6735 -0.6311  1.2069
  557MOL0     H73484   2.536   2.028  11.822 -1.6311  0.6988 -0.5479
  557MOL0     H73485   2.583   1.996  11.657  1.2585 -1.0548  0.3947
  557MOL0     H73486   2.460   1.908  11.474 -0.4618  0.3012 -0.4808
  557MOL0     H73487   2.321   1.777  11.371  1.9383  1.6324  0.5322
  557MOL0     H73488   1.899   1.523  11.317  0.5366 -3.5098 -0.1622
  557MOL0     H73489   1.776   1.413  11.136  0.6207 -1.2708 -1.1989
  557MOL0     H73490   1.802   1.278  10.953 -0.5811  0.7354  0.2803
  557MOL0     H73491   1.929   1.343  10.838  0.0430  2.4107 -0.3314
  557MOL0     H73492   1.647   1.302  10.753  1.3983  3.3422 -2.3052
  557MOL0     H73493   1.772   1.181  10.735 -1.6569  0.4610  1.5917
  557MOL0     H73494   1.889   1.308  10.587 -0.6971 -2.9324  0.5703
  557MOL0     H73495   1.803   1.456  10.629  2.8207 -1.0776 -1.6480
  557MOL0     H73496   1.617   1.246  10.509 -2.8054  1.8121  0.2419
  557MOL0     H73497   1.607   1.405  10.528 -0.2157  0.1407  1.2806
  557MOL0     H73498   1.770   1.474  10.360  5.3383 -1.3468  1.0857
  557MOL0     H73499   1.639   1.378  10.299  0.1965  2.0115 -0.5261
  557MOL0     H73500   1.797   1.176  10.293 -1.0528  0.5943  0.1576
  557MOL0     H73501   1.922   1.269  10.350 -1.6961  1.2043  2.2970
  557MOL0     H73502   1.784   1.345  10.083  1.5286  0.2768 -1.7661
  557MOL0     H73503   1.921   1.424  10.151 -0.8841  0.5059 -2.0116
  557MOL0     H73504   1.956   1.246   9.976  0.9919 -0.5508 -0.7670
  557MOL0     H73505   1.917   1.118  10.080  1.8981 -0.8764 -0.4590
  557MOL0     H73506   1.907   1.682  10.843 -0.9176  0.1542  0.4151
  557MOL0     H73507   2.067   1.786  11.015  2.4575 -0.6454  1.6096
  557MOL0     H73508   1.995   1.868  11.621  0.1576 -1.7478 -0.6714
  557MOL0     H73509   2.153   2.035  11.761  1.2243 -0.6819  1.0248
  557MOL0     H73510   2.742   1.737  10.788  0.7924  2.5812  0.5694
  557MOL0     H73511   2.641   1.535  10.917 -0.7498  0.2515 -1.8413
  557MOL0     H73512   2.676   1.239  11.256  0.9631  0.5657  0.9867
  557MOL0     H73513   2.565   1.034  11.318  3.8285  1.2440 -0.6676
  557MOL0     H73514   2.486   0.943  11.544 -0.5799  0.3978  1.4916
  557MOL0     H73515   2.438   0.864  11.388 -0.9946 -1.5917  0.7598
  557MOL0     H73516   2.390   0.758  11.630 -0.2360 -0.0120  0.5044
  557MOL0     H73517   2.254   0.877  11.636  1.4162  1.2114 -0.0048
  557MOL0     H73518   2.326   0.634  11.455 -0.0553  0.2127 -0.4187
  557MOL0     H73519   2.207   0.758  11.403  1.2559  4.2369  1.6271
  557MOL0     H73520   2.102   0.672  11.652 -0.0465 -2.8770  0.9050
  557MOL0     H73521   2.049   0.613  11.485 -0.0694  0.9400  0.8458
  557MOL0     H73522   2.276   0.316  11.695  0.5803  0.2091  0.2177
  557MOL0     H73523   2.238   1.248  11.476 -1.6226 -2.9150 -2.1483
  557MOL0     H73524   2.354   1.476  11.371  2.2104  1.2261  0.7446
  558MOL0     O73525   5.768  11.342   2.028 -0.4669  0.0941 -1.8743
  558MOL0     C73526   5.862  11.259   2.042  0.1323 -0.0402  0.5290
  558MOL0     O73527   5.867  11.153   2.128  0.2392 -0.1053  0.1592
  558MOL0     C73528   5.766  11.133   2.219 -0.3233 -0.5802  0.0059
  558MOL0     C73529   5.703  11.231   2.307  0.4589  0.3284  0.2370
  558MOL0     C73530   5.607  11.200   2.406 -0.2560  0.0851 -0.0446
  558MOL0     C73531   5.570  11.071   2.417 -0.2098  0.3982 -0.2284
  558MOL0     O73532   5.473  11.042   2.503 -0.4521 -0.3265 -0.7511
  558MOL0     C73533   5.407  10.923   2.539  0.7807  0.0374  0.0799
  558MOL0     C73534   5.288  10.951   2.630 -0.3462 -0.3376 -0.8954
  558MOL0     C73535   5.180  10.842   2.608  0.5577  0.1120  0.0156
  558MOL0     C73536   5.044  10.902   2.640  0.0272 -0.4217 -1.4013
  558MOL0     C73537   4.919  10.801   2.645  0.1052  0.0495  0.6211
  558MOL0     C73538   4.928  10.701   2.769 -0.0679  0.5035  0.0929
  558MOL0     C73539   4.819  10.603   2.800  0.5965 -0.7629  0.1196
  558MOL0     C73540   4.862  10.522   2.921  0.2162 -0.2061 -1.0030
  558MOL0     N73541   4.746  10.495   3.005  0.5038  0.0727 -0.2444
  558MOL0     C73542   4.681  10.372   2.996 -0.5525  0.4431  0.3408
  558MOL0     C73543   4.551  10.378   3.015 -0.2931  0.0033  0.4787
  558MOL0     C73544   4.454  10.256   3.007 -1.3137 -0.7559 -0.5631
  558MOL0     C73545   4.322  10.326   2.964  0.0237 -0.1786  0.0647
  558MOL0     C73546   4.195  10.310   3.043  0.2036  0.2609  1.0539
  558MOL0     C73547   4.205  10.393   3.169  0.5713  0.0010 -0.2812
  558MOL0     O73548   4.224  10.529   3.139 -0.6918 -1.0012 -0.4407
  558MOL0     C73549   4.207  10.608   3.250 -0.4332 -1.6664  0.1086
  558MOL0     C73550   4.081  10.651   3.284  0.6015 -0.1374  0.3839
  558MOL0     C73551   4.047  10.708   3.412 -0.4008 -0.5641  0.7488
  558MOL0     C73552   4.158  10.743   3.498  0.4392  0.1687  0.5460
  558MOL0     C73553   4.131  10.796   3.633  0.1860 -0.5482  0.6859
  558MOL0     O73554   4.234  10.821   3.709 -0.1786 -0.5015  1.1354
  558MOL0     C73555   4.214  10.867   3.834  0.6099 -1.4518  0.5822
  558MOL0     C73556   4.147  10.801   3.937  1.0805 -0.7486  0.6640
  558MOL0     C73557   4.108  10.869   4.053 -0.2492  0.3876 -0.7065
  558MOL0     C73558   4.145  11.001   4.069  0.1898  0.7104  0.1685
  558MOL0     O73559   4.095  11.052   4.182  0.5844  0.3227 -0.2381
  558MOL0     C73560   4.148  11.175   4.226  0.7611 -0.8139 -0.7034
  558MOL0     C73561   4.061  11.190   4.357  0.4025  0.4987 -0.4779
  558MOL0     C73562   4.095  11.303   4.449 -0.2112 -0.1818 -0.1570
  558MOL0     C73563   3.990  11.315   4.562  0.1174 -0.4183 -0.5718
  558MOL0     C73564   4.026  11.433   4.659  0.0391  1.0566  0.4894
  558MOL0     C73565   4.016  11.570   4.604 -0.6077 -0.9294  0.1028
  558MOL0     C73566   3.895  11.572   4.503  0.2914 -0.4350 -1.0344
  558MOL0     C73567   3.877  11.726   4.494 -0.8469  1.2746  0.3724
  558MOL0    Cl73568   3.789  11.761   4.348 -0.2190 -0.5112  0.2197
  558MOL0     C73569   4.225  11.072   3.975 -0.6146  0.2738  1.0869
  558MOL0     C73570   4.259  11.005   3.858 -0.5753 -1.0206  0.3281
  558MOL0     O73571   4.013  10.834   3.647  0.0097 -0.2286  0.5466
  558MOL0     C73572   4.293  10.704   3.464  0.2090  0.3307 -0.3712
  558MOL0     C73573   4.308  10.634   3.344  0.7918 -0.2885  0.3351
  558MOL0     N73574   4.537  10.505   3.060 -0.1574 -0.3341 -0.0615
  558MOL0     N73575   4.640  10.579   3.041 -0.8224  0.1845 -0.3894
  558MOL0     C73576   5.628  10.966   2.341  0.2818  0.6348  0.2357
  558MOL0     C73577   5.718  11.005   2.239  0.9657  0.4613 -0.7058
  558MOL0     C73578   5.977  11.272   1.952  0.0708  0.3283  0.2610
  558MOL0     C73579   6.091  11.188   1.960  0.4297  0.2360  0.1182
  558MOL0     C73580   6.205  11.213   1.887  0.0415  0.2546  0.5403
  558MOL0     C73581   6.215  11.316   1.805  0.0317 -1.2828  0.4984
  558MOL0     O73582   6.340  11.333   1.754 -0.6688 -0.5161  0.1834
  558MOL0     C73583   6.365  11.424   1.647  1.1135 -1.2863 -0.2811
  558MOL0     C73584   6.509  11.416   1.611 -0.1888  0.0338 -0.5940
  558MOL0     C73585   6.540  11.508   1.491  0.1469  0.1469 -0.4460
  558MOL0     C73586   6.684  11.504   1.439  0.4096  0.7034 -0.0644
  558MOL0     C73587   6.782  11.539   1.548 -0.1311 -0.1678  0.9612
  558MOL0     C73588   6.863  11.566   1.637  0.2055 -0.9135 -0.8290
  558MOL0     C73589   6.104  11.408   1.788 -0.6870  0.6120  0.3172
  558MOL0     C73590   5.984  11.379   1.864  0.1800  0.4983  0.2289
  558MOL0     H73591   5.724  11.333   2.276  2.5058 -0.7562 -2.3539
  558MOL0     H73592   5.558  11.272   2.470 -0.7181 -0.9415  0.7861
  558MOL0     H73593   5.470  10.848   2.587 -1.7592 -1.2537  1.6578
  558MOL0     H73594   5.354  10.884   2.451 -2.3207 -0.8616  2.1507
  558MOL0     H73595   5.245  11.052   2.625 -1.6853 -0.6539  2.3283
  558MOL0     H73596   5.320  10.945   2.734 -2.5539 -1.4250 -0.2241
  558MOL0     H73597   5.193  10.762   2.681 -2.5475 -1.0607 -0.5723
  558MOL0     H73598   5.177  10.790   2.512 -1.0663 -0.7685  0.5180
  558MOL0     H73599   5.046  10.958   2.734 -0.7812 -0.0200 -1.6147
  558MOL0     H73600   5.031  10.975   2.560  1.0312  0.8888 -0.4171
  558MOL0     H73601   4.914  10.749   2.549  0.4074 -0.1284  0.7012
  558MOL0     H73602   4.837  10.873   2.654 -0.2373 -0.5049  2.2260
  558MOL0     H73603   4.953  10.769   2.851 -3.1676  2.2448 -0.2592
  558MOL0     H73604   5.010  10.636   2.737 -0.8483  1.9839 -6.4237
  558MOL0     H73605   4.725  10.656   2.814  2.2439  1.9480  1.8699
  558MOL0     H73606   4.810  10.518   2.732 -0.0284 -0.5665 -0.0466
  558MOL0     H73607   4.928  10.583   2.984 -0.6399 -1.4566  1.1897
  558MOL0     H73608   4.904  10.422   2.912  1.5587  0.1428  0.7640
  558MOL0     H73609   4.737  10.286   2.960 -0.7600  0.4790 -0.0790
  558MOL0     H73610   4.455  10.209   3.106  1.4293  2.3089  1.0534
  558MOL0     H73611   4.480  10.187   2.927 -2.1813  0.0609 -1.5800
  558MOL0     H73612   4.306  10.266   2.873  0.6012 -1.3679  0.7258
  558MOL0     H73613   4.329  10.432   2.938 -0.6859 -0.2083 -0.2837
  558MOL0     H73614   4.113  10.348   2.983  2.3359  3.3001 -0.1826
  558MOL0     H73615   4.193  10.205   3.074  0.3537 -0.1609 -0.3006
  558MOL0     H73616   4.279  10.347   3.235 -0.9132 -1.7966  0.2303
  558MOL0     H73617   4.108  10.376   3.216  0.3932 -3.9519 -1.6688
  558MOL0     H73618   4.003  10.629   3.213 -0.0382  1.9004  0.3745
  558MOL0     H73619   3.945  10.730   3.442  0.1764 -0.9792  3.2518
  558MOL0     H73620   4.121  10.697   3.922 -0.2798 -0.1640 -1.5193
  558MOL0     H73621   4.060  10.805   4.127  1.3227  1.4566  1.3608
  558MOL0     H73622   4.141  11.258   4.155 -1.5823 -1.7284 -1.6532
  558MOL0     H73623   4.251  11.168   4.263 -0.6551  0.7285  4.3073
  558MOL0     H73624   4.078  11.096   4.412 -1.4908  1.8170  2.6128
  558MOL0     H73625   3.955  11.195   4.332  0.3901  3.2418 -0.2179
  558MOL0     H73626   4.083  11.394   4.389 -0.5879 -0.0093  0.1796
  558MOL0     H73627   4.195  11.277   4.485  0.0496  0.8976 -0.0744
  558MOL0     H73628   3.892  11.322   4.515 -0.6730 -0.8797  0.9433
  558MOL0     H73629   3.985  11.219   4.614 -0.6279 -0.5767 -0.9146
  558MOL0     H73630   4.128  11.406   4.690  0.0738 -4.5632 -3.2212
  558MOL0     H73631   3.947  11.415   4.732  2.3985 -3.4652  2.3465
  558MOL0     H73632   4.109  11.597   4.553  0.0356 -1.8044  0.7847
  558MOL0     H73633   3.997  11.646   4.680 -0.3667 -0.0657 -0.6701
  558MOL0     H73634   3.920  11.545   4.400 -0.2169  0.1347 -1.3151
  558MOL0     H73635   3.802  11.536   4.548  1.1673  0.2690  1.4420
  558MOL0     H73636   3.973  11.775   4.477 -0.2032  0.0126  0.2280
  558MOL0     H73637   3.833  11.777   4.580 -4.0281  1.4975 -1.2545
  558MOL0     H73638   4.253  11.177   3.983 -2.8906  0.9937  0.3044
  558MOL0     H73639   4.311  11.064   3.782 -0.2406 -2.1001 -0.3021
  558MOL0     H73640   4.380  10.716   3.528  0.2576  0.5052 -0.4696
  558MOL0     H73641   4.397  10.579   3.315  0.4491  0.3557 -2.1572
  558MOL0     H73642   5.611  10.860   2.354  2.8291 -0.2288 -2.3428
  558MOL0     H73643   5.773  10.927   2.187  1.1864 -0.3431  0.6924
  558MOL0     H73644   6.101  11.110   2.036  3.4291  1.6701  1.3787
  558MOL0     H73645   6.290  11.151   1.914 -0.6523 -0.9779 -0.0352
  558MOL0     H73646   6.350  11.525   1.688  0.0909 -0.5176 -2.4316
  558MOL0     H73647   6.301  11.411   1.560  2.5748  0.6734 -1.7498
  558MOL0     H73648   6.566  11.438   1.702  0.1424 -1.8385 -0.3191
  558MOL0     H73649   6.534  11.311   1.594  3.7044  0.4677  1.2976
  558MOL0     H73650   6.520  11.609   1.528 -1.1216 -0.6482  1.1545
  558MOL0     H73651   6.473  11.485   1.407 -0.3931 -2.8925  0.6883
  558MOL0     H73652   6.711  11.406   1.398 -0.7671  1.0985 -1.8982
  558MOL0     H73653   6.702  11.569   1.353  3.0062  1.7038  1.1331
  558MOL0     H73654   6.935  11.566   1.717 -1.5823 -0.2558  0.8547
  558MOL0     H73655   6.124  11.492   1.723 -1.8989  0.1814 -0.6350
  558MOL0     H73656   5.898  11.445   1.858 -1.0417 -1.0126  0.5297
  559MOL0     O73657   9.346   9.452   7.575 -1.0510  0.1174 -0.4602
  559MOL0     C73658   9.334   9.566   7.618 -0.4258 -0.6689 -0.6655
  559MOL0     O73659   9.282   9.668   7.550  0.4227 -0.0890 -0.5947
  559MOL0     C73660   9.272   9.659   7.414 -0.0088 -0.0423  0.4410
  559MOL0     C73661   9.388   9.690   7.338  0.1813  0.7098 -1.4111
  559MOL0     C73662   9.390   9.680   7.200 -0.6479  0.4374 -0.0400
  559MOL0     C73663   9.275   9.644   7.128 -0.5179  0.3921 -0.5699
  559MOL0     O73664   9.255   9.619   6.995  0.6237 -0.1240  0.2824
  559MOL0     C73665   9.361   9.676   6.914  0.4620 -0.5078 -0.7815
  559MOL0     C73666   9.342   9.621   6.769  0.1704 -0.7241  0.4120
  559MOL0     C73667   9.410   9.715   6.679 -0.3231 -0.0638  0.2409
  559MOL0     C73668   9.404   9.674   6.527  0.2795  0.3555  0.3702
  559MOL0     C73669   9.450   9.772   6.423  0.1168 -0.4822  0.0808
  559MOL0     C73670   9.591   9.819   6.440 -0.7180 -0.5507  0.0726
  559MOL0     C73671   9.640   9.903   6.324 -0.4667 -0.0452  1.4859
  559MOL0     C73672   9.777   9.960   6.345  0.1942 -0.7005 -0.9290
  559MOL0     N73673   9.877   9.877   6.411 -0.9075 -0.1888  0.9643
  559MOL0     C73674   9.918   9.887   6.541 -0.4013 -0.0009 -0.5401
  559MOL0     C73675  10.022   9.792   6.551  0.5281  0.6936 -0.3042
  559MOL0     C73676  10.089   9.748   6.684  0.6255  0.7718  0.0075
  559MOL0     C73677  10.226   9.694   6.652 -0.7509  0.6881  0.1356
  559MOL0     C73678  10.329   9.809   6.628 -0.1742 -0.3897 -0.0137
  559MOL0     C73679  10.469   9.747   6.622  0.3084 -0.3043 -0.4117
  559MOL0     O73680  10.480   9.638   6.534  0.2358 -0.3655 -0.1028
  559MOL0     C73681  10.507   9.656   6.400  0.1406 -0.8628  0.1854
  559MOL0     C73682  10.409   9.667   6.300  0.8126  0.1416 -0.3517
  559MOL0     C73683  10.436   9.689   6.165 -0.4543 -0.8075 -0.1199
  559MOL0     C73684  10.570   9.683   6.125 -0.1445  0.4385 -0.3335
  559MOL0     C73685  10.609   9.681   5.983  0.0073 -0.3351  1.5153
  559MOL0     O73686  10.654   9.792   5.907  0.9931 -0.6711 -0.1004
  559MOL0     C73687  10.645   9.922   5.956 -0.4384 -0.1174  0.8749
  559MOL0     C73688  10.755   9.971   6.009 -0.1050 -0.1026  0.5336
  559MOL0     C73689  10.758  10.096   6.051  0.7919 -1.2558 -0.3928
  559MOL0     C73690  10.636  10.174   6.057 -0.1075  0.2683  1.8960
  559MOL0     O73691  10.631  10.296   6.115  0.0572  0.5482  1.1255
  559MOL0     C73692  10.762  10.337   6.169 -0.0949 -0.3391 -0.0540
  559MOL0     C73693  10.750  10.478   6.236  0.3916  1.5061 -0.5205
  559MOL0     C73694  10.652  10.479   6.348  0.2434 -0.0935  0.5152
  559MOL0     C73695  10.685  10.602   6.427 -0.2516  0.8646  0.6470
  559MOL0     C73696  10.603  10.619   6.557  0.4760 -0.3000 -0.5358
  559MOL0     C73697  10.462  10.681   6.524  0.5069 -0.6195 -0.1970
  559MOL0     C73698  10.385  10.706   6.650 -1.0015 -0.8535 -0.5791
  559MOL0     C73699  10.233  10.721   6.652 -0.2198  0.3901 -1.0653
  559MOL0    Cl73700  10.155  10.686   6.822 -0.0705  0.2565  0.1252
  559MOL0     C73701  10.526  10.132   5.991  0.2595  0.5103 -0.1710
  559MOL0     C73702  10.527   9.996   5.940  0.2908 -0.0573 -0.0232
  559MOL0     O73703  10.596   9.564   5.937 -1.0632 -1.1083 -0.7180
  559MOL0     C73704  10.672   9.653   6.223 -0.2114  0.3197 -0.9956
  559MOL0     C73705  10.640   9.649   6.362 -0.1415 -0.6022 -0.7674
  559MOL0     N73706  10.060   9.758   6.415  0.6378 -0.2493 -0.6822
  559MOL0     N73707   9.964   9.797   6.335 -0.6181 -0.4082 -0.0137
  559MOL0     C73708   9.161   9.616   7.201  0.4073  0.3413  0.6755
  559MOL0     C73709   9.156   9.618   7.342 -0.8596 -0.0995  0.3497
  559MOL0     C73710   9.359   9.589   7.764  0.2713 -1.0125 -0.3768
  559MOL0     C73711   9.341   9.716   7.826  0.8800 -0.4178 -0.1116
  559MOL0     C73712   9.356   9.735   7.966  0.0553  0.1613 -0.6476
  559MOL0     C73713   9.392   9.628   8.041 -0.4841 -0.1674  0.6832
  559MOL0     O73714   9.432   9.630   8.173  0.1462 -0.0055  0.9486
  559MOL0     C73715   9.404   9.744   8.256  0.3811  0.2159  0.3259
  559MOL0     C73716   9.445   9.731   8.405  0.5187  0.4103  0.2856
  559MOL0     C73717   9.379   9.827   8.511  0.1567 -0.1620  0.3767
  559MOL0     C73718   9.415   9.790   8.658  0.3197  0.6484 -0.0840
  559MOL0     C73719   9.527   9.874   8.701 -0.1840  0.1791  0.0459
  559MOL0     C73720   9.636   9.922   8.751  0.9674 -0.6957  0.8199
  559MOL0     C73721   9.423   9.501   7.984  0.1515 -1.0579 -0.4755
  559MOL0     C73722   9.401   9.481   7.850 -0.3253  0.1296 -0.1052
  559MOL0     H73723   9.477   9.702   7.399 -0.7254  3.3208 -0.4804
  559MOL0     H73724   9.482   9.705   7.148 -1.0344 -1.3671 -1.7116
  559MOL0     H73725   9.463   9.649   6.944  0.2315 -1.5979 -0.9324
  559MOL0     H73726   9.355   9.785   6.910  0.3691 -0.4341  0.6856
  559MOL0     H73727   9.235   9.614   6.747  0.0309  1.0900  0.4107
  559MOL0     H73728   9.379   9.520   6.748 -0.8469 -0.8227 -1.0100
  559MOL0     H73729   9.515   9.714   6.709  0.4116 -1.6450 -2.1122
  559MOL0     H73730   9.372   9.817   6.689 -1.5643  0.0285 -3.5077
  559MOL0     H73731   9.471   9.589   6.516  1.4004  1.3710 -1.0721
  559MOL0     H73732   9.300   9.656   6.500  0.4343 -0.6553  0.4299
  559MOL0     H73733   9.384   9.857   6.445 -0.5786 -1.4908  2.1537
  559MOL0     H73734   9.430   9.724   6.327  3.6534  0.9184 -1.5435
  559MOL0     H73735   9.663   9.738   6.453  1.2176  0.2988 -3.6653
  559MOL0     H73736   9.582   9.877   6.533 -1.1791 -2.5786  1.3437
  559MOL0     H73737   9.637   9.836   6.238  1.4718  2.1794 -0.4406
  559MOL0     H73738   9.576   9.985   6.293  1.6786  0.7020 -1.3638
  559MOL0     H73739   9.763  10.051   6.404 -1.8813  0.2804 -2.7979
  559MOL0     H73740   9.814   9.980   6.244  0.6190  3.0054 -0.1913
  559MOL0     H73741   9.884   9.941   6.629  3.4802 -0.8362  1.7001
  559MOL0     H73742  10.040   9.670   6.743  0.7341 -0.3782 -1.3818
  559MOL0     H73743  10.096   9.830   6.756  1.5507 -1.0385  2.1037
  559MOL0     H73744  10.228   9.625   6.568  1.5497 -2.1573  2.2930
  559MOL0     H73745  10.242   9.628   6.738 -4.0633  1.5381  1.5478
  559MOL0     H73746  10.311   9.865   6.535 -2.9155  0.9954  1.2354
  559MOL0     H73747  10.319   9.885   6.706 -0.7956  0.8978 -1.2777
  559MOL0     H73748  10.503   9.733   6.725 -1.3872 -0.1515  0.1865
  559MOL0     H73749  10.544   9.816   6.583  2.6947 -1.7851  1.2435
  559MOL0     H73750  10.301   9.667   6.312  0.3679 -0.0842 -3.4404
  559MOL0     H73751  10.355   9.704   6.094 -0.2405  3.1234  0.2238
  559MOL0     H73752  10.839   9.902   6.015 -0.1994 -1.1902 -4.8716
  559MOL0     H73753  10.853  10.116   6.100 -0.8813 -0.8584  2.9916
  559MOL0     H73754  10.833  10.333   6.087 -0.6474 -0.7816 -0.5183
  559MOL0     H73755  10.791  10.268   6.249  1.1874 -1.0836 -1.1288
  559MOL0     H73756  10.736  10.554   6.159  1.8328  1.7373 -0.5644
  559MOL0     H73757  10.850  10.494   6.277  0.4448  1.5792 -0.6786
  559MOL0     H73758  10.666  10.388   6.406 -1.4005 -2.0086 -1.8785
  559MOL0     H73759  10.549  10.466   6.313  0.1648 -1.7086  1.2876
  559MOL0     H73760  10.783  10.582   6.472 -0.9502 -0.1481  1.8094
  559MOL0     H73761  10.675  10.692   6.367  0.2910  0.9647  0.7031
  559MOL0     H73762  10.655  10.683   6.629  0.4418 -0.3914 -0.4286
  559MOL0     H73763  10.584  10.520   6.598 -1.5987  0.5575  0.6913
  559MOL0     H73764  10.396  10.612   6.472 -1.8997  2.1900 -1.1635
  559MOL0     H73765  10.462  10.774   6.465 -2.4644  1.0496  2.1529
  559MOL0     H73766  10.407  10.633   6.730  1.4079  0.4125  0.0379
  559MOL0     H73767  10.431  10.801   6.679  0.3204 -1.0153 -2.0098
  559MOL0     H73768  10.199  10.632   6.598 -0.2650  1.1363 -2.2854
  559MOL0     H73769  10.196  10.813   6.606 -0.3758  1.9343  1.8953
  559MOL0     H73770  10.435  10.191   5.980  0.6329  1.5297  1.8335
  559MOL0     H73771  10.433   9.961   5.899  0.3497  2.6853 -2.9419
  559MOL0     H73772  10.778   9.647   6.200 -0.0659 -0.1605 -0.2465
  559MOL0     H73773  10.715   9.627   6.437  0.1024 -1.5950 -1.2852
  559MOL0     H73774   9.074   9.593   7.139  2.1959 -0.1653 -1.8098
  559MOL0     H73775   9.067   9.603   7.402 -1.8198 -0.0511 -1.0193
  559MOL0     H73776   9.317   9.802   7.765  0.2257 -0.6237 -0.1578
  559MOL0     H73777   9.337   9.830   8.015  1.3438  1.3995 -2.4259
  559MOL0     H73778   9.299   9.771   8.246  0.2541  0.4659  2.0215
  559MOL0     H73779   9.460   9.830   8.218 -0.0083 -0.1823 -1.1894
  559MOL0     H73780   9.405   9.633   8.434  0.4356  0.2450 -0.3817
  559MOL0     H73781   9.551   9.744   8.428  0.4046  6.2377 -0.9569
  559MOL0     H73782   9.271   9.831   8.493  0.1311  0.9513  0.6748
  559MOL0     H73783   9.401   9.931   8.486 -1.1308  0.6511  2.3307
  559MOL0     H73784   9.330   9.821   8.721 -0.9171  1.5627 -2.1106
  559MOL0     H73785   9.435   9.683   8.661 -2.3740  0.1098  1.3590
  559MOL0     H73786   9.719   9.968   8.802  2.1841  1.6964 -2.9623
  559MOL0     H73787   9.476   9.425   8.040 -2.7870 -3.0510 -0.1272
  559MOL0     H73788   9.421   9.380   7.816 -1.6388 -0.3691  0.5510
  560MOL0     O73789   0.666   8.571   9.064 -0.1460  0.0278  0.0113
  560MOL0     C73790   0.649   8.453   9.095  0.2780  0.2741 -0.1864
  560MOL0     O73791   0.683   8.339   9.020 -0.6080 -0.8072  0.3703
  560MOL0     C73792   0.768   8.343   8.908 -0.2277  0.6765  0.6987
  560MOL0     C73793   0.864   8.439   8.886  0.6105 -0.9181  0.0935
  560MOL0     C73794   0.951   8.438   8.766  1.1326 -0.6134  1.1541
  560MOL0     C73795   0.935   8.342   8.675 -0.2851 -0.6046  0.2550
  560MOL0     O73796   1.039   8.310   8.585  0.1381 -0.3334  0.3641
  560MOL0     C73797   1.106   8.427   8.513 -0.5374  0.0838  0.0601
  560MOL0     C73798   1.155   8.379   8.378  0.0498 -0.5931 -0.5150
  560MOL0     C73799   1.044   8.369   8.273 -0.8785  0.4406  0.3248
  560MOL0     C73800   0.960   8.243   8.283  0.4771  0.4903 -0.0033
  560MOL0     C73801   0.892   8.218   8.148 -0.6675 -1.2431  0.8601
  560MOL0     C73802   0.790   8.105   8.169  0.4243  0.1322  0.3946
  560MOL0     C73803   0.733   8.078   8.030 -0.0636 -0.1605 -0.0071
  560MOL0     C73804   0.638   7.962   8.041  0.2394  0.6513  0.2778
  560MOL0     N73805   0.595   7.926   7.904 -0.5645 -0.1978 -0.1309
  560MOL0     C73806   0.684   7.874   7.812  0.2421 -0.3152  0.5741
  560MOL0     C73807   0.610   7.844   7.699 -0.0193 -0.5905 -0.1139
  560MOL0     C73808   0.671   7.795   7.578  0.2750  0.4817  1.4103
  560MOL0     C73809   0.694   7.902   7.463  0.2673 -0.0285 -0.0571
  560MOL0     C73810   0.767   7.834   7.340 -0.6839 -0.8538 -0.0112
  560MOL0     C73811   0.911   7.809   7.382  0.3266  0.6491 -0.2020
  560MOL0     O73812   0.946   7.701   7.299  0.5562  0.1810  0.3486
  560MOL0     C73813   1.015   7.730   7.174  0.8544 -0.9452 -0.2855
  560MOL0     C73814   0.946   7.710   7.058  0.0180 -0.3868  0.7108
  560MOL0     C73815   1.007   7.735   6.940 -0.1664 -0.5034  0.5745
  560MOL0     C73816   1.134   7.801   6.927 -1.0531  0.2279  0.2578
  560MOL0     C73817   1.187   7.827   6.788 -0.1255  0.2741  0.2030
  560MOL0     O73818   1.115   7.780   6.677 -0.9658 -0.7918 -0.1785
  560MOL0     C73819   1.147   7.825   6.550  0.4010 -0.4895  0.1207
  560MOL0     C73820   1.212   7.947   6.512 -0.1830  0.6125 -1.0499
  560MOL0     C73821   1.251   7.975   6.387  0.5073 -0.0043 -0.5471
  560MOL0     C73822   1.201   7.898   6.279 -0.4289  0.2896  0.2425
  560MOL0     O73823   1.218   7.921   6.142  0.0947  0.3417  0.1548
  560MOL0     C73824   1.258   8.044   6.098 -0.0418 -0.9361  1.1361
  560MOL0     C73825   1.394   8.025   6.020  0.3116 -0.8928  0.4374
  560MOL0     C73826   1.381   7.928   5.905  0.2793  0.3016  0.2056
  560MOL0     C73827   1.527   7.892   5.850 -0.7430 -0.1866 -1.4348
  560MOL0     C73828   1.521   7.786   5.755 -0.8114  0.0177 -0.0969
  560MOL0     C73829   1.497   7.846   5.613  0.7807  0.0104  0.6849
  560MOL0     C73830   1.527   7.729   5.512 -0.3770  0.2792 -0.8282
  560MOL0     C73831   1.465   7.759   5.370  0.2705  0.1444  0.4997
  560MOL0    Cl73832   1.485   7.614   5.284 -0.0438 -0.3862  0.2943
  560MOL0     C73833   1.131   7.773   6.305  0.4173  0.3092  0.8600
  560MOL0     C73834   1.109   7.741   6.440  0.4575 -0.1537  0.1226
  560MOL0     O73835   1.286   7.899   6.785  0.6674 -0.1856 -0.6496
  560MOL0     C73836   1.211   7.819   7.047  0.2040 -0.4004 -0.4032
  560MOL0     C73837   1.146   7.778   7.164 -0.5012 -0.1576  0.4968
  560MOL0     N73838   0.486   7.897   7.720 -0.3857  0.4292  0.3746
  560MOL0     N73839   0.481   7.930   7.842 -0.5129  0.2891 -0.0530
  560MOL0     C73840   0.836   8.241   8.698 -0.4542  0.0339 -0.1081
  560MOL0     C73841   0.758   8.242   8.806  0.3119  0.0883  1.3499
  560MOL0     C73842   0.588   8.446   9.223  0.1811  0.6621 -0.2204
  560MOL0     C73843   0.557   8.559   9.304  0.2639 -0.2286 -0.5074
  560MOL0     C73844   0.512   8.546   9.440 -0.3986  0.2207 -0.2314
  560MOL0     C73845   0.477   8.419   9.490 -0.3068  0.3004  0.0686
  560MOL0     O73846   0.429   8.400   9.612 -0.5419  0.5287  0.0551
  560MOL0     C73847   0.408   8.509   9.704 -0.7254 -0.7264 -0.1401
  560MOL0     C73848   0.399   8.474   9.844  0.0049 -0.6128 -0.6064
  560MOL0     C73849   0.281   8.386   9.871 -0.1172  1.0390 -0.6560
  560MOL0     C73850   0.286   8.234   9.835  0.1703 -0.1022 -0.0837
  560MOL0     C73851   0.181   8.154   9.896  0.0566 -0.7471  0.1550
  560MOL0     C73852   0.095   8.092   9.949  0.0345  0.0372 -0.1694
  560MOL0     C73853   0.512   8.303   9.421  0.3107  0.9002 -0.2920
  560MOL0     C73854   0.558   8.323   9.286  0.6438 -1.0929  0.4253
  560MOL0     H73855   0.882   8.513   8.963  2.3939 -0.9453 -0.2478
  560MOL0     H73856   1.038   8.503   8.758  0.5146  0.6214  3.5505
  560MOL0     H73857   1.187   8.465   8.577 -0.3869 -0.8418  0.4293
  560MOL0     H73858   1.036   8.511   8.502 -0.2232  0.3079 -0.2420
  560MOL0     H73859   1.209   8.285   8.384  0.2018 -0.5511 -1.1357
  560MOL0     H73860   1.212   8.465   8.340  0.2084 -0.9122 -1.0003
  560MOL0     H73861   1.104   8.359   8.183 -0.5669 -1.5560  0.7130
  560MOL0     H73862   0.972   8.450   8.259 -1.8610 -0.7389 -2.0217
  560MOL0     H73863   1.024   8.157   8.303  1.3771  1.6350  2.4217
  560MOL0     H73864   0.888   8.243   8.365 -0.4555  1.8876 -0.7788
  560MOL0     H73865   0.964   8.185   8.072  0.0269  1.3478  0.2679
  560MOL0     H73866   0.834   8.305   8.115 -1.9399 -3.2607 -2.8206
  560MOL0     H73867   0.712   8.126   8.243 -0.4344  0.5101 -0.5943
  560MOL0     H73868   0.843   8.013   8.195  2.2984  0.8989 -0.5990
  560MOL0     H73869   0.676   8.165   7.997  1.0302 -0.3656 -2.6530
  560MOL0     H73870   0.813   8.064   7.956 -0.6109  0.7596 -0.7908
  560MOL0     H73871   0.545   7.988   8.093  0.5215  3.1619 -0.3479
  560MOL0     H73872   0.690   7.874   8.080  0.8245  0.4758 -0.8515
  560MOL0     H73873   0.789   7.857   7.832  0.9413 -1.1252 -3.1357
  560MOL0     H73874   0.593   7.724   7.546  1.3322 -0.0657 -0.0312
  560MOL0     H73875   0.761   7.736   7.596 -0.3360 -0.5117  1.2784
  560MOL0     H73876   0.744   7.990   7.504  2.0402  0.0210 -2.1581
  560MOL0     H73877   0.596   7.929   7.423 -0.1393 -1.6928 -0.2470
  560MOL0     H73878   0.722   7.744   7.298  0.8709 -0.4920 -2.6568
  560MOL0     H73879   0.765   7.912   7.264 -2.5943 -1.0530 -0.2090
  560MOL0     H73880   0.915   7.776   7.486 -0.6814  0.9843 -0.0500
  560MOL0     H73881   0.970   7.901   7.373 -0.1981  0.8992 -1.3192
  560MOL0     H73882   0.845   7.672   7.064  0.8983 -2.9632  0.3525
  560MOL0     H73883   0.946   7.706   6.855  2.8094  0.8234 -2.2167
  560MOL0     H73884   1.231   8.031   6.578  0.4971  0.0383 -0.4966
  560MOL0     H73885   1.298   8.070   6.365 -2.1095  1.1989 -1.3948
  560MOL0     H73886   1.261   8.119   6.178 -1.8060 -1.0580  1.3387
  560MOL0     H73887   1.186   8.093   6.032  0.8840  2.6685  2.5453
  560MOL0     H73888   1.461   7.968   6.085  2.5681  0.5348 -0.5322
  560MOL0     H73889   1.439   8.121   5.993 -2.9248  0.4608 -0.6246
  560MOL0     H73890   1.332   7.965   5.815  1.0739 -1.6814 -1.1236
  560MOL0     H73891   1.332   7.842   5.951 -2.0001  1.2908 -0.2852
  560MOL0     H73892   1.582   7.973   5.801  1.7265 -1.9061 -1.7230
  560MOL0     H73893   1.585   7.877   5.942 -0.2830  2.0837 -1.2946
  560MOL0     H73894   1.442   7.717   5.785 -0.1186 -1.7561 -2.1111
  560MOL0     H73895   1.618   7.736   5.748 -1.6515 -1.7676  0.4461
  560MOL0     H73896   1.552   7.939   5.597  0.3827 -0.1078 -1.8548
  560MOL0     H73897   1.388   7.860   5.606  0.2439 -3.4635 -0.0160
  560MOL0     H73898   1.636   7.716   5.513 -0.3082  0.8655 -0.4242
  560MOL0     H73899   1.476   7.636   5.539 -4.1274  2.2265 -0.5523
  560MOL0     H73900   1.510   7.844   5.320  2.8036 -1.7061 -0.6013
  560MOL0     H73901   1.357   7.773   5.382  0.4764  2.0037  0.3948
  560MOL0     H73902   1.094   7.702   6.231  2.5620 -1.9969  1.8755
  560MOL0     H73903   1.057   7.650   6.468  2.0290 -0.8127  1.0123
  560MOL0     H73904   1.309   7.864   7.058 -0.9657  1.6455  3.9647
  560MOL0     H73905   1.191   7.776   7.263 -2.9072 -2.8012  1.7003
  560MOL0     H73906   0.839   8.156   8.631  1.2608 -1.6588  1.9637
  560MOL0     H73907   0.698   8.153   8.818 -0.4854  0.4436  0.1325
  560MOL0     H73908   0.571   8.662   9.274  1.9126  0.1943  1.4679
  560MOL0     H73909   0.483   8.634   9.495  0.0918 -0.5436  1.2964
  560MOL0     H73910   0.322   8.569   9.671 -0.5766 -1.0521 -1.1680
  560MOL0     H73911   0.500   8.566   9.719  0.2394 -3.0206  4.4856
  560MOL0     H73912   0.491   8.425   9.877 -0.4930 -0.6366  0.7998
  560MOL0     H73913   0.387   8.567   9.900  0.4684  0.4342 -2.1793
  560MOL0     H73914   0.192   8.427   9.822 -3.0027 -1.7576  1.7886
  560MOL0     H73915   0.265   8.385   9.979 -2.3482 -1.2738 -0.9094
  560MOL0     H73916   0.274   8.217   9.727  1.7474  0.4834 -0.3808
  560MOL0     H73917   0.385   8.197   9.862  0.0394  1.0037  2.0914
  560MOL0     H73918   0.008   8.033   9.966 -2.7645  3.7939 -0.0698
  560MOL0     H73919   0.490   8.207   9.466 -2.1647  0.6351 -1.8469
  560MOL0     H73920   0.581   8.235   9.226  1.6635 -1.0689  0.7713
  561MOL0     O73921   8.419  10.752   6.989 -0.6529  0.1641 -0.6296
  561MOL0     C73922   8.462  10.843   6.926  0.0810 -0.2546 -0.1235
  561MOL0     O73923   8.504  10.965   6.976  0.5931  0.3058  0.4875
  561MOL0     C73924   8.451  11.008   7.100  0.0253  0.6257  0.0778
  561MOL0     C73925   8.320  11.001   7.138 -0.0409 -0.7640  0.4666
  561MOL0     C73926   8.278  11.028   7.266  0.8239 -1.4945  0.1009
  561MOL0     C73927   8.366  11.076   7.364 -1.1890 -0.8085  0.4001
  561MOL0     O73928   8.335  11.113   7.497  0.7815  0.2184 -0.4582
  561MOL0     C73929   8.226  11.027   7.559 -0.0976 -0.0770  0.3341
  561MOL0     C73930   8.213  11.068   7.700 -0.1516  0.3272 -0.5824
  561MOL0     C73931   8.345  11.026   7.779  0.0711 -0.8063  0.7128
  561MOL0     C73932   8.344  11.096   7.908  0.0317  0.2811 -0.2194
  561MOL0     C73933   8.243  11.048   8.013  0.1960  0.7685 -0.5014
  561MOL0     C73934   8.287  10.907   8.067 -0.1169  0.8210  0.0157
  561MOL0     C73935   8.263  10.899   8.222 -0.5240  0.0232 -0.6282
  561MOL0     C73936   8.340  10.786   8.293 -0.5758 -0.4741  0.4605
  561MOL0     N73937   8.300  10.767   8.437  0.5631 -0.0105  0.2657
  561MOL0     C73938   8.357  10.673   8.507  0.6037  0.4277  0.9640
  561MOL0     C73939   8.308  10.688   8.636  0.2335 -0.1710  0.2310
  561MOL0     C73940   8.339  10.589   8.757  0.3844  0.3360  0.7167
  561MOL0     C73941   8.320  10.661   8.889 -0.7034  0.1576 -0.7642
  561MOL0     C73942   8.410  10.600   8.993  0.1221 -1.0215 -0.4028
  561MOL0     C73943   8.369  10.636   9.141 -0.3695  0.3083  0.6539
  561MOL0     O73944   8.478  10.662   9.235 -0.6628 -0.3614  0.6096
  561MOL0     C73945   8.508  10.564   9.325 -0.6369 -0.8189  0.4300
  561MOL0     C73946   8.503  10.600   9.463 -0.0806  0.5750  0.1752
  561MOL0     C73947   8.580  10.523   9.562  0.7629  0.5315 -0.5796
  561MOL0     C73948   8.672  10.434   9.505 -0.6152 -0.3489  0.5608
  561MOL0     C73949   8.759  10.355   9.601 -0.1418  1.1653  0.5661
  561MOL0     O73950   8.844  10.254   9.554  0.1983  0.1730  0.2509
  561MOL0     C73951   8.926  10.181   9.635 -0.8112  1.4200  0.2296
  561MOL0     C73952   9.052  10.149   9.578 -0.6609 -0.4537  0.0012
  561MOL0     C73953   9.155  10.099   9.658  0.2903  0.2069  0.0646
  561MOL0     C73954   9.126  10.033   9.779 -0.0746 -0.0041  0.0275
  561MOL0     O73955   9.234   9.960   9.831 -0.5997 -0.5695 -0.3645
  561MOL0     C73956   9.207   9.874   9.937  0.2504  0.6637 -0.2736
  561MOL0     C73957   9.342   9.799   9.952 -0.6537 -0.8586 -0.3402
  561MOL0     C73958   9.350   9.676  10.032 -0.3635 -0.1243 -0.2012
  561MOL0     C73959   9.237   9.571   9.992 -0.4596 -0.1382  0.3143
  561MOL0     C73960   9.296   9.432  10.018  1.2157  0.4089  0.0934
  561MOL0     C73961   9.187   9.322   9.985 -0.6700  0.1343 -0.4994
  561MOL0     C73962   9.057   9.328  10.071 -0.3082  0.2518  0.2425
  561MOL0     C73963   8.979   9.197  10.076  0.7024 -0.9197  0.7699
  561MOL0    Cl73964   8.890   9.161   9.918 -0.1084 -0.3388  0.0414
  561MOL0     C73965   8.996  10.069   9.837  0.2439 -0.3066  0.4889
  561MOL0     C73966   8.901  10.137   9.767 -1.0179 -0.0753  0.2302
  561MOL0     O73967   8.751  10.394   9.717 -0.1545  0.0985  0.1486
  561MOL0     C73968   8.679  10.408   9.360 -1.1388  0.7619 -0.6730
  561MOL0     C73969   8.601  10.477   9.268  0.1344 -0.6055  0.0606
  561MOL0     N73970   8.214  10.785   8.633 -0.1201 -0.2051 -0.3535
  561MOL0     N73971   8.202  10.825   8.514 -0.3129 -0.2180 -1.1259
  561MOL0     C73972   8.506  11.082   7.326 -0.0612  0.6748 -0.5807
  561MOL0     C73973   8.544  11.044   7.199  0.9252  0.4350  0.1410
  561MOL0     C73974   8.488  10.834   6.778 -1.0528 -0.3001  0.0268
  561MOL0     C73975   8.593  10.911   6.721 -0.0645  0.7918  0.1721
  561MOL0     C73976   8.634  10.896   6.587  0.4556 -0.0972 -0.0118
  561MOL0     C73977   8.569  10.817   6.497  0.1091 -0.0296  0.0106
  561MOL0     O73978   8.624  10.791   6.374  0.3369 -0.7758 -0.5581
  561MOL0     C73979   8.527  10.761   6.269 -0.5975  0.5014 -0.4163
  561MOL0     C73980   8.607  10.786   6.141 -0.5988  0.2068  0.2393
  561MOL0     C73981   8.684  10.921   6.116 -0.8346  0.6114  0.4172
  561MOL0     C73982   8.596  11.029   6.047 -0.0524 -0.1149 -0.7474
  561MOL0     C73983   8.686  11.117   5.968 -0.0265 -0.0671  0.0828
  561MOL0     C73984   8.738  11.204   5.903  0.1283 -0.6388  0.4326
  561MOL0     C73985   8.463  10.744   6.553 -0.1124 -0.0105 -0.8879
  561MOL0     C73986   8.424  10.751   6.686  0.1503 -0.6600  0.3893
  561MOL0     H73987   8.259  10.956   7.060  3.0614 -1.6167 -1.6571
  561MOL0     H73988   8.170  11.023   7.277  0.4121 -0.5138 -2.6109
  561MOL0     H73989   8.240  10.923   7.528 -4.8304 -0.6348 -0.6274
  561MOL0     H73990   8.133  11.060   7.512  1.4298  2.3133 -1.2359
  561MOL0     H73991   8.125  11.031   7.754  1.2804 -0.8303  1.0499
  561MOL0     H73992   8.197  11.176   7.692  2.7599  0.7938 -1.1961
  561MOL0     H73993   8.436  11.057   7.728  0.8186 -1.6533  1.4970
  561MOL0     H73994   8.356  10.919   7.800  0.9601 -0.9787 -0.5456
  561MOL0     H73995   8.443  11.078   7.951  0.7653  3.7230 -0.2398
  561MOL0     H73996   8.333  11.204   7.900  1.8196  0.7867  2.6140
  561MOL0     H73997   8.140  11.041   7.976  0.6269  1.9811 -2.0609
  561MOL0     H73998   8.236  11.125   8.090 -4.2965  0.9007 -0.7853
  561MOL0     H73999   8.395  10.907   8.052  0.0483  3.7369  0.6667
  561MOL0     H74000   8.240  10.822   8.015 -1.8491  1.3316  0.6609
  561MOL0     H74001   8.295  10.992   8.269 -0.2933  0.9484 -2.4990
  561MOL0     H74002   8.156  10.897   8.242 -0.4513  3.3790  0.5912
  561MOL0     H74003   8.447  10.810   8.287 -0.5552 -0.8414 -0.8584
  561MOL0     H74004   8.321  10.686   8.252  1.2753 -1.3900  1.6728
  561MOL0     H74005   8.421  10.590   8.477  3.3345  2.7483 -0.0664
  561MOL0     H74006   8.429  10.529   8.738 -2.1479 -2.9344 -2.3853
  561MOL0     H74007   8.262  10.513   8.752 -0.1025  0.8745 -0.3926
  561MOL0     H74008   8.213  10.663   8.912 -1.6252  1.7957 -4.4963
  561MOL0     H74009   8.360  10.762   8.877  1.6547 -0.2451  2.3462
  561MOL0     H74010   8.402  10.491   8.997  1.4734 -1.1635 -1.0949
  561MOL0     H74011   8.511  10.635   8.975  0.1059  0.2780  1.6876
  561MOL0     H74012   8.295  10.568   9.186 -1.9944  0.8034 -1.1325
  561MOL0     H74013   8.316  10.731   9.127 -0.3656  0.0795 -1.0661
  561MOL0     H74014   8.448  10.688   9.494  0.6068  1.6811 -1.5659
  561MOL0     H74015   8.583  10.541   9.669  1.7267  2.8059 -0.9327
  561MOL0     H74016   9.072  10.175   9.474  0.3991 -0.8715  0.0891
  561MOL0     H74017   9.257  10.096   9.621  0.0830 -0.1653 -0.4721
  561MOL0     H74018   9.127   9.808   9.903 -0.1239  0.6373  0.6072
  561MOL0     H74019   9.184   9.916  10.036 -2.0982  0.2205 -0.5834
  561MOL0     H74020   9.411   9.872   9.997 -3.1499  0.4896  1.5268
  561MOL0     H74021   9.388   9.777   9.855  1.9692 -0.3809  0.6977
  561MOL0     H74022   9.334   9.706  10.136  2.1150 -1.2296  0.5786
  561MOL0     H74023   9.450   9.632  10.024 -0.3719 -0.0325 -0.8624
  561MOL0     H74024   9.145   9.582  10.050  0.3629  0.7981  1.5089
  561MOL0     H74025   9.208   9.582   9.887  0.3268 -0.5759  0.0469
  561MOL0     H74026   9.332   9.429  10.121  1.6849  1.7918 -0.0030
  561MOL0     H74027   9.385   9.403   9.960  0.0207 -0.2170 -1.5107
  561MOL0     H74028   9.242   9.230  10.008  0.3701  0.9495  0.3476
  561MOL0     H74029   9.155   9.333   9.881 -2.3051  3.0755  0.1928
  561MOL0     H74030   9.092   9.340  10.174  3.0386 -3.2980 -0.2638
  561MOL0     H74031   8.986   9.402  10.033 -1.8149 -2.0287 -1.6883
  561MOL0     H74032   8.897   9.211  10.148  1.2059  0.5996  1.0980
  561MOL0     H74033   9.038   9.112  10.110  0.9916 -0.4083  1.5869
  561MOL0     H74034   8.968  10.038   9.938 -0.4555  0.9624  0.7067
  561MOL0     H74035   8.816  10.150   9.833 -0.4591  1.5973  0.6645
  561MOL0     H74036   8.750  10.340   9.315 -1.3740 -0.2339  0.4126
  561MOL0     H74037   8.624  10.466   9.162  0.7665  3.8299 -0.4406
  561MOL0     H74038   8.588  11.111   7.391  0.6693  4.3831 -2.8684
  561MOL0     H74039   8.651  11.043   7.184  1.1268 -1.7969  1.3775
  561MOL0     H74040   8.660  10.975   6.776  0.5959  1.6179 -1.5377
  561MOL0     H74041   8.717  10.959   6.557 -0.6237  1.1286 -0.5515
  561MOL0     H74042   8.439  10.824   6.281 -1.1622 -0.3352 -0.0350
  561MOL0     H74043   8.505  10.654   6.279  2.3972 -0.1444  0.4686
  561MOL0     H74044   8.688  10.712   6.147 -2.2212 -1.7229 -0.5807
  561MOL0     H74045   8.542  10.749   6.061 -1.6651  1.7620  0.3476
  561MOL0     H74046   8.774  10.892   6.061 -1.3583  0.0328 -0.1491
  561MOL0     H74047   8.716  10.953   6.216  1.9825 -0.1202 -0.1699
  561MOL0     H74048   8.531  10.978   5.976 -0.3004  1.8405 -1.9944
  561MOL0     H74049   8.548  11.096   6.118 -1.2839  3.5786 -4.6219
  561MOL0     H74050   8.789  11.273   5.840 -0.2686 -1.6198 -1.0388
  561MOL0     H74051   8.410  10.682   6.482 -2.5213  1.6575 -0.6908
  561MOL0     H74052   8.343  10.685   6.719 -0.5644 -0.7387 -1.4083
  562MOL0     O74053   7.834   8.510   0.654 -0.9334  0.0577  0.7089
  562MOL0     C74054   7.764   8.615   0.663  0.2571 -0.5824 -0.7709
  562MOL0     O74055   7.619   8.614   0.699 -0.5176 -0.2124 -0.3028
  562MOL0     C74056   7.551   8.501   0.678  0.3600  0.3186  0.4158
  562MOL0     C74057   7.564   8.421   0.561 -0.9227  0.3727 -0.3229
  562MOL0     C74058   7.492   8.303   0.552  0.1509 -0.1724 -0.1568
  562MOL0     C74059   7.405   8.265   0.654 -0.1149 -0.3912 -0.7503
  562MOL0     O74060   7.330   8.151   0.663  0.1104 -0.0304  0.3213
  562MOL0     C74061   7.311   8.076   0.541 -0.4154  0.5040 -0.0101
  562MOL0     C74062   7.282   7.936   0.592  0.7829 -0.0845  0.6703
  562MOL0     C74063   7.283   7.837   0.477  0.0686 -0.5583 -0.6880
  562MOL0     C74064   7.152   7.869   0.390 -0.9125  0.1044  0.4214
  562MOL0     C74065   7.123   7.761   0.285  0.2989  0.0033  0.2803
  562MOL0     C74066   7.001   7.800   0.217 -0.0941 -1.0163 -0.5048
  562MOL0     C74067   6.928   7.682   0.148 -0.3718  0.5710  1.0926
  562MOL0     C74068   7.027   7.613   0.047  0.7910 -0.0697 -0.5075
  562MOL0     N74069   6.956   7.506  -0.030 -1.1890 -0.8825  0.3423
  562MOL0     C74070   6.907   7.386   0.012  0.6894  0.6066 -0.0417
  562MOL0     C74071   6.862   7.325  -0.099  0.5265  0.2149  0.5218
  562MOL0     C74072   6.777   7.194  -0.104 -0.1259  0.6432 -0.4368
  562MOL0     C74073   6.777   7.106   0.023  0.3202 -0.0833 -0.5273
  562MOL0     C74074   6.723   6.963  -0.017  0.3482  0.2145  0.0689
  562MOL0     C74075   6.592   6.952  -0.086  0.0476 -0.7153  0.6837
  562MOL0     O74076   6.492   7.027  -0.023  0.0131  0.0816  0.2053
  562MOL0     C74077   6.370   6.964  -0.003 -0.6381  0.9577 -0.0270
  562MOL0     C74078   6.331   6.951   0.126 -1.0452 -0.0544 -0.5555
  562MOL0     C74079   6.212   6.878   0.157 -1.2270 -1.4575  0.2808
  562MOL0     C74080   6.142   6.819   0.053  0.4808 -0.7760 -0.2100
  562MOL0     C74081   6.014   6.754   0.079 -0.2971  0.3527  0.3158
  562MOL0     O74082   6.001   6.699   0.202  0.0022 -0.7741 -0.6469
  562MOL0     C74083   5.889   6.637   0.255 -0.4928  0.0940 -0.6483
  562MOL0     C74084   5.747   6.662   0.218  0.3670  0.1644  0.0385
  562MOL0     C74085   5.642   6.614   0.297  0.5526 -0.5742 -0.3378
  562MOL0     C74086   5.665   6.526   0.409  0.5000 -0.3842 -0.1056
  562MOL0     O74087   5.561   6.491   0.493 -0.6008 -0.2039 -0.3455
  562MOL0     C74088   5.585   6.400   0.606 -0.0480  0.0901 -0.6039
  562MOL0     C74089   5.463   6.322   0.627  0.4077 -0.8232 -0.5903
  562MOL0     C74090   5.352   6.410   0.695  0.0705  0.8424 -0.0272
  562MOL0     C74091   5.224   6.337   0.715  0.0568  0.3766  0.3738
  562MOL0     C74092   5.125   6.322   0.594  0.0217 -0.0959 -0.4014
  562MOL0     C74093   5.031   6.439   0.563 -0.2013 -0.8287  0.2388
  562MOL0     C74094   4.947   6.412   0.433  0.1390  0.2034  0.3375
  562MOL0     C74095   4.840   6.522   0.404 -0.5551  0.7908  0.9595
  562MOL0    Cl74096   4.916   6.659   0.336  0.2404  0.3728 -0.2423
  562MOL0     C74097   5.799   6.504   0.449  1.8968 -0.3396  0.5708
  562MOL0     C74098   5.908   6.558   0.370  0.8054 -0.5596  1.1785
  562MOL0     O74099   5.930   6.747  -0.015  0.2705  0.7954 -0.1364
  562MOL0     C74100   6.202   6.814  -0.073 -0.0525  0.2090  0.1701
  562MOL0     C74101   6.316   6.882  -0.102 -0.8689  0.3570  0.0812
  562MOL0     N74102   6.890   7.403  -0.207 -0.5832 -0.2661  0.0018
  562MOL0     N74103   6.943   7.517  -0.163  0.1307  0.1026  0.1621
  562MOL0     C74104   7.383   8.352   0.763 -0.1339  0.1688 -0.1843
  562MOL0     C74105   7.456   8.475   0.777  0.4017  0.1824 -0.0139
  562MOL0     C74106   7.822   8.743   0.648  0.5295 -0.3509  0.3716
  562MOL0     C74107   7.749   8.849   0.596 -0.6615 -0.4310 -0.2627
  562MOL0     C74108   7.791   8.988   0.611 -0.5706  0.1992  0.7758
  562MOL0     C74109   7.924   9.004   0.666 -0.0972 -0.0202 -0.3801
  562MOL0     O74110   7.987   9.130   0.699  0.1487  0.0369  0.2805
  562MOL0     C74111   7.907   9.247   0.690 -0.0716 -0.7453 -0.4863
  562MOL0     C74112   7.944   9.320   0.564 -0.4019 -0.2605 -0.5477
  562MOL0     C74113   7.863   9.440   0.543  0.5393  0.9267 -0.1574
  562MOL0     C74114   7.876   9.509   0.406 -0.7818 -0.2207 -0.0789
  562MOL0     C74115   8.001   9.588   0.397 -0.1896 -0.4524 -0.3606
  562MOL0     C74116   8.106   9.656   0.393 -0.1700  0.2014 -0.4474
  562MOL0     C74117   8.000   8.896   0.695  0.1449  0.1787 -0.6070
  562MOL0     C74118   7.953   8.765   0.684  0.6962 -0.1324 -0.5201
  562MOL0     H74119   7.625   8.458   0.479 -1.1559  0.4208 -0.4787
  562MOL0     H74120   7.509   8.248   0.460  0.8328 -1.2091  0.5687
  562MOL0     H74121   7.402   8.074   0.480 -0.4622 -4.1762 -0.3412
  562MOL0     H74122   7.230   8.120   0.482  0.4169 -1.3237 -2.7161
  562MOL0     H74123   7.187   7.929   0.646  0.6906  2.0374  0.8528
  562MOL0     H74124   7.368   7.921   0.658  1.3721  2.2649  0.5025
  562MOL0     H74125   7.258   7.737   0.515 -2.1159 -0.0609 -0.6646
  562MOL0     H74126   7.380   7.836   0.427  0.8024 -0.1182  0.6868
  562MOL0     H74127   7.067   7.891   0.455 -1.8885  2.1113 -1.3995
  562MOL0     H74128   7.181   7.964   0.343 -0.0783 -0.6099 -0.5686
  562MOL0     H74129   7.101   7.663   0.329 -1.5501 -0.1125 -0.8372
  562MOL0     H74130   7.201   7.747   0.209 -0.7096 -0.7109 -0.6576
  562MOL0     H74131   7.016   7.874   0.138  0.5983  1.1450  1.5009
  562MOL0     H74132   6.936   7.848   0.292  2.5673  1.8184  0.2088
  562MOL0     H74133   6.893   7.602   0.213  2.2042 -0.8843  0.8143
  562MOL0     H74134   6.846   7.731   0.095 -0.5998  0.3301  1.2177
  562MOL0     H74135   7.109   7.573   0.107  1.7582  1.1977 -0.9719
  562MOL0     H74136   7.070   7.690  -0.017  1.1236  0.0806 -0.1060
  562MOL0     H74137   6.888   7.349   0.112  1.2827  1.4106  0.3784
  562MOL0     H74138   6.830   7.138  -0.182 -2.7846  0.5146 -2.2668
  562MOL0     H74139   6.677   7.204  -0.147 -2.8580 -1.0283  4.7021
  562MOL0     H74140   6.718   7.158   0.099  0.2777 -0.1654 -0.5033
  562MOL0     H74141   6.882   7.086   0.044  0.5878 -0.8297 -2.3349
  562MOL0     H74142   6.791   6.909  -0.083 -0.8951 -0.3799 -0.7662
  562MOL0     H74143   6.714   6.904   0.075  0.9570 -0.8330 -0.5195
  562MOL0     H74144   6.569   6.851  -0.123 -2.6989  0.6089 -1.6576
  562MOL0     H74145   6.597   6.997  -0.186 -0.9725 -3.4530 -0.7284
  562MOL0     H74146   6.369   7.008   0.210  0.0449 -1.2095 -0.2427
  562MOL0     H74147   6.171   6.888   0.257 -0.1822  2.2627  0.4694
  562MOL0     H74148   5.741   6.722   0.128 -1.0239 -0.1007 -0.0586
  562MOL0     H74149   5.537   6.634   0.278  0.5299 -0.9128 -0.5904
  562MOL0     H74150   5.615   6.459   0.694  2.8444 -1.9308 -0.0827
  562MOL0     H74151   5.656   6.318   0.593 -2.6521 -2.9948  2.7449
  562MOL0     H74152   5.482   6.241   0.697  2.0876  0.8895  1.0737
  562MOL0     H74153   5.425   6.274   0.536  0.0463 -4.5678  1.3642
  562MOL0     H74154   5.317   6.489   0.628 -3.6107 -0.3375  0.2481
  562MOL0     H74155   5.383   6.441   0.795  3.1056  0.2105 -0.6821
  562MOL0     H74156   5.247   6.234   0.745  2.3030  0.2242 -1.6283
  562MOL0     H74157   5.167   6.382   0.797 -0.9246 -0.9227  0.4365
  562MOL0     H74158   5.059   6.240   0.622 -1.8096  0.9398 -1.4604
  562MOL0     H74159   5.174   6.278   0.507  0.2225 -1.5000  0.3953
  562MOL0     H74160   5.102   6.516   0.529 -1.4698  0.1301 -0.3317
  562MOL0     H74161   4.977   6.473   0.652 -2.0876  0.2374 -1.2422
  562MOL0     H74162   5.010   6.402   0.344  0.9575  2.5249  0.5846
  562MOL0     H74163   4.900   6.317   0.461 -2.6475  1.1835 -0.6665
  562MOL0     H74164   4.780   6.548   0.492 -0.4616 -2.7150  2.1973
  562MOL0     H74165   4.765   6.471   0.343 -0.1121 -0.3168  1.3268
  562MOL0     H74166   5.825   6.453   0.541  0.9981 -1.5052  0.2132
  562MOL0     H74167   6.011   6.551   0.405  1.7399  2.3722 -0.6236
  562MOL0     H74168   6.154   6.748  -0.145 -1.4165  1.1134  0.2245
  562MOL0     H74169   6.349   6.895  -0.205 -2.4044  2.1497 -0.2578
  562MOL0     H74170   7.308   8.321   0.835 -0.7426  0.3789 -0.7213
  562MOL0     H74171   7.425   8.538   0.861 -2.3132 -0.5154 -0.4128
  562MOL0     H74172   7.646   8.841   0.562 -1.3235  2.3750  0.8351
  562MOL0     H74173   7.725   9.071   0.590 -1.3689 -0.5844  0.0818
  562MOL0     H74174   7.930   9.313   0.774 -1.3296  0.4912 -1.0707
  562MOL0     H74175   7.800   9.235   0.708 -0.6642  0.8505 -2.5367
  562MOL0     H74176   8.049   9.352   0.568 -0.8400  1.1995  3.7094
  562MOL0     H74177   7.929   9.245   0.486 -0.2094 -1.5477  0.6149
  562MOL0     H74178   7.872   9.514   0.623  1.7306 -1.9411  2.6001
  562MOL0     H74179   7.760   9.403   0.541  0.8426  0.0859 -0.6514
  562MOL0     H74180   7.867   9.439   0.322 -1.7496 -1.0196  0.6749
  562MOL0     H74181   7.795   9.581   0.394  0.9672  1.8012 -0.3232
  562MOL0     H74182   8.194   9.716   0.392 -0.3502  0.4637 -1.1484
  562MOL0     H74183   8.100   8.916   0.734 -0.7609  1.5895  1.1658
  562MOL0     H74184   8.004   8.681   0.729 -0.4268 -0.1401  0.7832
  563MOL0     O74185  10.890   0.666   9.399  0.9505  0.8507  0.2233
  563MOL0     C74186  10.950   0.693   9.295 -0.0468 -0.3644  0.2248
  563MOL0     O74187  10.932   0.806   9.213 -0.3559  0.7487 -0.4135
  563MOL0     C74188  10.836   0.901   9.231 -0.3661 -0.2638  0.4737
  563MOL0     C74189  10.778   0.943   9.111  0.3792  0.9178 -0.2781
  563MOL0     C74190  10.692   1.045   9.102 -0.2061  0.2035  0.0672
  563MOL0     C74191  10.647   1.114   9.213 -0.5955  0.1926  0.3171
  563MOL0     O74192  10.556   1.217   9.218  0.1281  0.9036 -0.3919
  563MOL0     C74193  10.605   1.329   9.150 -0.4732  0.5511  0.3221
  563MOL0     C74194  10.508   1.437   9.102  0.0857 -1.4149  0.2684
  563MOL0     C74195  10.362   1.394   9.105  0.0830 -1.4218  0.9490
  563MOL0     C74196  10.277   1.503   9.055 -0.0948  0.0570 -0.0230
  563MOL0     C74197  10.134   1.503   9.090 -0.2471  0.1181 -0.1053
  563MOL0     C74198  10.055   1.378   9.048  0.3762  0.4641  0.1914
  563MOL0     C74199  10.042   1.366   8.901 -0.1844 -0.5639  0.6133
  563MOL0     C74200   9.957   1.244   8.865 -0.6692  0.2109 -0.4695
  563MOL0     N74201   9.915   1.239   8.727  0.3410  0.7496 -0.5822
  563MOL0     C74202   9.882   1.337   8.633 -0.6538 -1.0887  0.6878
  563MOL0     C74203   9.833   1.269   8.529  1.1740 -0.1959 -0.4904
  563MOL0     C74204   9.789   1.314   8.388  1.1533 -0.5904  0.3318
  563MOL0     C74205   9.882   1.414   8.333 -0.1147  0.4432  0.2416
  563MOL0     C74206   9.849   1.452   8.184  0.6550 -0.6838  0.0543
  563MOL0     C74207   9.946   1.542   8.114 -1.1855 -0.2245  1.0934
  563MOL0     O74208   9.950   1.669   8.178 -0.1697  0.2306 -0.2502
  563MOL0     C74209   9.949   1.776   8.086  0.6710  0.1374  0.0519
  563MOL0     C74210   9.826   1.846   8.070  0.4442 -0.3695  0.5879
  563MOL0     C74211   9.828   1.956   7.979 -0.3585 -0.0650  0.1433
  563MOL0     C74212   9.944   1.983   7.902 -0.3855 -0.6194  0.0780
  563MOL0     C74213   9.953   2.098   7.804  0.1177 -0.7204  0.4325
  563MOL0     O74214  10.075   2.118   7.743 -0.0032  0.1956  0.1954
  563MOL0     C74215  10.107   2.247   7.702  0.4416 -0.8351 -0.6401
  563MOL0     C74216  10.081   2.368   7.771  0.7461 -0.1127 -0.3263
  563MOL0     C74217  10.117   2.481   7.697  0.5208  1.0434 -0.8091
  563MOL0     C74218  10.183   2.485   7.568 -0.0923  1.0265  0.4256
  563MOL0     O74219  10.213   2.595   7.499  0.3818  0.4900 -0.2037
  563MOL0     C74220  10.149   2.715   7.537 -0.1825  0.4408 -0.2980
  563MOL0     C74221  10.163   2.832   7.438  0.1618 -0.0329  0.4764
  563MOL0     C74222  10.060   2.943   7.440 -0.7013 -0.3259 -0.5023
  563MOL0     C74223  10.064   3.035   7.557  0.9685 -0.0371  1.2389
  563MOL0     C74224   9.951   3.142   7.541  0.1398  0.2592  0.3618
  563MOL0     C74225  10.017   3.276   7.503 -0.3591  0.2372 -0.2184
  563MOL0     C74226   9.899   3.368   7.483  0.1078 -0.4649  0.1750
  563MOL0     C74227   9.945   3.513   7.482  0.2488 -0.1018 -0.1243
  563MOL0    Cl74228   9.825   3.630   7.415  0.3630  0.3391  0.0558
  563MOL0     C74229  10.205   2.354   7.512 -0.0299 -0.1346  0.6942
  563MOL0     C74230  10.167   2.245   7.573  0.5820  0.5018 -1.0872
  563MOL0     O74231   9.852   2.171   7.791  0.3055 -0.2513 -0.3863
  563MOL0     C74232  10.058   1.902   7.926 -0.6005 -0.5748 -0.1903
  563MOL0     C74233  10.067   1.808   8.019  0.8275  0.4289  0.6436
  563MOL0     N74234   9.844   1.129   8.549  0.7219 -0.0985  0.5047
  563MOL0     N74235   9.890   1.114   8.677 -0.6192  0.2159  0.8357
  563MOL0     C74236  10.718   1.092   9.332  0.8891 -0.1262  0.6703
  563MOL0     C74237  10.805   0.981   9.337  0.6447 -0.1807  0.1289
  563MOL0     C74238  11.056   0.598   9.245  0.8031  0.0900  0.0137
  563MOL0     C74239  11.106   0.615   9.114 -0.1950  0.1538 -0.0708
  563MOL0     C74240  11.197   0.530   9.056  0.0116  0.0359  1.1219
  563MOL0     C74241  11.225   0.411   9.127 -0.2416 -0.2810 -0.9654
  563MOL0     O74242  11.314   0.314   9.079 -0.1832  0.0930 -0.1482
  563MOL0     C74243  11.256   0.198   9.024  0.2378 -0.3414  0.2384
  563MOL0     C74244  11.190   0.221   8.889  0.3236  0.0604 -0.1569
  563MOL0     C74245  11.179   0.088   8.819  0.3188 -0.5844  0.3386
  563MOL0     C74246  11.084   0.100   8.704 -0.2850  0.2958 -0.5174
  563MOL0     C74247  11.144   0.167   8.591  0.4560  0.8933 -0.0820
  563MOL0     C74248  11.208   0.226   8.504  0.0769  0.3184 -0.1642
  563MOL0     C74249  11.167   0.390   9.249  0.1887  0.4862 -0.3732
  563MOL0     C74250  11.082   0.479   9.318 -0.9431 -0.2908  0.4968
  563MOL0     H74251  10.804   0.889   9.020 -0.9044  3.7010 -2.4415
  563MOL0     H74252  10.635   1.069   9.013 -1.3418  0.9238  0.9630
  563MOL0     H74253  10.666   1.292   9.067  0.4957  0.9612  0.8226
  563MOL0     H74254  10.678   1.380   9.214  0.8417  0.6540 -1.1967
  563MOL0     H74255  10.544   1.466   9.003 -3.0401 -2.4013 -1.2803
  563MOL0     H74256  10.515   1.527   9.163  0.0573 -0.5085 -1.0227
  563MOL0     H74257  10.330   1.367   9.206 -2.1632 -0.0338  0.6769
  563MOL0     H74258  10.340   1.313   9.035 -0.0883 -0.0746 -0.6159
  563MOL0     H74259  10.317   1.597   9.095  0.9335 -1.5798  3.0256
  563MOL0     H74260  10.288   1.512   8.946 -1.4209  0.7762 -0.1239
  563MOL0     H74261  10.084   1.582   9.034  3.9115  1.1073 -2.8965
  563MOL0     H74262  10.131   1.500   9.200  0.3082 -4.2497 -0.0094
  563MOL0     H74263   9.952   1.379   9.083 -0.8264 -4.0468 -2.3647
  563MOL0     H74264  10.093   1.280   9.082 -1.9851 -1.5874 -2.5699
  563MOL0     H74265   9.997   1.459   8.865 -0.3870  1.4670  5.4169
  563MOL0     H74266  10.140   1.363   8.851 -0.4309  0.3518  0.0659
  563MOL0     H74267   9.861   1.234   8.916 -0.0077 -1.7553  0.5097
  563MOL0     H74268  10.026   1.161   8.885  1.3840  1.1166 -3.1725
  563MOL0     H74269   9.896   1.443   8.652  0.3519 -1.4985  2.4351
  563MOL0     H74270   9.688   1.356   8.387  2.1396  1.9474 -0.3515
  563MOL0     H74271   9.789   1.228   8.321 -0.2224 -0.6813  0.4226
  563MOL0     H74272   9.976   1.357   8.337 -1.5842 -2.1245  0.2461
  563MOL0     H74273   9.897   1.498   8.400 -0.5956  1.3379 -0.7516
  563MOL0     H74274   9.847   1.357   8.130  0.3925  0.0782 -1.3095
  563MOL0     H74275   9.752   1.502   8.183  1.7557  2.1531 -5.9755
  563MOL0     H74276   9.906   1.558   8.013  1.9516  1.7424  0.0096
  563MOL0     H74277  10.047   1.500   8.113 -2.2877 -3.0924 -0.7575
  563MOL0     H74278   9.734   1.807   8.113  0.4045 -0.5233  0.3682
  563MOL0     H74279   9.740   2.016   7.958  1.1888  2.0261 -0.7158
  563MOL0     H74280  10.028   2.379   7.865  0.8625 -1.5105 -0.0857
  563MOL0     H74281  10.099   2.578   7.741  4.0484  1.3390  0.2611
  563MOL0     H74282  10.179   2.735   7.640 -1.8238 -1.4696  0.6047
  563MOL0     H74283  10.044   2.684   7.536 -0.0153 -0.1337 -0.2815
  563MOL0     H74284  10.167   2.789   7.337  0.6096 -3.9412  1.9693
  563MOL0     H74285  10.258   2.886   7.446 -0.7800  1.3851  3.8077
  563MOL0     H74286   9.957   2.907   7.435 -2.2386  3.1772  2.1083
  563MOL0     H74287  10.065   2.999   7.346 -1.5613 -1.0231 -0.9724
  563MOL0     H74288  10.052   2.983   7.653 -1.3445 -0.1163  0.9684
  563MOL0     H74289  10.162   3.082   7.564  0.8624  0.3452  0.2219
  563MOL0     H74290   9.895   3.150   7.635  0.2223  0.9476  0.3604
  563MOL0     H74291   9.889   3.099   7.462  1.4669  1.4537 -1.4122
  563MOL0     H74292  10.066   3.263   7.406 -1.5334 -0.8377 -0.6894
  563MOL0     H74293  10.084   3.315   7.581 -0.5298  1.9851 -0.9051
  563MOL0     H74294   9.846   3.338   7.392  0.3949 -1.6907  0.3993
  563MOL0     H74295   9.834   3.357   7.570 -0.5173 -2.7781 -0.5328
  563MOL0     H74296  10.038   3.524   7.426  2.6573  2.1325  3.8286
  563MOL0     H74297   9.954   3.542   7.587  1.1660 -2.7795  0.5899
  563MOL0     H74298  10.246   2.346   7.412 -2.4365 -3.4042 -0.1868
  563MOL0     H74299  10.194   2.155   7.519 -2.4400 -1.1671 -0.1086
  563MOL0     H74300  10.152   1.929   7.879 -0.0603 -3.1101 -0.7419
  563MOL0     H74301  10.157   1.752   8.039  0.9816 -0.2200 -1.5249
  563MOL0     H74302  10.711   1.163   9.414 -0.7195 -1.2524  1.5673
  563MOL0     H74303  10.853   0.966   9.433 -3.7581 -1.4625  2.3865
  563MOL0     H74304  11.087   0.708   9.061  0.0907 -0.3348 -1.0432
  563MOL0     H74305  11.243   0.555   8.961  2.2453 -0.5204  1.9946
  563MOL0     H74306  11.183   0.154   9.093 -0.5578 -0.0114 -0.3799
  563MOL0     H74307  11.333   0.124   9.003  1.3486  1.3855 -2.2905
  563MOL0     H74308  11.093   0.267   8.912  0.0080 -1.9042  2.9572
  563MOL0     H74309  11.252   0.277   8.818  0.2210 -0.3038 -0.5365
  563MOL0     H74310  11.163  -0.005   8.875  0.2877 -0.9704 -0.2990
  563MOL0     H74311  11.283   0.079   8.784 -0.1071 -4.0126 -0.4147
  563MOL0     H74312  11.048   0.003   8.667  0.4451  0.0658 -0.6328
  563MOL0     H74313  11.005   0.173   8.727 -0.3880 -0.5013  1.9351
  563MOL0     H74314  11.258   0.281   8.427 -0.0971  1.7321  0.6908
  563MOL0     H74315  11.185   0.296   9.301 -0.0333  0.5853 -0.1126
  563MOL0     H74316  11.025   0.442   9.402 -0.2145 -0.5721  0.8747
  564MOL0     O74317   1.622   6.320   1.431 -0.1144 -0.2551  0.1663
  564MOL0     C74318   1.739   6.344   1.477  0.3384 -0.5317 -0.8752
  564MOL0     O74319   1.766   6.372   1.601 -1.6314  0.4173 -0.3587
  564MOL0     C74320   1.664   6.371   1.701  0.1316 -0.3390 -0.1680
  564MOL0     C74321   1.560   6.268   1.707 -0.3209 -0.7030 -0.0795
  564MOL0     C74322   1.464   6.251   1.797  0.6503  0.7382 -0.5176
  564MOL0     C74323   1.460   6.352   1.898 -0.4772  0.6941  0.2795
  564MOL0     O74324   1.374   6.356   1.999  0.4344 -0.4563  0.3205
  564MOL0     C74325   1.300   6.236   2.015 -0.1429 -0.3855 -0.1698
  564MOL0     C74326   1.392   6.121   2.082 -0.2377  0.0651  0.3584
  564MOL0     C74327   1.313   5.992   2.077  0.4436  0.7608  0.0441
  564MOL0     C74328   1.323   5.937   1.930  0.0080 -1.0750  0.0125
  564MOL0     C74329   1.392   5.806   1.919 -0.1228 -0.4729 -0.6471
  564MOL0     C74330   1.422   5.766   1.771  0.2524 -0.5829 -0.2957
  564MOL0     C74331   1.302   5.703   1.694  0.2339 -0.8432  0.3361
  564MOL0     C74332   1.343   5.622   1.571 -0.1388 -0.4574 -1.0441
  564MOL0     N74333   1.224   5.545   1.516  1.0865  0.8144 -0.3552
  564MOL0     C74334   1.100   5.595   1.464 -0.7078  0.3920  0.9163
  564MOL0     C74335   1.055   5.480   1.418  0.4447 -0.7123  0.5945
  564MOL0     C74336   0.924   5.467   1.349  0.5229 -0.1319 -0.6498
  564MOL0     C74337   0.920   5.349   1.245  0.3331  0.4641  0.0716
  564MOL0     C74338   1.000   5.373   1.112  0.2672 -0.1596 -1.1884
  564MOL0     C74339   1.004   5.244   1.034  0.1641  0.1030 -0.5427
  564MOL0     O74340   1.077   5.256   0.913  0.3832  0.5159 -0.6181
  564MOL0     C74341   1.031   5.194   0.804  0.4367  1.0695 -0.6791
  564MOL0     C74342   0.952   5.077   0.804 -0.8353  0.7236 -0.4235
  564MOL0     C74343   0.921   4.999   0.687  0.4614 -1.0188  0.1358
  564MOL0     C74344   0.957   5.049   0.564  0.5419 -0.6720  0.4917
  564MOL0     C74345   0.931   4.968   0.435 -0.9846 -0.2665 -0.2525
  564MOL0     O74346   0.995   5.005   0.327  0.4536 -0.2685  0.7134
  564MOL0     C74347   0.969   4.932   0.210 -0.0023 -0.5095  0.2754
  564MOL0     C74348   0.887   4.982   0.109 -0.0609 -0.2634 -0.2296
  564MOL0     C74349   0.857   4.906  -0.004 -0.1136 -0.5166 -0.7697
  564MOL0     C74350   0.902   4.778  -0.016  0.1537  0.1032 -0.8517
  564MOL0     O74351   0.882   4.709  -0.132  0.7399 -1.0570  0.1937
  564MOL0     C74352   0.758   4.711  -0.209 -0.4753  0.0796 -0.4823
  564MOL0     C74353   0.741   4.590  -0.304  0.6573  0.8475 -0.1246
  564MOL0     C74354   0.752   4.459  -0.222 -0.6318 -0.0557  0.2116
  564MOL0     C74355   0.805   4.336  -0.312 -0.0294 -0.5790  0.2898
  564MOL0     C74356   0.783   4.194  -0.253 -0.0605  1.1668  0.7682
  564MOL0     C74357   0.836   4.178  -0.114  0.2010 -1.1335 -0.6369
  564MOL0     C74358   0.975   4.110  -0.122 -0.5419 -0.4179 -0.8765
  564MOL0     C74359   1.046   4.106   0.021  1.7685  1.1858 -0.6471
  564MOL0    Cl74360   0.965   4.028   0.154 -0.2643  0.5313 -0.0968
  564MOL0     C74361   0.992   4.728   0.079  0.1652  0.4681  0.7418
  564MOL0     C74362   1.022   4.805   0.194  0.7990  0.6318  0.2916
  564MOL0     O74363   0.844   4.882   0.441 -0.5722 -0.6444 -0.7302
  564MOL0     C74364   1.041   5.172   0.564 -0.0869 -0.0210  0.3357
  564MOL0     C74365   1.073   5.241   0.678  0.7502 -0.4099 -0.0711
  564MOL0     N74366   1.119   5.371   1.464  0.0935 -0.3172  0.0012
  564MOL0     N74367   1.225   5.411   1.517 -0.0139 -0.5641 -0.2450
  564MOL0     C74368   1.560   6.459   1.900  0.4906  0.0518  0.1591
  564MOL0     C74369   1.665   6.461   1.801 -0.0214 -0.6825 -0.9040
  564MOL0     C74370   1.864   6.345   1.379 -0.1746  0.7455 -0.1971
  564MOL0     C74371   1.985   6.401   1.417  0.3676 -0.2957 -0.2386
  564MOL0     C74372   2.096   6.403   1.331  0.2414 -1.0522 -0.4571
  564MOL0     C74373   2.082   6.342   1.206 -0.1603  0.0637  0.0619
  564MOL0     O74374   2.196   6.324   1.122  0.5378  0.2297  0.1300
  564MOL0     C74375   2.273   6.210   1.148 -0.2080 -0.1454  0.3541
  564MOL0     C74376   2.324   6.184   1.288 -0.3510 -0.8831 -0.2141
  564MOL0     C74377   2.424   6.071   1.286 -0.2279 -0.2371 -0.0898
  564MOL0     C74378   2.460   6.005   1.418  0.6230 -0.4980  0.2896
  564MOL0     C74379   2.552   6.078   1.503  0.3639 -0.8992  0.1945
  564MOL0     C74380   2.627   6.117   1.592 -0.6476  0.0036  0.7813
  564MOL0     C74381   1.963   6.291   1.161  0.4580  0.1221 -0.3088
  564MOL0     C74382   1.849   6.286   1.254 -0.8309  0.4585 -0.0427
  564MOL0     H74383   1.561   6.199   1.623  0.3925  2.2740 -2.6985
  564MOL0     H74384   1.381   6.187   1.768  0.6312  1.5571 -2.3812
  564MOL0     H74385   1.264   6.198   1.918 -1.5931  0.6030 -0.0411
  564MOL0     H74386   1.213   6.264   2.075 -2.9020 -6.2292 -0.7442
  564MOL0     H74387   1.421   6.147   2.184  0.5551  0.6571 -0.0057
  564MOL0     H74388   1.486   6.099   2.030 -0.9612 -1.7571 -0.2558
  564MOL0     H74389   1.212   6.009   2.115 -0.3600 -2.5316 -0.3512
  564MOL0     H74390   1.353   5.922   2.151 -0.7932 -1.1892 -1.0434
  564MOL0     H74391   1.224   5.917   1.890 -1.2167  1.6857  1.3534
  564MOL0     H74392   1.362   6.011   1.860  1.4141 -0.3018  1.5313
  564MOL0     H74393   1.337   5.725   1.967 -0.9506  0.0129 -0.7614
  564MOL0     H74394   1.479   5.813   1.986 -2.7919 -1.0675  3.2124
  564MOL0     H74395   1.501   5.692   1.778  1.2812 -0.0950 -4.3600
  564MOL0     H74396   1.461   5.847   1.707 -0.4698  0.9939  1.1652
  564MOL0     H74397   1.256   5.643   1.773  2.8760 -0.9006  1.9643
  564MOL0     H74398   1.235   5.784   1.664 -0.1756 -0.7633  1.4336
  564MOL0     H74399   1.428   5.562   1.605 -0.1859  0.9447  1.8880
  564MOL0     H74400   1.384   5.693   1.498  1.0663  0.3378  0.3359
  564MOL0     H74401   1.056   5.694   1.469  0.4747  0.8819  2.3374
  564MOL0     H74402   0.892   5.562   1.307  2.9804  1.5492  1.0243
  564MOL0     H74403   0.850   5.445   1.427 -0.0184  2.7073 -0.2501
  564MOL0     H74404   0.815   5.321   1.230 -0.2456  1.9103  1.1571
  564MOL0     H74405   0.968   5.260   1.284 -0.8635 -0.6026 -0.7970
  564MOL0     H74406   0.938   5.441   1.054 -0.3197  0.9807  0.6922
  564MOL0     H74407   1.091   5.422   1.149 -1.7593  3.3023 -0.3498
  564MOL0     H74408   0.904   5.203   1.020 -0.7830  1.3117  2.0844
  564MOL0     H74409   1.058   5.172   1.096  2.5767  1.9630 -0.3001
  564MOL0     H74410   0.917   5.027   0.893 -0.6842  0.0946 -0.7155
  564MOL0     H74411   0.867   4.906   0.702  0.6026 -0.9214  1.4137
  564MOL0     H74412   0.852   5.085   0.113 -0.0887 -0.2857  0.0695
  564MOL0     H74413   0.793   4.955  -0.076 -0.6018  1.3398  0.8343
  564MOL0     H74414   0.767   4.805  -0.265 -4.2209  1.7060  1.2474
  564MOL0     H74415   0.672   4.710  -0.141  0.4342  2.4195  0.8548
  564MOL0     H74416   0.816   4.599  -0.383  0.7039  0.2884 -0.1482
  564MOL0     H74417   0.647   4.572  -0.357 -0.0503 -1.9318  1.8460
  564MOL0     H74418   0.658   4.430  -0.174 -1.3415  1.6810 -0.0449
  564MOL0     H74419   0.812   4.484  -0.134  1.1537  1.6716 -1.4057
  564MOL0     H74420   0.758   4.346  -0.410 -1.3949 -1.5017  0.8084
  564MOL0     H74421   0.913   4.353  -0.312 -0.4737  2.9217  0.7965
  564MOL0     H74422   0.840   4.131  -0.322  1.0171  1.2125  1.6075
  564MOL0     H74423   0.676   4.171  -0.257  0.0582  0.6577  0.3353
  564MOL0     H74424   0.775   4.121  -0.043 -0.6251  0.9535  0.4038
  564MOL0     H74425   0.851   4.271  -0.059 -1.4541 -1.2741  0.1298
  564MOL0     H74426   0.977   4.008  -0.161  1.3600 -0.7183 -0.0950
  564MOL0     H74427   1.027   4.183  -0.185 -1.1174 -0.4357 -1.3808
  564MOL0     H74428   1.063   4.208   0.054 -1.0066  2.5140 -2.9078
  564MOL0     H74429   1.134   4.042   0.008  0.7712 -0.7383  1.2252
  564MOL0     H74430   1.044   4.634   0.063 -0.2698  0.1608  1.0994
  564MOL0     H74431   1.100   4.772   0.261  0.4873  0.5548  0.6144
  564MOL0     H74432   1.066   5.220   0.470  1.2825 -0.4333  0.4715
  564MOL0     H74433   1.120   5.339   0.670 -2.9130  1.3883 -2.0407
  564MOL0     H74434   1.558   6.527   1.985 -0.1391  0.4309 -0.1540
  564MOL0     H74435   1.753   6.524   1.812 -1.0047  0.8664 -1.6201
  564MOL0     H74436   2.015   6.426   1.518  0.8118 -1.2052 -0.1390
  564MOL0     H74437   2.183   6.454   1.371 -0.4473 -0.0531 -0.1903
  564MOL0     H74438   2.362   6.220   1.085 -0.2300 -1.0443  0.1601
  564MOL0     H74439   2.223   6.121   1.109 -0.7536  0.5068 -0.4581
  564MOL0     H74440   2.358   6.282   1.322 -1.6670 -0.9124  1.2813
  564MOL0     H74441   2.248   6.147   1.358  1.0659 -2.2080  0.7005
  564MOL0     H74442   2.511   6.128   1.251 -2.2435  1.3934 -2.8096
  564MOL0     H74443   2.401   5.998   1.208  1.1270  1.5253 -2.2662
  564MOL0     H74444   2.370   5.980   1.474  0.5059 -1.6685 -0.3749
  564MOL0     H74445   2.514   5.916   1.383 -0.1470 -1.3619  1.2225
  564MOL0     H74446   2.692   6.149   1.671 -1.3120  0.0867  1.3047
  564MOL0     H74447   1.955   6.246   1.062 -0.5830 -3.7407  1.3449
  564MOL0     H74448   1.753   6.241   1.229 -1.5366  2.0148 -0.2508
  565MOL0     O74449   7.491   4.609   7.803  0.4813  0.2089  1.3828
  565MOL0     C74450   7.442   4.506   7.839 -0.7778 -0.4510  0.2346
  565MOL0     O74451   7.486   4.426   7.948 -0.1359 -0.0281 -0.2745
  565MOL0     C74452   7.577   4.487   8.025 -0.9495 -0.1068  0.2569
  565MOL0     C74453   7.566   4.615   8.093  0.5030 -0.2620 -0.6737
  565MOL0     C74454   7.675   4.665   8.171  0.6345  0.0644  0.2803
  565MOL0     C74455   7.792   4.582   8.187  0.5443 -0.3593  0.5630
  565MOL0     O74456   7.892   4.616   8.272  0.2355 -0.1705  0.5606
  565MOL0     C74457   7.949   4.748   8.262 -0.8991 -0.3958 -0.2312
  565MOL0     C74458   8.076   4.777   8.186  0.0085  0.2383  0.2100
  565MOL0     C74459   8.137   4.910   8.231  0.5363  0.0699  0.1078
  565MOL0     C74460   8.285   4.923   8.177 -0.2325 -0.1455 -0.1422
  565MOL0     C74461   8.316   5.061   8.122 -0.2652  0.0987  0.5697
  565MOL0     C74462   8.338   5.170   8.232 -0.2621  0.3548  0.1915
  565MOL0     C74463   8.411   5.295   8.182  0.6399  0.5267  0.8207
  565MOL0     C74464   8.557   5.274   8.145 -0.5032  0.8962 -0.0499
  565MOL0     N74465   8.616   5.391   8.067  0.2492 -0.4451 -0.6251
  565MOL0     C74466   8.608   5.524   8.102  0.3489 -0.4071  0.2575
  565MOL0     C74467   8.655   5.599   7.995  0.5538  0.1462 -0.3428
  565MOL0     C74468   8.676   5.747   7.991 -0.0805  0.3878 -0.1312
  565MOL0     C74469   8.694   5.789   7.845 -0.1944  0.7807 -0.2873
  565MOL0     C74470   8.573   5.865   7.786 -0.1808  0.6024  0.1750
  565MOL0     C74471   8.586   5.894   7.641 -0.9241  0.1258 -0.2939
  565MOL0     O74472   8.703   5.979   7.620  0.0509  0.3803  0.0298
  565MOL0     C74473   8.715   6.030   7.497 -0.5596 -1.1412 -0.8412
  565MOL0     C74474   8.644   5.983   7.387  1.0481 -0.6947 -0.1766
  565MOL0     C74475   8.657   6.059   7.269 -0.8271 -0.0350  0.2545
  565MOL0     C74476   8.744   6.162   7.259 -0.0164  0.5915 -0.3749
  565MOL0     C74477   8.767   6.232   7.133 -0.2760 -0.0397 -0.2181
  565MOL0     O74478   8.832   6.346   7.144  0.1450  0.6213  0.4898
  565MOL0     C74479   8.813   6.433   7.040 -0.6186 -0.2567 -0.1831
  565MOL0     C74480   8.884   6.417   6.918  0.1614 -0.3039 -0.3995
  565MOL0     C74481   8.881   6.514   6.824 -0.3212  0.5975 -0.6295
  565MOL0     C74482   8.805   6.631   6.853  0.2261 -0.2920 -1.5026
  565MOL0     O74483   8.783   6.736   6.768  0.9637 -0.6318 -0.3189
  565MOL0     C74484   8.772   6.695   6.634  0.4823 -0.9286  0.8401
  565MOL0     C74485   8.696   6.803   6.565  0.3411 -0.5009  0.8048
  565MOL0     C74486   8.737   6.823   6.416  0.9115  0.1784  0.6494
  565MOL0     C74487   8.622   6.893   6.345 -0.5164  0.3317  1.1526
  565MOL0     C74488   8.648   6.894   6.191  0.2401  0.0564  0.5520
  565MOL0     C74489   8.521   6.958   6.128  0.4677  0.3368  0.2280
  565MOL0     C74490   8.513   6.937   5.981  0.1556 -0.2332  0.3839
  565MOL0     C74491   8.414   7.043   5.932  0.0308  0.6286  0.0130
  565MOL0    Cl74492   8.392   7.040   5.749  0.2089 -0.2850  0.0580
  565MOL0     C74493   8.740   6.641   6.978  0.1427 -0.7178  0.3556
  565MOL0     C74494   8.739   6.546   7.074 -0.4873 -0.4199  0.2672
  565MOL0     O74495   8.729   6.173   7.032 -0.3913  0.5040  0.6278
  565MOL0     C74496   8.809   6.204   7.371  0.6160 -0.1101 -0.3136
  565MOL0     C74497   8.800   6.141   7.489 -0.1259  0.7276 -0.3486
  565MOL0     N74498   8.703   5.511   7.909 -0.7476  0.0815  0.0755
  565MOL0     N74499   8.680   5.394   7.945 -0.3030 -0.2314  0.6876
  565MOL0     C74500   7.801   4.455   8.127 -0.0519 -0.0794  0.1972
  565MOL0     C74501   7.697   4.419   8.042 -1.1036  0.5862 -1.5019
  565MOL0     C74502   7.323   4.457   7.767 -0.0089  0.2208  0.1147
  565MOL0     C74503   7.262   4.339   7.813 -0.1059  0.7094  0.2873
  565MOL0     C74504   7.156   4.284   7.742  0.4910 -0.0930 -0.9197
  565MOL0     C74505   7.083   4.356   7.647  0.7594 -1.4067 -0.0553
  565MOL0     O74506   6.976   4.322   7.570 -0.2214 -0.1527 -0.0460
  565MOL0     C74507   6.906   4.195   7.605  0.2938  0.0817 -0.2782
  565MOL0     C74508   6.822   4.228   7.729 -0.7047  0.5204  0.0033
  565MOL0     C74509   6.710   4.132   7.767 -0.0883 -0.9143 -0.1903
  565MOL0     C74510   6.762   3.996   7.821 -0.3171 -0.7161  1.4411
  565MOL0     C74511   6.808   3.910   7.718 -0.3420  0.6848 -0.5522
  565MOL0     C74512   6.836   3.858   7.616  0.0646 -0.1527 -0.1542
  565MOL0     C74513   7.120   4.492   7.625 -0.3104  0.9526  0.1027
  565MOL0     C74514   7.246   4.537   7.679 -0.8281 -0.4260  0.6115
  565MOL0     H74515   7.473   4.671   8.092  0.1188 -0.8867 -1.5043
  565MOL0     H74516   7.658   4.757   8.226  0.9685 -0.7213  1.7843
  565MOL0     H74517   7.971   4.781   8.364 -2.4267  0.0675 -0.0230
  565MOL0     H74518   7.871   4.818   8.232  0.0104  2.4351  3.2391
  565MOL0     H74519   8.064   4.781   8.078  0.2934 -0.1984  0.1568
  565MOL0     H74520   8.135   4.689   8.214 -0.8871 -0.1318  0.9985
  565MOL0     H74521   8.150   4.921   8.339  2.2026 -0.8881  0.0365
  565MOL0     H74522   8.075   4.987   8.185  0.8385  0.3185  0.1107
  565MOL0     H74523   8.358   4.884   8.248  1.5630  0.5101 -1.5639
  565MOL0     H74524   8.292   4.850   8.095 -2.8978  0.2510 -0.8196
  565MOL0     H74525   8.240   5.087   8.048 -1.3956  0.1662  1.7342
  565MOL0     H74526   8.411   5.050   8.067 -1.6196 -0.7664 -1.7649
  565MOL0     H74527   8.389   5.116   8.312  0.0396  1.1965  0.5733
  565MOL0     H74528   8.246   5.189   8.288 -0.1932 -0.2945  0.5267
  565MOL0     H74529   8.362   5.320   8.087 -0.1576 -1.3128  0.7134
  565MOL0     H74530   8.412   5.368   8.264  0.2430 -1.8463  3.0420
  565MOL0     H74531   8.574   5.181   8.090  4.2144  1.7716 -0.5346
  565MOL0     H74532   8.613   5.263   8.238  0.1969  2.4848 -0.2484
  565MOL0     H74533   8.577   5.568   8.197  2.4710  1.5686  0.1365
  565MOL0     H74534   8.776   5.745   8.033 -0.8298 -4.2036  2.0684
  565MOL0     H74535   8.596   5.800   8.044  0.4299  0.5156  0.5098
  565MOL0     H74536   8.702   5.701   7.781  1.6105  0.3577  0.4688
  565MOL0     H74537   8.780   5.854   7.831 -1.5673  2.2840 -2.1627
  565MOL0     H74538   8.483   5.804   7.799  0.2326 -0.6444 -2.2880
  565MOL0     H74539   8.553   5.963   7.831 -0.4303  0.6866 -0.1101
  565MOL0     H74540   8.495   5.939   7.601  0.0456  0.3648 -2.3609
  565MOL0     H74541   8.600   5.798   7.592  1.5287 -1.2040  2.6113
  565MOL0     H74542   8.567   5.908   7.397 -0.9144  1.4768  2.0815
  565MOL0     H74543   8.592   6.033   7.186  0.6399  1.6322 -1.4920
  565MOL0     H74544   8.934   6.327   6.883  0.9521  0.8056 -2.3083
  565MOL0     H74545   8.939   6.497   6.734 -3.1862 -0.8659 -2.3307
  565MOL0     H74546   8.726   6.597   6.613 -1.2354  0.1510 -0.7913
  565MOL0     H74547   8.874   6.695   6.596 -0.0998  0.2866 -0.8252
  565MOL0     H74548   8.699   6.905   6.605 -0.2401 -0.6209  1.1783
  565MOL0     H74549   8.590   6.779   6.576 -0.9266  3.8423  0.2155
  565MOL0     H74550   8.747   6.724   6.371  0.9106  1.1894 -1.7086
  565MOL0     H74551   8.832   6.874   6.401  1.2499 -0.2439  1.2937
  565MOL0     H74552   8.523   6.857   6.372 -0.6858  1.0934  1.5757
  565MOL0     H74553   8.627   6.991   6.393  0.9448  0.2797  1.1624
  565MOL0     H74554   8.659   6.791   6.154  2.9196 -0.8655  3.5234
  565MOL0     H74555   8.727   6.955   6.147 -2.2840  1.7040 -2.1177
  565MOL0     H74556   8.524   7.063   6.156  2.5050 -0.2114  2.4083
  565MOL0     H74557   8.430   6.918   6.173 -0.1926  1.7742  0.2144
  565MOL0     H74558   8.609   6.946   5.931  0.0679 -1.1856  0.0109
  565MOL0     H74559   8.479   6.834   5.963  0.9834 -0.0422 -2.8578
  565MOL0     H74560   8.450   7.143   5.959 -0.7708  0.2239  2.8699
  565MOL0     H74561   8.320   7.015   5.981 -0.1279 -0.7304 -1.0238
  565MOL0     H74562   8.684   6.730   7.005 -1.7873 -2.1805  1.4341
  565MOL0     H74563   8.702   6.551   7.176  1.7751 -0.5955  1.1556
  565MOL0     H74564   8.874   6.291   7.370  1.9601 -1.0760 -1.3988
  565MOL0     H74565   8.851   6.175   7.578 -0.8645  0.7714  0.0693
  565MOL0     H74566   7.865   4.369   8.144 -3.5987 -2.7937  0.9707
  565MOL0     H74567   7.707   4.327   7.986  0.7177 -0.3226  0.1793
  565MOL0     H74568   7.319   4.273   7.879 -1.7130  0.7281  1.7584
  565MOL0     H74569   7.136   4.180   7.764  1.8966 -0.6332 -2.0704
  565MOL0     H74570   6.972   4.112   7.629 -1.2857 -1.6446 -1.6255
  565MOL0     H74571   6.839   4.157   7.528 -0.7135 -0.7830  0.9964
  565MOL0     H74572   6.886   4.242   7.817 -1.1313 -0.3429  0.4763
  565MOL0     H74573   6.782   4.326   7.701  0.4625  0.8419 -0.6032
  565MOL0     H74574   6.646   4.106   7.682  1.4371  1.5410 -2.2301
  565MOL0     H74575   6.644   4.184   7.837 -4.1379  1.3389 -5.0487
  565MOL0     H74576   6.848   4.007   7.888  0.6284  0.6916  0.0846
  565MOL0     H74577   6.678   3.935   7.854 -2.0751  0.7127 -0.1503
  565MOL0     H74578   6.864   3.829   7.517  2.1256  5.9077 -1.7889
  565MOL0     H74579   7.063   4.557   7.560  1.6465  1.9471 -0.6711
  565MOL0     H74580   7.296   4.627   7.643 -0.1824 -0.5951  1.0664
  566MOL0     O74581   9.652   4.447   7.594  0.3696 -0.0902  0.3510
  566MOL0     C74582   9.660   4.338   7.534 -0.8317 -0.0967 -0.4103
  566MOL0     O74583   9.563   4.292   7.447 -0.2795  1.1606  0.1019
  566MOL0     C74584   9.470   4.368   7.366 -0.6067 -0.4460 -0.4465
  566MOL0     C74585   9.451   4.508   7.371 -0.0896 -0.3504 -0.1518
  566MOL0     C74586   9.347   4.571   7.293 -0.5803 -0.3221  0.2949
  566MOL0     C74587   9.273   4.490   7.206 -0.7202  0.5042  0.4941
  566MOL0     O74588   9.164   4.539   7.141  0.2951  0.3178  0.4346
  566MOL0     C74589   9.172   4.668   7.097 -0.2940 -0.2259  0.6175
  566MOL0     C74590   9.049   4.697   7.012 -0.2953  0.6449 -0.7912
  566MOL0     C74591   9.077   4.824   6.936  0.1546 -0.2464  0.4212
  566MOL0     C74592   8.959   4.843   6.850  0.5433 -0.1448  0.2393
  566MOL0     C74593   8.965   4.979   6.776 -1.2749 -0.0908 -0.2021
  566MOL0     C74594   8.915   4.959   6.635 -0.3231  0.1495 -0.1102
  566MOL0     C74595   8.931   5.060   6.536  0.3549 -0.1884 -0.3903
  566MOL0     C74596   8.932   5.211   6.583  0.7597  1.2576  0.2145
  566MOL0     N74597   8.920   5.300   6.465 -0.5041  0.3273 -0.4664
  566MOL0     C74598   8.802   5.330   6.394  0.1576 -0.4894  0.0059
  566MOL0     C74599   8.844   5.412   6.299 -0.7932  1.4796  0.2533
  566MOL0     C74600   8.760   5.460   6.196  1.6058 -0.1541 -0.2413
  566MOL0     C74601   8.839   5.533   6.093  0.6955  0.0718  0.2404
  566MOL0     C74602   8.772   5.516   5.955  0.5060  1.3020 -0.4358
  566MOL0     C74603   8.632   5.580   5.944 -0.0679 -0.9660 -0.0701
  566MOL0     O74604   8.598   5.607   5.793 -0.3091 -0.0977 -0.0840
  566MOL0     C74605   8.621   5.734   5.746  0.1294 -0.2175 -0.5452
  566MOL0     C74606   8.686   5.837   5.813  1.0638  0.9547 -0.8169
  566MOL0     C74607   8.690   5.964   5.766 -0.6214  0.1996  0.2060
  566MOL0     C74608   8.629   5.998   5.645  0.4537 -0.4729 -0.2714
  566MOL0     C74609   8.633   6.135   5.589 -0.8332  0.7853 -0.0420
  566MOL0     O74610   8.611   6.245   5.673 -0.6917  0.4348  0.2585
  566MOL0     C74611   8.548   6.360   5.626  0.7263 -0.6137 -0.2815
  566MOL0     C74612   8.570   6.472   5.715  0.4361  0.5993  0.0806
  566MOL0     C74613   8.518   6.595   5.669  0.0626 -0.1821  0.3385
  566MOL0     C74614   8.443   6.613   5.557  0.8146  0.7147  0.0071
  566MOL0     O74615   8.389   6.727   5.531  0.3917 -0.2818 -0.5344
  566MOL0     C74616   8.273   6.741   5.449  0.1328  0.4809  0.1184
  566MOL0     C74617   8.208   6.866   5.493 -0.0174 -0.2412 -0.2307
  566MOL0     C74618   8.126   6.839   5.632  0.0557  0.6206  1.1089
  566MOL0     C74619   8.026   6.958   5.658 -0.8902  0.6900  0.2190
  566MOL0     C74620   7.930   6.924   5.776 -0.2784 -0.2555  1.1103
  566MOL0     C74621   7.996   6.903   5.910  0.7082 -0.5570 -0.4451
  566MOL0     C74622   7.887   6.868   6.013 -0.1452 -0.4323 -0.3320
  566MOL0     C74623   7.925   6.925   6.146 -1.2596 -0.6119 -0.2806
  566MOL0    Cl74624   7.813   6.844   6.272  0.0226 -0.1849 -0.2066
  566MOL0     C74625   8.420   6.504   5.478 -0.4898 -0.0386  0.2827
  566MOL0     C74626   8.473   6.379   5.511  0.5506 -0.2163  1.1885
  566MOL0     O74627   8.640   6.137   5.470 -0.6860 -0.0433 -0.0198
  566MOL0     C74628   8.562   5.901   5.574  0.4211  0.0869  0.5109
  566MOL0     C74629   8.574   5.773   5.623 -0.7193  0.1723  0.4063
  566MOL0     N74630   8.979   5.428   6.316  0.0604 -0.3041 -0.7207
  566MOL0     N74631   9.029   5.362   6.411 -0.4101  0.0486 -0.9730
  566MOL0     C74632   9.293   4.353   7.192  0.6517 -0.6664  0.7967
  566MOL0     C74633   9.391   4.294   7.273 -0.3960 -0.4734 -0.8721
  566MOL0     C74634   9.746   4.231   7.584 -0.6836  1.4225 -0.1847
  566MOL0     C74635   9.860   4.249   7.679 -0.4798  0.3391  0.2909
  566MOL0     C74636   9.915   4.139   7.744  1.0617  0.0880 -0.4722
  566MOL0     C74637   9.884   4.004   7.711 -0.8983 -0.8123  0.9279
  566MOL0     O74638   9.964   3.918   7.784 -0.3221 -0.6148  1.1682
  566MOL0     C74639   9.945   3.774   7.752 -1.1452 -0.1472 -0.1947
  566MOL0     C74640   9.843   3.713   7.855  1.1699 -0.1625 -0.4920
  566MOL0     C74641   9.759   3.592   7.806  0.0839  0.4503 -0.6339
  566MOL0     C74642   9.657   3.630   7.706  0.6213  0.0829  0.4344
  566MOL0     C74643   9.609   3.499   7.659  0.6897 -1.0931  0.1026
  566MOL0     C74644   9.562   3.390   7.642 -0.0913 -0.0941  0.5368
  566MOL0     C74645   9.786   3.985   7.613  0.2234 -0.2096  0.5206
  566MOL0     C74646   9.725   4.093   7.549 -0.1401 -0.6660  0.1559
  566MOL0     H74647   9.524   4.570   7.422 -3.1153  2.9706  0.5814
  566MOL0     H74648   9.325   4.677   7.301 -1.5598 -0.5387  0.5792
  566MOL0     H74649   9.266   4.668   7.039  0.8844 -2.4081  2.3863
  566MOL0     H74650   9.175   4.747   7.172  0.3945 -1.2096  1.6433
  566MOL0     H74651   8.961   4.710   7.074  0.1831 -1.3188  0.3740
  566MOL0     H74652   9.047   4.618   6.936  0.9422  0.8361 -1.0489
  566MOL0     H74653   9.169   4.822   6.876 -1.7852  0.3850 -2.7926
  566MOL0     H74654   9.087   4.904   7.009  1.1447 -0.0400  0.0771
  566MOL0     H74655   8.952   4.762   6.777 -1.4373  1.5871 -1.6278
  566MOL0     H74656   8.868   4.847   6.911 -1.1427 -3.0358 -1.8285
  566MOL0     H74657   9.066   5.017   6.764 -1.2691 -0.2129 -0.5485
  566MOL0     H74658   8.915   5.060   6.830  1.3892  2.4797 -1.3088
  566MOL0     H74659   8.808   4.942   6.645 -1.4486  3.3184 -3.9977
  566MOL0     H74660   8.949   4.863   6.595 -0.0800  0.4371 -0.6006
  566MOL0     H74661   9.035   5.036   6.514  1.6474  0.0401  4.3064
  566MOL0     H74662   8.856   5.044   6.458 -0.5449 -1.3091  0.6648
  566MOL0     H74663   9.028   5.241   6.625  1.4303  0.2193 -0.5371
  566MOL0     H74664   8.850   5.221   6.655 -1.9924 -3.3881 -1.8153
  566MOL0     H74665   8.707   5.278   6.408  0.6947 -1.6598 -0.5187
  566MOL0     H74666   8.685   5.526   6.242  1.1249  0.1697 -1.4357
  566MOL0     H74667   8.695   5.381   6.157  1.0849 -1.1222  2.3957
  566MOL0     H74668   8.945   5.504   6.087 -0.1713 -3.3897 -0.4183
  566MOL0     H74669   8.840   5.639   6.120  2.4071  0.6705 -1.8673
  566MOL0     H74670   8.844   5.564   5.889 -1.7498  2.9572 -1.8231
  566MOL0     H74671   8.757   5.411   5.931 -1.4451  0.7352  2.6478
  566MOL0     H74672   8.622   5.665   6.013  1.9350  0.0736 -0.9477
  566MOL0     H74673   8.569   5.503   5.988  1.2336 -1.0623  1.7325
  566MOL0     H74674   8.738   5.837   5.909  2.0325  4.2116 -1.2124
  566MOL0     H74675   8.745   6.041   5.819  2.2060 -2.9583  2.3246
  566MOL0     H74676   8.619   6.467   5.812 -2.2706  0.8585  1.5776
  566MOL0     H74677   8.548   6.680   5.729 -1.2063 -0.6086  1.6319
  566MOL0     H74678   8.204   6.660   5.477  3.4872 -2.1953  1.4021
  566MOL0     H74679   8.294   6.746   5.341 -1.4254  0.3844 -0.2092
  566MOL0     H74680   8.146   6.901   5.410 -1.9073  0.3773  1.3555
  566MOL0     H74681   8.295   6.932   5.500 -0.7155  0.6455  0.3546
  566MOL0     H74682   8.204   6.845   5.708  1.9068 -2.1768 -0.3950
  566MOL0     H74683   8.073   6.744   5.630  1.7560 -0.3446  0.6235
  566MOL0     H74684   8.076   7.053   5.677  0.7507 -0.3391  1.3066
  566MOL0     H74685   7.952   6.977   5.579  1.2067  1.4500 -1.6548
  566MOL0     H74686   7.864   6.842   5.747 -0.5544  0.4163 -0.2434
  566MOL0     H74687   7.864   7.012   5.782 -0.2023 -0.1350  0.3183
  566MOL0     H74688   8.049   6.995   5.939  0.9635 -0.8000 -0.1334
  566MOL0     H74689   8.069   6.823   5.915  1.8915  0.4631 -0.8634
  566MOL0     H74690   7.793   6.906   5.972 -0.4228  0.9616  1.4267
  566MOL0     H74691   7.888   6.760   6.029  3.0603 -0.6024 -1.0783
  566MOL0     H74692   7.902   7.029   6.120  0.2169 -0.3000 -0.3850
  566MOL0     H74693   8.030   6.928   6.176 -1.4897  1.5755  0.4919
  566MOL0     H74694   8.364   6.512   5.385  0.3130  1.0526 -0.1355
  566MOL0     H74695   8.458   6.307   5.431  2.7812  0.0389  0.4478
  566MOL0     H74696   8.524   5.936   5.479  2.4790  0.4150 -0.2332
  566MOL0     H74697   8.531   5.700   5.556  3.7848 -3.5450  1.0083
  566MOL0     H74698   9.228   4.300   7.124 -1.4100 -0.8369  2.8000
  566MOL0     H74699   9.409   4.187   7.275  1.4263 -0.2136 -1.7243
  566MOL0     H74700   9.885   4.347   7.718 -4.3468  0.6236  2.6213
  566MOL0     H74701   9.983   4.162   7.825  0.6409  2.4106 -0.7102
  566MOL0     H74702  10.039   3.719   7.758 -0.9734  0.1846  0.1722
  566MOL0     H74703   9.900   3.750   7.655  0.5736 -0.6712 -0.8984
  566MOL0     H74704   9.890   3.696   7.952 -0.5655 -0.0126  0.4170
  566MOL0     H74705   9.770   3.794   7.865  1.3906 -0.0568  0.2669
  566MOL0     H74706   9.708   3.549   7.893  0.6099  2.4434  0.7303
  566MOL0     H74707   9.826   3.513   7.770 -1.0817 -0.4497 -0.9055
  566MOL0     H74708   9.580   3.689   7.758 -0.5814 -1.4919  0.5260
  566MOL0     H74709   9.697   3.694   7.627  2.1398 -0.2578  0.9084
  566MOL0     H74710   9.532   3.289   7.624 -0.3955  0.0577  0.1864
  566MOL0     H74711   9.750   3.883   7.606  3.4101 -1.3993 -0.1763
  566MOL0     H74712   9.650   4.066   7.475  1.6637  0.3391 -2.1918
  567MOL0     O74713  10.429   3.191   4.832  0.1119  0.2633  0.1100
  567MOL0     C74714  10.544   3.190   4.789 -0.2713  0.6558  0.4157
  567MOL0     O74715  10.644   3.277   4.810  0.3254 -0.6076  0.0308
  567MOL0     C74716  10.621   3.387   4.890  0.7872 -1.3659  0.1420
  567MOL0     C74717  10.727   3.428   4.967 -0.3671 -0.7236  0.5143
  567MOL0     C74718  10.708   3.542   5.052 -0.0231  0.0867 -0.2485
  567MOL0     C74719  10.588   3.607   5.056 -0.9417  0.3716 -0.2306
  567MOL0     O74720  10.576   3.706   5.152 -0.3153 -0.2860 -0.0269
  567MOL0     C74721  10.468   3.803   5.143 -0.0255 -0.2787  0.1370
  567MOL0     C74722  10.496   3.927   5.237 -0.2062  0.2634 -0.4635
  567MOL0     C74723  10.508   3.890   5.382 -0.2351  0.0629  0.9878
  567MOL0     C74724  10.375   3.860   5.447 -0.2965 -0.7939  0.4593
  567MOL0     C74725  10.399   3.849   5.601  0.3169 -0.1172 -0.2415
  567MOL0     C74726  10.265   3.889   5.678 -0.8547 -0.6389  0.2730
  567MOL0     C74727  10.151   3.785   5.650 -0.3680 -0.9278 -0.5444
  567MOL0     C74728  10.028   3.802   5.750  0.5154 -0.2893 -0.3956
  567MOL0     N74729  10.012   3.685   5.842  0.0048  0.8153  0.4940
  567MOL0     C74730  10.111   3.630   5.928 -0.0776  0.4313 -0.3906
  567MOL0     C74731  10.068   3.513   5.961  0.1572 -0.5589 -0.5504
  567MOL0     C74732  10.129   3.412   6.059  0.6589 -0.4919  0.7039
  567MOL0     C74733  10.156   3.284   5.990  0.0591  0.7375 -0.4200
  567MOL0     C74734  10.290   3.302   5.924  0.3067  0.3990 -0.4458
  567MOL0     C74735  10.339   3.157   5.886  0.3931 -0.9745  0.3685
  567MOL0     O74736  10.456   3.162   5.804  0.3224 -0.1112  0.0652
  567MOL0     C74737  10.574   3.170   5.874 -0.8384  0.0853  1.0839
  567MOL0     C74738  10.668   3.269   5.847 -1.8708 -0.2031 -0.2044
  567MOL0     C74739  10.789   3.279   5.919  0.4012  0.2129 -0.1843
  567MOL0     C74740  10.821   3.174   6.009 -0.5591  0.2327  0.1552
  567MOL0     C74741  10.957   3.168   6.078 -0.4836  0.6660  1.0607
  567MOL0     O74742  11.037   3.280   6.051 -0.0610 -0.5598  0.0814
  567MOL0     C74743  11.149   3.296   6.132 -0.5746  0.4242  0.7936
  567MOL0     C74744  11.247   3.200   6.125 -0.6925 -0.5706  0.2365
  567MOL0     C74745  11.367   3.214   6.191 -0.1850 -0.6287 -0.0398
  567MOL0     C74746  11.377   3.316   6.280  0.5603  0.0959  0.2588
  567MOL0     O74747  11.487   3.322   6.358  0.7689  0.3909 -0.1044
  567MOL0     C74748  11.523   3.447   6.419  0.2048  0.8504 -0.0169
  567MOL0     C74749  11.657   3.419   6.488  1.2584  0.1993 -1.0427
  567MOL0     C74750  11.666   3.281   6.559 -1.1534 -0.6382  0.8226
  567MOL0     C74751  11.584   3.279   6.680  0.8743 -0.5484 -0.1405
  567MOL0     C74752  11.575   3.137   6.740 -0.0869 -0.1242 -0.2698
  567MOL0     C74753  11.494   3.130   6.870 -0.1533  0.8603 -0.6952
  567MOL0     C74754  11.339   3.117   6.840 -0.3698 -0.3039  0.3912
  567MOL0     C74755  11.273   3.059   6.970  0.1744 -0.5002  0.7992
  567MOL0    Cl74756  11.253   3.214   7.056  0.0328  0.5618 -0.4434
  567MOL0     C74757  11.271   3.409   6.301 -0.4671  0.4862  0.2312
  567MOL0     C74758  11.153   3.405   6.226 -0.9006 -0.5803 -0.1835
  567MOL0     O74759  10.991   3.071   6.142  0.6515 -0.5415  0.2892
  567MOL0     C74760  10.726   3.071   6.036 -1.0672 -0.5046 -0.1599
  567MOL0     C74761  10.603   3.071   5.978  0.3248 -0.2267  0.8585
  567MOL0     N74762   9.958   3.476   5.887  0.7777 -0.7829 -0.8884
  567MOL0     N74763   9.925   3.582   5.804 -0.7828 -0.8018 -0.2748
  567MOL0     C74764  10.487   3.572   4.965 -0.1214  0.1149 -0.5111
  567MOL0     C74765  10.507   3.460   4.886 -0.6790  0.2134  0.8207
  567MOL0     C74766  10.584   3.077   4.703 -0.1059 -0.4664 -0.2458
  567MOL0     C74767  10.532   2.945   4.724  1.0775 -0.0500  0.2763
  567MOL0     C74768  10.565   2.840   4.649  0.2244  0.7974  0.0841
  567MOL0     C74769  10.653   2.853   4.542 -0.5378 -0.5215 -0.2917
  567MOL0     O74770  10.679   2.737   4.471 -0.2039  0.9457 -0.5531
  567MOL0     C74771  10.768   2.724   4.365  0.6537  0.2614  0.2186
  567MOL0     C74772  10.905   2.713   4.437  0.0567  0.0126 -0.4825
  567MOL0     C74773  10.911   2.626   4.571 -0.1731  0.0822 -0.2471
  567MOL0     C74774  11.046   2.613   4.622 -0.7594  0.8494 -0.4780
  567MOL0     C74775  11.051   2.541   4.744  0.2318 -1.1820 -0.9199
  567MOL0     C74776  11.046   2.494   4.851 -0.6589 -0.3925 -0.5624
  567MOL0     C74777  10.724   2.970   4.533  0.3011  0.6716 -0.0174
  567MOL0     C74778  10.682   3.089   4.607  0.3093  0.8134 -0.8250
  567MOL0     H74779  10.816   3.368   4.979 -1.4537 -2.0334  2.8225
  567MOL0     H74780  10.775   3.558   5.136 -1.6222 -1.0473  1.2941
  567MOL0     H74781  10.367   3.766   5.164 -0.1813 -1.2897 -2.0959
  567MOL0     H74782  10.467   3.843   5.042  3.3028  2.2572  0.9047
  567MOL0     H74783  10.423   4.008   5.231 -1.7141 -0.6689  2.9684
  567MOL0     H74784  10.592   3.976   5.221 -1.2499  2.0547 -1.6399
  567MOL0     H74785  10.549   3.967   5.448  0.8279  0.9638 -0.6303
  567MOL0     H74786  10.573   3.802   5.380 -0.3599 -0.0999 -2.7505
  567MOL0     H74787  10.313   3.947   5.426 -1.8248 -1.0051  3.5247
  567MOL0     H74788  10.331   3.767   5.408  2.9845 -1.7975 -1.2577
  567MOL0     H74789  10.481   3.910   5.639 -0.6440  0.3417  1.1848
  567MOL0     H74790  10.424   3.744   5.621 -0.4347 -0.1042  0.8389
  567MOL0     H74791  10.240   3.994   5.656  1.9703 -0.1536 -1.1316
  567MOL0     H74792  10.286   3.885   5.785 -2.6525  2.2629  0.8520
  567MOL0     H74793  10.115   3.809   5.550  0.7655  1.3234 -0.4710
  567MOL0     H74794  10.185   3.681   5.647 -2.6085 -1.7683  0.7100
  567MOL0     H74795   9.927   3.822   5.714 -0.4811 -0.4878  2.1041
  567MOL0     H74796  10.035   3.885   5.821 -3.6463 -3.2910  4.1708
  567MOL0     H74797  10.203   3.673   5.966  1.4690 -3.9425  1.4846
  567MOL0     H74798  10.058   3.400   6.141  0.7263  0.4392  0.9037
  567MOL0     H74799  10.218   3.459   6.100  1.7328 -0.6364 -1.3104
  567MOL0     H74800  10.082   3.251   5.917  0.7196 -2.6551  0.2621
  567MOL0     H74801  10.174   3.212   6.071 -0.2862  1.3359  0.2021
  567MOL0     H74802  10.282   3.350   5.826 -4.3739 -0.4366 -0.6940
  567MOL0     H74803  10.365   3.356   5.983  1.1954  1.6881 -2.6308
  567MOL0     H74804  10.267   3.092   5.836  1.2038 -1.1795 -0.5450
  567MOL0     H74805  10.361   3.113   5.984 -2.2625 -0.6558  1.1921
  567MOL0     H74806  10.648   3.344   5.771 -3.0676 -1.1670 -0.8852
  567MOL0     H74807  10.857   3.362   5.902 -0.7510  1.2512  0.1325
  567MOL0     H74808  11.235   3.125   6.048  2.4728 -1.7937  0.7765
  567MOL0     H74809  11.452   3.154   6.158 -0.8786 -0.2388 -2.7386
  567MOL0     H74810  11.451   3.473   6.497 -1.7504  1.7041 -2.0017
  567MOL0     H74811  11.532   3.528   6.346 -1.4157  1.4373  0.3833
  567MOL0     H74812  11.677   3.495   6.564  0.8751 -0.7587  0.0481
  567MOL0     H74813  11.744   3.412   6.422  0.0732 -1.3065 -2.5053
  567MOL0     H74814  11.770   3.256   6.583 -1.4809 -0.0524  3.0892
  567MOL0     H74815  11.631   3.207   6.486  0.1749  2.3500 -3.2071
  567MOL0     H74816  11.616   3.351   6.756 -0.0442 -2.4317  2.1712
  567MOL0     H74817  11.481   3.307   6.656  1.0095 -0.8391 -1.1024
  567MOL0     H74818  11.674   3.098   6.769  0.0729 -2.0133 -3.0254
  567MOL0     H74819  11.541   3.069   6.661  2.0053 -1.3585 -0.2146
  567MOL0     H74820  11.514   3.214   6.937  0.7281  0.5601 -0.5679
  567MOL0     H74821  11.524   3.039   6.923 -0.2283  2.1093  1.6255
  567MOL0     H74822  11.293   3.213   6.816  1.6325  0.1341 -2.1429
  567MOL0     H74823  11.320   3.055   6.752 -1.1371  1.6145 -0.8482
  567MOL0     H74824  11.335   2.987   7.024  0.9735 -1.8101 -1.6824
  567MOL0     H74825  11.180   3.011   6.936  0.3919 -0.2320 -0.2141
  567MOL0     H74826  11.276   3.491   6.371 -1.3553 -0.1939  1.1210
  567MOL0     H74827  11.075   3.480   6.226  2.1519  2.8650 -0.7665
  567MOL0     H74828  10.758   2.996   6.107  1.0183  1.4890  1.1385
  567MOL0     H74829  10.540   2.986   6.000 -0.4527  0.6315  2.1254
  567MOL0     H74830  10.385   3.611   4.965 -1.1293 -2.2700 -2.4134
  567MOL0     H74831  10.424   3.422   4.827  0.1445  0.5815 -0.6181
  567MOL0     H74832  10.458   2.921   4.799 -0.0725  2.0429 -0.0938
  567MOL0     H74833  10.521   2.742   4.665  1.1244 -0.1123 -2.5927
  567MOL0     H74834  10.758   2.805   4.293 -0.5912  1.1805  1.3708
  567MOL0     H74835  10.737   2.629   4.321 -3.0684  1.0172  0.9177
  567MOL0     H74836  10.971   2.668   4.362 -0.1593 -1.9327  0.4295
  567MOL0     H74837  10.947   2.810   4.466  0.1692 -0.0992 -0.2736
  567MOL0     H74838  10.862   2.530   4.554  1.6008 -0.7027 -1.2250
  567MOL0     H74839  10.838   2.674   4.636 -2.5545 -1.7485 -1.4292
  567MOL0     H74840  11.118   2.567   4.553 -3.0144 -1.8911 -1.1884
  567MOL0     H74841  11.092   2.710   4.643  0.6643 -0.2033  1.5338
  567MOL0     H74842  11.032   2.471   4.955  2.1252  2.1128  0.4991
  567MOL0     H74843  10.803   2.986   4.461  1.2989  1.6641  1.2549
  567MOL0     H74844  10.722   3.189   4.590 -0.3296  0.8876 -1.9914
  568MOL0     O74845   2.434   6.295   3.494 -0.3803  0.5035  0.0279
  568MOL0     C74846   2.421   6.173   3.478 -0.5181 -0.8583 -0.4812
  568MOL0     O74847   2.299   6.109   3.449 -0.1659 -0.3729  0.3190
  568MOL0     C74848   2.185   6.180   3.465  0.3560 -0.0031 -0.6776
  568MOL0     C74849   2.102   6.146   3.573 -0.7249  0.2983  0.5408
  568MOL0     C74850   1.991   6.223   3.591  0.1388  0.0302 -0.2418
  568MOL0     C74851   1.955   6.332   3.504 -0.7842  0.5549 -0.3253
  568MOL0     O74852   1.832   6.393   3.507  0.7761 -0.5514  0.1290
  568MOL0     C74853   1.777   6.429   3.633 -0.1137 -0.3256  0.1079
  568MOL0     C74854   1.713   6.564   3.629 -0.3214  0.1602  0.0091
  568MOL0     C74855   1.588   6.577   3.543 -0.1950  0.0214  0.0778
  568MOL0     C74856   1.465   6.535   3.619  0.4334  0.2588  0.0365
  568MOL0     C74857   1.343   6.552   3.518 -0.1179  0.5083  0.5209
  568MOL0     C74858   1.205   6.531   3.580  0.7975 -0.0190 -0.5805
  568MOL0     C74859   1.096   6.515   3.474 -0.4213 -0.0496 -0.1421
  568MOL0     C74860   0.960   6.497   3.546  0.0998 -0.7147 -0.1545
  568MOL0     N74861   0.850   6.465   3.451  0.8625 -0.0557 -0.2862
  568MOL0     C74862   0.803   6.557   3.367  0.9470  0.1512 -0.3117
  568MOL0     C74863   0.713   6.494   3.290 -0.4686 -0.0081 -0.2188
  568MOL0     C74864   0.626   6.563   3.186  0.4337 -0.4071  0.0979
  568MOL0     C74865   0.530   6.678   3.227  0.4758 -0.5987  0.2016
  568MOL0     C74866   0.603   6.815   3.242  0.6256 -0.0656 -0.9989
  568MOL0     C74867   0.520   6.940   3.220  0.1442 -0.3975 -0.6725
  568MOL0     O74868   0.402   6.916   3.301  0.7233  1.0321 -0.2933
  568MOL0     C74869   0.288   6.963   3.249  0.7287  0.0014  0.6845
  568MOL0     C74870   0.269   7.096   3.208  0.7147  0.4263 -0.2437
  568MOL0     C74871   0.135   7.142   3.157  0.0716  0.1353  0.1597
  568MOL0     C74872   0.029   7.049   3.157 -0.0200 -0.8065  0.6483
  568MOL0     C74873  -0.112   7.083   3.114  0.0450 -0.2858 -0.3623
  568MOL0     O74874  -0.215   6.988   3.136 -0.0730  0.0488  0.2713
  568MOL0     C74875  -0.339   7.031   3.102 -1.2660  1.1466  1.0735
  568MOL0     C74876  -0.411   6.957   3.016  0.4963  0.5084 -0.8375
  568MOL0     C74877  -0.542   6.993   2.980  0.0199  0.4486  0.0209
  568MOL0     C74878  -0.609   7.100   3.040  1.2402 -0.1088  0.7105
  568MOL0     O74879  -0.739   7.127   3.008  0.4872 -0.2803  0.3223
  568MOL0     C74880  -0.792   7.070   2.887  0.2086  0.2365 -1.0459
  568MOL0     C74881  -0.925   7.144   2.868  0.3279  0.3279 -0.3778
  568MOL0     C74882  -1.041   7.118   2.970 -0.1152  0.4237 -0.0014
  568MOL0     C74883  -1.154   7.207   2.956 -0.9123  0.1162 -0.1006
  568MOL0     C74884  -1.218   7.203   2.825  0.3601 -0.8122  0.4426
  568MOL0     C74885  -1.351   7.279   2.838  0.5768  0.0509  0.8013
  568MOL0     C74886  -1.413   7.273   2.692 -0.9605  1.4506 -0.2257
  568MOL0     C74887  -1.519   7.171   2.663 -0.3630 -0.7583 -0.7118
  568MOL0    Cl74888  -1.529   7.151   2.491 -0.3710  0.5018 -0.3232
  568MOL0     C74889  -0.536   7.180   3.131 -0.0912  0.4575 -0.1051
  568MOL0     C74890  -0.411   7.135   3.168 -0.2459 -0.5295  0.0881
  568MOL0     O74891  -0.127   7.193   3.062 -0.6560 -0.7548 -0.9218
  568MOL0     C74892   0.054   6.917   3.210  0.6240  0.6383  0.3431
  568MOL0     C74893   0.178   6.872   3.250 -0.3669  0.0514  0.8088
  568MOL0     N74894   0.695   6.370   3.345 -0.1010  0.4894  0.6328
  568MOL0     N74895   0.774   6.355   3.440  0.2765 -0.1784 -0.5500
  568MOL0     C74896   2.040   6.357   3.398 -0.6633 -0.0193  1.2238
  568MOL0     C74897   2.157   6.285   3.379  0.9097 -0.4111 -0.1640
  568MOL0     C74898   2.539   6.092   3.512 -0.0204  0.7362 -0.2814
  568MOL0     C74899   2.659   6.156   3.537  0.5450 -0.2997  0.3432
  568MOL0     C74900   2.777   6.084   3.564  0.6533  0.4402  0.1360
  568MOL0     C74901   2.779   5.948   3.570  0.8987 -0.1564 -0.0649
  568MOL0     O74902   2.886   5.872   3.598  0.0737  0.5105 -0.0365
  568MOL0     C74903   2.997   5.883   3.510  0.2301  0.8905  0.4671
  568MOL0     C74904   3.125   5.933   3.581  0.5613 -0.1020 -0.5828
  568MOL0     C74905   3.128   5.899   3.729 -1.0799 -0.5469  0.7242
  568MOL0     C74906   3.067   6.000   3.822  0.2094  0.9414  0.2714
  568MOL0     C74907   3.120   6.130   3.814 -0.1762  0.2000  0.7775
  568MOL0     C74908   3.173   6.236   3.805  0.8365 -0.4501 -0.0745
  568MOL0     C74909   2.651   5.879   3.545 -0.4798 -0.0125  0.0381
  568MOL0     C74910   2.524   5.956   3.533 -0.3828  0.5306  0.1287
  568MOL0     H74911   2.128   6.079   3.655  0.5785  1.5466  1.1951
  568MOL0     H74912   1.928   6.206   3.678  0.7044 -0.0822  0.1521
  568MOL0     H74913   1.862   6.430   3.702  2.1684 -0.0872 -2.5361
  568MOL0     H74914   1.708   6.357   3.679  0.0459  0.7287  2.1479
  568MOL0     H74915   1.779   6.643   3.593  0.5571 -0.2458  0.6827
  568MOL0     H74916   1.694   6.594   3.732  0.9603  1.5832 -0.1297
  568MOL0     H74917   1.601   6.533   3.444  3.3957 -0.3667  0.5824
  568MOL0     H74918   1.594   6.686   3.533  3.7196 -0.1501 -1.0312
  568MOL0     H74919   1.476   6.433   3.657 -2.8622 -1.3142 -2.7045
  568MOL0     H74920   1.450   6.606   3.701  0.5045 -1.9563  2.0566
  568MOL0     H74921   1.350   6.466   3.451 -2.4407  0.0702  0.7607
  568MOL0     H74922   1.352   6.650   3.471 -1.4540  1.4287  2.0684
  568MOL0     H74923   1.177   6.620   3.639  1.1226  1.8779 -3.1167
  568MOL0     H74924   1.214   6.437   3.635 -0.0590  0.7377  0.9308
  568MOL0     H74925   1.089   6.609   3.418  1.5585  0.3325  0.1916
  568MOL0     H74926   1.114   6.429   3.409 -1.6680  1.9491 -3.3808
  568MOL0     H74927   0.923   6.586   3.597 -0.7667 -1.3161  0.3026
  568MOL0     H74928   0.961   6.417   3.621  0.0017  0.0223  0.6378
  568MOL0     H74929   0.825   6.660   3.342 -2.3685  1.1180  0.2788
  568MOL0     H74930   0.561   6.486   3.145  1.8645 -0.5688 -2.0012
  568MOL0     H74931   0.693   6.590   3.104  1.1168  2.5572  1.4824
  568MOL0     H74932   0.483   6.658   3.323  0.7537 -1.0225  0.2496
  568MOL0     H74933   0.447   6.694   3.158 -1.2698  2.6710  2.7801
  568MOL0     H74934   0.643   6.812   3.344 -1.0287 -2.3611 -0.3474
  568MOL0     H74935   0.695   6.821   3.183  2.1984 -3.6478  0.7617
  568MOL0     H74936   0.507   6.981   3.119  1.9114 -0.3020 -0.8956
  568MOL0     H74937   0.574   7.020   3.272 -0.0693  1.6504 -3.3735
  568MOL0     H74938   0.350   7.168   3.212 -0.2385  1.5126  0.0009
  568MOL0     H74939   0.124   7.244   3.122  0.9115 -0.4552 -1.9778
  568MOL0     H74940  -0.365   6.864   2.984  0.6183  0.8343 -1.6329
  568MOL0     H74941  -0.602   6.931   2.915 -3.5654  0.7436  2.7592
  568MOL0     H74942  -0.814   6.964   2.897  0.1394  0.3000 -0.4760
  568MOL0     H74943  -0.726   7.080   2.801  2.3851 -0.3084  0.4926
  568MOL0     H74944  -0.967   7.125   2.769  1.7480  0.3030 -0.9944
  568MOL0     H74945  -0.909   7.253   2.867  0.4354  0.3198  0.1082
  568MOL0     H74946  -1.012   7.130   3.075 -1.7619  0.0154  0.5324
  568MOL0     H74947  -1.072   7.013   2.965 -1.0686  0.6198  1.1548
  568MOL0     H74948  -1.225   7.160   3.024  1.0296 -2.1918  0.4460
  568MOL0     H74949  -1.126   7.309   2.987  0.4524  0.4247 -2.1387
  568MOL0     H74950  -1.235   7.099   2.796  0.0561 -1.2404  2.0325
  568MOL0     H74951  -1.151   7.253   2.755  0.5377 -1.1707  0.3537
  568MOL0     H74952  -1.330   7.381   2.871 -0.3652 -0.3822  2.8893
  568MOL0     H74953  -1.420   7.225   2.904 -0.8471  2.7950  1.6915
  568MOL0     H74954  -1.463   7.371   2.685 -0.8773  1.3890 -4.5800
  568MOL0     H74955  -1.334   7.270   2.616 -2.1642  0.9018 -1.4893
  568MOL0     H74956  -1.610   7.203   2.714  2.7011  0.6136  4.6182
  568MOL0     H74957  -1.481   7.075   2.699  1.4838 -0.4690 -1.7401
  568MOL0     H74958  -0.572   7.274   3.171  1.4154  1.4366 -0.9246
  568MOL0     H74959  -0.348   7.200   3.228  0.5047  0.8330 -2.0524
  568MOL0     H74960  -0.016   6.835   3.221  0.6422  0.3986 -1.1121
  568MOL0     H74961   0.191   6.766   3.268  1.7459 -0.5075 -2.9552
  568MOL0     H74962   2.018   6.433   3.324 -0.2477 -1.0328  0.0239
  568MOL0     H74963   2.225   6.302   3.296  0.1575 -0.6726 -0.8460
  568MOL0     H74964   2.673   6.263   3.523  2.6159 -0.1850  2.7509
  568MOL0     H74965   2.867   6.143   3.579  0.8957  0.1511 -0.1748
  568MOL0     H74966   2.970   5.931   3.416 -0.7757  0.3356  0.4591
  568MOL0     H74967   3.018   5.783   3.472 -3.3415  0.9851 -2.2756
  568MOL0     H74968   3.215   5.891   3.535 -0.1225 -2.2057 -0.1230
  568MOL0     H74969   3.129   6.041   3.566  1.1431  0.7065  4.0651
  568MOL0     H74970   3.236   5.893   3.746 -0.3882  0.9527 -2.4317
  568MOL0     H74971   3.078   5.804   3.749 -0.8365 -0.2281  3.1903
  568MOL0     H74972   2.958   6.009   3.810  0.2899  1.0321 -0.4089
  568MOL0     H74973   3.090   5.966   3.923  1.0476  0.3055 -0.1192
  568MOL0     H74974   3.219   6.332   3.790  0.1493  0.0582  0.9560
  568MOL0     H74975   2.647   5.772   3.564 -1.1271 -0.0056 -0.0566
  568MOL0     H74976   2.427   5.911   3.513  0.9986 -2.0589 -1.3225
  569MOL0     O74977   4.650   2.405   1.614 -0.5364  0.0610  0.4588
  569MOL0     C74978   4.673   2.461   1.504  0.4233 -1.2190 -0.8375
  569MOL0     O74979   4.582   2.525   1.421 -0.3857  0.2138  0.9782
  569MOL0     C74980   4.453   2.511   1.452 -0.3469 -0.0435 -0.7143
  569MOL0     C74981   4.402   2.551   1.573 -0.1575  0.0773 -0.3273
  569MOL0     C74982   4.267   2.556   1.589  0.5536  0.5813  0.0536
  569MOL0     C74983   4.181   2.529   1.483  0.0641  0.1507  0.1504
  569MOL0     O74984   4.050   2.539   1.519  0.1155  0.0140 -0.0129
  569MOL0     C74985   3.948   2.533   1.421 -0.6917  0.9940  0.1299
  569MOL0     C74986   3.822   2.600   1.479  0.0791 -0.7470  0.8161
  569MOL0     C74987   3.843   2.745   1.523  0.1431 -0.1622  0.4436
  569MOL0     C74988   3.912   2.823   1.405  0.2522  0.8778  0.4411
  569MOL0     C74989   3.944   2.966   1.441 -0.1896 -0.4888  0.2836
  569MOL0     C74990   3.818   3.043   1.426  0.0800  0.1286  0.7965
  569MOL0     C74991   3.820   3.096   1.284 -0.0589 -1.0697 -0.1152
  569MOL0     C74992   3.684   3.162   1.249  0.1516 -0.0093  0.1816
  569MOL0     N74993   3.650   3.288   1.314 -0.5358  0.1453  1.2429
  569MOL0     C74994   3.730   3.392   1.294  0.1600 -0.5784  0.8543
  569MOL0     C74995   3.673   3.495   1.360 -0.4585  0.3411  1.2327
  569MOL0     C74996   3.707   3.638   1.363 -0.3482  1.0621 -1.0295
  569MOL0     C74997   3.858   3.676   1.350  0.7695 -0.1649 -0.1313
  569MOL0     C74998   3.873   3.824   1.322  0.4486 -0.4737 -1.3302
  569MOL0     C74999   3.852   3.861   1.177  1.3368  0.2987 -0.4928
  569MOL0     O75000   3.968   3.820   1.100  0.5428 -0.0342  0.0883
  569MOL0     C75001   3.966   3.730   0.998  0.2452 -0.3585 -0.5769
  569MOL0     C75002   3.876   3.625   0.985  0.2742 -0.0958 -1.0174
  569MOL0     C75003   3.868   3.540   0.866  0.1696 -0.1534 -0.3755
  569MOL0     C75004   3.942   3.583   0.747  0.0512 -0.3289 -0.5795
  569MOL0     C75005   3.954   3.493   0.628 -0.5587 -1.0551 -1.3242
  569MOL0     O75006   4.030   3.546   0.519  0.3283 -0.2806 -0.8329
  569MOL0     C75007   4.035   3.473   0.406 -0.2184  0.4402 -0.1573
  569MOL0     C75008   3.968   3.515   0.287  0.2638 -0.3536 -0.4014
  569MOL0     C75009   4.004   3.468   0.157  0.3023  0.9173 -1.4730
  569MOL0     C75010   4.107   3.369   0.150  0.3461  0.2572  1.0458
  569MOL0     O75011   4.139   3.305   0.030  0.1756 -0.2828 -0.2793
  569MOL0     C75012   4.097   3.363  -0.093 -0.3753 -0.0541 -0.3477
  569MOL0     C75013   4.084   3.255  -0.201 -0.2859  1.0188  0.5099
  569MOL0     C75014   4.219   3.196  -0.266 -0.1947 -0.1652 -0.0053
  569MOL0     C75015   4.271   3.300  -0.366  0.3890  0.6654  0.2145
  569MOL0     C75016   4.387   3.368  -0.297  0.0179 -0.2988 -1.0765
  569MOL0     C75017   4.434   3.494  -0.379  0.0489  0.0428  0.2902
  569MOL0     C75018   4.567   3.555  -0.334  0.0076 -0.0388 -0.2297
  569MOL0     C75019   4.666   3.596  -0.448  0.0487  0.3803  0.6715
  569MOL0    Cl75020   4.602   3.717  -0.571  0.0746 -0.0140  0.5326
  569MOL0     C75021   4.161   3.316   0.270  0.1926  0.2916 -0.5865
  569MOL0     C75022   4.130   3.368   0.393 -0.1199 -1.0387  0.4325
  569MOL0     O75023   3.899   3.383   0.637  0.1565 -0.3398  0.4121
  569MOL0     C75024   4.035   3.694   0.765 -1.4150  0.1563  0.5895
  569MOL0     C75025   4.046   3.755   0.890  0.3128  0.0235  0.4695
  569MOL0     N75026   3.561   3.438   1.425  0.9877  0.2984 -0.0541
  569MOL0     N75027   3.540   3.316   1.394 -0.4678  0.3184  0.3649
  569MOL0     C75028   4.225   2.485   1.362 -0.6446 -0.4719 -0.4236
  569MOL0     C75029   4.365   2.483   1.345  0.1289 -0.3953 -0.0455
  569MOL0     C75030   4.809   2.461   1.446  0.2400 -0.3064 -1.0628
  569MOL0     C75031   4.830   2.463   1.307  0.6008  0.3818 -0.8189
  569MOL0     C75032   4.959   2.462   1.254 -1.1962 -0.2930  0.2503
  569MOL0     C75033   5.071   2.451   1.330  0.3974 -0.0322 -0.8389
  569MOL0     O75034   5.199   2.455   1.282 -0.1970  0.1725  0.1334
  569MOL0     C75035   5.236   2.503   1.150  0.2271 -0.2834  0.2116
  569MOL0     C75036   5.319   2.624   1.148  0.1181 -0.0922 -0.1321
  569MOL0     C75037   5.453   2.610   1.206 -0.0964 -0.2786 -1.0310
  569MOL0     C75038   5.564   2.528   1.133 -0.2284  0.0092 -0.8337
  569MOL0     C75039   5.600   2.565   0.995 -0.1600  0.1206  0.1044
  569MOL0     C75040   5.624   2.618   0.895 -0.1533  0.2548  0.3625
  569MOL0     C75041   5.045   2.438   1.468 -0.5207 -0.6494  0.3749
  569MOL0     C75042   4.919   2.445   1.529 -0.8006  0.8477  0.3066
  569MOL0     H75043   4.474   2.567   1.653 -0.5345  2.1584 -0.3313
  569MOL0     H75044   4.228   2.587   1.685  3.9479  0.7670  1.5300
  569MOL0     H75045   3.915   2.431   1.399 -2.5179  0.9055  2.7821
  569MOL0     H75046   3.981   2.560   1.321  2.7302  1.2901  1.2021
  569MOL0     H75047   3.792   2.538   1.564 -2.9020  0.7646  1.0103
  569MOL0     H75048   3.750   2.610   1.397  0.2835  0.7861  0.7862
  569MOL0     H75049   3.921   2.740   1.599  0.1001 -2.3601  0.4052
  569MOL0     H75050   3.746   2.783   1.555  0.8368  1.6023  0.5578
  569MOL0     H75051   4.010   2.778   1.386  0.6692  2.3971 -1.2384
  569MOL0     H75052   3.857   2.807   1.312  0.4117 -2.9637  0.8400
  569MOL0     H75053   4.031   3.001   1.383  0.4023  2.5629  2.7247
  569MOL0     H75054   3.979   2.976   1.544  1.9364 -1.6574 -0.2531
  569MOL0     H75055   3.820   3.124   1.500  1.6308  0.6791  0.1803
  569MOL0     H75056   3.726   2.986   1.444  1.2726 -1.9560  0.5040
  569MOL0     H75057   3.908   3.159   1.270  0.2655 -1.8864 -2.0487
  569MOL0     H75058   3.820   3.006   1.221 -0.0774  0.2847 -2.1178
  569MOL0     H75059   3.605   3.089   1.268  0.1635 -0.0280  0.1570
  569MOL0     H75060   3.698   3.176   1.142  1.3253 -2.3694 -0.0386
  569MOL0     H75061   3.819   3.400   1.233 -0.3240  0.9861  0.3029
  569MOL0     H75062   3.680   3.684   1.459 -2.9366 -2.4122  0.1067
  569MOL0     H75063   3.646   3.678   1.281 -0.0759  1.4950 -1.0229
  569MOL0     H75064   3.887   3.616   1.264 -0.8219 -0.7649 -0.2888
  569MOL0     H75065   3.920   3.655   1.437  0.7602 -0.0776 -0.1034
  569MOL0     H75066   3.802   3.874   1.388  2.1486 -1.1647  1.1653
  569MOL0     H75067   3.964   3.873   1.357 -1.0810  1.4643  0.1251
  569MOL0     H75068   3.830   3.966   1.157 -1.9834 -0.6439 -2.7051
  569MOL0     H75069   3.768   3.800   1.141  3.1512 -3.6776  1.3791
  569MOL0     H75070   3.817   3.584   1.066 -0.3616  1.5496 -0.6066
  569MOL0     H75071   3.798   3.458   0.860  1.2936 -1.1880  0.2311
  569MOL0     H75072   3.905   3.603   0.282  1.5025  0.6344  0.7739
  569MOL0     H75073   3.954   3.501   0.066 -1.6556 -0.8430 -1.1175
  569MOL0     H75074   4.159   3.444  -0.131 -0.6828  0.1500 -0.4176
  569MOL0     H75075   3.993   3.395  -0.087 -0.2154  0.5227 -0.6311
  569MOL0     H75076   4.017   3.300  -0.275 -0.8913  0.8938  0.9778
  569MOL0     H75077   4.036   3.165  -0.163  0.5988  0.7760  1.0844
  569MOL0     H75078   4.194   3.112  -0.330 -0.4652  1.4176 -2.0943
  569MOL0     H75079   4.279   3.163  -0.180 -1.9934 -2.2706  0.5074
  569MOL0     H75080   4.312   3.263  -0.460  3.8854  0.6029  1.6199
  569MOL0     H75081   4.195   3.377  -0.383 -0.1582  0.2584  0.7798
  569MOL0     H75082   4.464   3.291  -0.296 -0.3519 -0.6770 -1.3348
  569MOL0     H75083   4.356   3.397  -0.195  0.7727 -2.8547 -0.0393
  569MOL0     H75084   4.352   3.566  -0.388 -0.0065 -0.1922 -1.3427
  569MOL0     H75085   4.454   3.451  -0.478  0.3342  0.4587  0.1646
  569MOL0     H75086   4.553   3.644  -0.273  2.8198  0.5764 -0.3785
  569MOL0     H75087   4.617   3.482  -0.270  0.1978  0.4543  0.1907
  569MOL0     H75088   4.701   3.500  -0.489 -0.5668  1.3345 -2.3639
  569MOL0     H75089   4.753   3.646  -0.404  1.4738  1.3352 -2.8876
  569MOL0     H75090   4.231   3.233   0.270  1.5736  1.3063 -3.4353
  569MOL0     H75091   4.183   3.336   0.482 -0.3190  1.3190  1.4834
  569MOL0     H75092   4.102   3.730   0.687 -2.1507  0.2453 -0.0056
  569MOL0     H75093   4.117   3.837   0.899  2.1547 -0.7355 -4.1918
  569MOL0     H75094   4.158   2.456   1.282 -1.3289 -0.3717  0.1044
  569MOL0     H75095   4.410   2.478   1.246 -0.5885  1.0011 -0.4623
  569MOL0     H75096   4.747   2.460   1.236 -1.2337 -2.6866  1.2041
  569MOL0     H75097   4.961   2.473   1.147 -3.5883 -1.7831 -0.0331
  569MOL0     H75098   5.149   2.508   1.085 -0.9877  0.9945  1.8392
  569MOL0     H75099   5.301   2.426   1.107 -0.6780 -1.0953  0.2819
  569MOL0     H75100   5.329   2.663   1.047  0.8881  1.8241  0.6217
  569MOL0     H75101   5.261   2.700   1.202 -0.9512 -0.5097 -0.6602
  569MOL0     H75102   5.434   2.575   1.307 -1.3742 -0.4480 -1.3115
  569MOL0     H75103   5.497   2.709   1.224  0.6868 -0.7529 -0.2532
  569MOL0     H75104   5.658   2.528   1.189  0.5764  3.4005 -1.9612
  569MOL0     H75105   5.536   2.423   1.146  1.3983 -0.2729  0.8351
  569MOL0     H75106   5.643   2.664   0.801 -1.7054  1.0158  0.3908
  569MOL0     H75107   5.131   2.417   1.530 -0.1203 -1.2157 -0.3548
  569MOL0     H75108   4.909   2.448   1.637  2.1306 -3.4719  0.9560
  570MOL0     O75109   9.618   7.916   8.263 -0.8522  0.6912 -0.0496
  570MOL0     C75110   9.614   7.796   8.229  0.2443 -0.2603  0.2736
  570MOL0     O75111   9.723   7.719   8.204  0.5209  0.8627 -0.3661
  570MOL0     C75112   9.850   7.773   8.172  0.5814  0.6655  0.3880
  570MOL0     C75113   9.957   7.698   8.218  0.1539 -0.5109 -0.3663
  570MOL0     C75114  10.084   7.731   8.184 -0.0342 -0.0542 -0.2385
  570MOL0     C75115  10.099   7.836   8.097  0.6649 -0.5277  0.1342
  570MOL0     O75116  10.220   7.867   8.041 -0.7216  0.3215 -0.2800
  570MOL0     C75117  10.330   7.917   8.129 -0.1517  0.4462 -0.3647
  570MOL0     C75118  10.450   7.848   8.078  0.5270  0.2549 -0.0133
  570MOL0     C75119  10.585   7.889   8.154  0.1406  0.2491 -0.6788
  570MOL0     C75120  10.711   7.862   8.077 -0.0138  0.0380 -0.3644
  570MOL0     C75121  10.828   7.849   8.173 -0.0418  0.8794  1.1347
  570MOL0     C75122  10.864   7.990   8.231  0.0956  0.1294 -1.0685
  570MOL0     C75123  11.003   8.008   8.300 -0.2338 -0.6609 -0.0285
  570MOL0     C75124  11.039   7.906   8.410 -0.3463  0.3675  0.1549
  570MOL0     N75125  10.965   7.915   8.538  0.6413  0.2525  0.5185
  570MOL0     C75126  10.913   8.026   8.606 -0.9394 -0.2509  0.5707
  570MOL0     C75127  10.859   7.978   8.721  1.2033  0.3058  1.2778
  570MOL0     C75128  10.776   8.045   8.823  0.3732  0.2585  0.2102
  570MOL0     C75129  10.623   8.037   8.794  0.1402 -1.0377  0.3919
  570MOL0     C75130  10.589   8.032   8.646  0.3121  0.2942  1.2637
  570MOL0     C75131  10.433   8.043   8.630 -0.1571  0.7374 -0.5987
  570MOL0     O75132  10.391   8.185   8.640 -0.5962  0.2164  0.8697
  570MOL0     C75133  10.267   8.227   8.662  0.3573 -0.2993  0.4914
  570MOL0     C75134  10.235   8.353   8.604 -0.2897  0.8433  0.2077
  570MOL0     C75135  10.114   8.416   8.636  0.2476  0.2709  0.1862
  570MOL0     C75136  10.022   8.356   8.725 -0.0158 -0.2651 -0.0905
  570MOL0     C75137   9.894   8.427   8.764 -0.3635 -1.0150  0.0900
  570MOL0     O75138   9.871   8.561   8.725 -0.7332 -0.0279 -0.7505
  570MOL0     C75139   9.790   8.646   8.797 -1.0086  0.1971  0.7691
  570MOL0     C75140   9.711   8.610   8.912  1.1387  1.0597  0.5041
  570MOL0     C75141   9.639   8.706   8.974  0.5132  0.3820  0.4217
  570MOL0     C75142   9.637   8.841   8.935  0.0398 -0.1174 -0.8972
  570MOL0     O75143   9.557   8.921   9.010  0.7183  0.1838 -0.5820
  570MOL0     C75144   9.511   9.041   8.956 -0.1589 -0.0255  0.2118
  570MOL0     C75145   9.449   9.121   9.064  0.0575  0.3409  0.9792
  570MOL0     C75146   9.557   9.183   9.150  0.2121  1.2192  0.4124
  570MOL0     C75147   9.497   9.252   9.266 -0.1857 -0.3903 -1.2692
  570MOL0     C75148   9.603   9.323   9.360  0.4714 -0.4652  0.1995
  570MOL0     C75149   9.553   9.316   9.506  0.1018  0.4452  0.5904
  570MOL0     C75150   9.653   9.384   9.594 -0.3469  1.0234 -0.1512
  570MOL0     C75151   9.587   9.417   9.733 -0.0018 -0.4723  1.4901
  570MOL0    Cl75152   9.537   9.263   9.829  0.2342  0.3071  0.0733
  570MOL0     C75153   9.728   8.871   8.837  0.8230 -0.6197 -0.1287
  570MOL0     C75154   9.797   8.780   8.759  0.6269 -0.5407 -0.5920
  570MOL0     O75155   9.817   8.360   8.823 -0.0134  1.0799 -0.6586
  570MOL0     C75156  10.055   8.225   8.765  0.1508  0.1826 -0.2068
  570MOL0     C75157  10.176   8.158   8.741  1.1422 -0.0390  0.0524
  570MOL0     N75158  10.883   7.838   8.728  0.0918  0.0683  0.9728
  570MOL0     N75159  10.945   7.803   8.618  1.2356 -1.1665  0.3475
  570MOL0     C75160   9.987   7.904   8.040  0.3278 -0.0974  0.3053
  570MOL0     C75161   9.859   7.870   8.076  0.5814 -0.1758 -0.8419
  570MOL0     C75162   9.477   7.734   8.201  1.1839  0.6109 -1.5125
  570MOL0     C75163   9.470   7.607   8.141  0.0325 -0.5671  0.2879
  570MOL0     C75164   9.345   7.553   8.115 -0.1775  0.9905 -0.1161
  570MOL0     C75165   9.222   7.614   8.152  0.4551 -0.3661 -0.7780
  570MOL0     O75166   9.096   7.553   8.118 -0.5023 -0.6783  0.5779
  570MOL0     C75167   8.997   7.641   8.071  0.3062  0.2296 -0.7986
  570MOL0     C75168   8.900   7.677   8.182 -0.3733 -0.5306  0.0689
  570MOL0     C75169   8.757   7.608   8.161 -0.6601  0.3079 -0.2134
  570MOL0     C75170   8.647   7.685   8.231 -0.7118 -0.1604 -0.6593
  570MOL0     C75171   8.655   7.695   8.379  0.3641  0.3884  0.1112
  570MOL0     C75172   8.676   7.703   8.499 -0.0422 -0.0867 -0.1135
  570MOL0     C75173   9.232   7.742   8.202  1.0013  0.4955 -0.0284
  570MOL0     C75174   9.359   7.805   8.230  0.0029  0.7475  0.0740
  570MOL0     H75175   9.943   7.607   8.276  0.2955  0.3738  1.0915
  570MOL0     H75176  10.172   7.678   8.220  0.2284  1.0365  0.8209
  570MOL0     H75177  10.316   7.890   8.234  2.2267 -4.4361 -0.9667
  570MOL0     H75178  10.351   8.023   8.112 -4.3276  0.8803 -5.1954
  570MOL0     H75179  10.451   7.879   7.973  0.4129 -2.5184 -0.9251
  570MOL0     H75180  10.447   7.739   8.070 -1.5269  0.2430  0.4824
  570MOL0     H75181  10.591   7.834   8.248 -2.2019  1.2969  0.1684
  570MOL0     H75182  10.573   7.995   8.176 -1.0074  0.7755 -3.3667
  570MOL0     H75183  10.698   7.775   8.012  1.6822  0.6555 -1.6063
  570MOL0     H75184  10.732   7.944   8.007  2.7299 -0.0862  0.2192
  570MOL0     H75185  10.912   7.804   8.119  0.7909  2.1741  1.2831
  570MOL0     H75186  10.815   7.774   8.251  0.1985  1.3907  1.6766
  570MOL0     H75187  10.779   8.006   8.298 -0.4205 -2.3528 -1.0198
  570MOL0     H75188  10.866   8.054   8.143  2.6177  1.1796 -0.3422
  570MOL0     H75189  11.078   7.995   8.222  1.5009  1.7362  1.1220
  570MOL0     H75190  11.013   8.114   8.324 -2.7513 -0.2254 -0.5639
  570MOL0     H75191  11.148   7.907   8.418 -0.2813 -0.8925 -0.2524
  570MOL0     H75192  11.022   7.807   8.366 -1.0162  0.5759 -0.0693
  570MOL0     H75193  10.921   8.124   8.562 -2.0865 -0.3986 -0.0155
  570MOL0     H75194  10.804   8.151   8.816 -1.3087  0.6686 -0.7033
  570MOL0     H75195  10.800   7.998   8.919  3.1015  0.9439 -0.0499
  570MOL0     H75196  10.568   8.123   8.834  0.1881 -0.2574 -1.1675
  570MOL0     H75197  10.578   7.955   8.851  3.6294 -1.9749  2.1322
  570MOL0     H75198  10.636   8.115   8.593 -2.8572  0.8232 -1.0153
  570MOL0     H75199  10.622   7.946   8.587 -1.3783  1.7346 -2.0596
  570MOL0     H75200  10.386   7.976   8.703  0.7892  0.7745  0.0548
  570MOL0     H75201  10.399   8.000   8.535  1.8585  0.7408 -1.3702
  570MOL0     H75202  10.311   8.394   8.538  1.1746  0.2411  1.4741
  570MOL0     H75203  10.091   8.517   8.603 -0.7263 -0.4224 -1.3169
  570MOL0     H75204   9.697   8.513   8.959 -0.1954  1.0134  0.0406
  570MOL0     H75205   9.587   8.670   9.063  2.8131  2.5288  2.8100
  570MOL0     H75206   9.436   9.018   8.880 -0.5381  0.1180  0.5403
  570MOL0     H75207   9.594   9.094   8.907  0.5221 -3.5155 -2.9358
  570MOL0     H75208   9.381   9.063   9.126  1.8293  0.4435  3.1476
  570MOL0     H75209   9.387   9.191   9.008 -0.7659 -0.2308  1.1690
  570MOL0     H75210   9.615   9.253   9.089  2.8209 -1.1282 -0.0489
  570MOL0     H75211   9.626   9.103   9.181  2.6249  0.6169 -5.2767
  570MOL0     H75212   9.418   9.319   9.232 -0.6248 -0.0037  0.3913
  570MOL0     H75213   9.442   9.185   9.333 -0.9256  1.6338  0.2445
  570MOL0     H75214   9.620   9.425   9.325 -0.5341 -0.1832  0.5087
  570MOL0     H75215   9.693   9.263   9.343 -0.0947 -2.1087  2.4742
  570MOL0     H75216   9.544   9.214   9.545  1.1393  0.3775  0.6955
  570MOL0     H75217   9.458   9.369   9.501  1.0109  2.0393 -1.3890
  570MOL0     H75218   9.737   9.320   9.620  0.5826  2.4227  0.3868
  570MOL0     H75219   9.698   9.475   9.553 -0.2238  0.5544 -1.0920
  570MOL0     H75220   9.508   9.489   9.711 -0.8972 -1.1042  2.5028
  570MOL0     H75221   9.667   9.462   9.793  1.7650 -0.8258 -0.4592
  570MOL0     H75222   9.745   8.974   8.807 -0.9239 -0.9423 -2.5693
  570MOL0     H75223   9.866   8.806   8.679  2.7760 -0.2283  1.2579
  570MOL0     H75224   9.976   8.175   8.820 -0.8021 -0.4171 -2.0546
  570MOL0     H75225  10.183   8.056   8.778  0.1112  0.0945  0.6610
  570MOL0     H75226   9.990   7.984   7.967  1.6100  1.5192  2.0281
  570MOL0     H75227   9.770   7.916   8.034  2.0551  3.5423 -0.3021
  570MOL0     H75228   9.561   7.567   8.097 -0.2127 -0.1059 -0.6640
  570MOL0     H75229   9.330   7.464   8.054 -0.4584  0.1842  1.1059
  570MOL0     H75230   8.934   7.599   7.993 -0.0901 -1.0889  0.1872
  570MOL0     H75231   9.040   7.733   8.031  3.3585 -0.0499  1.4312
  570MOL0     H75232   8.931   7.650   8.283  1.9622  4.3831  0.9679
  570MOL0     H75233   8.899   7.786   8.180  2.1958 -0.4367 -1.9846
  570MOL0     H75234   8.757   7.510   8.210  1.8625 -0.6266 -1.8435
  570MOL0     H75235   8.716   7.595   8.060 -3.7565 -2.8560  1.2138
  570MOL0     H75236   8.635   7.787   8.193 -1.7394  0.0326  0.1489
  570MOL0     H75237   8.551   7.634   8.218 -1.0071 -0.4324  2.0804
  570MOL0     H75238   8.691   7.685   8.603  2.3355  1.9345 -0.0059
  570MOL0     H75239   9.145   7.793   8.242 -0.4579 -0.0607 -2.2875
  570MOL0     H75240   9.369   7.906   8.270 -1.0830  0.4975  1.0417
  571MOL0     O75241   6.967  10.555   3.789 -0.3508 -0.1326 -0.6767
  571MOL0     C75242   7.045  10.479   3.729  0.0468 -0.7353 -0.2651
  571MOL0     O75243   7.183  10.488   3.729 -0.4079 -0.3824  0.5260
  571MOL0     C75244   7.243  10.580   3.814  0.5261 -0.8188  0.0277
  571MOL0     C75245   7.208  10.603   3.946 -0.5159  0.7819  0.3052
  571MOL0     C75246   7.268  10.694   4.025 -0.3674  0.1253 -0.5666
  571MOL0     C75247   7.352  10.794   3.974 -0.6225  0.3161  0.6495
  571MOL0     O75248   7.375  10.914   4.029  0.4502 -0.3843 -0.0664
  571MOL0     C75249   7.268  10.964   4.121 -0.4832 -0.0991 -0.4828
  571MOL0     C75250   7.285  11.116   4.166 -0.3698  0.1120  0.6802
  571MOL0     C75251   7.427  11.139   4.215 -0.4138 -0.2993 -0.1949
  571MOL0     C75252   7.425  11.273   4.280 -0.8696  0.1489  0.1422
  571MOL0     C75253   7.561  11.323   4.303  0.1766  0.0863  0.8055
  571MOL0     C75254   7.553  11.457   4.379 -0.1033 -0.4421 -0.8274
  571MOL0     C75255   7.703  11.501   4.391  0.4425  0.0759 -0.0345
  571MOL0     C75256   7.716  11.620   4.492  0.5983  0.6566  0.0022
  571MOL0     N75257   7.734  11.584   4.630  0.8217  0.2088  0.2776
  571MOL0     C75258   7.624  11.556   4.713  0.0911 -0.5337  1.3312
  571MOL0     C75259   7.678  11.501   4.824 -0.3578 -0.0875 -0.5338
  571MOL0     C75260   7.610  11.433   4.943 -0.2360 -1.1513  0.2949
  571MOL0     C75261   7.619  11.524   5.070  0.5847  0.2613 -0.4320
  571MOL0     C75262   7.682  11.662   5.061 -0.3071  0.3582 -0.1684
  571MOL0     C75263   7.744  11.700   5.197  0.6837 -1.0913 -0.0426
  571MOL0     O75264   7.639  11.703   5.294 -0.1720  0.4767  0.3965
  571MOL0     C75265   7.668  11.733   5.427  0.1839  0.2981 -0.3441
  571MOL0     C75266   7.563  11.724   5.516  0.2785 -0.2235 -0.6233
  571MOL0     C75267   7.592  11.748   5.652  0.0700  0.2123 -0.8082
  571MOL0     C75268   7.727  11.775   5.699 -0.1627  0.9180  0.3273
  571MOL0     C75269   7.760  11.827   5.836  0.4524  0.8105  0.6294
  571MOL0     O75270   7.891  11.850   5.876  0.2518  0.4445  0.0464
  571MOL0     C75271   7.898  11.930   5.991 -0.1702 -0.4661 -0.2561
  571MOL0     C75272   7.920  11.872   6.113  0.0722  0.3848  0.1829
  571MOL0     C75273   7.928  11.939   6.238  0.1216 -0.6326 -0.4292
  571MOL0     C75274   7.934  12.079   6.225 -0.0412  0.4672 -0.8622
  571MOL0     O75275   7.950  12.174   6.320 -0.2316  0.2993 -0.6601
  571MOL0     C75276   7.947  12.138   6.459 -0.8774 -0.8310  0.2106
  571MOL0     C75277   8.018  12.251   6.523 -0.3079 -0.1197  0.1335
  571MOL0     C75278   7.937  12.307   6.643  0.6839 -0.3194 -0.7288
  571MOL0     C75279   7.892  12.194   6.741 -1.7546 -0.4634  0.1502
  571MOL0     C75280   7.773  12.234   6.823 -0.4092  0.8286  0.2519
  571MOL0     C75281   7.802  12.366   6.902  0.8800  0.4137 -0.7231
  571MOL0     C75282   7.672  12.393   6.983 -0.3461  0.4350  0.1984
  571MOL0     C75283   7.652  12.536   7.011 -0.2656 -0.7462 -0.2673
  571MOL0    Cl75284   7.789  12.617   7.106 -0.4951  0.2459  0.2886
  571MOL0     C75285   7.930  12.142   6.104 -0.6093  0.8978  0.4759
  571MOL0     C75286   7.891  12.072   5.993  0.0616  0.9287  0.4086
  571MOL0     O75287   7.663  11.847   5.913  0.5004 -0.1597  0.3700
  571MOL0     C75288   7.827  11.782   5.599 -0.9068  0.4455 -0.0557
  571MOL0     C75289   7.794  11.762   5.470  0.1491 -0.7443 -0.4413
  571MOL0     N75290   7.820  11.500   4.806 -0.0660  0.6196 -0.1851
  571MOL0     N75291   7.846  11.544   4.690 -1.1373 -1.4457 -0.7908
  571MOL0     C75292   7.400  10.775   3.844  1.2709 -1.0560  0.1375
  571MOL0     C75293   7.337  10.676   3.764  0.3114  0.6366 -0.5703
  571MOL0     C75294   6.994  10.368   3.652 -0.4077  0.7615  0.2604
  571MOL0     C75295   6.864  10.317   3.678  0.3484 -0.3503  0.0622
  571MOL0     C75296   6.819  10.200   3.617 -0.4757  0.4743 -1.3787
  571MOL0     C75297   6.907  10.127   3.531  0.3412 -0.1929  1.3778
  571MOL0     O75298   6.868  10.020   3.454 -0.5542 -0.0552 -0.1037
  571MOL0     C75299   6.737   9.964   3.462  0.2167 -0.0671 -0.1037
  571MOL0     C75300   6.616  10.035   3.401 -0.2344 -0.6280 -0.3457
  571MOL0     C75301   6.639  10.087   3.259  1.4241  0.0129 -0.1180
  571MOL0     C75302   6.501  10.158   3.229  0.3391 -0.4626  0.2515
  571MOL0     C75303   6.524  10.228   3.096  0.3034 -0.4429 -0.2228
  571MOL0     C75304   6.537  10.263   2.976  0.6802 -0.2649  0.0700
  571MOL0     C75305   7.038  10.176   3.505 -0.0060  0.3919  0.1167
  571MOL0     C75306   7.079  10.295   3.571  0.6423  0.0830 -0.3666
  571MOL0     H75307   7.137  10.538   3.997 -0.6685  1.6559  1.2317
  571MOL0     H75308   7.255  10.695   4.132  2.5391 -0.7972 -0.1148
  571MOL0     H75309   7.285  10.912   4.215  1.2938 -1.0031 -1.2641
  571MOL0     H75310   7.166  10.951   4.081 -0.5182  0.6072 -0.6441
  571MOL0     H75311   7.213  11.129   4.247 -0.9884 -4.5985  1.1539
  571MOL0     H75312   7.250  11.194   4.098  2.9422  0.5874 -0.6781
  571MOL0     H75313   7.498  11.147   4.132  2.6509 -0.0793  2.2764
  571MOL0     H75314   7.444  11.059   4.287 -2.1564  1.3326  2.2085
  571MOL0     H75315   7.374  11.348   4.219 -1.8006 -0.5071  0.0815
  571MOL0     H75316   7.370  11.258   4.373 -2.8748 -2.5580 -1.3137
  571MOL0     H75317   7.613  11.348   4.209  0.6684  1.7504  1.4705
  571MOL0     H75318   7.614  11.242   4.355  0.3575 -0.5967 -0.4045
  571MOL0     H75319   7.511  11.440   4.479  0.5056  1.6722 -0.1429
  571MOL0     H75320   7.489  11.523   4.320 -0.5526  0.0318  0.1607
  571MOL0     H75321   7.762  11.415   4.425  0.0533 -0.6116 -1.0605
  571MOL0     H75322   7.740  11.535   4.293 -0.1823  2.3376  0.4414
  571MOL0     H75323   7.620  11.669   4.476  0.8113  1.0602 -0.0514
  571MOL0     H75324   7.803  11.680   4.462 -0.9730  1.9904 -2.0980
  571MOL0     H75325   7.520  11.578   4.688  0.2248 -0.3234  0.9517
  571MOL0     H75326   7.647  11.333   4.965 -1.3933 -1.5085  0.7277
  571MOL0     H75327   7.502  11.424   4.926 -0.0600 -3.8905  0.2152
  571MOL0     H75328   7.684  11.472   5.141 -1.4027  1.0533  2.1576
  571MOL0     H75329   7.519  11.532   5.116 -0.2787  3.6512 -2.5052
  571MOL0     H75330   7.766  11.650   4.992 -0.6049 -1.0547 -0.3096
  571MOL0     H75331   7.616  11.745   5.031  1.4000  1.6596 -0.4814
  571MOL0     H75332   7.784  11.801   5.182 -2.0390 -0.1134 -1.2664
  571MOL0     H75333   7.810  11.620   5.232  2.1209 -0.7529 -1.7884
  571MOL0     H75334   7.471  11.686   5.472 -0.1302 -0.2730  0.2460
  571MOL0     H75335   7.516  11.745   5.730 -0.6424  0.2888 -1.4806
  571MOL0     H75336   7.940  11.766   6.127  1.3684  0.6770  0.7645
  571MOL0     H75337   7.944  11.891   6.334 -0.9128 -0.4928 -0.1827
  571MOL0     H75338   8.001  12.044   6.476 -0.2671 -0.9231 -1.8499
  571MOL0     H75339   7.845  12.124   6.495  0.2418 -1.0695  3.6094
  571MOL0     H75340   8.036  12.337   6.458 -2.3621  0.9996  0.9311
  571MOL0     H75341   8.118  12.217   6.552 -1.3326  0.4907  5.5932
  571MOL0     H75342   7.848  12.363   6.615 -1.0789 -2.3355  0.5329
  571MOL0     H75343   7.996  12.375   6.705  0.9014 -0.6432 -0.5716
  571MOL0     H75344   7.887  12.096   6.693  1.2438  0.1458 -1.6670
  571MOL0     H75345   7.978  12.191   6.809 -0.7018 -0.0035 -1.1077
  571MOL0     H75346   7.743  12.159   6.897 -0.9476  1.2896  0.5029
  571MOL0     H75347   7.688  12.243   6.755 -0.1755 -1.1396 -0.3727
  571MOL0     H75348   7.835  12.448   6.838  1.8686  0.7652  0.1995
  571MOL0     H75349   7.878  12.347   6.978 -0.4184  1.8588  1.0502
  571MOL0     H75350   7.585  12.361   6.924  2.1063  0.2189 -3.6629
  571MOL0     H75351   7.679  12.348   7.082 -3.3984  1.2386  0.8946
  571MOL0     H75352   7.561  12.567   7.063  1.6712  1.9109  1.7969
  571MOL0     H75353   7.639  12.593   6.918 -1.0853 -0.7342 -0.1570
  571MOL0     H75354   7.946  12.249   6.110  3.5731  0.3698  2.0792
  571MOL0     H75355   7.873  12.131   5.904  1.9237 -0.0484 -0.6609
  571MOL0     H75356   7.932  11.792   5.623 -0.5541  1.5280 -1.8241
  571MOL0     H75357   7.877  11.770   5.400  0.7501  0.3636  0.3628
  571MOL0     H75358   7.478  10.844   3.812 -0.2528  1.6674  1.8849
  571MOL0     H75359   7.378  10.662   3.664 -0.3916  0.7586 -0.8834
  571MOL0     H75360   6.807  10.379   3.745 -0.9627  0.0812 -1.3967
  571MOL0     H75361   6.728  10.154   3.654  0.6174 -1.2503 -0.6858
  571MOL0     H75362   6.714   9.945   3.568  0.1217 -1.7247 -0.4082
  571MOL0     H75363   6.729   9.865   3.417  1.8129  0.9755 -2.9110
  571MOL0     H75364   6.534   9.963   3.406 -1.0186  0.3098  1.7158
  571MOL0     H75365   6.589  10.116   3.469 -1.7065 -1.3522 -0.0333
  571MOL0     H75366   6.640  10.001   3.192 -1.3158 -1.1249  1.1610
  571MOL0     H75367   6.729  10.148   3.243  3.6490 -3.2753 -1.1601
  571MOL0     H75368   6.418  10.086   3.224  0.2305 -0.3239  0.0097
  571MOL0     H75369   6.479  10.231   3.307  1.3245  1.1643 -0.9367
  571MOL0     H75370   6.560  10.286   2.874  2.7298 -3.0456 -0.2235
  571MOL0     H75371   7.104  10.132   3.430  1.0507  1.4164  0.4247
  571MOL0     H75372   7.185  10.315   3.560  0.5681 -0.2703 -2.0935
  572MOL0     O75373  11.259   0.560   1.539  0.9888 -0.2510  0.2785
  572MOL0     C75374  11.141   0.566   1.498 -0.3857 -0.1936  0.3306
  572MOL0     O75375  11.055   0.462   1.478  0.2350 -0.4042 -0.3300
  572MOL0     C75376  11.088   0.341   1.527  0.0935  0.2521  0.4481
  572MOL0     C75377  11.204   0.275   1.476 -0.8591  0.7280 -0.4273
  572MOL0     C75378  11.235   0.144   1.534  0.1888 -0.3882  0.5759
  572MOL0     C75379  11.168   0.111   1.651  0.2674 -0.3449  1.7765
  572MOL0     O75380  11.201  -0.009   1.717  0.0009 -0.7021  0.2724
  572MOL0     C75381  11.237  -0.126   1.641  0.7637  0.6022 -0.2088
  572MOL0     C75382  11.295  -0.224   1.746  1.0938  0.8989  0.3685
  572MOL0     C75383  11.211  -0.294   1.846  0.2999 -0.3716 -0.3394
  572MOL0     C75384  11.292  -0.382   1.938  0.3051 -0.9511  0.5011
  572MOL0     C75385  11.362  -0.497   1.883 -0.3973  0.2239 -0.3254
  572MOL0     C75386  11.289  -0.591   1.784  0.0507 -0.2671  0.7716
  572MOL0     C75387  11.383  -0.703   1.745 -0.3887 -0.0281 -0.5661
  572MOL0     C75388  11.305  -0.801   1.658 -0.5667 -0.7091  0.4165
  572MOL0     N75389  11.378  -0.923   1.626  0.6335  0.6041 -0.1607
  572MOL0     C75390  11.394  -1.034   1.711  1.2597 -0.8195  0.4075
  572MOL0     C75391  11.401  -1.142   1.626  0.1930  0.1852  0.1947
  572MOL0     C75392  11.406  -1.295   1.653  0.6937  0.2434  0.6689
  572MOL0     C75393  11.305  -1.364   1.562  0.4275  0.0970 -0.3759
  572MOL0     C75394  11.335  -1.511   1.548 -0.2968  0.9559  0.3052
  572MOL0     C75395  11.295  -1.583   1.683 -0.1359 -0.9691 -0.8824
  572MOL0     O75396  11.306  -1.726   1.646 -0.6142  0.3189  0.0071
  572MOL0     C75397  11.376  -1.812   1.732 -0.3856 -0.1305  0.4914
  572MOL0     C75398  11.322  -1.938   1.747  0.7657 -0.4396  0.2408
  572MOL0     C75399  11.394  -2.035   1.825 -0.3437  0.1785  0.1789
  572MOL0     C75400  11.513  -2.008   1.888 -0.5014 -1.1942  0.0413
  572MOL0     C75401  11.596  -2.125   1.944  0.0051 -0.6669  0.1458
  572MOL0     O75402  11.740  -2.120   1.925  1.0350 -0.3949 -0.3063
  572MOL0     C75403  11.806  -2.236   1.946 -0.6082  0.4962 -0.0208
  572MOL0     C75404  11.856  -2.304   1.837  0.4048  0.3717 -0.7173
  572MOL0     C75405  11.932  -2.414   1.852  0.5152  0.0142  0.0619
  572MOL0     C75406  11.958  -2.464   1.982  0.3771  0.9611 -0.7077
  572MOL0     O75407  12.037  -2.583   1.997  0.1366 -0.3943  0.0457
  572MOL0     C75408  12.052  -2.669   1.875 -0.0572 -0.5434 -0.2259
  572MOL0     C75409  12.106  -2.801   1.925 -0.4614  1.1403  0.7539
  572MOL0     C75410  12.021  -2.876   2.029  0.0344 -0.5288 -0.0817
  572MOL0     C75411  12.109  -2.993   2.074  0.3984  0.5149 -0.4705
  572MOL0     C75412  12.063  -3.072   2.199 -0.2178  0.1769  0.0466
  572MOL0     C75413  11.991  -3.203   2.159  0.3751 -0.0823  0.4190
  572MOL0     C75414  11.937  -3.274   2.291  0.3990 -0.4503 -0.4995
  572MOL0     C75415  11.922  -3.423   2.278  0.1159  0.1934 -0.6996
  572MOL0    Cl75416  11.877  -3.477   2.109  0.4669 -0.1462 -0.4145
  572MOL0     C75417  11.900  -2.403   2.093 -1.1968 -0.1001 -0.5426
  572MOL0     C75418  11.828  -2.289   2.075 -0.2738  0.0409  1.1425
  572MOL0     O75419  11.539  -2.224   1.999  0.2218 -0.4615  1.0198
  572MOL0     C75420  11.568  -1.877   1.859 -0.1861  0.8258  0.2508
  572MOL0     C75421  11.499  -1.781   1.789  0.2416 -0.2763 -0.2616
  572MOL0     N75422  11.385  -1.091   1.493 -0.8582  0.1746 -0.6968
  572MOL0     N75423  11.380  -0.965   1.498 -0.4736  0.9394  0.3643
  572MOL0     C75424  11.056   0.179   1.690 -0.1337 -0.1383  0.3276
  572MOL0     C75425  11.015   0.297   1.627  0.1947 -0.0640  0.4911
  572MOL0     C75426  11.080   0.695   1.474  0.0862  0.1134  0.0818
  572MOL0     C75427  10.947   0.718   1.476  0.1687  0.5159  0.2551
  572MOL0     C75428  10.885   0.843   1.478 -0.6396  0.0070  0.1611
  572MOL0     C75429  10.970   0.959   1.460  0.6459 -0.4141  0.7422
  572MOL0     O75430  10.903   1.080   1.435  0.3191  0.4619  0.9589
  572MOL0     C75431  10.975   1.200   1.433 -0.2567  0.5125  0.0190
  572MOL0     C75432  10.873   1.320   1.425  0.1152 -0.6928  1.2910
  572MOL0     C75433  10.806   1.360   1.555 -0.3601 -0.2308 -0.4571
  572MOL0     C75434  10.673   1.428   1.536 -0.1240 -0.7334  0.1840
  572MOL0     C75435  10.566   1.332   1.502  0.3638 -0.0949  0.7056
  572MOL0     C75436  10.472   1.253   1.501 -0.1527  0.4123 -1.1845
  572MOL0     C75437  11.110   0.939   1.461  0.4606  0.3826 -1.0591
  572MOL0     C75438  11.165   0.810   1.464 -0.7001  0.9657 -0.3379
  572MOL0     H75439  11.268   0.314   1.398  2.2624 -1.1216  1.0264
  572MOL0     H75440  11.322   0.100   1.487 -0.2160  0.9468 -1.5878
  572MOL0     H75441  11.321  -0.117   1.571  0.5136  0.5193 -0.5236
  572MOL0     H75442  11.151  -0.159   1.582  0.1068  0.1213  0.9983
  572MOL0     H75443  11.372  -0.176   1.808  1.1616 -1.0817  1.9086
  572MOL0     H75444  11.339  -0.298   1.678  2.9365  0.4929  1.9163
  572MOL0     H75445  11.132  -0.350   1.793 -0.2001  0.6005 -0.6500
  572MOL0     H75446  11.156  -0.229   1.915  0.6107 -2.1261  1.6728
  572MOL0     H75447  11.362  -0.320   1.995  0.0375 -0.0734 -0.0930
  572MOL0     H75448  11.219  -0.427   2.006 -1.4573  1.8862  0.6863
  572MOL0     H75449  11.372  -0.561   1.972 -1.4913 -2.9064 -2.2893
  572MOL0     H75450  11.459  -0.462   1.849  0.0232  2.3838  2.7077
  572MOL0     H75451  11.259  -0.544   1.690  2.2450 -1.2337 -0.4934
  572MOL0     H75452  11.199  -0.634   1.829 -0.2397 -0.7229 -0.1971
  572MOL0     H75453  11.468  -0.672   1.684  0.3270 -2.8744 -1.1632
  572MOL0     H75454  11.432  -0.754   1.828  0.3560  0.5557 -0.6345
  572MOL0     H75455  11.283  -0.746   1.566 -0.1138  0.5616  1.0420
  572MOL0     H75456  11.204  -0.824   1.693 -1.7334  1.2905 -1.3967
  572MOL0     H75457  11.407  -1.041   1.819  1.7602  1.5886  0.5654
  572MOL0     H75458  11.382  -1.326   1.755  0.0952 -2.0334 -0.1047
  572MOL0     H75459  11.509  -1.324   1.627 -0.2705  0.5263 -4.5311
  572MOL0     H75460  11.308  -1.322   1.461  2.2928  0.6191 -0.1470
  572MOL0     H75461  11.211  -1.335   1.609 -1.0155 -4.1698 -0.2450
  572MOL0     H75462  11.266  -1.537   1.467  2.6232 -2.6110 -1.3582
  572MOL0     H75463  11.439  -1.539   1.525  0.0563 -0.5725  3.2205
  572MOL0     H75464  11.194  -1.564   1.720  0.0835  1.4675 -1.3593
  572MOL0     H75465  11.366  -1.562   1.765  0.0844  0.6403 -1.4491
  572MOL0     H75466  11.235  -1.959   1.685 -2.0118  2.1217  2.8664
  572MOL0     H75467  11.345  -2.132   1.823 -5.0459  2.3197 -0.4776
  572MOL0     H75468  11.823  -2.270   1.739 -0.4368  0.5107 -0.3973
  572MOL0     H75469  11.975  -2.462   1.765  1.2156  0.6886  0.0277
  572MOL0     H75470  12.115  -2.621   1.800 -0.3345 -3.1614 -2.2478
  572MOL0     H75471  11.957  -2.699   1.830 -0.6673  0.4878  0.3144
  572MOL0     H75472  12.210  -2.793   1.958 -0.9883  2.1571  2.2579
  572MOL0     H75473  12.095  -2.861   1.834 -3.0742 -0.0722  1.7524
  572MOL0     H75474  11.926  -2.906   1.982 -2.7871  1.7771  3.5909
  572MOL0     H75475  11.992  -2.811   2.111 -2.1775 -1.3829 -0.1205
  572MOL0     H75476  12.122  -3.067   1.995  0.3375  2.0087 -1.9230
  572MOL0     H75477  12.213  -2.966   2.096 -0.4878  2.9900  1.1404
  572MOL0     H75478  12.000  -3.003   2.256 -0.0428  1.2703 -1.0430
  572MOL0     H75479  12.145  -3.092   2.267  1.6423  3.5721 -0.9607
  572MOL0     H75480  12.049  -3.265   2.090 -0.5226  0.2455 -0.6545
  572MOL0     H75481  11.900  -3.185   2.101  0.1697 -0.1964  0.7042
  572MOL0     H75482  12.012  -3.244   2.364  0.0709 -1.1550  0.1389
  572MOL0     H75483  11.845  -3.224   2.321  1.6059  2.2373 -0.9846
  572MOL0     H75484  11.868  -3.478   2.356  2.8700 -5.5301 -2.2163
  572MOL0     H75485  12.022  -3.462   2.296 -0.2681  0.1771  1.7203
  572MOL0     H75486  11.924  -2.441   2.191 -1.8016  1.4931  0.2511
  572MOL0     H75487  11.781  -2.228   2.151 -0.6939 -1.1684  1.8907
  572MOL0     H75488  11.655  -1.840   1.912 -0.9721 -0.3934  2.5154
  572MOL0     H75489  11.542  -1.684   1.770 -1.0950  0.1146 -1.5149
  572MOL0     H75490  11.007   0.129   1.773 -1.6778 -1.1975 -1.1551
  572MOL0     H75491  10.924   0.352   1.651 -0.5592  0.3621 -2.8015
  572MOL0     H75492  10.880   0.634   1.492 -0.8953  1.7752  2.9644
  572MOL0     H75493  10.778   0.854   1.486 -0.4138  1.8960  1.3248
  572MOL0     H75494  11.037   1.188   1.344 -1.6543 -0.7420 -0.8374
  572MOL0     H75495  11.048   1.211   1.513  1.6149 -1.8704 -1.2386
  572MOL0     H75496  10.912   1.406   1.370  0.7699 -1.5336  0.3917
  572MOL0     H75497  10.794   1.277   1.364 -1.4569 -1.3789  3.6649
  572MOL0     H75498  10.869   1.428   1.613  0.4171 -0.1124 -1.4192
  572MOL0     H75499  10.771   1.272   1.610  1.9790 -2.6246 -2.5067
  572MOL0     H75500  10.640   1.471   1.631  0.2527  1.9916 -0.8254
  572MOL0     H75501  10.677   1.504   1.457  0.6564 -1.2273 -0.2713
  572MOL0     H75502  10.398   1.175   1.503  0.2948 -0.0620  1.3513
  572MOL0     H75503  11.181   1.022   1.459  0.2227  0.5901 -2.8217
  572MOL0     H75504  11.273   0.802   1.456 -0.7866 -0.4904 -0.3293
  573MOL0     O75505   9.230  10.928   1.558 -0.5591 -0.4680  0.5131
  573MOL0     C75506   9.177  10.909   1.661  0.0377  0.8007  1.0706
  573MOL0     O75507   9.204  10.801   1.742 -0.6139  0.1132 -0.6682
  573MOL0     C75508   9.328  10.742   1.726  0.0348 -1.2040 -0.4649
  573MOL0     C75509   9.443  10.812   1.779  0.6631 -0.1909 -0.3581
  573MOL0     C75510   9.564  10.788   1.729 -0.5782  0.4415  0.4885
  573MOL0     C75511   9.588  10.684   1.638 -0.1954 -1.5921 -0.0412
  573MOL0     O75512   9.717  10.661   1.614  0.5814 -0.1686  0.9224
  573MOL0     C75513   9.756  10.512   1.600 -0.0403 -0.9918  0.7144
  573MOL0     C75514   9.903  10.501   1.579 -0.2433  1.2474 -0.2757
  573MOL0     C75515   9.931  10.584   1.449 -0.7044  0.1198  1.2478
  573MOL0     C75516  10.069  10.569   1.390  0.2089 -0.6359  0.5881
  573MOL0     C75517  10.092  10.685   1.294 -0.6865  0.3472 -0.5555
  573MOL0     C75518  10.046  10.641   1.157 -0.2620  0.3790 -0.3747
  573MOL0     C75519  10.076  10.762   1.060 -0.0112  0.7839  0.8508
  573MOL0     C75520  10.004  10.764   0.926 -0.1632  0.5414  0.1323
  573MOL0     N75521  10.073  10.858   0.838  0.3963  0.2599 -0.5265
  573MOL0     C75522  10.051  10.993   0.853 -0.0585 -0.1822 -0.4552
  573MOL0     C75523  10.141  11.044   0.768 -0.4419 -1.1938 -0.2782
  573MOL0     C75524  10.155  11.189   0.723 -0.1766  0.7314 -0.0207
  573MOL0     C75525  10.045  11.234   0.618 -0.5235  0.2564 -0.0192
  573MOL0     C75526  10.096  11.359   0.552 -1.0226  0.0209  0.3496
  573MOL0     C75527  10.106  11.482   0.633  0.0522 -0.5848 -0.0035
  573MOL0     O75528  10.218  11.568   0.595 -0.1281  0.0390  0.9434
  573MOL0     C75529  10.209  11.622   0.465 -0.0176  0.5625  0.3803
  573MOL0     C75530  10.311  11.587   0.379  0.2203  0.6980 -0.4708
  573MOL0     C75531  10.327  11.647   0.260  0.9748 -0.7587  0.5218
  573MOL0     C75532  10.226  11.744   0.221 -1.0774 -0.6813 -0.4464
  573MOL0     C75533  10.244  11.812   0.089 -0.4244  0.0471 -0.3797
  573MOL0     O75534  10.134  11.832   0.011  0.0758 -0.3611  0.1576
  573MOL0     C75535  10.145  11.877  -0.117  0.1017  0.0206 -0.0755
  573MOL0     C75536  10.022  11.918  -0.167  0.4116 -0.0383  0.5813
  573MOL0     C75537  10.014  11.973  -0.291  0.2514 -0.3340  0.7206
  573MOL0     C75538  10.128  11.990  -0.373 -0.6781 -0.2715 -0.0814
  573MOL0     O75539  10.122  12.046  -0.499  0.0363 -0.3272 -0.0822
  573MOL0     C75540   9.992  12.056  -0.556  1.2414  1.1261  0.9598
  573MOL0     C75541   9.996  12.104  -0.698 -1.2885  0.4061  0.0737
  573MOL0     C75542   9.861  12.104  -0.770  0.8657 -0.8271  0.2624
  573MOL0     C75543   9.848  12.225  -0.863  0.3464 -0.0303  0.0803
  573MOL0     C75544   9.722  12.239  -0.948 -0.1128  0.1303  0.9305
  573MOL0     C75545   9.702  12.112  -1.038  0.0973 -0.6140  0.0840
  573MOL0     C75546   9.608  12.126  -1.153  0.7639  0.5498 -0.1569
  573MOL0     C75547   9.463  12.146  -1.099 -0.0945  0.1785 -0.1153
  573MOL0    Cl75548   9.385  12.169  -1.251  0.6577  0.2637  0.0655
  573MOL0     C75549  10.250  11.952  -0.324 -0.4951  0.0392  0.9427
  573MOL0     C75550  10.266  11.890  -0.199 -0.2534  0.8951 -0.2567
  573MOL0     O75551  10.360  11.850   0.058  0.5273  0.2728  0.2260
  573MOL0     C75552  10.111  11.771   0.301 -0.1752  0.6128  0.6653
  573MOL0     C75553  10.105  11.715   0.427 -0.4657  0.7235 -0.4004
  573MOL0     N75554  10.221  10.944   0.710  0.1132  0.7658  0.1688
  573MOL0     N75555  10.172  10.832   0.757  0.1605  0.1166  0.3077
  573MOL0     C75556   9.480  10.598   1.594 -0.2706 -0.4694  0.1550
  573MOL0     C75557   9.352  10.636   1.640  0.7906  0.2948 -0.0900
  573MOL0     C75558   9.062  10.988   1.710  0.1892 -0.1987 -0.2277
  573MOL0     C75559   8.994  10.985   1.836 -1.0500 -0.1514 -0.5176
  573MOL0     C75560   8.890  11.067   1.867  1.4428  0.3455 -0.6108
  573MOL0     C75561   8.851  11.170   1.778  0.0119 -0.1402  0.6157
  573MOL0     O75562   8.761  11.253   1.826 -1.7485  0.3532 -0.1956
  573MOL0     C75563   8.789  11.390   1.820 -0.1562  0.1159 -0.3095
  573MOL0     C75564   8.681  11.481   1.872  0.2841 -0.1239  0.2598
  573MOL0     C75565   8.551  11.493   1.788 -0.4166 -0.1325  0.1714
  573MOL0     C75566   8.467  11.367   1.817 -0.0715 -0.1805 -0.1838
  573MOL0     C75567   8.335  11.389   1.757  0.3585  0.5024 -0.0725
  573MOL0     C75568   8.228  11.403   1.706  0.1233 -0.5382 -0.4386
  573MOL0     C75569   8.919  11.180   1.660  1.2513  0.3037  0.0469
  573MOL0     C75570   9.016  11.088   1.619  1.1966  0.4927  0.9163
  573MOL0     H75571   9.427  10.883   1.859 -5.3875 -0.7243 -0.5790
  573MOL0     H75572   9.647  10.848   1.765 -1.4957  2.5353 -0.6378
  573MOL0     H75573   9.702  10.472   1.513 -0.7113 -0.9491  1.1047
  573MOL0     H75574   9.743  10.467   1.698 -2.6380 -0.7855  0.5369
  573MOL0     H75575   9.941  10.400   1.564 -2.7266  0.2365 -0.1151
  573MOL0     H75576   9.947  10.535   1.673 -0.7190 -2.9522  1.6956
  573MOL0     H75577   9.895  10.687   1.459 -0.1593  0.1267  3.4613
  573MOL0     H75578   9.867  10.531   1.377 -2.2349 -0.2485  2.8068
  573MOL0     H75579  10.143  10.571   1.470  0.8084  0.3141  0.0383
  573MOL0     H75580  10.083  10.472   1.340  1.4553  1.5065 -3.7466
  573MOL0     H75581  10.200  10.707   1.295 -0.3189 -1.1417 -2.2927
  573MOL0     H75582  10.040  10.778   1.320  1.8724  2.5783 -2.7749
  573MOL0     H75583   9.939  10.619   1.161  0.1400 -1.6663  1.8809
  573MOL0     H75584  10.082  10.544   1.121  0.2807  1.1036 -1.8724
  573MOL0     H75585  10.039  10.849   1.115  1.2501  1.0563  1.2831
  573MOL0     H75586  10.184  10.767   1.049 -0.0937  1.1437  0.1253
  573MOL0     H75587   9.897  10.784   0.936 -0.2366  0.0711  0.3265
  573MOL0     H75588  10.015  10.661   0.889 -1.6804 -0.6374  2.6882
  573MOL0     H75589   9.978  11.039   0.919 -0.1668  1.9122 -1.9336
  573MOL0     H75590  10.255  11.185   0.679 -0.7941 -0.9295 -1.4005
  573MOL0     H75591  10.169  11.256   0.808  1.6224  0.8259 -0.3445
  573MOL0     H75592   9.952  11.255   0.671 -0.2317 -0.2726  0.7169
  573MOL0     H75593  10.024  11.162   0.539  0.1184  0.1760 -0.1249
  573MOL0     H75594  10.198  11.342   0.517 -2.0208 -0.7176 -2.5330
  573MOL0     H75595  10.040  11.384   0.461 -1.6641 -1.2074  0.3845
  573MOL0     H75596  10.117  11.461   0.740 -0.9722  2.3705  0.7958
  573MOL0     H75597  10.012  11.534   0.613  0.3360  0.8078  1.9755
  573MOL0     H75598  10.388  11.516   0.408  0.1867  0.9343  0.1904
  573MOL0     H75599  10.406  11.623   0.190  0.9704  0.7017 -0.0059
  573MOL0     H75600   9.930  11.908  -0.110 -0.3685 -1.2216 -0.8223
  573MOL0     H75601   9.918  12.015  -0.320  0.9486  2.6180  2.2906
  573MOL0     H75602   9.931  12.124  -0.496  1.9854  1.8390  0.9358
  573MOL0     H75603   9.935  11.963  -0.561  0.0156  1.8253  1.5565
  573MOL0     H75604  10.070  12.044  -0.752 -1.5414 -2.6502  2.8366
  573MOL0     H75605  10.041  12.204  -0.695  0.3016 -0.1291 -2.3813
  573MOL0     H75606   9.780  12.105  -0.696  1.5267  2.4915  1.1048
  573MOL0     H75607   9.853  12.013  -0.829  0.9540  0.0857 -1.2106
  573MOL0     H75608   9.855  12.315  -0.801 -3.3937 -0.4888  1.4576
  573MOL0     H75609   9.939  12.233  -0.922  2.3905  2.7318  3.2298
  573MOL0     H75610   9.737  12.332  -1.003  1.5876 -0.2062  0.7791
  573MOL0     H75611   9.639  12.257  -0.879  2.2502 -1.5191  4.5090
  573MOL0     H75612   9.667  12.029  -0.977 -1.3610 -1.1060 -1.3492
  573MOL0     H75613   9.792  12.083  -1.093 -0.5600 -0.5020 -1.0854
  573MOL0     H75614   9.634  12.214  -1.213 -0.5380  0.4444 -0.9305
  573MOL0     H75615   9.620  12.039  -1.218  0.0249 -0.5038  1.0677
  573MOL0     H75616   9.458  12.235  -1.035  2.0367 -0.0662  0.4612
  573MOL0     H75617   9.438  12.054  -1.045 -1.1139 -0.2665 -1.2849
  573MOL0     H75618  10.340  11.966  -0.383 -1.0846  5.0302  0.8280
  573MOL0     H75619  10.366  11.858  -0.171 -0.8772 -1.2252 -0.2628
  573MOL0     H75620  10.022  11.828   0.276 -0.8882 -0.5653  0.4440
  573MOL0     H75621  10.021  11.738   0.491  0.8656 -2.0954  2.6678
  573MOL0     H75622   9.483  10.507   1.534 -1.2164 -0.1215 -0.4319
  573MOL0     H75623   9.277  10.575   1.590 -0.3036  1.3520  0.2282
  573MOL0     H75624   9.023  10.912   1.911 -0.6735  2.8203  2.5210
  573MOL0     H75625   8.850  11.055   1.967 -1.7727 -1.5833 -1.9651
  573MOL0     H75626   8.833  11.423   1.725 -2.1911 -1.6847 -1.9872
  573MOL0     H75627   8.867  11.405   1.895 -0.7653  1.8015  0.0268
  573MOL0     H75628   8.655  11.456   1.976 -0.2319 -1.4491 -0.1645
  573MOL0     H75629   8.710  11.586   1.857 -1.1349 -0.2395 -4.8824
  573MOL0     H75630   8.570  11.496   1.680 -1.8545 -2.7599 -0.2346
  573MOL0     H75631   8.491  11.579   1.819 -1.3866 -0.2693 -1.2332
  573MOL0     H75632   8.520  11.283   1.771 -2.3168 -1.0366 -1.3397
  573MOL0     H75633   8.453  11.341   1.923  2.3596  1.9295  0.7673
  573MOL0     H75634   8.135  11.422   1.656 -0.3609  0.2843  0.7269
  573MOL0     H75635   8.872  11.255   1.597 -0.4612  1.2846  2.3618
  573MOL0     H75636   9.054  11.099   1.517  1.6674 -1.0881  0.8928
  574MOL0     O75637   8.074   2.625   8.454 -0.4535  0.3487 -0.5049
  574MOL0     C75638   8.170   2.549   8.494  0.9166 -0.9661 -0.9453
  574MOL0     O75639   8.207   2.524   8.615 -0.0828  0.1369 -1.1585
  574MOL0     C75640   8.138   2.579   8.712  0.8865  0.1996 -1.1641
  574MOL0     C75641   7.992   2.596   8.729  0.5815 -0.4422 -0.4048
  574MOL0     C75642   7.944   2.672   8.837 -0.4527  0.2010 -0.1831
  574MOL0     C75643   8.043   2.726   8.925  0.1857 -0.3124  0.1472
  574MOL0     O75644   7.989   2.811   9.018 -0.3226  1.1395  0.7036
  574MOL0     C75645   8.079   2.903   9.077  0.5796  0.5378 -0.7298
  574MOL0     C75646   7.988   3.016   9.142  0.1294 -0.4246 -0.3574
  574MOL0     C75647   8.058   3.104   9.257  0.1780 -0.4549 -0.2218
  574MOL0     C75648   8.018   3.252   9.264  0.3967 -0.5831  0.4631
  574MOL0     C75649   8.080   3.326   9.387 -0.3887 -0.1333  0.0298
  574MOL0     C75650   8.025   3.273   9.523  0.1197  0.1693 -0.4589
  574MOL0     C75651   8.089   3.340   9.655 -0.6919  0.0795  0.3918
  574MOL0     C75652   8.001   3.471   9.694 -0.9167 -0.6631 -1.3316
  574MOL0     N75653   8.047   3.513   9.828 -0.0210  0.2405 -0.0893
  574MOL0     C75654   7.990   3.488   9.951  0.3880 -0.1174 -0.4532
  574MOL0     C75655   8.059   3.562  10.046 -0.7144 -0.2389  0.7241
  574MOL0     C75656   8.023   3.572  10.195  0.1392  0.8435 -0.8121
  574MOL0     C75657   7.931   3.690  10.228  0.1162  0.0950 -1.3552
  574MOL0     C75658   7.783   3.680  10.188  0.7989 -0.5890  0.2749
  574MOL0     C75659   7.690   3.686  10.311 -0.6406  0.0969 -0.4632
  574MOL0     O75660   7.711   3.564  10.388  0.1139  0.4635 -1.0599
  574MOL0     C75661   7.609   3.537  10.483 -0.0521 -0.1911  0.2363
  574MOL0     C75662   7.636   3.421  10.550  0.0599 -0.0715 -0.1823
  574MOL0     C75663   7.578   3.381  10.670 -0.3909  1.2322  0.6913
  574MOL0     C75664   7.467   3.461  10.718  0.0463 -0.6212 -0.3868
  574MOL0     C75665   7.396   3.432  10.833  0.3385  0.3815 -0.8399
  574MOL0     O75666   7.389   3.297  10.880 -0.0863  1.0627  0.0418
  574MOL0     C75667   7.355   3.271  11.014 -0.3007  1.2992  0.5399
  574MOL0     C75668   7.251   3.331  11.080  0.1802  0.4635 -0.9360
  574MOL0     C75669   7.205   3.295  11.211 -0.9536  0.5744 -1.2828
  574MOL0     C75670   7.290   3.211  11.286 -0.0500  1.2370 -0.3809
  574MOL0     O75671   7.281   3.166  11.423  0.0034  0.0716  0.4389
  574MOL0     C75672   7.163   3.193  11.490  0.1171  0.5682  0.0985
  574MOL0     C75673   7.176   3.125  11.630 -0.4686 -1.5587 -0.5879
  574MOL0     C75674   7.308   3.160  11.716  0.3161 -1.0252 -0.0154
  574MOL0     C75675   7.346   3.065  11.826 -0.0890 -0.0864  0.7188
  574MOL0     C75676   7.269   3.111  11.944 -0.6036  0.4261  0.1159
  574MOL0     C75677   7.314   3.026  12.060  0.3239 -1.2757  0.3811
  574MOL0     C75678   7.231   3.065  12.177 -0.6874 -0.2544  0.2945
  574MOL0     C75679   7.267   2.972  12.295 -0.7348 -0.4721  0.5396
  574MOL0    Cl75680   7.436   3.007  12.347  0.2988 -0.1591  0.1800
  574MOL0     C75681   7.400   3.156  11.227 -0.1050 -0.8799 -0.3668
  574MOL0     C75682   7.428   3.181  11.093 -0.6490 -0.0846  0.5904
  574MOL0     O75683   7.352   3.523  10.905 -0.9242 -0.6285  0.6829
  574MOL0     C75684   7.426   3.570  10.638  0.2858 -0.2460  0.1137
  574MOL0     C75685   7.495   3.605  10.525  0.0845 -0.8717 -0.1033
  574MOL0     N75686   8.175   3.603   9.984  0.1265  0.1205  0.1769
  574MOL0     N75687   8.162   3.585   9.855  0.0329 -0.4529 -0.6933
  574MOL0     C75688   8.182   2.685   8.920  0.6075  0.6577  1.0191
  574MOL0     C75689   8.229   2.604   8.815  1.1093  0.2254  1.0828
  574MOL0     C75690   8.245   2.483   8.384 -0.0353  0.1463  0.0519
  574MOL0     C75691   8.197   2.489   8.249 -0.2559  0.0654  0.6511
  574MOL0     C75692   8.273   2.423   8.150 -0.5567  0.8763  0.1663
  574MOL0     C75693   8.391   2.351   8.182  0.4868 -1.0810  1.0101
  574MOL0     O75694   8.461   2.297   8.084  0.3932  0.6382  0.2817
  574MOL0     C75695   8.394   2.182   8.024  0.3220  0.5239 -0.1163
  574MOL0     C75696   8.486   2.135   7.912 -0.9040 -0.2617 -0.1836
  574MOL0     C75697   8.418   2.041   7.814 -0.2096  0.4601 -0.4512
  574MOL0     C75698   8.486   2.031   7.675 -0.2252  0.0596  0.5021
  574MOL0     C75699   8.615   1.966   7.669 -0.1997 -0.4335 -0.2241
  574MOL0     C75700   8.717   1.904   7.656 -0.1024  0.7205  0.3892
  574MOL0     C75701   8.438   2.355   8.314  0.2243 -0.4702 -0.0384
  574MOL0     C75702   8.368   2.415   8.413  0.4368 -0.3650  0.3356
  574MOL0     H75703   7.922   2.566   8.652  1.8036  0.0723 -1.7380
  574MOL0     H75704   7.839   2.698   8.847 -0.5402  0.2475 -1.1349
  574MOL0     H75705   8.137   2.944   8.994 -1.8803  0.4426 -2.6166
  574MOL0     H75706   8.139   2.848   9.149 -1.2914 -2.1415 -1.0461
  574MOL0     H75707   7.897   2.976   9.187  0.6260 -0.8010  0.3327
  574MOL0     H75708   7.945   3.074   9.060 -0.3649 -0.0663  0.1478
  574MOL0     H75709   8.166   3.092   9.248  0.2083  0.3701 -1.0814
  574MOL0     H75710   8.034   3.053   9.351  1.9807 -1.0318 -0.0455
  574MOL0     H75711   8.050   3.300   9.171 -1.6240  0.5927  0.3207
  574MOL0     H75712   7.909   3.253   9.276  0.1121  0.9406 -1.6193
  574MOL0     H75713   8.074   3.435   9.377 -2.7636 -0.1944  0.3577
  574MOL0     H75714   8.187   3.306   9.379 -0.1810  0.1105  1.7345
  574MOL0     H75715   8.053   3.167   9.533  1.3452  0.4595 -0.6027
  574MOL0     H75716   7.918   3.294   9.530  0.3532  1.0775  0.6720
  574MOL0     H75717   8.076   3.272   9.739 -0.8963  1.1218  1.2307
  574MOL0     H75718   8.195   3.363   9.643 -0.3818  0.1838  2.9044
  574MOL0     H75719   7.892   3.468   9.688 -1.2563 -1.3185  2.4833
  574MOL0     H75720   8.034   3.546   9.622  1.1352 -1.6828 -1.5317
  574MOL0     H75721   7.905   3.424   9.967  1.1994 -0.9471  0.7879
  574MOL0     H75722   8.113   3.600  10.251 -0.2185  1.0061 -0.3173
  574MOL0     H75723   7.970   3.484  10.233 -0.2408  1.0014 -0.9706
  574MOL0     H75724   7.974   3.784  10.193 -1.2868  1.5374  0.6309
  574MOL0     H75725   7.935   3.710  10.335  0.5315 -1.2293 -1.1000
  574MOL0     H75726   7.754   3.762  10.122  2.1197  2.7836  3.4856
  574MOL0     H75727   7.764   3.582  10.143  0.1408 -0.4762  0.2926
  574MOL0     H75728   7.584   3.692  10.284 -0.6619  1.3118 -0.1610
  574MOL0     H75729   7.718   3.775  10.367 -0.4998  0.0171 -0.4074
  574MOL0     H75730   7.721   3.362  10.519  0.5758  1.7555 -2.5480
  574MOL0     H75731   7.618   3.294  10.721 -2.8875 -0.0408  0.6502
  574MOL0     H75732   7.200   3.410  11.024  2.7465  1.1082 -2.5300
  574MOL0     H75733   7.117   3.337  11.258  0.1559 -1.2202  2.8694
  574MOL0     H75734   7.078   3.133  11.456  1.9020 -2.8101  1.2081
  574MOL0     H75735   7.151   3.302  11.483  1.9794  0.7956  0.0182
  574MOL0     H75736   7.177   3.017  11.610 -0.1893 -1.9032  1.0862
  574MOL0     H75737   7.088   3.142  11.693  0.3726 -1.2672  0.5360
  574MOL0     H75738   7.282   3.261  11.749 -2.1025 -1.4476 -0.4248
  574MOL0     H75739   7.393   3.166  11.648  1.3891 -0.6207  1.3161
  574MOL0     H75740   7.329   2.957  11.816  1.0829 -0.1657 -0.7198
  574MOL0     H75741   7.455   3.067  11.838  0.0326 -4.0806  1.7680
  574MOL0     H75742   7.161   3.104  11.929 -0.8927  3.3178  0.3252
  574MOL0     H75743   7.290   3.217  11.960 -3.8743  1.2463 -0.2735
  574MOL0     H75744   7.421   3.033  12.081  0.3357  2.6087 -0.2524
  574MOL0     H75745   7.301   2.921  12.032 -1.0238 -0.5198 -2.0682
  574MOL0     H75746   7.250   3.171  12.200 -0.0577 -0.5359  1.1481
  574MOL0     H75747   7.130   3.046  12.141 -1.0059 -1.6536  1.8303
  574MOL0     H75748   7.257   2.865  12.273  1.1694 -0.0556 -3.0996
  574MOL0     H75749   7.202   2.984  12.382  0.5224 -0.4144  1.4953
  574MOL0     H75750   7.468   3.092  11.282  1.9085  1.2129 -0.2625
  574MOL0     H75751   7.513   3.144  11.037  3.9614  4.4899  3.6329
  574MOL0     H75752   7.345   3.639  10.664  0.3344  0.9604 -2.5739
  574MOL0     H75753   7.474   3.694  10.467  3.1078 -0.6674 -1.0634
  574MOL0     H75754   8.260   2.709   8.992  0.2489 -0.5239  1.8360
  574MOL0     H75755   8.335   2.585   8.809  0.9823 -0.4543  0.7980
  574MOL0     H75756   8.112   2.544   8.212  0.4292  0.9626  0.3789
  574MOL0     H75757   8.248   2.428   8.044 -0.2777  5.4789  0.1056
  574MOL0     H75758   8.294   2.216   7.997 -0.8639 -2.1835  0.4566
  574MOL0     H75759   8.389   2.095   8.091  3.8159 -1.4559 -2.0929
  574MOL0     H75760   8.520   2.225   7.861  0.2655 -1.1730 -1.0497
  574MOL0     H75761   8.573   2.086   7.956 -1.4297 -0.5443  0.5729
  574MOL0     H75762   8.318   2.076   7.785 -0.0154  0.2701 -1.3524
  574MOL0     H75763   8.410   1.940   7.856  3.4123  0.6411  0.9899
  574MOL0     H75764   8.408   1.984   7.613 -3.1170  1.0110  3.1508
  574MOL0     H75765   8.500   2.133   7.636 -1.2153  0.4780  1.1932
  574MOL0     H75766   8.803   1.841   7.659  0.9114  2.0372 -0.0625
  574MOL0     H75767   8.534   2.314   8.343 -0.1503 -1.3697 -0.0220
  574MOL0     H75768   8.410   2.406   8.512 -1.4993  1.8676  1.4465
  575MOL0     O75769   6.641   1.832   6.128  0.2489 -0.1350 -0.4253
  575MOL0     C75770   6.549   1.754   6.164 -0.4748  1.1803  0.2249
  575MOL0     O75771   6.418   1.781   6.167 -0.3616  0.2369 -0.0562
  575MOL0     C75772   6.371   1.892   6.103 -0.5867  0.1108 -0.0432
  575MOL0     C75773   6.436   1.968   6.002  0.2897 -0.8965 -0.2516
  575MOL0     C75774   6.373   2.086   5.953  1.5638  0.2539 -0.2631
  575MOL0     C75775   6.233   2.116   5.989  0.5969  0.0251 -0.8399
  575MOL0     O75776   6.162   2.223   5.946  0.5554  0.0557  1.3117
  575MOL0     C75777   6.223   2.348   5.967  0.0661 -0.2164 -0.5126
  575MOL0     C75778   6.207   2.393   6.105  0.7893  0.3186 -0.8582
  575MOL0     C75779   6.292   2.510   6.133 -0.2074 -0.5305 -0.3678
  575MOL0     C75780   6.257   2.586   6.263 -0.5638  0.3588 -0.1572
  575MOL0     C75781   6.345   2.709   6.277  0.0266 -0.3491 -0.7183
  575MOL0     C75782   6.479   2.665   6.342  0.0156 -0.0768  0.3335
  575MOL0     C75783   6.596   2.763   6.299 -0.1776 -0.0227  0.4911
  575MOL0     C75784   6.712   2.775   6.394  0.6548 -0.2602  0.6796
  575MOL0     N75785   6.810   2.872   6.347 -0.2965  1.1283  0.7949
  575MOL0     C75786   6.905   2.838   6.262 -0.2465  0.6964  0.0742
  575MOL0     C75787   6.993   2.943   6.257  0.7542  0.4445 -0.1902
  575MOL0     C75788   7.123   2.951   6.189  0.8099  0.1497 -0.2269
  575MOL0     C75789   7.235   2.864   6.257 -1.1281 -0.6701 -0.5250
  575MOL0     C75790   7.203   2.730   6.314  0.1539 -0.0006 -0.0443
  575MOL0     C75791   7.167   2.627   6.201 -0.4036 -1.1515 -0.0363
  575MOL0     O75792   7.143   2.503   6.265  0.3449 -0.3005  0.1295
  575MOL0     C75793   7.245   2.416   6.242 -0.3190 -0.4215 -0.0952
  575MOL0     C75794   7.246   2.333   6.135 -1.0123 -0.1250  0.3950
  575MOL0     C75795   7.333   2.221   6.128 -0.2512  0.4554 -0.8146
  575MOL0     C75796   7.426   2.196   6.227 -0.5188  0.5035 -0.3982
  575MOL0     C75797   7.496   2.068   6.234  0.6531 -0.4552  0.3927
  575MOL0     O75798   7.462   1.966   6.140 -0.6066  0.1982 -0.1590
  575MOL0     C75799   7.500   1.832   6.157 -0.5083 -0.4787  0.0706
  575MOL0     C75800   7.542   1.746   6.057 -0.1104 -0.5669 -0.0436
  575MOL0     C75801   7.578   1.619   6.093  1.3805  0.9344 -0.9288
  575MOL0     C75802   7.543   1.564   6.213 -0.7622  0.3197  0.3130
  575MOL0     O75803   7.592   1.445   6.244  0.0714 -0.0470 -0.5668
  575MOL0     C75804   7.504   1.353   6.296  0.4633  0.9960 -1.2741
  575MOL0     C75805   7.527   1.222   6.228 -0.8972  1.0454 -0.6468
  575MOL0     C75806   7.483   1.224   6.078  0.2161 -0.8377  0.2066
  575MOL0     C75807   7.499   1.078   6.021 -0.2202  0.5582 -0.8309
  575MOL0     C75808   7.545   1.074   5.872 -0.4833  0.0768  0.6024
  575MOL0     C75809   7.580   0.929   5.824 -0.8208 -0.8969 -0.1336
  575MOL0     C75810   7.464   0.845   5.783  0.4963 -0.3766 -0.2115
  575MOL0     C75811   7.494   0.699   5.738  0.1762  0.2923  0.9553
  575MOL0    Cl75812   7.566   0.717   5.568 -0.0631  0.5217 -0.4429
  575MOL0     C75813   7.490   1.643   6.309  0.0669 -0.3243 -0.0946
  575MOL0     C75814   7.478   1.776   6.282 -0.7661 -0.1947 -1.0318
  575MOL0     O75815   7.585   2.062   6.311 -0.0162  0.8141 -0.5689
  575MOL0     C75816   7.433   2.289   6.333 -0.0110  0.5956  0.1310
  575MOL0     C75817   7.349   2.401   6.337 -0.2439 -0.0257  0.8674
  575MOL0     N75818   6.954   3.044   6.343  0.9265  0.2089 -0.2653
  575MOL0     N75819   6.842   2.999   6.394 -0.4664 -0.6840 -0.0848
  575MOL0     C75820   6.178   2.041   6.094  0.3747  0.5027 -0.4119
  575MOL0     C75821   6.245   1.932   6.147 -0.0347 -0.2351  0.5681
  575MOL0     C75822   6.585   1.628   6.226 -0.1377 -0.5987  0.6430
  575MOL0     C75823   6.728   1.608   6.260  0.6075  0.0097  1.3051
  575MOL0     C75824   6.758   1.475   6.309 -0.2841  0.0705  0.6319
  575MOL0     C75825   6.656   1.380   6.329  0.0799  0.2547 -0.3069
  575MOL0     O75826   6.676   1.258   6.393  0.0450 -0.1785  0.0949
  575MOL0     C75827   6.805   1.221   6.422 -0.1639  0.2024 -0.7435
  575MOL0     C75828   6.831   1.114   6.527  0.7187  0.7261 -0.4688
  575MOL0     C75829   6.821   0.971   6.464 -0.9366 -0.5767 -0.2047
  575MOL0     C75830   6.870   0.867   6.569  0.5193 -0.0299 -0.1665
  575MOL0     C75831   6.772   0.836   6.676 -0.2974 -0.4834 -0.3238
  575MOL0     C75832   6.691   0.808   6.760  0.9194 -0.2587 -0.0306
  575MOL0     C75833   6.521   1.399   6.301 -0.7965  0.1802  1.2752
  575MOL0     C75834   6.484   1.525   6.248 -0.8765 -0.6076  0.5830
  575MOL0     H75835   6.530   1.942   5.955  1.1074 -0.9253  1.3372
  575MOL0     H75836   6.423   2.142   5.875  1.6190 -0.0081 -0.4182
  575MOL0     H75837   6.192   2.424   5.895  2.3495  0.4937 -0.8344
  575MOL0     H75838   6.331   2.342   5.953  0.0415  2.9485 -3.4025
  575MOL0     H75839   6.217   2.306   6.171  0.8537 -0.6085 -2.0628
  575MOL0     H75840   6.104   2.431   6.112  1.0612  1.1555 -1.2987
  575MOL0     H75841   6.282   2.570   6.043  0.4241  0.4320  0.1835
  575MOL0     H75842   6.392   2.465   6.138 -1.1439 -2.8230 -0.6744
  575MOL0     H75843   6.154   2.623   6.274 -1.4216 -1.0606 -2.8076
  575MOL0     H75844   6.276   2.530   6.355  1.9230 -3.2389 -2.6326
  575MOL0     H75845   6.295   2.781   6.343  1.8754 -0.2785  0.6769
  575MOL0     H75846   6.359   2.748   6.176  2.4553 -0.8275 -0.6258
  575MOL0     H75847   6.504   2.564   6.308  3.2300  0.3605  1.0717
  575MOL0     H75848   6.475   2.668   6.451  0.6342  2.4186  0.3421
  575MOL0     H75849   6.639   2.726   6.205  2.3056  1.4167  0.9953
  575MOL0     H75850   6.556   2.862   6.279  1.6218  0.9866  1.6779
  575MOL0     H75851   6.760   2.677   6.402 -0.4600 -0.7684  1.4417
  575MOL0     H75852   6.685   2.790   6.499 -0.9755  1.1961  0.0843
  575MOL0     H75853   6.914   2.747   6.204  1.5816  1.3687 -0.7742
  575MOL0     H75854   7.158   3.055   6.185  1.6327 -0.0939  0.3914
  575MOL0     H75855   7.108   2.912   6.088 -1.0278 -0.0360  0.0911
  575MOL0     H75856   7.258   2.933   6.339 -2.2888 -0.7303 -0.1284
  575MOL0     H75857   7.324   2.863   6.193 -2.5885 -0.0781 -2.6858
  575MOL0     H75858   7.298   2.702   6.361 -0.1277 -0.4999  0.2370
  575MOL0     H75859   7.132   2.734   6.397  1.3432  1.5388  0.9417
  575MOL0     H75860   7.256   2.631   6.137 -1.3530  0.2000 -1.3643
  575MOL0     H75861   7.089   2.659   6.131  1.5538 -1.8782 -2.6897
  575MOL0     H75862   7.178   2.349   6.052  0.1080 -2.5322 -1.0921
  575MOL0     H75863   7.309   2.142   6.057  0.5884 -0.2788 -0.3089
  575MOL0     H75864   7.564   1.774   5.955 -0.8637 -2.4475 -0.7731
  575MOL0     H75865   7.623   1.556   6.017 -2.2145 -0.7174 -1.9178
  575MOL0     H75866   7.405   1.395   6.275  0.8794  1.1500 -3.0313
  575MOL0     H75867   7.543   1.351   6.398  1.7641  1.1730 -1.7492
  575MOL0     H75868   7.468   1.148   6.284  0.5127  0.6150  0.3036
  575MOL0     H75869   7.632   1.195   6.242 -1.0674  1.3561  1.6231
  575MOL0     H75870   7.544   1.302   6.032 -0.9482  0.5706  0.9664
  575MOL0     H75871   7.382   1.263   6.066  0.4118  0.3588  2.1191
  575MOL0     H75872   7.586   1.040   6.075 -1.0128  2.5784  2.1416
  575MOL0     H75873   7.417   1.009   6.045 -1.8607  1.7773 -2.6453
  575MOL0     H75874   7.632   1.140   5.862  2.4668 -3.8144 -4.0399
  575MOL0     H75875   7.467   1.108   5.803  1.1928 -0.6373 -1.7786
  575MOL0     H75876   7.640   0.871   5.895 -0.7523 -3.0474 -1.8282
  575MOL0     H75877   7.659   0.942   5.749  0.1321  2.9154  1.3109
  575MOL0     H75878   7.399   0.840   5.871  1.1950 -1.8130  0.2546
  575MOL0     H75879   7.416   0.896   5.699 -1.1496  0.0008  0.9037
  575MOL0     H75880   7.407   0.636   5.720 -0.5134  1.7877 -1.5270
  575MOL0     H75881   7.555   0.640   5.806 -1.7705 -4.2899 -0.8916
  575MOL0     H75882   7.461   1.597   6.403  1.7326 -1.4389 -0.1027
  575MOL0     H75883   7.441   1.843   6.359 -0.2966  0.4538 -1.3595
  575MOL0     H75884   7.512   2.278   6.408 -0.7303 -3.4248  0.5253
  575MOL0     H75885   7.360   2.480   6.411  0.1266  1.4543 -0.7023
  575MOL0     H75886   6.073   2.058   6.119  0.4832  0.2813  0.1797
  575MOL0     H75887   6.200   1.884   6.233  0.1147 -1.9452 -0.2664
  575MOL0     H75888   6.810   1.675   6.233  1.7038 -1.9134 -0.4201
  575MOL0     H75889   6.862   1.455   6.337  0.2870 -0.8186 -1.8783
  575MOL0     H75890   6.871   1.301   6.456  2.1001 -3.3852  4.4387
  575MOL0     H75891   6.841   1.201   6.320 -1.6591  2.0862 -1.7073
  575MOL0     H75892   6.927   1.122   6.580  0.1920 -2.3180  1.2040
  575MOL0     H75893   6.756   1.126   6.606  0.5586  0.2383 -0.5442
  575MOL0     H75894   6.884   0.974   6.375  1.6009  0.3911  1.4965
  575MOL0     H75895   6.723   0.939   6.428 -1.8938  2.9506 -1.0940
  575MOL0     H75896   6.887   0.770   6.522 -1.7586 -2.5797  3.7676
  575MOL0     H75897   6.962   0.911   6.610  1.4452  0.0718 -2.1841
  575MOL0     H75898   6.607   0.794   6.826  0.1222  0.6561 -0.8142
  575MOL0     H75899   6.441   1.327   6.315 -0.7792 -0.5844 -1.9351
  575MOL0     H75900   6.378   1.544   6.231 -0.2651  1.2909 -1.5436
  576MOL0     O75901   5.084   8.628   9.851 -0.6390  0.0979  0.1503
  576MOL0     C75902   5.057   8.685   9.744  0.4681  0.3144  0.2115
  576MOL0     O75903   4.933   8.743   9.705  0.2468 -0.2002 -0.8650
  576MOL0     C75904   4.821   8.708   9.769 -0.4809  0.2916 -0.3997
  576MOL0     C75905   4.799   8.579   9.810  0.2329  1.2538  0.1339
  576MOL0     C75906   4.678   8.542   9.868  0.2034  0.0635  0.5850
  576MOL0     C75907   4.568   8.632   9.869  0.4844 -0.6609  1.6164
  576MOL0     O75908   4.448   8.584   9.910  1.0309  0.1972 -0.7558
  576MOL0     C75909   4.329   8.640   9.848  0.0460 -0.8749 -0.3933
  576MOL0     C75910   4.227   8.537   9.825  1.1558  0.6241  0.0833
  576MOL0     C75911   4.161   8.494   9.947  0.5234  0.2664  0.1349
  576MOL0     C75912   4.032   8.405   9.925  1.3163 -0.3385  0.0209
  576MOL0     C75913   3.953   8.367  10.049 -0.0337 -0.2206 -0.4098
  576MOL0     C75914   3.805   8.333  10.024 -0.5008 -0.7387 -0.2583
  576MOL0     C75915   3.738   8.268  10.144  0.3088  0.3864  0.9207
  576MOL0     C75916   3.727   8.369  10.262  0.0421  0.2410 -0.1993
  576MOL0     N75917   3.650   8.492  10.246  0.6191  0.9082  0.1757
  576MOL0     C75918   3.700   8.618  10.210  0.7559 -0.8701  0.3774
  576MOL0     C75919   3.591   8.704  10.218  0.3625  0.0164  0.1934
  576MOL0     C75920   3.585   8.850  10.174  0.8737  0.3076 -0.0855
  576MOL0     C75921   3.629   8.865  10.028  0.0222  0.0001  0.0066
  576MOL0     C75922   3.654   9.011   9.993 -0.6651  0.5310  0.8827
  576MOL0     C75923   3.762   9.079  10.081  0.0466  0.9078 -0.0268
  576MOL0     O75924   3.799   9.199  10.012 -0.0524 -0.4036  0.2292
  576MOL0     C75925   3.929   9.224   9.975  0.4966 -0.2033 -0.3382
  576MOL0     C75926   3.984   9.344  10.007  0.4801  0.2667 -0.0632
  576MOL0     C75927   4.123   9.370   9.999 -0.0229  0.1268  0.4368
  576MOL0     C75928   4.212   9.270   9.960 -0.1708 -0.2238 -1.0018
  576MOL0     C75929   4.359   9.302   9.955  0.9286 -0.0445 -0.7813
  576MOL0     O75930   4.442   9.200   9.928 -0.2633  0.3367 -0.7385
  576MOL0     C75931   4.577   9.212   9.956 -0.2459 -0.0866 -0.0295
  576MOL0     C75932   4.628   9.294  10.062  0.3824 -0.4442 -0.6507
  576MOL0     C75933   4.759   9.301  10.081 -0.1948 -0.0830 -0.9098
  576MOL0     C75934   4.846   9.235   9.992 -0.7551  0.3211  0.5043
  576MOL0     O75935   4.988   9.241  10.026  0.4017 -0.2713  0.6607
  576MOL0     C75936   5.094   9.212   9.938 -0.7750  0.2167 -0.8408
  576MOL0     C75937   5.127   9.063   9.935  0.2978 -0.5392  0.7232
  576MOL0     C75938   5.266   9.042   9.865 -0.2713  0.0036 -0.0227
  576MOL0     C75939   5.283   9.102   9.721 -0.9291  0.0557 -0.1020
  576MOL0     C75940   5.421   9.065   9.664 -0.2326  0.4756 -0.2434
  576MOL0     C75941   5.435   9.086   9.511 -0.1746  0.1467 -0.3420
  576MOL0     C75942   5.574   9.047   9.464 -0.2396  0.0628  0.7426
  576MOL0     C75943   5.568   9.067   9.298 -0.3547 -0.5191 -0.2831
  576MOL0    Cl75944   5.512   9.232   9.242  0.0657 -0.0439 -0.5803
  576MOL0     C75945   4.800   9.166   9.878  0.6897  0.1657 -1.0870
  576MOL0     C75946   4.661   9.156   9.865  0.9010  0.2795  0.1030
  576MOL0     O75947   4.381   9.420   9.971 -0.1543  0.2679 -0.2424
  576MOL0     C75948   4.155   9.145   9.955 -0.2148  1.1860 -0.3517
  576MOL0     C75949   4.018   9.120   9.942  0.9647 -0.1557 -1.1293
  576MOL0     N75950   3.486   8.629  10.274 -0.1562 -0.5961 -0.2090
  576MOL0     N75951   3.517   8.500  10.286 -0.4552 -0.3743  0.1118
  576MOL0     C75952   4.602   8.760   9.814  0.3240  0.5330 -1.3174
  576MOL0     C75953   4.726   8.794   9.768 -0.0235 -0.4538  0.7856
  576MOL0     C75954   5.165   8.690   9.644  0.4268 -0.8197 -0.0241
  576MOL0     C75955   5.129   8.731   9.510 -0.1739  0.5219  0.3567
  576MOL0     C75956   5.223   8.743   9.406  0.5985  0.0866 -1.4115
  576MOL0     C75957   5.356   8.728   9.438 -0.2408  0.3411  0.5007
  576MOL0     O75958   5.453   8.726   9.337  0.1505  0.0509  0.3348
  576MOL0     C75959   5.418   8.772   9.200  0.1105 -0.1105 -0.4989
  576MOL0     C75960   5.344   8.660   9.122  0.7166  0.6316  0.1155
  576MOL0     C75961   5.426   8.537   9.101 -0.4262  0.9662  1.1188
  576MOL0     C75962   5.354   8.439   8.998 -0.4508  0.5646 -1.1242
  576MOL0     C75963   5.349   8.493   8.859 -0.1936 -0.3627 -0.3072
  576MOL0     C75964   5.360   8.552   8.754 -0.3269  0.1742  0.5991
  576MOL0     C75965   5.398   8.676   9.558  0.3054 -0.2858 -0.9249
  576MOL0     C75966   5.300   8.648   9.665  0.5002 -0.5771 -0.2253
  576MOL0     H75967   4.864   8.493   9.802 -2.4189 -0.8813  0.3249
  576MOL0     H75968   4.666   8.434   9.878 -4.0324  0.4635  1.7566
  576MOL0     H75969   4.348   8.673   9.745  1.2188 -0.0674  0.0546
  576MOL0     H75970   4.294   8.720   9.913 -0.1888 -0.1048 -1.4355
  576MOL0     H75971   4.283   8.452   9.785 -2.2492 -1.7198 -0.1574
  576MOL0     H75972   4.158   8.578   9.751  1.0151 -1.0325 -0.7380
  576MOL0     H75973   4.131   8.572  10.018  1.8880 -0.5100  1.6509
  576MOL0     H75974   4.236   8.437  10.004  0.3692 -0.8616 -0.7660
  576MOL0     H75975   3.958   8.444   9.854 -0.3906 -1.1378  1.2950
  576MOL0     H75976   4.062   8.309   9.883 -1.0540 -1.4612  0.7358
  576MOL0     H75977   3.963   8.445  10.125  2.3989 -0.1068 -0.7568
  576MOL0     H75978   4.007   8.276  10.078  0.4857 -1.2546 -4.1277
  576MOL0     H75979   3.802   8.269   9.935  2.0319 -1.8489  0.3737
  576MOL0     H75980   3.759   8.425   9.987  0.8856 -0.0396 -0.2882
  576MOL0     H75981   3.634   8.248  10.118  0.8719 -0.6370 -0.6805
  576MOL0     H75982   3.790   8.174  10.166  1.2980 -0.0655 -2.7007
  576MOL0     H75983   3.824   8.411  10.290 -0.9936  2.0369  0.9157
  576MOL0     H75984   3.692   8.320  10.354  0.8373  2.4372  1.3458
  576MOL0     H75985   3.795   8.648  10.166 -0.0679  1.0028 -0.2030
  576MOL0     H75986   3.641   8.910  10.247 -0.1690 -0.3130  1.2621
  576MOL0     H75987   3.477   8.864  10.180  0.7471 -1.1867  1.6403
  576MOL0     H75988   3.566   8.816   9.953 -0.2464  1.9685 -1.1285
  576MOL0     H75989   3.727   8.817  10.013 -1.4408 -2.6121 -1.9737
  576MOL0     H75990   3.682   9.030   9.889 -0.2723 -3.2147  0.1380
  576MOL0     H75991   3.567   9.076  10.000  1.1331  3.0506  1.0628
  576MOL0     H75992   3.831   9.002  10.116 -2.0658 -0.7127  0.8514
  576MOL0     H75993   3.712   9.113  10.173  2.8447  0.2022  1.8987
  576MOL0     H75994   3.923   9.410  10.067  0.7302  0.9576 -0.5488
  576MOL0     H75995   4.148   9.467  10.039 -0.7180  0.0159  1.1651
  576MOL0     H75996   4.570   9.351  10.134 -1.4976 -1.7887 -1.0242
  576MOL0     H75997   4.820   9.352  10.154 -0.0028 -0.0750 -1.0754
  576MOL0     H75998   5.183   9.266   9.972 -1.1989  0.0806  0.5666
  576MOL0     H75999   5.062   9.250   9.841 -2.2129  1.1752 -0.0325
  576MOL0     H76000   5.036   9.019   9.892 -0.7489  1.0257  1.2773
  576MOL0     H76001   5.129   9.020  10.035  0.2432 -0.1308  0.8986
  576MOL0     H76002   5.289   8.937   9.887  0.2741  0.5052  1.9721
  576MOL0     H76003   5.333   9.098   9.931 -0.1504  1.3585 -1.2407
  576MOL0     H76004   5.213   9.071   9.643  0.0982  0.6015 -1.2853
  576MOL0     H76005   5.279   9.211   9.725  3.4379  0.5047 -1.9899
  576MOL0     H76006   5.447   8.961   9.685 -0.7073  0.4244  0.0994
  576MOL0     H76007   5.500   9.129   9.703  0.0366 -0.4933  0.8316
  576MOL0     H76008   5.410   9.189   9.483  2.7173  1.3728  1.1071
  576MOL0     H76009   5.363   9.023   9.459 -0.1063 -1.0828  0.9774
  576MOL0     H76010   5.646   9.121   9.500  0.5470  1.6509 -3.4219
  576MOL0     H76011   5.586   8.943   9.494 -2.3430  0.3473  2.8492
  576MOL0     H76012   5.487   8.999   9.271 -1.6534  0.2889  1.3853
  576MOL0     H76013   5.661   9.057   9.241  0.2430  3.5982 -0.3584
  576MOL0     H76014   4.867   9.120   9.807  0.7031 -2.1233  0.2939
  576MOL0     H76015   4.614   9.110   9.779 -0.8263  2.1997 -0.0646
  576MOL0     H76016   4.197   9.045   9.945  0.7827  1.7637 -2.7079
  576MOL0     H76017   3.985   9.019   9.923  2.6043 -1.2130  1.3027
  576MOL0     H76018   4.520   8.831   9.811  0.9185  1.5784  2.2358
  576MOL0     H76019   4.749   8.897   9.740 -3.3336  1.0803  3.0414
  576MOL0     H76020   5.026   8.753   9.481 -0.3339 -1.8581 -1.1555
  576MOL0     H76021   5.181   8.773   9.310 -1.9301  1.6398  0.0767
  576MOL0     H76022   5.515   8.800   9.157  1.2458  1.7409  2.8656
  576MOL0     H76023   5.352   8.858   9.206 -0.5820 -0.7002  0.7896
  576MOL0     H76024   5.252   8.640   9.176  1.5518  1.5010  1.9716
  576MOL0     H76025   5.298   8.703   9.033 -1.3197  1.7269  1.6243
  576MOL0     H76026   5.415   8.487   9.198  1.2499 -0.3614  0.6960
  576MOL0     H76027   5.532   8.561   9.090  0.4053 -2.1155  1.2674
  576MOL0     H76028   5.401   8.340   8.996  1.2414  1.3112 -0.3824
  576MOL0     H76029   5.254   8.432   9.042 -1.5718 -3.1177 -3.8139
  576MOL0     H76030   5.362   8.571   8.648 -1.3939  0.6390  0.6464
  576MOL0     H76031   5.501   8.661   9.588 -0.7178  1.4818  4.6691
  576MOL0     H76032   5.335   8.603   9.757  1.1715  0.0503 -0.1696
  577MOL0     O76033   8.011   6.276   9.010 -0.7965  0.0167  0.0161
  577MOL0     C76034   8.077   6.264   9.115 -1.3099  0.3607  0.4459
  577MOL0     O76035   8.040   6.292   9.240  0.1650  0.3427  0.3707
  577MOL0     C76036   7.910   6.318   9.268  1.1460 -0.9392  0.8957
  577MOL0     C76037   7.829   6.403   9.195  0.5810  0.0582 -0.6934
  577MOL0     C76038   7.702   6.445   9.239  0.0419  0.1700  0.7885
  577MOL0     C76039   7.658   6.407   9.361 -0.1749 -0.2189 -1.5384
  577MOL0     O76040   7.530   6.437   9.402  0.4958 -0.1703  0.4896
  577MOL0     C76041   7.486   6.388   9.530 -0.4482 -0.5812  0.5565
  577MOL0     C76042   7.336   6.401   9.542  0.1565  0.0924 -0.0861
  577MOL0     C76043   7.294   6.547   9.526  0.1731  0.5497  1.3173
  577MOL0     C76044   7.282   6.617   9.656  0.5447  0.4799  1.1873
  577MOL0     C76045   7.242   6.764   9.633  0.1295 -0.6651  0.7739
  577MOL0     C76046   7.233   6.835   9.770  0.2689 -0.2148 -0.4014
  577MOL0     C76047   7.368   6.849   9.835 -0.3954  0.3589  0.3241
  577MOL0     C76048   7.479   6.927   9.776 -0.1453 -0.7099 -0.2932
  577MOL0     N76049   7.574   6.846   9.696  0.4831 -0.2376  0.8381
  577MOL0     C76050   7.602   6.842   9.568 -1.0487  1.1696 -0.3093
  577MOL0     C76051   7.717   6.770   9.555  0.4830  0.1165  1.3495
  577MOL0     C76052   7.794   6.749   9.438  0.9781  0.1117  0.5873
  577MOL0     C76053   7.902   6.643   9.455  0.6046 -0.0782 -0.7854
  577MOL0     C76054   8.015   6.696   9.546  0.4389 -0.4016  0.1574
  577MOL0     C76055   8.119   6.588   9.555  0.4713 -0.2318 -0.4614
  577MOL0     O76056   8.245   6.647   9.510  0.4217  0.5711 -0.5655
  577MOL0     C76057   8.291   6.635   9.380 -0.2959  0.6699 -0.1621
  577MOL0     C76058   8.409   6.703   9.351 -0.2661  0.0152 -0.2885
  577MOL0     C76059   8.464   6.708   9.221 -0.1088  0.7850 -0.1522
  577MOL0     C76060   8.393   6.635   9.123  0.2879  0.1166  0.7446
  577MOL0     C76061   8.448   6.647   8.985  0.4951  0.1110  0.5079
  577MOL0     O76062   8.571   6.708   8.960 -0.1889  0.0872 -0.0594
  577MOL0     C76063   8.603   6.721   8.826 -0.2552 -0.8312 -0.3864
  577MOL0     C76064   8.722   6.661   8.782  0.7524  0.4613 -0.5653
  577MOL0     C76065   8.765   6.671   8.656  0.4210  0.3141  0.3138
  577MOL0     C76066   8.688   6.740   8.572 -0.4972 -0.1182 -0.3864
  577MOL0     O76067   8.744   6.749   8.440  0.4447 -0.6991 -0.2199
  577MOL0     C76068   8.767   6.885   8.384 -0.2566  0.0138 -0.1067
  577MOL0     C76069   8.855   6.871   8.260  1.0360 -0.3164  0.3237
  577MOL0     C76070   8.780   6.851   8.131  0.5818  0.2199  0.2233
  577MOL0     C76071   8.882   6.819   8.029 -0.3058 -0.1184  0.6573
  577MOL0     C76072   8.804   6.809   7.892 -0.4229 -0.5229  0.2170
  577MOL0     C76073   8.901   6.810   7.776  0.3576  0.3935 -0.2967
  577MOL0     C76074   8.822   6.821   7.641  0.4989 -0.9356 -0.5332
  577MOL0     C76075   8.917   6.794   7.529 -0.7353 -0.2709  0.4319
  577MOL0    Cl76076   8.936   6.624   7.488  0.1574  0.4372  0.2436
  577MOL0     C76077   8.566   6.795   8.604 -0.1979 -0.6502  0.0844
  577MOL0     C76078   8.523   6.800   8.737 -0.1974 -0.2953  0.3165
  577MOL0     O76079   8.373   6.596   8.900  0.0121  0.4718  0.2214
  577MOL0     C76080   8.273   6.574   9.148 -0.2070 -0.3911 -0.0523
  577MOL0     C76081   8.226   6.561   9.278 -0.9726 -0.5353 -0.2857
  577MOL0     N76082   7.745   6.720   9.683  0.8061 -0.1890 -0.3317
  577MOL0     N76083   7.652   6.767   9.766  0.1239  0.3661  0.3087
  577MOL0     C76084   7.746   6.329   9.443  0.8537  1.3744  0.4943
  577MOL0     C76085   7.853   6.273   9.385  0.4974  0.0557  0.0014
  577MOL0     C76086   8.221   6.240   9.091  0.2345 -0.5452  0.9249
  577MOL0     C76087   8.310   6.220   9.200  0.3761 -0.7110 -0.0329
  577MOL0     C76088   8.446   6.201   9.187  0.5710 -0.2083  0.3038
  577MOL0     C76089   8.497   6.191   9.058 -0.0449 -0.9632 -0.0777
  577MOL0     O76090   8.633   6.154   9.043  0.2375  0.4273  0.9043
  577MOL0     C76091   8.693   6.153   8.915  1.0630  0.5181  0.1713
  577MOL0     C76092   8.740   6.296   8.896 -0.5648  0.6743  0.3825
  577MOL0     C76093   8.859   6.338   8.980 -0.1941  0.6509 -1.2145
  577MOL0     C76094   8.824   6.353   9.140  0.5804  0.3613  0.4055
  577MOL0     C76095   8.935   6.428   9.204 -0.8463 -0.2353 -0.6620
  577MOL0     C76096   9.015   6.489   9.278 -0.4387 -0.0920  0.7158
  577MOL0     C76097   8.421   6.236   8.950 -0.3328 -1.1483  0.1002
  577MOL0     C76098   8.281   6.248   8.962  0.1121  0.1773 -0.0669
  577MOL0     H76099   7.870   6.461   9.113 -0.0818  3.5339  1.2598
  577MOL0     H76100   7.643   6.514   9.179 -2.0525 -0.7030  1.7280
  577MOL0     H76101   7.548   6.452   9.594 -0.1223  1.2081 -1.4372
  577MOL0     H76102   7.524   6.286   9.526  1.4796  0.1397 -2.2434
  577MOL0     H76103   7.305   6.354   9.636  0.7046 -3.2057 -1.4066
  577MOL0     H76104   7.300   6.331   9.467 -0.2222  0.6909 -0.4702
  577MOL0     H76105   7.205   6.559   9.464  1.6497  5.8063 -0.3618
  577MOL0     H76106   7.371   6.607   9.477  0.3151 -0.9096 -0.3365
  577MOL0     H76107   7.206   6.567   9.717  3.0564 -0.9302  3.3230
  577MOL0     H76108   7.383   6.604   9.696  1.4857 -2.7110 -1.7479
  577MOL0     H76109   7.142   6.770   9.590 -0.2763 -1.6111  1.5451
  577MOL0     H76110   7.310   6.822   9.570 -0.3121 -0.7050  0.2528
  577MOL0     H76111   7.171   6.773   9.835  2.1187 -2.4896 -0.6768
  577MOL0     H76112   7.182   6.931   9.758 -2.4598 -0.7620  4.3663
  577MOL0     H76113   7.357   6.888   9.937 -2.1741  0.8778 -0.0375
  577MOL0     H76114   7.400   6.746   9.853  0.1051  0.5933  0.8036
  577MOL0     H76115   7.534   6.982   9.852 -0.9909 -0.4723  0.1550
  577MOL0     H76116   7.436   6.997   9.704  0.8390 -0.1352 -0.3378
  577MOL0     H76117   7.560   6.896   9.484  0.3948 -0.4211 -2.1438
  577MOL0     H76118   7.846   6.843   9.417  0.2032  0.7527  1.4491
  577MOL0     H76119   7.718   6.727   9.362 -2.6545  1.8451  3.3721
  577MOL0     H76120   7.941   6.628   9.354  2.9464  1.7973 -0.2723
  577MOL0     H76121   7.871   6.551   9.504  0.8876  1.6820  3.0662
  577MOL0     H76122   8.054   6.792   9.511  0.1480  0.8041  2.8835
  577MOL0     H76123   7.976   6.700   9.648 -1.4079 -1.2641 -0.4644
  577MOL0     H76124   8.092   6.492   9.510  0.6446  0.5826 -2.3976
  577MOL0     H76125   8.130   6.570   9.663 -0.1309  1.2340 -0.1417
  577MOL0     H76126   8.466   6.746   9.432  1.0119 -0.8195 -0.7065
  577MOL0     H76127   8.564   6.744   9.201 -0.3719  1.1905 -0.7663
  577MOL0     H76128   8.791   6.605   8.845  1.9260  1.2742 -1.0830
  577MOL0     H76129   8.859   6.626   8.626 -0.3471 -0.4305 -1.0737
  577MOL0     H76130   8.816   6.950   8.457  0.0909 -0.5199  0.1375
  577MOL0     H76131   8.668   6.929   8.364 -0.9663  0.5679  3.8740
  577MOL0     H76132   8.928   6.792   8.277 -0.5681 -1.7583  0.7647
  577MOL0     H76133   8.903   6.969   8.249 -0.7585  0.8960  2.3156
  577MOL0     H76134   8.715   6.936   8.108 -0.2891 -0.4296  0.2253
  577MOL0     H76135   8.715   6.764   8.144 -1.1385  1.4807  0.4734
  577MOL0     H76136   8.959   6.896   8.020 -0.0322  0.0289  3.3978
  577MOL0     H76137   8.934   6.726   8.056 -1.2737 -0.2520  2.1735
  577MOL0     H76138   8.733   6.891   7.878 -0.8333  0.0865  4.5446
  577MOL0     H76139   8.745   6.717   7.888  0.8471 -1.3453 -2.3671
  577MOL0     H76140   8.956   6.717   7.793 -0.6923 -0.1940  0.0076
  577MOL0     H76141   8.966   6.898   7.770  1.4122 -0.4340 -1.6781
  577MOL0     H76142   8.750   6.739   7.632  0.8646 -2.0565  4.1384
  577MOL0     H76143   8.777   6.921   7.645  0.0549 -1.1498 -0.1578
  577MOL0     H76144   9.010   6.852   7.536 -1.4046  0.8477  0.3714
  577MOL0     H76145   8.862   6.834   7.443  3.9155  0.6790 -2.4526
  577MOL0     H76146   8.505   6.848   8.532  2.4317  1.7750 -0.5290
  577MOL0     H76147   8.427   6.845   8.759 -0.4081  0.9372 -2.6516
  577MOL0     H76148   8.224   6.512   9.073  1.5673 -2.9985  0.7925
  577MOL0     H76149   8.146   6.491   9.302 -2.0453 -0.8816 -4.1736
  577MOL0     H76150   7.719   6.300   9.544 -1.2225  1.9950  0.1754
  577MOL0     H76151   7.916   6.198   9.432  0.1572 -0.2715 -0.0632
  577MOL0     H76152   8.271   6.230   9.301 -0.9456  1.2520 -0.6727
  577MOL0     H76153   8.517   6.181   9.266  0.0932 -1.5417  0.4224
  577MOL0     H76154   8.621   6.133   8.835 -0.3668  0.6796  1.3744
  577MOL0     H76155   8.774   6.079   8.908 -2.8829 -4.1553 -1.5027
  577MOL0     H76156   8.769   6.280   8.791  0.8140 -2.3378  1.0970
  577MOL0     H76157   8.655   6.363   8.908 -4.8296 -4.4617  2.9647
  577MOL0     H76158   8.904   6.434   8.953 -1.3840  2.0023  1.2150
  577MOL0     H76159   8.932   6.258   8.966  0.2024  1.3429 -3.6776
  577MOL0     H76160   8.724   6.396   9.153 -0.5423 -1.4710 -1.4364
  577MOL0     H76161   8.803   6.256   9.185  1.3290 -0.8915 -1.7512
  577MOL0     H76162   9.065   6.550   9.351  1.4132 -1.9143  1.0641
  577MOL0     H76163   8.466   6.238   8.851  1.8811 -2.1382  1.0252
  577MOL0     H76164   8.206   6.270   8.887 -0.1898 -1.3139 -0.2323
  578MOL0     O76165   4.530   7.307  10.114 -0.7367 -0.0363  1.3304
  578MOL0     C76166   4.575   7.206  10.062  0.1575 -0.5259  0.8294
  578MOL0     O76167   4.665   7.208   9.962  0.7241  0.1362  0.5843
  578MOL0     C76168   4.708   7.322   9.901 -0.9110  0.2530 -0.7154
  578MOL0     C76169   4.786   7.424   9.966  0.4003  0.4621 -0.0246
  578MOL0     C76170   4.835   7.538   9.897 -0.0419  0.9771  0.4516
  578MOL0     C76171   4.802   7.554   9.766  0.1879  0.4264  1.1779
  578MOL0     O76172   4.820   7.667   9.694 -0.5903  0.4519 -0.1830
  578MOL0     C76173   4.958   7.726   9.713  0.8721  0.2364  0.5119
  578MOL0     C76174   4.956   7.871   9.656 -0.4413 -0.6640  0.4170
  578MOL0     C76175   4.873   7.956   9.766 -0.2828  0.4718  0.4989
  578MOL0     C76176   4.773   8.059   9.710 -0.6413  0.1834 -0.3850
  578MOL0     C76177   4.684   8.118   9.826 -0.8744 -0.3587 -0.8396
  578MOL0     C76178   4.581   8.007   9.872 -0.1066 -0.6002  0.3868
  578MOL0     C76179   4.448   8.065   9.939  0.1500  0.5034 -0.8399
  578MOL0     C76180   4.481   8.129  10.069 -0.4318  1.2051 -1.0808
  578MOL0     N76181   4.361   8.143  10.158 -0.2309 -0.2971  0.0470
  578MOL0     C76182   4.277   8.048  10.216 -0.9993 -0.3432 -0.3492
  578MOL0     C76183   4.182   8.119  10.271  0.4090  0.6259  0.5275
  578MOL0     C76184   4.065   8.070  10.356 -0.5695 -0.8523 -0.3235
  578MOL0     C76185   3.975   7.979  10.272  0.5506 -0.3922  0.1857
  578MOL0     C76186   3.836   7.966  10.343 -0.2796 -0.7197 -0.9188
  578MOL0     C76187   3.730   7.888  10.271 -0.0943  0.5807  0.4306
  578MOL0     O76188   3.751   7.742  10.267 -0.1135  0.4292  0.0895
  578MOL0     C76189   3.646   7.664  10.233 -0.4622 -0.7255 -0.7860
  578MOL0     C76190   3.629   7.535  10.282 -0.4530  0.1361 -0.3371
  578MOL0     C76191   3.521   7.460  10.236 -0.6955  0.4131  0.5682
  578MOL0     C76192   3.434   7.506  10.135 -0.7947  0.2244  0.3564
  578MOL0     C76193   3.331   7.416  10.079  0.1202 -0.6493 -0.6146
  578MOL0     O76194   3.350   7.282  10.108  0.0696  0.2934 -0.5096
  578MOL0     C76195   3.255   7.184  10.082  0.2179 -0.1357 -0.1382
  578MOL0     C76196   3.259   7.087  10.173 -0.6102 -0.4675 -0.1587
  578MOL0     C76197   3.169   6.988  10.179  0.4135 -0.2342 -0.4620
  578MOL0     C76198   3.055   6.977  10.095 -0.1473 -0.8552  0.4658
  578MOL0     O76199   2.955   6.887  10.089  0.4805 -0.0144 -0.0691
  578MOL0     C76200   2.953   6.790  10.198  0.5515  0.2464 -0.1059
  578MOL0     C76201   2.857   6.681  10.158  0.2686  1.2243 -0.4346
  578MOL0     C76202   2.713   6.736  10.150  0.3152  0.4489  0.7961
  578MOL0     C76203   2.614   6.666  10.051  0.6389  0.1998 -0.7189
  578MOL0     C76204   2.526   6.765   9.973 -0.0661 -0.5372  1.0281
  578MOL0     C76205   2.546   6.780   9.819  1.2099 -1.2656 -0.6190
  578MOL0     C76206   2.685   6.821   9.787 -0.1422  0.3834 -0.4174
  578MOL0     C76207   2.719   6.825   9.627  0.4271  0.9100 -0.2980
  578MOL0    Cl76208   2.749   6.650   9.581  0.7351  0.0439  0.1826
  578MOL0     C76209   3.054   7.080   9.994 -0.4740  0.1438 -0.0583
  578MOL0     C76210   3.151   7.183   9.982 -0.3198  0.3527 -0.1710
  578MOL0     O76211   3.236   7.471  10.024  0.2724  0.1124  0.3720
  578MOL0     C76212   3.446   7.630  10.095  0.8346  0.2793  0.0168
  578MOL0     C76213   3.541   7.715  10.150 -0.7144 -0.1639  0.1133
  578MOL0     N76214   4.210   8.253  10.243 -0.2165 -0.6310 -0.8913
  578MOL0     N76215   4.321   8.272  10.186  0.0972  0.9571  0.1432
  578MOL0     C76216   4.736   7.447   9.702 -1.1621  0.3188  0.0846
  578MOL0     C76217   4.686   7.336   9.768 -0.0048 -0.3839  0.4118
  578MOL0     C76218   4.508   7.076  10.075  0.0574 -0.1568 -0.3896
  578MOL0     C76219   4.383   7.070  10.135 -0.4638 -0.4033  0.9092
  578MOL0     C76220   4.314   6.944  10.125  0.2419  0.0180 -0.4397
  578MOL0     C76221   4.369   6.834  10.085 -0.3577  1.0761  0.5430
  578MOL0     O76222   4.295   6.721  10.090 -0.7624  0.6122 -0.9779
  578MOL0     C76223   4.350   6.590  10.078  0.4217 -0.0786 -1.0391
  578MOL0     C76224   4.244   6.487  10.116 -0.8950  0.1184 -1.1432
  578MOL0     C76225   4.199   6.509  10.262  1.4400  0.3362  0.4294
  578MOL0     C76226   4.293   6.448  10.368  0.6546  0.5194  0.4851
  578MOL0     C76227   4.294   6.300  10.359  0.1535 -0.5521  0.4072
  578MOL0     C76228   4.275   6.175  10.347 -0.3511 -0.4919  0.0433
  578MOL0     C76229   4.503   6.838  10.038 -0.2949  0.0041 -0.3317
  578MOL0     C76230   4.570   6.959  10.041  0.3722  1.0336  0.8176
  578MOL0     H76231   4.790   7.416  10.074  1.9858  0.3185 -0.0706
  578MOL0     H76232   4.877   7.625   9.945  1.7405 -0.8137  2.3655
  578MOL0     H76233   5.032   7.672   9.653  0.0858  1.0233 -1.2386
  578MOL0     H76234   4.992   7.730   9.817  1.5095 -2.6387  0.4994
  578MOL0     H76235   4.926   7.874   9.551 -0.5557  1.8131  0.4671
  578MOL0     H76236   5.057   7.912   9.654 -0.6192 -0.1714  1.3446
  578MOL0     H76237   4.950   8.018   9.811  1.5727 -1.6983  0.5143
  578MOL0     H76238   4.830   7.894   9.845 -4.3113 -2.1956 -3.2515
  578MOL0     H76239   4.827   8.137   9.655 -0.2900 -0.1709 -0.5459
  578MOL0     H76240   4.712   8.018   9.628 -2.3971  0.8957  0.5074
  578MOL0     H76241   4.622   8.194   9.778 -2.1958 -1.5791 -1.1621
  578MOL0     H76242   4.744   8.152   9.911 -3.2723  1.8064  0.1327
  578MOL0     H76243   4.634   7.932   9.931  3.2571  1.9756  0.9603
  578MOL0     H76244   4.537   7.952   9.788 -0.9398 -3.5788  2.6226
  578MOL0     H76245   4.393   8.130   9.870 -1.6461  1.3616  1.3042
  578MOL0     H76246   4.373   7.988   9.956  0.7346  0.5592  2.6073
  578MOL0     H76247   4.523   8.229  10.056  0.9074  0.3364 -4.6484
  578MOL0     H76248   4.560   8.074  10.123 -0.9198  3.5206  2.2606
  578MOL0     H76249   4.300   7.942  10.225  1.5516  0.1209 -0.7225
  578MOL0     H76250   4.006   8.161  10.372  1.4186  0.2381  1.1950
  578MOL0     H76251   4.101   8.039  10.454  1.7637  1.1184 -0.4775
  578MOL0     H76252   4.031   7.888  10.248  0.8151 -0.4314  0.9183
  578MOL0     H76253   3.948   8.014  10.172  1.6402 -3.3406 -1.2624
  578MOL0     H76254   3.861   7.924  10.440  0.4045  2.4639  0.3901
  578MOL0     H76255   3.789   8.065  10.348 -1.3527 -1.0859 -2.7575
  578MOL0     H76256   3.723   7.921  10.167 -2.1842 -1.5840 -0.1998
  578MOL0     H76257   3.636   7.903  10.324 -1.1020 -0.2109 -1.0753
  578MOL0     H76258   3.697   7.490  10.354  0.3377 -1.7946 -2.1975
  578MOL0     H76259   3.521   7.356  10.268  3.4511  0.5248  1.4740
  578MOL0     H76260   3.346   7.088  10.238 -1.2598  0.1728  0.7412
  578MOL0     H76261   3.190   6.898  10.237  0.3529  1.0550  1.6985
  578MOL0     H76262   2.923   6.840  10.291 -1.0269 -2.5578  1.0044
  578MOL0     H76263   3.050   6.742  10.214  0.1507 -0.3895  0.4513
  578MOL0     H76264   2.850   6.585  10.208 -2.3495 -0.2222 -3.2657
  578MOL0     H76265   2.888   6.662  10.055 -2.9977 -1.2000 -1.1256
  578MOL0     H76266   2.721   6.842  10.125 -0.9126 -0.0264 -1.9755
  578MOL0     H76267   2.671   6.744  10.250  1.3258  0.1498  1.2537
  578MOL0     H76268   2.675   6.606   9.982 -1.0771 -0.0513 -2.0747
  578MOL0     H76269   2.554   6.599  10.112 -0.9229  1.5666 -0.6798
  578MOL0     H76270   2.541   6.869  10.004 -1.5546 -0.1962  0.6743
  578MOL0     H76271   2.420   6.745   9.987  0.4594 -3.6093  1.4647
  578MOL0     H76272   2.469   6.849   9.782 -0.9397 -4.1459 -1.9055
  578MOL0     H76273   2.531   6.679   9.780  0.9411 -0.9405 -1.3679
  578MOL0     H76274   2.700   6.921   9.827 -3.7580  0.7417  0.4196
  578MOL0     H76275   2.744   6.753   9.850 -3.8263 -0.9607  1.9516
  578MOL0     H76276   2.815   6.879   9.622  1.2222 -0.5662 -1.5529
  578MOL0     H76277   2.641   6.873   9.568  1.1298  1.9875 -0.3975
  578MOL0     H76278   2.974   7.101   9.924 -1.0343  0.7353  0.7436
  578MOL0     H76279   3.133   7.256   9.904  1.5348 -0.1048 -1.0849
  578MOL0     H76280   3.382   7.678  10.022  0.8814  0.0244 -0.1966
  578MOL0     H76281   3.541   7.815  10.109  1.3110  0.2064  0.9411
  578MOL0     H76282   4.725   7.443   9.594  1.4734  0.8706 -0.2672
  578MOL0     H76283   4.641   7.261   9.704  0.3747  1.2785 -1.9243
  578MOL0     H76284   4.334   7.159  10.173 -2.5176 -1.0436 -0.0938
  578MOL0     H76285   4.209   6.944  10.152  0.1729  1.2994 -0.6598
  578MOL0     H76286   4.426   6.586  10.157 -0.9209 -0.7519  0.2507
  578MOL0     H76287   4.390   6.563   9.979  3.2070 -1.4927  0.3471
  578MOL0     H76288   4.157   6.484  10.050 -0.8781  1.4523 -1.2525
  578MOL0     H76289   4.286   6.387  10.103  0.1897  0.2091  1.2014
  578MOL0     H76290   4.099   6.468  10.276  1.8228 -1.5230 -1.5777
  578MOL0     H76291   4.182   6.616  10.276  1.0041  0.2812  0.3256
  578MOL0     H76292   4.388   6.494  10.338  0.4983 -1.9193 -4.7258
  578MOL0     H76293   4.266   6.481  10.469  1.2616  1.8051  0.2593
  578MOL0     H76294   4.250   6.071  10.344 -0.8485 -0.3648 -0.6185
  578MOL0     H76295   4.554   6.748  10.003  2.3173  1.3196 -0.1867
  578MOL0     H76296   4.675   6.958  10.015 -0.4841 -0.5149 -3.2371
  579MOL0     O76297   0.227   9.673   9.106  0.6854  0.7247  0.7769
  579MOL0     C76298   0.240   9.699   8.986 -0.3119 -0.3058  0.6949
  579MOL0     O76299   0.299   9.816   8.935 -0.4834  0.6827 -0.0523
  579MOL0     C76300   0.353   9.913   9.015 -0.6946  0.6627 -1.4435
  579MOL0     C76301   0.456   9.984   8.958  0.3453 -0.3460 -0.0688
  579MOL0     C76302   0.536  10.075   9.035 -0.6329 -0.4824 -0.1264
  579MOL0     C76303   0.500  10.109   9.167  0.3731  0.5093  0.4174
  579MOL0     O76304   0.575  10.188   9.243 -0.0463 -0.6299 -0.2035
  579MOL0     C76305   0.717  10.193   9.234 -0.0091  0.4090 -0.1022
  579MOL0     C76306   0.750  10.316   9.322 -0.7159 -0.5009 -0.0790
  579MOL0     C76307   0.732  10.303   9.476  0.5334  0.1746  0.0541
  579MOL0     C76308   0.805  10.208   9.557 -0.2365  0.0078  0.0405
  579MOL0     C76309   0.962  10.217   9.546 -0.1407 -0.5936  0.0723
  579MOL0     C76310   1.045  10.112   9.623  0.0081  0.8232 -0.2768
  579MOL0     C76311   1.015  10.101   9.780  0.4089 -0.0113 -0.5658
  579MOL0     C76312   1.110   9.996   9.847  0.0807 -1.6170 -0.0579
  579MOL0     N76313   1.052   9.860   9.863  1.0166  0.5662  0.7322
  579MOL0     C76314   0.934   9.835   9.939 -0.2593 -0.2794 -0.2372
  579MOL0     C76315   0.899   9.708   9.919 -0.2557  0.5136 -0.2444
  579MOL0     C76316   0.781   9.639   9.974 -0.1533  0.8518  0.0723
  579MOL0     C76317   0.650   9.692   9.915 -0.1488 -0.4816  0.4315
  579MOL0     C76318   0.531   9.643   9.978 -0.4585  0.6110  0.3371
  579MOL0     C76319   0.402   9.653   9.886 -0.2880 -0.2362 -0.2377
  579MOL0     O76320   0.394   9.548   9.785 -0.7473  0.2229 -0.5399
  579MOL0     C76321   0.295   9.566   9.691  0.7042  0.8076 -0.0733
  579MOL0     C76322   0.177   9.637   9.715 -0.5073  0.3539  1.0199
  579MOL0     C76323   0.077   9.629   9.613  0.6944  0.5373 -0.6198
  579MOL0     C76324   0.075   9.538   9.513 -0.2026  0.6433  0.3426
  579MOL0     C76325  -0.026   9.545   9.417 -0.5978 -0.7762 -0.1837
  579MOL0     O76326   0.004   9.481   9.302  0.1197 -0.0229  0.6301
  579MOL0     C76327  -0.099   9.450   9.213 -0.3369 -0.0893 -1.2103
  579MOL0     C76328  -0.069   9.418   9.087 -0.7701  0.5817 -0.0024
  579MOL0     C76329  -0.165   9.384   8.995  0.3716 -0.2414 -1.0262
  579MOL0     C76330  -0.301   9.379   9.035  0.5960 -0.3788 -0.3452
  579MOL0     O76331  -0.406   9.344   8.950  0.6125 -0.5006  0.1639
  579MOL0     C76332  -0.371   9.268   8.836  1.3081  0.9865 -0.4326
  579MOL0     C76333  -0.315   9.129   8.865  0.3653 -0.1517  0.6129
  579MOL0     C76334  -0.370   9.032   8.762 -0.9398  0.7061  0.0215
  579MOL0     C76335  -0.319   9.062   8.620  0.1765 -0.8373  0.1789
  579MOL0     C76336  -0.358   8.969   8.513 -0.1917 -0.6548 -0.2692
  579MOL0     C76337  -0.514   8.927   8.511  0.5167 -0.0075  0.5716
  579MOL0     C76338  -0.532   8.818   8.397  1.3629  0.0316  0.1214
  579MOL0     C76339  -0.504   8.880   8.262  0.3068 -0.7954 -0.5754
  579MOL0    Cl76340  -0.540   8.776   8.126 -0.0835 -0.6054  0.1534
  579MOL0     C76341  -0.330   9.393   9.174  1.1077 -0.5023  1.1904
  579MOL0     C76342  -0.230   9.427   9.258  1.2426 -0.4358 -0.1619
  579MOL0     O76343  -0.136   9.613   9.427 -0.3288  0.3769 -0.6060
  579MOL0     C76344   0.182   9.449   9.510  0.0819  0.2637  0.1945
  579MOL0     C76345   0.297   9.473   9.591 -0.4320 -0.5830 -0.6634
  579MOL0     N76346   0.995   9.660   9.830  0.5360  0.2626  0.0984
  579MOL0     N76347   1.076   9.748   9.789 -0.1913 -0.1336 -0.1324
  579MOL0     C76348   0.387  10.047   9.221  0.3860  0.6517  0.0736
  579MOL0     C76349   0.309   9.952   9.146  0.6006  0.0383 -0.4872
  579MOL0     C76350   0.197   9.589   8.881  0.2232 -0.5530 -0.2416
  579MOL0     C76351   0.220   9.465   8.915  0.2159  0.5321 -0.3885
  579MOL0     C76352   0.185   9.360   8.823 -0.3428 -0.5590  0.7565
  579MOL0     C76353   0.125   9.393   8.701  1.2707  0.1578 -0.3332
  579MOL0     O76354   0.102   9.292   8.617 -0.1374  0.0759  0.9449
  579MOL0     C76355   0.219   9.236   8.566  0.3679 -0.3292  0.0522
  579MOL0     C76356   0.196   9.148   8.444  0.6673 -0.1273  0.4459
  579MOL0     C76357   0.165   9.230   8.318  0.3517 -0.0445  0.0360
  579MOL0     C76358   0.156   9.145   8.186  0.9777 -0.0098  0.0130
  579MOL0     C76359   0.082   9.222   8.082  0.6679  0.4695  0.7493
  579MOL0     C76360   0.029   9.292   7.993 -0.1905 -0.1553 -0.4000
  579MOL0     C76361   0.095   9.530   8.675  0.3656  0.1532  0.5542
  579MOL0     C76362   0.137   9.628   8.760  0.4423  0.4458  0.2463
  579MOL0     H76363   0.480   9.949   8.858  0.3973 -0.7369  0.0826
  579MOL0     H76364   0.627  10.108   8.986  0.9269  0.3457  3.0378
  579MOL0     H76365   0.757  10.209   9.134  3.4642  0.3168  1.1486
  579MOL0     H76366   0.759  10.101   9.274 -0.2605  0.8759  1.2954
  579MOL0     H76367   0.687  10.401   9.297 -1.1040 -0.5460  0.7175
  579MOL0     H76368   0.855  10.340   9.303 -1.0238 -0.2418 -1.6319
  579MOL0     H76369   0.625  10.277   9.478  0.2390  0.5779 -3.5149
  579MOL0     H76370   0.765  10.397   9.520  0.7063  0.3167 -0.3767
  579MOL0     H76371   0.779  10.207   9.663  0.1702  0.0231  0.1414
  579MOL0     H76372   0.775  10.110   9.522 -0.8753 -0.3301  1.4623
  579MOL0     H76373   0.992  10.317   9.578 -0.7608  1.0150 -3.7566
  579MOL0     H76374   0.970  10.211   9.437 -1.0090  0.8890 -0.0996
  579MOL0     H76375   1.152  10.131   9.605  1.1067 -1.4060  3.0575
  579MOL0     H76376   1.024  10.010   9.589  1.0176  0.2113  0.8756
  579MOL0     H76377   1.047  10.198   9.821 -1.2127  1.4309 -2.5130
  579MOL0     H76378   0.908  10.082   9.792 -0.6666 -0.6959 -7.2631
  579MOL0     H76379   1.137  10.034   9.946  3.7805 -0.4472 -1.3253
  579MOL0     H76380   1.208  10.002   9.798 -0.0005 -0.5006 -0.1068
  579MOL0     H76381   0.884   9.911   9.998 -0.7798  0.7801 -1.9634
  579MOL0     H76382   0.772   9.665  10.079 -1.4311 -2.7621  1.0036
  579MOL0     H76383   0.806   9.532   9.971 -0.4572  0.7117  1.7042
  579MOL0     H76384   0.652   9.657   9.811  1.1469 -0.2760  0.3663
  579MOL0     H76385   0.654   9.801   9.905 -2.0973 -0.2737  1.4863
  579MOL0     H76386   0.547   9.538  10.003  3.0925  0.6211 -1.2393
  579MOL0     H76387   0.523   9.706  10.068 -1.9966  1.1003 -0.1038
  579MOL0     H76388   0.393   9.756   9.851  1.6289  0.9313  2.3409
  579MOL0     H76389   0.320   9.639   9.958  2.2692  2.6756  3.6816
  579MOL0     H76390   0.157   9.701   9.801 -3.5755 -1.1436  1.5637
  579MOL0     H76391  -0.011   9.692   9.612 -1.9275 -2.7944  0.4709
  579MOL0     H76392   0.036   9.414   9.062 -0.3702  1.4671  1.3724
  579MOL0     H76393  -0.147   9.360   8.890 -3.0228 -1.6862 -1.4061
  579MOL0     H76394  -0.312   9.319   8.760  0.5616 -0.4264 -2.0243
  579MOL0     H76395  -0.471   9.263   8.792  0.6822  0.8786  0.9518
  579MOL0     H76396  -0.353   9.090   8.959 -3.4605 -1.0125 -1.1221
  579MOL0     H76397  -0.206   9.128   8.872  0.8014 -3.5203 -2.9426
  579MOL0     H76398  -0.480   9.040   8.761 -0.9436  0.9167  1.0348
  579MOL0     H76399  -0.345   8.930   8.790 -3.7080 -0.5397 -1.5973
  579MOL0     H76400  -0.360   9.161   8.596  1.9880  0.0902  0.6959
  579MOL0     H76401  -0.210   9.069   8.618  0.1629 -0.6160  0.1299
  579MOL0     H76402  -0.305   8.875   8.533 -4.0351 -3.1461 -0.5715
  579MOL0     H76403  -0.316   9.018   8.425  3.3028  1.2410  2.1993
  579MOL0     H76404  -0.574   9.016   8.492 -0.5654 -1.2049 -2.1383
  579MOL0     H76405  -0.542   8.883   8.607 -0.1831  0.5873  0.6375
  579MOL0     H76406  -0.477   8.723   8.407 -0.3589 -0.9788  0.4546
  579MOL0     H76407  -0.637   8.789   8.402  1.8665 -1.9167  0.2769
  579MOL0     H76408  -0.398   8.907   8.263  0.1629 -0.0351  1.9840
  579MOL0     H76409  -0.568   8.968   8.255 -2.2412 -2.4126  0.7780
  579MOL0     H76410  -0.430   9.399   9.215  0.5859  0.6753 -0.1420
  579MOL0     H76411  -0.259   9.446   9.361  1.3917  0.7654 -0.3312
  579MOL0     H76412   0.186   9.378   9.428 -2.4944  0.9452 -0.6131
  579MOL0     H76413   0.385   9.413   9.571  1.0091  1.0859  0.3374
  579MOL0     H76414   0.356  10.069   9.323 -2.0503 -2.8943  0.3165
  579MOL0     H76415   0.217   9.905   9.179  1.3147 -0.4288  0.9235
  579MOL0     H76416   0.274   9.429   9.002  1.6056 -1.9264 -2.1279
  579MOL0     H76417   0.227   9.263   8.850 -3.0204 -1.7560  0.9441
  579MOL0     H76418   0.262   9.181   8.650 -0.6584  1.6679  2.0108
  579MOL0     H76419   0.285   9.316   8.531  0.7959 -1.4136 -1.6839
  579MOL0     H76420   0.288   9.092   8.423 -1.3897 -2.0748 -5.1401
  579MOL0     H76421   0.121   9.073   8.467  1.0561 -0.5498  0.3581
  579MOL0     H76422   0.243   9.305   8.300 -0.6351  0.9114 -0.4341
  579MOL0     H76423   0.072   9.287   8.324 -0.2392 -0.7821 -1.5348
  579MOL0     H76424   0.253   9.122   8.141  1.0419  1.0603 -0.4364
  579MOL0     H76425   0.103   9.054   8.213  1.5504 -1.1231 -2.4028
  579MOL0     H76426  -0.016   9.351   7.916 -2.2882 -4.4622 -2.8369
  579MOL0     H76427   0.043   9.560   8.584  0.6643 -0.5032  0.1579
  579MOL0     H76428   0.115   9.731   8.736 -2.4685 -0.0705  0.3043
  580MOL0     O76429   8.803   1.508  10.432 -0.6111 -0.4859 -0.0971
  580MOL0     C76430   8.725   1.415  10.437  0.7634  0.3937  0.0611
  580MOL0     O76431   8.633   1.369  10.338  0.9780 -0.4002 -0.0141
  580MOL0     C76432   8.620   1.446  10.215 -0.6317 -0.2463 -0.2352
  580MOL0     C76433   8.727   1.461  10.129 -0.3684 -0.9224  0.5839
  580MOL0     C76434   8.703   1.528  10.004 -0.4729 -0.7291 -0.1916
  580MOL0     C76435   8.584   1.583   9.965  1.2051  0.3766  0.1477
  580MOL0     O76436   8.548   1.664   9.863  0.0718  0.1323 -0.9962
  580MOL0     C76437   8.652   1.764   9.831 -1.1148 -0.1779 -0.4226
  580MOL0     C76438   8.587   1.878   9.739  0.1196  0.4777 -0.1350
  580MOL0     C76439   8.581   1.821   9.596 -0.2531 -0.4109  0.4698
  580MOL0     C76440   8.549   1.919   9.484  0.0348 -0.1722  0.4123
  580MOL0     C76441   8.574   1.868   9.345 -0.7838  0.3079  0.3671
  580MOL0     C76442   8.524   1.952   9.232 -0.4339  0.1534 -0.3917
  580MOL0     C76443   8.569   2.101   9.247  0.1882  1.1065  0.6310
  580MOL0     C76444   8.701   2.144   9.179  0.5708 -0.3675  0.9198
  580MOL0     N76445   8.807   2.053   9.226  0.6024 -0.0516 -0.4237
  580MOL0     C76446   8.868   2.063   9.349 -0.2262  0.2898 -0.2271
  580MOL0     C76447   8.937   1.949   9.359 -0.1924  1.0291 -0.0515
  580MOL0     C76448   8.997   1.899   9.486  0.7945 -0.0817 -0.0970
  580MOL0     C76449   9.132   1.968   9.490 -0.1658  1.0151  0.1897
  580MOL0     C76450   9.215   1.891   9.585 -1.1720  0.2390  1.2369
  580MOL0     C76451   9.362   1.940   9.575  0.7767  0.5646 -0.1868
  580MOL0     O76452   9.429   1.901   9.462 -0.2902 -0.2301  0.7774
  580MOL0     C76453   9.570   1.889   9.471  0.3590 -0.3370 -0.2404
  580MOL0     C76454   9.639   1.825   9.578  0.0666  1.0051  0.1860
  580MOL0     C76455   9.774   1.801   9.579  0.7995 -0.6373 -0.3434
  580MOL0     C76456   9.857   1.859   9.479 -0.3969  1.1705  0.2765
  580MOL0     C76457  10.000   1.834   9.492 -0.3258  0.4512 -0.0677
  580MOL0     O76458  10.048   1.813   9.616 -0.0702  0.4926  0.2898
  580MOL0     C76459  10.173   1.858   9.652 -0.4163 -0.2826  1.1153
  580MOL0     C76460  10.200   1.996   9.636 -0.2620 -0.4604 -0.8347
  580MOL0     C76461  10.324   2.052   9.672 -0.2468 -0.9719 -0.7413
  580MOL0     C76462  10.430   1.970   9.729  0.4992  0.4540  0.6437
  580MOL0     O76463  10.553   2.010   9.763 -0.0209 -0.0680  0.9420
  580MOL0     C76464  10.588   2.138   9.705 -0.1043  0.0539  1.0420
  580MOL0     C76465  10.745   2.164   9.731 -0.0660 -0.1978  0.1392
  580MOL0     C76466  10.796   2.304   9.689  0.3810  0.2944 -0.1536
  580MOL0     C76467  10.940   2.332   9.719 -0.4724 -0.1525 -0.0968
  580MOL0     C76468  10.999   2.459   9.657 -0.5299 -0.0311  0.3245
  580MOL0     C76469  11.143   2.484   9.703 -0.4259  0.0737 -0.6791
  580MOL0     C76470  11.194   2.615   9.654 -0.6999 -0.0243 -0.2717
  580MOL0     C76471  11.341   2.602   9.624  0.1430  0.0720  0.9263
  580MOL0    Cl76472  11.391   2.762   9.565  0.0711  1.0087 -0.0795
  580MOL0     C76473  10.401   1.834   9.747 -1.2743  0.8217  0.4061
  580MOL0     C76474  10.278   1.778   9.706 -0.2859  0.2700  0.4232
  580MOL0     O76475  10.072   1.865   9.396 -0.2619  0.9060  0.1662
  580MOL0     C76476   9.800   1.924   9.376 -0.2772  0.0238  0.0630
  580MOL0     C76477   9.654   1.930   9.366  0.0070 -0.2148 -0.1416
  580MOL0     N76478   8.930   1.878   9.238 -0.4947 -0.0594 -0.3618
  580MOL0     N76479   8.855   1.944   9.157 -0.4358  0.2002  0.7582
  580MOL0     C76480   8.477   1.570  10.062 -0.1942 -0.0429  1.0097
  580MOL0     C76481   8.490   1.503  10.180 -0.3525  0.0056 -0.1270
  580MOL0     C76482   8.731   1.344  10.570  0.4715  0.1815 -1.0484
  580MOL0     C76483   8.620   1.273  10.621 -0.9435 -0.0053  1.0766
  580MOL0     C76484   8.619   1.218  10.748 -0.4296 -0.5097 -0.7977
  580MOL0     C76485   8.737   1.206  10.825  0.6737 -0.2416 -0.9104
  580MOL0     O76486   8.730   1.163  10.954 -0.5297 -0.4284 -0.3826
  580MOL0     C76487   8.859   1.140  11.017 -0.2985 -0.3373 -0.2669
  580MOL0     C76488   8.907   1.268  11.073  0.2050  0.2878 -0.1599
  580MOL0     C76489   9.019   1.256  11.181 -0.0699  0.0169 -0.5027
  580MOL0     C76490   9.068   1.384  11.260  0.3756 -0.4703  0.4931
  580MOL0     C76491   9.214   1.384  11.275  0.0361 -0.8277  0.0863
  580MOL0     C76492   9.330   1.394  11.293 -0.1660  0.5790  0.2747
  580MOL0     C76493   8.852   1.261  10.768 -0.0913 -0.1339 -1.4072
  580MOL0     C76494   8.851   1.328  10.647  0.2423 -0.3391 -0.6332
  580MOL0     H76495   8.821   1.414  10.155  0.4654 -0.2974 -1.1972
  580MOL0     H76496   8.778   1.529   9.926  1.0044  1.3156  1.1307
  580MOL0     H76497   8.741   1.724   9.781 -2.4068  0.3724 -3.3565
  580MOL0     H76498   8.685   1.819   9.920 -2.1130 -3.0502  1.8710
  580MOL0     H76499   8.652   1.964   9.755  1.7083 -0.9890  1.9799
  580MOL0     H76500   8.488   1.898   9.782  0.1331 -2.8803  1.8910
  580MOL0     H76501   8.521   1.730   9.587 -0.4301 -0.2361 -0.1503
  580MOL0     H76502   8.683   1.792   9.568 -0.4179 -0.9408  0.4127
  580MOL0     H76503   8.445   1.952   9.488  0.6890  2.2584 -0.6667
  580MOL0     H76504   8.607   2.011   9.498 -1.0971  0.3672  1.8379
  580MOL0     H76505   8.519   1.775   9.329 -0.4359  0.1262  0.2252
  580MOL0     H76506   8.682   1.856   9.334 -1.0185 -0.4036 -1.3491
  580MOL0     H76507   8.415   1.955   9.231 -0.4862  0.7383  1.9321
  580MOL0     H76508   8.570   1.916   9.139  0.5392  1.6567 -0.5182
  580MOL0     H76509   8.488   2.164   9.210 -1.2305  0.6715  2.8324
  580MOL0     H76510   8.566   2.124   9.354  1.1447 -0.5625  1.0732
  580MOL0     H76511   8.727   2.245   9.211  2.1707 -0.5960  0.4497
  580MOL0     H76512   8.686   2.145   9.071  1.3925 -0.5438  0.7963
  580MOL0     H76513   8.852   2.130   9.434  2.2638  2.6192 -1.4662
  580MOL0     H76514   8.989   1.790   9.479 -5.3806  0.0001 -0.1846
  580MOL0     H76515   8.933   1.931   9.569 -0.2651 -0.2826 -0.8096
  580MOL0     H76516   9.121   2.071   9.526 -2.0682  1.1270 -0.5789
  580MOL0     H76517   9.185   1.956   9.395 -0.2870 -1.6158  0.3781
  580MOL0     H76518   9.183   1.908   9.688 -0.3851  3.7830  1.0299
  580MOL0     H76519   9.217   1.784   9.563 -1.1372  0.5655 -0.4997
  580MOL0     H76520   9.416   1.898   9.660 -0.6197 -1.4177 -0.2168
  580MOL0     H76521   9.372   2.049   9.576 -1.9886  0.9001 -0.3055
  580MOL0     H76522   9.581   1.776   9.656 -2.6484  2.7352 -0.6033
  580MOL0     H76523   9.814   1.735   9.655  1.6814  0.1584 -0.0949
  580MOL0     H76524  10.126   2.055   9.583  1.5486 -0.2816 -3.3370
  580MOL0     H76525  10.342   2.159   9.669  2.7565 -1.3931 -0.3639
  580MOL0     H76526  10.532   2.225   9.742 -0.7051  0.7574 -1.3093
  580MOL0     H76527  10.576   2.133   9.596  0.2023 -0.8831  1.0440
  580MOL0     H76528  10.813   2.103   9.673 -0.7830  1.1949 -2.3177
  580MOL0     H76529  10.755   2.150   9.839 -1.4111  1.9511  0.6066
  580MOL0     H76530  10.730   2.387   9.717 -1.6245  0.8417 -5.4550
  580MOL0     H76531  10.791   2.310   9.580 -1.1639  0.5792 -0.0885
  580MOL0     H76532  10.972   2.305   9.820 -0.1117  0.2442 -0.1030
  580MOL0     H76533  10.990   2.255   9.659 -1.1063  0.4094 -1.3917
  580MOL0     H76534  10.934   2.542   9.687 -0.6301 -0.5319  1.5470
  580MOL0     H76535  10.993   2.456   9.548  0.3643 -1.7438  0.2840
  580MOL0     H76536  11.206   2.399   9.672 -1.0446 -1.2071  1.4185
  580MOL0     H76537  11.152   2.485   9.812  1.3023 -1.8523 -0.7246
  580MOL0     H76538  11.140   2.643   9.563 -1.6124  0.2351  0.3394
  580MOL0     H76539  11.185   2.690   9.733  0.9681 -1.6577  1.5785
  580MOL0     H76540  11.360   2.528   9.546 -1.9227  0.7769 -0.3002
  580MOL0     H76541  11.394   2.582   9.718  2.3538  0.9953 -0.0402
  580MOL0     H76542  10.469   1.769   9.801  1.7098  2.9425 -0.5866
  580MOL0     H76543  10.261   1.676   9.737  0.3496  0.8804  3.1052
  580MOL0     H76544   9.869   1.943   9.295  1.0242  1.3579  1.4247
  580MOL0     H76545   9.604   1.978   9.282 -0.8211 -2.5684 -1.0627
  580MOL0     H76546   8.381   1.615  10.036  0.2265  0.2475 -0.1145
  580MOL0     H76547   8.414   1.506  10.257 -1.7072  3.4419 -1.3881
  580MOL0     H76548   8.532   1.263  10.558  0.3513  0.3800 -0.9083
  580MOL0     H76549   8.528   1.165  10.774  0.3621 -2.5977 -2.0007
  580MOL0     H76550   8.934   1.090  10.954 -0.3554 -2.0294  0.9486
  580MOL0     H76551   8.837   1.077  11.103  0.1950  1.8090  1.5271
  580MOL0     H76552   8.965   1.325  11.000  2.8901 -1.1753  0.6862
  580MOL0     H76553   8.828   1.339  11.101  1.4353  1.1662  1.2914
  580MOL0     H76554   9.111   1.219  11.135  1.3652  2.1394  0.4952
  580MOL0     H76555   8.984   1.182  11.253  2.0637 -2.1811 -1.5835
  580MOL0     H76556   9.056   1.468  11.191  2.7737  1.9173  2.7547
  580MOL0     H76557   9.014   1.407  11.352  0.7019 -1.3816  0.9220
  580MOL0     H76558   9.436   1.403  11.303 -0.0200 -0.4958 -0.1508
  580MOL0     H76559   8.956   1.252  10.798 -0.2335  1.8137 -0.1953
  580MOL0     H76560   8.945   1.359  10.602  0.4940 -2.5648 -1.7547
  581MOL0     O76561   5.154   3.907   7.713 -0.3635  0.1032  0.8733
  581MOL0     C76562   5.101   3.845   7.801  0.9803  0.0142  0.1295
  581MOL0     O76563   4.968   3.857   7.836  0.1892 -0.5388  1.1185
  581MOL0     C76564   4.896   3.955   7.772 -0.5242  0.2462  0.0581
  581MOL0     C76565   4.821   3.916   7.664  0.1037  0.1098  0.7012
  581MOL0     C76566   4.749   3.997   7.586 -0.1609 -0.4056  0.8384
  581MOL0     C76567   4.750   4.134   7.613  0.3923  0.6239 -0.3348
  581MOL0     O76568   4.665   4.218   7.546 -0.1138 -0.2966 -0.2079
  581MOL0     C76569   4.543   4.268   7.608 -0.0362 -0.3419  0.0878
  581MOL0     C76570   4.569   4.393   7.705  0.0228  0.4047 -0.3592
  581MOL0     C76571   4.464   4.453   7.792  0.6935  0.6893  0.5891
  581MOL0     C76572   4.510   4.553   7.886 -0.2834 -0.3032  0.1394
  581MOL0     C76573   4.400   4.605   7.973  0.1050  0.8341 -1.2771
  581MOL0     C76574   4.463   4.686   8.093 -0.4027  0.1236 -0.3252
  581MOL0     C76575   4.362   4.747   8.183  0.9199 -0.2316  0.1247
  581MOL0     C76576   4.309   4.641   8.284 -0.7746  0.5979  0.2913
  581MOL0     N76577   4.213   4.545   8.233  0.2688 -0.0858  0.0550
  581MOL0     C76578   4.113   4.573   8.144 -0.4311  0.1786 -0.1744
  581MOL0     C76579   4.057   4.455   8.125 -0.1953 -0.8289 -0.5496
  581MOL0     C76580   3.958   4.424   8.021  0.5178 -0.2250 -0.8931
  581MOL0     C76581   4.036   4.408   7.888  0.1811  0.2324 -0.0659
  581MOL0     C76582   3.968   4.324   7.779  0.7490 -0.8496  0.1945
  581MOL0     C76583   4.057   4.329   7.660 -0.2425 -0.0665  0.0979
  581MOL0     O76584   4.019   4.233   7.563  0.5581 -0.3558  0.2808
  581MOL0     C76585   4.091   4.118   7.579  0.0559  0.4076  0.3350
  581MOL0     C76586   4.224   4.112   7.534 -0.1756  0.1051 -0.8784
  581MOL0     C76587   4.303   3.994   7.555  0.0882  1.9822  0.1545
  581MOL0     C76588   4.258   3.880   7.622  0.4484  0.2257 -0.0162
  581MOL0     C76589   4.357   3.778   7.661  0.4831 -0.5557 -0.3428
  581MOL0     O76590   4.309   3.697   7.766 -0.1422 -0.0276  0.7002
  581MOL0     C76591   4.382   3.598   7.833 -0.3448  0.2654  0.5030
  581MOL0     C76592   4.459   3.504   7.760  0.7127 -0.7969  0.3068
  581MOL0     C76593   4.521   3.405   7.838 -0.1040  0.1635 -0.3461
  581MOL0     C76594   4.496   3.398   7.978  0.5289  0.0600 -0.5310
  581MOL0     O76595   4.551   3.297   8.060 -0.1984 -0.5402  0.1717
  581MOL0     C76596   4.468   3.243   8.173  0.5296  1.1939 -1.0158
  581MOL0     C76597   4.485   3.085   8.196  0.7140 -0.6636  0.2759
  581MOL0     C76598   4.387   3.046   8.303  0.1122 -1.2005  0.3395
  581MOL0     C76599   4.247   3.069   8.259 -0.2539 -0.0143 -0.9653
  581MOL0     C76600   4.150   2.982   8.343  0.2884  0.6365 -0.6510
  581MOL0     C76601   4.005   3.016   8.325  0.0022 -0.1773  0.5646
  581MOL0     C76602   3.952   2.980   8.181  0.3251  0.2425  0.0747
  581MOL0     C76603   3.936   2.833   8.148 -0.6181 -0.4704 -0.5289
  581MOL0    Cl76604   3.901   2.787   7.981  0.2488 -0.3383 -0.4786
  581MOL0     C76605   4.433   3.506   8.048 -0.1079  0.0042 -1.0401
  581MOL0     C76606   4.365   3.597   7.968 -0.2919  0.2939 -0.7409
  581MOL0     O76607   4.468   3.784   7.613 -0.0681  0.1931 -0.0457
  581MOL0     C76608   4.127   3.893   7.674 -0.1027 -0.3235  0.0987
  581MOL0     C76609   4.040   4.003   7.643  0.5192 -0.5485  0.3784
  581MOL0     N76610   4.107   4.357   8.208 -0.6565  0.2350  0.6673
  581MOL0     N76611   4.211   4.408   8.258  0.2341  0.3241  0.1115
  581MOL0     C76612   4.826   4.187   7.721  0.5594  0.5319 -0.0042
  581MOL0     C76613   4.901   4.092   7.791 -0.3550 -0.1384  0.3242
  581MOL0     C76614   5.178   3.730   7.873 -0.5241 -1.3247  0.0505
  581MOL0     C76615   5.313   3.751   7.873  1.2736 -0.2535  0.4447
  581MOL0     C76616   5.392   3.652   7.934 -0.3200  0.5385  0.4908
  581MOL0     C76617   5.344   3.549   8.012  0.4451 -0.0962 -0.3296
  581MOL0     O76618   5.427   3.459   8.071 -0.4775  0.0329  0.0272
  581MOL0     C76619   5.513   3.516   8.179  0.7003  0.1015  1.0892
  581MOL0     C76620   5.467   3.446   8.307 -0.6006  0.0861  0.7030
  581MOL0     C76621   5.492   3.294   8.302  0.4926 -0.0144 -0.4261
  581MOL0     C76622   5.412   3.220   8.402  0.2904  0.3555  0.3185
  581MOL0     C76623   5.429   3.073   8.389  0.0623 -0.2194 -0.1257
  581MOL0     C76624   5.406   2.951   8.382 -0.1368 -1.0890 -1.0912
  581MOL0     C76625   5.198   3.540   8.026 -0.1811 -0.2178  0.1096
  581MOL0     C76626   5.123   3.630   7.954 -0.3410 -0.8356  0.0050
  581MOL0     H76627   4.822   3.809   7.643 -1.4544 -0.1777  1.9308
  581MOL0     H76628   4.688   3.967   7.502  0.5569  1.6659 -0.5067
  581MOL0     H76629   4.484   4.192   7.660  1.7743 -0.3771  2.2494
  581MOL0     H76630   4.484   4.314   7.528 -1.7052  2.1844  2.5847
  581MOL0     H76631   4.590   4.466   7.626 -0.5555 -1.3074 -2.2129
  581MOL0     H76632   4.659   4.386   7.765  0.5245  1.9722 -0.8825
  581MOL0     H76633   4.410   4.372   7.841  1.7817 -1.2592 -1.2854
  581MOL0     H76634   4.382   4.506   7.741  2.3582  3.5955  0.6916
  581MOL0     H76635   4.592   4.517   7.948 -0.1654 -1.4203 -0.6311
  581MOL0     H76636   4.559   4.632   7.828  0.5758 -1.1237 -0.2709
  581MOL0     H76637   4.347   4.521   8.018 -0.6063  1.6253 -0.6131
  581MOL0     H76638   4.335   4.668   7.912 -0.5618  0.9270 -0.4810
  581MOL0     H76639   4.536   4.755   8.048  0.4745 -1.7646 -1.9504
  581MOL0     H76640   4.527   4.624   8.156  1.5549  3.2660  1.0568
  581MOL0     H76641   4.398   4.834   8.239 -0.4428  1.5689 -1.6561
  581MOL0     H76642   4.276   4.785   8.127 -0.5073 -0.5006  2.0347
  581MOL0     H76643   4.251   4.697   8.358 -3.9624 -2.3096  0.2594
  581MOL0     H76644   4.391   4.594   8.339 -1.7129 -1.4989 -0.0419
  581MOL0     H76645   4.085   4.670   8.104  0.1143  0.1454 -0.6356
  581MOL0     H76646   3.890   4.507   8.001  1.2298  0.9874  1.4718
  581MOL0     H76647   3.900   4.340   8.060 -4.5523  3.1231 -0.2625
  581MOL0     H76648   4.136   4.370   7.912  0.0949 -0.3912 -0.6843
  581MOL0     H76649   4.045   4.508   7.845 -0.1921  0.0762 -0.5137
  581MOL0     H76650   3.949   4.221   7.810 -2.6482 -0.2866  0.4779
  581MOL0     H76651   3.872   4.370   7.753  0.9704 -1.0873 -1.1042
  581MOL0     H76652   4.162   4.323   7.690  0.2320  2.2471 -0.8532
  581MOL0     H76653   4.047   4.434   7.631  1.8404  0.2597  0.4417
  581MOL0     H76654   4.270   4.200   7.491 -0.6008  1.4182  1.2413
  581MOL0     H76655   4.409   3.990   7.529 -0.5469  1.4884 -2.6401
  581MOL0     H76656   4.464   3.511   7.651  1.9725  4.0043  0.4220
  581MOL0     H76657   4.559   3.316   7.790 -2.7170 -0.8959 -0.6545
  581MOL0     H76658   4.363   3.271   8.156 -0.3840 -2.5196 -2.5627
  581MOL0     H76659   4.502   3.287   8.267  2.3287 -2.8466  0.4439
  581MOL0     H76660   4.584   3.051   8.228  0.9448 -1.4430 -1.1704
  581MOL0     H76661   4.471   3.027   8.104  1.6157  0.2058 -0.4363
  581MOL0     H76662   4.410   3.092   8.399 -4.9637  2.2755  0.3008
  581MOL0     H76663   4.400   2.937   8.307 -0.8117 -1.2963  1.0469
  581MOL0     H76664   4.227   3.174   8.284 -0.9071 -0.4940  0.6753
  581MOL0     H76665   4.235   3.048   8.152  1.0227  1.2766 -1.4077
  581MOL0     H76666   4.163   2.991   8.452 -1.4675  1.7016 -0.4954
  581MOL0     H76667   4.181   2.878   8.331 -0.8719 -0.3178  3.0960
  581MOL0     H76668   3.976   3.121   8.315 -0.1579 -0.0504  2.1411
  581MOL0     H76669   3.945   2.960   8.397 -3.4428  2.3064 -0.1374
  581MOL0     H76670   3.855   3.025   8.159 -0.2529 -1.6193 -1.5446
  581MOL0     H76671   4.010   3.030   8.103  0.7003 -2.7108 -1.7372
  581MOL0     H76672   3.859   2.792   8.213  0.6380 -1.9285  0.0920
  581MOL0     H76673   4.039   2.803   8.168 -0.5535 -0.8042 -1.3383
  581MOL0     H76674   4.430   3.497   8.156  1.7474 -0.5288 -1.0112
  581MOL0     H76675   4.302   3.673   8.013 -0.8421  0.5312 -1.8873
  581MOL0     H76676   4.070   3.815   7.723  0.6647 -0.9114  0.0865
  581MOL0     H76677   3.933   4.002   7.662  0.4978  1.2082  0.5492
  581MOL0     H76678   4.842   4.291   7.748  2.3361 -0.4171  2.9769
  581MOL0     H76679   4.980   4.131   7.855  0.0842  0.1785 -0.4025
  581MOL0     H76680   5.364   3.836   7.829  1.3434 -0.1220  0.7779
  581MOL0     H76681   5.500   3.661   7.936 -0.4271  2.5489 -0.4858
  581MOL0     H76682   5.515   3.624   8.192 -0.7868 -0.0410  2.9486
  581MOL0     H76683   5.617   3.485   8.161  0.0305 -0.5744 -2.3398
  581MOL0     H76684   5.532   3.484   8.387 -0.3086  2.1151 -0.4456
  581MOL0     H76685   5.360   3.460   8.324 -1.7077 -3.7361 -1.7718
  581MOL0     H76686   5.600   3.274   8.306  0.7091  1.2328  1.7233
  581MOL0     H76687   5.454   3.259   8.206  0.7426  0.3965 -0.6786
  581MOL0     H76688   5.440   3.265   8.498  0.7725  1.7926 -0.4654
  581MOL0     H76689   5.311   3.253   8.374  0.4979  2.9267  2.2172
  581MOL0     H76690   5.399   2.845   8.372 -2.6630 -0.9901 -0.9398
  581MOL0     H76691   5.155   3.472   8.099 -0.8414  0.5344  0.4417
  581MOL0     H76692   5.015   3.624   7.960 -0.7803  1.2734 -3.1440
  582MOL0     O76693   3.635   4.128   2.850  0.0669 -0.6122  0.1714
  582MOL0     C76694   3.714   4.220   2.884  0.7078  0.4735  1.0486
  582MOL0     O76695   3.850   4.215   2.905 -0.9779 -0.0645 -0.6644
  582MOL0     C76696   3.914   4.089   2.883  0.0837  0.0050  1.1306
  582MOL0     C76697   3.899   3.984   2.970 -0.5576  0.1441  0.4005
  582MOL0     C76698   3.957   3.861   2.939 -0.3525  0.2656 -0.0186
  582MOL0     C76699   4.041   3.856   2.826 -0.6318 -0.1826  0.3794
  582MOL0     O76700   4.122   3.746   2.797 -0.5500  0.1235 -0.1436
  582MOL0     C76701   4.068   3.616   2.797  0.7154  1.0194  0.3002
  582MOL0     C76702   4.187   3.521   2.773 -0.3085  0.4801  0.3430
  582MOL0     C76703   4.301   3.540   2.868  0.9421 -0.4980  0.9486
  582MOL0     C76704   4.438   3.489   2.826 -0.6578  0.1211 -0.8971
  582MOL0     C76705   4.549   3.501   2.938 -0.3993  0.0691 -0.4461
  582MOL0     C76706   4.576   3.641   2.987 -0.4979  0.1893  0.0010
  582MOL0     C76707   4.702   3.647   3.073  0.3092  0.8308  0.2305
  582MOL0     C76708   4.739   3.795   3.094  0.2780  0.1978  0.3867
  582MOL0     N76709   4.636   3.866   3.161  0.2551 -0.6259  0.0039
  582MOL0     C76710   4.545   3.954   3.103 -0.0151 -0.1450  0.8484
  582MOL0     C76711   4.465   4.005   3.191 -0.6838  0.0429  0.5050
  582MOL0     C76712   4.352   4.098   3.161 -0.5847  0.3398  0.0866
  582MOL0     C76713   4.258   4.138   3.270  0.2395 -0.1158 -0.7202
  582MOL0     C76714   4.141   4.202   3.195  0.7128  0.5360 -1.0274
  582MOL0     C76715   4.048   4.295   3.273 -0.0624 -0.3135 -0.5218
  582MOL0     O76716   3.995   4.404   3.195 -0.1968 -0.1577  0.0281
  582MOL0     C76717   3.906   4.490   3.253  0.2621  0.2174 -0.2243
  582MOL0     C76718   3.830   4.465   3.373 -1.0285  0.2484 -0.2269
  582MOL0     C76719   3.743   4.561   3.423  0.9677  0.3816  1.0007
  582MOL0     C76720   3.727   4.679   3.351  0.6752  0.5505  0.2650
  582MOL0     C76721   3.634   4.792   3.407  0.0985  0.0392  0.2968
  582MOL0     O76722   3.597   4.783   3.540  0.2089 -0.7195  0.0228
  582MOL0     C76723   3.531   4.891   3.601  1.1988 -0.9374  0.8747
  582MOL0     C76724   3.415   4.944   3.546 -0.0465 -0.4304 -0.5139
  582MOL0     C76725   3.342   5.037   3.618  0.2650 -0.3826 -0.1789
  582MOL0     C76726   3.381   5.083   3.746  0.2156 -0.1765  0.6525
  582MOL0     O76727   3.307   5.180   3.812 -0.1748 -0.0173  0.0998
  582MOL0     C76728   3.268   5.172   3.945 -1.1907  0.3171  0.6874
  582MOL0     C76729   3.142   5.084   3.970  0.1975  0.6013 -0.8100
  582MOL0     C76730   3.012   5.163   3.942  0.7536 -0.6264  0.8608
  582MOL0     C76731   2.995   5.198   3.783 -0.0902 -0.3547  0.2595
  582MOL0     C76732   2.863   5.273   3.773  0.3283 -0.0760  0.1051
  582MOL0     C76733   2.843   5.308   3.623  0.3763  0.5227 -0.8052
  582MOL0     C76734   2.727   5.405   3.601 -1.1774 -0.6353  0.7071
  582MOL0     C76735   2.707   5.432   3.445 -1.0572 -0.7519  0.4632
  582MOL0    Cl76736   2.554   5.515   3.435  0.5281 -0.3497  0.5942
  582MOL0     C76737   3.501   5.033   3.793 -0.5883 -1.4201 -0.2402
  582MOL0     C76738   3.565   4.928   3.728 -0.6217  0.1008  0.8967
  582MOL0     O76739   3.610   4.881   3.324  0.1108  0.0696 -0.2682
  582MOL0     C76740   3.800   4.706   3.232  0.5986 -0.2930  0.7142
  582MOL0     C76741   3.893   4.615   3.185  0.8352  0.0310  0.5384
  582MOL0     N76742   4.494   3.947   3.311 -0.2355  0.0420 -0.1357
  582MOL0     N76743   4.596   3.864   3.293  0.2274 -0.1502  0.5080
  582MOL0     C76744   4.054   3.961   2.740 -0.4370 -0.5826 -0.4490
  582MOL0     C76745   3.990   4.087   2.765 -0.2032 -0.0546  0.0128
  582MOL0     C76746   3.653   4.362   2.896 -1.2947  0.1125  0.0411
  582MOL0     C76747   3.742   4.470   2.929  0.9530 -0.5326 -0.5752
  582MOL0     C76748   3.697   4.603   2.907  0.5001  0.1961  0.3472
  582MOL0     C76749   3.564   4.621   2.863  0.9270  1.2945  0.5350
  582MOL0     O76750   3.513   4.739   2.817  0.2064 -0.0169  0.2773
  582MOL0     C76751   3.559   4.761   2.685  0.0873  0.5322 -0.2010
  582MOL0     C76752   3.530   4.902   2.652 -0.2199 -0.8656  0.1652
  582MOL0     C76753   3.548   4.935   2.507  0.1655  0.0529 -0.7610
  582MOL0     C76754   3.526   5.085   2.483 -0.3983  0.4280 -0.6338
  582MOL0     C76755   3.387   5.115   2.505  0.6995  0.3606 -0.1874
  582MOL0     C76756   3.274   5.161   2.516  0.0659 -1.2812 -0.0006
  582MOL0     C76757   3.481   4.505   2.841  0.2274  0.1063 -0.1515
  582MOL0     C76758   3.525   4.380   2.849 -0.8407  0.1367 -0.1728
  582MOL0     H76759   3.852   4.006   3.065 -0.0527  0.9396  0.4740
  582MOL0     H76760   3.958   3.777   3.007  0.9150  0.2085 -0.0877
  582MOL0     H76761   3.993   3.606   2.718  0.9573  2.5009 -0.1559
  582MOL0     H76762   4.029   3.583   2.893  1.5387  0.4893  0.4694
  582MOL0     H76763   4.221   3.547   2.672 -1.6677 -0.8383 -0.4897
  582MOL0     H76764   4.143   3.421   2.767  2.9364 -1.0683 -0.4814
  582MOL0     H76765   4.257   3.492   2.956 -1.3685  0.5388  0.4573
  582MOL0     H76766   4.308   3.649   2.882 -1.4451 -0.0010 -0.9686
  582MOL0     H76767   4.433   3.381   2.810 -1.0556 -0.0198  0.0895
  582MOL0     H76768   4.467   3.530   2.729 -1.8444 -0.7328 -1.6382
  582MOL0     H76769   4.648   3.464   2.911  1.7755  3.3036  2.2861
  582MOL0     H76770   4.513   3.439   3.021  0.0382 -0.0538 -0.3439
  582MOL0     H76771   4.479   3.660   3.034  0.0393  0.6077  0.9901
  582MOL0     H76772   4.595   3.711   2.905  3.4044  1.5369  1.7808
  582MOL0     H76773   4.686   3.590   3.165  0.3002  0.1319 -0.1938
  582MOL0     H76774   4.785   3.602   3.018  0.2890 -0.1045  0.9335
  582MOL0     H76775   4.768   3.846   3.001 -0.6380 -0.8574 -0.5135
  582MOL0     H76776   4.811   3.806   3.176 -2.5016 -1.8093  3.3556
  582MOL0     H76777   4.553   3.979   2.997 -1.8817  2.0431  1.1462
  582MOL0     H76778   4.293   4.043   3.087 -0.0075 -0.9869  0.5877
  582MOL0     H76779   4.397   4.193   3.130  1.6586 -1.1180 -1.3546
  582MOL0     H76780   4.312   4.207   3.336  3.2306 -3.4144  0.6026
  582MOL0     H76781   4.219   4.051   3.323  2.6853 -0.9305 -0.1241
  582MOL0     H76782   4.176   4.264   3.112 -1.0286  1.3580 -1.1868
  582MOL0     H76783   4.089   4.115   3.154  2.7860 -0.8064 -1.0023
  582MOL0     H76784   4.094   4.338   3.362 -0.8254  1.3297 -0.8899
  582MOL0     H76785   3.971   4.234   3.323 -0.4893  0.5828 -0.0628
  582MOL0     H76786   3.838   4.373   3.429  0.3495  1.0271  0.9325
  582MOL0     H76787   3.697   4.554   3.521 -0.8022  2.4080  0.4064
  582MOL0     H76788   3.370   4.896   3.460 -1.3509 -1.1137  0.5017
  582MOL0     H76789   3.249   5.084   3.588  0.9973  1.7589  0.7446
  582MOL0     H76790   3.250   5.274   3.980 -3.1256 -0.5238  2.3593
  582MOL0     H76791   3.347   5.121   4.002 -0.4859  0.6899  0.0558
  582MOL0     H76792   3.138   5.041   4.071 -0.9123 -1.7970 -1.7681
  582MOL0     H76793   3.158   4.989   3.917  0.8825 -1.1723  2.3274
  582MOL0     H76794   3.006   5.257   3.997 -0.0551  0.4745 -1.0081
  582MOL0     H76795   2.923   5.100   3.950  0.8567 -0.8575  0.2619
  582MOL0     H76796   3.072   5.274   3.765 -2.8480  2.7112  0.5511
  582MOL0     H76797   3.007   5.119   3.708  2.4372  1.5320 -1.5344
  582MOL0     H76798   2.861   5.366   3.831  2.6301  0.9105 -1.2634
  582MOL0     H76799   2.783   5.208   3.807 -0.6976  0.4288 -1.2713
  582MOL0     H76800   2.832   5.218   3.561 -0.2096  1.5224 -2.2243
  582MOL0     H76801   2.944   5.339   3.593  1.6675 -1.3069  1.3346
  582MOL0     H76802   2.638   5.366   3.651 -1.5139  1.5639  1.9847
  582MOL0     H76803   2.749   5.498   3.656  2.0415 -2.4654  2.8771
  582MOL0     H76804   2.717   5.335   3.396  0.8318 -0.1773 -0.3951
  582MOL0     H76805   2.794   5.491   3.416 -3.1596  3.5232  2.0122
  582MOL0     H76806   3.556   5.086   3.870 -0.8488  0.5257 -1.3180
  582MOL0     H76807   3.658   4.881   3.758 -0.8593  0.8472  2.9739
  582MOL0     H76808   3.781   4.798   3.177  0.7252 -1.2219 -0.9387
  582MOL0     H76809   3.953   4.649   3.101  1.5668 -0.4512  0.8564
  582MOL0     H76810   4.117   3.951   2.652  0.4411 -1.3441  0.2462
  582MOL0     H76811   3.980   4.169   2.695 -1.6030  0.0804  0.3461
  582MOL0     H76812   3.846   4.462   2.960  1.3004 -1.0274 -1.7847
  582MOL0     H76813   3.761   4.689   2.923  0.1280  0.5318  0.0443
  582MOL0     H76814   3.524   4.686   2.614 -1.8151  0.0476  1.1872
  582MOL0     H76815   3.668   4.770   2.678 -0.0359  0.6334 -4.3932
  582MOL0     H76816   3.427   4.923   2.682  0.4698  2.4712  0.6060
  582MOL0     H76817   3.588   4.962   2.723  1.3975 -2.6041  0.3943
  582MOL0     H76818   3.475   4.884   2.443 -1.5168  0.9616  0.3542
  582MOL0     H76819   3.651   4.916   2.474  2.5025  3.7471  3.3865
  582MOL0     H76820   3.588   5.148   2.547  0.3129  2.3948 -3.1154
  582MOL0     H76821   3.553   5.109   2.380  1.7076 -0.2687 -0.2891
  582MOL0     H76822   3.176   5.198   2.537  0.4242 -1.1293  1.5299
  582MOL0     H76823   3.384   4.506   2.792  2.6934 -1.5007 -5.9033
  582MOL0     H76824   3.457   4.298   2.830 -0.7600  0.4251 -1.8651
  583MOL0     O76825   1.313   5.645   8.125  1.0989  0.0121 -0.5047
  583MOL0     C76826   1.299   5.676   8.003  0.0710  0.3494  0.0988
  583MOL0     O76827   1.258   5.598   7.909  0.4081 -0.8504  0.0675
  583MOL0     C76828   1.215   5.468   7.935  0.7573  0.1164 -1.2348
  583MOL0     C76829   1.274   5.362   7.863 -0.3295 -0.2629 -0.1630
  583MOL0     C76830   1.230   5.226   7.879  0.2968  0.9985  0.2124
  583MOL0     C76831   1.118   5.200   7.967 -0.0880 -0.8707 -0.7522
  583MOL0     O76832   1.083   5.075   7.994 -0.2016  0.0881 -0.1347
  583MOL0     C76833   1.005   5.050   8.114 -0.7059  0.5173  0.1960
  583MOL0     C76834   0.858   5.046   8.096 -0.6588  0.4666 -0.8483
  583MOL0     C76835   0.822   4.939   7.990 -0.1854  0.6886  0.6696
  583MOL0     C76836   0.674   4.936   7.963  0.5687  0.9825  0.0180
  583MOL0     C76837   0.588   4.882   8.083 -1.4760  0.0012  0.1425
  583MOL0     C76838   0.468   4.808   8.040 -0.4474 -0.2184  0.1836
  583MOL0     C76839   0.483   4.656   8.006 -0.1753  0.2214 -0.9051
  583MOL0     C76840   0.359   4.577   8.046 -0.3496  0.1425  0.3538
  583MOL0     N76841   0.377   4.437   8.015  0.7540 -0.4541 -0.0122
  583MOL0     C76842   0.298   4.354   7.931  0.0270 -0.2656 -0.4732
  583MOL0     C76843   0.313   4.226   7.978 -0.9335 -0.2960  0.6258
  583MOL0     C76844   0.247   4.103   7.910 -0.4798  0.1272  0.4744
  583MOL0     C76845   0.312   4.062   7.773  1.0098 -0.5150 -0.7381
  583MOL0     C76846   0.394   3.937   7.780  0.1968  0.6503 -0.3121
  583MOL0     C76847   0.469   3.905   7.658  0.4505  0.1356 -1.6113
  583MOL0     O76848   0.390   3.885   7.543  0.7671  0.1052  0.6087
  583MOL0     C76849   0.437   3.828   7.426  0.1098  0.0823  0.0148
  583MOL0     C76850   0.566   3.802   7.396  1.0002 -0.1348  0.2276
  583MOL0     C76851   0.599   3.746   7.274  0.2358 -0.6038  0.3115
  583MOL0     C76852   0.512   3.733   7.172  0.8171  0.3898 -0.0199
  583MOL0     C76853   0.544   3.665   7.047  0.2426 -0.6979 -0.1477
  583MOL0     O76854   0.634   3.560   7.058  1.1124  0.1063 -0.7264
  583MOL0     C76855   0.675   3.498   6.941 -0.5538 -0.7767 -0.4426
  583MOL0     C76856   0.636   3.370   6.910  0.5268 -0.0765  0.1824
  583MOL0     C76857   0.673   3.310   6.789 -0.3261 -0.2216  0.2040
  583MOL0     C76858   0.757   3.372   6.701  0.8671 -0.0389 -0.1497
  583MOL0     O76859   0.806   3.297   6.594  0.5977 -0.1106 -0.1924
  583MOL0     C76860   0.938   3.320   6.542 -0.2448 -1.3249 -0.6678
  583MOL0     C76861   0.969   3.194   6.462  0.1624 -0.5308  0.5046
  583MOL0     C76862   0.865   3.181   6.348 -0.4211  0.1217 -0.2719
  583MOL0     C76863   0.929   3.094   6.241  0.1552 -1.0211 -0.4593
  583MOL0     C76864   0.881   3.124   6.101 -0.0166 -0.0673  0.0890
  583MOL0     C76865   0.734   3.082   6.063  0.2619 -0.1530 -0.2246
  583MOL0     C76866   0.697   3.127   5.924 -0.9187  0.0870 -0.6264
  583MOL0     C76867   0.560   3.095   5.885  0.7436  0.1034 -0.4946
  583MOL0    Cl76868   0.552   2.928   5.839 -0.0179 -0.1535  0.4131
  583MOL0     C76869   0.801   3.500   6.733  0.7913  0.6180  0.7208
  583MOL0     C76870   0.760   3.564   6.845  0.9332 -0.3101  0.0309
  583MOL0     O76871   0.476   3.701   6.949 -0.6686 -1.0716 -0.1717
  583MOL0     C76872   0.380   3.770   7.192 -0.3910 -1.3811  0.9616
  583MOL0     C76873   0.344   3.825   7.319 -0.1920  0.1812  0.4394
  583MOL0     N76874   0.402   4.225   8.079  0.2084  0.2907 -0.2053
  583MOL0     N76875   0.437   4.352   8.105 -0.0719 -0.2723 -0.6288
  583MOL0     C76876   1.055   5.308   8.033  0.4418 -0.5954 -0.1687
  583MOL0     C76877   1.109   5.441   8.020  0.2483  0.5424 -0.5051
  583MOL0     C76878   1.344   5.806   7.961 -0.7964  0.5088 -0.8691
  583MOL0     C76879   1.312   5.862   7.830 -0.4386  0.0308 -0.0146
  583MOL0     C76880   1.376   5.983   7.794  0.3774  0.6249  0.5207
  583MOL0     C76881   1.437   6.066   7.885  0.2493  0.2143 -0.1813
  583MOL0     O76882   1.500   6.183   7.847 -0.7213 -0.3765  0.9370
  583MOL0     C76883   1.514   6.213   7.707 -0.5237  0.4919  0.0385
  583MOL0     C76884   1.583   6.347   7.708  0.1597  0.5021  0.1232
  583MOL0     C76885   1.731   6.335   7.760 -0.1357 -0.4104  0.2167
  583MOL0     C76886   1.823   6.463   7.742 -0.6325 -0.0895  0.7130
  583MOL0     C76887   1.769   6.577   7.815  0.1800 -0.5041 -0.7009
  583MOL0     C76888   1.715   6.665   7.885  0.8617  0.0116  1.0171
  583MOL0     C76889   1.450   6.014   8.014  0.3154  0.3014 -0.4695
  583MOL0     C76890   1.409   5.886   8.054  0.1394 -0.0225 -0.7426
  583MOL0     H76891   1.363   5.369   7.801 -2.2734 -3.9061 -3.8603
  583MOL0     H76892   1.275   5.141   7.828 -1.1142  1.3787 -1.7811
  583MOL0     H76893   1.024   5.122   8.195 -1.3467 -1.7461  2.4886
  583MOL0     H76894   1.040   4.956   8.156 -0.4579 -0.0012 -1.1261
  583MOL0     H76895   0.819   5.138   8.053 -1.8482  0.1450 -0.4851
  583MOL0     H76896   0.806   5.033   8.191 -3.0794  2.5130 -1.7790
  583MOL0     H76897   0.859   4.844   8.028  0.5718  0.3829 -0.7619
  583MOL0     H76898   0.855   4.969   7.890 -0.0216  1.0784  0.8358
  583MOL0     H76899   0.637   5.035   7.936  0.1970 -0.0123 -3.8620
  583MOL0     H76900   0.652   4.862   7.885 -0.9959 -0.4694  1.7365
  583MOL0     H76901   0.556   4.972   8.137 -0.2642 -0.6571  2.0649
  583MOL0     H76902   0.644   4.825   8.158  1.1213  1.4956 -0.5644
  583MOL0     H76903   0.425   4.866   7.958  0.8642  1.7193  0.8046
  583MOL0     H76904   0.415   4.816   8.135 -1.2231 -2.5314  0.0108
  583MOL0     H76905   0.507   4.654   7.900 -0.3724  0.5340 -0.9575
  583MOL0     H76906   0.579   4.623   8.046 -0.1163  0.5409 -0.7735
  583MOL0     H76907   0.274   4.615   7.988 -0.4398  1.8370  1.5437
  583MOL0     H76908   0.331   4.578   8.151 -3.8119 -0.8258 -0.4201
  583MOL0     H76909   0.232   4.380   7.849  1.6828 -1.0233 -2.0979
  583MOL0     H76910   0.141   4.108   7.885 -0.0861  3.0964 -1.0174
  583MOL0     H76911   0.255   4.024   7.985  0.8487 -0.0646  0.1615
  583MOL0     H76912   0.363   4.155   7.749 -1.7439  1.5424  0.7768
  583MOL0     H76913   0.240   4.047   7.692  1.3698 -2.6413 -0.7344
  583MOL0     H76914   0.458   3.951   7.867 -0.9660  1.0287  0.5110
  583MOL0     H76915   0.330   3.849   7.785  4.0993 -2.4762 -1.0160
  583MOL0     H76916   0.535   3.823   7.687 -0.0804  1.1457  3.2343
  583MOL0     H76917   0.542   3.985   7.638  1.4101 -0.8074 -1.9758
  583MOL0     H76918   0.643   3.794   7.472  1.1627  0.1767  0.0945
  583MOL0     H76919   0.703   3.718   7.263  0.5241  0.5869 -0.0923
  583MOL0     H76920   0.576   3.311   6.979  2.1654 -1.0870  0.8014
  583MOL0     H76921   0.643   3.208   6.768 -0.7205 -0.5609  2.2780
  583MOL0     H76922   1.010   3.352   6.617 -0.0136 -1.7345 -0.7145
  583MOL0     H76923   0.939   3.396   6.462  3.4226 -0.8468 -0.3530
  583MOL0     H76924   0.979   3.108   6.528  4.6542 -0.9583 -0.4384
  583MOL0     H76925   1.069   3.208   6.420 -0.2706  0.3547 -0.2988
  583MOL0     H76926   0.850   3.276   6.296 -0.4557  0.8427  1.0051
  583MOL0     H76927   0.769   3.143   6.386 -0.9562  1.7924  0.1456
  583MOL0     H76928   1.032   3.129   6.238 -0.4380  0.7967 -0.4191
  583MOL0     H76929   0.917   2.990   6.275 -1.0855 -0.6945  0.1612
  583MOL0     H76930   0.951   3.080   6.030 -0.2862  1.1192 -0.9528
  583MOL0     H76931   0.892   3.232   6.086 -2.6889  0.1484 -0.8318
  583MOL0     H76932   0.675   3.121   6.146 -0.3086 -1.3833 -0.0310
  583MOL0     H76933   0.729   2.973   6.069 -1.9795 -0.0454  0.4674
  583MOL0     H76934   0.707   3.235   5.909 -1.4444 -0.1332 -3.0717
  583MOL0     H76935   0.771   3.087   5.853  1.2471  2.0096  0.3901
  583MOL0     H76936   0.537   3.160   5.800 -2.8419 -0.1954  0.0598
  583MOL0     H76937   0.490   3.117   5.967  0.3356 -3.8972  0.4315
  583MOL0     H76938   0.873   3.547   6.667  0.3052  2.4360  1.4316
  583MOL0     H76939   0.797   3.664   6.862 -0.0052  0.4409 -1.9911
  583MOL0     H76940   0.299   3.761   7.120 -0.7963  2.1381  0.7896
  583MOL0     H76941   0.246   3.862   7.347 -0.6089 -1.8112  1.7625
  583MOL0     H76942   0.965   5.302   8.095 -0.2834 -1.8070 -1.2726
  583MOL0     H76943   1.069   5.527   8.073 -2.7235  0.9290 -3.0697
  583MOL0     H76944   1.270   5.790   7.761  0.2879 -1.0192  0.6039
  583MOL0     H76945   1.371   6.007   7.688  3.4164  2.8632  0.7660
  583MOL0     H76946   1.410   6.211   7.671 -0.5222  0.6575  0.0242
  583MOL0     H76947   1.582   6.144   7.656 -0.9292  1.3825 -1.7823
  583MOL0     H76948   1.599   6.385   7.606  0.4750  0.5760  0.1981
  583MOL0     H76949   1.528   6.423   7.763 -2.2759  0.1992 -1.7144
  583MOL0     H76950   1.778   6.252   7.706  1.6210  0.5364  0.2122
  583MOL0     H76951   1.744   6.313   7.866  3.0262  1.6968  0.3812
  583MOL0     H76952   1.928   6.452   7.770  0.1262  1.8263 -1.1234
  583MOL0     H76953   1.831   6.492   7.637 -0.5503 -0.3766  0.6387
  583MOL0     H76954   1.674   6.734   7.956  0.1226  0.6757 -0.0197
  583MOL0     H76955   1.505   6.076   8.084  1.3672 -0.2134 -0.8202
  583MOL0     H76956   1.434   5.838   8.148 -0.4054 -4.0212 -2.4340
  584MOL0     O76957   2.796   1.951   6.989 -0.2011 -0.2292 -0.5154
  584MOL0     C76958   2.759   1.998   7.098  1.0050 -0.3543 -0.0023
  584MOL0     O76959   2.668   1.943   7.179  0.1636  0.0408 -0.2330
  584MOL0     C76960   2.618   1.821   7.154 -0.0414  1.2611  0.3824
  584MOL0     C76961   2.551   1.788   7.032 -0.1233 -0.4938 -1.0799
  584MOL0     C76962   2.479   1.672   7.021  0.8808 -0.3486 -0.1845
  584MOL0     C76963   2.470   1.570   7.120  0.6901  0.1575  0.6640
  584MOL0     O76964   2.395   1.455   7.106  0.0338 -0.1608 -0.4964
  584MOL0     C76965   2.454   1.348   7.029  0.2816 -0.6065  0.8110
  584MOL0     C76966   2.374   1.227   7.066 -0.2215  0.3991  0.0041
  584MOL0     C76967   2.398   1.174   7.211 -0.0119 -0.6294  0.7437
  584MOL0     C76968   2.312   1.055   7.235 -0.6323  0.8705  0.1554
  584MOL0     C76969   2.292   1.013   7.384  0.1033 -0.3783  0.5063
  584MOL0     C76970   2.432   0.990   7.455  0.3724 -1.0044  0.1758
  584MOL0     C76971   2.416   0.881   7.568 -0.3904 -0.3898  0.5458
  584MOL0     C76972   2.550   0.846   7.644 -0.4964 -0.1006 -0.0836
  584MOL0     N76973   2.536   0.735   7.744  0.2981  0.4512  0.4582
  584MOL0     C76974   2.508   0.606   7.705 -0.0422  1.3416 -0.4653
  584MOL0     C76975   2.510   0.549   7.829 -0.4026 -0.4751  0.3589
  584MOL0     C76976   2.498   0.405   7.850  0.3108  0.5658  0.1087
  584MOL0     C76977   2.351   0.362   7.841 -0.2501  1.5608  0.6385
  584MOL0     C76978   2.292   0.385   7.974 -0.0722  0.7237  0.1153
  584MOL0     C76979   2.144   0.337   7.984 -0.8287  0.4598  0.8416
  584MOL0     O76980   2.067   0.428   7.909  0.3260 -0.0843  0.1666
  584MOL0     C76981   1.939   0.400   7.872 -0.3017  1.0496  0.3142
  584MOL0     C76982   1.889   0.448   7.754  0.1007  0.7939  0.3951
  584MOL0     C76983   1.755   0.415   7.718 -0.5821 -0.7289 -0.5161
  584MOL0     C76984   1.677   0.341   7.813 -0.1929 -0.6274  0.7148
  584MOL0     C76985   1.537   0.304   7.772 -0.3472 -0.2235 -0.5740
  584MOL0     O76986   1.478   0.207   7.845 -0.7301  0.3779  0.1082
  584MOL0     C76987   1.354   0.155   7.821 -0.0672 -0.1623 -0.3442
  584MOL0     C76988   1.251   0.209   7.751  0.4350 -0.8778  0.8711
  584MOL0     C76989   1.120   0.148   7.749  0.6259 -0.7183 -0.4990
  584MOL0     C76990   1.099   0.030   7.814  0.4284 -0.3443  0.1198
  584MOL0     O76991   0.973  -0.031   7.828  0.0891 -0.3522 -0.0654
  584MOL0     C76992   0.880   0.064   7.862  0.2181 -0.3025 -0.5372
  584MOL0     C76993   0.746  -0.005   7.836  0.3905 -0.4825  0.8183
  584MOL0     C76994   0.737  -0.072   7.704  1.2279 -0.4836  0.8197
  584MOL0     C76995   0.607  -0.145   7.679  0.4198 -0.2821  0.6925
  584MOL0     C76996   0.570  -0.169   7.529  0.0306  0.9006  1.0350
  584MOL0     C76997   0.425  -0.229   7.512 -1.0494  0.1258 -0.0468
  584MOL0     C76998   0.305  -0.131   7.540 -0.0514 -0.2750  0.5492
  584MOL0     C76999   0.324   0.011   7.492 -0.3186  0.5785  0.7020
  584MOL0    Cl77000   0.170   0.108   7.536  0.0162 -0.2544  0.3247
  584MOL0     C77001   1.201  -0.029   7.885 -0.2584 -0.9050  0.5925
  584MOL0     C77002   1.330   0.039   7.895  0.7380  0.1680  0.6512
  584MOL0     O77003   1.504   0.359   7.668  0.3069  0.5742 -0.0437
  584MOL0     C77004   1.736   0.290   7.927  0.4564  0.7308  1.2460
  584MOL0     C77005   1.859   0.320   7.964  0.3839 -0.5056 -0.3455
  584MOL0     N77006   2.523   0.645   7.933  0.1779  0.2261  0.0285
  584MOL0     N77007   2.537   0.760   7.881 -0.6168  0.3037  0.2816
  584MOL0     C77008   2.550   1.597   7.240  0.3143 -0.9321 -0.1385
  584MOL0     C77009   2.614   1.726   7.257 -0.2876 -0.1111  0.2042
  584MOL0     C77010   2.852   2.096   7.159  0.4436  0.6580 -0.1421
  584MOL0     C77011   2.946   2.172   7.088 -0.1134 -0.3379 -0.3399
  584MOL0     C77012   3.027   2.271   7.148  0.8623 -0.2979  0.1753
  584MOL0     C77013   3.019   2.285   7.285 -0.7391  0.0089  0.1176
  584MOL0     O77014   3.085   2.387   7.349 -0.5290  0.1252 -0.4889
  584MOL0     C77015   3.203   2.457   7.292  0.8086  0.5036  0.2638
  584MOL0     C77016   3.253   2.558   7.386  0.8870  0.0931  0.7076
  584MOL0     C77017   3.149   2.648   7.460 -0.3005 -0.0809  0.7885
  584MOL0     C77018   3.209   2.793   7.462 -0.2114  0.2212  0.3948
  584MOL0     C77019   3.107   2.875   7.525 -0.0238  0.1932  0.4448
  584MOL0     C77020   3.018   2.943   7.571 -0.1158  0.7282  0.2884
  584MOL0     C77021   2.926   2.211   7.357  0.6307  0.3486  0.9230
  584MOL0     C77022   2.841   2.121   7.301  0.0611 -0.2388  0.4612
  584MOL0     H77023   2.542   1.871   6.963 -2.2976 -0.6427 -1.0450
  584MOL0     H77024   2.421   1.672   6.929 -1.1579  0.6355  1.0304
  584MOL0     H77025   2.561   1.330   7.040 -0.1962 -3.7720  0.9684
  584MOL0     H77026   2.447   1.374   6.923  1.2529 -0.5185  0.7606
  584MOL0     H77027   2.390   1.136   7.008  0.7711 -2.1051  3.7985
  584MOL0     H77028   2.269   1.252   7.048 -0.9736 -1.8094  0.8662
  584MOL0     H77029   2.362   1.252   7.280 -1.7973 -3.3424  3.0947
  584MOL0     H77030   2.503   1.159   7.235  0.7509 -0.6812 -2.2489
  584MOL0     H77031   2.220   1.076   7.181 -0.5068  1.8285  0.2838
  584MOL0     H77032   2.365   0.972   7.187  0.7548  1.5048  0.5257
  584MOL0     H77033   2.234   0.920   7.389  1.8740 -1.5323  0.3668
  584MOL0     H77034   2.237   1.096   7.431 -1.8281 -1.0954 -0.3865
  584MOL0     H77035   2.457   1.093   7.480 -1.6773 -0.2875 -0.5552
  584MOL0     H77036   2.499   0.951   7.378 -0.8615  0.0509 -1.4986
  584MOL0     H77037   2.351   0.920   7.647  0.5766  3.1428 -0.2470
  584MOL0     H77038   2.380   0.784   7.533 -0.4776 -0.8256  1.7962
  584MOL0     H77039   2.560   0.931   7.713  1.8763 -2.8730  3.3562
  584MOL0     H77040   2.641   0.851   7.583  0.2944  2.1952  1.1475
  584MOL0     H77041   2.489   0.548   7.616  0.4178 -1.7058  1.2817
  584MOL0     H77042   2.548   0.379   7.944  1.6662  0.0247 -0.7374
  584MOL0     H77043   2.549   0.355   7.767  2.8342  4.1441 -0.7819
  584MOL0     H77044   2.349   0.255   7.820  4.3670  1.4754 -0.3036
  584MOL0     H77045   2.292   0.417   7.767 -0.4406  1.3389  0.6242
  584MOL0     H77046   2.340   0.322   8.050 -2.0358 -0.7991  0.1729
  584MOL0     H77047   2.295   0.493   7.988  0.5600  0.6937  0.2329
  584MOL0     H77048   2.111   0.334   8.088  1.3081  2.5828  1.6835
  584MOL0     H77049   2.139   0.235   7.945  1.9720 -0.0299  1.5171
  584MOL0     H77050   1.957   0.508   7.694  0.0833  0.3077 -0.1244
  584MOL0     H77051   1.718   0.459   7.627 -0.4029 -0.2533 -0.3577
  584MOL0     H77052   1.267   0.303   7.700 -2.1495 -0.6395  0.3251
  584MOL0     H77053   1.048   0.198   7.686  0.5316  1.7663  1.4246
  584MOL0     H77054   0.879   0.151   7.796 -0.9760  0.5244  0.5221
  584MOL0     H77055   0.874   0.097   7.967 -2.4142  0.2566 -0.7946
  584MOL0     H77056   0.667   0.071   7.845  0.0619 -0.6452 -0.5009
  584MOL0     H77057   0.740  -0.080   7.916  0.5751 -1.7577 -0.3222
  584MOL0     H77058   0.812  -0.151   7.698  1.1217 -0.6252  1.3600
  584MOL0     H77059   0.758   0.001   7.625  0.3805 -2.2538 -1.1452
  584MOL0     H77060   0.602  -0.242   7.729 -0.3688 -2.1401 -2.7184
  584MOL0     H77061   0.531  -0.079   7.723 -0.4531 -1.6957  1.3595
  584MOL0     H77062   0.651  -0.228   7.484 -1.0658  1.3995 -1.7998
  584MOL0     H77063   0.569  -0.074   7.475 -5.0189 -0.4543 -2.0320
  584MOL0     H77064   0.417  -0.314   7.580 -1.1728 -0.5385 -0.8725
  584MOL0     H77065   0.414  -0.257   7.407 -0.2394  0.3650 -0.2061
  584MOL0     H77066   0.209  -0.180   7.524  0.6014 -1.7103  0.9188
  584MOL0     H77067   0.302  -0.122   7.649 -3.4110 -1.5591  0.6727
  584MOL0     H77068   0.337   0.023   7.384  0.0821  0.7124  0.7644
  584MOL0     H77069   0.414   0.039   7.548  2.4889 -2.0756 -2.0237
  584MOL0     H77070   1.172  -0.119   7.939 -1.6049  0.2127  1.7978
  584MOL0     H77071   1.404  -0.001   7.964  0.9372 -1.0882 -0.2513
  584MOL0     H77072   1.679   0.226   7.993  1.4240  0.3954  1.7721
  584MOL0     H77073   1.880   0.267   8.057 -1.7027 -0.7987  0.0125
  584MOL0     H77074   2.552   1.519   7.315 -0.1123 -0.7423  0.0753
  584MOL0     H77075   2.651   1.755   7.354  1.2276 -0.1670 -0.3309
  584MOL0     H77076   2.942   2.169   6.980 -1.8236 -1.8133 -0.2897
  584MOL0     H77077   3.076   2.345   7.086 -0.0666  0.0327 -0.1776
  584MOL0     H77078   3.177   2.502   7.196 -1.4901  0.1221  0.6387
  584MOL0     H77079   3.280   2.383   7.267  1.3780  0.0598  2.9940
  584MOL0     H77080   3.331   2.521   7.452  0.3424  1.5293  2.2457
  584MOL0     H77081   3.301   2.630   7.320 -0.7836  0.3760 -0.2712
  584MOL0     H77082   3.141   2.614   7.564  0.7920  0.1610  0.9603
  584MOL0     H77083   3.052   2.641   7.411 -0.7770  4.2369  0.7111
  584MOL0     H77084   3.303   2.798   7.518 -1.2264 -1.0299  2.3455
  584MOL0     H77085   3.236   2.834   7.364 -0.2691 -4.4493 -1.8504
  584MOL0     H77086   2.950   3.002   7.630 -1.1195 -0.2350  0.1274
  584MOL0     H77087   2.915   2.242   7.461 -1.0448  2.0488  0.3107
  584MOL0     H77088   2.766   2.072   7.363 -0.2397  0.2867  0.5242
  585MOL0     O77089   7.718  11.094   5.083 -0.2072 -0.2730 -0.3630
  585MOL0     C77090   7.814  11.065   5.157  0.7198  1.0566  0.4225
  585MOL0     O77091   7.897  10.963   5.140  0.8347 -0.6148 -0.5068
  585MOL0     C77092   7.896  10.886   5.027 -0.1498  0.2298 -0.1995
  585MOL0     C77093   8.006  10.886   4.947 -0.5725 -0.2006  0.7074
  585MOL0     C77094   8.018  10.810   4.833 -1.0343  0.0431  0.4432
  585MOL0     C77095   7.924  10.706   4.816 -0.0795 -0.4888 -0.1433
  585MOL0     O77096   7.943  10.627   4.711 -0.7387 -0.3957 -0.0911
  585MOL0     C77097   7.846  10.657   4.606 -0.0377  0.0784  0.1146
  585MOL0     C77098   7.868  10.545   4.506 -0.8264  0.4811  1.4420
  585MOL0     C77099   7.814  10.582   4.373  0.1398 -0.1705  0.4453
  585MOL0     C77100   7.803  10.461   4.280  0.2367  0.1590  0.8491
  585MOL0     C77101   7.745  10.519   4.151  0.9279  0.5438  0.4171
  585MOL0     C77102   7.760  10.403   4.045  0.5968  1.0602 -0.9739
  585MOL0     C77103   7.741  10.456   3.904  0.4634  0.5073  0.1177
  585MOL0     C77104   7.726  10.341   3.804  0.3657  0.2090 -0.1466
  585MOL0     N77105   7.714  10.395   3.663 -0.8323  0.5908 -0.1696
  585MOL0     C77106   7.596  10.410   3.600 -0.9529 -0.2698 -0.0973
  585MOL0     C77107   7.634  10.490   3.496 -0.3515 -0.0030 -0.2829
  585MOL0     C77108   7.537  10.536   3.385  0.6732  0.8329 -0.3111
  585MOL0     C77109   7.494  10.408   3.301 -0.7323 -0.3579 -0.6693
  585MOL0     C77110   7.403  10.439   3.184 -0.8119 -0.5688 -0.2315
  585MOL0     C77111   7.273  10.360   3.198 -0.9479  0.0261 -0.3895
  585MOL0     O77112   7.313  10.231   3.152 -0.8185 -0.0927  0.8132
  585MOL0     C77113   7.211  10.138   3.126 -0.0178 -0.0894 -0.4178
  585MOL0     C77114   7.256  10.035   3.050  0.2271  0.3232  0.7277
  585MOL0     C77115   7.166   9.931   3.012 -0.1438 -0.3029 -0.2720
  585MOL0     C77116   7.027   9.940   3.036 -0.2416  0.1907 -0.2104
  585MOL0     C77117   6.923   9.848   2.970 -1.3107 -0.8702 -0.8291
  585MOL0     O77118   6.963   9.723   2.945 -0.2522 -0.1209  0.4928
  585MOL0     C77119   6.872   9.638   2.900 -0.0900 -0.6363 -0.6438
  585MOL0     C77120   6.832   9.527   2.978  0.4781  0.8983  0.3471
  585MOL0     C77121   6.746   9.431   2.932 -0.5818 -0.2745 -0.0725
  585MOL0     C77122   6.705   9.435   2.795  0.5381 -0.1382 -0.2095
  585MOL0     O77123   6.603   9.344   2.748  0.1254 -0.5721 -0.3978
  585MOL0     C77124   6.615   9.214   2.810  0.4838 -0.5742  0.1639
  585MOL0     C77125   6.533   9.111   2.733  0.3166  0.1190  1.8261
  585MOL0     C77126   6.569   8.963   2.778 -0.4419  0.2175  0.2692
  585MOL0     C77127   6.486   8.917   2.898  0.0481 -0.0206 -1.2280
  585MOL0     C77128   6.348   8.868   2.867 -0.3197 -0.0858  0.2337
  585MOL0     C77129   6.339   8.740   2.787 -0.0487  0.1233 -0.1270
  585MOL0     C77130   6.207   8.719   2.722 -0.1106  0.0233 -0.8319
  585MOL0     C77131   6.157   8.809   2.611 -0.3635  1.1576  1.0037
  585MOL0    Cl77132   6.076   8.951   2.652 -0.5765  0.2258  0.0315
  585MOL0     C77133   6.732   9.546   2.720 -0.7705 -0.7827  0.3972
  585MOL0     C77134   6.821   9.646   2.764  0.1714 -0.4184 -0.3631
  585MOL0     O77135   6.805   9.889   2.963 -0.4090 -0.0004  0.1907
  585MOL0     C77136   6.984  10.055   3.108  1.0902 -0.4391  1.0482
  585MOL0     C77137   7.079  10.148   3.153 -0.0512 -0.4663  0.0302
  585MOL0     N77138   7.768  10.498   3.486 -0.1195 -0.2166 -0.8492
  585MOL0     N77139   7.820  10.449   3.593 -0.3891  0.5833  1.0316
  585MOL0     C77140   7.820  10.687   4.903  0.1259  0.5434 -0.3485
  585MOL0     C77141   7.809  10.778   5.011 -0.1849 -0.1991  0.7458
  585MOL0     C77142   7.825  11.151   5.277  0.1251  0.0299  0.1580
  585MOL0     C77143   7.937  11.132   5.357  0.7964  0.1657 -0.3801
  585MOL0     C77144   7.951  11.208   5.467 -0.0379 -1.2166 -0.4795
  585MOL0     C77145   7.856  11.298   5.512 -0.0485 -0.2522  0.6609
  585MOL0     O77146   7.872  11.391   5.613  0.8479  0.3652 -0.2927
  585MOL0     C77147   7.953  11.346   5.732  0.6703 -0.1548  0.4508
  585MOL0     C77148   7.925  11.440   5.852  0.5710 -0.2951 -0.1312
  585MOL0     C77149   7.773  11.460   5.878  0.4984 -0.2188 -0.5442
  585MOL0     C77150   7.693  11.355   5.968 -0.1763 -0.6541 -0.5059
  585MOL0     C77151   7.564  11.401   6.009  0.4838 -0.3282 -0.0360
  585MOL0     C77152   7.471  11.473   6.045  0.9060  0.4917 -0.0023
  585MOL0     C77153   7.738  11.315   5.434 -0.3792  0.1386  0.2099
  585MOL0     C77154   7.728  11.246   5.312  0.5386  0.2746  0.0554
  585MOL0     H77155   8.089  10.947   4.982 -1.8757  2.1380 -0.0488
  585MOL0     H77156   8.102  10.825   4.766 -1.3964  3.0311  0.5172
  585MOL0     H77157   7.864  10.757   4.565  1.2296 -0.7488 -1.4177
  585MOL0     H77158   7.748  10.637   4.651  1.0457  1.9344  3.6820
  585MOL0     H77159   7.832  10.449   4.544  0.1292  0.5093  2.4769
  585MOL0     H77160   7.973  10.518   4.492 -0.8817 -1.4537  4.1116
  585MOL0     H77161   7.881  10.652   4.322 -1.2342 -1.6510 -3.7928
  585MOL0     H77162   7.718  10.633   4.390 -1.2160 -1.9651 -1.3709
  585MOL0     H77163   7.904  10.421   4.266  1.2888  1.6364  3.5201
  585MOL0     H77164   7.747  10.378   4.325  0.3787 -0.3748  0.0691
  585MOL0     H77165   7.786  10.618   4.129  0.2079  0.5343 -1.1152
  585MOL0     H77166   7.641  10.544   4.173  1.3443  1.4181  1.4331
  585MOL0     H77167   7.685  10.324   4.051  0.2006  1.4401 -0.8747
  585MOL0     H77168   7.861  10.363   4.057  0.6547  1.5644  0.3494
  585MOL0     H77169   7.652  10.520   3.898 -0.2909 -0.3569  1.5769
  585MOL0     H77170   7.811  10.537   3.885 -0.2572  1.0918 -0.1030
  585MOL0     H77171   7.635  10.289   3.834  0.3329  0.6785  0.5914
  585MOL0     H77172   7.815  10.277   3.804 -1.7909 -3.0176 -0.8012
  585MOL0     H77173   7.495  10.389   3.632 -1.0327  0.2099 -0.0239
  585MOL0     H77174   7.590  10.607   3.321 -1.7819  1.7312 -1.4496
  585MOL0     H77175   7.446  10.590   3.409  0.8131 -0.1757  3.0026
  585MOL0     H77176   7.444  10.335   3.366  0.3676 -2.3705 -1.9807
  585MOL0     H77177   7.581  10.353   3.264 -0.5885 -1.9045  1.7270
  585MOL0     H77178   7.376  10.545   3.181 -1.7463 -0.8215 -1.9361
  585MOL0     H77179   7.449  10.409   3.089 -0.5833 -0.6070 -0.1114
  585MOL0     H77180   7.188  10.401   3.143 -0.7310  3.3683  1.4824
  585MOL0     H77181   7.246  10.340   3.302 -1.2157 -2.2233 -0.8502
  585MOL0     H77182   7.361  10.012   3.033  0.1165 -0.9669  1.6183
  585MOL0     H77183   7.213   9.841   2.976  3.8426  1.8591 -1.0701
  585MOL0     H77184   6.854   9.529   3.084 -2.2953 -0.7481  1.0532
  585MOL0     H77185   6.698   9.372   3.009 -1.1312 -1.9800 -1.6355
  585MOL0     H77186   6.581   9.217   2.914  0.4410 -4.1745  0.3921
  585MOL0     H77187   6.718   9.178   2.800 -0.0138 -1.4104 -4.5434
  585MOL0     H77188   6.561   9.114   2.627  1.9468 -1.6150  2.1398
  585MOL0     H77189   6.425   9.121   2.748  0.4851  5.4190  1.1944
  585MOL0     H77190   6.677   8.955   2.793 -0.6733 -0.9805  1.5169
  585MOL0     H77191   6.550   8.891   2.697 -2.8160  1.1514 -0.0883
  585MOL0     H77192   6.535   8.842   2.961 -1.7598  1.4902  2.2386
  585MOL0     H77193   6.487   9.004   2.965  1.0253 -1.5144  0.8140
  585MOL0     H77194   6.298   8.948   2.813  0.9968 -0.4611 -1.6056
  585MOL0     H77195   6.291   8.856   2.960 -0.2625  0.5984  0.3582
  585MOL0     H77196   6.360   8.651   2.846 -1.4699 -0.8640 -1.0422
  585MOL0     H77197   6.404   8.752   2.699 -0.8178 -0.2199 -0.7548
  585MOL0     H77198   6.202   8.617   2.683 -0.9057 -0.2977  0.0754
  585MOL0     H77199   6.132   8.730   2.800  0.6686  0.6969 -0.1579
  585MOL0     H77200   6.082   8.752   2.556  0.7511  0.9275 -0.3527
  585MOL0     H77201   6.236   8.823   2.536 -0.4168 -4.1859 -0.4199
  585MOL0     H77202   6.695   9.552   2.618  2.2174  1.1535 -0.7275
  585MOL0     H77203   6.869   9.719   2.700  0.2628  2.3467  2.6058
  585MOL0     H77204   6.879  10.075   3.125  0.7330  0.0235 -1.3639
  585MOL0     H77205   7.040  10.229   3.214  0.7162 -0.5929  0.6889
  585MOL0     H77206   7.754  10.601   4.904  2.0926 -1.0935 -2.5671
  585MOL0     H77207   7.724  10.757   5.075 -0.7930 -0.1108 -0.0102
  585MOL0     H77208   8.014  11.067   5.317  1.0312  1.4867 -2.2572
  585MOL0     H77209   8.045  11.201   5.520 -0.4060  0.1079  0.4162
  585MOL0     H77210   8.055  11.341   5.694 -0.4574  2.1167 -3.3969
  585MOL0     H77211   7.934  11.240   5.751  3.4543 -1.2036 -1.8763
  585MOL0     H77212   7.976  11.410   5.944  2.0388  3.4535  0.4766
  585MOL0     H77213   7.955  11.544   5.835  1.1527  0.6391  4.9766
  585MOL0     H77214   7.709  11.460   5.790 -3.9546 -0.2504  2.3548
  585MOL0     H77215   7.768  11.558   5.926 -0.6103  1.1106 -3.2193
  585MOL0     H77216   7.677  11.260   5.917 -0.7494  0.8489 -3.2930
  585MOL0     H77217   7.761  11.336   6.053  1.7932  0.1487 -1.8256
  585MOL0     H77218   7.377  11.523   6.051 -0.1545 -1.4340  0.4992
  585MOL0     H77219   7.674  11.400   5.452  0.0042  0.1609  1.5518
  585MOL0     H77220   7.633  11.276   5.268 -1.2633 -5.0758 -0.4420
  586MOL0     O77221   5.274   2.365   5.412 -0.0732  0.1488  0.0320
  586MOL0     C77222   5.280   2.256   5.361 -0.2862 -0.0258  0.4425
  586MOL0     O77223   5.168   2.173   5.352 -0.7875 -0.1033 -0.1191
  586MOL0     C77224   5.047   2.202   5.403  0.7602 -1.1286  0.1024
  586MOL0     C77225   4.961   2.303   5.347 -0.5323  0.0745  0.2380
  586MOL0     C77226   4.839   2.333   5.407  0.5999  0.0830  0.6170
  586MOL0     C77227   4.789   2.272   5.525 -0.4150 -0.4874 -0.3825
  586MOL0     O77228   4.663   2.300   5.572 -0.2493  0.8182 -0.0200
  586MOL0     C77229   4.658   2.300   5.718 -0.5088 -0.0794  0.1265
  586MOL0     C77230   4.573   2.416   5.757 -0.6459  0.0482 -0.3226
  586MOL0     C77231   4.441   2.429   5.705  0.8231 -0.3319 -0.4684
  586MOL0     C77232   4.335   2.325   5.764 -0.0876  0.3192  0.1884
  586MOL0     C77233   4.295   2.359   5.916  0.3975  0.2861 -1.1816
  586MOL0     C77234   4.209   2.243   5.967  0.0555 -0.2997  0.1810
  586MOL0     C77235   4.172   2.252   6.124  1.0134  1.1605  0.0139
  586MOL0     C77236   4.058   2.152   6.153 -0.7670 -0.3568 -0.3949
  586MOL0     N77237   4.068   2.118   6.294 -0.7625  0.0710  0.4534
  586MOL0     C77238   4.041   2.204   6.396  0.7476  0.9242  0.6965
  586MOL0     C77239   4.079   2.148   6.514 -0.1422 -1.4912 -0.4558
  586MOL0     C77240   4.040   2.214   6.648 -0.1148  0.0388  0.8379
  586MOL0     C77241   4.148   2.312   6.698 -0.7254 -0.8059 -0.0492
  586MOL0     C77242   4.097   2.407   6.822  0.1420  1.4334  0.4616
  586MOL0     C77243   4.203   2.494   6.884 -0.8795  0.2241 -0.6843
  586MOL0     O77244   4.152   2.570   6.994  0.0045  0.1332  0.3603
  586MOL0     C77245   4.224   2.673   7.053  0.6244 -0.0477 -0.0544
  586MOL0     C77246   4.332   2.745   6.995 -0.0949  0.0479  0.3700
  586MOL0     C77247   4.395   2.841   7.077  0.3332 -0.1652  0.3729
  586MOL0     C77248   4.369   2.851   7.215  0.5351  0.0225  0.1681
  586MOL0     C77249   4.446   2.945   7.302  0.2938  0.3613  0.1873
  586MOL0     O77250   4.534   3.037   7.247 -0.3998 -0.3373 -0.4117
  586MOL0     C77251   4.597   3.142   7.313 -0.4756 -0.5726 -0.0792
  586MOL0     C77252   4.672   3.231   7.232 -0.1050  0.2930 -0.0129
  586MOL0     C77253   4.740   3.344   7.284 -0.0182  0.1296  0.0637
  586MOL0     C77254   4.731   3.364   7.417 -0.7596 -0.6723  0.2870
  586MOL0     O77255   4.799   3.476   7.463 -0.0237  0.1179  0.1348
  586MOL0     C77256   4.870   3.468   7.586  0.3791 -0.6658 -0.1654
  586MOL0     C77257   4.974   3.353   7.603  0.6401  0.0072  0.2005
  586MOL0     C77258   5.064   3.359   7.727 -0.9928 -0.0220 -0.1233
  586MOL0     C77259   5.162   3.237   7.707  0.2313  0.5530  0.1934
  586MOL0     C77260   5.267   3.216   7.821 -0.5210 -0.1848  0.3967
  586MOL0     C77261   5.400   3.154   7.769  0.1594 -0.9231  0.2725
  586MOL0     C77262   5.510   3.130   7.878 -0.3328  0.9212  0.1843
  586MOL0     C77263   5.472   3.032   7.990 -0.6821  0.3488 -0.9434
  586MOL0    Cl77264   5.528   2.874   7.938  0.1476  0.5387 -0.4145
  586MOL0     C77265   4.654   3.284   7.507  0.2338  0.3938  0.4536
  586MOL0     C77266   4.581   3.176   7.451  0.1198  0.6075 -0.6452
  586MOL0     O77267   4.414   2.940   7.419  0.0536  0.7109 -0.1772
  586MOL0     C77268   4.269   2.763   7.269  0.4193 -0.4781 -0.5783
  586MOL0     C77269   4.197   2.680   7.192  0.7560 -0.9136  0.6869
  586MOL0     N77270   4.120   2.018   6.481  0.9660 -0.1912 -0.2558
  586MOL0     N77271   4.121   2.001   6.350  0.9136  0.5430  0.4626
  586MOL0     C77272   4.874   2.166   5.571  0.3490 -0.1636 -0.5927
  586MOL0     C77273   4.991   2.131   5.508  1.3479  0.4262 -0.3104
  586MOL0     C77274   5.402   2.208   5.288 -0.5222  1.1194 -1.4308
  586MOL0     C77275   5.523   2.287   5.289  0.4923  0.0952  0.1380
  586MOL0     C77276   5.638   2.239   5.220 -0.5974  0.7242  0.0641
  586MOL0     C77277   5.634   2.108   5.152 -0.1888 -0.7843 -0.0890
  586MOL0     O77278   5.745   2.058   5.078  0.5799 -0.3337 -0.5790
  586MOL0     C77279   5.877   2.120   5.085 -0.3275 -0.5202  0.4985
  586MOL0     C77280   5.956   2.067   4.970  0.0043 -0.5391 -0.8095
  586MOL0     C77281   5.988   1.922   4.995  0.1557 -0.5445  0.0770
  586MOL0     C77282   6.035   1.851   4.872 -0.9150 -0.4373  0.7803
  586MOL0     C77283   6.076   1.720   4.909 -0.2457  0.9149 -1.0989
  586MOL0     C77284   6.099   1.601   4.923 -0.4470 -0.0769 -0.4105
  586MOL0     C77285   5.519   2.035   5.149 -0.0082 -0.0884  0.1697
  586MOL0     C77286   5.398   2.087   5.219 -0.5511  0.1511 -0.1674
  586MOL0     H77287   5.007   2.354   5.263  2.7993 -2.8666  0.0269
  586MOL0     H77288   4.778   2.417   5.376  0.6591  0.0425  0.3963
  586MOL0     H77289   4.752   2.332   5.765  0.6231  3.2025 -3.7611
  586MOL0     H77290   4.619   2.204   5.752  0.6372 -2.2796 -4.0268
  586MOL0     H77291   4.620   2.503   5.711 -0.0196 -1.2904 -2.3507
  586MOL0     H77292   4.568   2.420   5.866 -0.5275 -1.8565 -0.2037
  586MOL0     H77293   4.450   2.423   5.596 -1.4415  0.5036 -0.7421
  586MOL0     H77294   4.413   2.534   5.721  1.7417  0.1232 -1.6198
  586MOL0     H77295   4.245   2.308   5.705 -1.1015 -3.2895  2.4577
  586MOL0     H77296   4.379   2.225   5.762 -0.4609  0.1528  0.2099
  586MOL0     H77297   4.251   2.458   5.935  0.2856  0.0853 -0.3481
  586MOL0     H77298   4.386   2.363   5.977  1.3420  0.9115 -2.5921
  586MOL0     H77299   4.248   2.146   5.937 -0.1378  0.5605 -3.2329
  586MOL0     H77300   4.120   2.255   5.904  0.4528  1.0819 -0.1660
  586MOL0     H77301   4.264   2.231   6.179  1.1721  0.9944 -0.3113
  586MOL0     H77302   4.132   2.352   6.143 -1.9304 -0.2264  1.7665
  586MOL0     H77303   4.067   2.065   6.087 -0.5190 -1.0197  0.4734
  586MOL0     H77304   3.960   2.188   6.121 -0.7391  0.1234  0.0546
  586MOL0     H77305   3.994   2.301   6.382  1.3023  0.8999 -1.9945
  586MOL0     H77306   4.029   2.142   6.729 -1.9324  0.3177  0.8766
  586MOL0     H77307   3.943   2.263   6.635  0.0206 -0.2208 -1.7365
  586MOL0     H77308   4.168   2.378   6.613  1.8769 -0.6138  0.6373
  586MOL0     H77309   4.242   2.261   6.721 -0.5831 -0.3592  0.3893
  586MOL0     H77310   4.024   2.479   6.783 -1.0241 -0.7390 -1.6609
  586MOL0     H77311   4.063   2.337   6.899  1.9699 -2.6651 -2.0606
  586MOL0     H77312   4.247   2.563   6.810 -0.6520  0.0608 -0.7013
  586MOL0     H77313   4.282   2.434   6.930 -0.4990  2.2885  1.5376
  586MOL0     H77314   4.360   2.732   6.891 -1.0258  3.1829 -0.3789
  586MOL0     H77315   4.477   2.898   7.033  0.4972  0.5513  1.5730
  586MOL0     H77316   4.671   3.217   7.124 -3.5726 -1.6145  0.1017
  586MOL0     H77317   4.797   3.411   7.220 -1.7098  2.0215  0.4580
  586MOL0     H77318   4.799   3.473   7.668 -1.7353 -3.1004 -1.7104
  586MOL0     H77319   4.922   3.565   7.583 -0.8815  0.0215 -2.2929
  586MOL0     H77320   5.043   3.357   7.518 -0.5493  0.1704 -0.7945
  586MOL0     H77321   4.922   3.257   7.612  0.4733  0.1406  0.7017
  586MOL0     H77322   5.005   3.331   7.814 -2.8523 -1.0684 -1.6528
  586MOL0     H77323   5.126   3.450   7.728 -0.3181 -0.4659 -0.6307
  586MOL0     H77324   5.107   3.143   7.698  1.3795 -0.1991  0.6788
  586MOL0     H77325   5.213   3.254   7.611 -0.0680 -1.5703 -0.4012
  586MOL0     H77326   5.218   3.155   7.898  0.6079  1.1392  2.2654
  586MOL0     H77327   5.285   3.316   7.864  0.1321  0.7596 -1.9244
  586MOL0     H77328   5.452   3.220   7.700  1.1822 -3.8089 -1.9516
  586MOL0     H77329   5.376   3.060   7.719  1.2705  1.0425 -4.4201
  586MOL0     H77330   5.598   3.088   7.828 -1.6334 -1.6989 -0.0878
  586MOL0     H77331   5.532   3.227   7.923 -1.2837  0.2472  2.2323
  586MOL0     H77332   5.366   3.040   8.014 -0.2044  3.8284  0.6880
  586MOL0     H77333   5.511   3.060   8.088 -2.2724 -0.9498  0.1196
  586MOL0     H77334   4.664   3.314   7.611 -0.4614  0.7832  0.4137
  586MOL0     H77335   4.516   3.122   7.519 -0.0917  0.8689 -0.6389
  586MOL0     H77336   4.236   2.754   7.372 -0.1993 -1.8632 -0.8738
  586MOL0     H77337   4.125   2.607   7.226  0.6182 -1.0735  0.0593
  586MOL0     H77338   4.847   2.101   5.653 -1.1927  1.2599  0.0970
  586MOL0     H77339   5.059   2.058   5.550 -0.7120 -0.9620  0.8001
  586MOL0     H77340   5.515   2.380   5.345 -0.1971 -1.7157  3.3251
  586MOL0     H77341   5.732   2.292   5.231 -0.3576  0.3358 -0.0907
  586MOL0     H77342   5.923   2.120   5.184 -2.1123  2.4768  1.4526
  586MOL0     H77343   5.856   2.225   5.064 -0.2611 -0.1420  2.1662
  586MOL0     H77344   5.903   2.085   4.876 -0.9074  0.5165 -0.1116
  586MOL0     H77345   6.048   2.124   4.955 -1.4464  1.5576 -2.2733
  586MOL0     H77346   5.905   1.860   5.030 -0.1164 -1.3947 -1.9186
  586MOL0     H77347   6.068   1.917   5.070  0.4803 -0.4784 -0.2618
  586MOL0     H77348   5.953   1.830   4.803 -1.2650 -1.9664  1.6093
  586MOL0     H77349   6.110   1.907   4.815 -1.4825  0.0269  0.4839
  586MOL0     H77350   6.101   1.494   4.932 -0.3039 -0.2308 -2.0476
  586MOL0     H77351   5.525   1.943   5.093  0.3537 -1.3517  2.1866
  586MOL0     H77352   5.305   2.032   5.208 -0.4407 -0.3912  1.3955
  587MOL0     O77353   0.263   3.492   8.082  0.4716 -0.1886 -0.0445
  587MOL0     C77354   0.203   3.559   8.001  0.4829 -0.9977  0.8561
  587MOL0     O77355   0.232   3.581   7.871 -0.3700  0.6475 -0.8126
  587MOL0     C77356   0.321   3.512   7.795  0.7511 -0.7306  0.0493
  587MOL0     C77357   0.386   3.391   7.827 -0.2159 -0.1199 -0.2660
  587MOL0     C77358   0.493   3.339   7.753 -0.3658  0.2105  1.2340
  587MOL0     C77359   0.533   3.401   7.633  0.3428  0.9635 -0.9568
  587MOL0     O77360   0.617   3.334   7.547  0.4565  0.2257  0.4773
  587MOL0     C77361   0.758   3.357   7.564 -0.5552 -0.5459 -0.2157
  587MOL0     C77362   0.795   3.455   7.462  1.4872 -0.7586 -0.2432
  587MOL0     C77363   0.793   3.394   7.315 -0.4933 -1.0718  0.1862
  587MOL0     C77364   0.904   3.296   7.291 -0.8039  0.5700 -0.2379
  587MOL0     C77365   0.948   3.273   7.145 -0.0059 -0.0313 -0.0398
  587MOL0     C77366   1.085   3.196   7.136  0.5681 -0.3479 -0.2623
  587MOL0     C77367   1.152   3.186   7.002 -0.5940 -0.3972  0.1714
  587MOL0     C77368   1.071   3.112   6.899  0.5296  0.3015 -0.6350
  587MOL0     N77369   1.167   3.060   6.801 -0.3235  0.4973 -0.4566
  587MOL0     C77370   1.205   2.931   6.791 -0.5369 -0.6773  0.3279
  587MOL0     C77371   1.290   2.931   6.686 -0.0134  0.7288 -0.5906
  587MOL0     C77372   1.379   2.808   6.641  0.5617  0.1863  0.0836
  587MOL0     C77373   1.422   2.721   6.765  0.0383  0.9413 -0.3574
  587MOL0     C77374   1.556   2.769   6.825 -0.3473  0.2182 -0.3994
  587MOL0     C77375   1.551   2.897   6.904 -0.3087  0.3835  0.2003
  587MOL0     O77376   1.466   2.886   7.021  0.0693 -0.1883 -0.4866
  587MOL0     C77377   1.489   2.969   7.128 -1.1461  0.3522 -0.2524
  587MOL0     C77378   1.535   3.103   7.118  0.0943 -0.6070  0.5401
  587MOL0     C77379   1.546   3.192   7.222 -0.9557  0.4662  0.4904
  587MOL0     C77380   1.506   3.144   7.352 -0.2009 -0.1460  0.3542
  587MOL0     C77381   1.532   3.216   7.480  0.0309 -0.0435  0.2960
  587MOL0     O77382   1.559   3.133   7.582  0.0138 -0.7082  0.1665
  587MOL0     C77383   1.591   3.182   7.708  1.2296 -0.7766  0.2522
  587MOL0     C77384   1.523   3.304   7.760 -1.1006  0.2168 -0.3203
  587MOL0     C77385   1.545   3.331   7.900 -0.0745  0.2447  0.9393
  587MOL0     C77386   1.620   3.253   7.983  0.6499  0.6896  0.3324
  587MOL0     O77387   1.634   3.299   8.109 -0.0986  0.1535 -0.6028
  587MOL0     C77388   1.685   3.210   8.209  0.3620  0.4491  0.5745
  587MOL0     C77389   1.666   3.282   8.341 -0.7082 -0.5542  0.1583
  587MOL0     C77390   1.750   3.213   8.454 -0.6353  0.0274  0.9198
  587MOL0     C77391   1.684   3.077   8.486 -1.0115 -0.6767 -0.4384
  587MOL0     C77392   1.783   3.004   8.587  0.2103  0.2645  0.3396
  587MOL0     C77393   1.891   2.928   8.516  0.0215  0.7941 -0.0626
  587MOL0     C77394   1.983   2.848   8.611 -0.8272  0.6957 -0.0342
  587MOL0     C77395   2.087   2.770   8.527  0.9068 -1.6899 -1.2225
  587MOL0    Cl77396   2.036   2.623   8.442 -0.1767 -0.3149 -0.1692
  587MOL0     C77397   1.689   3.143   7.927  0.3327  0.7502 -0.4585
  587MOL0     C77398   1.677   3.115   7.795 -0.2124 -0.0099  0.7933
  587MOL0     O77399   1.558   3.332   7.473  0.2318 -0.4909  0.5134
  587MOL0     C77400   1.451   3.014   7.356 -0.4133 -0.4302 -0.0982
  587MOL0     C77401   1.439   2.934   7.248 -0.0880  1.3799 -0.0133
  587MOL0     N77402   1.295   3.050   6.622  0.2090  0.3626  0.3536
  587MOL0     N77403   1.229   3.124   6.708 -1.2705 -0.7038 -0.0126
  587MOL0     C77404   0.472   3.523   7.590 -0.0222  0.5243  0.6021
  587MOL0     C77405   0.371   3.580   7.671  0.1638 -0.6379 -0.4024
  587MOL0     C77406   0.080   3.638   8.050 -1.2336  1.3436 -0.5244
  587MOL0     C77407   0.040   3.600   8.179  0.3125  0.6568  0.6648
  587MOL0     C77408  -0.065   3.675   8.227  0.1912  0.3600 -0.4920
  587MOL0     C77409  -0.132   3.776   8.160 -0.6520 -0.8463  0.0607
  587MOL0     O77410  -0.227   3.844   8.228  1.0553  0.0568 -1.1929
  587MOL0     C77411  -0.253   3.972   8.179 -0.9341  0.0291 -0.2132
  587MOL0     C77412  -0.325   4.031   8.286  0.2339 -0.2687 -0.0212
  587MOL0     C77413  -0.479   4.020   8.264 -0.5346 -0.0357  0.3356
  587MOL0     C77414  -0.551   4.111   8.366 -0.3316 -0.0360  0.7296
  587MOL0     C77415  -0.561   4.243   8.320 -0.1287  0.2777  0.0903
  587MOL0     C77416  -0.571   4.363   8.309 -0.1199 -0.9629  0.2384
  587MOL0     C77417  -0.083   3.802   8.033  0.7303  0.3159  0.0393
  587MOL0     C77418   0.025   3.738   7.976  0.0455  0.2244  0.2013
  587MOL0     H77419   0.349   3.345   7.918 -1.5071 -1.0427 -1.2108
  587MOL0     H77420   0.521   3.235   7.770 -1.1880 -0.0190  1.2287
  587MOL0     H77421   0.810   3.261   7.557  1.0990  0.4202 -2.5667
  587MOL0     H77422   0.780   3.399   7.663  1.2046  1.3393 -1.3238
  587MOL0     H77423   0.897   3.488   7.483  0.7763  1.1848  0.3464
  587MOL0     H77424   0.719   3.533   7.459  0.9521 -1.2093  0.9964
  587MOL0     H77425   0.818   3.474   7.245  1.9074 -1.0490  0.9889
  587MOL0     H77426   0.704   3.338   7.283 -0.3821 -1.3881  0.4276
  587MOL0     H77427   0.990   3.339   7.342  0.5453  0.3344 -2.1952
  587MOL0     H77428   0.881   3.203   7.343 -1.8901 -0.0993 -1.8333
  587MOL0     H77429   0.957   3.375   7.108 -2.5328  0.5674  0.8091
  587MOL0     H77430   0.868   3.225   7.087 -0.3998 -1.6306  1.7181
  587MOL0     H77431   1.053   3.098   7.175  1.9707 -0.2655  1.1882
  587MOL0     H77432   1.155   3.248   7.202 -3.0120 -0.5206  4.2189
  587MOL0     H77433   1.173   3.286   6.962 -4.6800  1.0806  1.1835
  587MOL0     H77434   1.241   3.126   7.021 -0.5469 -1.0357 -1.7947
  587MOL0     H77435   1.001   3.184   6.857 -1.1822 -0.7392  0.3002
  587MOL0     H77436   1.027   3.028   6.954 -0.4951  1.0581 -0.2640
  587MOL0     H77437   1.172   2.855   6.861 -0.8994  0.0041  0.9138
  587MOL0     H77438   1.459   2.864   6.593 -0.2654  0.2607 -1.2481
  587MOL0     H77439   1.325   2.754   6.562 -0.5725 -0.4033  1.2155
  587MOL0     H77440   1.437   2.618   6.731  0.1818  0.3221  1.4568
  587MOL0     H77441   1.354   2.722   6.850  2.4710 -2.5571  1.9264
  587MOL0     H77442   1.578   2.703   6.909 -2.0867  0.0607 -0.0185
  587MOL0     H77443   1.646   2.786   6.766  0.8424  0.0987  1.3074
  587MOL0     H77444   1.503   2.970   6.838  2.5285  4.1815  1.9454
  587MOL0     H77445   1.653   2.925   6.932  0.1485 -1.7150  0.8312
  587MOL0     H77446   1.549   3.154   7.023 -4.7393  2.8311  1.2837
  587MOL0     H77447   1.587   3.291   7.204  0.2083 -0.1677 -0.5061
  587MOL0     H77448   1.443   3.359   7.712 -0.8217  1.3298  0.4525
  587MOL0     H77449   1.484   3.414   7.934  0.8274  2.1537 -1.7158
  587MOL0     H77450   1.793   3.206   8.196  0.3056 -0.3578  0.3401
  587MOL0     H77451   1.655   3.105   8.205 -3.5751  1.3295  1.8659
  587MOL0     H77452   1.558   3.291   8.360 -0.5387  1.5258  0.3197
  587MOL0     H77453   1.692   3.387   8.328  0.7780 -0.9379 -0.0765
  587MOL0     H77454   1.742   3.266   8.550 -2.4102 -0.5347  1.1234
  587MOL0     H77455   1.854   3.201   8.422 -1.4990 -1.5669 -1.5975
  587MOL0     H77456   1.587   3.093   8.533 -1.2796 -0.3627 -1.0891
  587MOL0     H77457   1.671   3.014   8.398  0.5274 -0.6796 -0.6857
  587MOL0     H77458   1.727   2.924   8.637  4.0405 -0.3403  4.2774
  587MOL0     H77459   1.831   3.068   8.662  0.8480 -0.8076  0.8711
  587MOL0     H77460   1.944   3.003   8.455  2.0095  0.4027  1.0936
  587MOL0     H77461   1.849   2.851   8.451 -0.9407  0.0661  1.3723
  587MOL0     H77462   2.033   2.918   8.678 -0.4958  0.9371 -0.5301
  587MOL0     H77463   1.922   2.780   8.670 -0.6595  0.4903 -0.0947
  587MOL0     H77464   2.160   2.754   8.606 -1.6941 -2.3335  1.2029
  587MOL0     H77465   2.133   2.830   8.448  1.6808  0.8387  1.0108
  587MOL0     H77466   1.753   3.068   7.973 -1.6677 -0.5916  0.3209
  587MOL0     H77467   1.717   3.021   7.757 -0.3505  0.8314 -1.5633
  587MOL0     H77468   1.408   2.979   7.449 -0.3835  0.0373  0.0924
  587MOL0     H77469   1.408   2.830   7.253  0.2480  1.3356  2.2386
  587MOL0     H77470   0.515   3.567   7.501 -2.9826  1.0129 -0.6761
  587MOL0     H77471   0.323   3.671   7.635 -0.8625  0.0057  2.4000
  587MOL0     H77472   0.089   3.531   8.247 -0.1137  0.2347  0.5526
  587MOL0     H77473  -0.085   3.654   8.332 -0.7689  1.2938 -0.4746
  587MOL0     H77474  -0.313   3.972   8.087  0.1897 -1.0809 -0.9820
  587MOL0     H77475  -0.158   4.025   8.166  0.0904 -1.9146 -1.0403
  587MOL0     H77476  -0.290   3.994   8.382 -1.7206  3.8512  2.5570
  587MOL0     H77477  -0.298   4.137   8.295 -1.3214  0.1046  0.5721
  587MOL0     H77478  -0.514   3.919   8.287 -1.0067  0.5348  2.2602
  587MOL0     H77479  -0.513   4.053   8.165  0.1545 -1.5371 -0.4452
  587MOL0     H77480  -0.654   4.075   8.373 -1.1563  1.3747 -2.4230
  587MOL0     H77481  -0.510   4.103   8.467  2.7469 -2.5114 -0.5644
  587MOL0     H77482  -0.603   4.465   8.311 -0.6870 -1.1452  1.4233
  587MOL0     H77483  -0.133   3.886   7.985  1.2999  1.7936  1.9094
  587MOL0     H77484   0.061   3.760   7.876 -1.1094 -1.8846 -0.7484
  588MOL0     O77485   8.576   5.872   3.168  0.3046  0.0917  0.5508
  588MOL0     C77486   8.476   5.896   3.102  0.0533 -0.3475 -0.4158
  588MOL0     O77487   8.368   5.968   3.144 -0.2097  0.7434  0.0786
  588MOL0     C77488   8.370   6.007   3.277  0.0079 -0.9220 -1.1838
  588MOL0     C77489   8.276   5.939   3.359 -0.3589  0.9564 -1.0529
  588MOL0     C77490   8.268   5.960   3.502 -0.8907  0.4975 -0.3176
  588MOL0     C77491   8.338   6.060   3.561  0.1274 -1.2573  0.0683
  588MOL0     O77492   8.324   6.088   3.693 -0.9464  0.0143  0.0154
  588MOL0     C77493   8.346   5.976   3.779 -1.1842 -0.3612 -0.4371
  588MOL0     C77494   8.489   5.906   3.769  0.3819  0.0470 -0.2297
  588MOL0     C77495   8.608   5.998   3.792 -1.3838  0.5968  0.7603
  588MOL0     C77496   8.727   5.911   3.821 -0.0635 -0.1688 -0.2767
  588MOL0     C77497   8.853   5.994   3.848 -0.7448  0.3055 -0.4520
  588MOL0     C77498   8.851   6.089   3.969  0.0897  0.3189 -0.3920
  588MOL0     C77499   8.807   6.017   4.093 -0.1520  0.5249  0.1236
  588MOL0     C77500   8.810   6.099   4.221  0.8090 -0.2347  0.3144
  588MOL0     N77501   8.946   6.132   4.256  0.7451  0.9436 -0.0990
  588MOL0     C77502   9.052   6.186   4.188  0.4696  0.4242  0.2967
  588MOL0     C77503   9.165   6.135   4.240 -1.3587  0.7960  0.4388
  588MOL0     C77504   9.311   6.157   4.196  0.1353 -0.1943  0.0773
  588MOL0     C77505   9.366   6.038   4.117 -0.6097 -0.6392  0.4449
  588MOL0     C77506   9.316   6.034   3.975  0.0169  0.6318  0.2063
  588MOL0     C77507   9.329   6.167   3.893 -0.3264 -0.7236  0.4121
  588MOL0     O77508   9.216   6.252   3.892 -0.3538  0.3359  1.1197
  588MOL0     C77509   9.232   6.384   3.844 -0.4029  0.1513 -0.4190
  588MOL0     C77510   9.126   6.477   3.878 -0.3047  0.2721  0.5884
  588MOL0     C77511   9.124   6.599   3.813  0.5159  0.4177 -0.6406
  588MOL0     C77512   9.229   6.636   3.724 -0.6351  0.0952 -0.1976
  588MOL0     C77513   9.245   6.768   3.657 -0.3252  0.0692  0.1899
  588MOL0     O77514   9.382   6.802   3.635 -0.4874 -0.7557 -0.2134
  588MOL0     C77515   9.417   6.927   3.584  0.9524  0.3815  0.3056
  588MOL0     C77516   9.541   6.931   3.533 -0.5238  0.1428  0.2121
  588MOL0     C77517   9.591   7.037   3.449  0.5482 -0.0171  0.3071
  588MOL0     C77518   9.518   7.152   3.440  1.2720 -0.5824  0.5023
  588MOL0     O77519   9.575   7.266   3.381 -0.6260  0.4807 -0.2184
  588MOL0     C77520   9.709   7.276   3.337 -0.6879  0.1259 -0.7962
  588MOL0     C77521   9.730   7.377   3.223  0.2381  0.4605  0.7024
  588MOL0     C77522   9.776   7.501   3.290  0.4678 -0.1428 -0.7843
  588MOL0     C77523   9.780   7.620   3.193 -0.0894  0.2815  0.4236
  588MOL0     C77524   9.792   7.747   3.278  0.3002 -0.1693  0.7223
  588MOL0     C77525   9.837   7.873   3.202 -0.1850  0.3369  0.8649
  588MOL0     C77526   9.981   7.865   3.140  0.3271 -0.6202 -0.3402
  588MOL0     C77527  10.042   8.003   3.135  0.4839  0.2150  0.3017
  588MOL0    Cl77528  10.073   8.072   3.288  0.5401  0.4483 -0.3777
  588MOL0     C77529   9.387   7.158   3.499 -0.0577 -0.2956  0.9193
  588MOL0     C77530   9.342   7.042   3.576  0.3294 -0.6045 -0.5507
  588MOL0     O77531   9.145   6.838   3.652 -0.4324  0.0636  0.2823
  588MOL0     C77532   9.344   6.550   3.711  0.7551 -0.7879  0.1046
  588MOL0     C77533   9.340   6.427   3.771 -1.1240  0.4472  0.8018
  588MOL0     N77534   9.134   6.064   4.348 -0.0056 -0.6675 -0.3829
  588MOL0     N77535   9.001   6.061   4.360 -0.8496 -0.4217  0.8162
  588MOL0     C77536   8.428   6.133   3.483  0.1260  1.3005 -0.5389
  588MOL0     C77537   8.438   6.119   3.345  0.6483 -0.5182  0.4790
  588MOL0     C77538   8.478   5.869   2.962  0.5059 -0.2816 -0.4023
  588MOL0     C77539   8.417   5.965   2.868  0.0535  0.3176  0.0495
  588MOL0     C77540   8.415   5.938   2.733 -0.2211  0.0679 -0.2263
  588MOL0     C77541   8.460   5.811   2.685 -0.1991  0.4252  0.4526
  588MOL0     O77542   8.431   5.768   2.559 -0.3857  0.2870  0.1204
  588MOL0     C77543   8.293   5.781   2.510 -0.2538  0.4763 -0.1864
  588MOL0     C77544   8.230   5.648   2.473 -0.6182  1.3288  0.1657
  588MOL0     C77545   8.092   5.660   2.402  0.1075 -0.7987  0.0560
  588MOL0     C77546   8.090   5.735   2.266 -0.0905  0.0561  0.1473
  588MOL0     C77547   8.116   5.878   2.281  0.7004 -0.7462  0.4867
  588MOL0     C77548   8.126   5.998   2.289  0.2909  0.0094 -0.1210
  588MOL0     C77549   8.537   5.729   2.775  0.6459  0.4033 -0.4053
  588MOL0     C77550   8.557   5.768   2.908 -0.1411  1.1439 -0.0135
  588MOL0     H77551   8.198   5.874   3.320 -0.4240 -0.7991  1.6913
  588MOL0     H77552   8.208   5.895   3.564  1.2692 -3.6426 -2.1201
  588MOL0     H77553   8.269   5.898   3.784  0.3863 -2.0420 -1.2263
  588MOL0     H77554   8.347   6.018   3.880  2.2522 -1.3186  0.0358
  588MOL0     H77555   8.492   5.851   3.675 -1.0228  0.6672 -0.6736
  588MOL0     H77556   8.483   5.827   3.845  2.1238 -0.3616 -0.4760
  588MOL0     H77557   8.583   6.060   3.879 -1.0396  2.1446 -0.2056
  588MOL0     H77558   8.624   6.063   3.705  3.7938 -2.8269 -1.3165
  588MOL0     H77559   8.713   5.853   3.913 -1.3363  1.4918  0.6109
  588MOL0     H77560   8.739   5.828   3.750  0.3694  0.3672 -0.8472
  588MOL0     H77561   8.882   6.044   3.756 -2.6895  1.5040 -0.4715
  588MOL0     H77562   8.930   5.920   3.872 -1.3101  0.2158  1.2267
  588MOL0     H77563   8.779   6.169   3.950 -0.0827 -0.1086 -1.6644
  588MOL0     H77564   8.946   6.143   3.966  0.0055  0.4322 -2.2317
  588MOL0     H77565   8.705   5.978   4.082 -0.9798  2.2239  1.2636
  588MOL0     H77566   8.866   5.926   4.106 -0.9769 -0.1517 -0.6815
  588MOL0     H77567   8.764   6.048   4.306 -2.6628  0.4051 -1.0128
  588MOL0     H77568   8.745   6.185   4.206 -1.3384 -1.7243  0.5188
  588MOL0     H77569   9.042   6.256   4.106  3.8050 -0.3268 -0.8974
  588MOL0     H77570   9.372   6.168   4.286  0.9547 -5.3885  0.4420
  588MOL0     H77571   9.318   6.251   4.140  0.0891 -1.9175 -3.0555
  588MOL0     H77572   9.329   5.943   4.157  1.1013 -1.2326  0.7193
  588MOL0     H77573   9.475   6.031   4.114 -0.6121 -0.3442 -1.3103
  588MOL0     H77574   9.376   5.964   3.915  0.7471  1.9929 -0.7056
  588MOL0     H77575   9.209   6.013   3.973  0.1172  0.1183 -0.5717
  588MOL0     H77576   9.352   6.141   3.789 -0.9089 -1.0535  0.3641
  588MOL0     H77577   9.412   6.219   3.943  0.4170 -1.1031 -0.3937
  588MOL0     H77578   9.053   6.450   3.953 -1.1052 -0.8824 -0.5612
  588MOL0     H77579   9.042   6.671   3.812  0.8389  0.7894 -0.5388
  588MOL0     H77580   9.601   6.841   3.536 -0.5878  0.0913  0.0044
  588MOL0     H77581   9.690   7.029   3.406  0.4474 -1.1134  0.2568
  588MOL0     H77582   9.730   7.183   3.282 -0.9363  1.6810 -3.7242
  588MOL0     H77583   9.789   7.293   3.409 -1.8112 -2.3753  1.2106
  588MOL0     H77584   9.637   7.393   3.166  0.0704 -3.4350 -0.4006
  588MOL0     H77585   9.801   7.329   3.155 -2.5192  0.9289 -2.8561
  588MOL0     H77586   9.875   7.484   3.334  0.8808 -0.1313 -1.6818
  588MOL0     H77587   9.716   7.545   3.370  2.5579  0.5198  0.5242
  588MOL0     H77588   9.860   7.600   3.122  0.4992 -1.4479  1.5378
  588MOL0     H77589   9.686   7.625   3.136  0.7166  0.1728 -0.9387
  588MOL0     H77590   9.861   7.723   3.360 -0.4848 -2.5444  0.7508
  588MOL0     H77591   9.693   7.762   3.321 -1.1554  1.6199 -2.8861
  588MOL0     H77592   9.826   7.949   3.280  0.3051  0.3357  0.9360
  588MOL0     H77593   9.767   7.913   3.128  2.8423  1.1384 -1.7893
  588MOL0     H77594  10.053   7.799   3.190  0.1614  0.9438  2.1287
  588MOL0     H77595   9.961   7.824   3.040  1.6267 -1.5689 -0.2411
  588MOL0     H77596   9.968   8.070   3.089 -0.2759  0.1386  1.3538
  588MOL0     H77597  10.134   7.999   3.077 -2.2815 -1.2125 -4.6046
  588MOL0     H77598   9.323   7.246   3.501 -1.3166 -1.1840  2.1752
  588MOL0     H77599   9.246   7.052   3.626 -0.7875  1.3909 -2.8526
  588MOL0     H77600   9.433   6.576   3.655  3.4561 -1.9014  3.4749
  588MOL0     H77601   9.418   6.353   3.756 -2.3779 -0.5250 -1.3630
  588MOL0     H77602   8.485   6.211   3.533  0.0957  0.4553  0.8534
  588MOL0     H77603   8.505   6.187   3.293 -0.3415 -0.2885 -0.5403
  588MOL0     H77604   8.355   6.050   2.893 -1.9435 -1.3229  0.9405
  588MOL0     H77605   8.379   6.004   2.655  4.7940 -0.6834 -3.6316
  588MOL0     H77606   8.296   5.842   2.419 -1.0419  0.3697 -0.2918
  588MOL0     H77607   8.215   5.819   2.577 -0.4966  1.9878 -1.2824
  588MOL0     H77608   8.292   5.596   2.399 -0.9355  3.1389 -1.4469
  588MOL0     H77609   8.229   5.590   2.566 -1.8557  0.1950 -0.5044
  588MOL0     H77610   8.047   5.733   2.470  2.6792  2.1315 -1.1088
  588MOL0     H77611   8.039   5.565   2.399  1.0212 -1.2935 -1.5352
  588MOL0     H77612   8.167   5.683   2.207  0.1848  0.8975 -0.2532
  588MOL0     H77613   7.989   5.712   2.229  0.8147 -1.3653 -1.6151
  588MOL0     H77614   8.137   6.105   2.286  0.1437  0.2202  3.1302
  588MOL0     H77615   8.576   5.635   2.736  0.6481 -0.3209  1.2681
  588MOL0     H77616   8.628   5.717   2.973  1.0804  3.2340  0.4077
  589MOL0     O77617   9.321   2.086   0.193 -0.1897 -0.0148  0.7168
  589MOL0     C77618   9.318   2.191   0.251  0.9933  0.0945  0.5600
  589MOL0     O77619   9.261   2.305   0.203  0.1968 -0.4696 -0.0537
  589MOL0     C77620   9.174   2.299   0.093 -0.6489 -0.9396  0.5076
  589MOL0     C77621   9.093   2.409   0.072  0.2273 -0.3006 -0.2616
  589MOL0     C77622   8.999   2.425  -0.034 -0.4045 -0.5870  0.5207
  589MOL0     C77623   8.985   2.323  -0.128 -1.4643  0.5655  0.1280
  589MOL0     O77624   8.933   2.365  -0.248 -0.3001  0.5312 -0.5149
  589MOL0     C77625   8.950   2.279  -0.359 -0.4424 -0.2272  0.0086
  589MOL0     C77626   8.917   2.352  -0.489  0.6278 -0.4202  0.6172
  589MOL0     C77627   8.915   2.243  -0.602  0.1764  0.0424 -0.7431
  589MOL0     C77628   9.019   2.270  -0.714 -0.2906  0.5802  0.4232
  589MOL0     C77629   9.014   2.151  -0.816 -0.3453  1.0021 -0.4021
  589MOL0     C77630   8.897   2.120  -0.895  0.3374  0.8453  0.2559
  589MOL0     C77631   8.926   1.999  -0.986  0.1163  0.4032 -0.9061
  589MOL0     C77632   8.911   2.022  -1.137  0.3574  0.8955 -0.1232
  589MOL0     N77633   8.967   1.906  -1.208  1.3043 -0.5378 -0.5794
  589MOL0     C77634   8.969   1.772  -1.174  0.1074 -0.0141 -0.4630
  589MOL0     C77635   9.055   1.713  -1.265  1.1433  0.5005 -0.4757
  589MOL0     C77636   9.091   1.568  -1.271  0.4682  0.2692  0.2518
  589MOL0     C77637   9.143   1.503  -1.149 -0.1728  0.1258 -0.4120
  589MOL0     C77638   9.228   1.595  -1.070 -0.3979 -0.1348 -0.7478
  589MOL0     C77639   9.288   1.535  -0.940  1.0175 -0.9577  0.0463
  589MOL0     O77640   9.416   1.465  -0.958 -0.2239 -0.5096 -0.5546
  589MOL0     C77641   9.521   1.554  -0.930  0.3408 -0.5922  0.5708
  589MOL0     C77642   9.607   1.591  -1.031  0.5743 -0.1913  0.1724
  589MOL0     C77643   9.705   1.680  -1.003 -0.0760 -0.8090  0.5596
  589MOL0     C77644   9.725   1.739  -0.873 -0.0596 -0.3224  0.2714
  589MOL0     C77645   9.827   1.835  -0.858 -0.0292 -0.6516 -0.1741
  589MOL0     O77646   9.906   1.880  -0.963 -1.1442  0.7782  0.2676
  589MOL0     C77647  10.032   1.925  -0.932 -0.6216  0.0511  0.0628
  589MOL0     C77648  10.136   1.848  -0.859 -0.1216  0.0114  0.5457
  589MOL0     C77649  10.258   1.909  -0.845 -0.0506 -0.4239 -0.7227
  589MOL0     C77650  10.288   2.029  -0.918  0.0630 -0.5975 -0.7083
  589MOL0     O77651  10.412   2.060  -0.890 -0.4990  0.4595 -0.0749
  589MOL0     C77652  10.453   2.196  -0.914  0.5913 -0.3263 -0.2190
  589MOL0     C77653  10.604   2.212  -0.884  1.1465  1.5472 -0.3704
  589MOL0     C77654  10.653   2.354  -0.878  1.3490 -0.1871  0.4076
  589MOL0     C77655  10.793   2.371  -0.839 -0.5495  0.5826  0.2541
  589MOL0     C77656  10.854   2.508  -0.857 -0.3000  0.0787 -0.7725
  589MOL0     C77657  10.799   2.604  -0.742 -0.2137 -0.0561  0.1575
  589MOL0     C77658  10.839   2.589  -0.603 -0.1221 -0.4853 -0.0507
  589MOL0     C77659  10.986   2.617  -0.565 -0.1598 -0.0245  0.2739
  589MOL0    Cl77660  11.025   2.565  -0.403  0.3325 -0.1965 -0.2615
  589MOL0     C77661  10.194   2.095  -0.998  0.7553 -0.0290 -0.2118
  589MOL0     C77662  10.070   2.046  -0.997  0.2015  0.0617 -0.4349
  589MOL0     O77663   9.839   1.877  -0.744  0.1001  0.3159 -0.4159
  589MOL0     C77664   9.646   1.689  -0.769 -0.3682 -0.2807 -0.2196
  589MOL0     C77665   9.546   1.600  -0.794  0.7910  1.7768 -0.5069
  589MOL0     N77666   9.099   1.812  -1.347 -0.2809 -0.3074 -0.4064
  589MOL0     N77667   9.043   1.924  -1.317  0.1655 -0.7493  0.4590
  589MOL0     C77668   9.059   2.205  -0.109  0.0907 -0.5655 -0.5505
  589MOL0     C77669   9.151   2.196  -0.006 -0.1679  0.8949  0.0599
  589MOL0     C77670   9.387   2.202   0.382  0.3094  0.3359  0.3761
  589MOL0     C77671   9.392   2.315   0.460  0.0741 -0.6546  0.5042
  589MOL0     C77672   9.473   2.320   0.580 -1.0661  0.4240  0.2006
  589MOL0     C77673   9.531   2.203   0.626 -0.5712 -1.0821 -0.3172
  589MOL0     O77674   9.612   2.209   0.740  0.4612  0.1215 -0.3764
  589MOL0     C77675   9.538   2.177   0.866 -1.0034  0.1048  0.3967
  589MOL0     C77676   9.639   2.157   0.971  0.7172  0.1260 -0.5492
  589MOL0     C77677   9.740   2.278   0.974  0.4480  0.6745  0.6920
  589MOL0     C77678   9.688   2.384   1.066 -1.1495  0.2224 -0.1692
  589MOL0     C77679   9.794   2.490   1.076 -0.1489 -0.2301 -0.6694
  589MOL0     C77680   9.875   2.584   1.089  0.2562  0.0198  1.1758
  589MOL0     C77681   9.522   2.085   0.554  0.2737 -0.0608  0.1572
  589MOL0     C77682   9.454   2.086   0.432 -0.0524 -0.2819  0.0980
  589MOL0     H77683   9.092   2.487   0.147  0.6520 -1.5949  1.1392
  589MOL0     H77684   8.945   2.516  -0.055 -0.3951 -0.3780  1.3611
  589MOL0     H77685   8.881   2.197  -0.337 -2.0307  0.8190 -0.8449
  589MOL0     H77686   9.054   2.247  -0.368  0.3147  1.8717  0.8251
  589MOL0     H77687   8.981   2.438  -0.515 -0.1074 -0.1105 -0.2310
  589MOL0     H77688   8.813   2.380  -0.474 -0.2183 -1.7922 -2.0501
  589MOL0     H77689   8.814   2.243  -0.644  1.4717 -0.8421 -4.1523
  589MOL0     H77690   8.929   2.144  -0.558 -0.5342 -0.0074 -0.6155
  589MOL0     H77691   9.005   2.365  -0.767 -3.1727 -1.9144 -3.8521
  589MOL0     H77692   9.117   2.273  -0.665 -0.3048  0.7811  0.4413
  589MOL0     H77693   9.056   2.071  -0.753  2.8936  2.4461 -0.4956
  589MOL0     H77694   9.094   2.157  -0.890  0.4982  0.4876  0.4314
  589MOL0     H77695   8.853   2.204  -0.950 -2.0447 -0.0287  0.6945
  589MOL0     H77696   8.822   2.093  -0.819 -1.3834 -0.7302 -1.8645
  589MOL0     H77697   9.026   1.961  -0.964  1.0987  2.0638 -2.2158
  589MOL0     H77698   8.852   1.922  -0.963  4.4379 -4.1279 -0.4531
  589MOL0     H77699   8.960   2.115  -1.168  1.2432  0.1022 -1.2305
  589MOL0     H77700   8.804   2.029  -1.156  0.5910  1.0343 -1.5240
  589MOL0     H77701   8.917   1.729  -1.090 -0.0027  1.0445  0.0193
  589MOL0     H77702   9.161   1.551  -1.353  0.6153 -0.6621  0.5560
  589MOL0     H77703   8.996   1.519  -1.296  0.1655 -0.2362  2.1963
  589MOL0     H77704   9.190   1.406  -1.167  2.2587  0.9994  0.7286
  589MOL0     H77705   9.059   1.489  -1.080  0.9881 -1.4183  0.7613
  589MOL0     H77706   9.312   1.626  -1.134 -1.0641  0.8501 -1.1765
  589MOL0     H77707   9.168   1.680  -1.034  1.7264  1.6480 -1.1795
  589MOL0     H77708   9.214   1.473  -0.888  0.7516 -0.0814  0.7449
  589MOL0     H77709   9.307   1.621  -0.875  4.1492  0.9823 -3.0908
  589MOL0     H77710   9.611   1.555  -1.133  1.1181  1.3496 -0.3828
  589MOL0     H77711   9.781   1.704  -1.077 -0.7359  0.8800  0.3856
  589MOL0     H77712  10.115   1.750  -0.817 -0.8741  0.8721  2.2576
  589MOL0     H77713  10.335   1.861  -0.785 -0.2867  0.3673  0.2406
  589MOL0     H77714  10.394   2.261  -0.850  0.9391  0.1391 -0.3690
  589MOL0     H77715  10.434   2.221  -1.019  1.2593 -0.1903 -0.3137
  589MOL0     H77716  10.668   2.147  -0.945 -1.1125 -3.8928  2.3266
  589MOL0     H77717  10.621   2.162  -0.788  1.4907 -2.1473 -2.2021
  589MOL0     H77718  10.596   2.411  -0.803 -2.0169 -0.0964 -1.9751
  589MOL0     H77719  10.638   2.396  -0.978  3.6803 -1.3008 -0.4731
  589MOL0     H77720  10.808   2.337  -0.736  0.7620  1.0702  0.2358
  589MOL0     H77721  10.855   2.311  -0.905  1.3290 -0.2654  2.6464
  589MOL0     H77722  10.823   2.549  -0.954 -0.4891  0.0913 -0.7080
  589MOL0     H77723  10.963   2.515  -0.855 -0.2590 -0.4503 -0.9821
  589MOL0     H77724  10.690   2.605  -0.752  0.0109  0.9862 -4.3334
  589MOL0     H77725  10.823   2.707  -0.770 -2.8044  0.7316  0.5562
  589MOL0     H77726  10.780   2.664  -0.550  1.8527  1.3114 -0.2614
  589MOL0     H77727  10.802   2.494  -0.563 -3.6299  0.5526 -0.5338
  589MOL0     H77728  11.011   2.721  -0.587  3.8539 -1.6066 -3.9937
  589MOL0     H77729  11.054   2.559  -0.627  1.9748 -1.3609  3.6053
  589MOL0     H77730  10.220   2.187  -1.050  1.0584  0.7976  1.3442
  589MOL0     H77731   9.995   2.085  -1.064  1.2805  1.7980 -0.6839
  589MOL0     H77732   9.669   1.712  -0.666 -0.3227  0.0802 -0.3084
  589MOL0     H77733   9.480   1.572  -0.713  0.5393  1.5148 -0.7975
  589MOL0     H77734   9.055   2.129  -0.186 -1.4850 -0.2560 -0.8012
  589MOL0     H77735   9.203   2.101  -0.018  2.3017  2.2575 -1.0710
  589MOL0     H77736   9.339   2.403   0.425  2.2040  1.6016  2.5344
  589MOL0     H77737   9.488   2.414   0.632  3.3466 -1.0817  2.1648
  589MOL0     H77738   9.478   2.086   0.855 -1.9173  0.9239 -2.1292
  589MOL0     H77739   9.470   2.262   0.880 -2.0665 -0.4965 -0.8639
  589MOL0     H77740   9.594   2.133   1.068  1.4785 -4.2020 -1.0728
  589MOL0     H77741   9.688   2.064   0.943 -0.4078 -0.3534 -0.9797
  589MOL0     H77742   9.764   2.316   0.874 -1.2062 -1.1683 -0.4762
  589MOL0     H77743   9.835   2.242   1.016 -0.9039 -3.2152  0.8375
  589MOL0     H77744   9.589   2.426   1.044 -0.6348  2.0155  0.7049
  589MOL0     H77745   9.681   2.339   1.165  0.2191  2.8872  1.2601
  589MOL0     H77746   9.950   2.661   1.085  0.0704  0.1631 -1.0495
  589MOL0     H77747   9.572   1.998   0.596 -1.2260 -0.3943  1.3246
  589MOL0     H77748   9.450   1.992   0.378  1.8348  0.0751 -0.7241
  590MOL0     O77749   6.840   6.565   7.220  0.1174 -0.4408 -0.2494
  590MOL0     C77750   6.923   6.505   7.142  0.2382 -0.0659 -0.1593
  590MOL0     O77751   7.036   6.432   7.183  0.6829  0.0978 -0.3269
  590MOL0     C77752   7.041   6.392   7.314  0.3182  0.7393  0.1318
  590MOL0     C77753   6.935   6.331   7.387 -0.5645  1.0418 -0.0826
  590MOL0     C77754   6.954   6.301   7.524 -0.2661  0.2859 -0.2685
  590MOL0     C77755   7.070   6.326   7.595 -0.3316  0.0906  0.0671
  590MOL0     O77756   7.081   6.262   7.722  0.2661  0.5698 -0.2976
  590MOL0     C77757   7.198   6.288   7.801  0.1168 -0.9951  0.6964
  590MOL0     C77758   7.197   6.434   7.844 -0.6899  0.3798  0.0652
  590MOL0     C77759   7.286   6.467   7.969 -0.2167 -0.2413  0.2137
  590MOL0     C77760   7.260   6.393   8.102  0.2223 -0.6778  0.6299
  590MOL0     C77761   7.314   6.472   8.216  0.1934  0.4352  0.1904
  590MOL0     C77762   7.455   6.538   8.201  0.0347  1.1460 -0.5786
  590MOL0     C77763   7.503   6.609   8.334  0.1928 -0.1969  0.6146
  590MOL0     C77764   7.649   6.646   8.324  0.0312  0.7451  0.4987
  590MOL0     N77765   7.681   6.781   8.376  0.1820  0.3822 -0.1477
  590MOL0     C77766   7.700   6.820   8.506 -0.3522  0.0406 -0.0342
  590MOL0     C77767   7.708   6.956   8.503 -0.4729 -0.3504  1.1010
  590MOL0     C77768   7.725   7.056   8.615  0.1948 -0.6377  0.3598
  590MOL0     C77769   7.765   7.009   8.743 -0.0010 -0.1627 -0.2946
  590MOL0     C77770   7.795   7.108   8.864  0.6262  0.0608  0.1581
  590MOL0     C77771   7.905   7.218   8.837  1.3196  0.1682 -0.1183
  590MOL0     O77772   7.937   7.286   8.955 -0.5489  0.3736 -0.2223
  590MOL0     C77773   8.047   7.368   8.979  0.0033  0.4788 -0.6989
  590MOL0     C77774   8.128   7.416   8.875 -0.0533  0.5491 -0.4035
  590MOL0     C77775   8.227   7.509   8.914  0.0734 -0.3984 -0.0829
  590MOL0     C77776   8.263   7.544   9.047  0.4390  0.8451  0.2233
  590MOL0     C77777   8.381   7.634   9.082 -0.5254  0.0939 -0.5625
  590MOL0     O77778   8.419   7.717   8.990 -0.1114  0.3115 -0.0910
  590MOL0     C77779   8.542   7.771   8.995  0.7614 -0.0761 -0.5748
  590MOL0     C77780   8.623   7.761   8.880  0.5310 -0.4373 -0.0486
  590MOL0     C77781   8.748   7.816   8.878 -0.5042 -0.3084  0.2266
  590MOL0     C77782   8.797   7.888   8.990 -1.1126  0.5951  0.5769
  590MOL0     O77783   8.917   7.946   8.994 -0.1190 -0.4111  0.6344
  590MOL0     C77784   8.988   8.024   9.090  0.2293 -0.1321  0.6925
  590MOL0     C77785   8.948   8.176   9.089  0.0522  0.5473  0.5932
  590MOL0     C77786   9.023   8.255   9.197 -0.3534  0.7790  0.0036
  590MOL0     C77787   8.977   8.407   9.193 -1.1300  0.2472 -0.5362
  590MOL0     C77788   9.042   8.481   9.314  0.7444  0.6133  0.0312
  590MOL0     C77789   9.189   8.522   9.299 -0.1520 -0.2338  0.6039
  590MOL0     C77790   9.245   8.592   9.420 -0.1618  0.0787 -0.3456
  590MOL0     C77791   9.390   8.633   9.393  0.7948 -0.9871 -0.2752
  590MOL0    Cl77792   9.409   8.743   9.257  0.1783  0.3992 -0.2808
  590MOL0     C77793   8.706   7.909   9.098 -0.5502 -1.2755 -0.3980
  590MOL0     C77794   8.587   7.856   9.097  1.2504  1.6557  1.5982
  590MOL0     O77795   8.434   7.618   9.191  0.1887  0.2544  0.3665
  590MOL0     C77796   8.178   7.489   9.144 -0.2794 -0.4829 -0.1259
  590MOL0     C77797   8.075   7.402   9.116  0.0141 -0.9279  0.1851
  590MOL0     N77798   7.713   6.996   8.371  0.0479 -1.3170  0.8797
  590MOL0     N77799   7.697   6.891   8.295  0.3875 -0.1871 -0.2308
  590MOL0     C77800   7.178   6.379   7.523 -0.3293 -0.2769 -0.1634
  590MOL0     C77801   7.157   6.418   7.383 -1.6380 -0.2630 -0.8829
  590MOL0     C77802   6.915   6.544   7.000 -0.2895  0.6464  0.0167
  590MOL0     C77803   6.803   6.618   6.949  0.2087  0.4836  0.2688
  590MOL0     C77804   6.811   6.648   6.810 -0.3956 -0.2407 -0.6151
  590MOL0     C77805   6.925   6.624   6.722 -0.6359 -0.4543 -0.2127
  590MOL0     O77806   6.919   6.662   6.592  0.0514 -0.1835  0.3349
  590MOL0     C77807   7.003   6.777   6.554 -0.4019 -0.0319  0.3608
  590MOL0     C77808   7.048   6.887   6.653  0.0761 -0.3004 -0.0312
  590MOL0     C77809   6.934   6.986   6.673  0.3206  0.4492  0.5559
  590MOL0     C77810   6.970   7.082   6.792  0.1530 -0.1048  0.5685
  590MOL0     C77811   6.980   7.219   6.734  0.1549 -0.0316 -0.0700
  590MOL0     C77812   7.009   7.334   6.698  0.2235 -0.5311  0.3726
  590MOL0     C77813   7.037   6.568   6.789  0.1817  0.1845  0.6515
  590MOL0     C77814   7.028   6.525   6.921 -0.5800  0.1170  0.4025
  590MOL0     H77815   6.833   6.327   7.348 -1.3322  1.5008  1.7817
  590MOL0     H77816   6.873   6.249   7.573 -1.2302 -1.1852 -3.1741
  590MOL0     H77817   7.285   6.265   7.740 -1.7362 -0.4459 -2.3536
  590MOL0     H77818   7.206   6.219   7.886  0.0768 -2.3511 -0.3736
  590MOL0     H77819   7.094   6.468   7.858 -2.2076 -1.8387 -4.1331
  590MOL0     H77820   7.231   6.505   7.768  0.1995  1.9748  1.8589
  590MOL0     H77821   7.266   6.572   7.988 -0.6438  0.3425 -2.8077
  590MOL0     H77822   7.389   6.442   7.942  0.2995  1.2796  0.7040
  590MOL0     H77823   7.153   6.396   8.122 -0.9987 -2.2376 -4.2823
  590MOL0     H77824   7.293   6.288   8.103 -0.7726 -1.0084 -0.0794
  590MOL0     H77825   7.311   6.410   8.305 -0.4703  0.3798  0.1309
  590MOL0     H77826   7.248   6.558   8.232 -3.3853 -1.3663 -3.1359
  590MOL0     H77827   7.444   6.613   8.122  0.2616  0.6973 -1.0422
  590MOL0     H77828   7.528   6.459   8.182  0.4401  2.0370 -3.2129
  590MOL0     H77829   7.431   6.687   8.361 -1.1735 -0.8735 -0.9098
  590MOL0     H77830   7.493   6.531   8.410 -1.1457  0.2167  0.8884
  590MOL0     H77831   7.693   6.641   8.224 -1.9192 -1.2768 -0.3454
  590MOL0     H77832   7.704   6.568   8.377 -1.3834 -0.2242  0.5952
  590MOL0     H77833   7.713   6.762   8.597  0.5377  1.1964  0.6104
  590MOL0     H77834   7.627   7.102   8.634 -0.2890 -0.4003 -2.2877
  590MOL0     H77835   7.791   7.132   8.573  0.1755 -1.3034 -0.9424
  590MOL0     H77836   7.855   6.952   8.720 -0.5180 -1.7956  1.4732
  590MOL0     H77837   7.696   6.930   8.771 -0.6405  0.2090 -0.7871
  590MOL0     H77838   7.697   7.151   8.888  0.9470  1.5397 -1.0143
  590MOL0     H77839   7.831   7.053   8.951 -0.2811  2.0973  1.9066
  590MOL0     H77840   7.864   7.300   8.778 -2.4730 -1.6645 -0.3195
  590MOL0     H77841   7.991   7.177   8.782  0.7796  0.9075 -1.5685
  590MOL0     H77842   8.091   7.397   8.774  2.4132 -1.0756 -1.0835
  590MOL0     H77843   8.289   7.545   8.833 -0.9506 -0.3761 -0.8695
  590MOL0     H77844   8.594   7.699   8.796  3.6442  1.0475 -2.4438
  590MOL0     H77845   8.807   7.804   8.787 -0.3740 -1.4735  0.4500
  590MOL0     H77846   9.090   8.019   9.051 -0.1176 -0.2613 -0.2318
  590MOL0     H77847   8.990   7.975   9.188  2.0683  0.1083  0.8116
  590MOL0     H77848   8.839   8.186   9.100 -0.1940 -0.3748 -0.7058
  590MOL0     H77849   8.973   8.227   8.995 -0.6085  1.2555  0.7858
  590MOL0     H77850   9.132   8.249   9.203 -0.2883  1.6233 -0.1129
  590MOL0     H77851   8.984   8.202   9.284 -1.4290 -2.1264 -2.1002
  590MOL0     H77852   9.018   8.446   9.099  0.8500  2.8160  1.2758
  590MOL0     H77853   8.869   8.411   9.209 -0.8377  0.3573  1.6862
  590MOL0     H77854   9.038   8.410   9.398  1.4881 -1.3129 -1.4721
  590MOL0     H77855   8.983   8.569   9.340  1.5965  1.6919 -1.4725
  590MOL0     H77856   9.190   8.602   9.224  2.8137 -0.5352  0.2098
  590MOL0     H77857   9.258   8.438   9.285 -2.4177 -1.8739 -1.4552
  590MOL0     H77858   9.170   8.671   9.425 -0.2534 -0.0185 -0.1784
  590MOL0     H77859   9.239   8.527   9.508 -1.5709  1.2634  0.4757
  590MOL0     H77860   9.457   8.552   9.365  3.6326  0.9920  0.3439
  590MOL0     H77861   9.421   8.675   9.489 -1.8883 -0.9206  0.6455
  590MOL0     H77862   8.737   7.981   9.172  0.7110 -1.9107 -0.2763
  590MOL0     H77863   8.518   7.879   9.178 -0.0223  0.8899  0.7711
  590MOL0     H77864   8.208   7.515   9.244 -0.0072  1.0851 -0.5958
  590MOL0     H77865   8.018   7.360   9.199 -0.7397  0.9623  0.6819
  590MOL0     H77866   7.275   6.377   7.571  0.8445 -0.8590 -2.4674
  590MOL0     H77867   7.242   6.457   7.328 -0.1346  0.4166  1.6970
  590MOL0     H77868   6.716   6.641   7.010  0.0250  2.5086 -0.6705
  590MOL0     H77869   6.719   6.696   6.780 -2.4196 -1.9351  2.3158
  590MOL0     H77870   6.955   6.813   6.462  1.0232 -0.2394 -0.4987
  590MOL0     H77871   7.091   6.719   6.522 -1.1506 -2.2197  2.0678
  590MOL0     H77872   7.076   6.835   6.745  0.7206 -1.4000 -0.8281
  590MOL0     H77873   7.130   6.942   6.607  1.8401 -3.3365 -0.8209
  590MOL0     H77874   6.844   6.937   6.711 -2.0095  3.6340 -0.4462
  590MOL0     H77875   6.903   7.034   6.580  0.2912  2.5970  1.6002
  590MOL0     H77876   6.900   7.082   6.876  0.8779 -1.8957  1.2336
  590MOL0     H77877   7.066   7.051   6.834 -0.1422 -0.3274  1.0793
  590MOL0     H77878   7.018   7.436   6.666 -0.8448 -0.2168  1.0076
  590MOL0     H77879   7.128   6.560   6.730 -0.9246  1.0536 -1.2540
  590MOL0     H77880   7.120   6.491   6.967 -0.2501  2.2499  1.4582
  591MOL0     O77881   2.190  10.967   7.963  0.1476 -0.0352 -0.2545
  591MOL0     C77882   2.165  10.861   7.908  0.6501  0.5079  0.7367
  591MOL0     O77883   2.244  10.752   7.929 -0.1589  0.6141  0.2411
  591MOL0     C77884   2.357  10.747   8.008  0.3983  0.4319  0.5474
  591MOL0     C77885   2.367  10.823   8.130 -0.4445 -0.0305  0.4056
  591MOL0     C77886   2.484  10.808   8.209  0.7540  0.0588 -0.5326
  591MOL0     C77887   2.593  10.737   8.166 -0.8900  0.6022  0.7489
  591MOL0     O77888   2.710  10.749   8.247  0.4444  0.2045 -1.0645
  591MOL0     C77889   2.762  10.619   8.279  1.5896 -0.9133  0.1966
  591MOL0     C77890   2.906  10.644   8.328 -1.4406 -0.3187 -1.2747
  591MOL0     C77891   2.920  10.740   8.449  0.3168 -0.4626  0.2855
  591MOL0     C77892   3.057  10.746   8.507  0.5843  0.0502  0.3217
  591MOL0     C77893   3.091  10.636   8.604 -0.1604 -0.5833 -0.1547
  591MOL0     C77894   3.240  10.609   8.616  0.6702 -0.3638  0.0833
  591MOL0     C77895   3.264  10.492   8.716 -0.1437 -0.2382 -1.0290
  591MOL0     C77896   3.390  10.410   8.692  0.4211 -0.7028 -0.6398
  591MOL0     N77897   3.520  10.491   8.675 -0.3065  0.0786 -0.0692
  591MOL0     C77898   3.629  10.508   8.761  0.1543  0.6860  0.6332
  591MOL0     C77899   3.725  10.548   8.681  1.2229 -0.6387 -0.6249
  591MOL0     C77900   3.866  10.589   8.730  0.0453 -0.6377 -0.6965
  591MOL0     C77901   3.953  10.465   8.712  0.5288  0.0825 -0.0501
  591MOL0     C77902   3.987  10.398   8.845 -0.1590  0.3495  0.7094
  591MOL0     C77903   4.054  10.265   8.820  0.7478  0.2651  0.4797
  591MOL0     O77904   4.160  10.268   8.730  0.1875 -0.6699 -0.9190
  591MOL0     C77905   4.282  10.208   8.756 -0.0967  0.5625 -1.1142
  591MOL0     C77906   4.304  10.098   8.846  0.6426 -0.6673 -0.5868
  591MOL0     C77907   4.428  10.032   8.866  1.1877 -0.4942 -0.9928
  591MOL0     C77908   4.526  10.061   8.774 -0.4524  0.8181 -0.4095
  591MOL0     C77909   4.657   9.993   8.788  0.5900 -0.7177  1.5335
  591MOL0     O77910   4.761  10.068   8.727  0.5350 -0.0476  0.8417
  591MOL0     C77911   4.884  10.008   8.720  0.8687  0.0027 -0.5192
  591MOL0     C77912   4.984  10.048   8.815 -0.1151  0.0062  0.5425
  591MOL0     C77913   5.103   9.979   8.823 -0.4496  0.4413  0.8410
  591MOL0     C77914   5.142   9.879   8.740  0.5867 -0.2564 -0.0403
  591MOL0     O77915   5.261   9.831   8.759 -1.0893  0.6110 -0.4201
  591MOL0     C77916   5.262   9.690   8.766  0.5562  0.7038  0.0009
  591MOL0     C77917   5.403   9.650   8.796 -0.2770 -0.3989 -0.5349
  591MOL0     C77918   5.502   9.700   8.693 -0.5950 -0.0824 -0.8439
  591MOL0     C77919   5.472   9.679   8.543  0.2583  0.0264  0.4775
  591MOL0     C77920   5.600   9.685   8.459 -0.3125  0.5336 -0.0730
  591MOL0     C77921   5.598   9.676   8.302 -0.9567  0.1172  0.0234
  591MOL0     C77922   5.738   9.687   8.232  0.2279  0.5075 -0.6227
  591MOL0     C77923   5.794   9.822   8.253 -0.3786 -0.8540  0.3150
  591MOL0    Cl77924   5.700   9.946   8.165 -0.0339  0.3572  0.2680
  591MOL0     C77925   5.046   9.837   8.641 -0.0262  0.5518 -0.0495
  591MOL0     C77926   4.927   9.905   8.627  0.8052 -0.8271  0.3468
  591MOL0     O77927   4.669   9.890   8.853 -0.0567  0.2018  0.3225
  591MOL0     C77928   4.503  10.150   8.666 -0.2087  0.3308  1.0441
  591MOL0     C77929   4.390  10.231   8.666  0.2105 -0.1858 -0.1882
  591MOL0     N77930   3.676  10.561   8.553 -0.1699 -0.0579 -0.3576
  591MOL0     N77931   3.553  10.536   8.552 -0.3511  0.2548  0.0202
  591MOL0     C77932   2.580  10.659   8.045 -0.1792  0.0269  0.3330
  591MOL0     C77933   2.462  10.661   7.968 -0.5150  0.4340 -0.6748
  591MOL0     C77934   2.050  10.846   7.808  0.5553  0.4469 -1.0405
  591MOL0     C77935   1.972  10.726   7.817  0.6360  0.0324  0.3151
  591MOL0     C77936   1.855  10.724   7.732  0.2013 -0.0299 -0.7247
  591MOL0     C77937   1.817  10.836   7.656 -0.4808 -0.0581  0.1130
  591MOL0     O77938   1.693  10.823   7.601 -1.0974 -0.0129  0.4668
  591MOL0     C77939   1.685  10.787   7.465 -0.5658 -1.4464 -0.1883
  591MOL0     C77940   1.694  10.641   7.446 -0.3835  0.2996  1.0387
  591MOL0     C77941   1.581  10.578   7.514 -0.0954 -0.4988 -0.2376
  591MOL0     C77942   1.597  10.428   7.514  1.2800 -0.7644  0.3940
  591MOL0     C77943   1.596  10.357   7.386 -0.0031  0.4056 -0.0432
  591MOL0     C77944   1.628  10.287   7.291 -0.2905  0.3440 -0.0149
  591MOL0     C77945   1.901  10.943   7.633 -0.4063  0.5092  0.2587
  591MOL0     C77946   2.012  10.945   7.713 -0.4361  0.1700  0.0846
  591MOL0     H77947   2.290  10.879   8.182  1.6245  1.8082  1.6276
  591MOL0     H77948   2.492  10.869   8.298  2.1424  2.5276 -2.2485
  591MOL0     H77949   2.762  10.545   8.199 -0.4287 -0.2993 -0.4302
  591MOL0     H77950   2.696  10.580   8.357 -0.1338  2.6156  0.7059
  591MOL0     H77951   2.963  10.685   8.243 -0.4904  1.9705  0.3796
  591MOL0     H77952   2.951  10.549   8.356 -1.4898  0.5009  1.9619
  591MOL0     H77953   2.854  10.707   8.530 -0.1669 -1.0270 -0.3269
  591MOL0     H77954   2.899  10.845   8.424  5.1193  0.3322 -1.3259
  591MOL0     H77955   3.130  10.758   8.427 -2.7912  1.5341 -2.8097
  591MOL0     H77956   3.058  10.840   8.564  0.9450 -1.4499  2.9864
  591MOL0     H77957   3.046  10.541   8.576 -1.1118  0.1998 -1.3752
  591MOL0     H77958   3.037  10.653   8.698  1.1912 -4.0010  1.3986
  591MOL0     H77959   3.276  10.703   8.660  1.7389 -1.5922  1.9711
  591MOL0     H77960   3.284  10.603   8.516  2.8918  1.6741  0.8519
  591MOL0     H77961   3.273  10.521   8.821 -0.2375 -2.7722 -0.2455
  591MOL0     H77962   3.179  10.425   8.701 -1.7441  1.6302 -0.7200
  591MOL0     H77963   3.393  10.340   8.607  4.6418 -0.8468 -0.5922
  591MOL0     H77964   3.406  10.349   8.781  0.1254  1.9649  1.3584
  591MOL0     H77965   3.637  10.477   8.865 -0.9164  2.8790  1.4367
  591MOL0     H77966   3.875  10.654   8.818  0.0439  2.1460 -2.6132
  591MOL0     H77967   3.898  10.652   8.646  0.5665 -2.1140 -1.6538
  591MOL0     H77968   4.050  10.486   8.666  1.7875  2.1126  3.2096
  591MOL0     H77969   3.897  10.399   8.645 -0.6317 -0.5639  1.4899
  591MOL0     H77970   4.063  10.453   8.901  1.1326 -0.5079 -0.1407
  591MOL0     H77971   3.898  10.397   8.908  0.2231  0.0624  1.2511
  591MOL0     H77972   3.987  10.192   8.773  2.9975 -1.0341 -0.8737
  591MOL0     H77973   4.083  10.231   8.920 -1.1806  1.1464  1.4088
  591MOL0     H77974   4.211  10.070   8.895 -0.1009  0.3328 -1.3745
  591MOL0     H77975   4.449   9.958   8.943  2.7762  0.1635 -0.7710
  591MOL0     H77976   4.966  10.139   8.872  1.6220  0.6758  0.0917
  591MOL0     H77977   5.180  10.005   8.895  0.0214  2.0337 -0.1865
  591MOL0     H77978   5.220   9.642   8.677  2.0778  0.3971 -0.5789
  591MOL0     H77979   5.205   9.653   8.852 -1.5663  0.8706 -1.2510
  591MOL0     H77980   5.414   9.543   8.811  2.8155  0.0341  1.1325
  591MOL0     H77981   5.434   9.700   8.888 -0.7677 -0.5664 -0.2786
  591MOL0     H77982   5.603   9.667   8.718 -0.1519  0.6108 -1.6441
  591MOL0     H77983   5.516   9.807   8.714 -1.7687 -0.3062  1.4612
  591MOL0     H77984   5.443   9.574   8.541 -1.1169  0.3381 -2.8593
  591MOL0     H77985   5.395   9.755   8.522  0.5668  1.0868  2.9078
  591MOL0     H77986   5.649   9.592   8.490 -3.2887 -1.1419 -0.0197
  591MOL0     H77987   5.654   9.776   8.487  0.1381  0.4894 -0.7886
  591MOL0     H77988   5.540   9.761   8.266  0.8594  1.0610 -0.7826
  591MOL0     H77989   5.555   9.583   8.263  3.1048 -0.6700 -3.2857
  591MOL0     H77990   5.789   9.598   8.270 -1.6368 -1.2872 -2.1011
  591MOL0     H77991   5.731   9.670   8.124  1.0465  3.6693 -1.2772
  591MOL0     H77992   5.894   9.821   8.207  0.0782 -1.9845  1.2797
  591MOL0     H77993   5.805   9.847   8.359 -1.9292 -0.0266  0.3105
  591MOL0     H77994   5.082   9.770   8.564  0.7661 -0.8956  1.4961
  591MOL0     H77995   4.858   9.883   8.546  1.3789 -2.7730  0.3370
  591MOL0     H77996   4.587  10.160   8.598  0.3596 -4.1604  0.7681
  591MOL0     H77997   4.381  10.300   8.583  1.8279 -1.2529 -1.3047
  591MOL0     H77998   2.670  10.613   8.006  0.6642  0.8832  1.2137
  591MOL0     H77999   2.450  10.593   7.885  1.2978 -0.3831 -0.3085
  591MOL0     H78000   2.006  10.645   7.881  0.6508 -1.5509 -1.6052
  591MOL0     H78001   1.783  10.646   7.752 -0.6523  1.4169  2.5198
  591MOL0     H78002   1.764  10.827   7.401  0.3734 -3.3986 -0.3304
  591MOL0     H78003   1.590  10.824   7.425 -1.0333  0.9878  2.8525
  591MOL0     H78004   1.698  10.609   7.341  1.4156 -0.2763  1.2500
  591MOL0     H78005   1.787  10.598   7.483 -0.9170 -0.7391  1.2117
  591MOL0     H78006   1.486  10.605   7.467 -0.5952 -3.0671 -0.8507
  591MOL0     H78007   1.573  10.625   7.612 -0.7248  0.9420 -0.9592
  591MOL0     H78008   1.689  10.398   7.567  2.1664 -2.3095 -1.8519
  591MOL0     H78009   1.510  10.392   7.569 -0.0048  2.9692  1.0396
  591MOL0     H78010   1.668  10.236   7.206  1.0601 -0.3949  1.0182
  591MOL0     H78011   1.882  11.027   7.567  1.9896  0.7649 -0.1954
  591MOL0     H78012   2.063  11.040   7.719  0.2979 -0.2345  0.5197
  592MOL0     O78013   5.843   4.997   9.007 -0.2526 -0.9035  0.0504
  592MOL0     C78014   5.867   4.908   8.916 -0.4934 -0.6881 -0.0942
  592MOL0     O78015   5.788   4.886   8.811 -0.1297  0.1876  0.1219
  592MOL0     C78016   5.659   4.907   8.814 -1.2627 -0.0994  1.1160
  592MOL0     C78017   5.568   4.893   8.923  0.6931 -0.6384 -0.8914
  592MOL0     C78018   5.434   4.935   8.922  0.5632  0.0462 -0.3074
  592MOL0     C78019   5.396   4.985   8.799 -0.3850  0.2520  0.3690
  592MOL0     O78020   5.270   5.024   8.762 -0.3668 -0.2196  0.6294
  592MOL0     C78021   5.175   5.049   8.856  0.0671 -0.0265 -0.2717
  592MOL0     C78022   5.092   4.921   8.878  0.3387 -0.1079 -0.6776
  592MOL0     C78023   5.007   4.944   9.008  0.8325 -0.0872 -0.3539
  592MOL0     C78024   4.957   4.813   9.075 -1.1336 -0.7865 -0.7515
  592MOL0     C78025   4.991   4.844   9.226 -0.0295  0.4929 -0.1319
  592MOL0     C78026   4.935   4.742   9.328 -0.2942  0.3623 -0.2260
  592MOL0     C78027   4.958   4.797   9.465  0.5132 -0.0040 -0.2429
  592MOL0     C78028   4.892   4.712   9.568  0.2563  0.5897  0.1971
  592MOL0     N78029   4.885   4.767   9.699 -0.7905  0.4156  1.3633
  592MOL0     C78030   4.812   4.719   9.798  0.2425 -1.0612  0.5584
  592MOL0     C78031   4.840   4.785   9.900 -0.1227  0.7579 -0.3925
  592MOL0     C78032   4.761   4.798  10.036 -0.2406 -0.7454 -0.2285
  592MOL0     C78033   4.612   4.828  10.046  0.0591 -0.9054  0.3001
  592MOL0     C78034   4.557   4.943   9.970 -0.2385  0.1905  0.6607
  592MOL0     C78035   4.434   4.886   9.892  1.1063  0.6153  0.3169
  592MOL0     O78036   4.472   4.784   9.797  0.2808 -0.6596 -0.6292
  592MOL0     C78037   4.379   4.726   9.725 -0.0026  0.3129 -0.1559
  592MOL0     C78038   4.240   4.739   9.735 -0.1804 -0.0005  0.0610
  592MOL0     C78039   4.143   4.653   9.677  0.0119 -0.1363 -0.5283
  592MOL0     C78040   4.183   4.565   9.582  0.3668 -0.1305  0.4659
  592MOL0     C78041   4.080   4.480   9.509 -0.3946 -0.0878  0.2968
  592MOL0     O78042   4.132   4.385   9.435  0.4561 -0.3357  0.1364
  592MOL0     C78043   4.054   4.305   9.355 -0.8669 -0.7281  0.0151
  592MOL0     C78044   4.105   4.190   9.305 -0.1009  1.3364  0.3900
  592MOL0     C78045   4.034   4.097   9.223  0.0846  0.0518  0.4920
  592MOL0     C78046   3.901   4.123   9.192 -0.3524  0.4905  0.5230
  592MOL0     O78047   3.804   4.036   9.137  0.4578 -0.0260 -0.3039
  592MOL0     C78048   3.852   3.924   9.066 -0.0640 -0.1747 -1.1606
  592MOL0     C78049   3.726   3.849   9.015 -0.7554  0.0884 -0.6459
  592MOL0     C78050   3.658   3.764   9.124  0.0732 -0.3428 -0.0949
  592MOL0     C78051   3.512   3.790   9.117  0.1882 -0.0578 -0.6738
  592MOL0     C78052   3.430   3.691   9.035  0.1515 -1.1095 -0.0696
  592MOL0     C78053   3.292   3.746   9.001 -0.4844 -0.6391 -0.3180
  592MOL0     C78054   3.292   3.876   8.911  0.6912  0.5779  0.2810
  592MOL0     C78055   3.163   3.890   8.836  0.1184 -0.2946  0.2205
  592MOL0    Cl78056   3.120   3.746   8.740  0.0574 -0.2397 -0.0021
  592MOL0     C78057   3.842   4.240   9.241 -0.6709 -0.6079  0.2673
  592MOL0     C78058   3.922   4.328   9.317  0.5945  0.4925  0.5621
  592MOL0     O78059   3.965   4.501   9.538  0.1584 -0.7883  0.5675
  592MOL0     C78060   4.320   4.542   9.558 -0.8828  0.8552 -0.3225
  592MOL0     C78061   4.418   4.615   9.638  0.0528 -0.8785  0.5334
  592MOL0     N78062   4.944   4.872   9.873  0.0156  0.4227 -0.9152
  592MOL0     N78063   4.972   4.860   9.748 -0.2896 -0.1084 -0.4829
  592MOL0     C78064   5.483   5.018   8.694  0.6270  0.1378  0.0703
  592MOL0     C78065   5.607   4.967   8.703  0.8895  0.1789  0.3088
  592MOL0     C78066   5.973   4.813   8.945 -0.0473  0.4246  0.5054
  592MOL0     C78067   6.047   4.830   9.060  0.2358 -0.4445 -0.5658
  592MOL0     C78068   6.153   4.735   9.082 -0.2129 -0.6411  0.5639
  592MOL0     C78069   6.175   4.634   8.990  0.0297  0.9037 -0.3687
  592MOL0     O78070   6.285   4.562   9.017 -0.1975 -0.1667  0.0290
  592MOL0     C78071   6.350   4.488   8.912 -0.2092 -0.6732 -0.6515
  592MOL0     C78072   6.434   4.586   8.830  0.5299  1.2245 -0.3192
  592MOL0     C78073   6.533   4.515   8.738 -0.0613  0.1763  0.1428
  592MOL0     C78074   6.679   4.550   8.786  0.4489  0.1254 -0.1328
  592MOL0     C78075   6.710   4.480   8.908 -0.1240 -0.5960  1.1989
  592MOL0     C78076   6.723   4.378   8.970  0.0467  0.1633  0.2564
  592MOL0     C78077   6.095   4.617   8.882 -0.3025  0.3055 -1.1346
  592MOL0     C78078   5.993   4.708   8.851 -0.9815  1.0122 -0.5363
  592MOL0     H78079   5.617   4.853   9.011 -0.2255 -0.1770 -0.1599
  592MOL0     H78080   5.369   4.903   9.002  1.4013  3.1050  1.7632
  592MOL0     H78081   5.094   5.116   8.827  0.2999  1.6775  2.6127
  592MOL0     H78082   5.221   5.095   8.944 -1.2831  0.0466  0.4194
  592MOL0     H78083   5.146   4.826   8.884 -3.4448 -2.4170  1.8611
  592MOL0     H78084   5.028   4.915   8.790  0.1136  0.0752 -0.5276
  592MOL0     H78085   4.922   5.009   8.987  0.7142 -0.4439 -0.9855
  592MOL0     H78086   5.069   5.004   9.076 -2.7524  0.7479  2.4625
  592MOL0     H78087   4.850   4.796   9.063 -1.4158  0.8581 -0.8575
  592MOL0     H78088   5.011   4.726   9.039  2.1969  1.0296 -0.5902
  592MOL0     H78089   4.954   4.946   9.243  1.2690  0.9025  0.3447
  592MOL0     H78090   5.099   4.857   9.236  0.2496 -0.9315 -1.0440
  592MOL0     H78091   4.990   4.649   9.316 -1.5836 -0.3006 -1.3173
  592MOL0     H78092   4.828   4.727   9.310 -0.4818  1.2455  0.1165
  592MOL0     H78093   5.064   4.820   9.477  0.7856  1.1642 -3.6927
  592MOL0     H78094   4.891   4.884   9.470 -1.7044 -1.6806  1.4657
  592MOL0     H78095   4.937   4.613   9.575 -1.6833 -0.3062  0.4858
  592MOL0     H78096   4.791   4.697   9.529  0.3471 -0.0877  0.2199
  592MOL0     H78097   4.729   4.648   9.795  0.2964 -1.1301  0.6982
  592MOL0     H78098   4.802   4.887  10.083 -0.7572  0.5101 -2.0427
  592MOL0     H78099   4.773   4.708  10.097  0.9494 -0.1496  0.4468
  592MOL0     H78100   4.583   4.827  10.151 -4.2679 -1.8461 -0.7006
  592MOL0     H78101   4.583   4.731  10.004  0.7217 -2.2432  2.7682
  592MOL0     H78102   4.539   5.027  10.038  3.0203  1.7397 -0.1368
  592MOL0     H78103   4.626   4.985   9.896 -0.6788 -3.0051 -1.7758
  592MOL0     H78104   4.392   4.972   9.840  3.2155  1.4441 -0.1392
  592MOL0     H78105   4.367   4.840   9.965  1.2180 -1.1863 -0.6670
  592MOL0     H78106   4.208   4.815   9.805 -2.0159  0.4853 -1.2180
  592MOL0     H78107   4.039   4.661   9.708 -0.0519  4.6182 -1.2406
  592MOL0     H78108   4.206   4.173   9.339  0.2173  0.1787 -1.0494
  592MOL0     H78109   4.084   4.008   9.188 -2.1508 -0.0991 -2.7569
  592MOL0     H78110   3.919   3.864   9.128  2.5872  2.8589 -0.7986
  592MOL0     H78111   3.921   3.951   8.985  1.6832  0.3378  0.4197
  592MOL0     H78112   3.754   3.783   8.933 -1.5488 -1.9675  0.6322
  592MOL0     H78113   3.651   3.914   8.969  0.2225 -0.2357 -2.8018
  592MOL0     H78114   3.698   3.779   9.224  2.0710 -2.7363 -0.4473
  592MOL0     H78115   3.684   3.660   9.106  2.4808  0.2274 -0.2411
  592MOL0     H78116   3.463   3.792   9.215 -2.9283  1.1847 -2.1077
  592MOL0     H78117   3.495   3.889   9.073 -0.8709 -0.1032 -0.3971
  592MOL0     H78118   3.419   3.595   9.086  3.7178 -0.3558  2.5417
  592MOL0     H78119   3.484   3.687   8.940 -0.5330  1.6839 -0.6705
  592MOL0     H78120   3.247   3.770   9.097 -0.6752  3.2827 -1.2163
  592MOL0     H78121   3.239   3.662   8.955 -0.1258 -1.9977  1.6367
  592MOL0     H78122   3.314   3.962   8.974  2.6091  0.0529  0.4102
  592MOL0     H78123   3.371   3.866   8.835 -0.5908  0.8029 -1.1409
  592MOL0     H78124   3.155   3.983   8.778 -1.3270 -0.9596 -0.7088
  592MOL0     H78125   3.085   3.913   8.909  0.7323  1.9815  0.2309
  592MOL0     H78126   3.742   4.274   9.216 -0.5842 -0.0876  0.6050
  592MOL0     H78127   3.875   4.424   9.333 -1.7661 -0.6025  0.5546
  592MOL0     H78128   4.354   4.455   9.504 -2.1270  1.7589 -2.6955
  592MOL0     H78129   4.520   4.579   9.647  0.0517 -0.8659  0.5987
  592MOL0     H78130   5.448   5.079   8.611 -2.5359 -2.7169 -0.9256
  592MOL0     H78131   5.671   4.968   8.614 -0.7781  2.0858 -0.9422
  592MOL0     H78132   6.039   4.905   9.138  3.6064 -1.9360  1.4342
  592MOL0     H78133   6.227   4.736   9.162  5.1265 -1.8277 -3.7068
  592MOL0     H78134   6.280   4.429   8.852 -0.3702 -0.7225 -0.4165
  592MOL0     H78135   6.412   4.422   8.974  0.7792  1.3264  0.5895
  592MOL0     H78136   6.363   4.645   8.771 -0.0175 -0.0234 -0.9512
  592MOL0     H78137   6.491   4.649   8.900  1.3951  0.5884 -0.4304
  592MOL0     H78138   6.516   4.535   8.632 -1.9773 -0.5716  0.2706
  592MOL0     H78139   6.508   4.408   8.745 -1.8116  0.4609 -1.1252
  592MOL0     H78140   6.751   4.512   8.713  1.8255  1.4070  0.5072
  592MOL0     H78141   6.700   4.658   8.792  3.4108 -0.4077  0.8653
  592MOL0     H78142   6.742   4.282   9.014 -1.0930 -0.7204 -1.0902
  592MOL0     H78143   6.096   4.529   8.818  0.5103 -0.9219  0.4723
  592MOL0     H78144   5.941   4.694   8.757  1.4565  1.4316 -2.0401
  593MOL0     O78145  10.807   3.037  11.335  0.8133 -1.1583 -0.0079
  593MOL0     C78146  10.744   3.110  11.259  0.1506  0.2508 -0.5955
  593MOL0     O78147  10.764   3.136  11.122  0.0239 -0.5313  0.3545
  593MOL0     C78148  10.888   3.099  11.070  0.1194 -0.4320 -0.2101
  593MOL0     C78149  11.013   3.134  11.134 -0.6334 -0.1631  0.0758
  593MOL0     C78150  11.128   3.091  11.070  0.1394 -0.1126 -0.4656
  593MOL0     C78151  11.133   3.032  10.938 -0.5473 -0.9252  0.7482
  593MOL0     O78152  11.251   3.008  10.867  0.0059 -0.4592 -0.1431
  593MOL0     C78153  11.281   2.867  10.845  0.8984  0.6382 -1.0635
  593MOL0     C78154  11.434   2.864  10.826  0.7880  0.1192  0.1984
  593MOL0     C78155  11.513   2.897  10.951 -0.9869 -0.2399 -0.3375
  593MOL0     C78156  11.663   2.907  10.915 -0.0423 -0.1191  0.4720
  593MOL0     C78157  11.754   2.989  11.004  0.4093  0.0308  0.8814
  593MOL0     C78158  11.762   3.135  10.979 -1.6430 -0.2146 -1.1105
  593MOL0     C78159  11.874   3.200  11.059  0.5576  0.2717  0.1247
  593MOL0     C78160  11.850   3.344  11.038 -0.0788 -0.4865 -0.7014
  593MOL0     N78161  11.962   3.429  11.090  0.4859 -0.3732  1.2189
  593MOL0     C78162  11.984   3.558  11.047 -0.1211  0.3791  0.3422
  593MOL0     C78163  12.040   3.626  11.150  0.7491  0.0836 -0.7053
  593MOL0     C78164  12.037   3.777  11.156 -0.4912 -0.7907 -0.0448
  593MOL0     C78165  11.940   3.842  11.256  1.0951  0.8510 -0.5929
  593MOL0     C78166  11.795   3.796  11.224 -0.7924 -0.3715 -0.8923
  593MOL0     C78167  11.704   3.815  11.342  0.2849 -0.2934 -0.2804
  593MOL0     O78168  11.730   3.720  11.455 -0.2820  0.3859  0.0684
  593MOL0     C78169  11.708   3.584  11.449  0.9342 -0.3520  1.0700
  593MOL0     C78170  11.599   3.529  11.386  0.2193  0.4298 -0.5779
  593MOL0     C78171  11.580   3.389  11.367 -0.0394 -0.2148 -0.7639
  593MOL0     C78172  11.681   3.295  11.413 -0.3903  0.7919 -0.4600
  593MOL0     C78173  11.655   3.142  11.411  0.5541  0.6641  0.1359
  593MOL0     O78174  11.752   3.059  11.464  0.6047  0.5348  0.1323
  593MOL0     C78175  11.745   2.924  11.422  0.7173 -0.2218  0.1413
  593MOL0     C78176  11.830   2.876  11.331 -0.1946 -0.4735  0.3920
  593MOL0     C78177  11.811   2.749  11.269 -0.4855  0.2277  0.9234
  593MOL0     C78178  11.705   2.666  11.302  0.5691  0.0407  0.5695
  593MOL0     O78179  11.684   2.531  11.263  0.0936  0.1222 -1.4687
  593MOL0     C78180  11.785   2.475  11.179 -0.2533 -0.5072  0.1161
  593MOL0     C78181  11.760   2.519  11.041  0.2231 -0.4273  0.7867
  593MOL0     C78182  11.614   2.489  10.996  0.8065  0.0119  1.0971
  593MOL0     C78183  11.581   2.506  10.848  0.2667 -0.8933  0.7246
  593MOL0     C78184  11.432   2.488  10.822  0.0704  0.0359  0.6477
  593MOL0     C78185  11.391   2.343  10.805 -0.7059 -0.0801 -0.7815
  593MOL0     C78186  11.249   2.346  10.755 -0.7745  0.5687  0.2759
  593MOL0     C78187  11.215   2.208  10.707  0.2161 -0.7210  0.2243
  593MOL0    Cl78188  11.063   2.196  10.616  0.1233  0.1208  0.1296
  593MOL0     C78189  11.619   2.717  11.397 -0.1050  0.3216 -0.6305
  593MOL0     C78190  11.637   2.842  11.456 -0.1107  0.9321 -0.0582
  593MOL0     O78191  11.549   3.100  11.358 -0.6278  0.1336  0.4931
  593MOL0     C78192  11.792   3.349  11.484  0.1414 -0.1243 -0.7018
  593MOL0     C78193  11.800   3.492  11.503 -0.4967  0.9274 -1.2360
  593MOL0     N78194  12.052   3.536  11.245  0.3993  0.6703 -0.4105
  593MOL0     N78195  12.007   3.418  11.212 -0.0788 -1.6886 -0.1697
  593MOL0     C78196  11.009   3.011  10.873 -0.3263 -0.5007 -0.5324
  593MOL0     C78197  10.887   3.043  10.941 -0.0817  0.4280  0.2001
  593MOL0     C78198  10.630   3.164  11.338  0.6487 -1.1941 -0.3146
  593MOL0     C78199  10.593   3.126  11.474  0.1864 -0.1586  0.5554
  593MOL0     C78200  10.488   3.192  11.547 -0.5131  0.3846 -0.1357
  593MOL0     C78201  10.422   3.305  11.487 -0.0486 -0.3120 -0.3067
  593MOL0     O78202  10.311   3.374  11.535  0.3437  0.3212  0.2421
  593MOL0     C78203  10.237   3.314  11.638  0.6423  0.0527 -0.8467
  593MOL0     C78204  10.176   3.186  11.585  1.0391  0.7250  0.5031
  593MOL0     C78205  10.071   3.108  11.678 -0.1565  0.5627 -0.4921
  593MOL0     C78206   9.961   3.205  11.731  1.0225  0.6820 -1.7182
  593MOL0     C78207   9.845   3.130  11.791  0.7436  0.2711  0.1318
  593MOL0     C78208   9.745   3.061  11.799  0.5746 -0.1271  1.1181
  593MOL0     C78209  10.464   3.344  11.358  0.0337  0.1253  0.3215
  593MOL0     C78210  10.562   3.278  11.287 -0.2973  1.1114 -0.9218
  593MOL0     H78211  11.013   3.184  11.230 -1.6444 -0.8238  0.4410
  593MOL0     H78212  11.222   3.114  11.119  2.5156 -1.6482 -3.8366
  593MOL0     H78213  11.221   2.840  10.757 -3.7300 -2.7637  2.5916
  593MOL0     H78214  11.254   2.804  10.930 -4.1208  1.3993 -1.7795
  593MOL0     H78215  11.460   2.930  10.743  2.9948 -2.2950 -1.1854
  593MOL0     H78216  11.463   2.763  10.795  0.2318 -0.4134  1.3635
  593MOL0     H78217  11.504   2.811  11.018 -1.3193 -0.1670 -0.2923
  593MOL0     H78218  11.481   2.996  10.985 -5.0161  0.4698 -5.1340
  593MOL0     H78219  11.707   2.808  10.928  0.5259  0.0107 -0.3662
  593MOL0     H78220  11.677   2.930  10.809 -2.7984  0.1417  0.0837
  593MOL0     H78221  11.852   2.947  10.979 -0.3485 -0.5180 -1.4865
  593MOL0     H78222  11.723   2.968  11.106 -2.3864 -1.4109 -0.1464
  593MOL0     H78223  11.664   3.175  11.010 -0.4359  3.2769 -1.3087
  593MOL0     H78224  11.778   3.160  10.874 -0.4573  0.0161 -0.8906
  593MOL0     H78225  11.866   3.169  11.163  0.5789 -0.9786 -0.2357
  593MOL0     H78226  11.965   3.157  11.016 -0.2006 -0.9246 -0.3413
  593MOL0     H78227  11.762   3.375  11.096 -1.0343 -0.5444 -2.0735
  593MOL0     H78228  11.846   3.359  10.930 -0.1280 -0.7035 -0.7304
  593MOL0     H78229  11.955   3.596  10.949  1.0241 -3.1164 -1.5498
  593MOL0     H78230  12.014   3.815  11.056  0.6958  2.5763  0.8244
  593MOL0     H78231  12.138   3.814  11.175 -0.5041 -0.1876 -1.0244
  593MOL0     H78232  11.939   3.952  11.256 -0.9307  0.8666 -0.0376
  593MOL0     H78233  11.982   3.815  11.353  3.6832  0.2203 -1.8007
  593MOL0     H78234  11.758   3.845  11.134  1.7059  0.5126 -1.5339
  593MOL0     H78235  11.810   3.690  11.200  2.2422 -0.2943  0.1356
  593MOL0     H78236  11.600   3.826  11.311 -0.1107  3.0024  1.7103
  593MOL0     H78237  11.726   3.911  11.390 -0.3474  0.2757 -1.0952
  593MOL0     H78238  11.525   3.584  11.329 -1.8058  0.2474  1.7068
  593MOL0     H78239  11.483   3.354  11.334 -0.8243 -2.4099  3.2437
  593MOL0     H78240  11.919   2.938  11.323  0.8496 -2.1566 -2.7806
  593MOL0     H78241  11.895   2.714  11.209 -0.0544 -2.7339  3.0289
  593MOL0     H78242  11.776   2.366  11.179 -1.0459 -0.4638  1.4093
  593MOL0     H78243  11.886   2.497  11.214  1.0155 -4.3058 -0.6853
  593MOL0     H78244  11.830   2.463  10.979 -0.2303 -0.1782  0.0488
  593MOL0     H78245  11.790   2.622  11.023  3.1270 -1.5324 -1.5984
  593MOL0     H78246  11.542   2.545  11.057  0.7462 -0.8099  1.8033
  593MOL0     H78247  11.605   2.383  11.018 -2.6620 -0.4862 -1.8145
  593MOL0     H78248  11.623   2.604  10.826 -0.9941  0.5796  4.1688
  593MOL0     H78249  11.634   2.425  10.796  0.4558 -2.3030  2.9967
  593MOL0     H78250  11.419   2.555  10.736  2.1560  0.3649  0.5325
  593MOL0     H78251  11.373   2.539  10.899 -0.3784  1.8377 -0.8023
  593MOL0     H78252  11.394   2.290  10.900  0.7836  1.4566  0.0864
  593MOL0     H78253  11.462   2.295  10.737  0.4801  0.4285  0.0703
  593MOL0     H78254  11.177   2.375  10.831 -0.7813  2.0139 -0.2476
  593MOL0     H78255  11.243   2.407  10.664 -2.9080  0.5382  0.3560
  593MOL0     H78256  11.209   2.140  10.793 -0.9438  0.4017  1.0694
  593MOL0     H78257  11.293   2.174  10.638  0.0651  2.4866 -1.7273
  593MOL0     H78258  11.544   2.649  11.436  1.1872 -1.6894 -1.4355
  593MOL0     H78259  11.584   2.884  11.541  0.3231 -1.1419  1.2996
  593MOL0     H78260  11.870   3.284  11.523  1.3435 -1.3859 -4.7458
  593MOL0     H78261  11.874   3.549  11.560 -2.0051  2.1391 -0.4001
  593MOL0     H78262  11.010   2.973  10.771  1.4068 -3.9391  0.5928
  593MOL0     H78263  10.793   3.029  10.889  2.5275 -1.4005 -4.6680
  593MOL0     H78264  10.640   3.035  11.510  0.3372 -0.2710  0.0815
  593MOL0     H78265  10.462   3.152  11.645  2.2439  2.8229  1.7449
  593MOL0     H78266  10.147   3.365  11.676  1.1349 -0.7360  1.5415
  593MOL0     H78267  10.307   3.295  11.720 -0.5756 -2.1501 -0.2428
  593MOL0     H78268  10.133   3.214  11.489  1.0690 -1.1425 -0.1022
  593MOL0     H78269  10.247   3.109  11.553 -1.0346 -0.0484 -2.7319
  593MOL0     H78270  10.111   3.057  11.766 -2.6895 -2.8252 -1.1280
  593MOL0     H78271  10.034   3.022  11.622 -0.3260 -0.4492  1.0949
  593MOL0     H78272  10.003   3.278  11.800 -1.3163 -0.4843  1.1605
  593MOL0     H78273   9.915   3.255  11.645  0.2736  0.3042 -1.5449
  593MOL0     H78274   9.658   2.998  11.801  3.1918 -4.1815  0.2106
  593MOL0     H78275  10.420   3.434  11.318  1.0571 -0.1972 -1.6332
  593MOL0     H78276  10.597   3.312  11.189 -0.2941  1.4035 -0.8219
  594MOL0     O78277   3.934   3.233   6.491  0.0630 -0.0803 -1.2054
  594MOL0     C78278   4.011   3.245   6.392 -0.5121 -0.5308  0.6824
  594MOL0     O78279   4.013   3.174   6.274 -0.1314 -0.1346  0.5801
  594MOL0     C78280   3.899   3.104   6.256  0.4240 -0.4133 -0.0745
  594MOL0     C78281   3.767   3.149   6.252  0.2796 -0.4134  1.0638
  594MOL0     C78282   3.655   3.071   6.224 -0.2957  0.2555 -0.7622
  594MOL0     C78283   3.675   2.930   6.205 -0.8079 -0.2657 -0.9562
  594MOL0     O78284   3.567   2.857   6.185 -0.5439  0.2060  0.3577
  594MOL0     C78285   3.577   2.716   6.172 -0.0520  0.9859  1.1388
  594MOL0     C78286   3.440   2.660   6.126 -0.1897 -0.0635 -0.5953
  594MOL0     C78287   3.416   2.510   6.107 -0.2142  0.3128  0.5183
  594MOL0     C78288   3.527   2.450   6.012 -0.5827 -0.4958  0.1496
  594MOL0     C78289   3.533   2.512   5.870  1.3920 -0.9531  0.7252
  594MOL0     C78290   3.613   2.416   5.783 -1.0875  0.1626 -0.3396
  594MOL0     C78291   3.754   2.380   5.834  0.7005  0.8894  0.2817
  594MOL0     C78292   3.825   2.300   5.726  0.8458 -0.2082  0.4787
  594MOL0     N78293   3.741   2.201   5.656  0.1405 -0.7101  0.1911
  594MOL0     C78294   3.696   2.208   5.522  0.8720  0.2430  0.2071
  594MOL0     C78295   3.627   2.094   5.503 -0.5793  0.9429  0.5317
  594MOL0     C78296   3.554   2.044   5.379  0.8136 -0.4488  0.8658
  594MOL0     C78297   3.407   2.084   5.371 -0.3880 -0.0361  0.3380
  594MOL0     C78298   3.330   2.067   5.507  0.8030  0.0368 -1.0545
  594MOL0     C78299   3.174   2.076   5.503 -0.7264 -0.2542  0.1601
  594MOL0     O78300   3.125   1.956   5.437  0.3770  0.3268 -0.3058
  594MOL0     C78301   3.001   1.907   5.434  0.1560 -0.6435  0.1023
  594MOL0     C78302   2.886   1.980   5.463  0.0958  0.0848 -0.8304
  594MOL0     C78303   2.759   1.919   5.452  0.2409  0.0940  0.0304
  594MOL0     C78304   2.744   1.784   5.422 -0.0473  0.3802 -0.9816
  594MOL0     C78305   2.607   1.709   5.422 -0.1660  0.1863  0.1257
  594MOL0     O78306   2.504   1.789   5.448 -0.9464 -0.3813 -0.0167
  594MOL0     C78307   2.378   1.728   5.460 -0.1680  0.7885 -0.0328
  594MOL0     C78308   2.308   1.685   5.343 -1.0102  0.7317 -0.5566
  594MOL0     C78309   2.178   1.635   5.353  0.0199  0.5309 -0.5923
  594MOL0     C78310   2.119   1.617   5.475  0.5636  0.0515  0.0827
  594MOL0     O78311   1.989   1.580   5.487  0.3025 -0.1653  0.8650
  594MOL0     C78312   1.893   1.619   5.393 -0.0994  0.5220 -0.2871
  594MOL0     C78313   1.770   1.543   5.438  0.3262  0.3790  0.1176
  594MOL0     C78314   1.779   1.387   5.436 -0.3314  0.7349 -0.1305
  594MOL0     C78315   1.650   1.319   5.459 -0.6357  0.1204 -0.4829
  594MOL0     C78316   1.652   1.172   5.428  0.7398  0.1599  0.3212
  594MOL0     C78317   1.514   1.103   5.462 -0.9628 -0.1418  0.8952
  594MOL0     C78318   1.396   1.184   5.387  0.6144  0.2641  0.2016
  594MOL0     C78319   1.280   1.081   5.338  0.1157  0.6749  0.5966
  594MOL0    Cl78320   1.230   0.983   5.479 -0.3246 -0.2133 -0.0054
  594MOL0     C78321   2.187   1.658   5.585 -0.2000 -0.0826  0.5683
  594MOL0     C78322   2.317   1.718   5.583 -0.0371  0.7999 -0.3729
  594MOL0     O78323   2.602   1.591   5.388  0.0723 -0.9592 -0.2569
  594MOL0     C78324   2.860   1.719   5.383 -0.0254 -0.4437 -0.5058
  594MOL0     C78325   2.984   1.780   5.385  0.0244 -0.6682 -0.5214
  594MOL0     N78326   3.644   2.010   5.610 -0.5123  0.2028  0.0686
  594MOL0     N78327   3.726   2.068   5.700  0.4968  0.2731  0.1521
  594MOL0     C78328   3.812   2.883   6.186  0.3134 -0.1622 -0.0984
  594MOL0     C78329   3.921   2.973   6.221  0.1551  0.4786 -0.6137
  594MOL0     C78330   4.146   3.306   6.428  0.0931 -0.2498  0.0995
  594MOL0     C78331   4.263   3.249   6.370 -0.8182 -0.1268  0.1419
  594MOL0     C78332   4.388   3.305   6.397 -0.3297  0.3701  1.0136
  594MOL0     C78333   4.390   3.422   6.470  0.3682 -0.4912 -0.2353
  594MOL0     O78334   4.508   3.488   6.494 -0.2780 -0.5713  0.3797
  594MOL0     C78335   4.608   3.428   6.591  0.4402  0.4238  0.8444
  594MOL0     C78336   4.719   3.527   6.584 -0.2104  0.0437 -0.1965
  594MOL0     C78337   4.846   3.485   6.667  0.5081 -0.1292 -0.0794
  594MOL0     C78338   4.945   3.606   6.650  1.1294 -0.4175  1.0904
  594MOL0     C78339   5.077   3.591   6.722  0.1798  0.0755  0.3157
  594MOL0     C78340   5.190   3.597   6.760 -0.3477  0.3133  0.4410
  594MOL0     C78341   4.276   3.480   6.525 -0.6107  0.2674  0.0311
  594MOL0     C78342   4.155   3.423   6.505 -0.8833  0.2044 -0.2820
  594MOL0     H78343   3.747   3.254   6.273 -0.7130 -0.4215  0.1781
  594MOL0     H78344   3.561   3.118   6.251  0.3166 -0.4781  3.3691
  594MOL0     H78345   3.580   2.683   6.277  0.4139  2.0042  1.4611
  594MOL0     H78346   3.655   2.674   6.109 -2.0736 -1.3380 -0.0080
  594MOL0     H78347   3.424   2.720   6.036 -0.1006  0.1483 -0.4689
  594MOL0     H78348   3.371   2.694   6.203  0.2276 -0.3017 -0.1084
  594MOL0     H78349   3.320   2.484   6.063  1.4007 -3.3543 -1.3296
  594MOL0     H78350   3.420   2.447   6.196  0.7092 -0.8971 -0.3466
  594MOL0     H78351   3.630   2.463   6.046  0.0900  1.0569 -2.1872
  594MOL0     H78352   3.515   2.342   6.001 -2.8782 -0.0391 -3.9607
  594MOL0     H78353   3.591   2.604   5.872  2.5092 -1.6277  0.2420
  594MOL0     H78354   3.436   2.528   5.821  2.2204  2.2717 -0.0808
  594MOL0     H78355   3.629   2.465   5.686 -1.4505  2.0711  0.5169
  594MOL0     H78356   3.553   2.328   5.758  0.5152 -0.4632 -2.2793
  594MOL0     H78357   3.814   2.471   5.839  2.2056 -0.1202  2.4185
  594MOL0     H78358   3.760   2.319   5.925  2.9362 -0.4840 -0.7137
  594MOL0     H78359   3.901   2.246   5.783  0.3669  0.3768  1.7122
  594MOL0     H78360   3.877   2.369   5.660  0.8172 -1.2871 -0.7193
  594MOL0     H78361   3.702   2.289   5.450  3.0516 -0.0295 -0.0098
  594MOL0     H78362   3.554   1.935   5.377  0.2828 -0.4802 -2.1721
  594MOL0     H78363   3.614   2.073   5.292 -0.3979 -0.8058 -0.1151
  594MOL0     H78364   3.345   2.042   5.291 -0.4634 -1.1845  0.9881
  594MOL0     H78365   3.391   2.189   5.343 -1.3926 -0.8001 -2.2268
  594MOL0     H78366   3.351   1.965   5.540 -1.0856  0.9432  3.9467
  594MOL0     H78367   3.363   2.137   5.584 -2.1910  1.9445 -1.3362
  594MOL0     H78368   3.133   2.168   5.460  1.9108 -0.2842 -2.7508
  594MOL0     H78369   3.139   2.065   5.606 -3.8981  0.5509 -0.6970
  594MOL0     H78370   2.891   2.084   5.492  2.5836  0.0774 -0.9871
  594MOL0     H78371   2.676   1.976   5.493  1.4753 -0.0681  3.0306
  594MOL0     H78372   2.356   1.690   5.246  2.4681 -5.9020  0.2523
  594MOL0     H78373   2.135   1.612   5.256 -0.5429  1.7749 -0.6651
  594MOL0     H78374   1.920   1.585   5.292 -1.2784  0.5635 -0.6333
  594MOL0     H78375   1.888   1.728   5.395  0.6173  0.5555  0.0680
  594MOL0     H78376   1.682   1.570   5.378  0.6969  0.6962 -0.2946
  594MOL0     H78377   1.750   1.570   5.542  1.6120 -1.0637  0.7770
  594MOL0     H78378   1.847   1.348   5.513 -0.1123 -1.0882 -1.2046
  594MOL0     H78379   1.820   1.349   5.343  0.3986  1.9563 -0.3179
  594MOL0     H78380   1.624   1.327   5.565 -1.2404 -2.3937 -0.3793
  594MOL0     H78381   1.569   1.359   5.397 -2.6921 -2.1139  0.5924
  594MOL0     H78382   1.731   1.111   5.474  1.8669 -0.2003 -1.9395
  594MOL0     H78383   1.677   1.158   5.323  0.5144 -0.0335  0.2931
  594MOL0     H78384   1.501   1.107   5.571  0.9505  2.1657  1.1187
  594MOL0     H78385   1.530   0.999   5.432  5.2048  1.2404 -2.2481
  594MOL0     H78386   1.356   1.264   5.450 -2.6031 -0.1267 -1.1521
  594MOL0     H78387   1.431   1.228   5.293  2.0151 -0.7598  0.1968
  594MOL0     H78388   1.336   1.014   5.272  0.0190  1.4179 -0.2615
  594MOL0     H78389   1.204   1.140   5.287 -0.9159 -2.2974 -1.5933
  594MOL0     H78390   2.141   1.638   5.682  0.6444 -1.1019  0.7747
  594MOL0     H78391   2.373   1.745   5.671  0.6662 -1.3330 -0.1059
  594MOL0     H78392   2.868   1.617   5.346  6.7638 -0.4662 -0.2715
  594MOL0     H78393   3.076   1.729   5.360  0.4240  0.6561 -1.8884
  594MOL0     H78394   3.838   2.780   6.164 -0.1571  0.2603 -3.0314
  594MOL0     H78395   4.021   2.930   6.224  0.8591  2.1248  1.5332
  594MOL0     H78396   4.262   3.163   6.304  0.2368  0.1790 -0.3046
  594MOL0     H78397   4.475   3.253   6.358 -1.2660 -1.9554  1.8745
  594MOL0     H78398   4.639   3.336   6.542 -1.1112  0.3268 -0.0274
  594MOL0     H78399   4.569   3.407   6.692  0.8190  1.8617  1.3162
  594MOL0     H78400   4.746   3.561   6.483 -2.7470  2.8778 -0.0633
  594MOL0     H78401   4.683   3.617   6.634  0.6872  0.4670 -0.2916
  594MOL0     H78402   4.882   3.389   6.630 -1.5648 -0.6708 -0.8129
  594MOL0     H78403   4.823   3.479   6.774  1.6059 -3.4191  0.0815
  594MOL0     H78404   4.971   3.628   6.546  2.3329 -1.2655  1.1939
  594MOL0     H78405   4.904   3.702   6.681  1.6252  1.3327 -3.0819
  594MOL0     H78406   5.286   3.612   6.806 -0.0997 -0.5596  0.2148
  594MOL0     H78407   4.268   3.572   6.582 -2.6093  0.3367 -0.3018
  594MOL0     H78408   4.068   3.474   6.545 -0.4181  0.4659  0.4270
  595MOL0     O78409   7.677   4.866  10.046 -0.3605 -0.0812  0.2334
  595MOL0     C78410   7.667   4.962  10.112  0.0931 -0.5744 -0.2684
  595MOL0     O78411   7.582   5.068  10.089  0.2015 -0.2499  0.6722
  595MOL0     C78412   7.519   5.096   9.971 -0.4522  0.1555  0.1318
  595MOL0     C78413   7.586   5.065   9.844  0.0563 -0.4274 -0.0578
  595MOL0     C78414   7.519   5.092   9.726 -0.1371  0.2785  0.1569
  595MOL0     C78415   7.386   5.149   9.729 -0.1775  0.4095  0.6430
  595MOL0     O78416   7.320   5.162   9.612 -0.0236 -0.0880  0.4252
  595MOL0     C78417   7.193   5.093   9.611  0.7723  1.0370  0.6243
  595MOL0     C78418   7.199   4.983   9.503  0.3660  0.2869 -0.0914
  595MOL0     C78419   7.281   4.847   9.533  0.6375  0.5002 -0.9938
  595MOL0     C78420   7.204   4.740   9.624  0.0178 -0.5895 -0.0467
  595MOL0     C78421   7.283   4.618   9.665  0.2545 -0.4424 -0.0229
  595MOL0     C78422   7.369   4.639   9.797 -0.1778 -0.4283 -0.2385
  595MOL0     C78423   7.518   4.610   9.778 -0.5861  0.2643  0.5297
  595MOL0     C78424   7.587   4.709   9.690 -0.1463  0.0120  0.6384
  595MOL0     N78425   7.730   4.666   9.685  0.3854 -0.1031 -0.3134
  595MOL0     C78426   7.809   4.660   9.798 -0.1497 -0.3829  0.9185
  595MOL0     C78427   7.919   4.589   9.754  1.1017  0.1274 -1.0427
  595MOL0     C78428   8.036   4.550   9.834  0.3886 -0.3922  0.1990
  595MOL0     C78429   8.003   4.411   9.885  0.2339  0.3047 -0.3406
  595MOL0     C78430   8.101   4.344   9.987 -0.0860 -0.1976 -0.0593
  595MOL0     C78431   8.059   4.201  10.011 -0.1767 -0.3029  0.3587
  595MOL0     O78432   7.917   4.187  10.051 -0.5736 -0.1686 -0.2250
  595MOL0     C78433   7.879   4.160  10.179 -0.1819 -1.2105 -0.2431
  595MOL0     C78434   7.972   4.181  10.286 -0.1801 -0.0764  0.7815
  595MOL0     C78435   7.932   4.147  10.414  0.1545 -0.1097  0.3043
  595MOL0     C78436   7.806   4.101  10.442  0.7037 -0.2692 -0.5756
  595MOL0     C78437   7.783   4.056  10.587 -0.1392  0.3343  0.0485
  595MOL0     O78438   7.670   3.985  10.613  0.5329 -0.2315 -0.1677
  595MOL0     C78439   7.659   3.948  10.745  0.3428 -0.5255  0.6335
  595MOL0     C78440   7.644   4.050  10.845  0.4549 -0.2092  0.0644
  595MOL0     C78441   7.634   4.006  10.976 -0.1646  0.2700 -0.5730
  595MOL0     C78442   7.614   3.872  11.007  0.4793  0.1861 -0.0844
  595MOL0     O78443   7.590   3.837  11.144  0.3702 -0.3562 -0.1537
  595MOL0     C78444   7.497   3.734  11.166  0.7057  0.4447 -0.6868
  595MOL0     C78445   7.394   3.752  11.283 -0.3495 -0.3723 -1.0344
  595MOL0     C78446   7.260   3.834  11.256 -0.7572  0.2456 -0.5175
  595MOL0     C78447   7.311   3.973  11.198  0.2338 -0.4339  0.4387
  595MOL0     C78448   7.192   4.071  11.194 -0.3536  0.9490 -1.2704
  595MOL0     C78449   7.235   4.208  11.140  0.2386  0.3792  0.7796
  595MOL0     C78450   7.263   4.198  10.983  0.0303 -0.2572  0.2341
  595MOL0     C78451   7.292   4.341  10.935 -0.0342 -0.6298  0.0797
  595MOL0    Cl78452   7.392   4.340  10.795 -0.1640 -0.1283 -0.1591
  595MOL0     C78453   7.620   3.774  10.907  0.5715 -0.0439 -0.9184
  595MOL0     C78454   7.640   3.814  10.779  0.1627 -0.6308  0.1245
  595MOL0     O78455   7.872   4.074  10.671 -0.0557 -0.3001  0.6946
  595MOL0     C78456   7.710   4.084  10.335 -0.1931  0.0566 -0.9472
  595MOL0     C78457   7.746   4.114  10.205 -0.7234 -0.4170  0.3069
  595MOL0     N78458   7.889   4.544   9.628  0.5316  0.9630  0.1717
  595MOL0     N78459   7.777   4.586   9.582  0.8076 -0.1790 -0.2521
  595MOL0     C78460   7.323   5.171   9.848  0.2207  1.0503  0.9652
  595MOL0     C78461   7.388   5.147   9.971 -1.6066 -0.5941 -0.3366
  595MOL0     C78462   7.735   4.978  10.240  0.1718  0.5073 -0.3603
  595MOL0     C78463   7.696   5.067  10.334  0.7139 -0.6929 -0.5941
  595MOL0     C78464   7.774   5.094  10.446 -0.1179  0.2494 -0.8817
  595MOL0     C78465   7.881   5.008  10.468  0.0573 -0.9674 -0.0808
  595MOL0     O78466   7.941   5.028  10.587 -0.0289 -0.0691  0.5292
  595MOL0     C78467   8.032   4.928  10.635 -0.1301 -0.2057  0.2828
  595MOL0     C78468   8.077   4.949  10.771  0.1772 -0.2865 -0.8230
  595MOL0     C78469   8.169   4.840  10.810 -0.1666  0.8512  0.3149
  595MOL0     C78470   8.317   4.887  10.791 -1.4696  0.0494 -0.2854
  595MOL0     C78471   8.343   4.974  10.901  0.0864 -0.1861 -0.4766
  595MOL0     C78472   8.383   5.042  10.997  0.2780 -0.4628  0.6087
  595MOL0     C78473   7.924   4.916  10.376 -0.6333 -0.1943  1.1769
  595MOL0     C78474   7.846   4.895  10.261 -0.3088 -0.7544  0.6504
  595MOL0     H78475   7.688   5.028   9.846 -0.9997 -3.8692 -1.6612
  595MOL0     H78476   7.563   5.056   9.633 -1.0701 -1.1172  0.2132
  595MOL0     H78477   7.109   5.159   9.588 -0.4588 -0.9151 -0.8433
  595MOL0     H78478   7.169   5.040   9.704  0.7125 -0.5888 -0.2763
  595MOL0     H78479   7.253   5.025   9.418 -2.1173  3.9140 -0.0683
  595MOL0     H78480   7.101   4.953   9.465 -0.0288  1.3866  0.0346
  595MOL0     H78481   7.376   4.883   9.572  0.1188  3.1032 -1.9007
  595MOL0     H78482   7.292   4.805   9.433  2.1202  2.2941 -1.6350
  595MOL0     H78483   7.184   4.793   9.717 -0.7637  1.7704 -1.4557
  595MOL0     H78484   7.110   4.712   9.574  1.2619 -1.0685 -2.2275
  595MOL0     H78485   7.339   4.579   9.579 -2.9021  0.6255 -2.7871
  595MOL0     H78486   7.218   4.538   9.701 -0.1215  0.4161  1.2636
  595MOL0     H78487   7.327   4.580   9.879  3.2717 -1.3204  1.0656
  595MOL0     H78488   7.360   4.742   9.833  1.7607 -0.1061 -0.5508
  595MOL0     H78489   7.568   4.601   9.875  2.1429 -0.3112 -0.8430
  595MOL0     H78490   7.527   4.515   9.725  0.6785  0.7878 -0.2427
  595MOL0     H78491   7.561   4.810   9.723 -2.5514  0.1682 -1.4032
  595MOL0     H78492   7.544   4.686   9.592  0.1768  0.4952  0.3800
  595MOL0     H78493   7.789   4.697   9.898  2.8268 -0.4450  1.6520
  595MOL0     H78494   8.060   4.617   9.916 -2.9913  0.0064  1.0352
  595MOL0     H78495   8.118   4.543   9.762  0.2283  2.3017 -0.3505
  595MOL0     H78496   7.997   4.349   9.795  0.7791  0.0827 -0.2260
  595MOL0     H78497   7.909   4.414   9.941  0.3491 -0.1446 -0.1152
  595MOL0     H78498   8.207   4.353   9.959  0.5094  0.7641  2.2861
  595MOL0     H78499   8.090   4.397  10.082 -0.7224 -1.6131  0.6791
  595MOL0     H78500   8.128   4.152  10.081  1.8046  0.6718 -0.8215
  595MOL0     H78501   8.079   4.144   9.919  3.8178  2.0512 -0.4718
  595MOL0     H78502   8.075   4.203  10.260 -0.8887  1.4174 -1.0622
  595MOL0     H78503   8.011   4.150  10.489  0.1554  0.5313  0.2813
  595MOL0     H78504   7.661   4.153  10.817  0.2737  0.0642  0.9248
  595MOL0     H78505   7.619   4.073  11.060 -1.0735  4.0754 -3.5042
  595MOL0     H78506   7.557   3.644  11.182 -1.2744 -0.9993 -0.9774
  595MOL0     H78507   7.439   3.727  11.073  1.5867  0.9390 -1.2900
  595MOL0     H78508   7.432   3.791  11.378 -1.1370 -0.5341 -0.6401
  595MOL0     H78509   7.359   3.650  11.303 -1.6387  0.2295 -0.0223
  595MOL0     H78510   7.211   3.850  11.353 -0.7886 -2.1414 -0.0790
  595MOL0     H78511   7.182   3.794  11.191 -3.5191  1.3253  1.8659
  595MOL0     H78512   7.401   4.007  11.250  1.2043 -1.8327 -0.2810
  595MOL0     H78513   7.339   3.974  11.092 -1.4632  1.8871 -0.0923
  595MOL0     H78514   7.145   4.076  11.293 -1.2384 -0.4921 -1.6001
  595MOL0     H78515   7.110   4.035  11.132  1.7439 -2.6408 -2.2081
  595MOL0     H78516   7.331   4.236  11.185  0.2582 -0.8588  1.5438
  595MOL0     H78517   7.156   4.281  11.159 -1.3256 -1.1499  0.3802
  595MOL0     H78518   7.359   4.145  10.977 -1.5629 -3.4032  0.5405
  595MOL0     H78519   7.180   4.142  10.938  1.1894 -2.2473  0.4410
  595MOL0     H78520   7.354   4.387  11.013  2.6016 -2.0999 -1.0059
  595MOL0     H78521   7.195   4.389  10.921 -1.0862 -2.4126  0.9851
  595MOL0     H78522   7.607   3.670  10.931  2.5187 -0.0907  0.1531
  595MOL0     H78523   7.651   3.734  10.707 -1.0461 -0.4491 -0.2845
  595MOL0     H78524   7.610   4.049  10.356  0.9170 -1.6256  2.3506
  595MOL0     H78525   7.672   4.090  10.129 -3.6141  4.8457  0.9247
  595MOL0     H78526   7.225   5.219   9.848 -0.1349  0.3421  0.9734
  595MOL0     H78527   7.345   5.188  10.062 -0.4998  0.0289 -0.0793
  595MOL0     H78528   7.623   5.146  10.316  1.1516 -0.9292 -3.8636
  595MOL0     H78529   7.747   5.163  10.525  0.4697 -0.0857 -0.3739
  595MOL0     H78530   8.120   4.950  10.575  0.3899  0.7956  1.3928
  595MOL0     H78531   7.985   4.828  10.631  0.2797 -0.3668 -0.7507
  595MOL0     H78532   8.123   5.048  10.775 -0.8868  0.2231 -0.7684
  595MOL0     H78533   7.993   4.955  10.841  2.5841  0.2384  2.2254
  595MOL0     H78534   8.156   4.744  10.760 -0.6489  0.2720  1.5183
  595MOL0     H78535   8.152   4.807  10.913  1.7634 -2.7728 -0.3549
  595MOL0     H78536   8.383   4.801  10.802  1.1819  2.1961  2.3405
  595MOL0     H78537   8.328   4.927  10.690 -1.7490  0.7018 -0.0696
  595MOL0     H78538   8.439   5.091  11.073  3.1080 -0.9921 -0.9886
  595MOL0     H78539   8.009   4.855  10.407 -0.8246  0.2361  2.6071
  595MOL0     H78540   7.870   4.820  10.187  0.4894  0.7589 -0.6938
  596MOL0     O78541   3.887  10.606   4.443 -0.0588 -0.2575  0.3082
  596MOL0     C78542   3.832  10.694   4.377 -0.5347 -0.4848 -0.0197
  596MOL0     O78543   3.822  10.824   4.414 -0.0287  0.1612 -0.0006
  596MOL0     C78544   3.892  10.863   4.526  0.0787  0.1714 -0.1459
  596MOL0     C78545   4.027  10.849   4.554  0.6860  0.3618  0.6353
  596MOL0     C78546   4.081  10.895   4.677  0.6043  0.8458 -0.5140
  596MOL0     C78547   4.001  10.950   4.777  0.5936  0.1648  0.4342
  596MOL0     O78548   4.061  10.979   4.899 -0.4207  0.3443 -0.5110
  596MOL0     C78549   3.972  10.998   5.011  0.3669 -0.4301  0.4452
  596MOL0     C78550   3.981  11.142   5.073  0.2152  0.3148  0.3564
  596MOL0     C78551   3.946  11.254   4.976  0.5271  0.3504  0.1215
  596MOL0     C78552   4.007  11.380   5.030  0.7654  0.4424 -0.8421
  596MOL0     C78553   3.929  11.440   5.156  0.6703  0.1932 -0.0360
  596MOL0     C78554   3.792  11.498   5.134  0.2591  0.0808 -0.6691
  596MOL0     C78555   3.790  11.641   5.077  0.2513 -0.1194 -0.1233
  596MOL0     C78556   3.665  11.682   5.013  0.2457 -0.4204 -0.2306
  596MOL0     N78557   3.618  11.590   4.908 -0.4135 -0.1344 -0.8400
  596MOL0     C78558   3.514  11.492   4.930  0.3199 -0.4013  0.7920
  596MOL0     C78559   3.554  11.384   4.852  0.7360 -0.1021 -0.3211
  596MOL0     C78560   3.479  11.248   4.853  0.2379 -0.1744 -0.3670
  596MOL0     C78561   3.426  11.211   4.715 -0.0338 -0.2030  0.7869
  596MOL0     C78562   3.291  11.272   4.673 -0.4026  0.8382  1.1384
  596MOL0     C78563   3.224  11.220   4.541  0.3981  0.0567 -0.5619
  596MOL0     O78564   3.146  11.313   4.469 -0.4692  0.8253 -0.1264
  596MOL0     C78565   3.030  11.372   4.526  0.3080 -0.1126  0.2582
  596MOL0     C78566   2.949  11.311   4.624 -0.1931  0.2784 -0.7436
  596MOL0     C78567   2.829  11.362   4.682 -0.2431 -0.0646  0.8917
  596MOL0     C78568   2.786  11.487   4.629 -0.3602 -0.1075 -0.0150
  596MOL0     C78569   2.661  11.544   4.684  0.0936 -0.2453 -0.5847
  596MOL0     O78570   2.639  11.686   4.664  0.4984 -0.1253 -0.0179
  596MOL0     C78571   2.525  11.743   4.707 -0.1508 -0.7989 -0.0861
  596MOL0     C78572   2.497  11.859   4.645 -0.0484 -0.7357 -0.2694
  596MOL0     C78573   2.392  11.940   4.672  0.3272 -0.2453 -0.6256
  596MOL0     C78574   2.306  11.910   4.779 -0.2969 -0.5717  0.5567
  596MOL0     O78575   2.208  12.009   4.808 -0.4789 -0.3885  0.2717
  596MOL0     C78576   2.117  11.984   4.922 -0.9194  0.8747  0.2682
  596MOL0     C78577   2.054  12.120   4.952  0.9403 -0.6445  1.0736
  596MOL0     C78578   1.992  12.188   4.828 -0.5780  0.0896  0.3008
  596MOL0     C78579   1.929  12.308   4.874 -0.1440 -0.7625  0.1614
  596MOL0     C78580   1.828  12.384   4.786  0.0552  0.1704 -0.1081
  596MOL0     C78581   1.885  12.479   4.675 -0.1170 -0.5680 -0.2889
  596MOL0     C78582   1.776  12.581   4.641 -0.2753 -0.8417  0.8562
  596MOL0     C78583   1.743  12.581   4.495 -0.0795 -0.3777 -0.2725
  596MOL0    Cl78584   1.878  12.627   4.377  0.2714 -0.5218  0.1328
  596MOL0     C78585   2.335  11.794   4.853 -0.4522 -0.5897  0.2607
  596MOL0     C78586   2.435  11.704   4.805 -0.2016  0.7959  0.7809
  596MOL0     O78587   2.573  11.462   4.723  0.3675 -0.6295  0.2196
  596MOL0     C78588   2.863  11.551   4.526 -0.1432  0.3464  0.1649
  596MOL0     C78589   2.982  11.495   4.478 -0.1103 -0.0199  0.7652
  596MOL0     N78590   3.655  11.428   4.766 -0.7310 -1.0445 -0.2394
  596MOL0     N78591   3.693  11.548   4.805  0.3999 -0.1023 -0.1207
  596MOL0     C78592   3.867  10.985   4.731  0.5609 -0.1523 -0.2870
  596MOL0     C78593   3.816  10.941   4.603  1.3173 -0.2431 -1.1827
  596MOL0     C78594   3.766  10.643   4.252  0.7142  0.6631  0.4915
  596MOL0     C78595   3.737  10.737   4.153  1.0656 -0.8174 -0.1252
  596MOL0     C78596   3.689  10.694   4.029  0.5968  1.0471  0.6334
  596MOL0     C78597   3.688  10.558   3.993  0.7636  0.0641  0.5680
  596MOL0     O78598   3.674  10.517   3.863  0.3813  0.4163  0.1768
  596MOL0     C78599   3.545  10.547   3.809  0.9384 -0.4606 -0.3461
  596MOL0     C78600   3.538  10.608   3.670  0.0026  0.3489 -0.5342
  596MOL0     C78601   3.532  10.490   3.574  0.6822 -0.6701 -0.0100
  596MOL0     C78602   3.491  10.534   3.422 -0.1115 -0.7511 -1.1145
  596MOL0     C78603   3.428  10.412   3.360  0.2378 -0.2117 -0.1871
  596MOL0     C78604   3.399  10.305   3.308  0.2180 -0.1499  0.8013
  596MOL0     C78605   3.718  10.462   4.095 -0.0821 -0.2881 -0.4342
  596MOL0     C78606   3.744  10.508   4.229 -0.5109  0.2400  0.8086
  596MOL0     H78607   4.082  10.781   4.490  0.0497 -0.5374  1.0083
  596MOL0     H78608   4.180  10.867   4.711 -0.6233 -1.5542  1.4505
  596MOL0     H78609   4.016  10.933   5.088 -0.6326 -1.2928  0.3090
  596MOL0     H78610   3.868  10.967   4.992  0.1653  1.4884 -1.8870
  596MOL0     H78611   4.077  11.152   5.125 -1.0549  2.2553  2.5265
  596MOL0     H78612   3.906  11.151   5.153 -1.0361 -0.8167 -0.6391
  596MOL0     H78613   3.839  11.258   4.955  0.5662  0.1919 -0.1118
  596MOL0     H78614   3.988  11.224   4.879 -1.2862  0.5051 -0.7581
  596MOL0     H78615   4.115  11.365   5.040  1.0560  1.9047 -1.4519
  596MOL0     H78616   4.008  11.445   4.942 -0.5833 -1.1314 -2.0848
  596MOL0     H78617   3.994  11.515   5.202  0.4084  0.6915 -0.4727
  596MOL0     H78618   3.915  11.361   5.230  1.8763  0.9541  1.0447
  596MOL0     H78619   3.745  11.510   5.233 -0.4640  0.1533 -1.0100
  596MOL0     H78620   3.724  11.433   5.078 -0.6996  1.3574 -1.0421
  596MOL0     H78621   3.814  11.717   5.153 -0.9246 -1.1024  1.3036
  596MOL0     H78622   3.875  11.649   5.009  1.8316  6.1895  1.8074
  596MOL0     H78623   3.663  11.786   4.981 -1.8906 -0.5003 -0.4787
  596MOL0     H78624   3.586  11.675   5.089 -0.7474  0.2045 -1.1753
  596MOL0     H78625   3.431  11.491   5.000 -1.0567  1.3779 -0.7410
  596MOL0     H78626   3.400  11.240   4.928  0.5935  0.6586  0.1027
  596MOL0     H78627   3.558  11.174   4.866  3.3032  1.7443 -5.1294
  596MOL0     H78628   3.423  11.101   4.717 -0.5095 -0.2975 -1.6216
  596MOL0     H78629   3.502  11.231   4.639 -2.3913  0.7095 -1.4501
  596MOL0     H78630   3.215  11.256   4.750 -2.4025 -4.7760 -1.5061
  596MOL0     H78631   3.306  11.379   4.655  0.8283  0.6301  0.8388
  596MOL0     H78632   3.174  11.130   4.579  0.5708 -0.1032 -0.7121
  596MOL0     H78633   3.301  11.185   4.471  0.9728 -0.3898  0.2843
  596MOL0     H78634   2.993  11.217   4.656  1.8021  2.3911  3.4740
  596MOL0     H78635   2.771  11.323   4.765 -0.3520 -1.6049  0.1269
  596MOL0     H78636   2.571  11.885   4.569  0.5259  0.7750  0.7618
  596MOL0     H78637   2.357  12.026   4.615  1.9870  0.6855 -0.2829
  596MOL0     H78638   2.175  11.953   5.009 -1.6393  1.7881  1.0839
  596MOL0     H78639   2.046  11.905   4.894 -1.3198  1.7719 -1.4252
  596MOL0     H78640   2.122  12.191   5.000 -1.8741  1.8503  1.7170
  596MOL0     H78641   1.971  12.101   5.021 -0.0978 -0.4545 -0.0960
  596MOL0     H78642   1.917  12.116   4.796  1.2631 -1.6041 -0.3899
  596MOL0     H78643   2.055  12.217   4.743 -3.4687  0.4859 -1.8702
  596MOL0     H78644   1.864  12.289   4.960 -2.0975 -0.1562 -1.1121
  596MOL0     H78645   2.015  12.372   4.898 -0.7472  0.1296 -0.0114
  596MOL0     H78646   1.794  12.456   4.861 -0.1077 -1.1020  1.0799
  596MOL0     H78647   1.747  12.327   4.741 -1.4995 -0.5623  3.2961
  596MOL0     H78648   1.921  12.416   4.593  0.9467  0.2080 -0.4427
  596MOL0     H78649   1.974  12.534   4.709 -0.4816  0.1098 -0.4220
  596MOL0     H78650   1.679  12.566   4.689 -0.7944 -0.2115  0.0328
  596MOL0     H78651   1.797  12.681   4.679 -1.1116  0.2932 -1.4837
  596MOL0     H78652   1.658  12.648   4.476  0.7941  1.1996  1.1902
  596MOL0     H78653   1.714  12.477   4.480 -0.3533 -1.7276  6.6341
  596MOL0     H78654   2.279  11.765   4.942  2.4738  0.2837  2.5318
  596MOL0     H78655   2.436  11.609   4.857  0.9631  0.1340 -0.3917
  596MOL0     H78656   2.836  11.649   4.490  2.6207  2.1976  2.7240
  596MOL0     H78657   3.025  11.562   4.403 -2.8378  1.3615  0.2941
  596MOL0     H78658   3.801  11.050   4.787 -0.4284  1.1920 -2.8337
  596MOL0     H78659   3.717  10.972   4.572  0.8763  1.7325  1.7482
  596MOL0     H78660   3.743  10.845   4.159 -2.3324 -0.5833  1.8430
  596MOL0     H78661   3.665  10.767   3.953 -0.2434 -1.6590 -1.9013
  596MOL0     H78662   3.493  10.624   3.866 -2.9854 -1.2270 -2.5245
  596MOL0     H78663   3.474  10.464   3.812 -0.4677  0.6278 -1.9216
  596MOL0     H78664   3.443  10.663   3.671 -1.2051 -1.6055  1.2303
  596MOL0     H78665   3.620  10.674   3.640  0.5478  0.1769  0.5103
  596MOL0     H78666   3.441  10.440   3.606 -0.8681  2.6597  1.2488
  596MOL0     H78667   3.622  10.428   3.580 -1.3152 -4.1282 -2.3310
  596MOL0     H78668   3.427  10.623   3.428 -1.7382 -1.9968  1.2787
  596MOL0     H78669   3.586  10.554   3.371  0.5270 -0.1036  0.2977
  596MOL0     H78670   3.359  10.210   3.277  1.5261 -1.5977  3.2507
  596MOL0     H78671   3.707  10.354   4.083  0.1669 -0.2163 -1.3426
  596MOL0     H78672   3.746  10.445   4.318  1.2004  0.9187  1.2840
  597MOL0     O78673   2.724   7.885   7.533 -0.7012  0.7925 -0.5603
  597MOL0     C78674   2.607   7.894   7.527 -0.1510  0.4643 -0.0187
  597MOL0     O78675   2.531   7.854   7.421 -0.1966 -1.2879 -0.7156
  597MOL0     C78676   2.592   7.828   7.297  0.1532  0.7641  0.6701
  597MOL0     C78677   2.672   7.705   7.274  0.8961  0.3866 -0.3519
  597MOL0     C78678   2.728   7.684   7.153  0.2661  1.0297 -0.7166
  597MOL0     C78679   2.724   7.773   7.046  0.8485 -0.8883  0.2128
  597MOL0     O78680   2.794   7.728   6.935  0.0073 -0.2410 -0.2916
  597MOL0     C78681   2.810   7.817   6.824  0.2139 -0.3647 -0.2852
  597MOL0     C78682   2.863   7.729   6.710 -0.4521 -1.1642 -0.9777
  597MOL0     C78683   2.783   7.595   6.694  0.9101 -0.7555  0.1740
  597MOL0     C78684   2.640   7.632   6.652  0.0739 -0.0976  1.1683
  597MOL0     C78685   2.592   7.551   6.531 -0.0623 -0.8880  0.1999
  597MOL0     C78686   2.439   7.566   6.512  0.7206  0.3288  0.1197
  597MOL0     C78687   2.375   7.477   6.403  0.4383 -0.4809 -0.4475
  597MOL0     C78688   2.431   7.480   6.262  0.4169 -0.6734 -0.1655
  597MOL0     N78689   2.393   7.606   6.196 -0.1411 -0.7914 -0.0513
  597MOL0     C78690   2.275   7.611   6.120  0.1785 -0.3892 -0.2177
  597MOL0     C78691   2.254   7.735   6.095  0.9360  0.1118 -0.0129
  597MOL0     C78692   2.130   7.783   6.022  0.5709  0.3413 -0.5955
  597MOL0     C78693   2.162   7.862   5.901  0.6188 -0.0510 -0.1960
  597MOL0     C78694   2.213   8.006   5.913  0.1571  0.5100  0.3151
  597MOL0     C78695   2.120   8.097   5.990 -0.2384 -0.0407 -0.4337
  597MOL0     O78696   1.994   8.101   5.924  0.5975  0.0897 -0.0726
  597MOL0     C78697   1.892   8.155   5.997  0.3776 -0.1258  0.2727
  597MOL0     C78698   1.843   8.283   5.961 -0.1895 -0.7389  0.1511
  597MOL0     C78699   1.736   8.329   6.022  0.1608 -0.8903  0.2911
  597MOL0     C78700   1.659   8.259   6.115  0.8860  0.7915  0.1704
  597MOL0     C78701   1.543   8.323   6.179  0.9686  1.1586 -0.2501
  597MOL0     O78702   1.525   8.451   6.144 -0.3876 -0.0099 -0.0136
  597MOL0     C78703   1.410   8.518   6.174  0.1995 -0.6938  0.1616
  597MOL0     C78704   1.427   8.656   6.159 -0.7550  1.3916 -0.7634
  597MOL0     C78705   1.322   8.744   6.157 -0.7849  0.2216  0.0571
  597MOL0     C78706   1.195   8.707   6.191  0.1857 -0.0511 -0.1314
  597MOL0     O78707   1.090   8.792   6.194  0.2624  0.0998  0.1477
  597MOL0     C78708   1.097   8.911   6.269  0.0522 -0.4731 -0.1177
  597MOL0     C78709   0.995   9.013   6.214 -1.0545  0.5946 -0.0239
  597MOL0     C78710   0.990   9.142   6.284  0.2662  0.0077 -0.3380
  597MOL0     C78711   1.143   9.196   6.287  1.0674 -0.2452 -0.2886
  597MOL0     C78712   1.122   9.347   6.343  0.0655  0.0671 -0.1299
  597MOL0     C78713   1.265   9.401   6.403 -0.6557  0.6273  0.7783
  597MOL0     C78714   1.372   9.399   6.293  0.5853  0.3896 -0.7564
  597MOL0     C78715   1.507   9.427   6.370 -1.1484 -0.0227  0.3060
  597MOL0    Cl78716   1.633   9.464   6.234 -0.1431 -0.1553 -0.0793
  597MOL0     C78717   1.176   8.573   6.226 -0.9299  0.0350  0.6687
  597MOL0     C78718   1.275   8.476   6.217 -0.6917 -0.3252  0.6757
  597MOL0     O78719   1.469   8.256   6.249 -1.2866  0.4149  0.9031
  597MOL0     C78720   1.701   8.128   6.138  0.0714 -0.0604 -0.0356
  597MOL0     C78721   1.813   8.081   6.088 -0.6111  0.2975  1.0873
  597MOL0     N78722   2.358   7.809   6.153  0.1040 -0.2242  0.1267
  597MOL0     N78723   2.445   7.730   6.211 -0.1839 -0.0218 -0.4347
  597MOL0     C78724   2.648   7.887   7.058 -0.1392  0.2676  0.6688
  597MOL0     C78725   2.587   7.910   7.183 -0.7860  0.7186 -1.1761
  597MOL0     C78726   2.539   7.938   7.648  0.4842 -0.2865  0.9008
  597MOL0     C78727   2.400   7.924   7.671 -0.3041  0.4477 -0.3222
  597MOL0     C78728   2.331   8.007   7.769  0.8330  0.2804 -1.1688
  597MOL0     C78729   2.411   8.100   7.837  0.5354 -0.5918  0.7194
  597MOL0     O78730   2.351   8.202   7.909  0.1479 -0.2143  0.0832
  597MOL0     C78731   2.206   8.206   7.930 -0.6845  0.3199 -1.2959
  597MOL0     C78732   2.198   8.327   8.011 -0.1758  0.5052  0.3908
  597MOL0     C78733   2.267   8.324   8.150  0.4895  0.3206 -0.0322
  597MOL0     C78734   2.248   8.456   8.229  0.8204  0.0351 -1.0615
  597MOL0     C78735   2.119   8.467   8.297 -0.4727  0.1763 -0.0048
  597MOL0     C78736   2.007   8.496   8.342  0.0878  0.5288 -0.8071
  597MOL0     C78737   2.547   8.120   7.815  0.2316 -0.4245  0.9107
  597MOL0     C78738   2.610   8.036   7.716 -0.7332 -0.3341 -0.0449
  597MOL0     H78739   2.683   7.629   7.351  0.6908  0.4057 -0.3018
  597MOL0     H78740   2.780   7.588   7.150 -0.8512  0.3212  1.2946
  597MOL0     H78741   2.890   7.888   6.845  0.1621 -0.1698 -0.7454
  597MOL0     H78742   2.717   7.864   6.793  0.6051 -1.0443 -2.7265
  597MOL0     H78743   2.967   7.707   6.734 -0.7677 -1.6106  0.0358
  597MOL0     H78744   2.870   7.777   6.612  2.4938 -0.7083 -0.6272
  597MOL0     H78745   2.784   7.543   6.791 -1.3965 -3.0492 -0.9254
  597MOL0     H78746   2.833   7.529   6.622  1.4888 -1.4661  1.1952
  597MOL0     H78747   2.566   7.629   6.733 -1.1266  1.8075  0.2038
  597MOL0     H78748   2.632   7.736   6.619 -3.1078 -0.1179  1.6404
  597MOL0     H78749   2.624   7.447   6.536  0.9619 -0.5161  2.6912
  597MOL0     H78750   2.649   7.583   6.443  0.0857  1.0181  0.9342
  597MOL0     H78751   2.420   7.670   6.485  0.8673 -0.1079 -1.8263
  597MOL0     H78752   2.396   7.535   6.608  1.5434 -0.0062  0.3873
  597MOL0     H78753   2.390   7.374   6.437  4.4846  0.2881  0.6661
  597MOL0     H78754   2.268   7.500   6.402  0.2855 -1.1169 -2.2228
  597MOL0     H78755   2.411   7.389   6.204  1.0183 -1.3675  0.6790
  597MOL0     H78756   2.539   7.470   6.273  0.6388 -1.8208 -2.5597
  597MOL0     H78757   2.207   7.534   6.084 -0.3691 -0.3975  0.8212
  597MOL0     H78758   2.071   7.849   6.086  0.4333 -0.8886  0.5734
  597MOL0     H78759   2.065   7.697   6.004 -1.3705  1.4126  0.9474
  597MOL0     H78760   2.068   7.868   5.845  0.4733  0.2369  0.0716
  597MOL0     H78761   2.224   7.797   5.838  0.6508  0.7418 -1.0084
  597MOL0     H78762   2.309   8.006   5.966  0.4034  2.2698 -0.0796
  597MOL0     H78763   2.236   8.057   5.819  0.3328  2.6122  1.4445
  597MOL0     H78764   2.165   8.196   5.984  2.5038 -1.1477  0.6372
  597MOL0     H78765   2.118   8.066   6.095 -3.0971 -2.4846 -1.0480
  597MOL0     H78766   1.894   8.341   5.886  0.8482 -2.0428 -0.1776
  597MOL0     H78767   1.707   8.427   5.985  0.4875 -1.8378 -2.7480
  597MOL0     H78768   1.526   8.698   6.142  0.8707 -1.6538  0.5303
  597MOL0     H78769   1.340   8.851   6.144 -2.4675  0.2202 -3.3037
  597MOL0     H78770   1.199   8.950   6.267 -0.2645  0.4977 -3.2885
  597MOL0     H78771   1.074   8.892   6.374 -2.3618  1.5853 -0.1986
  597MOL0     H78772   0.897   8.965   6.210 -0.2758 -1.1007  0.3491
  597MOL0     H78773   1.021   9.030   6.109  0.4680 -0.4276  0.1670
  597MOL0     H78774   0.943   9.134   6.383  0.1918  0.7107 -0.3121
  597MOL0     H78775   0.930   9.216   6.232  1.9231  1.5458 -0.1458
  597MOL0     H78776   1.216   9.145   6.351  0.5255  1.5304  1.8577
  597MOL0     H78777   1.179   9.205   6.184 -2.1845 -1.7317 -1.7024
  597MOL0     H78778   1.068   9.341   6.438 -2.3602  2.2759 -1.2497
  597MOL0     H78779   1.063   9.414   6.280 -0.4500  1.6086  1.8563
  597MOL0     H78780   1.299   9.332   6.481 -5.5362 -1.3515  1.5205
  597MOL0     H78781   1.251   9.500   6.448  0.9636  1.3651 -0.2705
  597MOL0     H78782   1.387   9.304   6.241 -0.0165 -3.1814  4.7081
  597MOL0     H78783   1.351   9.479   6.222 -1.2576  1.6458  1.1054
  597MOL0     H78784   1.543   9.341   6.426 -2.1572  0.0025  1.0161
  597MOL0     H78785   1.509   9.509   6.442 -1.0793 -0.5621  0.9199
  597MOL0     H78786   1.076   8.546   6.258 -1.6985  2.6376  0.6622
  597MOL0     H78787   1.250   8.372   6.235  0.8597 -1.0081 -0.8481
  597MOL0     H78788   1.659   8.059   6.210  0.9404 -1.8828 -1.1983
  597MOL0     H78789   1.829   7.974   6.096 -0.6766 -0.0180 -1.8868
  597MOL0     H78790   2.639   7.962   6.980 -5.6229 -2.1508 -1.5703
  597MOL0     H78791   2.544   8.009   7.197  1.2346  1.3429  1.5297
  597MOL0     H78792   2.327   7.858   7.624 -1.0265  0.5105  0.6981
  597MOL0     H78793   2.226   7.983   7.783  1.3181 -1.0031  0.5684
  597MOL0     H78794   2.175   8.112   7.977  2.4493 -0.2196 -0.0350
  597MOL0     H78795   2.148   8.224   7.839 -0.9995  2.0257 -0.7915
  597MOL0     H78796   2.223   8.412   7.946  4.7988 -0.0331  1.1871
  597MOL0     H78797   2.092   8.336   8.035 -0.6413 -1.0320 -0.9076
  597MOL0     H78798   2.372   8.295   8.146  0.1581 -0.7918 -2.7004
  597MOL0     H78799   2.224   8.249   8.216 -0.6881  0.1822 -0.9102
  597MOL0     H78800   2.325   8.468   8.306 -0.8629 -1.0173  0.8836
  597MOL0     H78801   2.254   8.540   8.159 -0.7563 -0.6693 -2.1060
  597MOL0     H78802   1.906   8.515   8.373 -0.0912  1.1518 -1.7200
  597MOL0     H78803   2.600   8.203   7.862  2.0722 -0.1585 -1.4868
  597MOL0     H78804   2.711   8.065   7.688 -0.3098 -2.5090 -0.9705
  598MOL0     O78805   0.551   7.894   7.086 -0.0803  0.3117 -0.4535
  598MOL0     C78806   0.562   7.875   6.968 -0.6732  1.1052  0.4171
  598MOL0     O78807   0.517   7.759   6.900  0.0428  0.5742  0.4284
  598MOL0     C78808   0.438   7.679   6.980  0.9650 -1.2942 -0.0901
  598MOL0     C78809   0.307   7.646   6.941  0.2279 -0.3779 -0.3059
  598MOL0     C78810   0.235   7.559   7.022  1.0034 -0.5299  0.0094
  598MOL0     C78811   0.280   7.488   7.127 -0.2452  0.0311 -0.7004
  598MOL0     O78812   0.196   7.393   7.176  0.0788  0.5744  0.2798
  598MOL0     C78813   0.243   7.318   7.290 -0.3443  0.4655 -0.0880
  598MOL0     C78814   0.336   7.200   7.234  0.5298  0.6974 -0.6907
  598MOL0     C78815   0.359   7.085   7.328 -0.1934  0.2983  0.1861
  598MOL0     C78816   0.448   7.142   7.449 -0.3493 -0.3220 -0.4051
  598MOL0     C78817   0.489   7.025   7.537 -0.4331 -0.2369  0.7310
  598MOL0     C78818   0.371   6.936   7.584  0.1617  0.1687  0.0291
  598MOL0     C78819   0.412   6.827   7.690 -0.5795  0.1422  0.0670
  598MOL0     C78820   0.515   6.733   7.642 -0.8610  0.4585  0.0305
  598MOL0     N78821   0.513   6.603   7.711 -0.0063  0.1619  0.3755
  598MOL0     C78822   0.615   6.513   7.724 -0.0214  0.1851  0.2926
  598MOL0     C78823   0.581   6.424   7.811 -0.0643  0.6915 -0.3813
  598MOL0     C78824   0.677   6.325   7.872  1.1032  0.1966  0.1503
  598MOL0     C78825   0.626   6.189   7.886 -0.0096  0.3656 -0.0124
  598MOL0     C78826   0.713   6.116   7.991  0.2907 -0.0066  0.6163
  598MOL0     C78827   0.645   5.977   8.033  0.0038 -0.3584 -0.4101
  598MOL0     O78828   0.752   5.912   8.106  0.7946  0.0934  0.8342
  598MOL0     C78829   0.742   5.780   8.148 -0.2257 -0.0747  0.4732
  598MOL0     C78830   0.640   5.694   8.119  0.8663  0.5302 -0.1903
  598MOL0     C78831   0.657   5.559   8.156  0.5062  0.2736 -0.3539
  598MOL0     C78832   0.760   5.516   8.235 -0.7965  0.9543 -0.4046
  598MOL0     C78833   0.755   5.384   8.289  0.6118  0.4763  0.7015
  598MOL0     O78834   0.828   5.358   8.406 -0.0646 -0.4731  0.2125
  598MOL0     C78835   0.819   5.242   8.473 -0.2370  0.2339  0.4720
  598MOL0     C78836   0.933   5.180   8.525  0.6152 -0.1505 -0.1321
  598MOL0     C78837   0.929   5.060   8.595 -0.7513 -0.0023  0.4028
  598MOL0     C78838   0.806   4.998   8.620  0.7300  0.4659 -0.1854
  598MOL0     O78839   0.811   4.892   8.710  0.7018 -0.2869 -0.2528
  598MOL0     C78840   0.692   4.821   8.741  0.4348 -0.3184  0.0341
  598MOL0     C78841   0.702   4.722   8.855  0.2524  0.2325  0.0505
  598MOL0     C78842   0.770   4.784   8.982  0.9814  0.4562  0.5415
  598MOL0     C78843   0.680   4.879   9.049  0.7444 -0.1517 -0.7745
  598MOL0     C78844   0.729   4.918   9.192  0.2549  0.1564 -0.1116
  598MOL0     C78845   0.701   4.810   9.296  1.1925 -0.8771  0.7155
  598MOL0     C78846   0.659   4.854   9.438 -0.3703 -0.6572 -0.0817
  598MOL0     C78847   0.508   4.849   9.462 -0.3432 -0.1398  0.8020
  598MOL0    Cl78848   0.419   4.914   9.319  0.3751  0.1648  0.6519
  598MOL0     C78849   0.691   5.048   8.562  0.1386 -0.2274  0.0297
  598MOL0     C78850   0.701   5.179   8.501  0.7288 -0.0141 -0.5654
  598MOL0     O78851   0.682   5.299   8.231 -0.0838  0.0242 -0.0799
  598MOL0     C78852   0.865   5.599   8.272  0.4317  0.4921  0.5293
  598MOL0     C78853   0.844   5.739   8.233  0.0402  0.0855  0.7152
  598MOL0     N78854   0.451   6.454   7.859  0.5230 -0.3036 -0.4651
  598MOL0     N78855   0.417   6.560   7.796 -0.9291  0.0026  0.0284
  598MOL0     C78856   0.413   7.524   7.169 -0.1139 -0.4114  0.2090
  598MOL0     C78857   0.499   7.617   7.090 -0.1058  0.4142 -0.1167
  598MOL0     C78858   0.659   7.967   6.907 -0.6845 -1.3469 -0.1502
  598MOL0     C78859   0.736   7.929   6.800 -1.1790 -0.1269 -0.5807
  598MOL0     C78860   0.844   8.012   6.763  0.3479 -0.4648 -0.3056
  598MOL0     C78861   0.874   8.138   6.821  0.0153  0.1197  0.0709
  598MOL0     O78862   0.964   8.234   6.777  0.7017 -0.0849  0.6295
  598MOL0     C78863   0.987   8.363   6.829  0.2383  0.3583  0.1466
  598MOL0     C78864   1.082   8.368   6.948 -0.4214  0.1937 -0.3443
  598MOL0     C78865   1.214   8.299   6.923  0.2534 -0.1292  0.3587
  598MOL0     C78866   1.216   8.154   6.965  0.2924 -0.2463 -0.2142
  598MOL0     C78867   1.202   8.147   7.112  0.7710 -0.7556  0.3550
  598MOL0     C78868   1.163   8.148   7.221  0.3754 -0.1705 -0.4818
  598MOL0     C78869   0.789   8.175   6.926 -0.0782 -0.1399  0.6777
  598MOL0     C78870   0.684   8.097   6.969  0.1395 -0.6419  0.0310
  598MOL0     H78871   0.265   7.692   6.852  2.6445 -0.6309 -1.6608
  598MOL0     H78872   0.149   7.518   6.970  0.5342  1.6918 -1.0992
  598MOL0     H78873   0.153   7.283   7.341  0.2021 -2.0653 -0.7121
  598MOL0     H78874   0.299   7.377   7.363 -0.5008  1.3670 -0.6902
  598MOL0     H78875   0.432   7.243   7.205  1.2518 -2.2082 -3.1240
  598MOL0     H78876   0.301   7.156   7.140  1.7585 -2.6777  0.2806
  598MOL0     H78877   0.415   7.012   7.269  0.7614  0.6792  0.5861
  598MOL0     H78878   0.269   7.031   7.359  1.1403 -1.5200  1.1269
  598MOL0     H78879   0.540   7.189   7.412  0.9622 -2.7280 -0.4487
  598MOL0     H78880   0.390   7.203   7.519 -1.7665 -2.2518  0.2027
  598MOL0     H78881   0.527   7.080   7.624  0.2250 -1.5392  1.2927
  598MOL0     H78882   0.572   6.965   7.499 -1.6145 -1.5896  0.1970
  598MOL0     H78883   0.324   6.878   7.504  1.6508 -0.8181 -0.1806
  598MOL0     H78884   0.303   7.009   7.628 -0.3141 -0.6737  0.7483
  598MOL0     H78885   0.445   6.869   7.786  0.7639 -3.2390  1.2258
  598MOL0     H78886   0.326   6.768   7.724  0.0685 -0.1714  1.2443
  598MOL0     H78887   0.613   6.778   7.653 -0.5558 -0.2112  0.0943
  598MOL0     H78888   0.484   6.716   7.538 -4.6675 -1.3352  1.2619
  598MOL0     H78889   0.707   6.516   7.666  0.4736 -0.6302  1.0286
  598MOL0     H78890   0.714   6.368   7.966 -0.0655  2.9181 -0.5423
  598MOL0     H78891   0.763   6.312   7.807 -0.4869 -1.9534 -1.6933
  598MOL0     H78892   0.630   6.137   7.790 -3.3395  1.2350 -0.7483
  598MOL0     H78893   0.524   6.190   7.925 -0.2336 -1.5356 -0.4360
  598MOL0     H78894   0.815   6.092   7.959  1.4641 -1.9411  5.1172
  598MOL0     H78895   0.716   6.168   8.086  0.1531  1.3400 -0.0969
  598MOL0     H78896   0.621   5.925   7.941 -0.1735 -1.2596  0.1324
  598MOL0     H78897   0.556   5.986   8.096  0.8341  0.2856  0.7127
  598MOL0     H78898   0.550   5.734   8.074 -1.9505 -1.6614  2.9592
  598MOL0     H78899   0.581   5.487   8.127 -0.1586  0.6024  0.5481
  598MOL0     H78900   1.030   5.227   8.509  0.6298  0.3464  1.2561
  598MOL0     H78901   1.019   5.026   8.643 -1.2954  0.7895  2.0341
  598MOL0     H78902   0.654   4.773   8.650 -1.5915  0.3610  0.4586
  598MOL0     H78903   0.620   4.895   8.777  0.4467  0.0547 -0.6915
  598MOL0     H78904   0.757   4.633   8.826 -1.2156 -0.9938  0.8868
  598MOL0     H78905   0.604   4.679   8.880  0.5538  0.8329  2.5258
  598MOL0     H78906   0.861   4.840   8.961 -1.3365  3.6178 -2.1092
  598MOL0     H78907   0.798   4.704   9.052  3.6300  1.0540  0.2682
  598MOL0     H78908   0.680   4.965   8.981  0.3355 -0.3586 -1.0380
  598MOL0     H78909   0.578   4.842   9.049  0.8072 -0.3215 -1.1729
  598MOL0     H78910   0.677   5.011   9.216  1.6613  0.4267  2.2457
  598MOL0     H78911   0.835   4.942   9.197  0.0389  1.0287  0.4765
  598MOL0     H78912   0.793   4.752   9.304 -0.3411 -3.4303  0.7985
  598MOL0     H78913   0.622   4.744   9.259  1.1319 -1.7816  2.3936
  598MOL0     H78914   0.696   4.779   9.509  1.6029  0.1041 -0.2747
  598MOL0     H78915   0.699   4.953   9.462 -2.5834  0.1868  0.3744
  598MOL0     H78916   0.487   4.907   9.553 -1.7377  2.8663 -1.2893
  598MOL0     H78917   0.472   4.747   9.474 -1.9212  0.0303 -1.7510
  598MOL0     H78918   0.595   5.000   8.576 -0.7517  2.0642  2.8351
  598MOL0     H78919   0.605   5.222   8.472 -0.5524 -1.9277  0.5748
  598MOL0     H78920   0.950   5.564   8.328  0.5008 -1.8849 -0.9351
  598MOL0     H78921   0.912   5.818   8.260  2.0494 -1.1933 -0.2903
  598MOL0     H78922   0.461   7.488   7.260 -1.1981  0.1963  1.0457
  598MOL0     H78923   0.601   7.640   7.118  0.5607  0.7539 -2.6343
  598MOL0     H78924   0.705   7.834   6.758 -0.0217 -0.2924 -1.0898
  598MOL0     H78925   0.911   7.979   6.684 -0.5776 -1.5297 -0.6785
  598MOL0     H78926   0.900   8.420   6.861  1.0056 -0.0837  3.3534
  598MOL0     H78927   1.029   8.419   6.745  3.2980  0.3010  1.4973
  598MOL0     H78928   1.095   8.472   6.980  3.3667 -0.1048 -0.4816
  598MOL0     H78929   1.028   8.331   7.035  0.4305 -0.4123 -0.0663
  598MOL0     H78930   1.299   8.347   6.974 -2.6923  1.2114  4.5467
  598MOL0     H78931   1.234   8.303   6.816 -0.0644 -3.6316  0.0617
  598MOL0     H78932   1.140   8.101   6.907 -0.4948  2.6610 -2.0539
  598MOL0     H78933   1.311   8.105   6.942  2.1596  2.9330  0.1903
  598MOL0     H78934   1.137   8.146   7.325 -2.0307  3.2317 -0.8469
  598MOL0     H78935   0.809   8.269   6.976 -0.5944 -0.4632  1.5010
  598MOL0     H78936   0.626   8.129   7.055  2.2270  3.4379  0.1316
  599MOL0     O78937  10.867   0.627   6.496 -0.4744  0.3596 -0.0131
  599MOL0     C78938  10.896   0.744   6.518 -0.3277  1.0115 -0.6153
  599MOL0     O78939  10.849   0.811   6.630  0.1663  0.1178  0.2339
  599MOL0     C78940  10.795   0.749   6.735 -0.0818 -0.4867 -1.2885
  599MOL0     C78941  10.663   0.706   6.740 -0.5746 -0.6237  0.6440
  599MOL0     C78942  10.597   0.665   6.848 -0.6564  0.3214  0.1970
  599MOL0     C78943  10.668   0.667   6.967  0.5892 -0.9813  1.3942
  599MOL0     O78944  10.622   0.657   7.093 -0.4823 -0.1132  0.3090
  599MOL0     C78945  10.491   0.602   7.115 -0.6485 -0.3204 -0.8850
  599MOL0     C78946  10.443   0.646   7.247 -1.6615 -0.6839 -0.1543
  599MOL0     C78947  10.391   0.793   7.237  0.1550  0.6636 -0.2872
  599MOL0     C78948  10.322   0.839   7.357  0.3452 -0.4604 -0.3216
  599MOL0     C78949  10.347   0.992   7.386  0.0328 -0.7020 -0.1668
  599MOL0     C78950  10.299   1.080   7.262  0.6536 -0.2814 -0.1435
  599MOL0     C78951  10.309   1.233   7.295  0.4165 -0.1049  0.4196
  599MOL0     C78952  10.252   1.327   7.181 -0.1728  0.3940 -0.3453
  599MOL0     N78953  10.121   1.282   7.144 -0.3933 -0.2401  0.2947
  599MOL0     C78954  10.067   1.285   7.021 -0.0077  0.0514 -0.1951
  599MOL0     C78955   9.943   1.226   7.036 -1.1465 -0.6336 -0.0517
  599MOL0     C78956   9.830   1.213   6.940  0.1995  0.0974  0.6422
  599MOL0     C78957   9.839   1.312   6.827 -0.0134 -0.4965  0.3598
  599MOL0     C78958   9.706   1.347   6.760  0.1270  0.4068  0.3462
  599MOL0     C78959   9.741   1.469   6.668  0.2316  0.2225 -0.4216
  599MOL0     O78960   9.821   1.422   6.551 -0.0352  0.6539 -0.4867
  599MOL0     C78961   9.855   1.511   6.447 -0.1051 -0.3117  0.1944
  599MOL0     C78962   9.885   1.455   6.319 -0.6028  0.1915  0.5579
  599MOL0     C78963   9.936   1.539   6.220  0.4133  0.6903  0.1256
  599MOL0     C78964   9.950   1.677   6.243 -0.8833  0.2028 -0.7458
  599MOL0     C78965   9.994   1.757   6.132 -0.9887 -0.8614  0.0943
  599MOL0     O78966   9.957   1.896   6.136  0.9246 -0.1912 -0.2357
  599MOL0     C78967  10.030   1.974   6.050 -0.3219  0.0284  0.1363
  599MOL0     C78968  10.160   1.960   6.006  0.6251 -0.6458  0.8897
  599MOL0     C78969  10.225   2.057   5.930 -0.1165  0.2975  0.6297
  599MOL0     C78970  10.157   2.167   5.875 -0.0851  0.2879 -0.8635
  599MOL0     O78971  10.217   2.244   5.779 -0.6372  0.2222 -0.5665
  599MOL0     C78972  10.130   2.291   5.679  0.3274 -0.3143  0.1843
  599MOL0     C78973  10.211   2.313   5.550  0.6026 -0.0657  0.5568
  599MOL0     C78974  10.123   2.392   5.458 -0.2557  0.0662 -0.5076
  599MOL0     C78975  10.183   2.425   5.317 -0.5256  0.6247 -0.2660
  599MOL0     C78976  10.154   2.308   5.216  0.6964  0.0044 -0.6226
  599MOL0     C78977  10.008   2.314   5.155  0.3054 -0.2048 -1.0715
  599MOL0     C78978   9.999   2.221   5.041 -0.9471  0.3639  0.9129
  599MOL0     C78979   9.885   2.265   4.945  0.3670 -0.5453  0.0627
  599MOL0    Cl78980   9.877   2.141   4.816  0.3394 -0.1923 -0.2493
  599MOL0     C78981  10.027   2.185   5.936  0.3034 -0.2417 -0.1290
  599MOL0     C78982   9.968   2.091   6.017 -0.8457  0.0207  0.1459
  599MOL0     O78983  10.060   1.703   6.045 -0.2327 -0.5000  0.6058
  599MOL0     C78984   9.919   1.732   6.365 -0.0422  0.0632 -1.1195
  599MOL0     C78985   9.878   1.650   6.468  0.3582  0.1945 -0.0939
  599MOL0     N78986   9.935   1.193   7.169 -0.3107  0.9151 -0.1079
  599MOL0     N78987  10.043   1.223   7.235  0.7629 -0.2428  0.1351
  599MOL0     C78988  10.803   0.706   6.966 -0.4924  0.0656  0.8852
  599MOL0     C78989  10.870   0.735   6.854 -0.1148  1.1461 -0.8522
  599MOL0     C78990  10.948   0.821   6.403  1.2146  0.8315  0.1311
  599MOL0     C78991  11.012   0.745   6.303  0.0508  0.1780  0.7335
  599MOL0     C78992  11.055   0.821   6.195 -0.7755  0.4645  1.0897
  599MOL0     C78993  11.047   0.961   6.183  0.1970  0.2110  0.0054
  599MOL0     O78994  11.114   1.034   6.087 -0.0684  0.7468  0.1343
  599MOL0     C78995  11.121   0.962   5.964 -0.5434 -0.6366 -0.1352
  599MOL0     C78996  11.167   1.062   5.856  0.5700 -0.5875  0.6332
  599MOL0     C78997  11.309   1.125   5.878  0.3403 -0.4605 -0.6447
  599MOL0     C78998  11.405   1.051   5.781  0.3632  0.9640  0.4149
  599MOL0     C78999  11.525   1.126   5.757  0.1702  0.0945  0.2923
  599MOL0     C79000  11.625   1.195   5.745 -1.2768 -0.2580 -0.8027
  599MOL0     C79001  10.983   1.022   6.286  0.0421  0.4341 -0.2903
  599MOL0     C79002  10.920   0.956   6.388 -0.7709  0.4354 -0.6446
  599MOL0     H79003  10.613   0.724   6.645  0.0322  2.2167  0.7722
  599MOL0     H79004  10.494   0.632   6.842  0.3409 -3.2922  0.7609
  599MOL0     H79005  10.520   0.499   7.136 -0.0531 -0.1905 -1.0455
  599MOL0     H79006  10.408   0.610   7.044 -1.4352 -3.6674 -0.4784
  599MOL0     H79007  10.522   0.638   7.322 -2.3415  1.5255  0.8767
  599MOL0     H79008  10.357   0.582   7.269 -3.7391  1.9081 -0.2516
  599MOL0     H79009  10.322   0.805   7.153 -0.1895  1.9793  0.1778
  599MOL0     H79010  10.487   0.845   7.228  0.5640  0.2813  1.4367
  599MOL0     H79011  10.216   0.827   7.329  0.7284  1.3331 -2.8915
  599MOL0     H79012  10.342   0.770   7.440  0.2678 -0.1528 -0.0430
  599MOL0     H79013  10.453   1.019   7.380 -0.7107  2.3806 -1.4854
  599MOL0     H79014  10.298   1.009   7.483  0.3471  0.3099 -0.1757
  599MOL0     H79015  10.201   1.041   7.237  0.1311  1.1595 -0.4457
  599MOL0     H79016  10.380   1.068   7.188  0.2995 -1.7515 -0.3195
  599MOL0     H79017  10.255   1.243   7.389 -1.9733  1.1460 -0.9934
  599MOL0     H79018  10.415   1.254   7.313  0.8429  0.9182 -2.5966
  599MOL0     H79019  10.328   1.322   7.103  0.6655  2.5397  0.2444
  599MOL0     H79020  10.231   1.434   7.194 -1.3299  0.1032  0.2533
  599MOL0     H79021  10.105   1.339   6.935  1.4840  0.8797  0.9382
  599MOL0     H79022   9.733   1.216   6.991 -0.7935 -0.9013 -1.1025
  599MOL0     H79023   9.834   1.112   6.898  1.5623 -0.2320  1.4960
  599MOL0     H79024   9.916   1.272   6.760  0.3775  0.6354  0.1044
  599MOL0     H79025   9.883   1.401   6.874 -1.1018  1.1684 -1.5969
  599MOL0     H79026   9.653   1.264   6.713 -4.6725  3.8940 -1.1589
  599MOL0     H79027   9.626   1.373   6.829 -0.8068  2.3899 -1.3749
  599MOL0     H79028   9.800   1.541   6.726 -3.8535  2.0672  1.8814
  599MOL0     H79029   9.649   1.516   6.631  1.1048  1.1743 -1.4830
  599MOL0     H79030   9.863   1.351   6.300  1.8887  0.0686 -2.5748
  599MOL0     H79031   9.959   1.501   6.121 -0.4258  3.0344 -1.0491
  599MOL0     H79032  10.203   1.865   6.034 -2.2145 -2.1177  0.5634
  599MOL0     H79033  10.324   2.033   5.893 -0.4222 -1.3935  0.7850
  599MOL0     H79034  10.089   2.385   5.716 -5.1801 -3.0498  2.1585
  599MOL0     H79035  10.051   2.220   5.655 -1.7698  1.3636  1.8060
  599MOL0     H79036  10.215   2.215   5.503 -1.2604  0.6298 -1.2394
  599MOL0     H79037  10.307   2.363   5.564  1.1177 -0.5988 -0.8224
  599MOL0     H79038  10.098   2.489   5.501 -1.1712 -1.5124  2.7582
  599MOL0     H79039  10.033   2.332   5.440  0.5919 -0.4695 -3.5648
  599MOL0     H79040  10.142   2.519   5.280  2.0166  1.7327 -0.4918
  599MOL0     H79041  10.290   2.450   5.316 -0.7154  1.5288 -2.2317
  599MOL0     H79042  10.169   2.214   5.270 -2.0518  1.4081  2.9870
  599MOL0     H79043  10.219   2.318   5.128  2.1282  0.0896  0.4169
  599MOL0     H79044   9.980   2.419   5.139 -1.9081 -0.2850  1.6285
  599MOL0     H79045   9.943   2.277   5.234  2.3125 -1.2458  0.1706
  599MOL0     H79046  10.095   2.231   4.990 -0.2697 -0.3322  1.9976
  599MOL0     H79047   9.987   2.123   5.087 -0.6658 -0.9787 -1.7333
  599MOL0     H79048   9.893   2.363   4.896  0.6105 -0.4878  0.2179
  599MOL0     H79049   9.788   2.263   4.996  1.0404  0.0658  1.4155
  599MOL0     H79050   9.971   2.273   5.907  1.1802  0.4012  0.0935
  599MOL0     H79051   9.874   2.110   6.069 -0.5570 -1.4291  1.2800
  599MOL0     H79052   9.928   1.840   6.376  3.8205 -0.3115  1.5732
  599MOL0     H79053   9.856   1.710   6.556 -0.8590  0.9476 -0.8675
  599MOL0     H79054  10.868   0.699   7.053 -0.3301  2.7766  1.0647
  599MOL0     H79055  10.976   0.754   6.861 -0.2625  1.8623 -0.4502
  599MOL0     H79056  11.037   0.642   6.329  2.6267  0.5062 -0.1194
  599MOL0     H79057  11.096   0.747   6.126 -2.6934  0.3664 -0.0294
  599MOL0     H79058  11.024   0.917   5.940 -0.4205 -1.2211  0.4166
  599MOL0     H79059  11.194   0.882   5.973  1.3866  1.2008  1.6235
  599MOL0     H79060  11.168   1.007   5.762 -0.6865  1.3741 -0.6145
  599MOL0     H79061  11.101   1.149   5.848  1.6738  0.2667  0.6055
  599MOL0     H79062  11.333   1.104   5.983 -1.6862 -1.8614 -0.3939
  599MOL0     H79063  11.304   1.233   5.859  2.3839 -0.2739 -0.3304
  599MOL0     H79064  11.423   0.948   5.811 -3.0857 -0.7531 -2.6694
  599MOL0     H79065  11.361   1.022   5.686 -1.2862 -0.7142  1.6370
  599MOL0     H79066  11.713   1.250   5.717 -0.8562  0.7128  2.1242
  599MOL0     H79067  10.966   1.129   6.280  0.1885  0.4349 -0.7228
  599MOL0     H79068  10.857   1.012   6.455  1.0649  3.6764 -1.4335
  600MOL0     O79069  10.155   6.659   8.335 -0.5087 -0.6103 -0.1826
  600MOL0     C79070  10.137   6.624   8.454 -0.8517 -1.1665 -1.1732
  600MOL0     O79071  10.242   6.598   8.546 -0.6092  0.8072 -0.0369
  600MOL0     C79072  10.371   6.592   8.500  0.5429 -0.5217 -0.2808
  600MOL0     C79073  10.422   6.687   8.419  0.5276 -1.2857  0.5410
  600MOL0     C79074  10.558   6.700   8.390  0.7210  0.9627  0.7480
  600MOL0     C79075  10.647   6.605   8.432  0.9479 -0.7385 -0.0064
  600MOL0     O79076  10.777   6.605   8.418 -0.4208  0.7253 -0.1053
  600MOL0     C79077  10.841   6.713   8.353  0.3200  0.0953  0.9675
  600MOL0     C79078  10.989   6.691   8.365 -0.6629 -0.8268 -0.8993
  600MOL0     C79079  11.039   6.593   8.260  0.6678 -0.4860 -0.6330
  600MOL0     C79080  11.189   6.573   8.272  0.5166 -0.3699 -0.1072
  600MOL0     C79081  11.257   6.502   8.147 -0.3695 -0.9978  0.4041
  600MOL0     C79082  11.214   6.529   7.997  0.2265 -0.2634 -0.7417
  600MOL0     C79083  11.315   6.492   7.893  0.7999 -0.6189 -0.2956
  600MOL0     C79084  11.319   6.347   7.880 -0.0437 -0.1222 -0.5440
  600MOL0     N79085  11.407   6.288   7.971 -0.2324 -0.1374 -0.3899
  600MOL0     C79086  11.542   6.319   7.979 -0.0350 -0.6777  0.3898
  600MOL0     C79087  11.585   6.250   8.092 -0.0959  0.0291  0.5410
  600MOL0     C79088  11.718   6.263   8.157 -0.0617 -0.4736  0.2117
  600MOL0     C79089  11.687   6.307   8.310 -0.5566 -0.1689 -0.8238
  600MOL0     C79090  11.814   6.397   8.358  0.4796 -0.3513  0.9217
  600MOL0     C79091  11.786   6.498   8.470  1.1603 -0.0109  0.4639
  600MOL0     O79092  11.759   6.430   8.592  0.0715 -0.2920  0.2481
  600MOL0     C79093  11.741   6.511   8.694  0.6595  0.2749 -0.6824
  600MOL0     C79094  11.752   6.454   8.824  0.1828  0.9634 -0.1572
  600MOL0     C79095  11.740   6.527   8.939 -1.2938 -0.0536 -0.0409
  600MOL0     C79096  11.720   6.664   8.938 -0.0613 -0.5551  0.3000
  600MOL0     C79097  11.717   6.752   9.056 -1.0042 -0.1154 -0.1695
  600MOL0     O79098  11.707   6.887   9.026  0.4734  0.2639 -1.2393
  600MOL0     C79099  11.696   6.976   9.123  0.0043  0.4405 -0.5582
  600MOL0     C79100  11.571   7.014   9.169  0.4293 -0.0002 -1.3638
  600MOL0     C79101  11.560   7.108   9.275  0.7333  0.1650  0.4349
  600MOL0     C79102  11.668   7.176   9.325 -0.7216  0.6420 -0.4023
  600MOL0     O79103  11.639   7.257   9.431  0.6346  0.2593 -0.2587
  600MOL0     C79104  11.572   7.214   9.545  0.0493 -0.7633 -0.4131
  600MOL0     C79105  11.657   7.243   9.674 -0.6965  0.3049  0.1796
  600MOL0     C79106  11.578   7.178   9.789  0.3060  0.0872  0.0296
  600MOL0     C79107  11.622   7.206   9.933  0.0244 -0.1005  0.3194
  600MOL0     C79108  11.528   7.138  10.027  0.5341  0.1004  0.1898
  600MOL0     C79109  11.561   7.181  10.169  0.2671 -0.7452 -0.0244
  600MOL0     C79110  11.693   7.119  10.230  0.0250  0.4993  0.5053
  600MOL0     C79111  11.712   7.153  10.378  0.3444  0.4544  0.8141
  600MOL0    Cl79112  11.725   7.330  10.400  0.0300 -0.1582  0.2615
  600MOL0     C79113  11.793   7.153   9.260  0.6296  0.3562  0.1531
  600MOL0     C79114  11.805   7.052   9.163  0.4061 -0.1601  0.1120
  600MOL0     O79115  11.732   6.708   9.166 -0.5977 -0.3531  0.3363
  600MOL0     C79116  11.693   6.722   8.807 -0.8049  0.1605  0.1345
  600MOL0     C79117  11.709   6.649   8.690  0.3617  0.3255 -0.3034
  600MOL0     N79118  11.467   6.172   8.139 -0.9024  0.1787  0.2891
  600MOL0     N79119  11.372   6.189   8.065  0.2143 -0.6855 -0.3558
  600MOL0     C79120  10.595   6.496   8.501  0.0510  0.2120  0.5643
  600MOL0     C79121  10.466   6.498   8.548  0.0215  0.6052 -0.8711
  600MOL0     C79122  10.008   6.632   8.514  0.5580  0.1356  0.0359
  600MOL0     C79123   9.987   6.607   8.650 -0.9179  0.1959 -0.4597
  600MOL0     C79124   9.849   6.606   8.700  0.5192  0.4583  0.3272
  600MOL0     C79125   9.747   6.653   8.633  0.8659  0.4856 -0.0276
  600MOL0     O79126   9.629   6.653   8.700  0.1337 -0.1643  0.0868
  600MOL0     C79127   9.523   6.734   8.641 -0.5509 -0.2075  0.2758
  600MOL0     C79128   9.552   6.877   8.680 -0.2303 -0.5520  0.7884
  600MOL0     C79129   9.562   6.887   8.828  0.7008  0.8460 -0.0641
  600MOL0     C79130   9.545   7.034   8.868  0.6890 -0.8310  0.4799
  600MOL0     C79131   9.418   7.098   8.843 -0.2152 -0.0552  0.0820
  600MOL0     C79132   9.310   7.143   8.811 -0.2659  0.0340 -0.2823
  600MOL0     C79133   9.775   6.689   8.495  0.5096  0.3118 -0.2756
  600MOL0     C79134   9.894   6.667   8.435  0.1647 -0.7685 -0.9484
  600MOL0     H79135  10.360   6.767   8.380  0.6300 -1.1336  0.6904
  600MOL0     H79136  10.591   6.789   8.337  2.7251  0.0284  0.3563
  600MOL0     H79137  10.806   6.811   8.384  0.1776  0.5403 -0.5111
  600MOL0     H79138  10.800   6.695   8.253 -1.5404 -0.3601  1.7621
  600MOL0     H79139  11.012   6.654   8.465 -2.6492  1.1896  0.4015
  600MOL0     H79140  11.036   6.787   8.340 -1.6035 -0.9644 -3.4414
  600MOL0     H79141  11.015   6.631   8.160 -1.8505  1.4079  0.5748
  600MOL0     H79142  10.986   6.498   8.272  1.7843 -0.7268  3.8814
  600MOL0     H79143  11.219   6.677   8.255 -2.0943  0.0662 -2.7875
  600MOL0     H79144  11.211   6.528   8.369 -1.1239 -2.4162 -0.6245
  600MOL0     H79145  11.234   6.397   8.165  0.9658 -1.1635  1.3002
  600MOL0     H79146  11.365   6.520   8.149 -0.0423 -0.6754 -5.3845
  600MOL0     H79147  11.191   6.635   7.994  0.1070 -0.1053  2.4087
  600MOL0     H79148  11.130   6.461   7.978  2.7124 -3.4029 -1.5309
  600MOL0     H79149  11.281   6.542   7.802  0.4657 -2.1602 -1.0556
  600MOL0     H79150  11.414   6.530   7.921  1.5240 -1.8373 -1.0838
  600MOL0     H79151  11.345   6.336   7.775 -2.1439 -1.2089 -1.0113
  600MOL0     H79152  11.224   6.292   7.884  1.3543 -3.2071 -4.0596
  600MOL0     H79153  11.607   6.377   7.914  0.2079 -0.9469  0.3901
  600MOL0     H79154  11.796   6.321   8.107  1.3271 -3.1390 -0.9175
  600MOL0     H79155  11.762   6.163   8.159  1.2196  0.0626  2.5682
  600MOL0     H79156  11.674   6.222   8.378 -0.0680  1.8571  1.9555
  600MOL0     H79157  11.592   6.362   8.305 -0.5127  0.1440  1.0572
  600MOL0     H79158  11.893   6.328   8.388  0.7141 -0.9207 -0.8745
  600MOL0     H79159  11.853   6.437   8.264 -1.8969 -0.2053 -0.0786
  600MOL0     H79160  11.708   6.559   8.422  1.5390 -0.3331 -0.6072
  600MOL0     H79161  11.864   6.570   8.494 -0.2491  1.7729 -0.0759
  600MOL0     H79162  11.772   6.347   8.832 -2.5299  0.3032 -1.1296
  600MOL0     H79163  11.748   6.475   9.033 -1.2129 -3.9182 -2.0132
  600MOL0     H79164  11.481   6.969   9.128  0.3210 -0.2624 -0.8475
  600MOL0     H79165  11.465   7.136   9.319 -0.3423 -3.9095  1.0347
  600MOL0     H79166  11.544   7.109   9.536  2.4073 -1.4154 -0.8422
  600MOL0     H79167  11.483   7.277   9.554  2.5189  2.9320  0.2813
  600MOL0     H79168  11.658   7.351   9.692  1.0888  0.6442 -1.5267
  600MOL0     H79169  11.758   7.200   9.665  0.4688  2.2093  2.8761
  600MOL0     H79170  11.581   7.070   9.773 -1.3774 -0.0770  0.6264
  600MOL0     H79171  11.476   7.217   9.784 -1.0443 -3.2721 -2.1235
  600MOL0     H79172  11.722   7.168   9.955  0.0677 -0.9127 -1.1237
  600MOL0     H79173  11.621   7.315   9.946  0.5290 -0.0443 -0.0942
  600MOL0     H79174  11.541   7.030  10.015  1.1442 -0.4267  4.1766
  600MOL0     H79175  11.423   7.154  10.000  0.5967 -2.7180 -2.2702
  600MOL0     H79176  11.482   7.156  10.240  0.0309 -0.7996 -0.3060
  600MOL0     H79177  11.572   7.290  10.166  0.9110 -0.8267 -1.5948
  600MOL0     H79178  11.705   7.011  10.218  2.7591  0.8748 -0.8872
  600MOL0     H79179  11.767   7.181  10.179 -0.6144 -0.4206 -1.6889
  600MOL0     H79180  11.804   7.109  10.415  3.0060  3.1821 -1.9691
  600MOL0     H79181  11.628   7.110  10.434 -1.0321  1.9995  0.0556
  600MOL0     H79182  11.877   7.213   9.291 -0.7775  0.4351  4.5185
  600MOL0     H79183  11.905   7.044   9.121  1.5409 -1.3385  2.8289
  600MOL0     H79184  11.680   6.829   8.793  0.5957  0.4582  0.8955
  600MOL0     H79185  11.683   6.702   8.600 -1.3357  0.1728  0.0632
  600MOL0     H79186  10.660   6.411   8.523 -2.6903 -2.1211  0.3222
  600MOL0     H79187  10.431   6.421   8.616 -0.2362  1.8233  0.4323
  600MOL0     H79188  10.067   6.589   8.722 -1.4926 -1.1775 -0.1301
  600MOL0     H79189   9.843   6.575   8.804  3.4665  1.7225  0.9754
  600MOL0     H79190   9.424   6.706   8.678 -0.1981 -0.8687  0.7434
  600MOL0     H79191   9.527   6.718   8.533 -0.7412 -0.3932  0.2957
  600MOL0     H79192   9.644   6.907   8.629 -1.2176  0.1851 -0.6424
  600MOL0     H79193   9.469   6.938   8.642 -0.9020 -1.4266  0.8116
  600MOL0     H79194   9.653   6.839   8.866 -0.2105 -0.7738  0.1789
  600MOL0     H79195   9.484   6.829   8.878  1.0796 -0.9323 -1.4084
  600MOL0     H79196   9.544   7.043   8.977 -2.1913  1.0441  0.4218
  600MOL0     H79197   9.631   7.094   8.839 -1.6917  1.6496 -2.1729
  600MOL0     H79198   9.214   7.185   8.789  0.0494  0.7932 -0.2309
  600MOL0     H79199   9.695   6.714   8.425 -0.2831 -1.6258 -0.1173
  600MOL0     H79200   9.913   6.696   8.331  2.9826 -3.0222 -1.1955
  601MOL0     O79201  10.937   8.731   3.407  0.6421  0.5401  0.0377
  601MOL0     C79202  10.819   8.712   3.365  0.3750  0.7648 -0.4043
  601MOL0     O79203  10.707   8.701   3.446 -0.7258  0.8654  0.5102
  601MOL0     C79204  10.712   8.745   3.580  0.3491 -0.0789  1.0290
  601MOL0     C79205  10.813   8.828   3.641 -0.1501  0.4824 -1.0382
  601MOL0     C79206  10.795   8.872   3.773  0.4500  0.8665 -0.6336
  601MOL0     C79207  10.661   8.848   3.832 -0.2399 -0.3430 -0.6978
  601MOL0     O79208  10.632   8.888   3.960  0.1883 -0.0662 -0.0700
  601MOL0     C79209  10.729   8.923   4.057 -0.4700 -0.2760 -0.0927
  601MOL0     C79210  10.756   9.081   4.033 -0.4525  0.1068  0.5240
  601MOL0     C79211  10.843   9.125   4.149  0.9283 -0.0344  0.2643
  601MOL0     C79212  10.914   9.255   4.119 -0.7806 -0.5060 -0.0640
  601MOL0     C79213  11.017   9.230   4.001  0.1180  0.4996 -0.0691
  601MOL0     C79214  11.102   9.099   4.004  0.7656 -0.0173  0.8721
  601MOL0     C79215  11.196   9.087   4.119  0.0927  0.3077  0.4982
  601MOL0     C79216  11.320   9.177   4.123 -0.6180  0.2061 -0.8027
  601MOL0     N79217  11.297   9.317   4.175 -0.4350  0.7396 -0.1863
  601MOL0     C79218  11.229   9.350   4.299 -1.0593 -0.2645  0.2785
  601MOL0     C79219  11.197   9.486   4.289 -0.4968  0.5984  0.7204
  601MOL0     C79220  11.115   9.583   4.377 -1.5077  0.6291 -0.1931
  601MOL0     C79221  11.192   9.719   4.390  0.8083 -0.6907  1.5218
  601MOL0     C79222  11.141   9.816   4.490  0.0781 -0.4101  0.7293
  601MOL0     C79223  11.117   9.745   4.624 -0.3771  0.6014 -0.3244
  601MOL0     O79224  11.061   9.848   4.710  0.5116  0.3552 -0.4323
  601MOL0     C79225  10.925   9.850   4.731 -0.2389  0.5061 -0.5003
  601MOL0     C79226  10.834   9.795   4.648  0.6404  0.1082 -0.5032
  601MOL0     C79227  10.701   9.809   4.673 -0.3807  0.4136  0.7002
  601MOL0     C79228  10.652   9.866   4.787 -1.0643 -1.2746  0.4818
  601MOL0     C79229  10.508   9.871   4.831  0.6837 -0.5238 -0.4502
  601MOL0     O79230  10.494   9.884   4.969  0.1627  0.3649 -0.1501
  601MOL0     C79231  10.380   9.895   5.031  0.1660  0.3786  0.0472
  601MOL0     C79232  10.274   9.811   5.000  0.9673  0.3487 -1.1143
  601MOL0     C79233  10.146   9.822   5.046  0.3613  0.0646  0.0585
  601MOL0     C79234  10.111   9.938   5.116 -0.2589 -0.1145  0.4795
  601MOL0     O79235   9.981   9.964   5.149 -0.2299  0.0537  0.2590
  601MOL0     C79236   9.934  10.100   5.121 -0.8374  0.2567 -0.5322
  601MOL0     C79237   9.785  10.091   5.105 -0.3054 -0.6555 -0.4129
  601MOL0     C79238   9.765  10.022   4.972  0.5811  0.7198 -0.1475
  601MOL0     C79239   9.615   9.992   4.969 -0.3560 -0.3261  0.3311
  601MOL0     C79240   9.573   9.955   4.830  0.2736  0.0552  0.0528
  601MOL0     C79241   9.419   9.950   4.812 -0.3311 -0.2113 -0.0864
  601MOL0     C79242   9.393   9.912   4.665  0.9349 -0.0295  0.0726
  601MOL0     C79243   9.240   9.901   4.646  0.3862  0.1953 -0.7903
  601MOL0    Cl79244   9.168  10.057   4.617 -0.1907 -0.1044  0.2476
  601MOL0     C79245  10.215  10.023   5.156 -0.0148  0.4916 -0.8527
  601MOL0     C79246  10.346  10.004   5.111  0.4797 -0.0299  0.3064
  601MOL0     O79247  10.410   9.865   4.748 -0.6286  0.0477  0.6473
  601MOL0     C79248  10.746   9.924   4.878  0.6173  1.2065  1.0218
  601MOL0     C79249  10.884   9.919   4.851 -0.5158  0.3138  0.5314
  601MOL0     N79250  11.260   9.530   4.175 -0.8267  0.8899  0.0037
  601MOL0     N79251  11.304   9.430   4.103 -0.3358  0.5353  0.3925
  601MOL0     C79252  10.569   8.765   3.769 -0.1696  0.6882 -0.0697
  601MOL0     C79253  10.593   8.718   3.639  0.2166  0.2370  0.7687
  601MOL0     C79254  10.804   8.698   3.222  0.3059  0.4964  0.1695
  601MOL0     C79255  10.678   8.685   3.161 -0.3564  1.2394 -1.1076
  601MOL0     C79256  10.655   8.670   3.020  0.2217 -1.1418  0.0703
  601MOL0     C79257  10.770   8.672   2.939 -0.4466 -0.0045  0.5790
  601MOL0     O79258  10.741   8.674   2.807  1.0953 -0.1864 -0.2174
  601MOL0     C79259  10.859   8.670   2.718 -0.2085  0.3479 -0.0575
  601MOL0     C79260  10.931   8.535   2.700 -0.9709  0.2809  0.3562
  601MOL0     C79261  11.023   8.538   2.578 -0.0234 -0.0012 -0.2556
  601MOL0     C79262  11.112   8.658   2.556  0.4799 -0.4565  0.9654
  601MOL0     C79263  11.219   8.678   2.658  0.3756  0.8115 -0.0118
  601MOL0     C79264  11.291   8.697   2.755 -0.4840  0.1521  0.0191
  601MOL0     C79265  10.897   8.674   2.996  0.4147 -0.8263  0.1874
  601MOL0     C79266  10.911   8.693   3.133 -0.6221 -0.4004 -0.4697
  601MOL0     H79267  10.900   8.868   3.591  2.0149  1.3375  2.9898
  601MOL0     H79268  10.868   8.936   3.822 -2.2329  1.7749  2.5500
  601MOL0     H79269  10.825   8.871   4.052 -1.3727 -2.1936  1.3208
  601MOL0     H79270  10.693   8.886   4.153 -2.3985  0.0502 -0.6516
  601MOL0     H79271  10.656   9.125   4.029 -1.5273 -2.2003 -2.7880
  601MOL0     H79272  10.805   9.096   3.936  0.7500 -2.8331  0.5580
  601MOL0     H79273  10.918   9.052   4.180  5.4257  3.4416 -1.2304
  601MOL0     H79274  10.775   9.137   4.234 -1.2147  1.6837 -1.5542
  601MOL0     H79275  10.855   9.343   4.091  0.0626 -0.1414 -0.7162
  601MOL0     H79276  10.972   9.280   4.208 -0.6501  1.0798 -0.5603
  601MOL0     H79277  11.086   9.315   4.004  0.1868  0.4414  0.0477
  601MOL0     H79278  10.969   9.231   3.903  0.2468 -2.3395 -0.2570
  601MOL0     H79279  11.169   9.111   3.918  0.4318  1.3742  0.7687
  601MOL0     H79280  11.036   9.014   3.982 -0.1046  1.1764 -1.6279
  601MOL0     H79281  11.147   9.111   4.214  0.7548 -0.7446  1.1304
  601MOL0     H79282  11.240   8.987   4.124  2.2275  1.1299 -0.7500
  601MOL0     H79283  11.365   9.190   4.024  1.1165 -0.1531 -0.0838
  601MOL0     H79284  11.395   9.117   4.174  1.4247  1.9224 -1.6413
  601MOL0     H79285  11.203   9.273   4.371  4.4168 -4.0740 -1.1791
  601MOL0     H79286  11.119   9.530   4.472 -1.4963 -0.2630 -0.6836
  601MOL0     H79287  11.017   9.608   4.336 -1.9746 -2.9412 -1.5561
  601MOL0     H79288  11.196   9.773   4.295 -1.1489 -0.0422  1.7538
  601MOL0     H79289  11.296   9.711   4.422  1.8098  0.4273 -1.1770
  601MOL0     H79290  11.219   9.891   4.508  0.8230 -0.2450 -2.6183
  601MOL0     H79291  11.054   9.869   4.451  1.0181 -0.0820 -1.0153
  601MOL0     H79292  11.215   9.721   4.664  1.0863  2.1737 -2.6860
  601MOL0     H79293  11.055   9.656   4.607  2.4131 -1.5589  0.1347
  601MOL0     H79294  10.856   9.742   4.556 -2.2467  1.3059 -2.0235
  601MOL0     H79295  10.631   9.757   4.610  1.7985  0.1481 -1.6537
  601MOL0     H79296  10.296   9.735   4.925 -0.6130  0.1944 -1.4607
  601MOL0     H79297  10.062   9.756   5.033 -0.1805  0.8917 -0.7842
  601MOL0     H79298   9.970  10.139   5.026 -1.9565 -1.3176 -1.6652
  601MOL0     H79299   9.962  10.164   5.205 -1.4146 -0.0829 -0.0735
  601MOL0     H79300   9.746  10.192   5.093 -1.3864 -1.1398 -1.2039
  601MOL0     H79301   9.743  10.044   5.194  0.3799  0.3205  0.4443
  601MOL0     H79302   9.811   9.923   4.978 -2.2565 -0.7903 -1.2391
  601MOL0     H79303   9.799  10.075   4.883  0.8873  1.3620  0.3409
  601MOL0     H79304   9.590   9.929   5.054  1.2112 -1.5600 -0.0575
  601MOL0     H79305   9.557  10.082   4.988 -2.3870 -1.4689 -0.2052
  601MOL0     H79306   9.618   9.859   4.803 -0.3451 -0.0524 -0.6245
  601MOL0     H79307   9.615  10.005   4.743 -0.1799 -2.7076 -1.8761
  601MOL0     H79308   9.377  10.049   4.828 -2.2512 -1.0719  0.4883
  601MOL0     H79309   9.378   9.882   4.887  3.4514 -1.1244  1.4101
  601MOL0     H79310   9.440   9.976   4.590  0.3048 -0.1165 -0.4093
  601MOL0     H79311   9.431   9.811   4.648  0.2782  0.1649 -3.3472
  601MOL0     H79312   9.211   9.863   4.744  3.9229 -3.0916 -0.7627
  601MOL0     H79313   9.233   9.827   4.566 -0.9691 -1.5954  0.8915
  601MOL0     H79314  10.198  10.116   5.208 -2.2275 -0.4114  0.1614
  601MOL0     H79315  10.407  10.088   5.143  0.0176  1.5623 -2.6615
  601MOL0     H79316  10.731   9.978   4.970  1.6995  3.7015 -0.1567
  601MOL0     H79317  10.950   9.971   4.919 -1.9003  0.8581  1.5045
  601MOL0     H79318  10.481   8.750   3.831  0.4990 -0.9074  0.5456
  601MOL0     H79319  10.518   8.660   3.586  0.8777 -0.0756  0.1688
  601MOL0     H79320  10.591   8.683   3.226 -1.1334 -0.1032 -2.1208
  601MOL0     H79321  10.558   8.667   2.973 -0.2056 -1.3713  0.9638
  601MOL0     H79322  10.935   8.748   2.730  0.2916  0.0595 -1.1951
  601MOL0     H79323  10.820   8.702   2.621 -0.3437  0.6829  0.1038
  601MOL0     H79324  10.979   8.493   2.789  2.1966  0.0776 -1.3173
  601MOL0     H79325  10.850   8.462   2.689 -1.6714  0.9859  0.7118
  601MOL0     H79326  10.973   8.512   2.485 -2.0763  1.4404  0.3885
  601MOL0     H79327  11.098   8.460   2.596  2.2640  2.4105  1.5755
  601MOL0     H79328  11.164   8.631   2.463  0.9470 -0.0259  1.0983
  601MOL0     H79329  11.062   8.754   2.540  3.6039  0.9679 -1.2874
  601MOL0     H79330  11.356   8.720   2.836 -0.0392  0.9897 -0.5579
  601MOL0     H79331  10.989   8.666   2.937 -1.4777  4.5346 -4.3141
  601MOL0     H79332  11.006   8.691   3.186 -1.9088 -2.5635  2.0185
  602MOL0     O79333   1.876   3.870   2.911  0.4296 -0.1754 -0.3915
  602MOL0     C79334   1.888   3.881   3.032 -0.3994 -0.4954 -0.0045
  602MOL0     O79335   1.958   3.790   3.111 -0.3593  0.2320  0.7476
  602MOL0     C79336   2.070   3.717   3.059 -0.3076 -0.4649 -0.6236
  602MOL0     C79337   2.114   3.633   3.165 -1.7922  0.5087 -0.5394
  602MOL0     C79338   2.233   3.551   3.149  0.7653  0.5445 -0.1722
  602MOL0     C79339   2.295   3.549   3.021 -0.3839 -0.9145  0.3284
  602MOL0     O79340   2.391   3.460   2.971 -0.4544 -0.1319 -0.9588
  602MOL0     C79341   2.438   3.374   3.073 -0.1240  0.4578  0.1314
  602MOL0     C79342   2.568   3.317   3.025 -0.8148  0.1126 -0.4266
  602MOL0     C79343   2.657   3.236   3.134  0.0006  0.3365  1.0082
  602MOL0     C79344   2.782   3.185   3.062 -0.4085  0.1950  0.1590
  602MOL0     C79345   2.877   3.105   3.147  1.1131 -0.1085 -0.0595
  602MOL0     C79346   2.826   2.977   3.200 -0.1986  0.1674 -0.0287
  602MOL0     C79347   2.934   2.909   3.300 -0.1001 -0.1229  0.6173
  602MOL0     C79348   2.882   2.787   3.383  0.1177  0.0175 -0.3613
  602MOL0     N79349   2.778   2.822   3.481  0.1625 -0.2200 -0.3384
  602MOL0     C79350   2.788   2.923   3.586 -0.0217 -0.0917  0.2675
  602MOL0     C79351   2.667   2.960   3.616 -0.4596  0.0760  0.6614
  602MOL0     C79352   2.639   3.062   3.717 -0.1269  0.5340  0.8420
  602MOL0     C79353   2.502   3.117   3.714  0.0666 -0.9269 -0.0871
  602MOL0     C79354   2.484   3.212   3.603  0.4622 -0.8046  0.4659
  602MOL0     C79355   2.356   3.293   3.600  0.6200 -0.4548  0.4371
  602MOL0     O79356   2.352   3.419   3.520 -0.4891  0.0592 -0.0890
  602MOL0     C79357   2.240   3.498   3.526 -0.0215  0.4873 -0.6076
  602MOL0     C79358   2.114   3.459   3.588  0.8615 -0.4350 -0.5010
  602MOL0     C79359   2.009   3.554   3.616  0.3111 -0.1056 -0.1318
  602MOL0     C79360   2.011   3.687   3.571 -1.0946 -0.7047  0.4119
  602MOL0     C79361   1.913   3.795   3.597 -0.2757 -0.1466 -0.2001
  602MOL0     O79362   1.789   3.755   3.669 -0.0924  0.7484  0.5303
  602MOL0     C79363   1.718   3.867   3.718 -0.0619  0.8465 -0.1164
  602MOL0     C79364   1.756   3.995   3.769  0.1208 -0.6907 -0.2425
  602MOL0     C79365   1.656   4.081   3.812  1.1321  0.2948 -0.6061
  602MOL0     C79366   1.521   4.050   3.797  0.0096  0.3775  0.0403
  602MOL0     O79367   1.416   4.125   3.852  0.0274 -0.2030 -0.4373
  602MOL0     C79368   1.440   4.266   3.870  0.6306  0.2991 -0.6384
  602MOL0     C79369   1.308   4.336   3.907 -0.5758 -0.3582 -0.6222
  602MOL0     C79370   1.316   4.488   3.948  0.4479  0.1671  0.3688
  602MOL0     C79371   1.190   4.534   4.023  1.0905  0.1917 -0.3170
  602MOL0     C79372   1.187   4.671   4.088  0.6589  0.3300 -0.3079
  602MOL0     C79373   1.048   4.730   4.121 -0.2160  0.3397 -0.1817
  602MOL0     C79374   1.054   4.868   4.183  0.2644 -0.4230  0.1854
  602MOL0     C79375   0.933   4.911   4.261 -0.5514  0.0425 -0.2798
  602MOL0    Cl79376   0.983   5.085   4.309 -0.0539 -0.2622  0.4845
  602MOL0     C79377   1.484   3.923   3.753 -0.4768 -0.5163  0.6131
  602MOL0     C79378   1.580   3.832   3.717 -0.6452  1.4242  0.6705
  602MOL0     O79379   1.940   3.908   3.552  0.3718  0.6976 -0.3930
  602MOL0     C79380   2.134   3.722   3.509  0.1286  0.4132 -0.9433
  602MOL0     C79381   2.245   3.626   3.487 -0.1765 -0.6043  0.0474
  602MOL0     N79382   2.585   2.878   3.538 -0.3244  0.2899 -0.9627
  602MOL0     N79383   2.645   2.788   3.467 -0.6511 -0.5539  0.0227
  602MOL0     C79384   2.249   3.633   2.920 -0.2631  0.4778 -0.7171
  602MOL0     C79385   2.136   3.724   2.940  0.4888 -0.5994 -0.1466
  602MOL0     C79386   1.817   3.993   3.104 -0.5540 -0.1594  0.0320
  602MOL0     C79387   1.762   4.096   3.043  0.0336 -0.1728 -0.4814
  602MOL0     C79388   1.696   4.200   3.118  0.6843  0.1721 -0.4843
  602MOL0     C79389   1.688   4.190   3.263  0.8515 -0.3025 -0.1275
  602MOL0     O79390   1.627   4.294   3.332 -0.1172  0.3330  0.2590
  602MOL0     C79391   1.520   4.257   3.421 -0.2039 -0.2363 -0.5017
  602MOL0     C79392   1.404   4.237   3.343  0.6514  0.1069  0.1041
  602MOL0     C79393   1.289   4.204   3.439  0.9641  0.0403  0.3484
  602MOL0     C79394   1.144   4.185   3.383  0.6082  0.8286 -1.6512
  602MOL0     C79395   1.090   4.297   3.302  0.2421  0.2551 -1.2302
  602MOL0     C79396   1.033   4.381   3.235  0.1303 -0.0375 -0.6634
  602MOL0     C79397   1.756   4.083   3.325 -0.7030  0.2768 -0.3700
  602MOL0     C79398   1.820   3.992   3.242 -0.0126  0.4121 -0.1970
  602MOL0     H79399   2.061   3.644   3.259  0.6934  0.6622  0.9187
  602MOL0     H79400   2.263   3.483   3.228 -3.8596 -0.3231  1.1281
  602MOL0     H79401   2.362   3.296   3.085  1.6814 -1.6228 -1.1699
  602MOL0     H79402   2.465   3.426   3.166  0.2757  1.1498 -0.3656
  602MOL0     H79403   2.634   3.395   2.988 -1.8122  0.7112 -1.0092
  602MOL0     H79404   2.555   3.246   2.942  1.9302  1.5783 -2.2324
  602MOL0     H79405   2.598   3.161   3.187 -1.6240 -1.9136 -3.4740
  602MOL0     H79406   2.684   3.316   3.204 -1.1145  2.3454 -0.7426
  602MOL0     H79407   2.747   3.127   2.976 -0.4953  1.5661 -0.7499
  602MOL0     H79408   2.847   3.266   3.030  1.5329 -2.5017 -3.4837
  602MOL0     H79409   2.897   3.175   3.229 -0.2470  3.2097 -2.3054
  602MOL0     H79410   2.962   3.087   3.081 -0.4219  2.3830 -3.0499
  602MOL0     H79411   2.825   2.903   3.119  0.8637  0.0255  0.0751
  602MOL0     H79412   2.724   2.977   3.239 -0.0823  1.2618  0.3004
  602MOL0     H79413   3.020   2.883   3.238  1.2325  1.2475  1.7982
  602MOL0     H79414   2.966   2.986   3.371 -0.1874 -0.9752  1.6021
  602MOL0     H79415   2.969   2.738   3.428  0.9698  1.3266 -0.5482
  602MOL0     H79416   2.842   2.728   3.300 -0.6232  0.5019 -0.3554
  602MOL0     H79417   2.874   2.971   3.632  1.7813 -2.2674 -0.6125
  602MOL0     H79418   2.714   3.140   3.730 -0.8001  0.8653  3.0595
  602MOL0     H79419   2.644   3.020   3.818  4.2995 -1.0672  0.1566
  602MOL0     H79420   2.486   3.169   3.809 -2.3857 -0.5736 -0.6307
  602MOL0     H79421   2.425   3.040   3.703  0.8845 -1.5886 -1.4952
  602MOL0     H79422   2.567   3.283   3.607 -2.6529  3.4380 -1.9572
  602MOL0     H79423   2.498   3.153   3.513 -0.3653 -1.2316  0.6080
  602MOL0     H79424   2.339   3.333   3.701 -1.6103  1.9337 -0.7519
  602MOL0     H79425   2.266   3.233   3.584 -1.9227  2.6145  2.0455
  602MOL0     H79426   2.102   3.362   3.637  1.1006 -0.4157 -0.4051
  602MOL0     H79427   1.926   3.513   3.673 -1.6614  0.7188 -2.2278
  602MOL0     H79428   1.861   4.020   3.785 -0.2831  1.1584 -0.1672
  602MOL0     H79429   1.688   4.173   3.858 -0.3370  0.4057  0.2298
  602MOL0     H79430   1.493   4.319   3.790  2.7616 -1.3874 -0.4458
  602MOL0     H79431   1.510   4.273   3.953 -0.0736  3.2466 -0.1965
  602MOL0     H79432   1.276   4.275   3.993  2.0667 -1.0582 -0.0301
  602MOL0     H79433   1.241   4.329   3.821 -1.1553 -0.7112 -0.1575
  602MOL0     H79434   1.335   4.548   3.859 -0.6155 -0.4506 -0.2974
  602MOL0     H79435   1.394   4.497   4.024 -0.1795  0.9592  0.9366
  602MOL0     H79436   1.102   4.525   3.959  0.4355  4.4645 -0.3162
  602MOL0     H79437   1.166   4.463   4.103 -3.3394 -0.5992 -2.0306
  602MOL0     H79438   1.237   4.748   4.029 -0.4270  1.5305  0.2843
  602MOL0     H79439   1.240   4.659   4.183 -0.4004 -3.7906 -0.0515
  602MOL0     H79440   0.984   4.669   4.186  3.9487 -1.7750  2.4476
  602MOL0     H79441   1.002   4.728   4.022 -1.1257 -1.9889  0.2255
  602MOL0     H79442   1.135   4.889   4.254 -0.2848 -0.7403  0.9190
  602MOL0     H79443   1.073   4.943   4.106 -3.6579 -0.7830 -1.3525
  602MOL0     H79444   0.921   4.856   4.355 -2.7412 -1.8970 -1.6006
  602MOL0     H79445   0.844   4.910   4.199  0.4995 -1.0706 -1.8323
  602MOL0     H79446   1.376   3.914   3.760 -0.5532  0.8848  1.7175
  602MOL0     H79447   1.534   3.737   3.690 -1.2385  1.7764  0.4245
  602MOL0     H79448   2.155   3.823   3.477 -0.2750  1.1716  1.0488
  602MOL0     H79449   2.336   3.667   3.444  1.9102 -2.1809  2.6027
  602MOL0     H79450   2.278   3.642   2.816 -3.9452  1.1331 -1.8252
  602MOL0     H79451   2.115   3.796   2.861  0.6869 -0.1964  0.1624
  602MOL0     H79452   1.759   4.100   2.934  0.4451  4.9219 -0.5257
  602MOL0     H79453   1.651   4.291   3.080  0.7628  1.1156  1.5543
  602MOL0     H79454   1.496   4.340   3.489 -0.0049  0.9735 -1.8573
  602MOL0     H79455   1.555   4.181   3.491 -1.2428 -0.3145 -0.0447
  602MOL0     H79456   1.377   4.322   3.280  2.5775 -1.1677 -2.6271
  602MOL0     H79457   1.413   4.151   3.277  1.1372  0.3206 -0.1106
  602MOL0     H79458   1.267   4.282   3.513 -1.8457  0.3748 -0.7336
  602MOL0     H79459   1.308   4.110   3.492  2.7480  1.9961  3.4879
  602MOL0     H79460   1.142   4.095   3.322 -0.6336  0.7787 -1.5740
  602MOL0     H79461   1.074   4.161   3.465  0.5085  4.1419 -0.6164
  602MOL0     H79462   0.984   4.458   3.180  2.6928  1.8270 -0.4945
  602MOL0     H79463   1.749   4.073   3.433  0.9012  1.1335 -0.1622
  602MOL0     H79464   1.861   3.903   3.289 -0.8418  0.1594  0.0636
  603MOL0     O79465  10.490   6.051   0.252 -0.1620 -0.0752  1.0171
  603MOL0     C79466  10.402   5.972   0.222  0.6256 -0.1270 -1.2619
  603MOL0     O79467  10.418   5.854   0.160  0.0776 -0.1215 -0.2638
  603MOL0     C79468  10.546   5.837   0.110 -1.1266  0.0965 -0.1242
  603MOL0     C79469  10.559   5.850  -0.027 -0.0237 -0.6728  0.0354
  603MOL0     C79470  10.687   5.828  -0.082  0.7797 -0.3015 -1.7705
  603MOL0     C79471  10.800   5.809  -0.008  0.4139 -0.8702 -0.6197
  603MOL0     O79472  10.915   5.769  -0.071 -0.3366 -0.0176  0.4929
  603MOL0     C79473  11.038   5.744  -0.011  0.3678 -0.3803  0.6719
  603MOL0     C79474  11.137   5.864   0.012  0.0019 -0.5828  0.2345
  603MOL0     C79475  11.152   5.938  -0.125  0.3955 -0.9085  1.3596
  603MOL0     C79476  11.250   6.054  -0.127 -0.5918 -0.4042  0.1798
  603MOL0     C79477  11.219   6.132  -0.254  0.6019 -0.7116  0.8095
  603MOL0     C79478  11.346   6.206  -0.304  0.1592 -0.4984  0.8271
  603MOL0     C79479  11.406   6.312  -0.204 -0.1632 -0.2557 -0.1673
  603MOL0     C79480  11.476   6.430  -0.276 -0.2411 -0.5975  0.0330
  603MOL0     N79481  11.510   6.543  -0.186  0.2706  0.0264  0.0530
  603MOL0     C79482  11.603   6.536  -0.087 -0.4598 -1.1952  0.2302
  603MOL0     C79483  11.649   6.665  -0.081 -0.3477  0.2651  0.0798
  603MOL0     C79484  11.756   6.718   0.015  0.0802  0.2807  0.1379
  603MOL0     C79485  11.900   6.696  -0.047 -0.5586 -0.2817 -0.5239
  603MOL0     C79486  12.008   6.743   0.057 -0.7730 -0.6699  0.7066
  603MOL0     C79487  12.070   6.884   0.034 -0.1335 -0.8242  0.3754
  603MOL0     O79488  12.141   6.896  -0.093 -0.1526 -0.4371  0.1540
  603MOL0     C79489  12.133   7.015  -0.163 -0.4389 -0.2351 -0.6563
  603MOL0     C79490  12.201   7.135  -0.137 -1.6002 -0.0476 -0.1899
  603MOL0     C79491  12.163   7.258  -0.192  0.5236  0.3452  0.1429
  603MOL0     C79492  12.055   7.252  -0.285 -0.2051 -0.4518 -0.3541
  603MOL0     C79493  12.013   7.379  -0.347  0.0072  0.5156  0.3897
  603MOL0     O79494  11.890   7.385  -0.400 -0.3545 -0.1300  1.3422
  603MOL0     C79495  11.843   7.506  -0.457  0.3367 -0.9767 -0.2420
  603MOL0     C79496  11.866   7.537  -0.600  0.5669 -0.0021  0.7923
  603MOL0     C79497  11.822   7.660  -0.651  0.1221  0.3605 -0.6639
  603MOL0     C79498  11.767   7.756  -0.562 -0.0029 -0.2284  0.7825
  603MOL0     O79499  11.743   7.884  -0.612  0.1177  0.3297  0.1255
  603MOL0     C79500  11.627   7.951  -0.566  0.5132  0.4387 -0.3977
  603MOL0     C79501  11.589   8.080  -0.648 -1.2689  0.8149 -0.4202
  603MOL0     C79502  11.565   8.044  -0.790 -0.4148 -0.0206 -0.2182
  603MOL0     C79503  11.438   7.970  -0.820  0.2324 -0.3360 -1.0711
  603MOL0     C79504  11.419   7.946  -0.967  0.0915 -0.4213  0.3623
  603MOL0     C79505  11.503   7.814  -1.004  0.6049 -0.0168  0.2973
  603MOL0     C79506  11.478   7.761  -1.151 -0.3190  0.3072  0.1688
  603MOL0     C79507  11.584   7.652  -1.177  0.5837 -0.7792 -0.1065
  603MOL0    Cl79508  11.527   7.573  -1.320  0.4227 -0.3466  0.1354
  603MOL0     C79509  11.749   7.727  -0.426  0.3719  0.1663 -0.0284
  603MOL0     C79510  11.790   7.602  -0.371 -0.5752 -0.2510  0.6471
  603MOL0     O79511  12.088   7.472  -0.336  0.0798  0.3934 -0.0876
  603MOL0     C79512  11.989   7.139  -0.308  0.4890  0.3969 -0.0358
  603MOL0     C79513  12.031   7.023  -0.251  0.4605  0.5415  0.0947
  603MOL0     N79514  11.569   6.747  -0.160 -0.6493 -0.0922  0.1034
  603MOL0     N79515  11.492   6.668  -0.229 -0.3547  0.7513  0.1405
  603MOL0     C79516  10.794   5.811   0.136  0.5896  1.1389 -0.3444
  603MOL0     C79517  10.668   5.823   0.190  1.0182  1.0368  0.4773
  603MOL0     C79518  10.266   6.018   0.248 -0.7883  0.5788  0.3513
  603MOL0     C79519  10.226   6.143   0.274  0.1184  0.5462 -0.3764
  603MOL0     C79520  10.091   6.172   0.298  0.1923  0.9630 -0.8241
  603MOL0     C79521   9.994   6.068   0.319 -0.5401 -0.6756  0.3592
  603MOL0     O79522   9.865   6.112   0.343 -0.6026 -0.2029 -0.3537
  603MOL0     C79523   9.764   6.013   0.377 -0.0565 -0.4288  0.2725
  603MOL0     C79524   9.646   6.111   0.418 -0.3253 -0.1546 -0.4447
  603MOL0     C79525   9.528   6.044   0.480 -0.1747 -0.8199  0.1521
  603MOL0     C79526   9.422   6.153   0.508  0.1009 -0.6851  1.0501
  603MOL0     C79527   9.460   6.226   0.634  0.6627 -0.5737  1.5275
  603MOL0     C79528   9.485   6.278   0.742  0.4753 -0.4820 -0.0408
  603MOL0     C79529  10.040   5.938   0.299 -0.5595 -0.2417  0.3589
  603MOL0     C79530  10.173   5.917   0.257 -0.3181 -0.2649  0.2031
  603MOL0     H79531  10.467   5.871  -0.081 -0.3628 -1.6370  0.2231
  603MOL0     H79532  10.690   5.823  -0.190  1.5249 -1.9407 -1.6996
  603MOL0     H79533  11.086   5.673  -0.079  1.5188 -1.8218  2.8524
  603MOL0     H79534  11.023   5.685   0.080  2.1244 -1.1207  0.5306
  603MOL0     H79535  11.230   5.815   0.042  0.8401 -0.0039 -1.3145
  603MOL0     H79536  11.101   5.928   0.094 -1.8542 -1.4296  0.1329
  603MOL0     H79537  11.053   5.981  -0.144  1.6112  1.8075  0.6679
  603MOL0     H79538  11.160   5.880  -0.217  2.0520 -1.4916  1.8329
  603MOL0     H79539  11.225   6.108  -0.035 -1.8695 -3.2811  1.6737
  603MOL0     H79540  11.353   6.019  -0.124  0.2111  1.7755  0.0214
  603MOL0     H79541  11.141   6.206  -0.234  0.1104 -1.3300  1.2259
  603MOL0     H79542  11.175   6.069  -0.333 -0.5352  2.1584 -1.0055
  603MOL0     H79543  11.325   6.257  -0.399 -2.2830 -2.1646  0.3660
  603MOL0     H79544  11.421   6.133  -0.335 -0.2513  0.1723 -2.0256
  603MOL0     H79545  11.326   6.358  -0.145 -0.3886 -1.8416  0.8398
  603MOL0     H79546  11.468   6.262  -0.129  1.0716  3.0599  1.2269
  603MOL0     H79547  11.407   6.462  -0.354  0.6995 -0.6178 -0.8278
  603MOL0     H79548  11.573   6.412  -0.322  0.8400  2.6695  0.7695
  603MOL0     H79549  11.650   6.453  -0.036 -0.3214 -0.3506  1.5461
  603MOL0     H79550  11.745   6.663   0.109  0.8138 -0.2129 -0.0534
  603MOL0     H79551  11.740   6.823   0.040 -1.7860 -0.0850  0.5731
  603MOL0     H79552  11.899   6.753  -0.140 -1.2859  2.8384  1.2563
  603MOL0     H79553  11.913   6.592  -0.079  3.6084 -0.0885  0.0532
  603MOL0     H79554  11.965   6.750   0.158  1.5473 -3.3979  2.0304
  603MOL0     H79555  12.087   6.668   0.066 -0.3661 -0.1484  1.6578
  603MOL0     H79556  12.132   6.917   0.118 -2.4417 -0.3127  1.9919
  603MOL0     H79557  11.990   6.959   0.031 -0.8407 -1.5956 -0.3410
  603MOL0     H79558  12.278   7.145  -0.062 -2.0049  0.7614  0.1317
  603MOL0     H79559  12.225   7.347  -0.188  0.7533  0.1620  0.7274
  603MOL0     H79560  11.916   7.455  -0.651  2.0481  0.7991  0.9027
  603MOL0     H79561  11.846   7.677  -0.756  1.9167 -1.0659 -0.5442
  603MOL0     H79562  11.644   7.994  -0.467  2.8154  4.5307 -2.2879
  603MOL0     H79563  11.538   7.887  -0.568 -0.6068  1.7757  1.7529
  603MOL0     H79564  11.664   8.159  -0.652  1.4152 -1.5953 -1.5124
  603MOL0     H79565  11.498   8.121  -0.604 -0.6006  0.0490  1.8051
  603MOL0     H79566  11.648   7.989  -0.835 -0.7954  1.3387 -2.7728
  603MOL0     H79567  11.562   8.140  -0.842  1.4046  0.2009  0.0017
  603MOL0     H79568  11.428   7.875  -0.768  0.8485  0.2962  0.2550
  603MOL0     H79569  11.358   8.035  -0.783  0.5603 -1.3919  1.7113
  603MOL0     H79570  11.451   8.036  -1.021 -1.3793  1.4814  2.4542
  603MOL0     H79571  11.312   7.941  -0.991  0.2034 -0.1463 -0.2167
  603MOL0     H79572  11.502   7.741  -0.923 -4.8117 -0.5280  0.1020
  603MOL0     H79573  11.607   7.849  -1.004  0.6959 -0.2628  1.6242
  603MOL0     H79574  11.379   7.717  -1.160 -1.8388  3.7692 -2.0206
  603MOL0     H79575  11.493   7.845  -1.219 -1.4301  3.5777  3.6411
  603MOL0     H79576  11.586   7.578  -1.096  2.1461  0.6145  1.2100
  603MOL0     H79577  11.684   7.695  -1.186  1.0649 -0.9168  3.1260
  603MOL0     H79578  11.713   7.805  -0.360  0.0317  0.8636 -1.0123
  603MOL0     H79579  11.780   7.589  -0.263  0.0335  0.0824  0.7486
  603MOL0     H79580  11.901   7.136  -0.372 -1.0245  0.4261  1.9263
  603MOL0     H79581  11.984   6.931  -0.284  0.0463  0.6590  0.3597
  603MOL0     H79582  10.871   5.776   0.204 -1.0813 -3.4717 -0.4924
  603MOL0     H79583  10.651   5.828   0.297 -1.6857 -1.8676  0.3565
  603MOL0     H79584  10.307   6.215   0.272  1.2375 -0.6640  0.3100
  603MOL0     H79585  10.050   6.271   0.319 -2.5395 -0.5790  1.8114
  603MOL0     H79586   9.777   5.949   0.465 -1.1702 -1.6377 -0.3986
  603MOL0     H79587   9.726   5.957   0.291 -1.2600  0.8038 -0.0429
  603MOL0     H79588   9.694   6.183   0.484  1.6835 -1.4847 -0.3696
  603MOL0     H79589   9.619   6.165   0.327 -3.2402 -2.5099 -1.1480
  603MOL0     H79590   9.569   5.997   0.570  2.5683  2.1769  0.6198
  603MOL0     H79591   9.495   5.961   0.416  4.4108 -2.1332 -0.8498
  603MOL0     H79592   9.404   6.227   0.430  0.9035  0.7630  2.1683
  603MOL0     H79593   9.321   6.112   0.516  0.6523 -2.5890 -0.9614
  603MOL0     H79594   9.493   6.333   0.834 -1.4034  2.2630 -1.3703
  603MOL0     H79595   9.969   5.857   0.291 -0.4309 -0.2337 -1.0603
  603MOL0     H79596  10.198   5.817   0.221  4.3143 -0.2411  2.7013
  604MOL0     O79597   1.474   0.512   9.176 -0.3016  0.0710 -0.6027
  604MOL0     C79598   1.393   0.418   9.190  0.3009 -1.3646  0.3021
  604MOL0     O79599   1.403   0.295   9.143 -0.3422  0.2929 -0.1218
  604MOL0     C79600   1.531   0.252   9.120  0.5173 -0.2017 -0.4719
  604MOL0     C79601   1.656   0.301   9.174 -0.3164 -1.2372  0.3223
  604MOL0     C79602   1.776   0.234   9.136 -0.1046  0.9137  0.1721
  604MOL0     C79603   1.771   0.148   9.019 -0.4065  0.3221 -0.9634
  604MOL0     O79604   1.881   0.066   8.987 -0.1528  0.3752 -0.1485
  604MOL0     C79605   1.942   0.091   8.865  0.4199 -0.3263  0.2524
  604MOL0     C79606   2.062  -0.001   8.856  0.6156  0.4989 -0.8610
  604MOL0     C79607   2.180   0.066   8.930  0.4392 -0.0834  0.4844
  604MOL0     C79608   2.184   0.011   9.069  0.3213 -0.3894 -1.3419
  604MOL0     C79609   2.320   0.026   9.144  0.2623 -0.0353  0.0530
  604MOL0     C79610   2.408   0.136   9.109 -0.1811 -0.3020 -0.6548
  604MOL0     C79611   2.522   0.127   9.217 -0.0285  0.0272 -1.2493
  604MOL0     C79612   2.499   0.197   9.342  0.6467 -0.3285 -0.4983
  604MOL0     N79613   2.631   0.200   9.409  0.6871  0.1684 -0.5881
  604MOL0     C79614   2.709   0.095   9.465 -0.1172 -0.9197  0.1641
  604MOL0     C79615   2.822   0.169   9.509 -0.4028  0.6602  0.6329
  604MOL0     C79616   2.950   0.123   9.572  0.4256 -0.0353  0.5321
  604MOL0     C79617   3.078   0.125   9.480  0.0055  0.3557 -0.7188
  604MOL0     C79618   3.209   0.068   9.533 -0.4502 -1.6380 -0.5186
  604MOL0     C79619   3.322   0.056   9.429  0.4022  0.1943 -0.2913
  604MOL0     O79620   3.438  -0.006   9.493  0.8309 -0.0926  0.2969
  604MOL0     C79621   3.527  -0.050   9.399 -0.1019  0.3857  0.0712
  604MOL0     C79622   3.520  -0.038   9.261  0.4655  0.5524  0.0764
  604MOL0     C79623   3.608  -0.107   9.177 -0.0873 -0.4995 -0.5857
  604MOL0     C79624   3.701  -0.192   9.228 -0.0169 -1.0484 -0.3759
  604MOL0     C79625   3.802  -0.260   9.137  1.1711  0.0504 -0.7874
  604MOL0     O79626   3.841  -0.379   9.191  1.0714 -0.9117  0.3063
  604MOL0     C79627   3.937  -0.454   9.134 -0.0658 -0.2598  0.5702
  604MOL0     C79628   3.942  -0.475   8.994  0.0542  0.3655 -0.8955
  604MOL0     C79629   4.033  -0.565   8.936 -0.5350 -0.8186  1.2178
  604MOL0     C79630   4.134  -0.623   9.005  0.0283  0.7933 -0.1122
  604MOL0     O79631   4.232  -0.709   8.954  0.8090 -0.2103 -0.6413
  604MOL0     C79632   4.235  -0.703   8.809 -1.1763 -0.0790 -0.2446
  604MOL0     C79633   4.349  -0.802   8.779 -0.6483  0.2900  0.3440
  604MOL0     C79634   4.485  -0.768   8.839 -0.3164  0.2536 -0.3980
  604MOL0     C79635   4.593  -0.870   8.822 -0.8325  0.1472  0.1206
  604MOL0     C79636   4.634  -0.942   8.959 -0.0202 -0.1011  0.0247
  604MOL0     C79637   4.512  -1.007   9.013 -0.4042  0.2239 -0.4153
  604MOL0     C79638   4.549  -1.076   9.142  1.5619 -0.3816  0.5816
  604MOL0     C79639   4.557  -0.969   9.255  0.1149 -0.1901  0.2429
  604MOL0    Cl79640   4.398  -0.937   9.328  0.1526  0.3489  0.2053
  604MOL0     C79641   4.134  -0.608   9.148  0.8778 -1.3379 -0.5157
  604MOL0     C79642   4.031  -0.527   9.210  0.2816  0.1635 -0.2364
  604MOL0     O79643   3.816  -0.214   9.030 -0.5921 -0.1298  0.6569
  604MOL0     C79644   3.718  -0.201   9.369 -0.4181 -0.1654 -1.1791
  604MOL0     C79645   3.641  -0.118   9.454  0.1259 -0.4262 -0.8127
  604MOL0     N79646   2.802   0.305   9.478 -0.2842 -0.6111  0.5355
  604MOL0     N79647   2.699   0.322   9.408 -0.0966 -0.7197 -0.5934
  604MOL0     C79648   1.651   0.103   8.974  0.0846 -0.4262 -0.2485
  604MOL0     C79649   1.536   0.150   9.035  0.2846 -0.0248 -0.3473
  604MOL0     C79650   1.265   0.452   9.253 -0.3041  0.7365  0.7225
  604MOL0     C79651   1.158   0.355   9.275 -0.2139 -0.1313 -0.3299
  604MOL0     C79652   1.037   0.398   9.326 -0.3972 -1.0881 -0.8695
  604MOL0     C79653   1.021   0.528   9.369  1.0946 -0.6030 -0.0486
  604MOL0     O79654   0.907   0.582   9.427  0.2007  0.9404 -0.2541
  604MOL0     C79655   0.855   0.506   9.539 -0.2458 -0.6705  0.9842
  604MOL0     C79656   0.946   0.525   9.656 -1.2392  0.2444 -0.4787
  604MOL0     C79657   0.906   0.646   9.731  1.0561  0.8065  0.5282
  604MOL0     C79658   1.013   0.684   9.837  0.0800 -0.2946  0.1504
  604MOL0     C79659   1.028   0.569   9.928 -0.9809  0.1442 -0.2763
  604MOL0     C79660   1.055   0.470  10.003  0.8308 -0.2814  0.2488
  604MOL0     C79661   1.120   0.623   9.349 -0.4105 -0.4814  0.4125
  604MOL0     C79662   1.245   0.583   9.304  0.1359 -0.5228  0.5920
  604MOL0     H79663   1.659   0.392   9.233 -3.4787 -0.7064 -0.1394
  604MOL0     H79664   1.874   0.266   9.169  0.0218  1.1770 -0.4494
  604MOL0     H79665   1.983   0.192   8.853  0.3704 -0.3601 -0.2055
  604MOL0     H79666   1.870   0.067   8.786  0.0543 -0.2188  0.5501
  604MOL0     H79667   2.082  -0.004   8.749  1.1558  1.1982 -0.7842
  604MOL0     H79668   2.055  -0.102   8.898  1.6859  2.0738  3.7649
  604MOL0     H79669   2.181   0.172   8.956  1.4887  0.2358 -0.7556
  604MOL0     H79670   2.269   0.034   8.874 -0.6111  0.7508 -1.8111
  604MOL0     H79671   2.110   0.068   9.127  1.7657 -0.2597  0.4827
  604MOL0     H79672   2.147  -0.092   9.080  2.9194 -1.2919 -0.2291
  604MOL0     H79673   2.375  -0.068   9.135  0.3208  0.1142 -1.5537
  604MOL0     H79674   2.293   0.039   9.249  1.2495 -2.0686  0.6052
  604MOL0     H79675   2.348   0.227   9.118 -1.4313 -1.1443 -0.1234
  604MOL0     H79676   2.445   0.120   9.008  2.4035  2.6454 -0.3355
  604MOL0     H79677   2.544   0.024   9.245  0.3393  0.4356  0.0114
  604MOL0     H79678   2.612   0.164   9.168  0.9383 -2.0800 -1.1548
  604MOL0     H79679   2.435   0.132   9.402  3.2983 -0.3752  2.5478
  604MOL0     H79680   2.460   0.299   9.335 -1.2427 -0.7535  2.2506
  604MOL0     H79681   2.709  -0.013   9.451  1.1639 -0.8602 -0.4384
  604MOL0     H79682   2.928   0.023   9.610 -2.3463 -0.0802 -0.8803
  604MOL0     H79683   2.974   0.189   9.656 -1.0867  1.9914 -0.5154
  604MOL0     H79684   3.087   0.233   9.463 -1.2956  1.0453  2.3271
  604MOL0     H79685   3.046   0.070   9.391 -2.2928 -1.2742  1.0000
  604MOL0     H79686   3.255   0.115   9.620  1.9828 -1.4728 -1.8201
  604MOL0     H79687   3.184  -0.036   9.556  0.5397 -2.2476 -2.0382
  604MOL0     H79688   3.363   0.148   9.387 -0.9494  0.5609 -0.8430
  604MOL0     H79689   3.277   0.008   9.342  1.1690 -1.1224  0.0088
  604MOL0     H79690   3.452   0.032   9.212  1.2977  0.4240 -1.3057
  604MOL0     H79691   3.592  -0.094   9.070  0.7079 -1.4714 -0.8351
  604MOL0     H79692   3.867  -0.437   8.924  0.0188  2.8554  0.3757
  604MOL0     H79693   4.009  -0.590   8.833 -1.3296  0.0556  1.1750
  604MOL0     H79694   4.250  -0.600   8.775 -0.0993 -0.0400  0.3023
  604MOL0     H79695   4.144  -0.741   8.761 -1.7780  0.9247  0.0914
  604MOL0     H79696   4.367  -0.811   8.672  2.9577 -0.9941  0.9181
  604MOL0     H79697   4.318  -0.896   8.825 -1.3275  0.1283 -0.4347
  604MOL0     H79698   4.463  -0.754   8.945  1.5426  0.6791 -0.0344
  604MOL0     H79699   4.519  -0.666   8.821  1.9741 -0.1471  1.2983
  604MOL0     H79700   4.554  -0.943   8.750 -1.9825  0.1745  0.6935
  604MOL0     H79701   4.671  -0.809   8.775  0.6996 -1.5588  0.3443
  604MOL0     H79702   4.667  -0.867   9.032  1.0810 -0.8141  0.2882
  604MOL0     H79703   4.722  -1.002   8.934 -0.4568 -0.6991 -0.1003
  604MOL0     H79704   4.477  -1.074   8.934 -0.5568  0.2459 -0.3668
  604MOL0     H79705   4.421  -0.947   9.025 -0.4523 -0.2691  2.1876
  604MOL0     H79706   4.476  -1.150   9.177 -0.5416  0.9015 -0.8603
  604MOL0     H79707   4.647  -1.124   9.133  1.4610 -0.4029 -0.5373
  604MOL0     H79708   4.595  -0.873   9.220 -1.1925  0.7448  1.2643
  604MOL0     H79709   4.614  -1.020   9.334 -1.2017 -2.1170 -0.0004
  604MOL0     H79710   4.216  -0.658   9.199  1.2293  0.3059  0.6315
  604MOL0     H79711   4.016  -0.521   9.318 -0.2942 -3.0893 -0.0538
  604MOL0     H79712   3.793  -0.251   9.430 -1.8264  1.3391  2.0640
  604MOL0     H79713   3.650  -0.110   9.562 -1.0102 -1.2088 -0.6358
  604MOL0     H79714   1.657   0.032   8.892  3.9517 -0.3418 -0.2329
  604MOL0     H79715   1.452   0.089   9.002  1.4635 -1.4010 -0.9273
  604MOL0     H79716   1.168   0.256   9.232 -1.4983 -0.0561 -0.8609
  604MOL0     H79717   0.948   0.336   9.321 -1.1277 -0.0556 -0.9282
  604MOL0     H79718   0.844   0.400   9.513 -0.5339 -0.3757 -0.1690
  604MOL0     H79719   0.755   0.548   9.552  0.6024  2.1646 -0.6745
  604MOL0     H79720   0.929   0.433   9.713 -2.0080 -0.2349 -1.4438
  604MOL0     H79721   1.051   0.539   9.631 -1.5406  0.3668 -1.7270
  604MOL0     H79722   0.807   0.634   9.778  2.2598  0.5727  3.1727
  604MOL0     H79723   0.899   0.736   9.669 -2.6562 -1.1620 -2.3262
  604MOL0     H79724   1.107   0.713   9.788  0.3962 -0.8269  0.4315
  604MOL0     H79725   0.966   0.766   9.892 -1.2921  0.1918 -1.6528
  604MOL0     H79726   1.084   0.375  10.043  3.6886  1.3277  2.4361
  604MOL0     H79727   1.106   0.729   9.366 -1.7348 -1.0942  3.8417
  604MOL0     H79728   1.325   0.656   9.299  0.7791 -1.2762 -2.3919
  605MOL0     O79729   5.891   2.113   0.794 -0.0578  0.0822  0.0828
  605MOL0     C79730   5.896   2.001   0.842  0.5799 -0.0480  0.7107
  605MOL0     O79731   5.861   1.964   0.974 -1.0199  0.3158  0.0169
  605MOL0     C79732   5.844   2.059   1.073  0.7918  0.1804 -1.0273
  605MOL0     C79733   5.720   2.068   1.144 -0.8139  0.4221  0.5299
  605MOL0     C79734   5.688   2.168   1.242 -0.7783  0.0725  0.2125
  605MOL0     C79735   5.784   2.253   1.282 -1.0745 -0.0929 -0.7121
  605MOL0     O79736   5.745   2.348   1.376 -0.2075 -0.2196 -0.1883
  605MOL0     C79737   5.837   2.454   1.404  0.0648 -0.0127  0.1668
  605MOL0     C79738   5.750   2.561   1.483  0.2231  0.1068 -0.1658
  605MOL0     C79739   5.680   2.518   1.608 -0.9717 -0.3799 -0.2801
  605MOL0     C79740   5.547   2.447   1.595  0.4375 -0.4143 -0.5744
  605MOL0     C79741   5.483   2.456   1.736  0.4625  0.1230  0.1216
  605MOL0     C79742   5.550   2.349   1.837  0.3387 -1.4167 -1.1714
  605MOL0     C79743   5.508   2.203   1.811 -0.0461  0.2299  0.5191
  605MOL0     C79744   5.571   2.102   1.905 -0.1660 -0.5766 -0.1714
  605MOL0     N79745   5.545   2.130   2.050  0.0308 -0.0769 -0.9761
  605MOL0     C79746   5.609   2.224   2.133 -0.6223  0.0883 -0.4476
  605MOL0     C79747   5.537   2.225   2.250  0.4062  0.1675 -0.4323
  605MOL0     C79748   5.531   2.335   2.359  0.5714 -0.0703 -0.9467
  605MOL0     C79749   5.634   2.336   2.468  0.0560  0.0417  0.8026
  605MOL0     C79750   5.648   2.208   2.537 -0.1304  0.7870 -0.9565
  605MOL0     C79751   5.759   2.120   2.473  0.3802 -0.0467 -0.5441
  605MOL0     O79752   5.889   2.181   2.470  0.1368  0.2250  0.0158
  605MOL0     C79753   5.953   2.199   2.595 -0.8998  0.6962 -0.7065
  605MOL0     C79754   5.990   2.097   2.681 -0.5044 -0.2850  0.3576
  605MOL0     C79755   6.053   2.120   2.803  0.1882  0.6299 -0.4122
  605MOL0     C79756   6.073   2.247   2.851 -0.5698 -0.9775 -0.3365
  605MOL0     C79757   6.137   2.267   2.980  0.1174 -0.0373  0.1171
  605MOL0     O79758   6.140   2.163   3.064  0.1320  0.1281 -0.6946
  605MOL0     C79759   6.127   2.195   3.202 -0.6071 -0.5707  0.4319
  605MOL0     C79760   6.040   2.300   3.257 -0.4990 -0.1308  0.5584
  605MOL0     C79761   6.017   2.311   3.394 -0.1902 -0.9257  0.5082
  605MOL0     C79762   6.073   2.224   3.479 -0.4563 -0.2799 -0.1452
  605MOL0     O79763   6.061   2.229   3.619 -0.0286  0.3923  0.0616
  605MOL0     C79764   5.922   2.204   3.659  0.8611 -0.2530  0.2903
  605MOL0     C79765   5.891   2.307   3.771  0.2466  0.3809 -0.4778
  605MOL0     C79766   5.980   2.279   3.896 -0.3534 -0.7957  0.3302
  605MOL0     C79767   6.038   2.398   3.973  1.2354 -0.5775  0.8653
  605MOL0     C79768   5.925   2.485   4.026 -0.1162 -0.0790  0.5064
  605MOL0     C79769   5.955   2.623   4.069 -0.0703  0.0394  0.4871
  605MOL0     C79770   6.083   2.612   4.160 -0.5902  0.3086  0.1642
  605MOL0     C79771   6.120   2.742   4.231  0.0559  0.3082 -0.5758
  605MOL0    Cl79772   5.989   2.869   4.230  0.2563 -0.2563  0.1007
  605MOL0     C79773   6.152   2.114   3.427  0.3537  0.4264 -0.3458
  605MOL0     C79774   6.182   2.105   3.295  0.4521  0.1801  0.8182
  605MOL0     O79775   6.194   2.369   3.007 -0.4039 -0.2515 -0.1258
  605MOL0     C79776   6.041   2.355   2.767 -0.6307 -0.1375  0.2412
  605MOL0     C79777   5.990   2.328   2.635 -0.4384  0.1634 -0.6841
  605MOL0     N79778   5.441   2.128   2.246 -0.7652 -0.1612 -0.1720
  605MOL0     N79779   5.446   2.077   2.127 -0.1200 -0.5111  0.1627
  605MOL0     C79780   5.912   2.249   1.221  0.8071 -0.3327 -0.4289
  605MOL0     C79781   5.933   2.155   1.115 -0.5806 -1.5633 -0.0765
  605MOL0     C79782   5.945   1.892   0.754 -0.2202  0.8784  0.3977
  605MOL0     C79783   5.974   1.770   0.818 -0.0627  0.8176 -0.2177
  605MOL0     C79784   6.019   1.657   0.739 -0.0135 -0.1516 -0.8254
  605MOL0     C79785   6.040   1.666   0.602 -0.3580  0.8276  0.3237
  605MOL0     O79786   6.073   1.551   0.545  0.9143  0.1723  0.1748
  605MOL0     C79787   6.121   1.547   0.413  1.1652 -0.9104  0.9587
  605MOL0     C79788   6.262   1.590   0.416  0.4882 -0.0059  0.0604
  605MOL0     C79789   6.347   1.539   0.295 -0.0968  0.2162  0.0152
  605MOL0     C79790   6.394   1.395   0.297 -1.3366  0.9489 -0.0697
  605MOL0     C79791   6.483   1.364   0.408 -0.2080 -1.4005  0.1078
  605MOL0     C79792   6.542   1.354   0.515 -0.3335  0.3297 -0.3713
  605MOL0     C79793   6.033   1.798   0.547  0.4124  0.1189 -0.3466
  605MOL0     C79794   5.979   1.900   0.618 -0.0011  0.0185  0.1204
  605MOL0     H79795   5.647   1.990   1.125 -2.3269  2.2037 -1.4072
  605MOL0     H79796   5.587   2.165   1.283 -1.4388  1.2043 -1.2258
  605MOL0     H79797   5.894   2.509   1.328  1.5376  0.0651  1.2741
  605MOL0     H79798   5.914   2.410   1.468  1.2183  0.4762 -0.8509
  605MOL0     H79799   5.674   2.603   1.417  0.6128 -3.5989 -3.3588
  605MOL0     H79800   5.815   2.645   1.508  1.3540  0.1748 -2.9731
  605MOL0     H79801   5.673   2.613   1.661  2.5509  1.8081 -3.2388
  605MOL0     H79802   5.745   2.452   1.665  0.3820 -0.8548 -2.2641
  605MOL0     H79803   5.481   2.496   1.523 -0.6737  0.6786  1.1449
  605MOL0     H79804   5.557   2.342   1.564 -0.6109 -0.4232 -0.9118
  605MOL0     H79805   5.378   2.427   1.731  0.4882  0.2024 -1.2298
  605MOL0     H79806   5.488   2.559   1.775  4.1366  0.2846 -0.4422
  605MOL0     H79807   5.517   2.383   1.936  1.5577  1.6960 -1.6941
  605MOL0     H79808   5.659   2.348   1.842  0.3098 -3.4587  0.4149
  605MOL0     H79809   5.399   2.199   1.816 -0.0897  0.3497 -0.1827
  605MOL0     H79810   5.533   2.188   1.706 -1.2861  1.3647  0.0374
  605MOL0     H79811   5.679   2.110   1.889 -0.3017  1.3340 -0.4192
  605MOL0     H79812   5.543   2.003   1.869 -0.1044 -0.3776 -0.7719
  605MOL0     H79813   5.685   2.296   2.104  0.2205 -0.4011  0.4841
  605MOL0     H79814   5.436   2.335   2.412  0.0997 -2.0740 -1.6989
  605MOL0     H79815   5.537   2.429   2.303  1.1786 -0.3262 -1.3312
  605MOL0     H79816   5.618   2.419   2.537  2.1269  0.5341  0.7410
  605MOL0     H79817   5.729   2.363   2.420  0.2849 -2.1236 -0.0800
  605MOL0     H79818   5.677   2.237   2.639 -1.8360 -0.2434 -0.1434
  605MOL0     H79819   5.550   2.162   2.545  0.1073  0.2894 -0.8972
  605MOL0     H79820   5.723   2.101   2.371 -4.5123 -0.4036  0.9707
  605MOL0     H79821   5.770   2.021   2.519 -0.0647 -0.2262 -0.8164
  605MOL0     H79822   5.971   1.991   2.662 -1.1632 -0.0631 -0.2813
  605MOL0     H79823   6.072   2.033   2.864  1.5648  0.0407 -1.6384
  605MOL0     H79824   5.984   2.352   3.180  0.8797 -2.1357 -1.9830
  605MOL0     H79825   5.961   2.398   3.429 -1.7720  1.1060 -5.7130
  605MOL0     H79826   5.913   2.104   3.703  3.0781 -1.1661 -1.1697
  605MOL0     H79827   5.850   2.222   3.579  2.1702  1.8800 -0.5017
  605MOL0     H79828   5.786   2.290   3.796  0.5608  0.9842  1.4381
  605MOL0     H79829   5.906   2.411   3.742 -1.9595  0.8403 -0.1281
  605MOL0     H79830   6.060   2.215   3.858  0.2802  1.1867 -1.8935
  605MOL0     H79831   5.920   2.219   3.965  2.1998  0.0248  3.5580
  605MOL0     H79832   6.105   2.365   4.053  3.2901 -0.4279 -0.7128
  605MOL0     H79833   6.098   2.449   3.898 -0.5476 -0.4079 -0.5316
  605MOL0     H79834   5.876   2.420   4.099  1.2364 -1.0612  0.5781
  605MOL0     H79835   5.852   2.493   3.945  0.2324  1.1854  0.2959
  605MOL0     H79836   5.874   2.670   4.126 -1.9222 -3.3265  0.9166
  605MOL0     H79837   5.975   2.681   3.978  4.7954 -3.4962 -1.1183
  605MOL0     H79838   6.062   2.539   4.239 -0.5564  3.6140  3.5374
  605MOL0     H79839   6.171   2.588   4.101 -0.9828  0.3845 -0.4627
  605MOL0     H79840   6.194   2.788   4.165  0.0973  0.8533 -0.1487
  605MOL0     H79841   6.161   2.727   4.331 -1.7238  0.0229  0.1519
  605MOL0     H79842   6.176   2.031   3.493  1.6358  1.0412  0.0068
  605MOL0     H79843   6.240   2.021   3.258  2.3183  1.9416 -0.5065
  605MOL0     H79844   6.056   2.460   2.791  0.4975  0.2929 -2.0643
  605MOL0     H79845   5.974   2.415   2.572  1.3347 -0.5510 -2.1931
  605MOL0     H79846   5.991   2.310   1.264  0.3587  0.5042 -0.7607
  605MOL0     H79847   6.032   2.162   1.072  0.6500 -0.9274  2.6338
  605MOL0     H79848   5.958   1.759   0.925 -1.5317 -0.1431 -0.5022
  605MOL0     H79849   6.017   1.562   0.791 -0.8847  0.3486  0.1056
  605MOL0     H79850   6.067   1.619   0.351  1.3085  0.2072  2.0870
  605MOL0     H79851   6.104   1.448   0.371 -2.0870 -0.4828  1.0419
  605MOL0     H79852   6.264   1.699   0.410 -0.9959 -0.0268 -3.6588
  605MOL0     H79853   6.302   1.566   0.514  1.1970  0.0270 -0.2127
  605MOL0     H79854   6.440   1.596   0.286 -0.5300  0.7741 -0.9717
  605MOL0     H79855   6.294   1.556   0.201  0.7635 -4.6239 -1.5905
  605MOL0     H79856   6.317   1.318   0.292  2.3053 -3.0525 -0.7081
  605MOL0     H79857   6.444   1.380   0.201 -3.3399 -3.4867 -0.6341
  605MOL0     H79858   6.585   1.321   0.608 -3.5879 -1.8641  0.5055
  605MOL0     H79859   6.062   1.833   0.449  2.2831 -0.6213 -0.1032
  605MOL0     H79860   5.954   1.996   0.572 -0.2674  1.0482  2.3180
  606MOL0     O79861   1.973   2.062   4.816  0.5213  0.0553  0.2623
  606MOL0     C79862   1.859   2.040   4.848  0.3422  0.1677 -1.0902
  606MOL0     O79863   1.824   2.021   4.977  0.3389 -0.1500  1.0317
  606MOL0     C79864   1.914   2.049   5.079  0.9459  0.2567  0.6426
  606MOL0     C79865   1.931   2.187   5.123 -0.1229  0.1426  0.2493
  606MOL0     C79866   2.006   2.210   5.239  0.8480  0.1919  0.4035
  606MOL0     C79867   2.075   2.105   5.301 -0.3286  0.0521 -0.1339
  606MOL0     O79868   2.145   2.145   5.417  0.8811  0.6483 -0.0092
  606MOL0     C79869   2.215   2.036   5.484 -0.8277 -0.4394  0.1302
  606MOL0     C79870   2.314   2.102   5.587 -0.7046 -0.3832  0.1839
  606MOL0     C79871   2.381   2.231   5.531  0.5724 -1.3282  0.0958
  606MOL0     C79872   2.308   2.361   5.571  0.3260  0.0498 -0.0736
  606MOL0     C79873   2.388   2.486   5.516 -0.5021  0.6300 -0.7959
  606MOL0     C79874   2.388   2.500   5.365  0.9251 -1.3678  0.6445
  606MOL0     C79875   2.430   2.639   5.317 -0.2275 -1.0025 -0.1791
  606MOL0     C79876   2.570   2.687   5.373 -0.2114  0.3591  0.0212
  606MOL0     N79877   2.688   2.597   5.358  0.9148 -0.2012 -0.4951
  606MOL0     C79878   2.722   2.521   5.252  0.8169  0.5657 -0.1731
  606MOL0     C79879   2.797   2.422   5.295  0.9408  0.3408 -0.9260
  606MOL0     C79880   2.853   2.306   5.219  0.2424 -0.0042 -0.0497
  606MOL0     C79881   2.759   2.257   5.110 -0.0588  0.1371  0.2997
  606MOL0     C79882   2.656   2.164   5.158  1.2120  0.8620  0.1742
  606MOL0     C79883   2.705   2.016   5.146  0.2797  0.3986 -0.4048
  606MOL0     O79884   2.607   1.914   5.165  0.4087  0.8618 -0.2078
  606MOL0     C79885   2.529   1.881   5.060 -0.0489  0.6368 -0.1845
  606MOL0     C79886   2.586   1.816   4.948  0.2437  0.0312 -0.4744
  606MOL0     C79887   2.511   1.770   4.836 -0.0885  0.7958 -0.1664
  606MOL0     C79888   2.371   1.794   4.835  0.1167  0.9917  0.7816
  606MOL0     C79889   2.291   1.745   4.717 -0.6396  0.7132  0.2672
  606MOL0     O79890   2.152   1.758   4.723  0.6179  0.0454 -0.0695
  606MOL0     C79891   2.055   1.693   4.645  0.4215  0.0103 -0.2822
  606MOL0     C79892   1.930   1.721   4.686  0.2308 -1.3595 -0.4688
  606MOL0     C79893   1.818   1.659   4.627 -0.5897 -0.2675 -1.3547
  606MOL0     C79894   1.835   1.576   4.515 -0.3019  1.1035 -0.4866
  606MOL0     O79895   1.727   1.522   4.442  0.0034 -0.0808  0.1806
  606MOL0     C79896   1.594   1.558   4.480 -0.1591  0.5204 -0.2153
  606MOL0     C79897   1.484   1.496   4.388  0.7372 -0.5632 -0.3664
  606MOL0     C79898   1.353   1.575   4.415  0.9915  0.6324  0.0009
  606MOL0     C79899   1.317   1.583   4.553  0.2135 -0.0807 -0.4817
  606MOL0     C79900   1.170   1.608   4.576 -1.0180 -0.5714  0.4146
  606MOL0     C79901   1.116   1.738   4.516  0.3482  0.1948  0.2586
  606MOL0     C79902   0.970   1.764   4.583 -0.1558  0.5670  0.2863
  606MOL0     C79903   0.914   1.881   4.509  0.2983 -0.0969  1.0196
  606MOL0    Cl79904   0.997   2.049   4.567  0.0577 -0.3303  0.5047
  606MOL0     C79905   1.967   1.540   4.471 -0.3380 -0.5869  0.3428
  606MOL0     C79906   2.077   1.598   4.543  0.3052  0.2173  0.2717
  606MOL0     O79907   2.352   1.701   4.621  0.1202  0.0370 -0.1243
  606MOL0     C79908   2.316   1.868   4.946  0.5468 -0.3391  0.2926
  606MOL0     C79909   2.392   1.902   5.059  0.2452 -0.4879 -1.1307
  606MOL0     N79910   2.829   2.449   5.430 -0.2672 -0.1666  0.2666
  606MOL0     N79911   2.767   2.562   5.466  0.0719  0.1503 -0.6200
  606MOL0     C79912   2.068   1.976   5.257  0.9876 -0.0006  0.5918
  606MOL0     C79913   1.982   1.944   5.148 -0.4515 -0.6424  0.4432
  606MOL0     C79914   1.771   2.029   4.735  0.0709  0.0687  0.1291
  606MOL0     C79915   1.812   2.045   4.601 -0.6654 -0.2923  0.4889
  606MOL0     C79916   1.724   2.016   4.500  0.1340 -0.2760  0.4557
  606MOL0     C79917   1.591   1.979   4.524 -0.1892 -0.2117 -0.7506
  606MOL0     O79918   1.490   1.972   4.430  0.5271  0.9950  0.3508
  606MOL0     C79919   1.514   2.010   4.290  0.5741 -0.4450  0.7253
  606MOL0     C79920   1.392   2.003   4.202 -0.7264 -0.3460  0.4164
  606MOL0     C79921   1.420   2.011   4.053  0.0388 -0.0235  0.6580
  606MOL0     C79922   1.282   2.002   3.975 -0.3780 -0.1117  0.0804
  606MOL0     C79923   1.203   1.884   4.013 -1.2315 -0.1869  1.1593
  606MOL0     C79924   1.164   1.777   4.055  0.1000 -0.1484 -0.2778
  606MOL0     C79925   1.550   1.956   4.657 -0.0920  0.5018 -0.0930
  606MOL0     C79926   1.640   1.988   4.763  0.6867  0.2053 -0.1516
  606MOL0     H79927   1.878   2.270   5.079 -2.2462 -0.6991  1.1209
  606MOL0     H79928   2.017   2.309   5.284 -0.4714  0.3355  0.4323
  606MOL0     H79929   2.277   1.981   5.413 -1.8437 -0.9976 -0.3458
  606MOL0     H79930   2.141   1.968   5.528  2.5361 -4.7928 -0.2738
  606MOL0     H79931   2.387   2.020   5.586  1.2347  1.2696 -1.2232
  606MOL0     H79932   2.268   2.123   5.684  2.5332  3.3487  1.1520
  606MOL0     H79933   2.404   2.216   5.425  1.0674  1.0908 -0.1890
  606MOL0     H79934   2.482   2.241   5.574  0.5341 -0.9575  0.0987
  606MOL0     H79935   2.210   2.357   5.521  1.0737  1.2559 -1.7386
  606MOL0     H79936   2.303   2.364   5.680 -0.3610  0.7631 -0.1179
  606MOL0     H79937   2.491   2.490   5.550 -0.6543 -0.0512 -0.2286
  606MOL0     H79938   2.345   2.582   5.546  0.2742 -0.0581  2.9557
  606MOL0     H79939   2.287   2.505   5.322  0.5826  4.5381  1.2856
  606MOL0     H79940   2.450   2.431   5.307  1.5115  0.8814 -1.5854
  606MOL0     H79941   2.436   2.650   5.208  2.3275 -1.4439 -0.1427
  606MOL0     H79942   2.354   2.708   5.354  0.2115 -1.3513  1.4720
  606MOL0     H79943   2.546   2.718   5.476  1.3386  3.0929 -0.3205
  606MOL0     H79944   2.605   2.776   5.319  0.8471 -0.3938 -0.5625
  606MOL0     H79945   2.685   2.537   5.151  0.2674  0.4537  0.0073
  606MOL0     H79946   2.882   2.224   5.286 -0.5282 -0.5957 -0.4255
  606MOL0     H79947   2.944   2.342   5.171 -0.0934  3.9168  1.8664
  606MOL0     H79948   2.823   2.216   5.032  0.8674 -0.7734  1.4874
  606MOL0     H79949   2.695   2.328   5.057  0.4608  0.0330 -0.4842
  606MOL0     H79950   2.624   2.194   5.258 -1.5629  1.0678 -0.7032
  606MOL0     H79951   2.568   2.166   5.094  1.1667  0.3514  0.2175
  606MOL0     H79952   2.786   2.005   5.218 -1.1291  2.6795  1.7016
  606MOL0     H79953   2.759   2.000   5.053  2.2153 -0.8280  0.8841
  606MOL0     H79954   2.693   1.813   4.931  0.2228  0.3832 -0.6907
  606MOL0     H79955   2.559   1.717   4.754 -1.9858 -0.5617 -0.4778
  606MOL0     H79956   1.921   1.791   4.768 -2.3608 -0.2142 -1.6287
  606MOL0     H79957   1.720   1.688   4.663  0.7248  2.6016  0.2838
  606MOL0     H79958   1.576   1.665   4.467 -2.0628  0.2940  0.2665
  606MOL0     H79959   1.575   1.527   4.584  0.2065  1.2043  0.0587
  606MOL0     H79960   1.456   1.393   4.409 -4.1599  1.0539  2.7577
  606MOL0     H79961   1.506   1.503   4.281 -2.2853  0.9381 -1.0023
  606MOL0     H79962   1.266   1.537   4.361  2.7071 -0.7256 -1.9750
  606MOL0     H79963   1.360   1.675   4.371 -0.3724 -0.8747 -4.1459
  606MOL0     H79964   1.344   1.504   4.624  1.3578 -0.9235 -1.7999
  606MOL0     H79965   1.362   1.670   4.602 -3.4094  0.4236  2.4307
  606MOL0     H79966   1.150   1.617   4.683  1.7453  1.2546  0.8951
  606MOL0     H79967   1.116   1.520   4.542 -3.3172  1.4604 -1.5746
  606MOL0     H79968   1.115   1.735   4.407 -3.5999  0.1047  0.1454
  606MOL0     H79969   1.186   1.814   4.553  2.6060 -0.5315 -2.2266
  606MOL0     H79970   0.919   1.670   4.563  2.1686 -0.1723 -3.3496
  606MOL0     H79971   0.969   1.788   4.689 -2.8365  1.3090  0.1450
  606MOL0     H79972   0.809   1.887   4.538 -0.0441 -0.7293 -0.0546
  606MOL0     H79973   0.927   1.871   4.401 -1.7767  2.2170  0.4807
  606MOL0     H79974   1.984   1.488   4.377 -2.1644  0.9398 -0.8756
  606MOL0     H79975   2.178   1.568   4.519  0.3758  0.4140  0.3151
  606MOL0     H79976   2.214   1.904   4.939  0.8064  0.2839 -0.3923
  606MOL0     H79977   2.360   1.957   5.147 -0.6700  0.0544 -1.7860
  606MOL0     H79978   2.129   1.896   5.297 -0.9657 -1.1890  1.3779
  606MOL0     H79979   1.962   1.852   5.094  0.0447  0.6983 -2.1662
  606MOL0     H79980   1.908   2.090   4.575  1.1951 -2.5964  2.8330
  606MOL0     H79981   1.762   2.029   4.399  2.3816  0.8820  1.3863
  606MOL0     H79982   1.587   1.942   4.245  0.4393  0.1065 -0.3770
  606MOL0     H79983   1.551   2.113   4.282 -0.1707 -0.2133  0.1334
  606MOL0     H79984   1.344   1.905   4.206 -1.4804  0.0260  0.5652
  606MOL0     H79985   1.311   2.068   4.235  0.5692  1.3751  0.3282
  606MOL0     H79986   1.493   1.941   4.012 -2.6543 -1.2312 -2.5007
  606MOL0     H79987   1.469   2.105   4.025  3.1109 -1.0790  2.0327
  606MOL0     H79988   1.229   2.092   4.007 -0.0416  1.0210 -2.3384
  606MOL0     H79989   1.289   2.000   3.866 -1.3684 -1.4438  0.0146
  606MOL0     H79990   1.108   1.718   4.125 -1.3602 -0.1185 -1.3873
  606MOL0     H79991   1.447   1.936   4.686 -0.1247  1.4882  0.5467
  606MOL0     H79992   1.612   1.964   4.865  3.4540 -1.0674  0.4030
  607MOL0     O79993   3.036   4.026   7.545 -0.7522 -0.2387  0.0092
  607MOL0     C79994   2.961   3.931   7.522  0.2045  0.2143  0.1662
  607MOL0     O79995   2.852   3.901   7.598  0.1737  0.8971  0.1876
  607MOL0     C79996   2.817   3.989   7.699 -0.7643  0.1322 -0.9657
  607MOL0     C79997   2.752   3.927   7.807 -0.7012  0.2996 -0.2604
  607MOL0     C79998   2.692   4.012   7.902 -0.2137 -0.1442 -0.3323
  607MOL0     C79999   2.706   4.146   7.900  0.2442 -0.3296 -0.6131
  607MOL0     O80000   2.644   4.220   8.004  0.0679 -1.4083 -0.6287
  607MOL0     C80001   2.631   4.183   8.137 -0.3177  0.1992 -0.3093
  607MOL0     C80002   2.592   4.305   8.223 -0.6713 -0.3616 -1.1264
  607MOL0     C80003   2.507   4.271   8.343  0.4278  0.1016 -0.7751
  607MOL0     C80004   2.493   4.362   8.458  0.1581  0.1600 -0.3846
  607MOL0     C80005   2.478   4.272   8.587 -0.2271 -0.7538 -0.3869
  607MOL0     C80006   2.516   4.355   8.709  0.0560 -0.7679  0.3680
  607MOL0     C80007   2.515   4.278   8.841 -0.3310  0.4346  0.5450
  607MOL0     C80008   2.555   4.339   8.973  0.2213 -0.2523 -0.3898
  607MOL0     N80009   2.669   4.429   8.985  0.5043 -0.5053  0.7488
  607MOL0     C80010   2.806   4.396   8.997  0.1003 -0.6258 -0.1195
  607MOL0     C80011   2.872   4.507   9.005  0.5340 -0.6338 -0.1567
  607MOL0     C80012   3.018   4.532   9.020 -1.1163 -0.7578 -0.1504
  607MOL0     C80013   3.101   4.487   8.898  0.4089  0.4133  0.0857
  607MOL0     C80014   3.097   4.590   8.782 -0.1683 -0.6714 -0.4505
  607MOL0     C80015   3.114   4.536   8.643  0.0855 -0.2244  0.4502
  607MOL0     O80016   3.016   4.448   8.605  0.2597  0.7668 -0.0498
  607MOL0     C80017   3.027   4.357   8.501  0.0966 -0.2441  0.6952
  607MOL0     C80018   3.138   4.361   8.419 -0.8284  0.6540  1.2003
  607MOL0     C80019   3.158   4.257   8.323 -0.0821  0.6683 -0.3606
  607MOL0     C80020   3.058   4.158   8.305 -0.1277  0.4251  0.7620
  607MOL0     C80021   3.065   4.055   8.201 -0.0213  0.8521 -1.2650
  607MOL0     O80022   2.969   3.955   8.224 -0.5200 -0.3787  0.4054
  607MOL0     C80023   2.991   3.824   8.165  0.7182 -0.6187 -0.5490
  607MOL0     C80024   2.978   3.715   8.245  0.8396 -0.4146  0.1063
  607MOL0     C80025   3.015   3.586   8.189 -0.4452 -0.3246 -0.4869
  607MOL0     C80026   3.060   3.569   8.057 -0.1393 -0.3704 -0.4007
  607MOL0     O80027   3.083   3.444   8.002  0.1549  0.0450  0.2093
  607MOL0     C80028   3.100   3.443   7.860  0.9165 -0.3004  0.3224
  607MOL0     C80029   3.153   3.304   7.805  0.7446  0.0454 -0.8820
  607MOL0     C80030   3.280   3.260   7.876 -0.2962 -0.5810  0.3601
  607MOL0     C80031   3.309   3.119   7.820 -0.2977  0.2928  0.9142
  607MOL0     C80032   3.449   3.070   7.864  0.7166  0.2311  0.9119
  607MOL0     C80033   3.509   3.000   7.733  0.1842  0.6605 -0.7361
  607MOL0     C80034   3.640   2.931   7.781  0.2656  0.1519  0.0171
  607MOL0     C80035   3.696   2.851   7.666  0.5504 -0.2210 -0.0089
  607MOL0    Cl80036   3.664   2.679   7.690 -0.1903 -0.1048  0.0913
  607MOL0     C80037   3.054   3.692   7.980  0.1014 -0.5395  0.4249
  607MOL0     C80038   3.013   3.815   8.035  0.5279 -0.5862  0.8326
  607MOL0     O80039   3.156   4.050   8.128 -0.2146 -0.2865 -0.4471
  607MOL0     C80040   2.944   4.153   8.385  0.9889  0.0755  0.5000
  607MOL0     C80041   2.924   4.260   8.476  0.0049  0.3138  0.2899
  607MOL0     N80042   2.784   4.617   8.999 -0.1200  0.6523  0.0835
  607MOL0     N80043   2.662   4.566   8.987 -0.6873 -0.0311  0.4983
  607MOL0     C80044   2.759   4.209   7.793 -0.7745  0.2030 -0.6115
  607MOL0     C80045   2.826   4.129   7.696  0.2588 -0.3362 -1.2473
  607MOL0     C80046   2.998   3.833   7.400  0.4649 -0.3970  0.2766
  607MOL0     C80047   3.080   3.881   7.306  0.0440  0.2592  0.4332
  607MOL0     C80048   3.116   3.808   7.190 -0.3920  0.7621  1.2129
  607MOL0     C80049   3.056   3.682   7.170  0.0578 -0.0080 -1.0208
  607MOL0     O80050   3.098   3.626   7.054 -0.5074  0.2324  0.4857
  607MOL0     C80051   3.033   3.510   7.008  0.4925  0.3367  0.5711
  607MOL0     C80052   3.047   3.489   6.860 -0.4566 -0.4077  1.0229
  607MOL0     C80053   2.932   3.408   6.792  0.4900  0.0161 -0.4535
  607MOL0     C80054   2.970   3.257   6.777  0.8353 -0.7542  0.4777
  607MOL0     C80055   3.069   3.229   6.673 -0.5570 -0.3922  1.0284
  607MOL0     C80056   3.130   3.228   6.569 -0.5753  0.2129  0.2681
  607MOL0     C80057   2.976   3.630   7.276 -1.2305  0.0641  0.0608
  607MOL0     C80058   2.950   3.700   7.392 -0.1419  0.5788 -0.3167
  607MOL0     H80059   2.739   3.819   7.800 -0.7230  0.2067  1.0470
  607MOL0     H80060   2.641   3.964   7.985 -1.6327 -1.9883 -2.1665
  607MOL0     H80061   2.726   4.137   8.164  0.3419  1.4485 -0.4293
  607MOL0     H80062   2.550   4.110   8.145  2.0726 -2.3943  3.0332
  607MOL0     H80063   2.549   4.380   8.156 -0.9710 -0.8704 -1.5127
  607MOL0     H80064   2.685   4.346   8.264 -0.9124 -2.7320  2.1566
  607MOL0     H80065   2.548   4.178   8.382 -0.8768  0.5239  1.7951
  607MOL0     H80066   2.407   4.255   8.302  1.5418 -0.3484 -3.5911
  607MOL0     H80067   2.585   4.419   8.475  0.1339  0.0138  0.2821
  607MOL0     H80068   2.403   4.421   8.443  0.0377 -0.1639 -0.9590
  607MOL0     H80069   2.558   4.197   8.583  1.5065  0.6964  3.0975
  607MOL0     H80070   2.382   4.219   8.589  1.1681 -3.5515 -1.2485
  607MOL0     H80071   2.440   4.434   8.710 -0.3621 -1.0794 -1.9280
  607MOL0     H80072   2.609   4.410   8.693 -0.6021 -0.1987 -2.0217
  607MOL0     H80073   2.413   4.244   8.859  0.7099 -1.5138  3.7452
  607MOL0     H80074   2.576   4.190   8.818 -2.1735 -0.1350 -2.7098
  607MOL0     H80075   2.573   4.251   9.036 -1.9295  2.2149  4.1771
  607MOL0     H80076   2.474   4.396   9.019 -1.6058 -1.7509 -1.5976
  607MOL0     H80077   2.862   4.303   8.995 -1.4652 -1.6017 -0.6184
  607MOL0     H80078   3.046   4.477   9.111 -0.9718 -0.3340  0.0669
  607MOL0     H80079   3.054   4.634   9.037  1.7271 -1.2515 -2.2880
  607MOL0     H80080   3.066   4.390   8.862  3.5553 -0.4095 -1.1147
  607MOL0     H80081   3.195   4.463   8.948  0.9293  0.8790 -0.6487
  607MOL0     H80082   3.002   4.645   8.789 -0.6422 -1.3451 -1.3542
  607MOL0     H80083   3.174   4.667   8.790 -0.7896 -0.1792  0.9843
  607MOL0     H80084   3.210   4.484   8.651 -0.4380 -2.1698 -3.3223
  607MOL0     H80085   3.130   4.612   8.566 -1.4928 -0.6369 -0.3405
  607MOL0     H80086   3.214   4.438   8.419 -0.5043  0.3848 -0.5688
  607MOL0     H80087   3.237   4.249   8.249  0.2149 -3.6441  0.2004
  607MOL0     H80088   2.953   3.716   8.351  2.5804 -4.0880  0.7064
  607MOL0     H80089   3.004   3.497   8.250 -2.2037 -0.1805 -0.5477
  607MOL0     H80090   3.182   3.515   7.849  1.9304 -0.9190  2.9972
  607MOL0     H80091   3.008   3.486   7.821  0.8318  1.3440  2.1915
  607MOL0     H80092   3.170   3.308   7.697 -4.2228  1.8042 -1.8645
  607MOL0     H80093   3.069   3.234   7.803  0.1513  0.7072  0.0746
  607MOL0     H80094   3.257   3.254   7.983  0.0521 -0.1495  0.4633
  607MOL0     H80095   3.366   3.325   7.857 -0.5858 -0.4739 -0.6889
  607MOL0     H80096   3.225   3.053   7.844 -0.6559  0.8194  1.1278
  607MOL0     H80097   3.301   3.137   7.713  0.8476  0.0889  0.7890
  607MOL0     H80098   3.421   3.002   7.946  1.9668 -2.0736 -0.4857
  607MOL0     H80099   3.509   3.152   7.904  0.1477  0.5964  1.0356
  607MOL0     H80100   3.533   3.075   7.657 -0.9766  1.8270  0.0013
  607MOL0     H80101   3.429   2.943   7.685 -1.7419  3.9019 -1.7151
  607MOL0     H80102   3.711   3.011   7.803  0.9670 -0.3554 -0.3542
  607MOL0     H80103   3.621   2.878   7.875  1.9355  1.4884  1.1666
  607MOL0     H80104   3.804   2.864   7.659  0.7089 -0.7238  1.2122
  607MOL0     H80105   3.653   2.876   7.569  3.7862 -0.4852 -1.6130
  607MOL0     H80106   3.081   3.693   7.875  2.5177  1.1803  0.9706
  607MOL0     H80107   3.018   3.904   7.973  1.0110  0.1820  1.9362
  607MOL0     H80108   2.880   4.067   8.398 -0.2593  0.6940 -1.2123
  607MOL0     H80109   2.834   4.255   8.537 -0.7289  1.3832 -0.6645
  607MOL0     H80110   2.765   4.318   7.792  1.5803  0.1308  0.0179
  607MOL0     H80111   2.878   4.195   7.626  1.3996  3.5614  2.7571
  607MOL0     H80112   3.124   3.981   7.306 -0.6088  0.5738  1.7894
  607MOL0     H80113   3.169   3.847   7.104  1.2168 -1.2238  1.2261
  607MOL0     H80114   2.932   3.487   7.040  0.9848 -0.3196  1.7200
  607MOL0     H80115   3.081   3.419   7.045 -0.9078  0.3803  2.6437
  607MOL0     H80116   3.048   3.588   6.813  0.1807 -1.1888 -0.7006
  607MOL0     H80117   3.142   3.444   6.831 -0.1630  1.2568 -0.8148
  607MOL0     H80118   2.921   3.454   6.693 -0.5569  2.4987  0.7079
  607MOL0     H80119   2.836   3.416   6.843  0.1247  2.4735 -1.3611
  607MOL0     H80120   3.010   3.226   6.874 -0.0953  0.9802  1.4643
  607MOL0     H80121   2.881   3.195   6.761 -1.8297  1.8545  3.7688
  607MOL0     H80122   3.195   3.232   6.484 -0.3514 -1.7136  0.3150
  607MOL0     H80123   2.929   3.532   7.270 -1.5858  0.0034  2.7819
  607MOL0     H80124   2.873   3.666   7.460  1.5473 -1.2467  0.7742
  608MOL0     O80125   6.578   8.473   0.411  0.0572  0.3276  0.9291
  608MOL0     C80126   6.644   8.577   0.431  0.2535 -0.2310  0.7531
  608MOL0     O80127   6.743   8.580   0.517 -0.3342 -0.0244 -0.3757
  608MOL0     C80128   6.781   8.460   0.570 -1.2200 -0.2441 -0.9015
  608MOL0     C80129   6.719   8.405   0.682  0.2436  0.2097  0.4934
  608MOL0     C80130   6.782   8.289   0.736  0.1369  0.0489  0.4114
  608MOL0     C80131   6.893   8.230   0.673  0.2365  0.1812  0.5503
  608MOL0     O80132   6.946   8.106   0.711 -0.2886  0.2537 -0.4063
  608MOL0     C80133   6.880   8.035   0.817  0.7886 -0.2522  0.2653
  608MOL0     C80134   6.756   7.961   0.773 -0.2305  0.5512  0.7879
  608MOL0     C80135   6.781   7.868   0.658 -0.4980  0.3204  0.2903
  608MOL0     C80136   6.659   7.804   0.597 -0.0316 -0.6032 -0.8334
  608MOL0     C80137   6.696   7.694   0.502 -0.1201 -0.0938 -1.2526
  608MOL0     C80138   6.584   7.655   0.396 -0.2226  0.3916 -0.1395
  608MOL0     C80139   6.488   7.564   0.469  0.6673  0.7169  0.7887
  608MOL0     C80140   6.499   7.414   0.422  0.1003  0.3253  0.8101
  608MOL0     N80141   6.635   7.356   0.427 -0.3316 -1.0299  0.1752
  608MOL0     C80142   6.714   7.323   0.534 -0.0455 -0.1581  1.1087
  608MOL0     C80143   6.835   7.285   0.481  0.0260  0.0891  0.5866
  608MOL0     C80144   6.970   7.249   0.558 -0.1953  0.2738  0.8483
  608MOL0     C80145   6.956   7.147   0.669 -0.9720 -0.1204  0.6521
  608MOL0     C80146   7.086   7.141   0.769 -0.5497  0.1164 -0.7150
  608MOL0     C80147   7.029   7.092   0.901 -0.6923 -0.6825 -0.2704
  608MOL0     O80148   7.143   7.082   0.983  0.2372  0.1803  0.6223
  608MOL0     C80149   7.120   7.035   1.112 -0.6285 -0.0666  1.1556
  608MOL0     C80150   7.002   6.982   1.165  0.0284  0.0118  0.0380
  608MOL0     C80151   6.996   6.944   1.299 -0.3419 -0.2963 -0.4189
  608MOL0     C80152   7.110   6.951   1.378 -0.1092 -0.6415  0.7656
  608MOL0     C80153   7.129   6.881   1.516 -0.4097 -0.0089  0.2038
  608MOL0     O80154   7.248   6.917   1.590 -0.2622  0.4290  0.4440
  608MOL0     C80155   7.263   6.877   1.717  0.3640 -0.4104  0.0565
  608MOL0     C80156   7.380   6.826   1.760 -1.0312  0.1604 -0.9112
  608MOL0     C80157   7.392   6.766   1.885 -0.1279 -0.9569 -0.7073
  608MOL0     C80158   7.285   6.771   1.976  0.5278 -0.4193  0.3119
  608MOL0     O80159   7.290   6.730   2.107 -0.7500 -0.4109 -1.0687
  608MOL0     C80160   7.414   6.668   2.166 -0.3064  0.1033  0.3949
  608MOL0     C80161   7.428   6.697   2.313  0.2555 -0.0251  0.4517
  608MOL0     C80162   7.579   6.733   2.334 -0.4235 -0.0326 -0.3188
  608MOL0     C80163   7.608   6.773   2.480 -0.3224  0.8102 -0.2797
  608MOL0     C80164   7.635   6.645   2.559  0.2018  0.2991 -0.2555
  608MOL0     C80165   7.737   6.666   2.674 -0.3090  0.1067 -0.4726
  608MOL0     C80166   7.736   6.535   2.766 -0.1195 -0.0636  1.1237
  608MOL0     C80167   7.813   6.555   2.899  0.4603 -0.1469 -0.7022
  608MOL0    Cl80168   7.755   6.698   2.990 -0.0006 -0.4348 -0.1582
  608MOL0     C80169   7.165   6.827   1.930 -0.6233  0.6278 -1.2860
  608MOL0     C80170   7.155   6.879   1.809 -0.4103  0.9661  0.9584
  608MOL0     O80171   7.038   6.811   1.557 -0.0983 -0.8638  0.0048
  608MOL0     C80172   7.232   7.001   1.319 -0.2524 -0.5867 -0.0861
  608MOL0     C80173   7.238   7.051   1.184  0.6443  0.2791 -0.5215
  608MOL0     N80174   6.819   7.282   0.342  0.1796 -0.9192 -0.1131
  608MOL0     N80175   6.701   7.330   0.315 -0.4404  1.0423 -0.2093
  608MOL0     C80176   6.943   8.274   0.552 -0.0883  0.6405  0.2387
  608MOL0     C80177   6.884   8.393   0.498  0.2023 -0.0929 -0.6268
  608MOL0     C80178   6.609   8.685   0.343 -0.2815  0.6865  0.7580
  608MOL0     C80179   6.703   8.786   0.319  0.0809 -0.3782  0.2318
  608MOL0     C80180   6.676   8.885   0.224  0.4723 -0.1242  0.3989
  608MOL0     C80181   6.555   8.884   0.145 -0.1165  0.4063  0.5685
  608MOL0     O80182   6.527   8.962   0.036 -0.6812 -0.0041  0.2236
  608MOL0     C80183   6.623   9.037  -0.032  0.1229 -0.9133 -1.1153
  608MOL0     C80184   6.620   9.179   0.033 -0.6181 -0.5457 -0.4873
  608MOL0     C80185   6.483   9.252   0.023 -0.2860  0.1759  0.2110
  608MOL0     C80186   6.435   9.260  -0.127  0.0091 -0.1482 -0.7726
  608MOL0     C80187   6.539   9.270  -0.233  0.3891 -0.1265 -0.3017
  608MOL0     C80188   6.629   9.255  -0.307 -0.7952  0.5163  0.1178
  608MOL0     C80189   6.452   8.792   0.175  0.1416  0.3962 -0.4412
  608MOL0     C80190   6.485   8.681   0.268 -0.7111 -0.3130  0.6622
  608MOL0     H80191   6.637   8.458   0.731  0.1149  0.2470  0.2429
  608MOL0     H80192   6.741   8.242   0.825 -0.2717  1.1461  0.8117
  608MOL0     H80193   6.856   8.090   0.910  0.5131 -1.9807  1.2600
  608MOL0     H80194   6.953   7.962   0.853 -2.0727 -2.0661  3.0016
  608MOL0     H80195   6.673   8.018   0.730  0.1668 -0.2278 -1.1027
  608MOL0     H80196   6.713   7.908   0.858 -1.7159  0.1325 -0.1816
  608MOL0     H80197   6.854   7.793   0.690  1.9045 -0.3561 -5.5486
  608MOL0     H80198   6.845   7.926   0.590  1.4484 -2.4954 -0.4715
  608MOL0     H80199   6.594   7.759   0.673  1.6417 -3.5715 -0.9927
  608MOL0     H80200   6.608   7.881   0.540 -1.4483  1.7655  3.2226
  608MOL0     H80201   6.720   7.606   0.563  3.5962  1.4694 -0.1858
  608MOL0     H80202   6.795   7.718   0.463  0.0868  3.6587  1.1289
  608MOL0     H80203   6.626   7.623   0.300 -0.7862  1.1235 -0.6414
  608MOL0     H80204   6.529   7.746   0.372  1.0303  0.6191 -2.4200
  608MOL0     H80205   6.494   7.571   0.578 -1.1307  1.6596  0.8671
  608MOL0     H80206   6.387   7.596   0.442  1.9078  1.0710 -4.5130
  608MOL0     H80207   6.466   7.418   0.317  0.8375  2.4478  0.6144
  608MOL0     H80208   6.437   7.351   0.486 -2.3316  1.5022 -0.2514
  608MOL0     H80209   6.706   7.339   0.641  2.9356 -0.2262  1.4190
  608MOL0     H80210   7.025   7.335   0.599 -0.0332  0.0261  1.1566
  608MOL0     H80211   7.033   7.205   0.481 -0.2975 -3.2784  2.6061
  608MOL0     H80212   6.960   7.053   0.612  1.3091 -0.4849  1.3037
  608MOL0     H80213   6.855   7.149   0.709 -2.0903 -3.3448 -1.5414
  608MOL0     H80214   7.161   7.068   0.737 -0.3555 -0.6483  1.3639
  608MOL0     H80215   7.128   7.242   0.778 -2.2644  1.2821 -3.8361
  608MOL0     H80216   6.983   6.994   0.882  1.8620 -2.0783  0.2536
  608MOL0     H80217   6.963   7.166   0.946  2.5496  1.3617  1.5194
  608MOL0     H80218   6.915   6.990   1.101  0.4219 -0.2829 -0.5451
  608MOL0     H80219   6.904   6.908   1.345 -1.0460  2.4047  0.4477
  608MOL0     H80220   7.457   6.822   1.684  0.0494  0.1459  0.1678
  608MOL0     H80221   7.476   6.704   1.916 -0.1707 -1.4779 -1.6207
  608MOL0     H80222   7.508   6.693   2.116 -1.5475  0.9916 -1.5939
  608MOL0     H80223   7.404   6.559   2.156  0.5855 -0.0806  1.3896
  608MOL0     H80224   7.401   6.606   2.367  1.7669 -1.3180 -0.8588
  608MOL0     H80225   7.356   6.776   2.333  0.2746  0.2778 -0.6066
  608MOL0     H80226   7.609   6.813   2.266 -0.9397  0.7730  0.3947
  608MOL0     H80227   7.636   6.643   2.308  1.9999  1.7115 -1.4303
  608MOL0     H80228   7.692   6.843   2.478  2.8209 -2.6648 -1.0047
  608MOL0     H80229   7.524   6.822   2.530 -3.1147 -1.5926 -2.2936
  608MOL0     H80230   7.661   6.558   2.498  2.3154  2.5103 -2.8123
  608MOL0     H80231   7.538   6.620   2.603 -0.2134  0.4711 -1.0407
  608MOL0     H80232   7.729   6.758   2.733  1.9719 -0.7710  1.3462
  608MOL0     H80233   7.838   6.668   2.634 -0.1355  1.2411 -0.0355
  608MOL0     H80234   7.632   6.510   2.789 -0.8676  1.9732  0.2002
  608MOL0     H80235   7.787   6.453   2.714  0.5315  0.6936  0.5390
  608MOL0     H80236   7.920   6.556   2.878  0.2059 -4.4737 -3.4570
  608MOL0     H80237   7.789   6.474   2.969  1.0017 -1.7663 -2.3145
  608MOL0     H80238   7.082   6.821   1.999  0.8341 -3.9646  0.4525
  608MOL0     H80239   7.055   6.915   1.785 -0.6899 -0.2101  0.3315
  608MOL0     H80240   7.325   6.982   1.372  0.3753  0.7257 -0.6612
  608MOL0     H80241   7.330   7.094   1.145  2.1565 -1.4570  0.9666
  608MOL0     H80242   7.031   8.229   0.507  0.4570  0.6663  1.2272
  608MOL0     H80243   6.913   8.431   0.401 -2.4929 -0.4563 -1.6526
  608MOL0     H80244   6.797   8.798   0.371  1.1894  0.4854 -1.8361
  608MOL0     H80245   6.743   8.962   0.188 -2.2312  1.6754 -1.2192
  608MOL0     H80246   6.606   9.037  -0.140 -0.2612  1.2194 -1.0846
  608MOL0     H80247   6.724   8.995  -0.020  0.4196  0.0478 -0.0699
  608MOL0     H80248   6.650   9.176   0.138  0.0785 -0.4852 -0.6805
  608MOL0     H80249   6.694   9.251  -0.002  1.2582 -0.5063  3.1403
  608MOL0     H80250   6.507   9.352   0.059 -2.8154  1.1545 -0.6102
  608MOL0     H80251   6.413   9.199   0.089 -3.0111  1.2708 -1.6200
  608MOL0     H80252   6.379   9.171  -0.155 -1.4159  0.2646  0.6071
  608MOL0     H80253   6.365   9.344  -0.128  0.0585 -0.1000 -0.1507
  608MOL0     H80254   6.722   9.264  -0.360 -0.1587 -0.1388  1.0816
  608MOL0     H80255   6.353   8.796   0.131 -0.3869 -1.8112  0.4010
  608MOL0     H80256   6.410   8.605   0.287 -1.6529  0.9383  2.1619
  609MOL0     O80257   8.028  10.040   3.953 -0.7320  0.1098  0.1453
  609MOL0     C80258   8.096   9.944   3.989 -0.0820  0.7061  1.2159
  609MOL0     O80259   8.058   9.808   3.956 -0.5845  0.2220 -0.2068
  609MOL0     C80260   7.942   9.768   3.888 -0.7299 -0.0987 -0.4019
  609MOL0     C80261   7.866   9.846   3.795  0.8587 -0.4099 -0.2914
  609MOL0     C80262   7.762   9.791   3.717 -0.0914  1.2884 -0.9737
  609MOL0     C80263   7.722   9.658   3.732  0.9089 -0.3505 -0.3226
  609MOL0     O80264   7.619   9.612   3.658  0.4213  0.4008 -0.1982
  609MOL0     C80265   7.612   9.465   3.644 -0.9315 -0.5570 -0.5826
  609MOL0     C80266   7.489   9.438   3.559 -0.3162  0.1610 -0.0755
  609MOL0     C80267   7.484   9.284   3.526 -0.6385 -0.1672 -0.2907
  609MOL0     C80268   7.345   9.231   3.483 -0.6376 -0.3212  0.4613
  609MOL0     C80269   7.356   9.077   3.443 -0.6111  1.5913  0.6736
  609MOL0     C80270   7.217   9.012   3.453  1.0030  0.9297 -0.2292
  609MOL0     C80271   7.206   8.869   3.393 -0.2896  1.3989  0.5639
  609MOL0     C80272   7.068   8.814   3.409  0.9130  0.2804  0.0129
  609MOL0     N80273   7.044   8.671   3.407  0.1379 -0.2131 -0.1786
  609MOL0     C80274   6.994   8.598   3.306 -0.4670  0.3469  0.1980
  609MOL0     C80275   6.953   8.477   3.359  0.5428  0.0472 -0.5513
  609MOL0     C80276   6.890   8.359   3.287  0.3312 -0.9602 -0.5788
  609MOL0     C80277   6.961   8.328   3.156 -0.2981  0.5525 -0.4183
  609MOL0     C80278   6.942   8.180   3.121 -0.0407 -0.3608 -0.2328
  609MOL0     C80279   7.044   8.135   3.009  0.0312  0.7277  0.0255
  609MOL0     O80280   6.986   8.153   2.876  0.2701  0.7116  0.6322
  609MOL0     C80281   7.076   8.156   2.775  0.2167  0.0145  1.2586
  609MOL0     C80282   7.213   8.207   2.778  0.2413  0.1764 -0.1455
  609MOL0     C80283   7.295   8.195   2.669  0.8269 -1.2164  0.5088
  609MOL0     C80284   7.244   8.142   2.546 -0.3292 -0.5601  0.3146
  609MOL0     C80285   7.322   8.146   2.416  0.1999 -0.4695 -0.0443
  609MOL0     O80286   7.257   8.100   2.295 -0.7793  0.3346  0.7303
  609MOL0     C80287   7.331   8.121   2.182  0.4095  0.5015  0.1390
  609MOL0     C80288   7.416   8.017   2.125  0.0747 -0.2309 -0.7128
  609MOL0     C80289   7.489   8.052   2.008  0.6364  0.2127 -0.4100
  609MOL0     C80290   7.473   8.175   1.942 -0.0577 -0.2584  1.3135
  609MOL0     O80291   7.541   8.216   1.826  0.1765 -0.6458 -0.3944
  609MOL0     C80292   7.659   8.146   1.799  0.2995  0.3161  0.8268
  609MOL0     C80293   7.758   8.231   1.716 -0.1970  0.6346  0.8779
  609MOL0     C80294   7.866   8.146   1.651  0.8494  1.2262  0.2201
  609MOL0     C80295   7.965   8.231   1.559  0.0415 -0.4921  0.0322
  609MOL0     C80296   8.091   8.162   1.520  0.4044  0.5216  0.1567
  609MOL0     C80297   8.160   8.245   1.404  0.3243 -0.0744 -0.1757
  609MOL0     C80298   8.282   8.165   1.363 -0.4497 -0.3077  1.2057
  609MOL0     C80299   8.360   8.215   1.250  1.5421 -0.1997  0.6929
  609MOL0    Cl80300   8.502   8.112   1.246  0.0254 -0.4426 -0.0401
  609MOL0     C80301   7.384   8.262   1.992  0.7592 -0.5015 -0.1483
  609MOL0     C80302   7.312   8.239   2.112  0.5308 -0.6118  0.9690
  609MOL0     O80303   7.427   8.196   2.421 -0.5166  0.2714 -0.1839
  609MOL0     C80304   7.107   8.092   2.542 -0.0734 -0.1434  0.8660
  609MOL0     C80305   7.026   8.111   2.650  0.1307  0.3841 -0.8505
  609MOL0     N80306   7.000   8.478   3.490 -0.0582 -0.0864 -0.2661
  609MOL0     N80307   7.046   8.596   3.516 -0.4455 -0.2764 -0.4385
  609MOL0     C80308   7.797   9.577   3.810 -0.8071 -0.2776 -0.0007
  609MOL0     C80309   7.915   9.631   3.876  0.2382  0.7169  0.1851
  609MOL0     C80310   8.238   9.965   4.052  0.4351  0.6041  0.3505
  609MOL0     C80311   8.276  10.090   4.098  0.8427 -0.5447 -1.1699
  609MOL0     C80312   8.404  10.120   4.145 -0.1984 -0.3170 -0.4689
  609MOL0     C80313   8.499  10.020   4.150  0.3841 -0.4334 -0.8501
  609MOL0     O80314   8.624  10.048   4.200 -0.6532  0.2355  0.3812
  609MOL0     C80315   8.701   9.947   4.269  0.2790  1.0888  0.5369
  609MOL0     C80316   8.818   9.988   4.345  0.1415 -0.1572 -0.2963
  609MOL0     C80317   8.792  10.109   4.435  0.1080  1.3520 -0.0502
  609MOL0     C80318   8.856  10.243   4.393  0.8403  0.7629  0.2045
  609MOL0     C80319   8.779  10.351   4.459  0.0219  0.1877  0.1826
  609MOL0     C80320   8.714  10.429   4.525  0.0950 -0.5960  0.1262
  609MOL0     C80321   8.469   9.888   4.104  0.8336 -0.3487  0.0829
  609MOL0     C80322   8.336   9.862   4.065  0.6232 -0.2567  0.2670
  609MOL0     H80323   7.905   9.941   3.759 -0.7588 -0.2386 -1.7342
  609MOL0     H80324   7.698   9.845   3.648 -3.4601 -1.9029 -0.6865
  609MOL0     H80325   7.614   9.419   3.743  2.7499 -1.3881 -0.9182
  609MOL0     H80326   7.706   9.429   3.603  1.8483  3.4539  1.6119
  609MOL0     H80327   7.520   9.493   3.470  1.8955 -0.0499  0.4962
  609MOL0     H80328   7.396   9.479   3.601  0.4271  1.0776  0.7326
  609MOL0     H80329   7.517   9.222   3.610  0.0497  1.6950  0.8807
  609MOL0     H80330   7.548   9.267   3.439 -1.0457 -1.7614 -0.3092
  609MOL0     H80331   7.274   9.240   3.566 -0.1837 -2.3322  1.1240
  609MOL0     H80332   7.301   9.292   3.404 -2.4610 -0.2846  1.4571
  609MOL0     H80333   7.420   9.023   3.513  0.9234  3.0930  0.4823
  609MOL0     H80334   7.393   9.069   3.341 -0.9757 -5.0168  0.6060
  609MOL0     H80335   7.148   9.079   3.401 -0.1000 -1.4847 -2.1217
  609MOL0     H80336   7.185   9.012   3.557  0.4189 -0.1874 -0.3898
  609MOL0     H80337   7.231   8.873   3.287  0.6977  2.6328  0.8116
  609MOL0     H80338   7.287   8.808   3.434  0.6935  0.2972 -2.7650
  609MOL0     H80339   7.000   8.867   3.342  0.0833 -1.8251 -0.8983
  609MOL0     H80340   7.036   8.857   3.505 -2.5096 -0.3812 -0.6918
  609MOL0     H80341   6.990   8.604   3.197  1.3651 -0.8196  0.0154
  609MOL0     H80342   6.782   8.368   3.271  0.5423  2.6231 -0.7056
  609MOL0     H80343   6.914   8.276   3.353  1.9374 -0.3275 -0.3323
  609MOL0     H80344   7.066   8.354   3.164 -0.1881 -0.4308  3.3300
  609MOL0     H80345   6.915   8.396   3.084  1.7338  2.1991 -0.2205
  609MOL0     H80346   6.961   8.112   3.204  1.8846  0.8193  0.3605
  609MOL0     H80347   6.839   8.168   3.086 -0.4914  0.3694  0.8168
  609MOL0     H80348   7.061   8.027   3.014 -1.4266  0.3037 -2.6258
  609MOL0     H80349   7.134   8.195   3.026 -0.2818  0.9638  0.8845
  609MOL0     H80350   7.256   8.253   2.865  3.0938 -2.2692 -0.1122
  609MOL0     H80351   7.399   8.224   2.661  0.4004 -0.1324 -2.6694
  609MOL0     H80352   7.437   7.917   2.161 -2.1202 -0.7961 -0.8275
  609MOL0     H80353   7.549   7.975   1.960  2.9945  3.6642 -3.5247
  609MOL0     H80354   7.639   8.054   1.744  1.9213 -1.1462  2.5730
  609MOL0     H80355   7.715   8.130   1.891 -0.5198  1.3961  1.5392
  609MOL0     H80356   7.806   8.302   1.784 -0.0413  3.0339 -1.5645
  609MOL0     H80357   7.713   8.287   1.634 -2.7305 -3.5353 -0.9381
  609MOL0     H80358   7.818   8.060   1.603  0.2773  0.8466  1.4332
  609MOL0     H80359   7.928   8.098   1.727  1.8429  1.4174 -0.4538
  609MOL0     H80360   7.907   8.277   1.479  0.7862  0.2207 -0.1095
  609MOL0     H80361   8.001   8.316   1.618 -1.4864 -1.1564  2.0369
  609MOL0     H80362   8.056   8.069   1.475  0.4688 -0.0351  1.2557
  609MOL0     H80363   8.154   8.143   1.607  2.4389 -6.0222 -2.1519
  609MOL0     H80364   8.170   8.350   1.434  1.1831  0.2279 -1.4319
  609MOL0     H80365   8.094   8.256   1.317  1.5181  0.3422 -1.0527
  609MOL0     H80366   8.353   8.154   1.446  2.0842 -0.8531 -0.8793
  609MOL0     H80367   8.250   8.063   1.337  0.3421  0.1558 -2.0159
  609MOL0     H80368   8.381   8.322   1.261 -0.1155  0.2717 -0.4231
  609MOL0     H80369   8.311   8.209   1.152  0.5932  0.2993  1.1245
  609MOL0     H80370   7.376   8.364   1.955 -1.3071  1.3072  4.4771
  609MOL0     H80371   7.260   8.328   2.146  3.5816  2.5428 -1.8148
  609MOL0     H80372   7.071   8.053   2.448  1.0452  1.7452 -0.3990
  609MOL0     H80373   6.924   8.075   2.643  0.2511 -0.3063  0.4841
  609MOL0     H80374   7.781   9.471   3.827  1.6234 -0.8783 -1.0355
  609MOL0     H80375   7.971   9.561   3.937 -1.5330 -0.1874  0.8494
  609MOL0     H80376   8.206  10.173   4.098  0.0890 -1.1433  0.5060
  609MOL0     H80377   8.435  10.220   4.173  0.0662 -1.5113  4.3625
  609MOL0     H80378   8.730   9.871   4.196 -1.9589  1.0213 -0.3451
  609MOL0     H80379   8.641   9.906   4.351 -0.0606  0.9727  0.2293
  609MOL0     H80380   8.843   9.902   4.407 -2.5468 -2.0108 -1.5987
  609MOL0     H80381   8.897  10.014   4.274 -0.9478 -0.7371 -1.7701
  609MOL0     H80382   8.832  10.087   4.534  1.0764  1.0053 -0.5022
  609MOL0     H80383   8.687  10.135   4.446  0.6002  2.6192  2.4351
  609MOL0     H80384   8.964  10.258   4.400  0.9776  1.2883 -2.2135
  609MOL0     H80385   8.839  10.264   4.287 -0.8861  0.3372  0.3704
  609MOL0     H80386   8.661  10.515   4.560  2.4372  1.4260 -0.9128
  609MOL0     H80387   8.544   9.810   4.097  0.5359 -0.7324  0.9441
  609MOL0     H80388   8.311   9.765   4.022  0.6300 -0.1464  0.0159
  610MOL0     O80389   5.960   6.525   6.675  0.8585 -0.7452 -0.9049
  610MOL0     C80390   6.013   6.426   6.733 -0.9430 -0.3651  0.0576
  610MOL0     O80391   6.094   6.345   6.665 -0.3505  0.3001 -0.6563
  610MOL0     C80392   6.127   6.388   6.541 -1.0122  0.3708 -0.2699
  610MOL0     C80393   6.126   6.289   6.442 -0.7453  0.7152 -0.1746
  610MOL0     C80394   6.175   6.313   6.312 -1.3081 -1.0463  0.9364
  610MOL0     C80395   6.239   6.441   6.290 -0.2853 -0.1694  0.0339
  610MOL0     O80396   6.288   6.499   6.176 -0.6757 -0.4698  0.1095
  610MOL0     C80397   6.341   6.412   6.082 -0.3970  1.0913  0.4381
  610MOL0     C80398   6.449   6.482   5.994  0.7542 -1.0648 -0.0123
  610MOL0     C80399   6.489   6.394   5.868 -0.9239 -0.6419 -0.1710
  610MOL0     C80400   6.531   6.239   5.889 -0.3355 -0.3276  0.1882
  610MOL0     C80401   6.666   6.227   5.954 -0.7959 -0.4880  0.2648
  610MOL0     C80402   6.785   6.264   5.865 -0.3335 -0.2126  0.2537
  610MOL0     C80403   6.839   6.157   5.768  0.3198 -0.5305 -0.4990
  610MOL0     C80404   6.767   6.131   5.643  0.0367 -0.5028 -0.3780
  610MOL0     N80405   6.862   6.142   5.529  0.9071  0.3677 -0.9295
  610MOL0     C80406   6.873   6.241   5.435 -0.2304  0.6332 -0.5217
  610MOL0     C80407   6.955   6.197   5.338 -0.1009  0.5332 -0.1459
  610MOL0     C80408   7.015   6.281   5.222 -1.2783  1.0209 -0.2715
  610MOL0     C80409   6.953   6.422   5.183  0.4872 -0.0078  0.0636
  610MOL0     C80410   6.832   6.403   5.094  0.1469  0.1587  0.9641
  610MOL0     C80411   6.751   6.522   5.072 -0.2437 -0.4436 -0.2211
  610MOL0     O80412   6.685   6.573   5.185  0.2558  0.3482  0.9139
  610MOL0     C80413   6.588   6.669   5.168 -0.6966  0.6361 -0.0837
  610MOL0     C80414   6.517   6.699   5.285  0.6344 -1.1896  0.4697
  610MOL0     C80415   6.405   6.786   5.275  0.1811  0.7788  0.3493
  610MOL0     C80416   6.378   6.862   5.164  0.7179  0.7029 -1.6755
  610MOL0     C80417   6.278   6.963   5.166 -0.0218 -1.1751 -0.2634
  610MOL0     O80418   6.284   7.056   5.062  0.2848  0.2246 -0.1792
  610MOL0     C80419   6.204   7.170   5.061  0.5300  0.8072  0.4190
  610MOL0     C80420   6.063   7.163   5.050  0.5217  0.8676  0.1125
  610MOL0     C80421   5.991   7.285   5.041 -0.3118  0.7171 -0.1763
  610MOL0     C80422   6.054   7.411   5.071  0.6110  0.0020  0.9899
  610MOL0     O80423   5.976   7.523   5.067 -0.0401 -0.0968 -0.5598
  610MOL0     C80424   6.022   7.623   5.162  0.5722  0.2426 -0.0295
  610MOL0     C80425   5.926   7.719   5.214 -0.4669  0.5955 -0.4355
  610MOL0     C80426   5.872   7.802   5.097  0.3037 -0.4424 -0.2880
  610MOL0     C80427   5.841   7.951   5.104 -0.9414 -0.1590  0.3222
  610MOL0     C80428   5.706   7.978   5.168 -0.0452  0.4297 -0.3833
  610MOL0     C80429   5.677   8.124   5.164  0.1066 -0.5606 -0.3943
  610MOL0     C80430   5.534   8.159   5.191  1.0784  0.1031  0.6841
  610MOL0     C80431   5.504   8.149   5.344 -1.1482 -0.5491  0.8087
  610MOL0    Cl80432   5.331   8.142   5.369 -0.1369  0.6755 -0.5486
  610MOL0     C80433   6.200   7.405   5.085  0.0192  0.3354  1.2071
  610MOL0     C80434   6.270   7.289   5.091 -0.1624  1.6739  0.2443
  610MOL0     O80435   6.190   6.958   5.250  0.2135 -0.4198 -0.1368
  610MOL0     C80436   6.458   6.839   5.054 -1.1441 -1.1465 -0.8694
  610MOL0     C80437   6.558   6.740   5.047  0.1964 -0.3874 -0.9245
  610MOL0     N80438   6.997   6.066   5.370  0.5546 -0.2083  0.2244
  610MOL0     N80439   6.947   6.044   5.488  0.2728  1.1296  1.0785
  610MOL0     C80440   6.251   6.532   6.390  0.1274  0.3302  1.1134
  610MOL0     C80441   6.197   6.512   6.509  1.3646  0.6753 -0.8986
  610MOL0     C80442   5.991   6.404   6.874  0.1821 -0.6636 -0.7922
  610MOL0     C80443   5.904   6.483   6.950 -0.4478 -0.0657  1.4629
  610MOL0     C80444   5.876   6.457   7.077 -0.0042 -0.2907 -0.2370
  610MOL0     C80445   5.939   6.358   7.155 -0.3012  0.2132  0.0209
  610MOL0     O80446   5.923   6.331   7.289 -0.7041 -0.2432  0.2734
  610MOL0     C80447   5.880   6.436   7.374 -0.4895 -0.3305 -0.2430
  610MOL0     C80448   5.901   6.388   7.516 -0.6132  0.1470 -0.0918
  610MOL0     C80449   5.822   6.265   7.561  0.0259  0.3572 -0.2341
  610MOL0     C80450   5.861   6.206   7.696  0.3643  0.8969 -0.1338
  610MOL0     C80451   5.772   6.097   7.742 -0.0664 -0.4067 -1.2231
  610MOL0     C80452   5.698   6.002   7.784  0.7271 -0.8726  0.6635
  610MOL0     C80453   6.022   6.274   7.080 -1.1760 -0.1802  0.0067
  610MOL0     C80454   6.048   6.291   6.942  0.0907 -0.3134  0.1042
  610MOL0     H80455   6.077   6.193   6.456 -0.3683  0.1881 -2.1501
  610MOL0     H80456   6.172   6.242   6.230 -0.4565 -0.1425  0.0999
  610MOL0     H80457   6.268   6.373   6.011  2.5294 -0.3315 -2.0749
  610MOL0     H80458   6.372   6.321   6.134  0.1660  1.6724  1.1547
  610MOL0     H80459   6.533   6.506   6.060 -0.3030  2.0905  0.3241
  610MOL0     H80460   6.403   6.574   5.958 -1.9015 -2.3925 -0.2367
  610MOL0     H80461   6.565   6.451   5.813 -2.0614 -0.6919 -1.8581
  610MOL0     H80462   6.401   6.387   5.804 -1.8445  1.9910  0.6732
  610MOL0     H80463   6.458   6.186   5.952  0.1530 -2.3662 -0.8636
  610MOL0     H80464   6.546   6.174   5.802  1.3072 -2.1762  1.7440
  610MOL0     H80465   6.684   6.125   5.988 -0.6289 -0.4075  0.4192
  610MOL0     H80466   6.667   6.294   6.041 -0.2946 -0.6818  0.4088
  610MOL0     H80467   6.872   6.291   5.925  1.7616  0.0431 -2.6465
  610MOL0     H80468   6.757   6.351   5.805 -2.0443  0.5744  2.0986
  610MOL0     H80469   6.936   6.203   5.744 -0.7412  1.2892 -1.4544
  610MOL0     H80470   6.850   6.064   5.825  2.1097  0.5506  1.0231
  610MOL0     H80471   6.689   6.207   5.634 -0.1301 -0.1957  2.7161
  610MOL0     H80472   6.710   6.037   5.647  0.0456 -0.5007  3.8744
  610MOL0     H80473   6.814   6.332   5.432 -0.8901  0.5399  3.8078
  610MOL0     H80474   7.006   6.207   5.142  0.8656 -0.6314  0.8726
  610MOL0     H80475   7.120   6.285   5.252 -1.8148  1.9479  1.6487
  610MOL0     H80476   7.013   6.494   5.126 -1.6045  3.2332  1.6789
  610MOL0     H80477   6.926   6.474   5.275  0.4863 -1.4956  0.9331
  610MOL0     H80478   6.873   6.356   5.004  1.1487 -1.2993  2.1438
  610MOL0     H80479   6.764   6.330   5.140 -1.0477  0.7957  0.2693
  610MOL0     H80480   6.677   6.505   4.993 -1.9568 -0.3666  1.3091
  610MOL0     H80481   6.818   6.600   5.037 -0.6379 -0.2715 -0.5985
  610MOL0     H80482   6.544   6.640   5.372  0.6895 -0.8701  0.6742
  610MOL0     H80483   6.354   6.808   5.368  2.2422  0.0282  1.7322
  610MOL0     H80484   6.019   7.065   5.035  3.3719 -0.0402 -4.0769
  610MOL0     H80485   5.883   7.298   5.038 -0.5448 -1.0493 -0.4542
  610MOL0     H80486   6.103   7.675   5.110 -1.2729  1.2053 -2.1141
  610MOL0     H80487   6.066   7.561   5.240  2.8832 -1.4615 -2.5111
  610MOL0     H80488   5.972   7.791   5.282  1.0234 -0.9595  0.2730
  610MOL0     H80489   5.841   7.670   5.261 -2.4320  1.5906 -2.7320
  610MOL0     H80490   5.781   7.756   5.056  0.2090  0.6780 -1.3697
  610MOL0     H80491   5.948   7.785   5.021  0.9488 -1.8131  0.6074
  610MOL0     H80492   5.920   8.007   5.154  0.0900  0.0571 -1.4541
  610MOL0     H80493   5.836   7.987   5.001 -3.0922  0.8212  0.7081
  610MOL0     H80494   5.703   7.937   5.270 -2.9620  0.7331 -0.2592
  610MOL0     H80495   5.639   7.919   5.106  1.3491 -1.9962  0.2854
  610MOL0     H80496   5.697   8.167   5.065 -0.4097  2.4262  0.6927
  610MOL0     H80497   5.746   8.177   5.229 -1.5639 -0.4793  1.4103
  610MOL0     H80498   5.499   8.250   5.141 -1.4438 -1.0137  0.2628
  610MOL0     H80499   5.473   8.078   5.149  1.0768 -0.3656  1.5741
  610MOL0     H80500   5.534   8.240   5.397 -2.6805  1.3881 -1.4675
  610MOL0     H80501   5.570   8.069   5.380  2.2769  0.7066 -2.0858
  610MOL0     H80502   6.249   7.502   5.087  1.0956 -0.1444 -0.4400
  610MOL0     H80503   6.372   7.273   5.124  0.0996  3.4770  0.4045
  610MOL0     H80504   6.420   6.882   4.961 -2.7787 -0.9019 -0.1149
  610MOL0     H80505   6.614   6.714   4.958 -0.9137 -1.7796 -1.2595
  610MOL0     H80506   6.297   6.627   6.367  1.1912 -0.5503 -0.5964
  610MOL0     H80507   6.194   6.595   6.580  0.6408 -0.2889  0.2423
  610MOL0     H80508   5.853   6.561   6.895  0.5931 -0.8827 -0.8304
  610MOL0     H80509   5.795   6.518   7.118 -0.0367 -0.0675 -0.6322
  610MOL0     H80510   5.774   6.460   7.363 -1.0831 -1.0447  2.8814
  610MOL0     H80511   5.934   6.528   7.353  1.2391 -1.2044  0.1655
  610MOL0     H80512   6.006   6.379   7.547 -1.6856 -0.1510  3.9697
  610MOL0     H80513   5.890   6.483   7.569  4.3334  1.0318 -0.0916
  610MOL0     H80514   5.837   6.180   7.494 -0.1570 -1.3139  1.7346
  610MOL0     H80515   5.716   6.295   7.557  0.5115  2.0955 -1.0044
  610MOL0     H80516   5.963   6.167   7.689 -0.3646 -1.2709  0.6218
  610MOL0     H80517   5.857   6.286   7.769  1.4361 -0.3554  1.3633
  610MOL0     H80518   5.639   5.921   7.822 -1.7850 -0.1919 -1.4825
  610MOL0     H80519   6.056   6.189   7.137 -0.1017 -0.4772 -1.0259
  610MOL0     H80520   6.097   6.207   6.894 -2.4021 -0.7380 -1.9249
  611MOL0     O80521   4.825  11.087   7.509 -0.0178 -0.4217 -0.2177
  611MOL0     C80522   4.872  11.201   7.535  0.3576 -0.7998  0.2403
  611MOL0     O80523   5.007  11.246   7.529  0.2445  0.2172  0.0522
  611MOL0     C80524   5.114  11.174   7.487  1.0154  0.1238  0.3208
  611MOL0     C80525   5.105  11.059   7.407 -0.0437 -0.8146 -0.2041
  611MOL0     C80526   5.218  11.007   7.341  0.1725 -0.0697 -0.8455
  611MOL0     C80527   5.345  11.055   7.368  0.5577 -0.8061  0.6814
  611MOL0     O80528   5.447  10.992   7.302 -0.0356 -0.7251 -0.1931
  611MOL0     C80529   5.516  11.079   7.210  0.2099 -0.2240  1.2124
  611MOL0     C80530   5.604  10.985   7.128 -0.1091 -0.2823  0.2740
  611MOL0     C80531   5.710  11.072   7.048 -0.8075 -0.2013  0.1897
  611MOL0     C80532   5.827  10.978   7.006  0.3810 -0.0823  0.3886
  611MOL0     C80533   5.914  11.052   6.914  0.4005  0.1076  1.2078
  611MOL0     C80534   5.849  11.125   6.792 -0.4045  0.8979 -0.4255
  611MOL0     C80535   5.939  11.173   6.682 -0.2900 -0.5574  0.5841
  611MOL0     C80536   6.002  11.073   6.578  0.4669 -0.4366 -0.6077
  611MOL0     N80537   6.116  11.131   6.499  0.7165  0.4006  0.2153
  611MOL0     C80538   6.088  11.161   6.371 -0.1373 -0.4550  0.8824
  611MOL0     C80539   6.212  11.182   6.319  0.2754 -0.6322  0.4122
  611MOL0     C80540   6.249  11.214   6.173 -0.2081 -0.2409  0.4234
  611MOL0     C80541   6.264  11.360   6.149 -0.0762 -0.6030  0.6673
  611MOL0     C80542   6.405  11.435   6.190  0.3835  0.0276  0.0374
  611MOL0     C80543   6.408  11.582   6.159  0.1161  0.9759 -1.0938
  611MOL0     O80544   6.293  11.640   6.217 -0.4997 -0.5950 -0.0696
  611MOL0     C80545   6.253  11.771   6.173  0.8342  1.0548  1.0789
  611MOL0     C80546   6.119  11.787   6.117  0.4367 -0.0358 -0.0189
  611MOL0     C80547   6.083  11.915   6.066  0.0194 -0.4037  0.7936
  611MOL0     C80548   6.165  12.029   6.071 -0.4871 -0.0747  1.1424
  611MOL0     C80549   6.116  12.164   6.020 -0.1954  0.8981  0.2094
  611MOL0     O80550   6.211  12.252   6.019  0.0116  0.5182 -0.6009
  611MOL0     C80551   6.204  12.388   5.999 -1.0128  0.2146 -0.5596
  611MOL0     C80552   6.324  12.445   5.952 -0.5556 -0.2206  0.1166
  611MOL0     C80553   6.336  12.584   5.942  0.0035 -0.1861  0.7775
  611MOL0     C80554   6.228  12.674   5.978 -0.1282  0.9661  1.0166
  611MOL0     O80555   6.235  12.807   5.951  0.0224  0.0835 -0.8137
  611MOL0     C80556   6.153  12.898   6.021 -1.0221  0.2368  0.0832
  611MOL0     C80557   6.161  13.042   5.973  0.6949  0.1922  0.0198
  611MOL0     C80558   6.055  13.062   5.858  0.6794  0.9135 -0.2523
  611MOL0     C80559   6.071  13.211   5.805 -0.3552  0.1823 -0.7608
  611MOL0     C80560   6.181  13.232   5.704 -0.2301  0.4450  0.0894
  611MOL0     C80561   6.201  13.375   5.661 -0.0041 -0.0443 -0.5439
  611MOL0     C80562   6.095  13.427   5.566  0.8056 -0.6511 -0.5720
  611MOL0     C80563   6.042  13.568   5.596  1.1381  0.1339  0.7575
  611MOL0    Cl80564   5.950  13.638   5.454 -0.0139  0.1157 -0.5875
  611MOL0     C80565   6.110  12.613   6.017  0.2708 -0.2316 -0.3929
  611MOL0     C80566   6.106  12.476   6.038  0.0028 -0.8162  0.3668
  611MOL0     O80567   6.002  12.182   5.991  0.2436  0.3877  0.1390
  611MOL0     C80568   6.283  12.015   6.138  0.3398  0.5056 -0.9429
  611MOL0     C80569   6.332  11.892   6.190  0.2893  0.1601  0.3858
  611MOL0     N80570   6.306  11.161   6.415 -0.0126 -0.1420 -0.0134
  611MOL0     N80571   6.250  11.115   6.524  0.7393 -1.0229 -0.2109
  611MOL0     C80572   5.360  11.172   7.456  0.7095 -0.2795  0.4851
  611MOL0     C80573   5.244  11.230   7.506  0.0843 -0.0725  0.6291
  611MOL0     C80574   4.768  11.303   7.561 -0.1326 -0.5446  0.4827
  611MOL0     C80575   4.817  11.419   7.625 -0.2014 -0.5842  0.4860
  611MOL0     C80576   4.729  11.516   7.668  0.0711  0.2014 -0.3251
  611MOL0     C80577   4.591  11.507   7.647  0.2380  0.5531 -0.4869
  611MOL0     O80578   4.515  11.609   7.712  0.2091  0.2780  0.2194
  611MOL0     C80579   4.368  11.601   7.687 -0.4069  0.0417 -0.4408
  611MOL0     C80580   4.304  11.735   7.724  0.8723  0.0868 -0.6464
  611MOL0     C80581   4.146  11.731   7.739 -0.3444 -0.2211  0.2500
  611MOL0     C80582   4.110  11.872   7.793 -0.1211 -0.3140 -0.1773
  611MOL0     C80583   3.961  11.896   7.811 -0.9830  0.7562  0.3739
  611MOL0     C80584   3.848  11.899   7.840  0.0374 -0.0577  0.2628
  611MOL0     C80585   4.540  11.391   7.575 -0.0429 -0.3047  0.6334
  611MOL0     C80586   4.627  11.300   7.539 -0.1674  0.0005  0.5868
  611MOL0     H80587   5.003  11.029   7.385 -0.7178  1.0743  0.1712
  611MOL0     H80588   5.202  10.932   7.265 -0.4946  1.0447 -1.8533
  611MOL0     H80589   5.577  11.145   7.273  1.0706  1.2040 -1.0044
  611MOL0     H80590   5.444  11.137   7.151 -1.5495 -4.1856 -0.8985
  611MOL0     H80591   5.549  10.924   7.055  0.1998 -0.0497 -0.1572
  611MOL0     H80592   5.659  10.916   7.193 -1.9460 -0.0274  2.1924
  611MOL0     H80593   5.752  11.145   7.118  1.2260 -2.0294  0.9821
  611MOL0     H80594   5.651  11.122   6.970 -0.7469  1.1091  0.9512
  611MOL0     H80595   5.884  10.939   7.090  1.1199 -3.8148 -1.6161
  611MOL0     H80596   5.784  10.897   6.945  0.2708  2.1375 -2.7727
  611MOL0     H80597   5.991  10.985   6.875  1.5514  1.3959  1.1516
  611MOL0     H80598   5.962  11.135   6.966 -2.1289  2.0589  0.6419
  611MOL0     H80599   5.794  11.205   6.842 -1.3309 -1.6630  3.0564
  611MOL0     H80600   5.783  11.048   6.749 -1.2841  0.7143  1.1540
  611MOL0     H80601   5.872  11.236   6.623  2.7461  1.0359 -1.4281
  611MOL0     H80602   6.017  11.241   6.717 -1.2414  2.5698 -2.7478
  611MOL0     H80603   5.920  11.028   6.521  2.2601 -2.2754 -1.8787
  611MOL0     H80604   6.045  10.983   6.623  0.7531 -0.8495 -1.6782
  611MOL0     H80605   5.996  11.165   6.312 -0.7189 -0.4145  1.7813
  611MOL0     H80606   6.162  11.184   6.113  0.2893 -1.7256  0.3919
  611MOL0     H80607   6.342  11.164   6.147 -1.2827 -0.0437 -5.0199
  611MOL0     H80608   6.177  11.415   6.183 -0.0304  2.4417 -3.4395
  611MOL0     H80609   6.257  11.363   6.040 -1.2411  2.1677  0.7406
  611MOL0     H80610   6.421  11.437   6.298 -2.8823  1.0838  0.6261
  611MOL0     H80611   6.491  11.398   6.134  1.1601  1.3671  0.2892
  611MOL0     H80612   6.369  11.601   6.058 -3.0335 -0.0367 -0.1788
  611MOL0     H80613   6.495  11.643   6.186  0.5279 -1.0292  2.6610
  611MOL0     H80614   6.039  11.714   6.101 -0.3517  0.9631 -0.7704
  611MOL0     H80615   5.990  11.926   6.012  1.0056 -0.8338 -1.0642
  611MOL0     H80616   6.405  12.384   5.914 -0.3339  1.7796 -3.0572
  611MOL0     H80617   6.427  12.617   5.894  1.2176 -2.4538  1.3629
  611MOL0     H80618   6.192  12.903   6.123  0.3449  0.2514 -0.4221
  611MOL0     H80619   6.050  12.862   6.032 -0.1746 -2.0465  1.1765
  611MOL0     H80620   6.265  13.056   5.942  1.4350  1.1907  2.6212
  611MOL0     H80621   6.136  13.121   6.045 -0.2951 -0.3818  0.3255
  611MOL0     H80622   5.954  13.077   5.899  0.5723  1.2040 -0.6139
  611MOL0     H80623   6.060  12.991   5.775 -0.1776  0.5653 -0.0217
  611MOL0     H80624   5.976  13.247   5.764 -0.2235 -0.7841 -1.9837
  611MOL0     H80625   6.089  13.264   5.898 -2.1461 -4.9581  2.9818
  611MOL0     H80626   6.161  13.170   5.616  2.1148  0.5594 -0.5741
  611MOL0     H80627   6.278  13.201   5.743  0.1910 -1.6680 -2.3757
  611MOL0     H80628   6.300  13.396   5.619  1.3260  2.8396  3.4284
  611MOL0     H80629   6.210  13.438   5.750 -0.1676 -0.5317 -0.1808
  611MOL0     H80630   6.134  13.408   5.466  2.0899  0.8158 -0.3920
  611MOL0     H80631   6.006  13.363   5.570  0.6212 -0.3477  1.1559
  611MOL0     H80632   6.125  13.631   5.629  0.6065  0.2347  1.9639
  611MOL0     H80633   5.979  13.571   5.685 -0.4858  0.4708 -0.3597
  611MOL0     H80634   6.021  12.671   6.037  0.6857  0.2884 -0.0119
  611MOL0     H80635   6.018  12.433   6.085  0.1441  1.2796  2.7226
  611MOL0     H80636   6.355  12.095   6.149  2.4503 -0.7681 -4.0991
  611MOL0     H80637   6.427  11.891   6.241  0.2163 -0.6518  0.5080
  611MOL0     H80638   5.454  11.223   7.473 -0.8811  3.4144 -0.6317
  611MOL0     H80639   5.251  11.326   7.556 -0.7599 -0.7127  2.0326
  611MOL0     H80640   4.921  11.429   7.655 -0.6053 -1.4568  2.3045
  611MOL0     H80641   4.771  11.597   7.726 -2.4691 -0.0808  2.1168
  611MOL0     H80642   4.336  11.517   7.748 -1.0265 -1.3070 -2.5187
  611MOL0     H80643   4.335  11.569   7.588 -1.8225 -2.8761  0.8528
  611MOL0     H80644   4.353  11.780   7.811 -0.8781 -0.5028  0.7166
  611MOL0     H80645   4.333  11.790   7.635  1.8278 -1.9342 -1.6333
  611MOL0     H80646   4.108  11.652   7.804 -1.3837  1.1070  1.3260
  611MOL0     H80647   4.108  11.730   7.637 -0.0049  3.2463 -0.0377
  611MOL0     H80648   4.144  11.881   7.897 -2.3777  1.8499  0.4900
  611MOL0     H80649   4.144  11.953   7.727  0.1591  0.5732  1.0095
  611MOL0     H80650   3.744  11.883   7.862  0.3523 -1.9951  0.4987
  611MOL0     H80651   4.433  11.375   7.570  0.2618 -2.3114 -0.0912
  611MOL0     H80652   4.593  11.208   7.494  2.4052 -1.6462  1.7776
  612MOL0     O80653   8.658   5.136   4.010 -0.0573  1.0438  0.3850
  612MOL0     C80654   8.778   5.163   3.997  0.6843 -0.1696 -0.8565
  612MOL0     O80655   8.840   5.281   4.039 -0.5075 -0.4752  0.3677
  612MOL0     C80656   8.756   5.378   4.061  0.1393  0.1171 -0.0333
  612MOL0     C80657   8.698   5.443   3.951 -0.2800  0.0527 -0.0963
  612MOL0     C80658   8.611   5.549   3.981  0.5185 -0.9197 -0.8092
  612MOL0     C80659   8.592   5.597   4.109 -0.3350  0.6753  0.3055
  612MOL0     O80660   8.524   5.715   4.125  0.0549  0.0861  0.3611
  612MOL0     C80661   8.514   5.787   4.255  0.6841  0.2527 -0.3025
  612MOL0     C80662   8.436   5.920   4.232  0.7708  0.1200 -0.4906
  612MOL0     C80663   8.433   6.029   4.349 -0.0737  0.5958 -0.6364
  612MOL0     C80664   8.357   6.154   4.291 -0.0727  0.3829 -0.2045
  612MOL0     C80665   8.339   6.274   4.392 -0.7405  0.2544  0.3875
  612MOL0     C80666   8.466   6.364   4.398  0.1076  0.4058 -0.5265
  612MOL0     C80667   8.489   6.448   4.265 -1.2009  1.4240  0.1445
  612MOL0     C80668   8.589   6.570   4.273 -0.4345  1.4300  0.3662
  612MOL0     N80669   8.728   6.514   4.275 -0.7383  0.1374  0.1720
  612MOL0     C80670   8.817   6.518   4.381  0.6926  0.8180  0.3364
  612MOL0     C80671   8.938   6.497   4.316 -0.7274 -0.1416 -0.0548
  612MOL0     C80672   9.078   6.478   4.380 -0.0538 -0.1703 -0.0338
  612MOL0     C80673   9.202   6.510   4.284  0.1213 -0.2704 -0.0434
  612MOL0     C80674   9.214   6.654   4.227  0.0792 -0.2578 -0.3700
  612MOL0     C80675   9.331   6.666   4.130 -0.1906 -0.5986  0.7307
  612MOL0     O80676   9.450   6.588   4.152 -0.4341 -0.5958 -0.2563
  612MOL0     C80677   9.557   6.609   4.065 -0.3592  0.3609 -0.6573
  612MOL0     C80678   9.665   6.537   4.100 -1.0515 -0.9347 -0.1327
  612MOL0     C80679   9.788   6.548   4.036  0.3373  0.1734  0.2443
  612MOL0     C80680   9.796   6.640   3.930 -0.6882  0.0921  0.2704
  612MOL0     C80681   9.917   6.655   3.844 -0.0177 -0.4093  0.3261
  612MOL0     O80682   9.913   6.718   3.721 -0.4008  0.0535 -0.1335
  612MOL0     C80683  10.009   6.726   3.632 -0.3714 -0.3078 -0.5366
  612MOL0     C80684   9.992   6.644   3.522 -1.4165 -1.0327  0.6018
  612MOL0     C80685  10.074   6.655   3.407  0.6318  0.1392 -0.8308
  612MOL0     C80686  10.191   6.738   3.417  0.7224  0.3509  0.3247
  612MOL0     O80687  10.274   6.737   3.309  0.1088 -0.7388 -0.2986
  612MOL0     C80688  10.404   6.802   3.328 -0.7439  0.4251  0.1294
  612MOL0     C80689  10.495   6.792   3.211 -0.1411 -0.2816  0.0809
  612MOL0     C80690  10.632   6.810   3.257 -0.1658 -0.6673  0.1767
  612MOL0     C80691  10.716   6.716   3.165 -0.2139 -0.4052  1.2246
  612MOL0     C80692  10.862   6.727   3.185  0.7689 -1.4702 -0.4046
  612MOL0     C80693  10.919   6.644   3.297  0.5126  0.9505  1.2707
  612MOL0     C80694  11.067   6.672   3.314  0.4841 -0.7080 -0.5630
  612MOL0     C80695  11.124   6.619   3.449  0.1125 -0.8771  0.8489
  612MOL0    Cl80696  11.110   6.439   3.459  0.1351 -0.1491 -0.1907
  612MOL0     C80697  10.208   6.818   3.536 -0.5340  0.6016 -0.6104
  612MOL0     C80698  10.120   6.808   3.648 -0.2733  0.0905  0.0595
  612MOL0     O80699  10.020   6.603   3.884  0.4702  0.2700  0.0745
  612MOL0     C80700   9.685   6.711   3.897  0.0053  0.7266  0.8807
  612MOL0     C80701   9.563   6.697   3.961  0.5475  0.4567  0.2630
  612MOL0     N80702   8.916   6.485   4.184 -0.4689  0.5219  0.3555
  612MOL0     N80703   8.795   6.493   4.155  0.2341 -0.2933  0.1721
  612MOL0     C80704   8.646   5.528   4.223 -0.2348  0.4339  0.5820
  612MOL0     C80705   8.725   5.416   4.192 -0.2930 -0.0324  0.0477
  612MOL0     C80706   8.882   5.049   3.970 -0.6595 -0.1191  0.4575
  612MOL0     C80707   9.009   5.053   4.036 -0.1654 -0.4503 -0.8726
  612MOL0     C80708   9.104   4.956   4.008 -0.0861 -0.9979  0.1650
  612MOL0     C80709   9.069   4.838   3.931 -1.1704  0.4210  0.6269
  612MOL0     O80710   9.166   4.741   3.906 -1.0632  0.1878  0.7156
  612MOL0     C80711   9.300   4.759   3.952  0.8471 -0.5592  0.1137
  612MOL0     C80712   9.408   4.664   3.883  0.2339  0.0316 -1.0898
  612MOL0     C80713   9.550   4.696   3.928 -0.0038  0.2900  0.3702
  612MOL0     C80714   9.608   4.826   3.870  0.2723 -0.1277 -0.3609
  612MOL0     C80715   9.748   4.839   3.922  1.2859 -0.0533  0.0521
  612MOL0     C80716   9.856   4.877   3.959 -0.3284 -0.3410  0.6118
  612MOL0     C80717   8.938   4.834   3.877 -0.2083 -0.6214  0.2910
  612MOL0     C80718   8.849   4.942   3.887  0.0580 -0.2670 -0.6050
  612MOL0     H80719   8.706   5.413   3.848 -3.8100 -0.9397 -0.2149
  612MOL0     H80720   8.564   5.600   3.898 -1.0381  0.0785  0.6171
  612MOL0     H80721   8.616   5.806   4.290  0.7890  0.3680 -0.6689
  612MOL0     H80722   8.460   5.724   4.326 -0.3468 -1.2293 -2.2856
  612MOL0     H80723   8.339   5.902   4.185  1.8798 -0.2025 -2.7931
  612MOL0     H80724   8.488   5.966   4.148  1.1881 -1.0163 -0.8768
  612MOL0     H80725   8.530   6.066   4.383  1.1346 -1.2355 -1.8574
  612MOL0     H80726   8.377   5.995   4.436  2.5171 -1.3581  0.4135
  612MOL0     H80727   8.418   6.186   4.205  1.7962  0.2297  1.0048
  612MOL0     H80728   8.259   6.123   4.255  0.5073 -0.5352 -1.0677
  612MOL0     H80729   8.312   6.228   4.487 -1.0407 -1.7650 -0.6314
  612MOL0     H80730   8.252   6.332   4.359 -0.3948  0.8692  0.5325
  612MOL0     H80731   8.551   6.299   4.421 -1.2106 -0.7931  1.2825
  612MOL0     H80732   8.465   6.440   4.476 -0.6478 -3.3942  3.5894
  612MOL0     H80733   8.517   6.389   4.177 -3.5347  1.0759 -0.4290
  612MOL0     H80734   8.388   6.475   4.231 -1.3501 -1.2860 -1.9926
  612MOL0     H80735   8.554   6.632   4.356 -5.3882 -2.2018  1.4657
  612MOL0     H80736   8.578   6.627   4.181  3.3979  1.3521 -0.3305
  612MOL0     H80737   8.789   6.530   4.485 -1.9182  0.2402 -0.2347
  612MOL0     H80738   9.084   6.373   4.409 -0.2508  0.2620  1.7103
  612MOL0     H80739   9.091   6.545   4.467 -0.9058  1.4748 -1.1186
  612MOL0     H80740   9.195   6.436   4.203  1.4491 -2.5495  1.7935
  612MOL0     H80741   9.289   6.486   4.345  0.7248  0.6889 -0.5004
  612MOL0     H80742   9.124   6.683   4.172  0.1724  2.6473  0.8432
  612MOL0     H80743   9.239   6.728   4.304  1.3936  1.7568 -2.5852
  612MOL0     H80744   9.351   6.774   4.124 -2.5786 -0.1638 -1.5718
  612MOL0     H80745   9.287   6.637   4.034  1.7637  3.4266 -1.6478
  612MOL0     H80746   9.669   6.460   4.177  0.7374 -1.2109 -0.4365
  612MOL0     H80747   9.874   6.490   4.067 -0.8424 -2.4876 -1.0325
  612MOL0     H80748   9.916   6.566   3.515 -0.5987 -1.7246 -1.6401
  612MOL0     H80749  10.042   6.618   3.310  0.0800 -0.3573 -0.4607
  612MOL0     H80750  10.434   6.743   3.415  1.0495  1.5669  0.3430
  612MOL0     H80751  10.392   6.905   3.364 -0.2866 -0.6619  3.7052
  612MOL0     H80752  10.466   6.872   3.143 -0.9596 -1.3610 -0.8842
  612MOL0     H80753  10.478   6.695   3.163 -1.7298  0.7143 -1.5050
  612MOL0     H80754  10.654   6.776   3.359  2.1082 -2.4746 -0.8207
  612MOL0     H80755  10.662   6.913   3.234 -2.6707 -0.4979 -3.0238
  612MOL0     H80756  10.688   6.611   3.177 -1.6922 -0.1678  0.0683
  612MOL0     H80757  10.694   6.762   3.069  2.0360 -1.5450  0.0840
  612MOL0     H80758  10.878   6.833   3.207 -2.1254 -1.0085 -0.1989
  612MOL0     H80759  10.923   6.711   3.096  1.6682  0.2667 -0.1618
  612MOL0     H80760  10.909   6.538   3.272  2.3583  0.6817  1.5232
  612MOL0     H80761  10.861   6.661   3.388 -0.4319  0.3809  0.7966
  612MOL0     H80762  11.122   6.624   3.233 -0.2226 -1.8290 -0.3930
  612MOL0     H80763  11.084   6.780   3.314 -1.5227 -0.2718  2.2088
  612MOL0     H80764  11.063   6.673   3.523  0.1697 -0.5408  0.6497
  612MOL0     H80765  11.232   6.632   3.457  0.2054 -1.4347  0.5887
  612MOL0     H80766  10.297   6.877   3.553 -0.5070 -0.1811  2.6330
  612MOL0     H80767  10.119   6.878   3.730 -1.2000  1.3568 -1.0016
  612MOL0     H80768   9.684   6.765   3.803  2.0913  1.1550  1.0653
  612MOL0     H80769   9.474   6.748   3.926 -2.1724 -4.3306 -0.7174
  612MOL0     H80770   8.629   5.555   4.327 -0.1927 -0.5512  0.8547
  612MOL0     H80771   8.763   5.355   4.274  1.7620  0.2862 -0.6301
  612MOL0     H80772   9.043   5.129   4.105  1.3521 -1.7038 -0.1921
  612MOL0     H80773   9.195   4.974   4.063 -1.1205  1.4344  1.2612
  612MOL0     H80774   9.301   4.730   4.058  1.4515 -2.3185 -0.3304
  612MOL0     H80775   9.327   4.862   3.928 -3.6532  0.9276  0.3430
  612MOL0     H80776   9.377   4.564   3.915 -2.5398  0.8843 -0.8614
  612MOL0     H80777   9.407   4.665   3.774 -4.2599  0.3839 -1.2260
  612MOL0     H80778   9.625   4.621   3.902  0.1020  0.9092 -1.2269
  612MOL0     H80779   9.550   4.706   4.037 -1.9882 -0.3513  0.4731
  612MOL0     H80780   9.603   4.832   3.761  2.6856  1.6249 -0.4609
  612MOL0     H80781   9.556   4.912   3.915  2.1045 -0.6027  3.0410
  612MOL0     H80782   9.947   4.919   3.996  0.5605 -0.9069 -0.8225
  612MOL0     H80783   8.904   4.758   3.807  0.9368 -4.5032  3.5397
  612MOL0     H80784   8.749   4.939   3.844 -1.7864  1.2143  3.1124
  613MOL0     O80785   6.288   1.774  10.300  0.4046  0.1217  0.0209
  613MOL0     C80786   6.217   1.847  10.231  0.5870 -0.2069  0.1080
  613MOL0     O80787   6.186   1.842  10.087 -0.3376 -0.2739 -0.1951
  613MOL0     C80788   6.231   1.742  10.010  0.9191  0.7689  0.1142
  613MOL0     C80789   6.249   1.766   9.876 -0.3615 -0.4892 -0.1709
  613MOL0     C80790   6.301   1.670   9.787 -0.4766 -0.7170 -0.6921
  613MOL0     C80791   6.336   1.536   9.832 -1.1495  0.2497  0.0486
  613MOL0     O80792   6.375   1.425   9.752 -0.3325 -0.4140  0.1862
  613MOL0     C80793   6.392   1.453   9.612  0.3117  0.0289 -0.9901
  613MOL0     C80794   6.441   1.330   9.535 -0.7678  0.0750  0.9375
  613MOL0     C80795   6.361   1.197   9.555 -0.9713  0.7080 -1.3356
  613MOL0     C80796   6.386   1.084   9.454  0.3066  0.2832  0.2227
  613MOL0     C80797   6.301   0.962   9.499  1.3644 -0.8616 -0.6844
  613MOL0     C80798   6.345   0.894   9.634 -0.1276 -0.5047 -0.3246
  613MOL0     C80799   6.479   0.812   9.615  0.1358 -0.5369  0.3787
  613MOL0     C80800   6.521   0.762   9.742 -0.2516  0.5091 -0.1173
  613MOL0     N80801   6.586   0.627   9.734  0.1842  0.6208  0.0475
  613MOL0     C80802   6.529   0.505   9.731  0.2489  0.2666 -0.0489
  613MOL0     C80803   6.629   0.417   9.726 -0.4861  0.8226 -0.2054
  613MOL0     C80804   6.605   0.267   9.721 -0.1035 -0.6529  0.5230
  613MOL0     C80805   6.724   0.196   9.780 -0.6067 -0.5683 -0.3467
  613MOL0     C80806   6.712   0.194   9.932  0.5731  0.4398  0.1733
  613MOL0     C80807   6.798   0.071   9.973  0.6171  0.1044 -0.0383
  613MOL0     O80808   6.814   0.072  10.122  0.3461  0.1381  0.6250
  613MOL0     C80809   6.712   0.068  10.208  0.8823 -0.1788  0.8805
  613MOL0     C80810   6.599  -0.019  10.191 -0.4848  0.5535 -0.4838
  613MOL0     C80811   6.499  -0.025  10.290  0.3335 -0.2036 -0.0636
  613MOL0     C80812   6.513   0.052  10.412 -0.2401  0.1440  0.4156
  613MOL0     C80813   6.411   0.060  10.517  0.4120  0.4012 -0.8019
  613MOL0     O80814   6.412   0.171  10.609  0.4389 -0.0210  1.0903
  613MOL0     C80815   6.305   0.189  10.687  0.6954  1.2471  0.9279
  613MOL0     C80816   6.273   0.097  10.787 -0.0933  0.6939 -0.4736
  613MOL0     C80817   6.170   0.114  10.877  0.9880 -1.1257  1.0522
  613MOL0     C80818   6.095   0.234  10.861  0.2999  0.3435 -0.3358
  613MOL0     O80819   5.980   0.256  10.938 -0.6601  0.3309 -1.2587
  613MOL0     C80820   6.009   0.227  11.076 -0.0016 -0.1900 -1.1060
  613MOL0     C80821   5.880   0.279  11.147 -0.4918 -0.3499  0.1147
  613MOL0     C80822   5.750   0.212  11.106  0.2284  1.0536  0.6300
  613MOL0     C80823   5.636   0.253  11.191  0.9109 -0.3552 -0.1289
  613MOL0     C80824   5.520   0.152  11.185 -0.1028  0.1966 -1.1459
  613MOL0     C80825   5.400   0.208  11.264  0.1762  0.7217 -0.3393
  613MOL0     C80826   5.272   0.126  11.241 -0.6839 -0.2407  1.0988
  613MOL0     C80827   5.172   0.175  11.342 -0.1153 -0.2939 -0.6834
  613MOL0    Cl80828   5.151   0.351  11.353 -0.3830 -0.2500 -0.1064
  613MOL0     C80829   6.123   0.323  10.763  0.8497 -0.2707 -0.7264
  613MOL0     C80830   6.228   0.302  10.675  0.2231 -1.1521  0.3392
  613MOL0     O80831   6.325  -0.025  10.522  0.0735 -0.9823 -0.2745
  613MOL0     C80832   6.633   0.135  10.422 -0.1665 -0.9901 -0.5815
  613MOL0     C80833   6.733   0.140  10.325  0.2009 -0.1448  0.0271
  613MOL0     N80834   6.750   0.494   9.712  0.2629 -0.4895 -0.1531
  613MOL0     N80835   6.720   0.616   9.721 -0.4567  0.5569 -0.1575
  613MOL0     C80836   6.308   1.510   9.967 -0.6213 -0.0535 -1.1203
  613MOL0     C80837   6.248   1.612  10.056 -0.5776  0.3994  0.4147
  613MOL0     C80838   6.165   1.965  10.298 -0.3420 -0.4645  0.1503
  613MOL0     C80839   6.200   1.989  10.437 -0.4962 -0.4325  0.0208
  613MOL0     C80840   6.143   2.095  10.508  0.5751  0.1864  0.2209
  613MOL0     C80841   6.050   2.176  10.437  0.1334  0.2956  0.3571
  613MOL0     O80842   5.982   2.275  10.504  0.3786  0.4931 -0.0723
  613MOL0     C80843   5.867   2.231  10.581 -0.4238  0.9046 -0.1852
  613MOL0     C80844   5.781   2.344  10.635 -1.2737  0.3955  0.7251
  613MOL0     C80845   5.846   2.435  10.747 -0.8633  0.6797 -0.7695
  613MOL0     C80846   5.864   2.385  10.888  0.3463 -0.3070 -0.2171
  613MOL0     C80847   5.734   2.365  10.955  0.5320  0.7443 -0.8955
  613MOL0     C80848   5.633   2.352  11.020 -0.3232  0.0061 -0.1933
  613MOL0     C80849   6.015   2.149  10.307 -1.1235 -0.1052  0.0845
  613MOL0     C80850   6.072   2.053  10.232 -0.5057  0.3832 -0.5204
  613MOL0     H80851   6.229   1.870   9.852 -2.8145 -1.0048 -0.6044
  613MOL0     H80852   6.318   1.696   9.684  1.5443  0.7929 -0.0472
  613MOL0     H80853   6.467   1.531   9.604  1.8570 -1.4012 -1.0000
  613MOL0     H80854   6.302   1.494   9.567  0.7538  4.3469  1.5297
  613MOL0     H80855   6.537   1.307   9.583 -1.5012  0.0455  2.4530
  613MOL0     H80856   6.444   1.352   9.428 -1.6666 -2.1539  0.3956
  613MOL0     H80857   6.255   1.221   9.543 -0.6058  2.6982 -0.8858
  613MOL0     H80858   6.385   1.167   9.657  1.1848  1.7086 -1.5137
  613MOL0     H80859   6.350   1.114   9.356 -0.3358 -0.9184  0.0757
  613MOL0     H80860   6.493   1.066   9.439  0.3070  1.4731 -1.4183
  613MOL0     H80861   6.302   0.891   9.415 -0.5896  2.8365 -4.2249
  613MOL0     H80862   6.196   0.990   9.514  1.3492  1.1054 -3.4888
  613MOL0     H80863   6.269   0.820   9.661 -0.6520 -0.5042 -1.7102
  613MOL0     H80864   6.357   0.958   9.722 -0.5661 -0.2299 -0.4597
  613MOL0     H80865   6.465   0.745   9.530 -0.0505  3.4410 -3.0807
  613MOL0     H80866   6.555   0.884   9.582  0.1698 -1.4188 -1.5937
  613MOL0     H80867   6.440   0.757   9.815  1.5474 -3.7151  1.9378
  613MOL0     H80868   6.593   0.839   9.769  1.2021  0.0697 -2.4961
  613MOL0     H80869   6.421   0.491   9.731 -0.0008  1.7712 -1.7939
  613MOL0     H80870   6.606   0.239   9.615 -1.0225 -0.1371  0.3663
  613MOL0     H80871   6.515   0.229   9.770  1.7401 -2.1973  2.8923
  613MOL0     H80872   6.813   0.254   9.753  0.8019 -1.9282  1.1447
  613MOL0     H80873   6.742   0.098   9.734  1.8898 -1.0303  1.3892
  613MOL0     H80874   6.755   0.286   9.973  1.1834  0.0072  0.5285
  613MOL0     H80875   6.611   0.168   9.964  1.1812 -3.7576 -0.7333
  613MOL0     H80876   6.884   0.061   9.906 -1.0368  0.7266 -2.3769
  613MOL0     H80877   6.741  -0.022   9.964  1.2905 -0.2196 -1.1557
  613MOL0     H80878   6.600  -0.079  10.100 -2.0434  1.2368 -0.9778
  613MOL0     H80879   6.411  -0.085  10.272 -0.3846  1.1586 -1.3190
  613MOL0     H80880   6.322   0.001  10.799 -2.0826 -0.2341  0.6577
  613MOL0     H80881   6.146   0.044  10.957  0.0841 -0.6862  1.1829
  613MOL0     H80882   6.090   0.283  11.123 -1.4310  0.4188  0.7662
  613MOL0     H80883   6.032   0.122  11.098 -0.3558  0.2734  1.8517
  613MOL0     H80884   5.861   0.386  11.129  2.0535  0.0958 -0.3500
  613MOL0     H80885   5.905   0.262  11.252 -0.2814 -0.8614 -0.0177
  613MOL0     H80886   5.753   0.103  11.106 -1.9763  0.9405  2.0201
  613MOL0     H80887   5.717   0.250  11.008 -1.5056 -0.5474  0.5346
  613MOL0     H80888   5.648   0.264  11.299 -2.7392 -1.4553  0.5414
  613MOL0     H80889   5.595   0.337  11.135  2.0538  0.0175 -0.4379
  613MOL0     H80890   5.549   0.069  11.250  0.7892  2.1662  1.1170
  613MOL0     H80891   5.495   0.118  11.084 -1.8290  1.4142 -1.1691
  613MOL0     H80892   5.385   0.308  11.223  2.7677  0.6577 -1.6765
  613MOL0     H80893   5.420   0.215  11.371 -2.1784 -4.3766  0.7677
  613MOL0     H80894   5.236   0.141  11.139  3.7989 -4.1307 -1.4654
  613MOL0     H80895   5.290   0.019  11.249  0.4187 -0.0501  1.3862
  613MOL0     H80896   5.198   0.140  11.443  0.2559 -2.7958 -1.5683
  613MOL0     H80897   5.073   0.132  11.324 -0.9388  1.1310  0.2229
  613MOL0     H80898   6.048   0.399  10.741 -0.7257 -1.7983 -0.8551
  613MOL0     H80899   6.261   0.371  10.598 -0.5181 -0.4163  0.6668
  613MOL0     H80900   6.652   0.194  10.512  0.6074  0.0768 -1.4200
  613MOL0     H80901   6.823   0.199  10.345  0.6626 -0.4663 -1.0231
  613MOL0     H80902   6.328   1.408   9.998 -0.0758  0.9334  2.2165
  613MOL0     H80903   6.235   1.575  10.157 -2.7614 -3.0186 -0.9059
  613MOL0     H80904   6.272   1.923  10.485 -0.3974  0.2085  0.7737
  613MOL0     H80905   6.166   2.107  10.614  0.0530  1.1733  0.2352
  613MOL0     H80906   5.906   2.169  10.662 -1.0378 -2.3980 -2.2027
  613MOL0     H80907   5.798   2.171  10.520 -2.8361  1.2566  2.0170
  613MOL0     H80908   5.761   2.415  10.555  1.9897  1.7644  0.9566
  613MOL0     H80909   5.686   2.307  10.675 -2.0212 -3.1176 -3.5121
  613MOL0     H80910   5.785   2.524  10.764 -1.2372  0.0899  1.1566
  613MOL0     H80911   5.943   2.471  10.713 -0.7099  0.2071 -0.8338
  613MOL0     H80912   5.923   2.293  10.893  0.4893 -0.3461 -1.9662
  613MOL0     H80913   5.922   2.457  10.946 -0.1449  1.5112 -1.8477
  613MOL0     H80914   5.546   2.346  11.083  0.3533 -3.1705  0.5848
  613MOL0     H80915   5.937   2.213  10.265 -0.8619  0.1848  0.0332
  613MOL0     H80916   6.056   2.051  10.124 -0.4763  3.6491 -0.6588
  614MOL0     O80917   2.832   9.714   7.196 -0.6253  1.2701 -0.4772
  614MOL0     C80918   2.916   9.808   7.189  0.3802 -0.7425 -0.6118
  614MOL0     O80919   3.055   9.795   7.181  0.0449  0.9907  0.6525
  614MOL0     C80920   3.113   9.668   7.180 -0.0578 -0.1387 -0.2737
  614MOL0     C80921   3.083   9.569   7.276 -0.1607 -0.8459 -0.0613
  614MOL0     C80922   3.156   9.453   7.281 -0.0913 -0.7573  0.2113
  614MOL0     C80923   3.268   9.435   7.204  0.0744  0.6994  0.2018
  614MOL0     O80924   3.345   9.322   7.227 -0.3428  0.2023  0.2094
  614MOL0     C80925   3.483   9.304   7.176  0.9623  0.2232  0.0501
  614MOL0     C80926   3.466   9.273   7.029  0.6571  0.2672  0.5360
  614MOL0     C80927   3.437   9.124   7.018  0.3149  0.0820  0.5016
  614MOL0     C80928   3.305   9.077   7.067  0.3194 -0.6784 -0.7488
  614MOL0     C80929   3.224   8.993   6.970 -0.0233  0.4738  0.9342
  614MOL0     C80930   3.098   8.923   7.031 -0.3491  0.1529 -0.8640
  614MOL0     C80931   2.984   9.029   7.060 -0.0841 -0.8194  0.5677
  614MOL0     C80932   2.849   8.961   7.064 -0.1703  0.6949  0.4069
  614MOL0     N80933   2.756   9.070   7.085 -0.2679  0.3652  0.4735
  614MOL0     C80934   2.730   9.138   7.205 -0.8142 -0.2626  1.2918
  614MOL0     C80935   2.624   9.214   7.179  0.1216 -0.2644 -0.2588
  614MOL0     C80936   2.557   9.303   7.277  0.4948 -0.4459 -0.1960
  614MOL0     C80937   2.650   9.386   7.366  0.0316 -0.4004 -0.5442
  614MOL0     C80938   2.571   9.480   7.466  0.8775  0.1965 -0.2217
  614MOL0     C80939   2.647   9.507   7.591  0.4491  0.1260  0.2153
  614MOL0     O80940   2.635   9.402   7.688  0.6884  0.3717  0.8458
  614MOL0     C80941   2.526   9.397   7.770 -0.1287 -0.1530 -0.5556
  614MOL0     C80942   2.444   9.508   7.809 -0.5441 -1.1088 -0.4240
  614MOL0     C80943   2.321   9.496   7.877  0.2305  0.3380 -1.2544
  614MOL0     C80944   2.286   9.373   7.929  0.4618 -0.7161 -0.5228
  614MOL0     C80945   2.163   9.348   8.022 -1.3817 -0.8042 -0.3095
  614MOL0     O80946   2.065   9.434   8.008  0.3381 -0.9212 -0.3187
  614MOL0     C80947   1.953   9.422   8.089 -0.0398  0.7463  0.6511
  614MOL0     C80948   1.860   9.329   8.042 -0.1205  0.8001 -0.8588
  614MOL0     C80949   1.744   9.311   8.126  0.8926  0.5292  0.1065
  614MOL0     C80950   1.747   9.364   8.256  1.0082 -0.8796  0.3727
  614MOL0     O80951   1.633   9.327   8.330  0.5993 -0.3282  0.7858
  614MOL0     C80952   1.620   9.362   8.470 -0.1247 -0.1374  0.2268
  614MOL0     C80953   1.547   9.494   8.464 -0.2808 -0.5082  0.0499
  614MOL0     C80954   1.482   9.536   8.599 -0.2250  0.0788 -0.1387
  614MOL0     C80955   1.358   9.445   8.631 -0.4714 -0.5295 -0.8319
  614MOL0     C80956   1.299   9.463   8.761  0.0311 -0.2728  0.2749
  614MOL0     C80957   1.207   9.353   8.818  0.1296 -0.1485 -0.2971
  614MOL0     C80958   1.121   9.399   8.939  0.6328 -1.1357 -0.0826
  614MOL0     C80959   1.034   9.285   9.000  0.4936  0.4033 -0.1016
  614MOL0    Cl80960   0.942   9.340   9.156  0.6916 -0.1167 -0.2644
  614MOL0     C80961   1.842   9.474   8.295 -0.5400  0.6077 -0.1889
  614MOL0     C80962   1.948   9.491   8.210 -0.5299 -0.5587 -0.3577
  614MOL0     O80963   2.173   9.252   8.102 -0.3916 -0.5103 -0.6028
  614MOL0     C80964   2.368   9.261   7.893  0.6736  0.3750 -1.0668
  614MOL0     C80965   2.481   9.274   7.811 -0.7509 -0.0034 -0.3336
  614MOL0     N80966   2.587   9.197   7.045 -0.6698  0.1471  0.9842
  614MOL0     N80967   2.667   9.104   6.990 -0.3508 -0.8384  0.3391
  614MOL0     C80968   3.314   9.535   7.117  0.4490  0.2719 -0.5504
  614MOL0     C80969   3.231   9.656   7.108 -0.2588  0.6986  0.5808
  614MOL0     C80970   2.863   9.952   7.196  0.1213  0.1906 -0.0025
  614MOL0     C80971   2.943  10.071   7.168  0.4265  0.6466 -0.7723
  614MOL0     C80972   2.881  10.193   7.144  0.1443  0.5331 -0.6296
  614MOL0     C80973   2.744  10.212   7.161  0.1248  0.3222  0.2200
  614MOL0     O80974   2.684  10.333   7.139  0.0527  0.3297  0.3335
  614MOL0     C80975   2.572  10.360   7.225 -0.1259  0.0199  0.2892
  614MOL0     C80976   2.528  10.504   7.191  0.6129 -0.8817 -0.0587
  614MOL0     C80977   2.648  10.600   7.214  0.3599 -0.6038  0.3027
  614MOL0     C80978   2.616  10.746   7.241  0.8263 -0.1662 -0.0672
  614MOL0     C80979   2.530  10.809   7.140 -1.0908 -0.1617 -0.1851
  614MOL0     C80980   2.465  10.869   7.059 -0.4703  0.0833 -0.6086
  614MOL0     C80981   2.669  10.098   7.200 -0.4101  0.7591  0.4898
  614MOL0     C80982   2.726   9.974   7.219 -0.9034 -0.0827 -0.5252
  614MOL0     H80983   2.993   9.572   7.337  0.3386  0.7444  0.6598
  614MOL0     H80984   3.121   9.374   7.346  0.3085  0.2606  1.7262
  614MOL0     H80985   3.549   9.225   7.214  3.3564  1.1165 -1.9705
  614MOL0     H80986   3.541   9.396   7.190  1.3955 -0.0716  0.2264
  614MOL0     H80987   3.564   9.296   6.985  0.9530  0.1413  1.1187
  614MOL0     H80988   3.386   9.331   6.981 -1.0014 -2.6455 -0.4453
  614MOL0     H80989   3.521   9.077   7.071  2.1459  1.1272 -1.3235
  614MOL0     H80990   3.435   9.088   6.915 -0.3659 -2.6495  1.3927
  614MOL0     H80991   3.324   9.034   7.166 -2.1149 -1.8519 -0.7295
  614MOL0     H80992   3.246   9.167   7.083  2.5043  0.2106  4.0564
  614MOL0     H80993   3.293   8.919   6.928 -0.3410 -0.2610  1.6801
  614MOL0     H80994   3.200   9.061   6.888 -2.7638 -1.0313  0.3655
  614MOL0     H80995   3.127   8.878   7.126 -2.5330  0.0737 -0.1723
  614MOL0     H80996   3.063   8.840   6.970 -0.7724 -0.7483  0.5626
  614MOL0     H80997   3.005   9.084   7.153  0.1173 -0.2108  0.1697
  614MOL0     H80998   2.987   9.101   6.978 -2.7092  1.1760  2.0462
  614MOL0     H80999   2.849   8.880   7.137 -0.9356 -0.0947 -0.4380
  614MOL0     H81000   2.836   8.905   6.971  1.5532  2.0271 -0.7123
  614MOL0     H81001   2.780   9.121   7.300 -2.1476 -0.9640  1.9002
  614MOL0     H81002   2.488   9.239   7.333 -1.9635 -1.2488 -3.7884
  614MOL0     H81003   2.487   9.372   7.232 -0.1341  0.3666  1.9021
  614MOL0     H81004   2.716   9.452   7.308 -0.0916 -1.8851 -2.4627
  614MOL0     H81005   2.716   9.316   7.418  0.8897 -0.6146 -1.8614
  614MOL0     H81006   2.544   9.578   7.425  1.1281  1.8129  3.1215
  614MOL0     H81007   2.473   9.438   7.490  0.0316  2.4593  0.5850
  614MOL0     H81008   2.626   9.604   7.636  2.1213 -0.8435  3.4249
  614MOL0     H81009   2.755   9.503   7.574  0.6680 -3.8144  1.3505
  614MOL0     H81010   2.475   9.610   7.789 -0.2327 -1.0463  0.3328
  614MOL0     H81011   2.251   9.578   7.890  0.0335 -0.0254  0.1336
  614MOL0     H81012   1.877   9.287   7.944 -1.2732 -1.3097 -0.2301
  614MOL0     H81013   1.669   9.239   8.096  3.0866 -1.4095 -1.0884
  614MOL0     H81014   1.718   9.355   8.516 -0.6154 -1.1742  1.1673
  614MOL0     H81015   1.560   9.286   8.522 -1.3916  0.3137 -0.5290
  614MOL0     H81016   1.480   9.483   8.378  1.1446 -0.5055 -1.0975
  614MOL0     H81017   1.614   9.578   8.444 -1.3569  0.0520 -1.3968
  614MOL0     H81018   1.441   9.634   8.573 -1.5824 -0.3574  0.2677
  614MOL0     H81019   1.559   9.549   8.676 -2.8031  2.7836  2.1906
  614MOL0     H81020   1.279   9.467   8.559 -1.2030 -3.7472 -1.1684
  614MOL0     H81021   1.388   9.340   8.623  0.6485 -0.3102  0.2676
  614MOL0     H81022   1.258   9.565   8.766 -1.2149 -0.5048 -3.0777
  614MOL0     H81023   1.367   9.476   8.846  0.3039  2.2119 -0.2228
  614MOL0     H81024   1.272   9.267   8.838 -1.6326 -1.7569 -1.1742
  614MOL0     H81025   1.136   9.317   8.742  0.8037 -1.2463 -0.4289
  614MOL0     H81026   1.190   9.438   9.015 -2.2901  2.2635  1.1055
  614MOL0     H81027   1.059   9.487   8.922  3.9946  1.1248 -1.8983
  614MOL0     H81028   1.100   9.200   9.016 -0.8446 -0.4285  1.2438
  614MOL0     H81029   0.959   9.248   8.930  0.7652  1.0347 -0.7391
  614MOL0     H81030   1.844   9.514   8.396  1.9690  0.1450  0.0032
  614MOL0     H81031   2.028   9.563   8.226  1.0555 -2.5560  1.3904
  614MOL0     H81032   2.348   9.160   7.928  3.9625 -0.9839 -2.6550
  614MOL0     H81033   2.540   9.187   7.782  0.1815  1.1875 -2.1864
  614MOL0     H81034   3.398   9.525   7.049 -1.9212 -1.5376 -3.4961
  614MOL0     H81035   3.258   9.738   7.041  1.1712  0.0844  0.3713
  614MOL0     H81036   3.049  10.052   7.160  0.9566  2.3122  1.2614
  614MOL0     H81037   2.933  10.283   7.114  0.5105  1.2891  2.0378
  614MOL0     H81038   2.597  10.347   7.331 -4.4165  2.2422  1.8005
  614MOL0     H81039   2.490  10.291   7.203 -0.9607  1.0735  0.0651
  614MOL0     H81040   2.493  10.513   7.087  2.9600 -1.2095 -0.9365
  614MOL0     H81041   2.439  10.523   7.252 -1.0212  1.3943 -2.8477
  614MOL0     H81042   2.725  10.592   7.137  0.3620 -0.9365  0.3383
  614MOL0     H81043   2.691  10.552   7.302  1.1746 -3.8013 -1.6728
  614MOL0     H81044   2.583  10.754   7.344  2.7190 -1.1988  0.6643
  614MOL0     H81045   2.705  10.810   7.241  0.9657 -0.3301 -1.3840
  614MOL0     H81046   2.409  10.929   6.990 -2.0576 -0.3361  0.2750
  614MOL0     H81047   2.561  10.104   7.209 -0.2709  1.8443  1.7466
  614MOL0     H81048   2.656   9.897   7.250 -1.4927  0.8715  0.6096
  615MOL0     O81049   4.912   7.299   2.185 -0.1764  0.8102  0.5431
  615MOL0     C81050   4.848   7.390   2.222 -0.4473  0.4121 -0.5512
  615MOL0     O81051   4.709   7.382   2.250 -0.1750  0.8210  1.0428
  615MOL0     C81052   4.628   7.286   2.194  0.7402 -0.4979  1.1599
  615MOL0     C81053   4.631   7.156   2.228  0.0494  0.4611 -0.0619
  615MOL0     C81054   4.537   7.071   2.175  0.0707  0.3706  0.0784
  615MOL0     C81055   4.441   7.121   2.082 -0.0419  0.6043  0.5112
  615MOL0     O81056   4.326   7.058   2.044 -0.2260 -0.0230  1.0794
  615MOL0     C81057   4.330   6.911   2.006  0.2024 -0.8423 -0.5056
  615MOL0     C81058   4.257   6.815   2.101 -0.6404 -0.3617 -0.7887
  615MOL0     C81059   4.172   6.711   2.019  0.7483 -0.0017  0.8573
  615MOL0     C81060   4.142   6.571   2.080 -0.0031 -0.9056 -0.1582
  615MOL0     C81061   4.135   6.459   1.985 -0.4271 -0.6877  0.6897
  615MOL0     C81062   4.109   6.337   2.063  0.2162  0.3570 -0.6601
  615MOL0     C81063   4.133   6.219   1.976  0.2996 -0.1789 -0.2827
  615MOL0     C81064   4.109   6.095   2.064 -0.4000 -1.0852 -0.9199
  615MOL0     N81065   4.149   5.978   1.985  0.0680  0.3262  0.2283
  615MOL0     C81066   4.113   5.944   1.854 -0.1821  0.1741  0.7628
  615MOL0     C81067   4.197   5.839   1.828  0.6446 -0.2153 -1.0713
  615MOL0     C81068   4.202   5.750   1.713  0.5520 -0.0481 -0.2721
  615MOL0     C81069   4.210   5.818   1.573 -0.2274 -0.2934 -0.2734
  615MOL0     C81070   4.240   5.733   1.450  0.3066 -0.4375  0.0226
  615MOL0     C81071   4.127   5.626   1.424  0.5297 -1.2156 -0.1442
  615MOL0     O81072   4.146   5.559   1.300  0.4698  0.3140 -0.3537
  615MOL0     C81073   4.233   5.456   1.302  0.0711 -0.5108  0.8191
  615MOL0     C81074   4.262   5.398   1.177  0.2820 -0.4823 -0.0129
  615MOL0     C81075   4.365   5.300   1.166 -0.2332 -0.7584  0.1558
  615MOL0     C81076   4.442   5.256   1.271 -0.0469  0.4226 -0.6672
  615MOL0     C81077   4.564   5.161   1.254 -0.3970 -0.7743 -1.1366
  615MOL0     O81078   4.633   5.154   1.371 -0.2161  0.7820 -0.2958
  615MOL0     C81079   4.729   5.055   1.365  0.3166  0.3579  1.3058
  615MOL0     C81080   4.868   5.065   1.361  0.2264  0.1193  0.5045
  615MOL0     C81081   4.956   4.966   1.336 -0.0801  0.4885 -0.2850
  615MOL0     C81082   4.910   4.835   1.321  0.6173 -0.0846  0.8091
  615MOL0     O81083   4.992   4.733   1.282 -0.4392  0.2024  0.4115
  615MOL0     C81084   4.941   4.597   1.260 -0.1457 -1.0582  0.0037
  615MOL0     C81085   5.069   4.532   1.207 -0.3891 -0.2867  0.6862
  615MOL0     C81086   5.114   4.579   1.070  0.3252 -0.1610 -1.4492
  615MOL0     C81087   5.192   4.467   0.995  0.3512  0.0427 -0.8335
  615MOL0     C81088   5.325   4.436   1.078 -0.1056 -0.5934  0.7534
  615MOL0     C81089   5.440   4.389   0.981 -0.3509 -0.6554  0.0135
  615MOL0     C81090   5.561   4.325   1.051 -0.4334 -0.2979 -0.4526
  615MOL0     C81091   5.637   4.421   1.141  0.1157 -0.4465 -0.2593
  615MOL0    Cl81092   5.731   4.540   1.039  0.8125 -0.0153 -0.3992
  615MOL0     C81093   4.772   4.815   1.338 -0.5909 -0.6898 -0.9287
  615MOL0     C81094   4.686   4.921   1.357 -0.3184  0.7787 -0.5787
  615MOL0     O81095   4.588   5.096   1.151  0.3396  0.2793 -0.3963
  615MOL0     C81096   4.401   5.303   1.399 -1.1080 -0.6674  0.3816
  615MOL0     C81097   4.297   5.401   1.407  0.0777 -0.0873  0.5545
  615MOL0     N81098   4.284   5.822   1.936 -0.1657 -0.0949  0.5435
  615MOL0     N81099   4.252   5.898   2.032 -0.0403  0.1036 -0.0696
  615MOL0     C81100   4.436   7.256   2.048  0.0919  0.0867 -0.1601
  615MOL0     C81101   4.541   7.343   2.105  0.1614 -0.5631  0.7510
  615MOL0     C81102   4.919   7.524   2.235 -0.2958  0.7909  0.1998
  615MOL0     C81103   5.040   7.538   2.176  0.7464  0.3076 -0.1168
  615MOL0     C81104   5.126   7.642   2.205 -0.1406  0.1625 -0.0214
  615MOL0     C81105   5.086   7.748   2.289 -0.1940  0.6336  0.7488
  615MOL0     O81106   5.176   7.834   2.352 -0.1833  0.0477 -0.0461
  615MOL0     C81107   5.313   7.853   2.320  0.3936 -0.2647  0.1483
  615MOL0     C81108   5.393   7.732   2.351  0.5895 -0.1103  0.3500
  615MOL0     C81109   5.501   7.742   2.471  0.7106  0.1583  0.7504
  615MOL0     C81110   5.606   7.859   2.456 -0.1312  0.5685 -0.3375
  615MOL0     C81111   5.567   7.997   2.472  0.1342 -0.5941  0.1672
  615MOL0     C81112   5.567   8.118   2.492  0.2513 -0.4642  0.1063
  615MOL0     C81113   4.951   7.752   2.335  1.4103  0.5510 -0.5715
  615MOL0     C81114   4.872   7.637   2.306  0.1422  0.5918 -0.2407
  615MOL0     H81115   4.689   7.108   2.306 -0.9645 -2.7741 -1.1484
  615MOL0     H81116   4.527   6.965   2.198 -1.8259  0.4347 -0.2643
  615MOL0     H81117   4.431   6.877   1.983 -0.0456 -3.0403  1.3436
  615MOL0     H81118   4.284   6.901   1.907 -0.4199 -0.9320 -0.2157
  615MOL0     H81119   4.188   6.867   2.169  1.5206  2.9257 -0.8546
  615MOL0     H81120   4.331   6.765   2.164 -0.3916  1.1280  0.1491
  615MOL0     H81121   4.252   6.683   1.949 -0.4151  0.9396 -0.9389
  615MOL0     H81122   4.093   6.756   1.957  2.2839  0.3346 -0.9629
  615MOL0     H81123   4.212   6.549   2.161 -0.9574 -1.9654  0.4064
  615MOL0     H81124   4.040   6.580   2.121  0.3846  0.1907  0.6174
  615MOL0     H81125   4.237   6.440   1.952 -0.8882 -1.2486 -0.4445
  615MOL0     H81126   4.068   6.475   1.901  1.7784 -0.7522 -1.1704
  615MOL0     H81127   4.008   6.330   2.105  1.6091 -0.9821  2.8973
  615MOL0     H81128   4.179   6.327   2.147 -2.0614  2.1515  1.5920
  615MOL0     H81129   4.081   6.210   1.879 -1.7051 -1.3272  0.8364
  615MOL0     H81130   4.237   6.231   1.942  1.5956 -1.6964  2.8461
  615MOL0     H81131   4.008   6.092   2.105  0.0994  0.8839  0.6227
  615MOL0     H81132   4.168   6.098   2.155  1.8660 -2.0698 -2.2642
  615MOL0     H81133   4.036   5.990   1.792 -1.3507  0.6029  2.4563
  615MOL0     H81134   4.111   5.689   1.712  0.3747  0.1698 -2.5394
  615MOL0     H81135   4.276   5.670   1.726 -0.7329 -2.3130 -4.9591
  615MOL0     H81136   4.279   5.903   1.582 -1.0932  0.3449  0.4859
  615MOL0     H81137   4.114   5.869   1.574  0.6266  1.4353  1.6771
  615MOL0     H81138   4.255   5.790   1.358  0.2007 -1.0164 -0.3570
  615MOL0     H81139   4.337   5.684   1.463 -1.3719 -3.4865  2.5244
  615MOL0     H81140   4.034   5.683   1.433  0.1222 -1.9800  0.6572
  615MOL0     H81141   4.117   5.552   1.505 -0.2948 -0.2752  0.6400
  615MOL0     H81142   4.205   5.425   1.088 -2.0539  0.0616  1.5490
  615MOL0     H81143   4.374   5.255   1.068 -2.5129 -1.5028  0.2373
  615MOL0     H81144   4.926   5.156   1.363  0.2995  0.0695  0.7182
  615MOL0     H81145   5.060   4.994   1.340 -0.1207  0.7457 -0.9653
  615MOL0     H81146   4.863   4.613   1.185  0.8247  0.1958 -0.8021
  615MOL0     H81147   4.913   4.547   1.353 -1.6612 -1.2012 -0.5136
  615MOL0     H81148   5.048   4.425   1.197  1.3335 -1.1752  4.6700
  615MOL0     H81149   5.151   4.541   1.278  0.1098  0.3474  0.0364
  615MOL0     H81150   5.176   4.669   1.075  0.9350 -0.6515  0.7031
  615MOL0     H81151   5.030   4.601   1.003  1.3561  0.5195 -2.5691
  615MOL0     H81152   5.131   4.378   0.983 -0.3237  0.0264  1.9914
  615MOL0     H81153   5.212   4.506   0.895  0.6473 -1.0940 -1.2300
  615MOL0     H81154   5.301   4.347   1.138 -3.5712  0.4087  1.1100
  615MOL0     H81155   5.344   4.521   1.145  0.3800  1.3294 -1.6686
  615MOL0     H81156   5.459   4.480   0.923 -1.7561  1.5390  2.7613
  615MOL0     H81157   5.403   4.318   0.907 -3.2014 -3.2943  3.6259
  615MOL0     H81158   5.522   4.241   1.109 -1.4713 -0.9028 -1.9508
  615MOL0     H81159   5.623   4.278   0.974 -1.6837  2.3866 -3.3218
  615MOL0     H81160   5.702   4.356   1.201 -0.2514 -1.8723 -1.3316
  615MOL0     H81161   5.571   4.482   1.203 -0.7798 -2.0016  0.3824
  615MOL0     H81162   4.721   4.722   1.319 -1.4167 -0.9936  2.2392
  615MOL0     H81163   4.584   4.887   1.371  0.7439 -1.6226  2.9471
  615MOL0     H81164   4.441   5.280   1.497  1.7620  1.6702 -0.0852
  615MOL0     H81165   4.269   5.433   1.507 -0.7865 -0.8653  0.5801
  615MOL0     H81166   4.365   7.289   1.974  3.1479  2.0966 -2.4547
  615MOL0     H81167   4.538   7.445   2.069 -0.5204 -0.8722 -0.1253
  615MOL0     H81168   5.072   7.461   2.106 -2.6446  0.1131 -1.6586
  615MOL0     H81169   5.230   7.626   2.177  0.5476 -0.8596  2.7105
  615MOL0     H81170   5.347   7.949   2.360  0.6328  0.0367 -0.7553
  615MOL0     H81171   5.315   7.877   2.213 -1.7279 -0.0210  0.1144
  615MOL0     H81172   5.318   7.658   2.379  1.3237 -0.0478  2.7457
  615MOL0     H81173   5.445   7.696   2.262  0.3304  0.2700  0.0368
  615MOL0     H81174   5.553   7.646   2.460 -0.7142 -0.4265 -1.8095
  615MOL0     H81175   5.439   7.741   2.561 -1.8822 -0.0016 -0.8912
  615MOL0     H81176   5.681   7.831   2.532 -3.4898 -2.7911  2.1148
  615MOL0     H81177   5.647   7.854   2.355  0.2516  1.5240 -0.2396
  615MOL0     H81178   5.577   8.221   2.522 -1.5516 -0.6409  1.5050
  615MOL0     H81179   4.907   7.825   2.403  0.5565 -1.6531  1.3662
  615MOL0     H81180   4.773   7.644   2.351 -0.4080  1.5464 -1.5275
  616MOL0     O81181   4.698   1.856   7.829 -0.2455  0.5758  0.2597
  616MOL0     C81182   4.690   1.973   7.866 -0.2287 -0.1347  0.8201
  616MOL0     O81183   4.760   2.070   7.801  0.0638  0.9043  1.1235
  616MOL0     C81184   4.866   2.026   7.719 -0.1005  0.0726 -0.4248
  616MOL0     C81185   4.881   2.080   7.589  0.6296  1.1481  0.6573
  616MOL0     C81186   4.986   2.064   7.507 -0.8406  0.4750  0.6139
  616MOL0     C81187   5.096   1.990   7.562 -0.0932 -0.7817  0.0558
  616MOL0     O81188   5.207   1.955   7.495 -0.2474  0.0239  0.6665
  616MOL0     C81189   5.223   2.002   7.360  0.4987  0.6919  0.4785
  616MOL0     C81190   5.300   1.890   7.283  0.0737  0.6785  0.5699
  616MOL0     C81191   5.444   1.888   7.315  0.4337 -0.2120 -0.6504
  616MOL0     C81192   5.532   1.812   7.226 -0.4884  1.3594  0.8196
  616MOL0     C81193   5.672   1.795   7.290  0.2376 -0.6757  0.0800
  616MOL0     C81194   5.755   1.922   7.304 -0.2645 -0.1490  0.7662
  616MOL0     C81195   5.814   1.968   7.161  1.2089 -0.2972  0.1795
  616MOL0     C81196   5.843   2.115   7.157  1.3753  1.3495  0.2538
  616MOL0     N81197   5.834   2.169   7.021 -0.0159  0.1622  0.4196
  616MOL0     C81198   5.924   2.139   6.921  0.2049 -0.3081 -0.7588
  616MOL0     C81199   5.894   2.231   6.821 -0.0315  1.0062  0.5313
  616MOL0     C81200   5.994   2.247   6.705 -0.5639  0.2587 -0.5164
  616MOL0     C81201   5.945   2.338   6.595  0.1510  0.2612  0.2298
  616MOL0     C81202   6.017   2.341   6.467 -0.6520 -0.1961  0.9986
  616MOL0     C81203   5.961   2.258   6.354  0.4882 -0.1338 -0.2700
  616MOL0     O81204   5.973   2.124   6.388 -0.5178  0.2315 -0.1966
  616MOL0     C81205   5.905   2.019   6.325  0.4537 -0.1584 -0.7990
  616MOL0     C81206   5.938   1.888   6.377  0.4060 -0.5478  0.4017
  616MOL0     C81207   5.889   1.768   6.332  0.7815 -1.0640  1.4855
  616MOL0     C81208   5.806   1.775   6.217  0.5091  0.6335  0.1344
  616MOL0     C81209   5.743   1.652   6.163 -1.0293 -0.0893 -0.3433
  616MOL0     O81210   5.799   1.528   6.167 -0.3895 -0.8487 -0.1531
  616MOL0     C81211   5.735   1.411   6.120 -1.0044 -0.0261 -0.1596
  616MOL0     C81212   5.672   1.328   6.208 -0.8312 -0.6245 -0.1300
  616MOL0     C81213   5.618   1.206   6.168 -0.1866 -0.0535  0.6316
  616MOL0     C81214   5.640   1.164   6.036 -0.5202  0.0717  0.5801
  616MOL0     O81215   5.610   1.040   5.986 -0.2539  0.7102  0.0827
  616MOL0     C81216   5.548   0.940   6.073  0.1723  0.0279  0.3488
  616MOL0     C81217   5.506   0.811   6.018  0.8514 -0.0246  0.2720
  616MOL0     C81218   5.379   0.831   5.940  0.4269 -0.2062  0.5058
  616MOL0     C81219   5.334   0.689   5.897 -0.7049  0.3314  0.1672
  616MOL0     C81220   5.200   0.699   5.828 -0.1945 -0.3117 -0.2025
  616MOL0     C81221   5.118   0.571   5.822  1.2199 -0.1024  0.1010
  616MOL0     C81222   5.191   0.450   5.757  1.3716  1.1739 -0.5722
  616MOL0     C81223   5.100   0.318   5.760 -0.2191 -0.1099  0.1205
  616MOL0    Cl81224   5.063   0.263   5.924 -0.1220 -0.2093  0.4088
  616MOL0     C81225   5.715   1.248   5.954 -0.4528 -0.1999 -0.1044
  616MOL0     C81226   5.756   1.371   5.988  0.6892 -0.0331  0.2972
  616MOL0     O81227   5.623   1.676   6.146  0.1188  0.5095 -0.9924
  616MOL0     C81228   5.775   1.901   6.159 -0.1936 -0.2641 -1.0023
  616MOL0     C81229   5.826   2.022   6.215 -0.3117  0.1203  1.0690
  616MOL0     N81230   5.791   2.306   6.854  0.6780 -0.1333 -0.3332
  616MOL0     N81231   5.755   2.266   6.976 -0.0584  0.4276 -0.2662
  616MOL0     C81232   5.096   1.950   7.696 -0.0227  0.2048 -0.6658
  616MOL0     C81233   4.978   1.966   7.777 -0.4186  0.7030  0.6422
  616MOL0     C81234   4.579   2.005   7.959 -0.3230 -0.0434  0.7966
  616MOL0     C81235   4.476   1.918   8.008 -0.1386 -0.1722 -0.3578
  616MOL0     C81236   4.368   1.964   8.081  0.3687  0.3552 -0.1381
  616MOL0     C81237   4.365   2.097   8.122  0.4515  0.3300  0.2483
  616MOL0     O81238   4.259   2.152   8.193 -0.0859  0.0212  0.0055
  616MOL0     C81239   4.126   2.118   8.161  0.2260 -0.6161 -0.5655
  616MOL0     C81240   4.079   2.203   8.040  0.0980 -0.0209  1.6358
  616MOL0     C81241   4.037   2.349   8.062  0.6535  1.0207 -0.0782
  616MOL0     C81242   4.129   2.444   8.129  0.0715 -0.2142  0.0408
  616MOL0     C81243   4.242   2.458   8.043 -0.8978  0.4856 -0.2834
  616MOL0     C81244   4.334   2.475   7.969  0.0756 -0.9979  0.7374
  616MOL0     C81245   4.470   2.182   8.087 -0.6438 -0.9127  1.0275
  616MOL0     C81246   4.577   2.141   8.014 -0.6272 -0.4049  0.2634
  616MOL0     H81247   4.804   2.140   7.542  0.5865 -1.3066 -2.7191
  616MOL0     H81248   5.000   2.111   7.410 -0.7516 -0.4387  0.1716
  616MOL0     H81249   5.284   2.093   7.363  0.3707  0.7828  0.3129
  616MOL0     H81250   5.135   2.016   7.297 -0.3397 -3.8674  0.3264
  616MOL0     H81251   5.294   1.892   7.173  0.8160 -1.3309  0.4473
  616MOL0     H81252   5.258   1.796   7.320  2.8277 -0.0459  2.1587
  616MOL0     H81253   5.462   1.844   7.414 -0.0726  2.6212  0.8097
  616MOL0     H81254   5.481   1.991   7.308  1.3120 -0.2936  1.8904
  616MOL0     H81255   5.492   1.711   7.215  1.5174  0.7438 -1.8086
  616MOL0     H81256   5.547   1.864   7.131  2.4694  1.8408  1.4600
  616MOL0     H81257   5.733   1.717   7.243  1.9569  0.1572  0.8238
  616MOL0     H81258   5.649   1.754   7.389 -0.2271  0.1597  0.3277
  616MOL0     H81259   5.830   1.912   7.382  0.5843  0.8910  0.1215
  616MOL0     H81260   5.695   2.008   7.336  2.8679  2.1182  1.0363
  616MOL0     H81261   5.914   1.927   7.141  0.3539 -1.1563 -3.0017
  616MOL0     H81262   5.742   1.941   7.083 -2.8529 -0.2724  3.5815
  616MOL0     H81263   5.944   2.126   7.199  1.7266 -3.3335  1.1287
  616MOL0     H81264   5.778   2.170   7.226  1.0468 -0.4121  1.3965
  616MOL0     H81265   6.006   2.068   6.927 -1.7904 -2.6120  2.8465
  616MOL0     H81266   6.002   2.147   6.660  2.1127  1.4346 -2.9649
  616MOL0     H81267   6.088   2.286   6.747  0.4473 -0.8914 -1.6090
  616MOL0     H81268   5.959   2.441   6.630 -1.3043 -0.5705  3.7285
  616MOL0     H81269   5.836   2.327   6.590  0.1215  0.7174 -0.2141
  616MOL0     H81270   6.021   2.445   6.434 -0.3075 -1.0952 -2.0996
  616MOL0     H81271   6.119   2.312   6.493 -0.6522  0.0065  1.2288
  616MOL0     H81272   6.006   2.283   6.257 -0.6993 -0.3404 -0.8879
  616MOL0     H81273   5.856   2.283   6.342  0.4366  0.7646  1.7290
  616MOL0     H81274   5.997   1.894   6.468  1.4286  2.2645 -0.3367
  616MOL0     H81275   5.909   1.676   6.387  2.5202 -1.0729  0.9055
  616MOL0     H81276   5.676   1.374   6.306  0.9493 -1.3953  0.1894
  616MOL0     H81277   5.580   1.131   6.236  1.7465 -0.1926  1.6396
  616MOL0     H81278   5.451   0.979   6.104 -0.2357  1.1055 -2.0611
  616MOL0     H81279   5.596   0.917   6.169  1.1734 -2.0007 -0.5810
  616MOL0     H81280   5.498   0.743   6.103 -1.1966 -1.8866 -1.2897
  616MOL0     H81281   5.587   0.768   5.957  1.6517 -1.2491  2.1043
  616MOL0     H81282   5.387   0.909   5.864 -0.1150  0.7484  1.4068
  616MOL0     H81283   5.306   0.864   6.013 -0.7001  0.1163 -0.7295
  616MOL0     H81284   5.418   0.646   5.841  1.3368  1.1620  2.4298
  616MOL0     H81285   5.317   0.622   5.982  0.8408 -4.1672 -2.7151
  616MOL0     H81286   5.213   0.733   5.725  1.8379 -0.7904 -0.1445
  616MOL0     H81287   5.148   0.783   5.874 -1.4322 -0.7977 -0.6897
  616MOL0     H81288   5.025   0.597   5.771  0.3465 -3.9170 -0.5462
  616MOL0     H81289   5.101   0.551   5.928  1.2525  3.9825  1.0363
  616MOL0     H81290   5.212   0.474   5.652 -1.5395  0.4842 -1.3967
  616MOL0     H81291   5.286   0.421   5.804 -2.1015 -4.7341  4.2871
  616MOL0     H81292   5.148   0.231   5.714  4.1826  2.0478  0.0677
  616MOL0     H81293   5.010   0.341   5.703 -0.7653 -4.1635 -0.9373
  616MOL0     H81294   5.752   1.205   5.861  2.9533  0.6949  0.6755
  616MOL0     H81295   5.816   1.427   5.918  0.7559  0.5340  0.8028
  616MOL0     H81296   5.706   1.901   6.075 -1.3009 -1.8346 -0.1629
  616MOL0     H81297   5.800   2.115   6.166 -1.2455 -0.4782  0.4027
  616MOL0     H81298   5.178   1.887   7.727 -1.1434 -1.6237 -1.2396
  616MOL0     H81299   4.978   1.938   7.882 -0.0299  0.6656  0.6329
  616MOL0     H81300   4.463   1.821   7.961 -1.0810 -0.5560  0.6534
  616MOL0     H81301   4.296   1.885   8.104  0.7415  0.1092  0.2066
  616MOL0     H81302   4.054   2.147   8.239 -2.2981  0.9366 -3.2849
  616MOL0     H81303   4.106   2.012   8.144 -4.8660  0.0112 -0.1785
  616MOL0     H81304   4.155   2.213   7.963  0.2080  0.9154  1.8579
  616MOL0     H81305   3.994   2.157   7.989  0.3333 -0.7953  1.9235
  616MOL0     H81306   3.948   2.343   8.126  0.7986  0.6567  0.0933
  616MOL0     H81307   4.001   2.379   7.964  0.0565  1.0578  0.1446
  616MOL0     H81308   4.076   2.536   8.157  0.5845  0.3527 -0.8000
  616MOL0     H81309   4.164   2.395   8.220 -1.7453  1.5814  1.8345
  616MOL0     H81310   4.418   2.502   7.908 -0.9636 -1.4710 -0.9520
  616MOL0     H81311   4.474   2.287   8.113  2.8079  0.0630 -2.5356
  616MOL0     H81312   4.631   2.229   7.982 -5.8306  3.3174  0.4279
  617MOL0     O81313   9.162   6.871   1.318 -0.2378 -0.4384  0.0828
  617MOL0     C81314   9.124   6.981   1.299  0.0336 -0.0736 -0.3506
  617MOL0     O81315   9.139   7.094   1.389  0.0866  0.9427 -0.0890
  617MOL0     C81316   9.168   7.059   1.528 -0.4272 -0.5178 -0.1110
  617MOL0     C81317   9.293   7.096   1.584 -0.7085  0.1172  0.6832
  617MOL0     C81318   9.334   7.049   1.710  0.7099 -0.1815 -0.2771
  617MOL0     C81319   9.244   6.969   1.785 -0.9096 -0.2508 -1.1376
  617MOL0     O81320   9.275   6.939   1.916  0.1795 -0.2465  0.0316
  617MOL0     C81321   9.317   6.804   1.946  0.7214 -0.9113  0.7354
  617MOL0     C81322   9.430   6.790   2.045 -0.2095 -0.0607  0.6926
  617MOL0     C81323   9.467   6.643   2.084 -0.9268 -0.4479 -0.2340
  617MOL0     C81324   9.597   6.641   2.170 -0.0493  0.1016  0.2949
  617MOL0     C81325   9.643   6.502   2.222  0.0157  0.7317 -0.7318
  617MOL0     C81326   9.691   6.419   2.100  0.1799 -0.2844 -0.4889
  617MOL0     C81327   9.783   6.304   2.143 -0.5971  0.3690 -0.8234
  617MOL0     C81328   9.804   6.201   2.032  0.3428 -0.0384 -1.0877
  617MOL0     N81329   9.865   6.264   1.908 -0.5960 -0.1831 -0.1120
  617MOL0     C81330   9.820   6.265   1.771 -0.3902 -0.3237 -0.1071
  617MOL0     C81331   9.924   6.322   1.706 -0.4841 -1.3530  1.0089
  617MOL0     C81332   9.942   6.336   1.556  0.6451 -0.0521 -0.9442
  617MOL0     C81333   9.901   6.464   1.486  0.4345  0.0128 -0.2086
  617MOL0     C81334   9.826   6.443   1.355 -0.7070  0.7947  0.2656
  617MOL0     C81335   9.916   6.401   1.232 -0.1421  0.0489  1.1175
  617MOL0     O81336   9.964   6.263   1.237 -0.5152 -0.4053 -0.4112
  617MOL0     C81337  10.039   6.217   1.135  0.4229 -0.4956  0.9809
  617MOL0     C81338  10.110   6.287   1.038 -0.0845 -0.3150 -0.4423
  617MOL0     C81339  10.200   6.235   0.951 -0.8319  0.2445 -0.1795
  617MOL0     C81340  10.224   6.095   0.962  0.0627  0.5698  0.4840
  617MOL0     C81341  10.341   6.039   0.882 -0.0353 -0.1108  0.0195
  617MOL0     O81342  10.427   6.132   0.825 -0.1885  0.7307  0.3381
  617MOL0     C81343  10.539   6.076   0.776  0.7425  0.7968  0.7984
  617MOL0     C81344  10.654   6.099   0.844 -0.3272 -0.1711 -0.6666
  617MOL0     C81345  10.768   6.038   0.804 -0.0668 -0.9146 -0.3467
  617MOL0     C81346  10.781   5.985   0.679 -0.3650 -0.6305  0.0088
  617MOL0     O81347  10.909   5.955   0.643 -0.1406 -0.5225  0.5441
  617MOL0     C81348  10.940   5.947   0.501 -0.7212  0.6236  0.7653
  617MOL0     C81349  11.071   5.877   0.484  0.5928  0.4493 -0.2598
  617MOL0     C81350  11.188   5.975   0.443  0.2008  0.6492  0.2295
  617MOL0     C81351  11.328   5.924   0.468 -0.3903  0.5155  0.0664
  617MOL0     C81352  11.432   6.031   0.416  0.1014 -0.3369 -0.2502
  617MOL0     C81353  11.579   5.990   0.455  0.5187  0.7181  0.5548
  617MOL0     C81354  11.649   5.939   0.323 -0.5559  0.7631 -0.5123
  617MOL0     C81355  11.746   5.824   0.350 -0.1210 -1.0708 -1.0677
  617MOL0    Cl81356  11.841   5.781   0.208 -0.0405  0.1290 -0.2986
  617MOL0     C81357  10.669   5.985   0.589 -0.5257  0.2586 -0.5454
  617MOL0     C81358  10.550   6.029   0.648 -0.3370  0.1232 -0.3136
  617MOL0     O81359  10.353   5.915   0.877 -0.0054  0.3483 -0.8662
  617MOL0     C81360  10.154   6.013   1.050 -0.6070 -0.6432  0.1382
  617MOL0     C81361  10.058   6.081   1.136  0.8049  0.3575 -0.0963
  617MOL0     N81362  10.019   6.366   1.795  0.7741 -0.0403  0.0415
  617MOL0     N81363   9.983   6.332   1.911  0.1989 -0.5338  0.7595
  617MOL0     C81364   9.118   6.944   1.739  0.3975 -0.7447  0.1091
  617MOL0     C81365   9.079   6.980   1.609  0.6333  0.4269 -0.8494
  617MOL0     C81366   9.063   6.996   1.166 -0.3562  0.3769  0.0460
  617MOL0     C81367   9.020   7.119   1.123  0.2759 -0.7152  0.3977
  617MOL0     C81368   8.988   7.158   0.994  0.3033 -0.2565  0.6843
  617MOL0     C81369   8.992   7.060   0.895  0.1507  0.0294  0.1961
  617MOL0     O81370   8.937   7.082   0.770 -0.2678 -0.0765 -0.5071
  617MOL0     C81371   8.846   7.204   0.755 -0.1498 -0.9152  1.3696
  617MOL0     C81372   8.786   7.181   0.619  0.5946  0.3818  0.9156
  617MOL0     C81373   8.685   7.067   0.621  0.1872  0.1846  0.4976
  617MOL0     C81374   8.607   7.057   0.490 -0.1454  0.3045  1.2907
  617MOL0     C81375   8.689   7.008   0.379  0.1775 -0.7032  0.5249
  617MOL0     C81376   8.748   6.965   0.281 -0.1969  0.3692  0.1755
  617MOL0     C81377   9.009   6.924   0.931 -0.7254  0.0676 -0.1790
  617MOL0     C81378   9.045   6.893   1.069 -0.0846 -0.4579 -1.0470
  617MOL0     H81379   9.361   7.151   1.520 -2.7998  1.6186 -0.3590
  617MOL0     H81380   9.430   7.078   1.752  0.6595  1.2187 -1.0971
  617MOL0     H81381   9.343   6.761   1.849 -2.3296 -2.2711  0.3934
  617MOL0     H81382   9.233   6.751   1.991  0.9349 -0.8685  1.1869
  617MOL0     H81383   9.399   6.845   2.134 -1.2644  1.6692 -0.6669
  617MOL0     H81384   9.514   6.849   2.008  0.8788 -2.2991 -0.5817
  617MOL0     H81385   9.488   6.586   1.993 -1.4066  1.3884 -1.5390
  617MOL0     H81386   9.379   6.603   2.135 -1.0327 -0.2266 -0.2404
  617MOL0     H81387   9.678   6.689   2.114  0.6396 -2.8507 -1.4685
  617MOL0     H81388   9.564   6.690   2.262  0.4548  0.7060  0.1651
  617MOL0     H81389   9.557   6.451   2.267  1.6510 -0.5405  1.1247
  617MOL0     H81390   9.712   6.497   2.307 -1.7418  2.6632  0.9257
  617MOL0     H81391   9.756   6.474   2.031  1.8374  1.3528  2.1947
  617MOL0     H81392   9.603   6.375   2.052  0.1629 -2.1316  1.1410
  617MOL0     H81393   9.886   6.338   2.153 -0.3703 -0.4624 -0.1404
  617MOL0     H81394   9.761   6.250   2.236  2.4018  0.0309 -0.1896
  617MOL0     H81395   9.716   6.143   2.005 -0.3996  2.2676 -4.3358
  617MOL0     H81396   9.877   6.134   2.077 -0.4432  0.7797  1.5655
  617MOL0     H81397   9.731   6.213   1.737  0.7591 -1.6042 -1.2766
  617MOL0     H81398   9.890   6.255   1.503  1.8201 -0.5167 -1.4177
  617MOL0     H81399  10.049   6.320   1.540  0.8274 -1.6569  1.2558
  617MOL0     H81400   9.989   6.527   1.471  2.0896 -2.4556 -1.7692
  617MOL0     H81401   9.832   6.521   1.548  0.7913  2.3191 -1.7856
  617MOL0     H81402   9.742   6.374   1.371 -0.5845  0.9613  1.8005
  617MOL0     H81403   9.789   6.543   1.335 -0.2061  0.7115 -1.1626
  617MOL0     H81404  10.002   6.467   1.220  0.9169 -1.5115 -0.2220
  617MOL0     H81405   9.857   6.411   1.140 -1.4071  2.2460  2.0803
  617MOL0     H81406  10.090   6.393   1.024 -0.0756  0.0277  1.7893
  617MOL0     H81407  10.258   6.291   0.878  0.7773 -1.1448 -0.0394
  617MOL0     H81408  10.661   6.133   0.947  1.7300 -1.5075 -0.2981
  617MOL0     H81409  10.858   6.048   0.864  0.8456 -2.1275 -1.4482
  617MOL0     H81410  10.949   6.047   0.458 -1.9358  0.7375  0.7292
  617MOL0     H81411  10.866   5.887   0.447  0.3517  1.1316 -1.4039
  617MOL0     H81412  11.054   5.796   0.413  0.5853 -0.7403  1.0542
  617MOL0     H81413  11.094   5.835   0.582 -2.0825  3.2026  1.7318
  617MOL0     H81414  11.182   6.064   0.506  0.5362 -0.1822  1.5034
  617MOL0     H81415  11.179   6.006   0.339  2.6668 -1.8742 -0.8679
  617MOL0     H81416  11.350   5.897   0.571  4.8511  0.0276 -0.8947
  617MOL0     H81417  11.333   5.831   0.410 -2.1335  0.9743 -0.9008
  617MOL0     H81418  11.406   6.128   0.460  0.9641  0.6129 -1.7408
  617MOL0     H81419  11.423   6.038   0.307  3.0391  1.2688 -0.4987
  617MOL0     H81420  11.572   5.908   0.526  0.7263 -1.1925 -1.5233
  617MOL0     H81421  11.637   6.072   0.499  2.6665 -0.9030  0.9041
  617MOL0     H81422  11.580   5.893   0.252 -2.8969  2.5071  0.4707
  617MOL0     H81423  11.695   6.024   0.271 -0.0667  1.4316  0.9674
  617MOL0     H81424  11.684   5.739   0.380 -0.8570 -0.3187 -0.3899
  617MOL0     H81425  11.821   5.864   0.419 -3.5198 -0.1301  2.4912
  617MOL0     H81426  10.657   5.974   0.482  1.7570  2.3336 -1.1000
  617MOL0     H81427  10.454   6.024   0.597  0.6103 -0.2924 -2.1289
  617MOL0     H81428  10.176   5.907   1.048  0.1137 -0.4991  0.1640
  617MOL0     H81429  10.004   6.027   1.214 -0.5076  2.1101  0.2619
  617MOL0     H81430   9.043   6.892   1.797 -0.9825  0.0337 -0.9117
  617MOL0     H81431   8.994   6.947   1.551  0.7116  1.8087 -1.7943
  617MOL0     H81432   9.002   7.192   1.201  0.2210  0.4486 -0.6697
  617MOL0     H81433   8.961   7.262   0.981 -0.5345 -0.3734  1.4003
  617MOL0     H81434   8.903   7.297   0.758 -0.6584 -0.6086  1.6173
  617MOL0     H81435   8.765   7.194   0.828 -3.6798  0.3374 -2.0086
  617MOL0     H81436   8.719   7.263   0.593 -1.3075 -1.3710 -0.0911
  617MOL0     H81437   8.861   7.181   0.539 -0.7882  1.9290 -0.4677
  617MOL0     H81438   8.600   7.092   0.686 -0.2380  2.9110 -0.9382
  617MOL0     H81439   8.728   6.973   0.656 -1.4737 -1.4614 -1.6510
  617MOL0     H81440   8.513   7.001   0.493 -0.2745  0.3562 -0.5345
  617MOL0     H81441   8.562   7.155   0.468 -2.6579 -1.2763 -1.3464
  617MOL0     H81442   8.792   6.899   0.210 -2.1196 -0.9341  0.1382
  617MOL0     H81443   8.979   6.841   0.868 -0.5111 -1.5467  1.7256
  617MOL0     H81444   9.044   6.790   1.106 -0.4872  0.3672  1.4117
  618MOL0     O81445  10.275   1.788   4.146  0.7812 -0.5566 -0.0684
  618MOL0     C81446  10.338   1.837   4.245  0.4102  0.1349  0.6375
  618MOL0     O81447  10.434   1.779   4.320 -0.5248  0.0516  0.3093
  618MOL0     C81448  10.484   1.659   4.278  0.1450  0.0070  0.1644
  618MOL0     C81449  10.422   1.536   4.299 -0.3656 -0.0296  1.3567
  618MOL0     C81450  10.482   1.415   4.250  0.1157  0.8829 -0.3393
  618MOL0     C81451  10.610   1.411   4.175  0.6308 -0.5927  0.7637
  618MOL0     O81452  10.669   1.297   4.131 -0.1808  0.2605  0.3447
  618MOL0     C81453  10.633   1.186   4.222  0.1884  0.6088  0.6112
  618MOL0     C81454  10.729   1.071   4.204  0.0098  0.4034  0.1339
  618MOL0     C81455  10.728   1.004   4.062  0.1422  0.8424  0.6128
  618MOL0     C81456  10.801   0.864   4.073 -0.5259 -0.0786  0.3814
  618MOL0     C81457  10.825   0.822   3.935 -1.0528 -0.5223  0.0065
  618MOL0     C81458  10.901   0.690   3.918 -0.6201  0.7266 -0.3245
  618MOL0     C81459  10.880   0.637   3.775  0.0008  0.0807  0.6327
  618MOL0     C81460  10.733   0.598   3.751  0.4510 -0.7308  0.5294
  618MOL0     N81461  10.660   0.536   3.862  0.6477  0.3300  0.5197
  618MOL0     C81462  10.690   0.421   3.927 -0.0131  0.1862 -0.3559
  618MOL0     C81463  10.596   0.402   4.026 -0.4048 -1.0599 -0.1666
  618MOL0     C81464  10.587   0.293   4.124  0.1312 -0.1212 -1.0891
  618MOL0     C81465  10.633   0.326   4.262 -0.2757  0.2877  0.5083
  618MOL0     C81466  10.782   0.387   4.256  0.4540 -0.0365 -0.2011
  618MOL0     C81467  10.831   0.404   4.395 -0.2469  0.4916  0.1410
  618MOL0     O81468  10.979   0.358   4.383  0.1831 -0.0025  0.2280
  618MOL0     C81469  11.008   0.225   4.384 -1.2303  0.5629  0.6076
  618MOL0     C81470  10.907   0.138   4.429 -0.4149 -0.2497  1.0522
  618MOL0     C81471  10.942   0.003   4.420  0.3583  0.2784 -0.5203
  618MOL0     C81472  11.066  -0.043   4.360  0.1398  0.0799 -0.0848
  618MOL0     C81473  11.080  -0.195   4.349 -1.0753  0.5968  0.6477
  618MOL0     O81474  10.971  -0.275   4.336  0.6303 -0.1556  0.5595
  618MOL0     C81475  10.981  -0.410   4.335  0.6006 -0.2506  0.5486
  618MOL0     C81476  10.960  -0.482   4.218 -0.0355 -0.1061  0.0839
  618MOL0     C81477  10.984  -0.624   4.209  0.3156 -0.7080  0.7834
  618MOL0     C81478  11.025  -0.690   4.313 -0.4374  0.7682 -0.6047
  618MOL0     O81479  11.062  -0.822   4.304 -0.3060 -0.6170 -0.1862
  618MOL0     C81480  10.992  -0.914   4.237 -0.4078  0.9380 -0.3313
  618MOL0     C81481  11.079  -1.038   4.236  0.5670  0.3357  0.1307
  618MOL0     C81482  11.011  -1.167   4.187  1.0236  0.6945 -0.5984
  618MOL0     C81483  11.084  -1.301   4.214  0.3262 -0.2563 -0.5277
  618MOL0     C81484  11.238  -1.314   4.174 -0.8854  0.6596  0.0205
  618MOL0     C81485  11.267  -1.322   4.028  0.0901 -0.2381  0.5625
  618MOL0     C81486  11.222  -1.444   3.961 -0.1618 -0.8794 -0.6492
  618MOL0     C81487  11.207  -1.414   3.815 -0.0385 -0.5925  0.3714
  618MOL0    Cl81488  11.023  -1.384   3.790 -0.1472  0.2860 -0.3181
  618MOL0     C81489  11.044  -0.618   4.434 -0.4037  1.4808  0.0755
  618MOL0     C81490  11.020  -0.476   4.449 -0.4090 -0.0708 -0.3038
  618MOL0     O81491  11.195  -0.232   4.352 -0.3251 -0.5218 -0.4693
  618MOL0     C81492  11.157   0.050   4.317  0.5193  0.8941  0.5352
  618MOL0     C81493  11.136   0.188   4.332  0.5162  0.2049 -0.2372
  618MOL0     N81494  10.514   0.511   4.028 -0.0003 -0.1471 -0.0588
  618MOL0     N81495  10.561   0.597   3.935 -0.5539 -0.0247 -0.3928
  618MOL0     C81496  10.667   1.543   4.153 -0.3453 -0.1076  0.2385
  618MOL0     C81497  10.605   1.659   4.200 -0.1758 -1.1946  0.0240
  618MOL0     C81498  10.304   1.975   4.289 -0.7569 -0.7201  0.2770
  618MOL0     C81499  10.313   2.007   4.429  0.5555  0.0153 -0.1237
  618MOL0     C81500  10.277   2.129   4.475 -0.0860  0.5612 -0.5403
  618MOL0     C81501  10.236   2.228   4.389  0.1566  0.7252  0.8869
  618MOL0     O81502  10.225   2.348   4.446 -0.0392 -0.7526 -0.5707
  618MOL0     C81503  10.200   2.470   4.366 -0.6836  0.1041 -0.3301
  618MOL0     C81504  10.212   2.603   4.454 -0.1225  0.2557 -0.1872
  618MOL0     C81505  10.130   2.589   4.584  0.2519  0.0188 -1.0854
  618MOL0     C81506  10.128   2.716   4.677 -0.2760 -0.5694 -0.4855
  618MOL0     C81507  10.084   2.687   4.818 -0.3555  0.5878  0.2018
  618MOL0     C81508  10.048   2.668   4.934 -0.9573  1.1989 -1.2800
  618MOL0     C81509  10.217   2.203   4.250 -0.0980  0.7525  0.4047
  618MOL0     C81510  10.247   2.075   4.197 -1.2298 -0.0550 -1.8694
  618MOL0     H81511  10.331   1.524   4.356  0.1112 -1.3406  1.8915
  618MOL0     H81512  10.422   1.326   4.265  1.2940 -0.2843 -2.2462
  618MOL0     H81513  10.532   1.149   4.200  1.6186 -4.5141  1.4301
  618MOL0     H81514  10.632   1.220   4.326  0.8733  3.6261 -0.2621
  618MOL0     H81515  10.698   0.995   4.277 -0.7024  1.5870  1.1121
  618MOL0     H81516  10.832   1.095   4.230  0.6726 -0.0033 -1.9653
  618MOL0     H81517  10.778   1.077   3.998 -0.5744 -0.2626 -1.2671
  618MOL0     H81518  10.625   0.977   4.037 -0.2316  1.0791  1.8172
  618MOL0     H81519  10.891   0.875   4.134  0.0196 -0.9151 -0.2429
  618MOL0     H81520  10.743   0.790   4.128  2.6081 -2.2554  1.0657
  618MOL0     H81521  10.886   0.904   3.896  0.8395 -0.6841  2.3478
  618MOL0     H81522  10.727   0.818   3.888 -0.6569 -0.6158 -0.8275
  618MOL0     H81523  10.874   0.617   3.994 -1.9277  0.4354 -1.0374
  618MOL0     H81524  11.008   0.703   3.937 -0.3735 -1.4341 -0.0592
  618MOL0     H81525  10.919   0.706   3.700 -2.2540 -0.1501 -0.8555
  618MOL0     H81526  10.929   0.541   3.757 -2.0883 -0.7312 -1.2007
  618MOL0     H81527  10.737   0.526   3.668  1.4356  0.8200 -0.8376
  618MOL0     H81528  10.677   0.683   3.710  3.1470  0.2632 -1.4001
  618MOL0     H81529  10.779   0.361   3.914  1.6899  2.8131 -1.6621
  618MOL0     H81530  10.632   0.202   4.084 -3.0238 -3.1514  1.6383
  618MOL0     H81531  10.482   0.264   4.127  0.0400  0.1360 -1.6193
  618MOL0     H81532  10.637   0.231   4.316  0.3811 -1.4091 -2.3099
  618MOL0     H81533  10.576   0.402   4.317 -0.7434 -1.4150  2.4753
  618MOL0     H81534  10.831   0.315   4.191 -1.5768 -0.4235 -1.3930
  618MOL0     H81535  10.799   0.483   4.206  1.5610  1.7219  3.2241
  618MOL0     H81536  10.767   0.352   4.467 -2.5321 -0.9040 -2.6828
  618MOL0     H81537  10.830   0.509   4.425 -2.8972  1.5680 -3.1151
  618MOL0     H81538  10.810   0.166   4.469 -0.9401 -0.8055  0.2164
  618MOL0     H81539  10.891  -0.078   4.471  0.0118  0.6844 -0.2198
  618MOL0     H81540  10.948  -0.441   4.119 -1.1170 -0.0462  0.2319
  618MOL0     H81541  10.991  -0.652   4.104  3.9453  0.0206  0.7037
  618MOL0     H81542  10.967  -0.889   4.133  0.3705 -2.3247 -1.4134
  618MOL0     H81543  10.912  -0.950   4.303  2.5826 -1.4083  2.2887
  618MOL0     H81544  11.101  -1.062   4.341 -0.4636 -1.9882 -0.1122
  618MOL0     H81545  11.170  -1.029   4.177  0.5988 -0.3833  0.0627
  618MOL0     H81546  11.003  -1.162   4.078  2.8354 -3.1203 -1.0691
  618MOL0     H81547  10.912  -1.167   4.233  1.4514  1.7464  0.3532
  618MOL0     H81548  11.072  -1.325   4.320  2.0097 -2.6397 -0.8168
  618MOL0     H81549  11.032  -1.382   4.162  0.3989 -0.9569  0.4609
  618MOL0     H81550  11.267  -1.405   4.227 -1.4257  1.4445  1.7507
  618MOL0     H81551  11.298  -1.235   4.218  0.7070  0.8371 -2.2764
  618MOL0     H81552  11.374  -1.303   4.015  0.4726 -2.1401  0.7428
  618MOL0     H81553  11.212  -1.237   3.984 -1.4301  1.6234  5.3938
  618MOL0     H81554  11.298  -1.522   3.975  0.4781 -0.2224 -0.4198
  618MOL0     H81555  11.129  -1.484   4.002  0.8562 -3.8603 -0.9572
  618MOL0     H81556  11.229  -1.483   3.733  0.2327  1.0973 -1.0210
  618MOL0     H81557  11.278  -1.332   3.804  3.0845 -3.0127  1.2436
  618MOL0     H81558  11.071  -0.681   4.518  1.0582 -1.3093 -2.3129
  618MOL0     H81559  11.033  -0.419   4.540 -2.0843  3.6459 -2.1908
  618MOL0     H81560  11.250   0.021   4.270  0.6541  3.9903 -1.4194
  618MOL0     H81561  11.211   0.262   4.306  0.7507  0.7335  1.7457
  618MOL0     H81562  10.762   1.555   4.101 -0.4466  0.8399  0.2482
  618MOL0     H81563  10.652   1.756   4.186  1.8667 -2.3465 -1.4319
  618MOL0     H81564  10.345   1.939   4.508 -3.1802 -0.4105  1.2228
  618MOL0     H81565  10.285   2.142   4.582 -0.6092 -1.1370 -0.2623
  618MOL0     H81566  10.100   2.454   4.324 -0.9618 -0.6551  0.5961
  618MOL0     H81567  10.269   2.481   4.282  0.5577 -0.2124  0.6258
  618MOL0     H81568  10.318   2.603   4.481 -0.0794 -0.3960 -0.3310
  618MOL0     H81569  10.199   2.697   4.400  0.0915 -0.7175 -2.0163
  618MOL0     H81570  10.164   2.505   4.645 -0.2907 -0.8459 -1.9308
  618MOL0     H81571  10.028   2.560   4.554 -0.3530  1.4467 -0.5121
  618MOL0     H81572  10.223   2.767   4.694 -2.0070  1.9380  2.9675
  618MOL0     H81573  10.063   2.794   4.636  1.7021  1.0488 -0.7092
  618MOL0     H81574  10.006   2.651   5.031 -0.2983  0.8000 -1.0584
  618MOL0     H81575  10.179   2.287   4.192 -1.1888 -0.2235 -0.3177
  618MOL0     H81576  10.251   2.053   4.091 -1.4096  4.0891 -2.8905
  619MOL0     O81577  10.670   9.006   3.401 -0.4404 -0.4272  0.2076
  619MOL0     C81578  10.585   9.051   3.474  1.0882 -0.6838 -0.1591
  619MOL0     O81579  10.446   9.015   3.484  0.0991 -0.1622  0.2308
  619MOL0     C81580  10.400   8.934   3.394  0.8546  0.1796  1.1293
  619MOL0     C81581  10.402   8.960   3.254 -1.0035  0.0621  0.6091
  619MOL0     C81582  10.333   8.866   3.169 -0.1366  0.9952  0.2900
  619MOL0     C81583  10.266   8.748   3.211 -0.1314 -0.6295  0.4621
  619MOL0     O81584  10.188   8.673   3.131 -0.7423 -0.7069  0.5336
  619MOL0     C81585  10.122   8.560   3.188 -0.2632 -0.3273 -0.7245
  619MOL0     C81586  10.037   8.492   3.075  0.0986  0.1034 -0.0023
  619MOL0     C81587  10.114   8.375   2.996  0.4232 -0.5256  0.0690
  619MOL0     C81588  10.236   8.437   2.927 -0.3626  0.2529  0.2278
  619MOL0     C81589  10.330   8.322   2.880  0.9314  0.4751  0.6676
  619MOL0     C81590  10.460   8.377   2.808 -0.1012 -0.3504 -0.0169
  619MOL0     C81591  10.571   8.273   2.794  0.3559 -0.9267  0.3383
  619MOL0     C81592  10.671   8.290   2.905  0.1747 -0.6990  0.6493
  619MOL0     N81593  10.790   8.201   2.876 -0.3175  0.5219 -0.4079
  619MOL0     C81594  10.925   8.237   2.885 -0.2488  0.7781 -0.5267
  619MOL0     C81595  10.995   8.136   2.830 -0.2579 -0.0565 -0.0304
  619MOL0     C81596  11.149   8.114   2.835 -0.5814  0.3326 -0.5913
  619MOL0     C81597  11.195   8.106   2.977  0.0310  1.7190  0.4661
  619MOL0     C81598  11.351   8.093   2.966  0.2266  0.5276 -0.5785
  619MOL0     C81599  11.403   8.118   3.108 -0.5527 -0.2293  1.1068
  619MOL0     O81600  11.543   8.144   3.111 -0.0956 -0.2435  0.4677
  619MOL0     C81601  11.580   8.279   3.090 -0.3172 -0.1680  0.3472
  619MOL0     C81602  11.501   8.376   3.024 -0.0019 -0.6388 -0.7463
  619MOL0     C81603  11.552   8.501   2.988  1.3304 -0.3542  0.0972
  619MOL0     C81604  11.679   8.532   3.019  0.1720  0.1882  0.8417
  619MOL0     C81605  11.723   8.676   3.001  0.5465 -0.6187 -0.1071
  619MOL0     O81606  11.636   8.775   2.968  0.1876  0.1886 -1.1533
  619MOL0     C81607  11.674   8.894   2.920  0.4951 -0.5337 -0.4388
  619MOL0     C81608  11.760   8.972   2.989  0.5246 -0.0123 -0.5555
  619MOL0     C81609  11.790   9.098   2.947  0.1452  0.3582 -0.6505
  619MOL0     C81610  11.749   9.142   2.821  0.1811 -0.5667 -0.2414
  619MOL0     O81611  11.770   9.271   2.778 -0.3004  0.9051 -0.5647
  619MOL0     C81612  11.834   9.372   2.863 -0.0118  0.1887  0.1259
  619MOL0     C81613  11.982   9.382   2.846  0.6117  0.7498  0.2426
  619MOL0     C81614  12.032   9.429   2.714 -0.0057  0.3941 -1.1187
  619MOL0     C81615  12.182   9.431   2.703  0.0169 -0.0302 -0.0830
  619MOL0     C81616  12.221   9.432   2.551  0.0948 -0.5990 -0.8408
  619MOL0     C81617  12.371   9.460   2.534  1.5536  0.4212 -0.4566
  619MOL0     C81618  12.456   9.343   2.589 -0.2576 -0.6925  0.0708
  619MOL0     C81619  12.597   9.346   2.535 -0.5677  0.3517  1.0527
  619MOL0    Cl81620  12.703   9.197   2.589 -0.1884 -0.2217 -0.0816
  619MOL0     C81621  11.669   9.069   2.750 -0.5768  0.0017  0.9083
  619MOL0     C81622  11.626   8.942   2.796  0.1458 -0.2436  0.1201
  619MOL0     O81623  11.843   8.689   3.017 -0.2266 -0.1538 -0.8405
  619MOL0     C81624  11.759   8.446   3.101  0.0221  0.0030 -0.0276
  619MOL0     C81625  11.709   8.318   3.123 -0.2780  0.0013 -0.4278
  619MOL0     N81626  10.904   8.042   2.800 -0.5547 -0.0159  0.6695
  619MOL0     N81627  10.787   8.074   2.828 -0.7247  1.3229 -0.1807
  619MOL0     C81628  10.278   8.718   3.350 -0.3313 -0.2646 -0.0247
  619MOL0     C81629  10.335   8.815   3.438  0.3993 -0.2674  0.2824
  619MOL0     C81630  10.627   9.149   3.570  0.3552 -0.4158 -0.4160
  619MOL0     C81631  10.540   9.225   3.648 -0.1782 -0.6561  0.3948
  619MOL0     C81632  10.597   9.330   3.720 -0.6097 -0.7694  0.4093
  619MOL0     C81633  10.730   9.364   3.727  0.3769  0.2139  1.0973
  619MOL0     O81634  10.759   9.473   3.796  0.0745 -0.6659  0.1477
  619MOL0     C81635  10.866   9.559   3.754 -0.9706 -0.4113 -0.0202
  619MOL0     C81636  10.859   9.693   3.830  0.8192  0.5629 -0.4619
  619MOL0     C81637  10.882   9.659   3.982 -0.1719  0.2263  0.7208
  619MOL0     C81638  10.758   9.657   4.060  0.1797 -0.9660 -0.8663
  619MOL0     C81639  10.761   9.743   4.182 -0.1386  0.4506  0.4833
  619MOL0     C81640  10.788   9.810   4.283  0.2157 -0.5688  0.0698
  619MOL0     C81641  10.814   9.284   3.651 -0.2045  0.2552  1.2997
  619MOL0     C81642  10.766   9.174   3.580  0.0268 -0.0043  0.4236
  619MOL0     H81643  10.464   9.043   3.223  1.0697 -1.2961  0.9344
  619MOL0     H81644  10.312   8.877   3.064 -2.0714 -3.9134 -0.1394
  619MOL0     H81645  10.066   8.582   3.279  1.5703 -0.3372  0.4516
  619MOL0     H81646  10.204   8.494   3.218  0.3159  0.9658  0.6199
  619MOL0     H81647  10.012   8.571   3.003  2.5957 -0.4708 -1.6156
  619MOL0     H81648   9.944   8.460   3.124 -0.1334  0.4229 -0.2282
  619MOL0     H81649  10.042   8.323   2.932 -0.6781  1.3304 -0.2571
  619MOL0     H81650  10.149   8.306   3.074 -0.7714 -0.4520  0.7059
  619MOL0     H81651  10.210   8.499   2.841  1.9779 -1.5382 -1.9412
  619MOL0     H81652  10.288   8.502   2.998 -1.1750  1.0179  0.1333
  619MOL0     H81653  10.275   8.250   2.819 -1.7241  2.3078  0.7488
  619MOL0     H81654  10.349   8.269   2.974  4.0009  1.6430  0.8288
  619MOL0     H81655  10.501   8.461   2.864  0.0357 -2.2292  2.9011
  619MOL0     H81656  10.406   8.407   2.717 -0.2643  0.5894  0.3781
  619MOL0     H81657  10.530   8.172   2.798 -0.8711 -0.4126  1.5976
  619MOL0     H81658  10.632   8.292   2.705  0.1407  0.6782  0.4932
  619MOL0     H81659  10.625   8.271   3.002  0.1550  0.6934  0.9369
  619MOL0     H81660  10.696   8.396   2.920 -3.4787  0.4225 -0.1537
  619MOL0     H81661  10.957   8.325   2.940 -4.4833 -0.8675  5.5668
  619MOL0     H81662  11.189   8.197   2.776 -1.0527  0.2025 -1.1057
  619MOL0     H81663  11.172   8.018   2.788  1.6228  1.5121 -2.0437
  619MOL0     H81664  11.148   8.016   3.018  2.0824  1.9249  3.6006
  619MOL0     H81665  11.147   8.185   3.036 -3.5837  0.5525 -0.6356
  619MOL0     H81666  11.396   7.997   2.939  1.9901  0.6683  1.6066
  619MOL0     H81667  11.387   8.164   2.890 -2.9801  0.3406 -2.4705
  619MOL0     H81668  11.380   8.037   3.179  1.2341  1.4851  3.8454
  619MOL0     H81669  11.356   8.208   3.149  3.1865  3.0950 -1.1657
  619MOL0     H81670  11.404   8.355   2.979 -0.4228  1.4447 -0.9127
  619MOL0     H81671  11.484   8.578   2.952  3.3554  0.5390 -2.0504
  619MOL0     H81672  11.813   8.938   3.078 -1.8012 -0.7468  0.6212
  619MOL0     H81673  11.864   9.155   3.001 -3.1731  1.8409  2.7438
  619MOL0     H81674  11.805   9.353   2.966 -0.1850 -0.2392  0.0022
  619MOL0     H81675  11.792   9.470   2.837  0.0348 -0.6418 -3.6755
  619MOL0     H81676  12.037   9.289   2.866 -1.4984 -1.5234 -3.2933
  619MOL0     H81677  12.031   9.461   2.904  0.4453 -0.4398  2.0647
  619MOL0     H81678  11.988   9.527   2.696  1.4527  1.5282  0.9800
  619MOL0     H81679  11.998   9.362   2.635  2.0912 -2.2728  0.0755
  619MOL0     H81680  12.228   9.507   2.766  0.8870 -2.3212  2.2287
  619MOL0     H81681  12.223   9.334   2.736 -1.4229 -0.4368  0.5903
  619MOL0     H81682  12.158   9.513   2.513  1.0831  1.4128  1.5377
  619MOL0     H81683  12.196   9.342   2.493  0.7174  0.4097 -2.7510
  619MOL0     H81684  12.409   9.547   2.590  1.9237 -1.4895  2.4912
  619MOL0     H81685  12.395   9.476   2.428  0.2540 -2.3478 -1.2572
  619MOL0     H81686  12.460   9.346   2.698  1.9227 -1.1837  0.0575
  619MOL0     H81687  12.415   9.249   2.551  0.3315 -0.3062 -1.5919
  619MOL0     H81688  12.650   9.432   2.577 -1.2587  0.5204  1.5893
  619MOL0     H81689  12.599   9.360   2.426  1.4223 -0.1722  0.9742
  619MOL0     H81690  11.641   9.114   2.655  3.0537 -0.5048 -0.5743
  619MOL0     H81691  11.552   8.886   2.740 -1.8065  1.2650  1.0908
  619MOL0     H81692  11.860   8.475   3.128  0.5421 -2.3330  0.7779
  619MOL0     H81693  11.767   8.241   3.172 -0.5867  0.9813  1.6072
  619MOL0     H81694  10.239   8.633   3.405 -0.5473  1.2965  2.3730
  619MOL0     H81695  10.326   8.791   3.543  0.3175  1.1185  0.6050
  619MOL0     H81696  10.435   9.203   3.637  0.3569 -2.5974 -1.3522
  619MOL0     H81697  10.522   9.388   3.773 -2.8438 -0.3077 -2.9845
  619MOL0     H81698  10.855   9.585   3.648 -1.1455 -0.8488 -0.1099
  619MOL0     H81699  10.963   9.511   3.767 -0.8237  0.0331  0.5415
  619MOL0     H81700  10.931   9.762   3.786  0.0271  0.9956 -1.1074
  619MOL0     H81701  10.761   9.736   3.810  0.9775  1.2474  0.1845
  619MOL0     H81702  10.944   9.738   4.024 -2.7012  2.1167  1.1194
  619MOL0     H81703  10.915   9.555   3.998 -0.7677  0.3901  3.4294
  619MOL0     H81704  10.681   9.698   3.994 -3.3014 -0.7029  2.9827
  619MOL0     H81705  10.737   9.554   4.091 -2.8025 -0.0395  0.5969
  619MOL0     H81706  10.792   9.871   4.371 -2.1441  0.5449 -0.5436
  619MOL0     H81707  10.922   9.294   3.650  0.2485 -2.9403 -1.0308
  619MOL0     H81708  10.835   9.126   3.511  0.9349  2.3963 -0.4496
  620MOL0     O81709   0.336   7.831   2.713 -0.3298 -0.3056 -0.0447
  620MOL0     C81710   0.457   7.842   2.686  0.8831 -1.0325 -0.3087
  620MOL0     O81711   0.532   7.767   2.597  0.7265  0.0668  0.8181
  620MOL0     C81712   0.465   7.655   2.557  0.3874 -0.4324 -0.8641
  620MOL0     C81713   0.396   7.658   2.435  0.0568 -0.0601  0.0694
  620MOL0     C81714   0.336   7.552   2.381  0.5366  0.6136 -0.0363
  620MOL0     C81715   0.374   7.428   2.422 -0.5363  0.7784 -0.5347
  620MOL0     O81716   0.323   7.313   2.371 -0.5640  0.2976  0.3428
  620MOL0     C81717   0.413   7.199   2.373 -0.1425 -0.4937 -0.5434
  620MOL0     C81718   0.352   7.070   2.331  0.5454 -0.0651 -0.0197
  620MOL0     C81719   0.274   6.982   2.433  0.6793 -0.0470 -0.7754
  620MOL0     C81720   0.230   6.852   2.373  0.8944  0.3026  0.9296
  620MOL0     C81721   0.168   6.755   2.468  0.2510  0.0929  0.1330
  620MOL0     C81722   0.138   6.620   2.406  0.1441  0.5767  1.5220
  620MOL0     C81723   0.033   6.537   2.480  0.5172  0.3411  0.9655
  620MOL0     C81724   0.077   6.495   2.606  0.1578  0.6483 -0.4702
  620MOL0     N81725  -0.009   6.392   2.669  0.3602  0.0872  0.1988
  620MOL0     C81726  -0.143   6.395   2.655  0.3684 -0.7699  0.3659
  620MOL0     C81727  -0.193   6.303   2.746 -0.0424 -0.5221  0.4442
  620MOL0     C81728  -0.339   6.285   2.784  0.4438 -0.0494 -0.5736
  620MOL0     C81729  -0.395   6.295   2.929 -0.4483 -0.0738 -0.2075
  620MOL0     C81730  -0.331   6.192   3.017  0.4799  0.1276 -0.5515
  620MOL0     C81731  -0.415   6.175   3.148 -0.1608 -0.8777  0.6525
  620MOL0     O81732  -0.336   6.129   3.257 -0.2188  0.5168  0.7130
  620MOL0     C81733  -0.399   6.081   3.372  0.3527  0.6374  0.3749
  620MOL0     C81734  -0.315   6.015   3.459  0.3829 -0.0782 -0.0013
  620MOL0     C81735  -0.363   5.972   3.582 -1.3142 -0.5646 -0.3619
  620MOL0     C81736  -0.490   5.999   3.624 -1.1793 -0.7103 -0.7248
  620MOL0     C81737  -0.522   5.958   3.767  0.2923  0.3492  0.3960
  620MOL0     O81738  -0.606   6.037   3.831  0.3000  0.2684 -0.0722
  620MOL0     C81739  -0.653   6.020   3.958 -0.0480  0.1844 -0.1574
  620MOL0     C81740  -0.678   6.133   4.033  0.0071 -0.6336 -0.2397
  620MOL0     C81741  -0.725   6.123   4.166  0.2476 -0.1262 -0.0811
  620MOL0     C81742  -0.727   5.998   4.224 -0.0977 -0.2033  0.4536
  620MOL0     O81743  -0.743   5.988   4.354  0.7546 -0.5724  0.0354
  620MOL0     C81744  -0.842   6.072   4.402  0.2583 -0.7359 -0.8406
  620MOL0     C81745  -0.916   5.988   4.509  1.8703 -0.5895  0.6113
  620MOL0     C81746  -1.049   6.054   4.559 -0.0245  0.3045  0.9148
  620MOL0     C81747  -1.151   5.954   4.632  0.6148  0.5112 -0.6006
  620MOL0     C81748  -1.280   6.027   4.662  0.1688  1.1714 -0.0475
  620MOL0     C81749  -1.281   6.150   4.752  0.8232 -0.6905  0.3971
  620MOL0     C81750  -1.413   6.222   4.725  0.2165  0.2889 -0.3146
  620MOL0     C81751  -1.443   6.321   4.838 -0.7340 -0.1997 -0.6241
  620MOL0    Cl81752  -1.565   6.446   4.788 -0.1641 -0.2811  0.0058
  620MOL0     C81753  -0.694   5.889   4.157  1.3716  0.2251  0.6024
  620MOL0     C81754  -0.665   5.901   4.021  0.4061  0.3977 -0.1539
  620MOL0     O81755  -0.471   5.853   3.808 -0.1393 -0.5061 -0.5727
  620MOL0     C81756  -0.573   6.078   3.546 -0.5109  0.4340  0.5217
  620MOL0     C81757  -0.526   6.109   3.415  0.6475  0.2498 -0.8921
  620MOL0     N81758  -0.080   6.254   2.810 -0.1853 -0.8821 -0.7482
  620MOL0     N81759   0.022   6.319   2.774  0.0628  0.4608  1.0606
  620MOL0     C81760   0.441   7.423   2.554 -0.4544  0.6163  0.3322
  620MOL0     C81761   0.485   7.540   2.616 -0.0992  0.5457 -0.3146
  620MOL0     C81762   0.534   7.958   2.753 -0.4230 -0.4409 -0.3418
  620MOL0     C81763   0.676   7.962   2.767  0.1709 -0.2714 -0.1893
  620MOL0     C81764   0.740   8.079   2.816  0.2822  1.5652  0.4759
  620MOL0     C81765   0.664   8.189   2.864 -0.0780  0.0680 -0.7360
  620MOL0     O81766   0.724   8.316   2.878  0.3715  0.7716 -0.4008
  620MOL0     C81767   0.783   8.357   2.752  0.7448 -0.2070 -0.2922
  620MOL0     C81768   0.673   8.406   2.654 -0.3748 -0.6522 -0.7535
  620MOL0     C81769   0.579   8.514   2.722  0.3385 -0.0711  0.2829
  620MOL0     C81770   0.502   8.601   2.639  0.3416 -0.3070  0.0718
  620MOL0     C81771   0.389   8.541   2.570 -0.6576 -0.7774 -0.0783
  620MOL0     C81772   0.309   8.475   2.501  0.0584 -0.8710 -0.3950
  620MOL0     C81773   0.523   8.175   2.873 -0.4961  1.2200  0.5103
  620MOL0     C81774   0.466   8.057   2.821  0.6421  0.4200 -0.2935
  620MOL0     H81775   0.368   7.752   2.388  0.0913  0.7494  1.5958
  620MOL0     H81776   0.277   7.559   2.290 -1.0531 -1.8603  0.6979
  620MOL0     H81777   0.460   7.182   2.471 -0.1407  0.5892 -0.3437
  620MOL0     H81778   0.491   7.222   2.300  0.9416  3.4322  1.5445
  620MOL0     H81779   0.440   7.019   2.290  4.2587  4.3294  1.6752
  620MOL0     H81780   0.280   7.088   2.251 -0.6516 -0.6963  0.8853
  620MOL0     H81781   0.188   7.044   2.458  0.8946 -0.1710  0.3240
  620MOL0     H81782   0.341   6.967   2.518  0.5559 -5.3058 -1.2668
  620MOL0     H81783   0.162   6.891   2.297  0.6188 -1.2016  0.3604
  620MOL0     H81784   0.320   6.804   2.335  0.3139 -0.3681  0.3708
  620MOL0     H81785   0.073   6.796   2.505 -0.3151 -0.1259 -1.0492
  620MOL0     H81786   0.235   6.746   2.554 -0.2044  0.2440  0.5146
  620MOL0     H81787   0.234   6.568   2.396  2.1683  3.9937  1.3822
  620MOL0     H81788   0.094   6.640   2.308 -0.0749  1.7460  1.8412
  620MOL0     H81789  -0.061   6.592   2.490  0.2794 -0.2433  2.2441
  620MOL0     H81790   0.014   6.445   2.423  1.1691 -0.5289  2.1121
  620MOL0     H81791   0.105   6.566   2.685  1.4443 -0.2513 -0.0877
  620MOL0     H81792   0.170   6.442   2.583  0.9903  1.5640  0.5896
  620MOL0     H81793  -0.206   6.464   2.599 -2.4695  0.5966  4.7381
  620MOL0     H81794  -0.360   6.183   2.752 -2.1517  0.6236 -1.3312
  620MOL0     H81795  -0.406   6.349   2.725  0.4824  2.4543  1.8644
  620MOL0     H81796  -0.504   6.297   2.923 -0.3825 -0.1234 -1.8779
  620MOL0     H81797  -0.353   6.387   2.973  3.1597 -2.0039  0.8078
  620MOL0     H81798  -0.342   6.096   2.967 -0.3310  0.5233 -1.1818
  620MOL0     H81799  -0.230   6.225   3.041 -0.2282  1.3627  0.9232
  620MOL0     H81800  -0.496   6.102   3.137  1.3983 -2.7281  0.9300
  620MOL0     H81801  -0.454   6.276   3.167  2.0426 -0.2292  2.1983
  620MOL0     H81802  -0.210   6.005   3.432  1.1664  0.5294  2.5459
  620MOL0     H81803  -0.293   5.928   3.653 -1.5438  0.3298  0.4374
  620MOL0     H81804  -0.669   6.231   3.987  1.4822  0.7429  2.6913
  620MOL0     H81805  -0.750   6.214   4.221  1.4061 -0.2603  0.7064
  620MOL0     H81806  -0.927   6.100   4.338 -0.8388 -1.8130  0.1117
  620MOL0     H81807  -0.806   6.162   4.453 -0.4691 -1.5981  1.2841
  620MOL0     H81808  -0.857   5.965   4.598  1.5192  0.5979  1.1864
  620MOL0     H81809  -0.927   5.892   4.458  2.3176 -0.4603  0.2645
  620MOL0     H81810  -1.096   6.102   4.473  3.4956  2.2265 -0.1317
  620MOL0     H81811  -1.003   6.134   4.617 -2.5479 -0.8955  5.0062
  620MOL0     H81812  -1.176   5.871   4.565 -0.9578  1.6385 -1.4509
  620MOL0     H81813  -1.106   5.914   4.724  1.2280 -0.1734 -1.1827
  620MOL0     H81814  -1.358   5.958   4.696 -0.3156  2.4183  1.5303
  620MOL0     H81815  -1.302   6.051   4.558  3.2539 -1.4446 -1.4576
  620MOL0     H81816  -1.200   6.215   4.716  0.0949  0.1347  0.2208
  620MOL0     H81817  -1.254   6.121   4.854  2.3692 -0.5193  0.0606
  620MOL0     H81818  -1.408   6.275   4.630  2.4253  2.0834  0.7035
  620MOL0     H81819  -1.495   6.150   4.731 -0.4193  1.0208  4.5434
  620MOL0     H81820  -1.345   6.367   4.856 -0.3673 -0.5466 -1.7104
  620MOL0     H81821  -1.472   6.266   4.928  2.3446  1.6786  1.7617
  620MOL0     H81822  -0.686   5.789   4.198  3.7890  0.1862  0.1326
  620MOL0     H81823  -0.636   5.822   3.952  1.0377  0.9223 -0.5012
  620MOL0     H81824  -0.679   6.094   3.560 -1.5584 -2.2449 -2.9529
  620MOL0     H81825  -0.603   6.155   3.354 -1.5853 -2.1637 -0.0457
  620MOL0     H81826   0.467   7.334   2.611  0.0948 -2.5872 -4.3423
  620MOL0     H81827   0.528   7.550   2.716 -1.7522 -1.6843  0.7091
  620MOL0     H81828   0.724   7.883   2.710 -0.1336 -0.9360  0.4548
  620MOL0     H81829   0.847   8.096   2.807  0.8394 -1.0671  1.3660
  620MOL0     H81830   0.850   8.279   2.713 -0.8694 -4.2089  4.0271
  620MOL0     H81831   0.836   8.450   2.775 -0.9507 -0.0548  3.7969
  620MOL0     H81832   0.716   8.441   2.560 -0.0412  2.2837  0.3851
  620MOL0     H81833   0.611   8.320   2.627 -0.6681 -0.0929 -1.9446
  620MOL0     H81834   0.654   8.584   2.761  1.2614  0.1821 -1.8290
  620MOL0     H81835   0.504   8.475   2.791  0.0377 -0.5421 -0.3028
  620MOL0     H81836   0.462   8.678   2.705 -0.3320 -1.3587  0.9197
  620MOL0     H81837   0.570   8.641   2.563 -0.1583  0.1587 -0.1416
  620MOL0     H81838   0.230   8.428   2.446 -0.5396  0.9061 -1.1235
  620MOL0     H81839   0.464   8.254   2.919 -0.1110  2.6899 -1.4029
  620MOL0     H81840   0.360   8.044   2.841  0.6322  2.0154  0.9287
  621MOL0     O81841   0.143  11.346   5.748 -0.2262  0.7059 -0.4711
  621MOL0     C81842   0.120  11.243   5.811 -0.0441  0.4692  0.2287
  621MOL0     O81843   0.092  11.117   5.768  0.1362 -0.1715 -0.2532
  621MOL0     C81844   0.091  11.094   5.635  0.0270  0.0407 -0.1105
  621MOL0     C81845   0.204  11.076   5.555 -0.3142  0.8275  1.0573
  621MOL0     C81846   0.193  11.042   5.418  0.5986  0.4527 -1.0488
  621MOL0     C81847   0.068  11.034   5.355 -0.2490 -0.8410 -0.3154
  621MOL0     O81848   0.062  10.992   5.224  0.2964  0.3892 -0.2389
  621MOL0     C81849   0.119  10.868   5.187  0.6133 -0.5977 -0.0549
  621MOL0     C81850   0.060  10.745   5.252 -1.2694 -0.1695 -0.8204
  621MOL0     C81851  -0.098  10.718   5.236  0.1697 -0.1101 -0.1952
  621MOL0     C81852  -0.125  10.659   5.094  0.3087  1.4597 -0.1780
  621MOL0     C81853  -0.266  10.619   5.058 -0.2349 -0.5802  0.7245
  621MOL0     C81854  -0.306  10.487   5.132  0.7412 -0.8671  1.3445
  621MOL0     C81855  -0.437  10.423   5.072 -0.4766 -0.0856 -0.5839
  621MOL0     C81856  -0.450  10.272   5.102  0.0689  0.5958  0.2232
  621MOL0     N81857  -0.587  10.234   5.073  0.2852  0.2634  0.3131
  621MOL0     C81858  -0.625  10.246   4.943 -0.1421  0.0891  0.7703
  621MOL0     C81859  -0.763  10.241   4.951  0.2125 -0.2767 -0.5907
  621MOL0     C81860  -0.867  10.250   4.845  0.0938  0.0367 -0.1241
  621MOL0     C81861  -1.001  10.293   4.901  0.1996  0.2519 -0.4614
  621MOL0     C81862  -1.095  10.307   4.778 -0.1028 -0.1660 -0.1236
  621MOL0     C81863  -1.131  10.183   4.710 -1.0950 -0.1954  0.0173
  621MOL0     O81864  -1.251  10.213   4.635 -0.6460 -0.8264  0.5614
  621MOL0     C81865  -1.326  10.101   4.603  0.1572  0.5959 -0.0254
  621MOL0     C81866  -1.377  10.014   4.697  0.7928  0.3729  0.6751
  621MOL0     C81867  -1.464   9.909   4.671  0.1834 -0.0439  0.1970
  621MOL0     C81868  -1.505   9.899   4.534  0.5788  0.6520  0.4631
  621MOL0     C81869  -1.597   9.786   4.500 -0.7600 -0.3664  0.3459
  621MOL0     O81870  -1.641   9.785   4.369  0.1630  0.3291  0.0823
  621MOL0     C81871  -1.749   9.706   4.331  0.0706  0.8830 -0.5808
  621MOL0     C81872  -1.878   9.721   4.381 -0.0510  0.6014 -0.0710
  621MOL0     C81873  -1.985   9.643   4.328 -0.2872  0.3930  0.6790
  621MOL0     C81874  -1.966   9.541   4.238 -0.7435  0.0536 -0.1384
  621MOL0     O81875  -2.074   9.469   4.215  0.2961  0.0380 -1.1001
  621MOL0     C81876  -2.057   9.328   4.242 -0.3991 -0.1119 -0.5759
  621MOL0     C81877  -2.197   9.267   4.257 -0.1828 -0.5844  0.0189
  621MOL0     C81878  -2.245   9.283   4.396  0.5509 -0.4630 -0.5505
  621MOL0     C81879  -2.381   9.228   4.425 -0.1693 -0.8596 -0.0739
  621MOL0     C81880  -2.420   9.265   4.569  0.1580  0.5369  0.4860
  621MOL0     C81881  -2.542   9.194   4.621  0.1745 -0.2537  0.4618
  621MOL0     C81882  -2.592   9.231   4.761  0.0912  0.3675  0.0741
  621MOL0     C81883  -2.628   9.379   4.780  0.7162  0.3993 -0.6657
  621MOL0    Cl81884  -2.796   9.440   4.726 -0.2459 -0.1508 -0.3075
  621MOL0     C81885  -1.830   9.525   4.185  0.3254 -0.7293  0.3674
  621MOL0     C81886  -1.741   9.618   4.222 -0.8384  0.6392 -0.0338
  621MOL0     O81887  -1.630   9.706   4.586 -0.8768  0.2717 -0.6134
  621MOL0     C81888  -1.458   9.979   4.433 -0.6699  0.3725  0.0529
  621MOL0     C81889  -1.374  10.082   4.468 -0.8106  0.4389 -0.7232
  621MOL0     N81890  -0.793  10.234   5.084 -0.8732 -0.1543 -0.8581
  621MOL0     N81891  -0.693  10.245   5.158 -0.0795  0.6037 -0.7102
  621MOL0     C81892  -0.048  11.072   5.428  0.2959 -0.3380  0.0962
  621MOL0     C81893  -0.036  11.097   5.573  0.0698 -0.1113  0.0551
  621MOL0     C81894   0.123  11.256   5.960  0.1141 -0.3106 -0.9634
  621MOL0     C81895   0.188  11.369   6.017 -0.1192  0.1573 -0.3093
  621MOL0     C81896   0.203  11.390   6.153  0.2808 -0.5306 -0.4341
  621MOL0     C81897   0.148  11.292   6.235  0.4989 -0.4933 -0.3089
  621MOL0     O81898   0.149  11.299   6.375  0.2342 -1.2720  0.4461
  621MOL0     C81899   0.137  11.422   6.444  0.0855  0.4651  0.6508
  621MOL0     C81900   0.224  11.428   6.566  0.0183  0.6624 -0.6728
  621MOL0     C81901   0.266  11.574   6.593  0.7087 -0.2243  0.6284
  621MOL0     C81902   0.310  11.599   6.737 -0.4515  0.1643  0.9447
  621MOL0     C81903   0.207  11.588   6.829  0.1154  0.2546 -0.5250
  621MOL0     C81904   0.127  11.553   6.922 -0.0942  0.3305  0.3948
  621MOL0     C81905   0.076  11.181   6.179 -0.2191  0.8307 -1.0477
  621MOL0     C81906   0.070  11.160   6.048  0.6539 -0.4820 -0.6318
  621MOL0     H81907   0.299  11.067   5.606  0.7180  5.2964  0.4159
  621MOL0     H81908   0.282  11.042   5.355 -0.3343 -0.0560 -2.4274
  621MOL0     H81909   0.225  10.875   5.211  0.1312  1.0964  1.9166
  621MOL0     H81910   0.114  10.862   5.078  2.1351  0.1573 -0.1937
  621MOL0     H81911   0.074  10.765   5.358  0.9945  1.0331 -1.2877
  621MOL0     H81912   0.120  10.658   5.222 -1.2514  0.3996 -2.5550
  621MOL0     H81913  -0.161  10.800   5.271 -0.0035 -0.8003  1.1573
  621MOL0     H81914  -0.131  10.647   5.312 -0.3808  0.3873  0.0398
  621MOL0     H81915  -0.082  10.731   5.024  4.2578 -2.5018 -2.3438
  621MOL0     H81916  -0.076  10.562   5.084 -1.5530  0.1609  2.1316
  621MOL0     H81917  -0.261  10.595   4.952  1.4070  0.5763  0.5023
  621MOL0     H81918  -0.334  10.702   5.082 -0.1286 -0.2997  0.0664
  621MOL0     H81919  -0.323  10.507   5.238  0.0123  0.4610  0.9901
  621MOL0     H81920  -0.223  10.415   5.124  1.0886 -0.5865  2.2668
  621MOL0     H81921  -0.522  10.478   5.116 -0.0184 -0.9786  1.5599
  621MOL0     H81922  -0.429  10.451   4.967  1.7964  1.3815 -0.1036
  621MOL0     H81923  -0.432  10.246   5.206 -0.0948 -1.8179 -0.2919
  621MOL0     H81924  -0.389  10.208   5.038  1.3774  0.6188  1.4102
  621MOL0     H81925  -0.559  10.261   4.858  1.1491 -0.9578  1.5502
  621MOL0     H81926  -0.873  10.151   4.800 -1.9163  0.3252 -0.5757
  621MOL0     H81927  -0.825  10.325   4.778 -1.8876  1.2669 -0.0725
  621MOL0     H81928  -0.993  10.397   4.932  1.0499  0.3077 -0.8596
  621MOL0     H81929  -1.031  10.221   4.978  2.4785  0.5807  0.8109
  621MOL0     H81930  -1.180  10.359   4.825 -0.2420 -1.4419  1.0976
  621MOL0     H81931  -1.048  10.371   4.703 -0.1275 -1.0926 -0.9488
  621MOL0     H81932  -1.148  10.109   4.788 -0.3989  0.1688  0.5157
  621MOL0     H81933  -1.046  10.148   4.650  0.2433  2.4774  0.2151
  621MOL0     H81934  -1.349  10.023   4.801 -1.4150 -1.3283  1.4871
  621MOL0     H81935  -1.487   9.837   4.749 -0.6583 -1.0246 -0.8967
  621MOL0     H81936  -1.893   9.788   4.465 -1.1841  0.1388  0.1144
  621MOL0     H81937  -2.083   9.661   4.369 -0.8471  2.1308 -1.2664
  621MOL0     H81938  -2.001   9.308   4.334  1.3164 -0.1233 -1.5755
  621MOL0     H81939  -2.016   9.281   4.153 -1.3927 -2.4497  0.1106
  621MOL0     H81940  -2.190   9.160   4.233  0.0022 -1.0263  1.8965
  621MOL0     H81941  -2.265   9.310   4.183  0.5255  0.6028  0.0384
  621MOL0     H81942  -2.240   9.386   4.433 -0.8873 -0.7150  0.4546
  621MOL0     H81943  -2.181   9.223   4.462  1.6845  2.4329  1.1994
  621MOL0     H81944  -2.455   9.276   4.361  0.5469  1.3867  0.6936
  621MOL0     H81945  -2.382   9.119   4.411 -2.6577 -1.1902  2.0399
  621MOL0     H81946  -2.446   9.371   4.564 -1.7444  0.1918  1.9624
  621MOL0     H81947  -2.333   9.253   4.634  0.6602 -0.5593 -0.3615
  621MOL0     H81948  -2.516   9.087   4.615 -2.4807 -0.9226 -0.9478
  621MOL0     H81949  -2.633   9.214   4.563 -1.8848  1.2278  3.8756
  621MOL0     H81950  -2.667   9.159   4.793  1.3908 -0.2863  1.8777
  621MOL0     H81951  -2.510   9.216   4.832 -0.9659 -2.6357  0.8278
  621MOL0     H81952  -2.554   9.442   4.729 -1.2328  2.6894 -0.8206
  621MOL0     H81953  -2.620   9.386   4.889 -1.5205 -2.0111 -0.2599
  621MOL0     H81954  -1.806   9.464   4.098  0.7203  1.2797 -1.0109
  621MOL0     H81955  -1.647   9.629   4.168 -0.7615 -2.0792 -0.6032
  621MOL0     H81956  -1.475   9.956   4.329 -0.7301  1.6668 -0.2378
  621MOL0     H81957  -1.314  10.135   4.395  0.5267  2.5614  1.7458
  621MOL0     H81958  -0.140  11.088   5.373  1.2599  1.5155 -1.0958
  621MOL0     H81959  -0.123  11.124   5.632  0.6259  1.1496  0.3415
  621MOL0     H81960   0.224  11.454   5.960  0.1035  0.8225  0.7989
  621MOL0     H81961   0.258  11.480   6.181  1.4255 -1.3375 -0.0550
  621MOL0     H81962   0.033  11.439   6.474 -1.8238 -0.0706 -4.6470
  621MOL0     H81963   0.167  11.502   6.376  0.1086 -0.1805 -0.1189
  621MOL0     H81964   0.167  11.389   6.650  1.2131 -1.5644 -0.8289
  621MOL0     H81965   0.318  11.372   6.555  0.3025  1.3623 -2.1053
  621MOL0     H81966   0.179  11.636   6.566 -0.0944 -0.6866  2.0273
  621MOL0     H81967   0.346  11.611   6.529 -1.4913  4.3177  0.0547
  621MOL0     H81968   0.383  11.525   6.770  0.1473  0.1404 -0.3594
  621MOL0     H81969   0.351  11.701   6.731 -0.5957  0.2335  1.1431
  621MOL0     H81970   0.077  11.525   7.013 -0.2279  1.8795  0.8181
  621MOL0     H81971   0.030  11.117   6.254  2.4303  0.0771  0.0568
  621MOL0     H81972   0.030  11.068   6.006  3.9556 -1.7161 -1.3826
  622MOL0     O81973  10.914   6.616   2.537 -0.0248  0.2762  0.0894
  622MOL0     C81974  10.896   6.707   2.457 -0.4704  0.3348 -0.4989
  622MOL0     O81975  10.795   6.796   2.456  0.1751  0.0877 -0.1178
  622MOL0     C81976  10.685   6.799   2.541 -0.4519  1.0937  0.9971
  622MOL0     C81977  10.697   6.754   2.670  0.3443 -0.8829  0.5155
  622MOL0     C81978  10.576   6.726   2.743 -0.8526  0.0179 -0.8422
  622MOL0     C81979  10.457   6.759   2.687  0.3934 -0.3365 -0.4875
  622MOL0     O81980  10.334   6.731   2.741  0.4196  0.9143 -0.6861
  622MOL0     C81981  10.338   6.690   2.884  0.4370 -0.2443 -0.6900
  622MOL0     C81982  10.201   6.688   2.950 -0.3465  0.4149  0.8770
  622MOL0     C81983  10.152   6.542   2.972  0.6518 -0.3736  0.2262
  622MOL0     C81984  10.004   6.532   2.992 -0.1164 -0.0559  0.5486
  622MOL0     C81985   9.989   6.409   3.081  0.3870 -0.2845 -1.1137
  622MOL0     C81986  10.059   6.276   3.044 -0.0251  0.6569  0.2918
  622MOL0     C81987  10.021   6.156   3.134  0.0713 -0.6964  0.9317
  622MOL0     C81988  10.116   6.037   3.110 -0.0958 -0.8106 -0.6443
  622MOL0     N81989  10.234   6.046   3.194  1.2921  0.3172 -0.1734
  622MOL0     C81990  10.309   5.938   3.210 -0.1239  0.6643 -0.4155
  622MOL0     C81991  10.417   5.975   3.284  0.3532 -0.7931 -0.2430
  622MOL0     C81992  10.551   5.911   3.322  0.1279  0.5591  0.5401
  622MOL0     C81993  10.661   5.940   3.220 -1.2657  0.5694  0.6072
  622MOL0     C81994  10.628   5.876   3.084 -0.0320  0.0042 -0.1833
  622MOL0     C81995  10.737   5.916   2.982 -0.4642 -0.3282 -0.5657
  622MOL0     O81996  10.709   5.852   2.856  0.1088  0.1057  0.3784
  622MOL0     C81997  10.816   5.804   2.785  0.0912 -0.0774 -0.7755
  622MOL0     C81998  10.920   5.880   2.747  0.0146 -0.5320 -0.7939
  622MOL0     C81999  11.021   5.827   2.663 -0.3238  0.6422 -0.0779
  622MOL0     C82000  11.015   5.691   2.623 -0.6089  0.9900 -0.9459
  622MOL0     C82001  11.121   5.632   2.524  0.8741  0.4406 -0.1385
  622MOL0     O82002  11.222   5.710   2.459  0.0691 -0.1973 -0.4014
  622MOL0     C82003  11.333   5.647   2.406  0.7573 -0.3089  0.2923
  622MOL0     C82004  11.428   5.570   2.481  0.0918  0.2208 -0.1519
  622MOL0     C82005  11.548   5.530   2.435  0.0912 -0.1973  0.3005
  622MOL0     C82006  11.580   5.547   2.300  0.4785 -1.5044 -0.6185
  622MOL0     O82007  11.710   5.511   2.257  0.6376  0.9669 -0.7871
  622MOL0     C82008  11.762   5.583   2.151  0.5212 -0.7168 -1.5365
  622MOL0     C82009  11.908   5.560   2.150 -0.4422 -0.6661 -0.0642
  622MOL0     C82010  11.977   5.427   2.110 -0.3280  0.4148  0.7478
  622MOL0     C82011  12.124   5.414   2.155  0.2990  0.5547 -0.3565
  622MOL0     C82012  12.179   5.266   2.155  0.5158 -0.5923  0.0431
  622MOL0     C82013  12.311   5.242   2.225  0.5645 -0.6370  0.1804
  622MOL0     C82014  12.350   5.096   2.248  0.6106 -0.3596  0.8945
  622MOL0     C82015  12.223   5.024   2.285 -0.1109  0.2577  0.4338
  622MOL0    Cl82016  12.255   4.848   2.327 -0.2654 -0.5536  0.3497
  622MOL0     C82017  11.482   5.611   2.224 -0.1399 -0.5082  0.1378
  622MOL0     C82018  11.359   5.661   2.276 -1.0233  0.0590 -0.0696
  622MOL0     O82019  11.119   5.511   2.518 -0.1272 -0.4228  0.6731
  622MOL0     C82020  10.909   5.606   2.670 -0.1526 -0.2221 -0.9068
  622MOL0     C82021  10.810   5.668   2.749 -0.1153 -0.0026 -0.3535
  622MOL0     N82022  10.385   6.103   3.330  0.3148 -0.8914  0.3834
  622MOL0     N82023  10.271   6.140   3.282 -0.7294  0.7827  0.1534
  622MOL0     C82024  10.451   6.822   2.559 -0.2982 -0.0265  0.0794
  622MOL0     C82025  10.570   6.848   2.484 -0.1152  0.1282  0.6545
  622MOL0     C82026  10.996   6.717   2.351 -0.1540  0.0705 -0.7244
  622MOL0     C82027  11.038   6.847   2.314  0.4521  0.1335  0.0892
  622MOL0     C82028  11.146   6.861   2.225 -0.5269  1.0537 -0.3749
  622MOL0     C82029  11.216   6.749   2.183  0.0469  0.0493  0.6160
  622MOL0     O82030  11.330   6.759   2.109  0.0175  0.1516  0.7316
  622MOL0     C82031  11.380   6.878   2.049  0.0844  0.0575  0.1204
  622MOL0     C82032  11.515   6.822   1.996  0.7723  0.6919  0.9252
  622MOL0     C82033  11.585   6.927   1.914 -0.6942 -0.0859 -0.0862
  622MOL0     C82034  11.726   6.868   1.855  0.1855 -0.5381 -0.0191
  622MOL0     C82035  11.813   6.847   1.974 -0.6193  1.0797  1.2824
  622MOL0     C82036  11.885   6.821   2.067  0.3830 -0.0077  0.4053
  622MOL0     C82037  11.171   6.614   2.215  0.7091 -0.3481  0.2628
  622MOL0     C82038  11.061   6.604   2.298  1.1926  0.1663  0.8800
  622MOL0     H82039  10.799   6.734   2.699  0.5438 -1.2296 -0.3931
  622MOL0     H82040  10.588   6.681   2.841  3.3853  3.0563  0.3131
  622MOL0     H82041  10.414   6.751   2.934 -0.5059 -1.4898  2.5087
  622MOL0     H82042  10.387   6.593   2.899  2.0547  0.7720  1.0100
  622MOL0     H82043  10.125   6.746   2.897  0.9153  1.2901 -0.0498
  622MOL0     H82044  10.207   6.741   3.045  3.1100 -0.0079  1.0511
  622MOL0     H82045  10.216   6.514   3.057  2.8502 -1.2737 -1.6247
  622MOL0     H82046  10.168   6.491   2.877 -2.2830 -0.9022 -0.0813
  622MOL0     H82047   9.963   6.619   3.044 -3.2415 -1.5614  0.8304
  622MOL0     H82048   9.943   6.528   2.902 -2.0710 -1.9844  1.8577
  622MOL0     H82049   9.880   6.400   3.090  0.1542  1.0772 -2.2620
  622MOL0     H82050  10.031   6.450   3.173  4.0195  1.4727 -3.3509
  622MOL0     H82051  10.166   6.291   3.058 -0.0566 -0.5013  2.0550
  622MOL0     H82052  10.035   6.257   2.939  0.2827  1.3869  0.0812
  622MOL0     H82053  10.038   6.187   3.237  2.1768 -2.4543  1.1940
  622MOL0     H82054   9.917   6.124   3.118 -0.8287  2.4482 -0.2485
  622MOL0     H82055  10.133   6.032   3.003 -1.3530  0.4381 -0.9413
  622MOL0     H82056  10.063   5.948   3.143 -2.2830  1.0107  1.1638
  622MOL0     H82057  10.288   5.842   3.163 -3.4512  1.1907 -0.2587
  622MOL0     H82058  10.526   5.805   3.315 -0.0745  0.7204 -1.5287
  622MOL0     H82059  10.581   5.943   3.423 -2.2882 -0.4138  1.6464
  622MOL0     H82060  10.751   5.889   3.256  0.8105  1.7547 -2.5076
  622MOL0     H82061  10.685   6.046   3.208  0.6435  0.0803 -0.1809
  622MOL0     H82062  10.628   5.767   3.078 -0.3985  0.0183 -0.4937
  622MOL0     H82063  10.529   5.917   3.063  0.5670  1.6917  0.1405
  622MOL0     H82064  10.832   5.884   3.027 -1.3791  0.6741  2.2442
  622MOL0     H82065  10.729   6.023   2.963  1.1239 -0.1292 -0.2623
  622MOL0     H82066  10.934   5.987   2.761 -2.4675 -0.4297  1.6454
  622MOL0     H82067  11.106   5.882   2.624  0.1415 -0.1396 -0.1916
  622MOL0     H82068  11.391   5.565   2.583 -1.5844 -3.0615 -0.7723
  622MOL0     H82069  11.616   5.488   2.510 -0.8318 -1.1412  0.6302
  622MOL0     H82070  11.751   5.690   2.167  2.2007 -0.6236 -0.8029
  622MOL0     H82071  11.708   5.566   2.057 -2.1536  3.0623 -0.8775
  622MOL0     H82072  11.945   5.573   2.252 -1.7261  2.0050  0.1558
  622MOL0     H82073  11.952   5.643   2.094  1.0905 -0.7230  0.9860
  622MOL0     H82074  11.977   5.410   2.002  2.0684  2.1809  0.3855
  622MOL0     H82075  11.919   5.347   2.158 -1.5170 -0.5497 -2.0601
  622MOL0     H82076  12.198   5.472   2.098  0.4652  1.9274  1.2009
  622MOL0     H82077  12.129   5.444   2.260 -0.2821 -0.3902 -0.0412
  622MOL0     H82078  12.182   5.230   2.052  1.8648  1.8700 -0.8656
  622MOL0     H82079  12.096   5.224   2.213 -1.9108  3.2192 -0.2772
  622MOL0     H82080  12.296   5.304   2.314  0.1384  0.5002 -0.6535
  622MOL0     H82081  12.391   5.295   2.171 -1.2654  0.2496 -1.8305
  622MOL0     H82082  12.389   5.050   2.157 -1.2318 -1.5432  0.6553
  622MOL0     H82083  12.424   5.086   2.328 -0.6292 -2.9606  1.8204
  622MOL0     H82084  12.159   5.021   2.196 -0.4393 -1.7129  0.6880
  622MOL0     H82085  12.174   5.060   2.375  0.3447 -1.5407  1.4490
  622MOL0     H82086  11.503   5.627   2.119 -0.4526  1.2563  0.3190
  622MOL0     H82087  11.294   5.721   2.214 -1.4062  1.7437  1.8471
  622MOL0     H82088  10.914   5.498   2.653  3.2690  0.0294 -2.2354
  622MOL0     H82089  10.733   5.607   2.796 -0.8430  0.1727 -1.3066
  622MOL0     H82090  10.356   6.862   2.528 -0.6832  0.3686  1.6621
  622MOL0     H82091  10.561   6.870   2.378  2.9935  0.6646  0.4125
  622MOL0     H82092  10.992   6.939   2.350  2.5372  0.2371  2.8119
  622MOL0     H82093  11.180   6.960   2.199 -1.5976  1.4431 -0.3299
  622MOL0     H82094  11.381   6.949   2.132 -0.3456 -0.0075  0.1885
  622MOL0     H82095  11.313   6.920   1.973 -2.1046 -2.5597  0.4221
  622MOL0     H82096  11.578   6.791   2.080 -0.1066 -1.1342  0.9522
  622MOL0     H82097  11.490   6.736   1.934 -0.1693  0.9477  0.9442
  622MOL0     H82098  11.623   7.007   1.978  2.5934 -2.9703  1.9725
  622MOL0     H82099  11.524   6.950   1.827  2.3995 -0.6418 -2.5711
  622MOL0     H82100  11.705   6.769   1.813 -2.0179  0.5125 -1.5640
  622MOL0     H82101  11.771   6.929   1.776 -0.6465  4.4237  2.9039
  622MOL0     H82102  11.956   6.802   2.145  0.8937  0.7774  0.1403
  622MOL0     H82103  11.224   6.522   2.192  0.3773 -0.3687 -0.4490
  622MOL0     H82104  11.025   6.508   2.331 -2.1972  0.8531 -0.4639
  623MOL0     O82105   1.768   7.093   5.496  0.0270  0.3691 -0.2630
  623MOL0     C82106   1.877   7.107   5.565 -0.2428  0.4032  0.5032
  623MOL0     O82107   1.897   7.072   5.701  0.1270 -0.2646  0.2549
  623MOL0     C82108   1.798   6.987   5.754 -0.1450 -0.4236  0.5275
  623MOL0     C82109   1.819   6.860   5.802  0.1238 -0.3937 -0.0937
  623MOL0     C82110   1.719   6.779   5.851 -0.3855  0.2999  0.3639
  623MOL0     C82111   1.586   6.828   5.863 -0.2316  0.5092  0.1356
  623MOL0     O82112   1.491   6.742   5.928  0.3844 -0.3256 -0.1656
  623MOL0     C82113   1.365   6.794   5.969 -0.2753 -0.3479  1.3053
  623MOL0     C82114   1.293   6.691   6.063 -1.2204 -0.0701 -0.1630
  623MOL0     C82115   1.382   6.628   6.169  0.3276 -0.7841  0.9647
  623MOL0     C82116   1.324   6.505   6.228 -0.5243  0.1869  0.0477
  623MOL0     C82117   1.408   6.422   6.333  0.2191 -1.2255 -0.2871
  623MOL0     C82118   1.332   6.303   6.402 -0.1444 -0.1422  0.1128
  623MOL0     C82119   1.447   6.225   6.471 -0.1901 -0.1825 -0.1321
  623MOL0     C82120   1.423   6.074   6.445 -0.2958 -0.3576  1.1073
  623MOL0     N82121   1.528   5.995   6.494  0.1119  0.6277  0.9556
  623MOL0     C82122   1.648   5.998   6.434  0.2054 -0.7449  0.8686
  623MOL0     C82123   1.719   5.918   6.511 -0.5263 -0.2382  0.2546
  623MOL0     C82124   1.866   5.889   6.506  0.4906 -0.1245  0.6850
  623MOL0     C82125   1.893   5.746   6.560  0.2235 -0.5222  0.7921
  623MOL0     C82126   2.040   5.709   6.514  0.2926 -0.9225 -0.0136
  623MOL0     C82127   2.085   5.573   6.567 -0.8045  0.0109  0.6912
  623MOL0     O82128   2.094   5.471   6.476  0.0243 -0.7005  0.5130
  623MOL0     C82129   2.128   5.340   6.518  0.0789 -0.7104  0.6752
  623MOL0     C82130   2.126   5.241   6.418 -0.6320  0.8302 -0.2248
  623MOL0     C82131   2.188   5.117   6.439 -0.0543 -0.8978  0.2591
  623MOL0     C82132   2.250   5.090   6.562 -0.3814  0.3033  0.4046
  623MOL0     C82133   2.308   4.958   6.597  0.0311 -0.3488 -0.5918
  623MOL0     O82134   2.355   4.894   6.487  0.6575 -0.1542  0.1434
  623MOL0     C82135   2.352   4.758   6.503 -0.5577  0.2690 -0.0313
  623MOL0     C82136   2.450   4.684   6.564  0.1634 -0.6034 -0.4451
  623MOL0     C82137   2.447   4.540   6.575 -0.2578 -0.1919  0.2021
  623MOL0     C82138   2.344   4.472   6.512 -0.0521  1.0742  0.4466
  623MOL0     O82139   2.335   4.332   6.523 -0.0839 -0.1903 -0.2402
  623MOL0     C82140   2.330   4.290   6.658 -0.0783 -0.1787 -0.0330
  623MOL0     C82141   2.216   4.351   6.751 -0.4061  0.0225  0.7424
  623MOL0     C82142   2.075   4.316   6.704  0.7358 -0.0846  0.4121
  623MOL0     C82143   2.033   4.174   6.718 -0.0745  0.5567  0.4616
  623MOL0     C82144   1.881   4.179   6.724  0.8416  1.1638  0.4495
  623MOL0     C82145   1.825   4.040   6.705 -0.0553 -0.4987  1.1503
  623MOL0     C82146   1.680   4.034   6.731  0.1507  0.6268  0.0699
  623MOL0     C82147   1.613   3.899   6.729 -0.8482 -0.3271 -0.2814
  623MOL0    Cl82148   1.658   3.838   6.564  0.5301 -0.3835  0.1619
  623MOL0     C82149   2.247   4.548   6.435  0.9393 -0.2422 -0.3744
  623MOL0     C82150   2.244   4.689   6.446 -0.5050 -0.2364  0.3894
  623MOL0     O82151   2.328   4.921   6.715 -0.5474 -0.4155  0.6893
  623MOL0     C82152   2.231   5.186   6.666 -0.0491  0.2006 -0.5744
  623MOL0     C82153   2.185   5.309   6.642  0.1087  0.3731  0.2434
  623MOL0     N82154   1.639   5.855   6.601  0.3690 -0.1514 -0.3167
  623MOL0     N82155   1.516   5.891   6.572 -0.1221 -0.2294 -0.2815
  623MOL0     C82156   1.565   6.954   5.814  0.0397  0.0119  0.2735
  623MOL0     C82157   1.669   7.031   5.757  0.0413  0.8220  1.3353
  623MOL0     C82158   1.995   7.171   5.497  0.3524  0.9646  0.2177
  623MOL0     C82159   2.009   7.170   5.349  0.4385  0.7364  0.4974
  623MOL0     C82160   2.095   7.256   5.279 -0.4411 -0.1799  0.2576
  623MOL0     C82161   2.185   7.329   5.349 -0.3649  0.3059  0.1794
  623MOL0     O82162   2.275   7.410   5.280 -0.2666 -0.1353 -0.7135
  623MOL0     C82163   2.414   7.400   5.310  0.2170 -0.4734 -0.7627
  623MOL0     C82164   2.476   7.262   5.318 -0.4466  0.3671  0.8552
  623MOL0     C82165   2.488   7.184   5.179 -0.2324  0.3872  0.2867
  623MOL0     C82166   2.505   7.041   5.203  1.4636  0.0548  0.1793
  623MOL0     C82167   2.631   7.024   5.267  0.4971 -0.6456 -0.2528
  623MOL0     C82168   2.741   7.000   5.319 -0.1938 -0.4498 -0.1612
  623MOL0     C82169   2.179   7.317   5.495 -0.3549  0.6994 -0.5221
  623MOL0     C82170   2.088   7.246   5.568  0.0771  0.1086  0.0980
  623MOL0     H82171   1.924   6.832   5.799  0.9243  2.3109 -2.2888
  623MOL0     H82172   1.743   6.687   5.905  1.8555  0.6327  0.0349
  623MOL0     H82173   1.310   6.827   5.880 -0.4829 -0.7636  1.2800
  623MOL0     H82174   1.383   6.883   6.031  0.6401  0.6385 -0.3008
  623MOL0     H82175   1.258   6.614   5.993 -2.0905 -0.2278  0.4180
  623MOL0     H82176   1.213   6.733   6.125  0.2340  0.3224  1.5571
  623MOL0     H82177   1.406   6.691   6.255  1.8583  2.6520 -1.7616
  623MOL0     H82178   1.479   6.600   6.125 -0.1627  0.8960 -1.3772
  623MOL0     H82179   1.225   6.533   6.265  0.1132  2.8557 -0.0302
  623MOL0     H82180   1.303   6.432   6.150 -2.4386  3.2053 -2.5036
  623MOL0     H82181   1.421   6.493   6.415 -1.4968  0.2139 -1.2039
  623MOL0     H82182   1.503   6.403   6.282  0.0140  0.3194 -1.2878
  623MOL0     H82183   1.293   6.233   6.328  1.9220 -1.4693  0.2007
  623MOL0     H82184   1.260   6.349   6.470  2.3025  0.9878  2.0831
  623MOL0     H82185   1.552   6.246   6.447  0.7908 -5.4760 -1.9208
  623MOL0     H82186   1.432   6.239   6.579 -0.9734  0.3354 -0.2997
  623MOL0     H82187   1.413   6.066   6.336 -2.7306 -0.8887  1.3242
  623MOL0     H82188   1.325   6.041   6.478 -0.4284 -0.9090  0.2073
  623MOL0     H82189   1.669   6.076   6.362  0.0988 -2.3291 -0.9610
  623MOL0     H82190   1.906   5.952   6.585 -0.7928  0.0603  1.2161
  623MOL0     H82191   1.908   5.915   6.408 -0.4188 -3.1356 -0.6080
  623MOL0     H82192   1.832   5.664   6.523 -2.8252  0.9596  2.1802
  623MOL0     H82193   1.886   5.742   6.669 -0.2640 -2.1960  0.7270
  623MOL0     H82194   2.054   5.712   6.406 -2.6655 -0.6688 -0.4506
  623MOL0     H82195   2.104   5.781   6.566 -2.0147  0.8642  0.5216
  623MOL0     H82196   2.023   5.548   6.653 -2.6430  2.3362  0.1386
  623MOL0     H82197   2.192   5.593   6.577 -0.5010 -0.1047 -1.7149
  623MOL0     H82198   2.068   5.263   6.329  1.4526  2.6270 -1.2167
  623MOL0     H82199   2.185   5.041   6.361  2.6049 -2.2757  1.3548
  623MOL0     H82200   2.532   4.739   6.609 -1.3041 -0.2257  1.9184
  623MOL0     H82201   2.521   4.496   6.641  0.8712  0.4440 -0.6160
  623MOL0     H82202   2.428   4.305   6.706 -0.0604  0.1493 -0.1682
  623MOL0     H82203   2.309   4.183   6.651  0.4820 -0.4480  1.8220
  623MOL0     H82204   2.237   4.457   6.765 -2.1000  0.4411  0.3404
  623MOL0     H82205   2.236   4.310   6.851 -0.3135 -1.5724  0.1025
  623MOL0     H82206   2.059   4.350   6.601  0.0152  2.3644  1.2671
  623MOL0     H82207   2.002   4.378   6.757  0.0928 -1.7406  1.5268
  623MOL0     H82208   2.063   4.107   6.637 -1.7600  0.8668 -0.4600
  623MOL0     H82209   2.065   4.121   6.809 -2.9709 -0.0940  1.2173
  623MOL0     H82210   1.837   4.237   6.642  1.2422  1.1403  0.2178
  623MOL0     H82211   1.852   4.222   6.821  1.2510  0.1077  1.0578
  623MOL0     H82212   1.887   3.964   6.754  0.2483  0.1420  1.7953
  623MOL0     H82213   1.827   4.023   6.597 -2.1010 -3.0910  1.4160
  623MOL0     H82214   1.660   4.075   6.831  0.0899  0.0951  0.2814
  623MOL0     H82215   1.644   4.100   6.652 -0.3670 -2.7910 -2.7568
  623MOL0     H82216   1.504   3.898   6.744 -0.9132 -2.1864 -0.6466
  623MOL0     H82217   1.652   3.838   6.811 -0.5502 -2.4196 -1.9096
  623MOL0     H82218   2.169   4.489   6.388  0.7100 -0.3145  0.0892
  623MOL0     H82219   2.170   4.737   6.383  1.0931 -0.6495 -1.8934
  623MOL0     H82220   2.265   5.153   6.764  0.7011 -2.0952 -1.5517
  623MOL0     H82221   2.198   5.378   6.724  0.8481  0.2105  0.2673
  623MOL0     H82222   1.462   6.977   5.785 -1.4322 -3.2390  2.3069
  623MOL0     H82223   1.635   7.128   5.720 -0.3144  1.0500  2.2128
  623MOL0     H82224   1.940   7.096   5.310  1.4718 -0.1693  0.3641
  623MOL0     H82225   2.108   7.270   5.172 -0.6594 -0.4498  0.1945
  623MOL0     H82226   2.421   7.444   5.410 -0.8190  1.1971 -1.3899
  623MOL0     H82227   2.473   7.457   5.237  2.3846  0.9438  1.9030
  623MOL0     H82228   2.577   7.276   5.360  0.9856  0.6161 -2.3913
  623MOL0     H82229   2.420   7.204   5.392  2.4683 -2.0976  1.3579
  623MOL0     H82230   2.572   7.220   5.119  0.5962  0.7476  1.6351
  623MOL0     H82231   2.398   7.197   5.119 -1.1421 -0.9936  1.2872
  623MOL0     H82232   2.421   7.002   5.261  0.6789  2.5786  0.8854
  623MOL0     H82233   2.507   6.984   5.110  2.0588  1.2497 -0.5687
  623MOL0     H82234   2.833   6.978   5.369  0.3580  0.8672 -0.5659
  623MOL0     H82235   2.243   7.373   5.562  0.6158 -1.3753  0.3835
  623MOL0     H82236   2.102   7.237   5.675  0.9478  0.0245 -0.0146
  624MOL0     O82237   4.460   8.043  10.522 -0.5171  0.4120  0.2793
  624MOL0     C82238   4.491   7.984  10.628  0.7748 -0.1286 -0.3114
  624MOL0     O82239   4.405   7.919  10.720 -0.0506 -0.2497  0.3150
  624MOL0     C82240   4.269   7.947  10.718 -0.1892  0.2845 -0.1306
  624MOL0     C82241   4.215   8.074  10.731  0.2060 -0.2802  0.5859
  624MOL0     C82242   4.076   8.087  10.735 -0.1702  0.3957 -0.2360
  624MOL0     C82243   3.994   7.974  10.717  0.5991 -0.5480  0.0553
  624MOL0     O82244   3.858   7.968  10.701  0.5080 -0.1805  0.4860
  624MOL0     C82245   3.781   8.056  10.776 -0.0388  0.3778 -0.1774
  624MOL0     C82246   3.634   8.040  10.744 -0.0121  0.1464 -1.0538
  624MOL0     C82247   3.603   8.046  10.596 -1.9349 -0.4042  0.5084
  624MOL0     C82248   3.454   8.036  10.590 -0.4359  0.1680 -0.1431
  624MOL0     C82249   3.406   8.012  10.442 -0.0718 -0.1419 -0.0415
  624MOL0     C82250   3.250   8.027  10.410 -0.8010  0.3797 -1.0794
  624MOL0     C82251   3.213   7.968  10.270  0.1054  0.5484 -0.0579
  624MOL0     C82252   3.063   8.007  10.232  0.8040 -0.3980  0.9924
  624MOL0     N82253   2.955   7.963  10.330  0.2040  0.3314 -0.0571
  624MOL0     C82254   2.856   8.037  10.378 -0.2176  0.0840  0.2617
  624MOL0     C82255   2.803   7.962  10.470 -0.5362  0.7217  0.0927
  624MOL0     C82256   2.672   7.988  10.536 -0.2474 -0.3340 -0.2961
  624MOL0     C82257   2.684   7.996  10.687 -0.2583 -0.3095 -0.4216
  624MOL0     C82258   2.674   7.855  10.750 -0.3709  0.0370  0.7869
  624MOL0     C82259   2.668   7.857  10.906 -0.2955 -0.1921  0.1708
  624MOL0     O82260   2.562   7.940  10.958 -0.2655  0.3261 -0.9388
  624MOL0     C82261   2.445   7.879  10.985 -0.0677 -0.0777  0.2811
  624MOL0     C82262   2.330   7.916  10.916  0.7282 -0.6425 -0.3187
  624MOL0     C82263   2.210   7.846  10.934  0.7849  0.4666 -0.2902
  624MOL0     C82264   2.202   7.734  11.016 -0.4886  0.0110  0.1518
  624MOL0     C82265   2.080   7.651  11.036  0.5721 -0.4094 -0.1524
  624MOL0     O82266   2.053   7.594  11.155  0.0584  0.1787 -0.8960
  624MOL0     C82267   1.950   7.499  11.184 -1.5588 -0.4328  0.0056
  624MOL0     C82268   1.982   7.400  11.275  0.4248  0.6694 -0.2043
  624MOL0     C82269   1.887   7.289  11.303 -0.8265 -0.6324  0.0497
  624MOL0     C82270   1.763   7.283  11.227 -0.4585 -0.4187 -0.4523
  624MOL0     O82271   1.667   7.192  11.247  0.4324  0.5809 -0.8163
  624MOL0     C82272   1.700   7.060  11.226 -0.7471  0.8501 -0.2565
  624MOL0     C82273   1.567   6.982  11.191  0.3235 -1.0654 -0.3470
  624MOL0     C82274   1.609   6.839  11.218 -0.1315  0.1563 -0.3228
  624MOL0     C82275   1.514   6.753  11.138  0.2947  0.0339  0.5787
  624MOL0     C82276   1.564   6.608  11.134 -0.3937 -0.4799  0.0086
  624MOL0     C82277   1.468   6.517  11.052 -0.0923  0.6797  0.0963
  624MOL0     C82278   1.535   6.383  11.006 -0.6994  0.0459  0.4604
  624MOL0     C82279   1.448   6.310  10.899  0.0608  0.5332  0.5221
  624MOL0    Cl82280   1.426   6.406  10.748  0.3812 -0.1245  0.1376
  624MOL0     C82281   1.749   7.382  11.131  0.1538  0.3828 -0.1538
  624MOL0     C82282   1.835   7.488  11.113  0.6266 -0.3459  0.2979
  624MOL0     O82283   2.001   7.648  10.938 -0.5588 -0.5290 -1.2487
  624MOL0     C82284   2.317   7.692  11.091  0.2982  0.1893 -0.0520
  624MOL0     C82285   2.428   7.777  11.080 -0.3114  0.5314 -0.2347
  624MOL0     N82286   2.869   7.837  10.479  0.3419  0.0298 -0.5320
  624MOL0     N82287   2.963   7.846  10.397  0.3277 -0.3534  0.3153
  624MOL0     C82288   4.059   7.853  10.708 -0.3183  0.7843  0.7434
  624MOL0     C82289   4.189   7.834  10.709 -0.8973 -0.2832 -0.2134
  624MOL0     C82290   4.633   7.956  10.657  0.5409  0.7170  0.6777
  624MOL0     C82291   4.728   8.024  10.586  0.0514  0.5137 -0.1511
  624MOL0     C82292   4.860   7.985  10.589 -0.2700 -0.8706 -0.3927
  624MOL0     C82293   4.906   7.891  10.681 -0.1156 -0.1778 -0.9429
  624MOL0     O82294   5.046   7.886  10.667  0.2371 -0.2797  0.3749
  624MOL0     C82295   5.123   7.854  10.785  0.4122 -0.2673  0.2166
  624MOL0     C82296   5.242   7.950  10.783 -0.3906 -1.0875 -0.4622
  624MOL0     C82297   5.294   7.982  10.642 -0.4460  0.6720  0.0885
  624MOL0     C82298   5.433   8.048  10.640  0.0405 -0.9874  0.2407
  624MOL0     C82299   5.454   8.173  10.704 -0.2249  0.6475  0.2238
  624MOL0     C82300   5.500   8.270  10.757 -0.4518 -0.1357  0.3644
  624MOL0     C82301   4.821   7.829  10.766  0.7765 -0.3541 -0.3878
  624MOL0     C82302   4.686   7.864  10.754 -0.1319 -0.4190 -0.4612
  624MOL0     H82303   4.277   8.163  10.735  1.1214 -0.7022 -2.1459
  624MOL0     H82304   4.038   8.188  10.753  2.3458  1.1078  1.6792
  624MOL0     H82305   3.823   8.156  10.765  1.7974 -0.3107  0.2461
  624MOL0     H82306   3.787   8.051  10.885  2.2512  2.6942 -0.1068
  624MOL0     H82307   3.580   8.120  10.795  0.4351  1.2049 -2.2054
  624MOL0     H82308   3.611   7.942  10.789 -0.0139  1.1569  1.3301
  624MOL0     H82309   3.650   7.963  10.543 -3.2701 -0.7018 -0.2618
  624MOL0     H82310   3.636   8.140  10.551 -1.0093 -0.7357  0.4786
  624MOL0     H82311   3.418   7.961  10.661  0.3544  0.1953  0.2934
  624MOL0     H82312   3.407   8.131  10.617  1.0025  1.5834 -2.2523
  624MOL0     H82313   3.439   7.912  10.411  4.9755  1.2672 -0.1818
  624MOL0     H82314   3.444   8.086  10.372 -3.6065  0.2842 -1.7406
  624MOL0     H82315   3.229   8.134  10.410 -0.5757  0.4363 -0.3006
  624MOL0     H82316   3.195   7.982  10.494  1.0594  1.1337  0.6341
  624MOL0     H82317   3.267   8.020  10.191  2.2694 -1.1534  0.2270
  624MOL0     H82318   3.223   7.859  10.267  2.6841  0.6635 -4.8266
  624MOL0     H82319   3.031   7.972  10.133  3.8758  0.8480 -0.5572
  624MOL0     H82320   3.052   8.115  10.243 -0.7275 -0.7591  4.6193
  624MOL0     H82321   2.830   8.135  10.339 -2.1755 -0.4483  0.0962
  624MOL0     H82322   2.597   7.911  10.515  1.6993 -3.1237  2.2556
  624MOL0     H82323   2.641   8.088  10.502  1.6150 -0.0825 -1.4005
  624MOL0     H82324   2.608   8.059  10.734  0.5142  1.5707 -1.5383
  624MOL0     H82325   2.784   8.036  10.710  1.2981 -3.6402 -0.7666
  624MOL0     H82326   2.583   7.808  10.713 -2.5857  1.8376  3.5865
  624MOL0     H82327   2.767   7.802  10.724  0.7797  2.7155 -0.9955
  624MOL0     H82328   2.758   7.902  10.948 -1.1840  1.5241  0.3405
  624MOL0     H82329   2.658   7.754  10.939  2.0372 -0.4957  0.1078
  624MOL0     H82330   2.336   8.005  10.855 -2.9609  1.6044  2.1358
  624MOL0     H82331   2.126   7.880  10.874 -0.1056  0.3364  0.8508
  624MOL0     H82332   2.068   7.385  11.339 -2.1043 -2.2251  2.9928
  624MOL0     H82333   1.908   7.216  11.381  2.3801 -0.4242 -0.4965
  624MOL0     H82334   1.750   7.031  11.319 -2.6882  0.7550  0.8068
  624MOL0     H82335   1.765   7.052  11.138 -0.5844  0.7357 -0.1275
  624MOL0     H82336   1.546   7.007  11.087  2.4415 -0.4857 -0.6853
  624MOL0     H82337   1.486   7.011  11.259 -0.9547  0.5833 -2.4374
  624MOL0     H82338   1.617   6.819  11.325  1.6077  0.6914 -0.3146
  624MOL0     H82339   1.711   6.824  11.181 -0.3545 -3.3733  0.1540
  624MOL0     H82340   1.416   6.742  11.186 -0.1005  0.2230 -0.1666
  624MOL0     H82341   1.490   6.780  11.034 -4.2203  0.4548  1.5267
  624MOL0     H82342   1.564   6.570  11.237  0.8395 -3.0255 -0.8360
  624MOL0     H82343   1.664   6.602  11.091 -0.4952  1.6615 -0.6160
  624MOL0     H82344   1.438   6.575  10.964 -0.4111 -0.5032 -0.5946
  624MOL0     H82345   1.376   6.491  11.105 -0.7445 -0.3230 -1.4580
  624MOL0     H82346   1.625   6.412  10.951 -0.8656 -0.2703  0.0128
  624MOL0     H82347   1.554   6.320  11.093  1.8591  2.5584  1.8869
  624MOL0     H82348   1.350   6.281  10.939  1.4759 -0.9082  3.2797
  624MOL0     H82349   1.481   6.210  10.869 -0.4912  1.7125 -5.0136
  624MOL0     H82350   1.667   7.366  11.062  0.9703  1.6457 -1.4594
  624MOL0     H82351   1.811   7.559  11.035  1.6214 -0.9666 -0.5983
  624MOL0     H82352   2.313   7.612  11.163 -1.3336 -1.0465 -1.4294
  624MOL0     H82353   2.511   7.739  11.139  0.4061 -1.1642 -2.1990
  624MOL0     H82354   3.996   7.768  10.683 -1.6864  1.2449  2.4760
  624MOL0     H82355   4.241   7.738  10.716  0.4023  0.3788 -0.4216
  624MOL0     H82356   4.698   8.092  10.507 -0.5382 -1.9801 -2.2030
  624MOL0     H82357   4.934   8.028  10.521  0.1222  0.1326  0.6414
  624MOL0     H82358   5.154   7.750  10.779  0.5677 -0.1971 -4.5095
  624MOL0     H82359   5.067   7.874  10.877 -0.5751 -0.5208 -0.3145
  624MOL0     H82360   5.208   8.048  10.818 -1.2869  0.2664 -4.6239
  624MOL0     H82361   5.321   7.903  10.843  0.2959  0.0943 -0.4147
  624MOL0     H82362   5.226   8.057  10.601 -0.8566  2.5965  3.8846
  624MOL0     H82363   5.297   7.887  10.586  0.6656  0.2783  0.7773
  624MOL0     H82364   5.505   7.975  10.678  0.4797 -0.9497 -0.5202
  624MOL0     H82365   5.453   8.075  10.536 -3.7133  1.8079  0.0156
  624MOL0     H82366   5.536   8.360  10.802  0.7199  0.4782 -1.6735
  624MOL0     H82367   4.849   7.751  10.837  2.3861  0.4092 -0.1236
  624MOL0     H82368   4.612   7.800  10.801 -1.3206 -0.7855 -2.6882
  625MOL0     O82369   1.893   9.837   5.731 -0.6376  0.3614  0.0492
  625MOL0     C82370   1.997   9.866   5.784 -0.6356 -0.2856 -0.7736
  625MOL0     O82371   2.120   9.892   5.723 -0.5011  0.1244 -0.1623
  625MOL0     C82372   2.107   9.907   5.583 -0.8252  0.0547  0.0332
  625MOL0     C82373   2.172   9.820   5.493 -0.0248 -0.1496 -0.2659
  625MOL0     C82374   2.147   9.837   5.360  0.9927 -0.0046  0.7240
  625MOL0     C82375   2.056   9.927   5.306 -0.2729  0.2986 -0.8378
  625MOL0     O82376   2.031   9.924   5.166 -0.3533  0.5688 -0.0723
  625MOL0     C82377   1.960  10.033   5.094  0.8885  0.7120 -0.4822
  625MOL0     C82378   1.942   9.981   4.947  0.5482  1.0375  0.3991
  625MOL0     C82379   1.876   9.837   4.943  0.3636 -0.5065  0.5297
  625MOL0     C82380   1.859   9.767   4.799 -0.2093  0.0617 -0.8747
  625MOL0     C82381   1.726   9.822   4.734  1.2387 -0.4391 -0.2949
  625MOL0     C82382   1.685   9.720   4.631  0.4253 -0.0809  1.3791
  625MOL0     C82383   1.624   9.589   4.700 -0.5372 -0.2622 -0.0684
  625MOL0     C82384   1.623   9.476   4.599  0.0290  1.0686  0.5333
  625MOL0     N82385   1.518   9.379   4.632 -1.0114  0.1515  0.4255
  625MOL0     C82386   1.546   9.277   4.720 -0.8425 -1.0626  0.0207
  625MOL0     C82387   1.429   9.221   4.742 -0.3091 -0.1103  0.4031
  625MOL0     C82388   1.407   9.100   4.830 -0.5578  0.0764 -0.5427
  625MOL0     C82389   1.410   8.965   4.749  0.0366 -0.4342  0.3860
  625MOL0     C82390   1.386   8.834   4.826 -0.8384  0.2836  0.2034
  625MOL0     C82391   1.494   8.819   4.937 -0.1714  0.4080 -0.5207
  625MOL0     O82392   1.517   8.693   4.999  0.0048 -1.0986  1.0449
  625MOL0     C82393   1.423   8.648   5.088 -0.5621 -0.1782 -0.9503
  625MOL0     C82394   1.360   8.530   5.080  0.0188  0.4171 -0.5742
  625MOL0     C82395   1.268   8.487   5.181 -0.5578 -0.4799  0.2479
  625MOL0     C82396   1.242   8.571   5.292  0.2705  0.4863 -0.0018
  625MOL0     C82397   1.141   8.526   5.392 -0.7699 -0.5673 -0.0816
  625MOL0     O82398   1.062   8.422   5.364  0.2109  0.7415  0.0562
  625MOL0     C82399   0.939   8.401   5.428 -0.1123  0.2777 -0.4427
  625MOL0     C82400   0.916   8.277   5.477 -0.6282 -0.2677  0.7318
  625MOL0     C82401   0.801   8.240   5.555 -0.9709 -0.7757 -0.3307
  625MOL0     C82402   0.715   8.346   5.598  0.1589 -0.3302  0.3788
  625MOL0     O82403   0.599   8.308   5.659  0.0732 -0.2036  1.0323
  625MOL0     C82404   0.570   8.381   5.779 -0.2397 -0.2819 -0.2496
  625MOL0     C82405   0.560   8.292   5.907 -0.6131  0.0143  0.2001
  625MOL0     C82406   0.683   8.217   5.953 -0.3776  0.7647 -0.2261
  625MOL0     C82407   0.637   8.093   6.037 -0.5444 -0.3672  0.2425
  625MOL0     C82408   0.732   8.019   6.125  0.3195  0.5433 -0.1866
  625MOL0     C82409   0.685   7.882   6.175 -0.9676  0.8130  0.1760
  625MOL0     C82410   0.811   7.822   6.234 -1.1602 -0.4955  0.2785
  625MOL0     C82411   0.780   7.715   6.333 -0.0413  1.2128  0.2987
  625MOL0    Cl82412   0.722   7.796   6.481 -0.3739 -0.1736 -0.9693
  625MOL0     C82413   0.735   8.477   5.549  0.1342  1.5027  0.5333
  625MOL0     C82414   0.840   8.497   5.463 -1.2822 -0.2133 -1.0111
  625MOL0     O82415   1.129   8.600   5.487  0.3041  0.6355 -0.0850
  625MOL0     C82416   1.318   8.674   5.309  0.0804 -1.8587  1.4311
  625MOL0     C82417   1.411   8.721   5.210 -0.2349 -0.0344  0.8352
  625MOL0     N82418   1.338   9.289   4.660 -0.1619 -0.1682 -1.1426
  625MOL0     N82419   1.392   9.387   4.599 -0.3339  0.6887 -0.6971
  625MOL0     C82420   2.003  10.018   5.402  0.1421 -0.3633  0.0322
  625MOL0     C82421   2.035  10.015   5.531 -0.9470  0.0567 -0.0274
  625MOL0     C82422   2.010   9.873   5.933 -0.1029 -0.2345 -0.4775
  625MOL0     C82423   1.931   9.790   6.016  0.5457  0.4459  0.2159
  625MOL0     C82424   1.944   9.800   6.152 -0.6737  0.0217 -0.6141
  625MOL0     C82425   2.041   9.884   6.219  0.2069 -0.5189  0.8018
  625MOL0     O82426   2.054   9.911   6.348 -0.4413  0.8844 -0.0896
  625MOL0     C82427   1.994   9.820   6.443 -0.7137 -0.7744 -0.1463
  625MOL0     C82428   1.977   9.894   6.580 -0.2246  0.2295  0.2078
  625MOL0     C82429   1.906   9.805   6.687 -0.5461  0.3383  0.7622
  625MOL0     C82430   1.981   9.680   6.728  0.3701  0.6163  0.0785
  625MOL0     C82431   1.926   9.621   6.853  0.3139  0.0954  0.2688
  625MOL0     C82432   1.873   9.589   6.956  0.8530  0.5154  0.2934
  625MOL0     C82433   2.119   9.960   6.128 -0.7917 -0.6159 -0.3583
  625MOL0     C82434   2.110   9.946   5.992 -0.3052 -0.5955  0.2090
  625MOL0     H82435   2.246   9.748   5.527  0.1224  0.1851  0.1178
  625MOL0     H82436   2.204   9.771   5.296  0.0086 -1.3419  1.1656
  625MOL0     H82437   2.026  10.120   5.088  3.1159 -0.8830 -0.3954
  625MOL0     H82438   1.868  10.058   5.148  0.5303  2.7451 -1.8835
  625MOL0     H82439   2.034   9.972   4.889 -0.1783 -0.7810 -0.5462
  625MOL0     H82440   1.881  10.046   4.884  0.6025  1.7672  1.0793
  625MOL0     H82441   1.779   9.827   4.992  0.5045 -0.8799  0.7327
  625MOL0     H82442   1.935   9.767   5.001 -0.8790 -1.0455  1.1792
  625MOL0     H82443   1.940   9.787   4.730  0.9955 -1.7649 -0.0824
  625MOL0     H82444   1.858   9.660   4.822 -2.7750 -0.1184 -1.4509
  625MOL0     H82445   1.753   9.921   4.696 -1.2640  1.1285  1.7243
  625MOL0     H82446   1.654   9.825   4.816  0.9304 -0.2712 -0.5696
  625MOL0     H82447   1.772   9.688   4.573 -1.2026 -1.7864 -0.2689
  625MOL0     H82448   1.614   9.765   4.561  0.2094 -1.4328  0.6982
  625MOL0     H82449   1.685   9.559   4.786 -2.6669  1.4585  2.2113
  625MOL0     H82450   1.522   9.617   4.729  0.0806  0.7238  1.2754
  625MOL0     H82451   1.718   9.423   4.595 -0.5879 -0.1304  1.0361
  625MOL0     H82452   1.615   9.507   4.494 -1.3761  2.4016  0.9985
  625MOL0     H82453   1.641   9.249   4.764  1.1083 -0.3894 -3.4329
  625MOL0     H82454   1.304   9.111   4.865 -0.8971 -0.8665 -1.1951
  625MOL0     H82455   1.485   9.104   4.906  0.4745 -3.4910 -1.2387
  625MOL0     H82456   1.504   8.969   4.693 -1.4282 -0.3235 -2.2149
  625MOL0     H82457   1.332   8.971   4.672  0.6344  3.7581 -0.1517
  625MOL0     H82458   1.290   8.821   4.878 -1.6814 -0.2441 -1.4203
  625MOL0     H82459   1.396   8.750   4.757 -0.1370 -0.6678  1.4139
  625MOL0     H82460   1.478   8.891   5.018 -1.4798  0.7328 -1.0465
  625MOL0     H82461   1.588   8.845   4.888 -0.3717  2.7582  0.2291
  625MOL0     H82462   1.380   8.468   4.993  0.1595  1.1560 -1.0739
  625MOL0     H82463   1.219   8.389   5.178 -0.7198 -0.5565  2.7993
  625MOL0     H82464   0.997   8.206   5.458  1.1986  2.1282 -1.1692
  625MOL0     H82465   0.784   8.138   5.588 -1.3396  0.0992  2.4651
  625MOL0     H82466   0.469   8.420   5.764 -0.0160  0.5324  0.2815
  625MOL0     H82467   0.625   8.475   5.795 -1.4226  0.6081 -1.2614
  625MOL0     H82468   0.494   8.208   5.882  2.2694 -2.3998  0.1572
  625MOL0     H82469   0.509   8.338   5.992  0.1274 -0.9784  1.2133
  625MOL0     H82470   0.748   8.270   6.024 -0.2064  0.5951 -0.2545
  625MOL0     H82471   0.738   8.191   5.862  1.0875  1.3855  0.4474
  625MOL0     H82472   0.558   8.128   6.104  0.3539 -1.2899  1.8286
  625MOL0     H82473   0.601   8.021   5.963 -1.5337 -0.1506  0.5022
  625MOL0     H82474   0.749   8.077   6.216 -0.7489 -0.8499  0.9700
  625MOL0     H82475   0.818   8.010   6.058 -1.9909 -3.4716 -3.1042
  625MOL0     H82476   0.631   7.821   6.103 -1.7421  0.0374  1.3728
  625MOL0     H82477   0.618   7.908   6.258  0.0801  1.1918  0.9246
  625MOL0     H82478   0.872   7.778   6.154 -1.8082 -4.4712  1.7745
  625MOL0     H82479   0.869   7.897   6.288 -0.3109 -0.2485 -0.9275
  625MOL0     H82480   0.858   7.641   6.350 -1.1960 -0.1332 -0.0370
  625MOL0     H82481   0.699   7.648   6.301  1.8552 -1.5871  0.9892
  625MOL0     H82482   0.657   8.550   5.567 -1.9976 -0.1207 -1.4138
  625MOL0     H82483   0.859   8.601   5.442  1.5234  0.5090  3.7801
  625MOL0     H82484   1.312   8.739   5.396 -1.9070 -0.7813  0.5748
  625MOL0     H82485   1.465   8.815   5.215 -1.7221  0.9794 -0.8043
  625MOL0     H82486   1.934  10.096   5.371 -1.1093 -0.7971  1.6139
  625MOL0     H82487   1.979  10.078   5.600 -2.3273 -1.3593  0.1810
  625MOL0     H82488   1.850   9.740   5.964 -1.8827  1.7389  2.5165
  625MOL0     H82489   1.866   9.745   6.203 -1.2198  1.1104 -0.2381
  625MOL0     H82490   2.063   9.735   6.441  1.8852  1.1533 -3.0725
  625MOL0     H82491   1.890   9.796   6.418 -2.6335  2.9468  3.1882
  625MOL0     H82492   2.073   9.928   6.620  0.9453 -2.0096 -0.4835
  625MOL0     H82493   1.915   9.982   6.563 -1.5889 -0.9102 -0.9370
  625MOL0     H82494   1.806   9.781   6.650  0.1272 -0.2134 -0.7494
  625MOL0     H82495   1.891   9.880   6.765  2.0799  3.1189 -1.1786
  625MOL0     H82496   1.994   9.611   6.645  2.1598  0.2835  0.5951
  625MOL0     H82497   2.084   9.710   6.749  0.2265  1.7718 -0.7579
  625MOL0     H82498   1.813   9.572   7.042  0.7423  0.6179  0.2361
  625MOL0     H82499   2.186  10.036   6.168 -0.6709  0.1503 -1.9128
  625MOL0     H82500   2.188   9.994   5.934  0.5041 -2.0043  0.0729
  626MOL0     O82501   4.327  10.562  10.786 -0.2657  0.4701 -0.1564
  626MOL0     C82502   4.451  10.551  10.793  0.7265 -0.1040 -0.5016
  626MOL0     O82503   4.525  10.455  10.731  0.5903 -0.8024  0.3629
  626MOL0     C82504   4.481  10.326  10.704  0.2376 -0.2555  0.1961
  626MOL0     C82505   4.348  10.273  10.726 -0.2471  0.3326  0.7277
  626MOL0     C82506   4.308  10.139  10.695 -0.7851  0.0281  0.0894
  626MOL0     C82507   4.398  10.043  10.634  0.0516 -0.8868  1.3227
  626MOL0     O82508   4.380   9.912  10.617 -0.5031  0.5658  0.3782
  626MOL0     C82509   4.335   9.852  10.730  0.4967  0.3806 -0.4169
  626MOL0     C82510   4.396   9.711  10.725  0.4244  0.6740  0.7372
  626MOL0     C82511   4.347   9.631  10.839  0.1135 -0.1866 -0.1748
  626MOL0     C82512   4.343   9.482  10.813  0.4515 -0.6464  1.1589
  626MOL0     C82513   4.326   9.390  10.925 -0.1353  0.3356  0.3301
  626MOL0     C82514   4.358   9.246  10.875  0.0671 -1.3472  0.0419
  626MOL0     C82515   4.319   9.135  10.972  0.4027 -0.2546  0.1049
  626MOL0     C82516   4.415   9.111  11.082  0.8768  0.0310 -0.7026
  626MOL0     N82517   4.382   9.169  11.215 -0.0134 -0.0316  0.9065
  626MOL0     C82518   4.295   9.123  11.307  0.1849 -0.5545 -0.8972
  626MOL0     C82519   4.292   9.216  11.404  0.3992  0.5976 -0.2283
  626MOL0     C82520   4.198   9.220  11.530 -0.1768  0.0360  0.1369
  626MOL0     C82521   4.249   9.310  11.643  1.0229 -1.1646 -0.5671
  626MOL0     C82522   4.145   9.315  11.765  0.8539  0.7698 -0.5890
  626MOL0     C82523   4.075   9.445  11.776  0.3111 -0.6092 -0.3404
  626MOL0     O82524   4.037   9.491  11.650  0.2587  0.4263  0.4197
  626MOL0     C82525   3.942   9.586  11.658 -0.1120  0.2419  0.2321
  626MOL0     C82526   3.805   9.549  11.660 -0.3828 -0.1131 -0.5679
  626MOL0     C82527   3.713   9.652  11.677  0.2210  0.3685 -0.5120
  626MOL0     C82528   3.752   9.783  11.697 -0.9460 -0.2392  0.7273
  626MOL0     C82529   3.656   9.884  11.743 -0.1745 -0.2977  0.4833
  626MOL0     O82530   3.523   9.852  11.739  0.2827  0.3001  0.0094
  626MOL0     C82531   3.428   9.948  11.747 -1.6908  0.2392 -0.0928
  626MOL0     C82532   3.371   9.972  11.862  0.1029 -0.5841 -0.1226
  626MOL0     C82533   3.273  10.070  11.878 -0.0025 -1.2260 -0.2451
  626MOL0     C82534   3.237  10.152  11.763 -0.8129 -0.4119 -0.3681
  626MOL0     O82535   3.148  10.256  11.779  0.3808 -0.3753 -0.1701
  626MOL0     C82536   3.088  10.336  11.681 -0.0200  0.2423  0.3417
  626MOL0     C82537   2.939  10.302  11.649 -0.0424 -0.2566 -0.7160
  626MOL0     C82538   2.850  10.429  11.637 -0.7675 -0.3072 -0.0049
  626MOL0     C82539   2.843  10.480  11.492  0.6203 -0.3771  0.4415
  626MOL0     C82540   2.977  10.505  11.433 -1.2821  0.3376 -0.1476
  626MOL0     C82541   2.947  10.605  11.313 -0.9105  0.2572 -0.0634
  626MOL0     C82542   2.849  10.546  11.207  0.4564 -0.1966 -0.6786
  626MOL0     C82543   2.858  10.626  11.067 -0.5818  0.1748 -0.3318
  626MOL0    Cl82544   2.771  10.768  11.036  0.1230  0.6867  0.6767
  626MOL0     C82545   3.291  10.112  11.638 -0.5836 -0.1838 -0.2380
  626MOL0     C82546   3.389  10.009  11.627  0.4088 -0.0025 -0.6791
  626MOL0     O82547   3.696   9.986  11.790  0.5115 -0.3746 -0.3470
  626MOL0     C82548   3.891   9.812  11.688 -0.6200  0.2133  0.5168
  626MOL0     C82549   3.980   9.719  11.663 -0.4757  0.7498 -0.1432
  626MOL0     N82550   4.369   9.319  11.365  0.3020  0.0423  0.6687
  626MOL0     N82551   4.422   9.286  11.253 -0.2187 -0.8870  0.1795
  626MOL0     C82552   4.514  10.111  10.582  1.0326  0.2587  0.6473
  626MOL0     C82553   4.556  10.232  10.626 -0.5259 -0.3822 -0.1242
  626MOL0     C82554   4.513  10.636  10.898 -0.4671 -0.2268  1.0439
  626MOL0     C82555   4.647  10.672  10.882  0.8977 -0.8479 -0.1044
  626MOL0     C82556   4.717  10.749  10.968  0.4011 -0.0709  0.2715
  626MOL0     C82557   4.658  10.795  11.077  0.1377  0.1967 -0.3440
  626MOL0     O82558   4.741  10.863  11.157  0.2894 -0.6425  0.3181
  626MOL0     C82559   4.761  10.813  11.297 -0.4804 -0.4646  0.6502
  626MOL0     C82560   4.684  10.903  11.393 -0.1784 -0.2039  0.7936
  626MOL0     C82561   4.765  10.943  11.513 -0.0133 -0.2265  0.5379
  626MOL0     C82562   4.685  10.998  11.631 -0.5574 -0.5524 -0.6632
  626MOL0     C82563   4.772  11.048  11.738 -0.0330  0.1610  0.7157
  626MOL0     C82564   4.834  11.086  11.830 -0.4664  0.7210  0.2415
  626MOL0     C82565   4.516  10.765  11.101  0.1675 -0.9494  0.6774
  626MOL0     C82566   4.448  10.690  11.005  0.4636  0.4370  0.2810
  626MOL0     H82567   4.274  10.343  10.766  0.6067 -0.0281  3.1039
  626MOL0     H82568   4.210  10.101  10.724 -0.4113 -1.8983 -0.9559
  626MOL0     H82569   4.226   9.843  10.731  0.6658 -2.7069  1.0059
  626MOL0     H82570   4.372   9.898  10.822  1.5183 -1.3821  0.1016
  626MOL0     H82571   4.502   9.699  10.702  0.4373 -0.0750  1.1598
  626MOL0     H82572   4.356   9.675  10.630 -2.1353  1.7645  1.3196
  626MOL0     H82573   4.253   9.674  10.876  0.9291  2.5690 -1.1264
  626MOL0     H82574   4.425   9.649  10.913 -0.3513  1.6114 -0.0921
  626MOL0     H82575   4.251   9.464  10.756  0.4359  1.0199  0.6098
  626MOL0     H82576   4.439   9.460  10.767  0.4624  0.0422  0.8385
  626MOL0     H82577   4.230   9.386  10.977  0.2565  0.7800  1.1158
  626MOL0     H82578   4.406   9.420  10.994 -0.5449  1.1353  0.4726
  626MOL0     H82579   4.466   9.251  10.861  0.3345  2.4445  2.1998
  626MOL0     H82580   4.321   9.230  10.774  0.3121  1.1723 -0.5034
  626MOL0     H82581   4.216   9.135  11.008  0.3973  0.3136  0.0998
  626MOL0     H82582   4.317   9.042  10.914 -0.6387 -1.6918  2.2986
  626MOL0     H82583   4.511   9.145  11.040  1.1060  1.4385  0.8289
  626MOL0     H82584   4.409   9.005  11.106 -0.7807 -0.0786 -1.4848
  626MOL0     H82585   4.240   9.029  11.301  0.9614 -1.0571 -0.3731
  626MOL0     H82586   4.165   9.121  11.565 -1.7302  1.4498  3.0811
  626MOL0     H82587   4.106   9.267  11.496 -0.3819 -1.6595 -1.8420
  626MOL0     H82588   4.268   9.413  11.611  0.4568 -0.9077 -0.0859
  626MOL0     H82589   4.348   9.274  11.674  2.3071  1.5605 -1.2003
  626MOL0     H82590   4.075   9.233  11.749  1.2000 -0.0999  1.8602
  626MOL0     H82591   4.204   9.310  11.858  0.4718  0.1516 -0.3763
  626MOL0     H82592   4.137   9.528  11.812 -2.4242  2.7581 -2.7662
  626MOL0     H82593   3.989   9.440  11.844 -0.8988  1.2215 -1.6490
  626MOL0     H82594   3.778   9.450  11.625  2.9419 -1.3821  0.1438
  626MOL0     H82595   3.609   9.622  11.666  0.0244  1.6154 -2.6697
  626MOL0     H82596   3.402   9.913  11.948 -0.6717 -0.4915  0.2357
  626MOL0     H82597   3.210  10.091  11.964 -2.0291 -3.5554 -1.0528
  626MOL0     H82598   3.157  10.330  11.597 -1.2588 -3.1549 -0.5919
  626MOL0     H82599   3.097  10.435  11.727 -1.4559 -0.0131  1.2229
  626MOL0     H82600   2.909  10.241  11.735 -1.7279  1.0164 -0.3422
  626MOL0     H82601   2.942  10.243  11.557  2.8355 -0.9910 -0.2613
  626MOL0     H82602   2.900  10.510  11.690 -1.2349  2.3065 -3.2283
  626MOL0     H82603   2.748  10.426  11.678 -1.1665 -3.6716 -0.8861
  626MOL0     H82604   2.799  10.400  11.431  3.0576 -1.6585  0.2341
  626MOL0     H82605   2.784  10.572  11.491  2.5793  0.9567  1.6035
  626MOL0     H82606   3.019  10.415  11.387 -2.1038 -0.6193  0.9162
  626MOL0     H82607   3.041  10.550  11.510  1.3808 -0.9575 -1.4711
  626MOL0     H82608   3.042  10.626  11.264 -0.7156  3.2374  1.4002
  626MOL0     H82609   2.914  10.706  11.336 -0.7125  0.7236 -1.7501
  626MOL0     H82610   2.888  10.446  11.188  2.6992  0.7700 -1.5736
  626MOL0     H82611   2.747  10.541  11.244  0.2127  5.6305  0.3776
  626MOL0     H82612   2.818  10.556  10.993 -2.2777 -0.4742  1.1307
  626MOL0     H82613   2.963  10.643  11.041  0.4956 -3.9645  0.5413
  626MOL0     H82614   3.258  10.153  11.543  1.6162  5.3072  0.9661
  626MOL0     H82615   3.442   9.998  11.532  0.4690 -1.4595 -0.4913
  626MOL0     H82616   3.915   9.916  11.704 -2.6378  0.6333  1.0744
  626MOL0     H82617   4.085   9.746  11.654 -0.3865  0.9565  1.3845
  626MOL0     H82618   4.583  10.051  10.524 -2.3249 -1.4486 -1.9017
  626MOL0     H82619   4.658  10.263  10.604 -0.5568 -2.3821 -3.8921
  626MOL0     H82620   4.699  10.649  10.790  2.6393  1.6683  0.1379
  626MOL0     H82621   4.812  10.797  10.943 -0.3973  2.2873  1.4193
  626MOL0     H82622   4.869  10.815  11.315 -0.9178 -0.3236  3.8796
  626MOL0     H82623   4.729  10.709  11.306 -4.6865  0.1253 -3.5421
  626MOL0     H82624   4.656  10.994  11.339 -0.8488 -1.1649 -0.5018
  626MOL0     H82625   4.598  10.848  11.431  0.5647 -0.7498  1.7531
  626MOL0     H82626   4.827  11.027  11.481 -1.2609 -0.0051 -1.4633
  626MOL0     H82627   4.830  10.859  11.541  2.4222  2.1553  2.5053
  626MOL0     H82628   4.602  11.065  11.606  1.3228  1.6815 -1.3040
  626MOL0     H82629   4.630  10.916  11.677 -0.7733 -1.9519 -3.2181
  626MOL0     H82630   4.878  11.107  11.926  0.5704 -2.5888  0.6234
  626MOL0     H82631   4.452  10.805  11.178  1.0782 -1.0803  1.5242
  626MOL0     H82632   4.340  10.673  11.009  0.5935 -0.5095  0.0709
  627MOL0     O82633   6.222   7.761   3.419  0.4159  0.0494 -1.1912
  627MOL0     C82634   6.281   7.750   3.312  0.8344 -1.6957 -1.2726
  627MOL0     O82635   6.338   7.865   3.243  0.0471  0.2385  0.6136
  627MOL0     C82636   6.358   7.977   3.325  0.0888  0.9590  0.0258
  627MOL0     C82637   6.265   8.075   3.349 -0.1210 -1.6075 -0.0466
  627MOL0     C82638   6.298   8.187   3.426  0.0768  0.7743  0.3363
  627MOL0     C82639   6.424   8.194   3.486  0.2490  0.3772 -0.3385
  627MOL0     O82640   6.453   8.288   3.574 -0.1558 -0.2330  0.1905
  627MOL0     C82641   6.455   8.419   3.507 -0.4453 -0.6659 -0.0084
  627MOL0     C82642   6.532   8.531   3.577 -0.4965 -0.6131 -0.4173
  627MOL0     C82643   6.507   8.672   3.538  0.9511 -0.1478 -0.0422
  627MOL0     C82644   6.554   8.715   3.392 -0.5145  0.2492  1.1708
  627MOL0     C82645   6.576   8.864   3.368 -0.4629  0.9321 -0.4289
  627MOL0     C82646   6.455   8.952   3.381 -0.6186 -0.9754 -0.4242
  627MOL0     C82647   6.470   9.093   3.328 -0.7822  0.7451 -0.0280
  627MOL0     C82648   6.571   9.172   3.417  0.5176  0.4992 -0.0812
  627MOL0     N82649   6.583   9.313   3.383  1.1088 -0.3171  0.5475
  627MOL0     C82650   6.483   9.402   3.418  0.3431 -0.0335  0.6199
  627MOL0     C82651   6.512   9.514   3.350 -0.1409  0.1030 -0.5745
  627MOL0     C82652   6.454   9.659   3.359  0.0934  0.3389  0.5232
  627MOL0     C82653   6.322   9.655   3.434  0.3835  1.0221 -0.2262
  627MOL0     C82654   6.338   9.625   3.590 -0.4855 -1.2181  0.0484
  627MOL0     C82655   6.282   9.742   3.670  0.9228 -0.2618 -0.7943
  627MOL0     O82656   6.339   9.870   3.644 -0.4765  0.1137 -0.2880
  627MOL0     C82657   6.410   9.939   3.745 -0.5187 -0.9077 -0.2592
  627MOL0     C82658   6.468   9.870   3.849 -0.4636 -0.1693 -0.0225
  627MOL0     C82659   6.550   9.933   3.943  0.4358  0.4920  0.2863
  627MOL0     C82660   6.562  10.076   3.948  0.2892  0.5413 -0.6134
  627MOL0     C82661   6.637  10.153   4.060 -1.4215  0.5524  0.5940
  627MOL0     O82662   6.582  10.275   4.093 -0.0705  0.5308 -0.3232
  627MOL0     C82663   6.660  10.364   4.157 -1.0037  0.5115 -0.4630
  627MOL0     C82664   6.661  10.373   4.298  0.3672 -0.6147 -0.4427
  627MOL0     C82665   6.721  10.486   4.354 -0.0629  0.3105 -0.0645
  627MOL0     C82666   6.801  10.566   4.271 -0.9429  0.0766  0.7204
  627MOL0     O82667   6.868  10.668   4.338  0.0129 -0.1689  0.0167
  627MOL0     C82668   6.998  10.708   4.287 -0.2043  0.7321  0.3440
  627MOL0     C82669   7.074  10.774   4.402 -0.2495  0.1370 -0.2764
  627MOL0     C82670   7.012  10.908   4.418 -0.1357  0.1698  0.5069
  627MOL0     C82671   7.102  11.013   4.485 -0.0774  0.0608 -0.6422
  627MOL0     C82672   7.056  11.159   4.468  0.4104  1.1829 -0.3503
  627MOL0     C82673   6.911  11.185   4.508  0.3535  0.9199 -0.9741
  627MOL0     C82674   6.884  11.193   4.659  0.5139 -1.0282 -0.7549
  627MOL0     C82675   6.736  11.248   4.687 -0.0485 -0.4800 -0.0536
  627MOL0    Cl82676   6.606  11.213   4.571  0.4095 -0.1262 -0.5599
  627MOL0     C82677   6.817  10.546   4.134 -0.8593 -0.4409 -1.1708
  627MOL0     C82678   6.737  10.448   4.080 -0.4579 -0.3315  0.3868
  627MOL0     O82679   6.733  10.102   4.119 -0.1646  0.0750  0.0929
  627MOL0     C82680   6.486  10.150   3.852 -0.1098 -0.2923  0.2634
  627MOL0     C82681   6.413  10.085   3.749  0.2044  0.3367  0.1110
  627MOL0     N82682   6.623   9.489   3.273  0.3053 -0.1659  0.6404
  627MOL0     N82683   6.664   9.368   3.292 -0.2895 -0.4205  0.5140
  627MOL0     C82684   6.516   8.095   3.456 -0.3512  0.2661  0.5669
  627MOL0     C82685   6.486   7.987   3.373  0.1197 -0.0680 -0.4089
  627MOL0     C82686   6.286   7.617   3.245  0.0624 -0.0496  0.7883
  627MOL0     C82687   6.332   7.595   3.109  0.0276 -0.6708  0.2162
  627MOL0     C82688   6.331   7.474   3.044 -0.0882  0.4286 -0.2153
  627MOL0     C82689   6.296   7.356   3.111 -0.1791  0.7426  1.0400
  627MOL0     O82690   6.333   7.240   3.042 -0.1403 -0.2053 -0.9238
  627MOL0     C82691   6.248   7.132   3.076 -0.0946 -0.1306  0.4133
  627MOL0     C82692   6.265   7.010   2.982  0.5592  0.1290  0.2405
  627MOL0     C82693   6.204   6.879   3.025  0.2472  0.0828  0.1763
  627MOL0     C82694   6.050   6.891   3.036 -1.2079  0.2412 -0.2485
  627MOL0     C82695   6.000   6.771   3.100 -0.0891 -0.5587  0.7524
  627MOL0     C82696   5.933   6.681   3.132  0.6285 -0.3213 -0.3229
  627MOL0     C82697   6.262   7.372   3.243 -0.0466  0.1614  0.2656
  627MOL0     C82698   6.245   7.502   3.312 -0.3851 -0.4818 -0.3993
  627MOL0     H82699   6.168   8.095   3.303  0.0924  0.8118  0.4044
  627MOL0     H82700   6.224   8.264   3.447  0.1041  0.5469  1.2783
  627MOL0     H82701   6.356   8.464   3.501 -0.0896  0.2810  0.9344
  627MOL0     H82702   6.508   8.417   3.411 -1.0524 -0.0694 -0.3659
  627MOL0     H82703   6.639   8.513   3.571 -0.0038  0.7993  2.5171
  627MOL0     H82704   6.504   8.510   3.680  1.1215 -0.0430  0.1584
  627MOL0     H82705   6.562   8.734   3.609  1.5932  0.4293 -1.0229
  627MOL0     H82706   6.400   8.695   3.538  1.3571  2.1002  2.1205
  627MOL0     H82707   6.649   8.663   3.381 -1.9998 -2.2313 -0.9690
  627MOL0     H82708   6.482   8.658   3.332 -1.3583  3.7095 -1.4437
  627MOL0     H82709   6.611   8.891   3.268  0.0678  0.2401 -0.4355
  627MOL0     H82710   6.646   8.891   3.448  1.6941  0.2489 -1.9803
  627MOL0     H82711   6.420   8.961   3.484 -1.9813  0.9687 -1.0164
  627MOL0     H82712   6.373   8.900   3.330 -0.0466 -2.9436  0.5462
  627MOL0     H82713   6.502   9.091   3.223  1.3081 -1.6889  0.5372
  627MOL0     H82714   6.370   9.137   3.331 -1.6956 -1.2728  1.0573
  627MOL0     H82715   6.669   9.131   3.391  0.2880  0.3324 -0.6984
  627MOL0     H82716   6.569   9.165   3.526  1.4511  3.0256  0.1658
  627MOL0     H82717   6.414   9.405   3.501  1.4221  1.2239  1.5173
  627MOL0     H82718   6.435   9.707   3.262  0.0425 -1.9816 -0.6884
  627MOL0     H82719   6.528   9.716   3.416 -2.1903  1.3569  2.6905
  627MOL0     H82720   6.262   9.578   3.386  2.5245 -0.1096 -1.2314
  627MOL0     H82721   6.272   9.752   3.421  0.8085  1.2052 -0.5414
  627MOL0     H82722   6.282   9.534   3.613 -2.8930 -0.2606 -1.6548
  627MOL0     H82723   6.443   9.616   3.619 -0.4402 -1.8601 -0.3057
  627MOL0     H82724   6.296   9.709   3.773  0.2271 -1.6114 -1.1155
  627MOL0     H82725   6.175   9.751   3.649  0.7779 -1.1179 -0.4674
  627MOL0     H82726   6.457   9.765   3.876 -1.0659 -0.6352 -1.9389
  627MOL0     H82727   6.598   9.864   4.012 -2.7050 -0.0591  2.1569
  627MOL0     H82728   6.599  10.301   4.350  1.0668 -2.1104 -1.6189
  627MOL0     H82729   6.743  10.497   4.460  0.4105  1.6298 -0.2883
  627MOL0     H82730   6.991  10.783   4.207 -3.0499  3.6143  2.9857
  627MOL0     H82731   7.058  10.627   4.245 -3.9526 -0.3137 -3.8406
  627MOL0     H82732   7.175  10.779   4.360 -0.3279 -0.2821 -0.5230
  627MOL0     H82733   7.068  10.715   4.494 -0.6908  1.0320  0.2852
  627MOL0     H82734   6.926  10.892   4.485  0.2855  0.3406  1.1023
  627MOL0     H82735   6.994  10.949   4.319  3.1874 -0.8246 -0.6402
  627MOL0     H82736   7.114  10.990   4.591 -0.9241 -1.4301 -0.8420
  627MOL0     H82737   7.207  11.014   4.454  0.5483  2.8478  1.1537
  627MOL0     H82738   7.072  11.189   4.364 -1.6968  0.3584 -0.9703
  627MOL0     H82739   7.122  11.227   4.522  1.3316  0.8435 -1.0295
  627MOL0     H82740   6.844  11.111   4.462  1.0179 -1.1663  1.1892
  627MOL0     H82741   6.882  11.283   4.471 -0.8069  0.3639 -1.6068
  627MOL0     H82742   6.892  11.094   4.706  0.1844  0.7098  3.3017
  627MOL0     H82743   6.954  11.267   4.700 -0.1177 -0.6292 -0.3890
  627MOL0     H82744   6.745  11.356   4.705  0.0469 -0.3281 -0.9786
  627MOL0     H82745   6.703  11.213   4.786  0.1306  0.9264  0.5293
  627MOL0     H82746   6.889  10.607   4.080 -1.7196 -0.2135 -2.0943
  627MOL0     H82747   6.725  10.434   3.973  1.0753 -2.9718  0.4894
  627MOL0     H82748   6.477  10.258   3.861  0.2236 -0.2763  0.4248
  627MOL0     H82749   6.346  10.126   3.674  0.0067  0.1849  0.2034
  627MOL0     H82750   6.612   8.089   3.505  0.9452 -1.8454 -1.9806
  627MOL0     H82751   6.549   7.901   3.350 -0.0044  0.1793 -1.7752
  627MOL0     H82752   6.349   7.691   3.062 -0.4335  0.2518  1.8377
  627MOL0     H82753   6.373   7.464   2.945  0.7617 -0.9555  0.2514
  627MOL0     H82754   6.142   7.160   3.073 -1.1638 -3.6929 -1.3513
  627MOL0     H82755   6.265   7.087   3.174  0.5606  0.4254  0.5610
  627MOL0     H82756   6.249   7.027   2.875  1.8468 -3.7087 -0.7356
  627MOL0     H82757   6.374   7.000   2.983  0.5420 -0.3468  2.4057
  627MOL0     H82758   6.248   6.875   3.125 -2.1993  2.9284  1.5171
  627MOL0     H82759   6.247   6.797   2.967  1.1081 -2.9145  4.5628
  627MOL0     H82760   6.024   6.977   3.100 -1.2725 -0.9261  1.3471
  627MOL0     H82761   6.008   6.891   2.935 -0.1941 -0.2841 -0.6857
  627MOL0     H82762   5.860   6.606   3.150  0.7022 -0.4930 -0.7232
  627MOL0     H82763   6.238   7.282   3.298 -0.4816  0.4445  0.5450
  627MOL0     H82764   6.211   7.508   3.416  2.5431  0.5892  0.5933
  628MOL0     O82765   3.692   9.117   5.491  0.3881  0.8322  0.5623
  628MOL0     C82766   3.646   9.049   5.579  0.0124  0.0325 -0.1295
  628MOL0     O82767   3.510   9.020   5.598 -0.0512 -0.2364  0.4255
  628MOL0     C82768   3.414   9.043   5.503 -0.9152 -0.2302  0.1574
  628MOL0     C82769   3.291   8.999   5.551 -1.0297  0.4503  0.5929
  628MOL0     C82770   3.172   9.013   5.474  0.1257 -0.4775 -0.2157
  628MOL0     C82771   3.174   9.083   5.352  0.4446 -0.0001 -0.0224
  628MOL0     O82772   3.069   9.116   5.275  0.0713  0.1241 -0.3187
  628MOL0     C82773   2.958   9.020   5.280  0.1402  0.0249 -0.6886
  628MOL0     C82774   2.841   9.085   5.198  0.4821  0.3377 -0.3528
  628MOL0     C82775   2.811   9.013   5.067 -0.2889  0.1974  0.3333
  628MOL0     C82776   2.743   8.884   5.093 -0.3769  0.6132  0.3798
  628MOL0     C82777   2.679   8.830   4.954 -0.7062 -0.8194 -0.6298
  628MOL0     C82778   2.799   8.767   4.880  0.7474  0.2910  0.2280
  628MOL0     C82779   2.754   8.700   4.755  0.1451  1.1117  1.6622
  628MOL0     C82780   2.871   8.686   4.659  0.6819  0.1328  0.1413
  628MOL0     N82781   2.842   8.619   4.530  0.0792 -0.3121 -0.3162
  628MOL0     C82782   2.726   8.651   4.450  0.4330  0.3686 -0.1907
  628MOL0     C82783   2.730   8.559   4.346  0.2057 -0.7065 -0.2468
  628MOL0     C82784   2.644   8.553   4.226  0.6669 -0.3246  0.2793
  628MOL0     C82785   2.524   8.648   4.224  0.6665 -0.4700 -0.1101
  628MOL0     C82786   2.437   8.630   4.085 -0.1038  0.4252 -0.0189
  628MOL0     C82787   2.477   8.721   3.969  0.3387  0.4825  0.3864
  628MOL0     O82788   2.508   8.852   4.005  0.2625 -0.0157 -0.0320
  628MOL0     C82789   2.533   8.952   3.911 -0.0648 -1.2573 -1.2038
  628MOL0     C82790   2.528   8.933   3.767  0.2209 -0.2906 -0.7192
  628MOL0     C82791   2.516   9.048   3.695 -0.3239  0.3764 -0.8099
  628MOL0     C82792   2.516   9.181   3.748  0.1426  0.1689  1.4642
  628MOL0     C82793   2.515   9.308   3.658 -0.1059 -0.2080 -0.7488
  628MOL0     O82794   2.528   9.430   3.718 -0.0449  0.1705  0.0696
  628MOL0     C82795   2.522   9.554   3.659 -0.2319 -1.6517 -0.3673
  628MOL0     C82796   2.608   9.655   3.688 -0.0843 -0.7103  1.0591
  628MOL0     C82797   2.602   9.778   3.615  0.5831  0.1165  0.8543
  628MOL0     C82798   2.491   9.802   3.534 -0.0196 -0.1091 -0.9578
  628MOL0     O82799   2.472   9.915   3.462  0.1379  0.6635 -0.4498
  628MOL0     C82800   2.555  10.034   3.472 -0.3058  0.2152  0.1848
  628MOL0     C82801   2.496  10.147   3.387  0.1572  0.8596 -0.6274
  628MOL0     C82802   2.472  10.097   3.237 -1.1485 -0.3353  0.2320
  628MOL0     C82803   2.402  10.199   3.152 -0.0259  0.1788 -0.3720
  628MOL0     C82804   2.472  10.346   3.160 -0.0277  0.9433 -0.1784
  628MOL0     C82805   2.414  10.445   3.063 -1.4724 -0.7570 -0.3378
  628MOL0     C82806   2.379  10.386   2.929  1.0231  0.5251 -0.3720
  628MOL0     C82807   2.424  10.477   2.812 -0.8445  0.5623 -0.3850
  628MOL0    Cl82808   2.319  10.625   2.828 -0.4494 -0.0843  0.6026
  628MOL0     C82809   2.394   9.705   3.523  0.7572 -0.3806  0.4057
  628MOL0     C82810   2.417   9.580   3.576 -0.4769  0.1039 -0.3358
  628MOL0     O82811   2.493   9.301   3.539 -0.5433  0.2959  0.9323
  628MOL0     C82812   2.516   9.189   3.888 -0.0921 -0.0968  0.5340
  628MOL0     C82813   2.536   9.075   3.964 -0.5984 -0.2182 -0.5019
  628MOL0     N82814   2.842   8.479   4.365 -0.0974 -0.2922  0.2814
  628MOL0     N82815   2.893   8.498   4.483  0.1629  0.5188  0.8300
  628MOL0     C82816   3.297   9.136   5.314  0.5712 -0.2949 -0.3906
  628MOL0     C82817   3.420   9.122   5.390  0.0766  0.4823  0.5062
  628MOL0     C82818   3.731   8.993   5.679  0.2444 -0.3124  0.1163
  628MOL0     C82819   3.684   8.966   5.812 -0.0786 -0.1060  0.6272
  628MOL0     C82820   3.774   8.925   5.908  0.2503  0.5576 -0.2153
  628MOL0     C82821   3.913   8.892   5.874  1.0928 -0.3071 -0.7495
  628MOL0     O82822   3.995   8.842   5.972 -0.1940 -0.9816 -0.5558
  628MOL0     C82823   4.043   8.714   5.974  0.0501 -0.2043 -0.0177
  628MOL0     C82824   4.176   8.708   6.054 -0.0882  0.0532  1.2117
  628MOL0     C82825   4.278   8.782   5.972 -0.7499  0.4576 -0.0372
  628MOL0     C82826   4.420   8.743   6.029 -0.1596 -1.0967  0.5289
  628MOL0     C82827   4.427   8.777   6.178  0.3034  0.3113  0.6297
  628MOL0     C82828   4.445   8.823   6.290  0.7362 -0.5948 -0.4741
  628MOL0     C82829   3.957   8.915   5.742  0.2846  0.6168  1.3605
  628MOL0     C82830   3.864   8.967   5.646 -0.2540 -0.5122 -0.3738
  628MOL0     H82831   3.288   8.959   5.652 -2.6946 -1.2137 -0.0635
  628MOL0     H82832   3.083   9.000   5.535  0.0257  1.6726  0.1966
  628MOL0     H82833   2.925   9.009   5.384  0.2026 -4.0203 -0.9119
  628MOL0     H82834   2.987   8.922   5.240  1.2265 -0.7134  1.7139
  628MOL0     H82835   2.866   9.188   5.172  2.2240 -0.2225 -1.0674
  628MOL0     H82836   2.748   9.086   5.255  0.4771  1.3420 -0.3603
  628MOL0     H82837   2.900   8.988   5.008 -1.5217  1.1140 -2.0959
  628MOL0     H82838   2.754   9.086   5.008  0.0092  1.3484  1.4391
  628MOL0     H82839   2.819   8.813   5.126 -1.9198 -0.3960  1.8908
  628MOL0     H82840   2.670   8.897   5.174  0.8760  1.9444  1.3580
  628MOL0     H82841   2.614   8.899   4.900 -2.1898 -1.7577 -0.0848
  628MOL0     H82842   2.617   8.742   4.971  0.5767 -1.9971 -1.7763
  628MOL0     H82843   2.857   8.693   4.936  1.9356 -1.9513 -3.6015
  628MOL0     H82844   2.868   8.847   4.854  1.8517  0.2776  2.7947
  628MOL0     H82845   2.732   8.597   4.785  1.0925  0.2826 -0.3060
  628MOL0     H82846   2.671   8.753   4.707  0.3049  0.6244  0.8114
  628MOL0     H82847   2.960   8.641   4.706  0.9978  1.4532  0.8687
  628MOL0     H82848   2.901   8.785   4.622 -1.9958  1.3753  1.0512
  628MOL0     H82849   2.651   8.726   4.475 -2.1593 -2.3627  0.7605
  628MOL0     H82850   2.599   8.454   4.214  2.2027 -1.1072  0.7106
  628MOL0     H82851   2.693   8.579   4.132 -1.2944 -1.1934 -1.0467
  628MOL0     H82852   2.567   8.749   4.232 -1.2429  0.3135  0.9415
  628MOL0     H82853   2.453   8.624   4.304  0.6534 -2.1780 -0.6057
  628MOL0     H82854   2.434   8.525   4.053 -2.0217  0.5131 -0.2543
  628MOL0     H82855   2.331   8.645   4.105  0.0696  1.4654  0.1673
  628MOL0     H82856   2.391   8.728   3.903 -0.4976 -1.9819  1.1415
  628MOL0     H82857   2.563   8.677   3.918  2.5944  0.9162  3.4851
  628MOL0     H82858   2.519   8.836   3.720 -1.8911 -0.0557 -0.9088
  628MOL0     H82859   2.526   9.034   3.587  2.1068 -0.1089 -0.5692
  628MOL0     H82860   2.696   9.644   3.752  2.3505  0.5297 -1.8240
  628MOL0     H82861   2.660   9.869   3.631 -1.2929  1.5229  0.0380
  628MOL0     H82862   2.649  10.000   3.429  1.3409  2.3657  1.8338
  628MOL0     H82863   2.572  10.051   3.578 -1.1512  1.1276  0.1908
  628MOL0     H82864   2.553  10.240   3.394 -0.3018  1.0539  1.1730
  628MOL0     H82865   2.396  10.170   3.424 -1.5359 -1.5322 -3.2672
  628MOL0     H82866   2.414  10.005   3.240 -1.0153 -0.4269  0.0051
  628MOL0     H82867   2.574  10.083   3.200  0.4682  1.6182  3.4289
  628MOL0     H82868   2.394  10.158   3.051 -0.1111 -1.2986  0.2157
  628MOL0     H82869   2.306  10.214   3.201  0.0140 -2.1345  0.5246
  628MOL0     H82870   2.580  10.334   3.155  0.1310  0.3186  2.8846
  628MOL0     H82871   2.451  10.389   3.258  0.0103  0.0878  0.2171
  628MOL0     H82872   2.486  10.526   3.048 -4.6037  2.4427  0.5713
  628MOL0     H82873   2.322  10.494   3.095 -0.1982  3.1438 -2.0769
  628MOL0     H82874   2.422  10.286   2.915 -0.9647 -0.5979  1.0603
  628MOL0     H82875   2.271  10.371   2.923  1.1881 -0.8760 -0.2102
  628MOL0     H82876   2.414  10.435   2.711 -0.2251 -0.6001  0.0231
  628MOL0     H82877   2.531  10.497   2.823 -0.7217  0.0642 -0.6064
  628MOL0     H82878   2.308   9.712   3.456  1.0999 -0.0545 -0.0001
  628MOL0     H82879   2.349   9.502   3.545 -1.2567  0.5892  0.1178
  628MOL0     H82880   2.517   9.290   3.927 -0.1275  1.1127 -2.3579
  628MOL0     H82881   2.523   9.078   4.072 -3.9263  2.4143 -0.8197
  628MOL0     H82882   3.289   9.196   5.224 -0.9460  3.0467  1.7930
  628MOL0     H82883   3.512   9.163   5.350  0.3629  0.3414  1.0068
  628MOL0     H82884   3.588   9.000   5.851 -0.6727 -0.2821 -0.6158
  628MOL0     H82885   3.741   8.910   6.010 -0.5229 -3.0562 -0.8709
  628MOL0     H82886   4.059   8.674   5.874 -1.3743  1.1992 -0.8527
  628MOL0     H82887   3.979   8.650   6.036  0.5856  0.7385  1.5715
  628MOL0     H82888   4.157   8.746   6.155 -0.7981 -0.8614  1.4367
  628MOL0     H82889   4.201   8.603   6.073 -1.5690 -0.8340 -1.2583
  628MOL0     H82890   4.265   8.888   5.992 -2.7063  0.1803  0.3381
  628MOL0     H82891   4.266   8.750   5.868 -1.9747 -1.5151  0.6576
  628MOL0     H82892   4.421   8.634   6.023  0.7815 -1.1260  1.1352
  628MOL0     H82893   4.510   8.779   5.980  1.1947 -2.7592  1.6719
  628MOL0     H82894   4.447   8.871   6.386  0.1537  2.0666 -1.6936
  628MOL0     H82895   4.055   8.875   5.718  0.8313  1.4323  2.1645
  628MOL0     H82896   3.896   8.975   5.542 -0.5242  1.8996 -0.3068
  629MOL0     O82897   9.139   1.040   1.392  0.2022  0.9480 -0.2264
  629MOL0     C82898   9.182   0.959   1.479  0.0737  0.1082  0.2550
  629MOL0     O82899   9.304   0.908   1.492  0.1351 -0.2259  1.0823
  629MOL0     C82900   9.393   0.952   1.400 -0.7556 -0.4313 -0.2232
  629MOL0     C82901   9.511   1.012   1.449  0.8372  0.2806 -0.1110
  629MOL0     C82902   9.616   1.055   1.375 -0.3100 -0.5702  0.1718
  629MOL0     C82903   9.610   1.032   1.243  0.5913 -1.0708  0.9550
  629MOL0     O82904   9.712   1.084   1.164  0.1682  0.2847  0.0603
  629MOL0     C82905   9.724   1.047   1.035 -0.0517  0.1241 -0.6175
  629MOL0     C82906   9.836   1.122   0.969 -0.4766 -0.2133 -0.7660
  629MOL0     C82907   9.842   1.048   0.832  0.0579  0.0799  0.1114
  629MOL0     C82908   9.912   1.129   0.722 -0.3770 -0.4668 -0.5231
  629MOL0     C82909  10.051   1.177   0.751 -0.2337 -0.0102 -0.0763
  629MOL0     C82910  10.157   1.074   0.790 -0.6722 -0.0288  0.2678
  629MOL0     C82911  10.167   0.951   0.705 -0.1472  0.3010  0.2825
  629MOL0     C82912  10.276   0.862   0.763 -0.3551  0.8148 -0.3295
  629MOL0     N82913  10.411   0.894   0.708  0.0546 -0.9226 -0.3449
  629MOL0     C82914  10.475   0.814   0.618  0.3901  0.7380  0.2953
  629MOL0     C82915  10.596   0.861   0.600  0.8758 -0.6816 -0.0115
  629MOL0     C82916  10.716   0.809   0.523 -0.0173  0.2011  0.4508
  629MOL0     C82917  10.787   0.696   0.593 -0.1699 -0.0220  0.5150
  629MOL0     C82918  10.828   0.739   0.731 -0.2194 -0.1872 -0.1514
  629MOL0     C82919  10.916   0.634   0.811 -0.5686 -0.3406  0.4318
  629MOL0     O82920  10.855   0.501   0.818  0.2858  0.0990 -0.9390
  629MOL0     C82921  10.924   0.394   0.782  0.3127  0.4075  1.0112
  629MOL0     C82922  10.985   0.314   0.884 -0.3867 -0.2385  0.3667
  629MOL0     C82923  11.069   0.210   0.842  0.2573 -0.0833 -0.3222
  629MOL0     C82924  11.082   0.172   0.706 -0.7058 -0.5700 -0.7649
  629MOL0     C82925  11.152   0.047   0.683  0.7318  0.5913  0.6094
  629MOL0     O82926  11.214  -0.016   0.790 -0.4028  0.0560 -0.7918
  629MOL0     C82927  11.282  -0.130   0.756 -0.8362  1.0774  0.4935
  629MOL0     C82928  11.402  -0.125   0.686 -0.6981 -0.1073 -0.8734
  629MOL0     C82929  11.472  -0.250   0.665 -0.1409 -0.3852 -0.1655
  629MOL0     C82930  11.407  -0.372   0.684  0.6974  0.9008 -0.8730
  629MOL0     O82931  11.455  -0.496   0.655  0.5243  0.4967 -0.6803
  629MOL0     C82932  11.596  -0.522   0.645 -0.4230 -0.8311  0.6407
  629MOL0     C82933  11.610  -0.659   0.573  0.5278  0.0922 -0.2152
  629MOL0     C82934  11.626  -0.768   0.675 -0.1589 -0.0646 -0.0737
  629MOL0     C82935  11.626  -0.918   0.617 -0.4490  0.3278 -0.3548
  629MOL0     C82936  11.669  -1.023   0.720 -1.0395 -0.3069 -0.0823
  629MOL0     C82937  11.749  -1.139   0.667  0.2366 -0.5192  0.2628
  629MOL0     C82938  11.786  -1.234   0.780 -0.6292  1.3154  1.0871
  629MOL0     C82939  11.764  -1.379   0.733 -0.2509 -0.2396 -0.8786
  629MOL0    Cl82940  11.587  -1.407   0.740 -0.1925 -0.3324  0.0268
  629MOL0     C82941  11.279  -0.371   0.725 -0.4195 -0.0075  0.2276
  629MOL0     C82942  11.219  -0.256   0.756  0.1310 -0.3162 -0.1445
  629MOL0     O82943  11.156   0.004   0.570  0.0390  0.0341  0.2552
  629MOL0     C82944  11.039   0.256   0.611 -0.7616  0.4579  0.5238
  629MOL0     C82945  10.959   0.365   0.643  0.9663  0.2412 -0.9027
  629MOL0     N82946  10.610   0.978   0.668  0.0032  0.5421  0.7935
  629MOL0     N82947  10.500   0.998   0.738  0.5479 -0.4939  0.5793
  629MOL0     C82948   9.494   0.964   1.191  0.3314  0.4145  0.8058
  629MOL0     C82949   9.376   0.937   1.263  0.9235  0.6020 -0.7482
  629MOL0     C82950   9.089   0.922   1.586  0.1175 -1.3000 -0.3238
  629MOL0     C82951   9.131   0.840   1.688  0.0335  0.2839  0.2336
  629MOL0     C82952   9.039   0.791   1.786 -0.1588 -0.1040  0.6482
  629MOL0     C82953   8.908   0.838   1.787  0.9251  0.1871 -0.2453
  629MOL0     O82954   8.826   0.808   1.896 -1.1750 -0.2975 -0.2209
  629MOL0     C82955   8.881   0.770   2.020 -0.2271  0.1910 -0.7214
  629MOL0     C82956   8.873   0.615   2.030  0.0917  0.0056  0.6757
  629MOL0     C82957   8.746   0.552   1.984  0.4734 -0.1164 -0.8471
  629MOL0     C82958   8.723   0.417   2.046  0.1739 -0.8706  0.0142
  629MOL0     C82959   8.839   0.320   2.043 -0.3762 -0.2653 -0.0260
  629MOL0     C82960   8.951   0.275   2.039 -0.0467  0.3477 -0.2760
  629MOL0     C82961   8.865   0.919   1.682  0.7887  0.3578  0.0779
  629MOL0     C82962   8.956   0.968   1.587  0.4595 -0.4291  0.5759
  629MOL0     H82963   9.498   1.040   1.553 -1.5323 -1.8833  0.2786
  629MOL0     H82964   9.701   1.112   1.412  0.3128 -1.2098 -0.2436
  629MOL0     H82965   9.631   1.069   0.980 -0.1208 -0.0197 -0.5595
  629MOL0     H82966   9.741   0.939   1.029  0.2003  0.2439 -3.2597
  629MOL0     H82967   9.920   1.110   1.038  0.9299  3.0707 -1.6841
  629MOL0     H82968   9.812   1.226   0.944  0.1546  0.7251  2.1993
  629MOL0     H82969   9.749   1.018   0.783  0.4092  0.9149 -1.1137
  629MOL0     H82970   9.906   0.960   0.845 -1.2044 -1.3712 -2.6142
  629MOL0     H82971   9.926   1.071   0.630  0.7028 -1.3942  0.1878
  629MOL0     H82972   9.847   1.214   0.704 -1.4647 -1.4491 -1.4031
  629MOL0     H82973  10.039   1.256   0.826 -2.8150 -1.2428  0.8988
  629MOL0     H82974  10.096   1.221   0.661  1.8201 -3.5575 -0.9751
  629MOL0     H82975  10.135   1.048   0.894 -0.1435  0.8036  0.6025
  629MOL0     H82976  10.254   1.125   0.788 -0.8100  0.2432 -1.9639
  629MOL0     H82977  10.072   0.897   0.702  1.7390 -3.3236 -2.1208
  629MOL0     H82978  10.182   0.984   0.602 -2.7392  1.8433  0.3394
  629MOL0     H82979  10.253   0.758   0.739 -0.4604  0.5325  0.9390
  629MOL0     H82980  10.289   0.857   0.872  0.9532 -0.0272 -0.4968
  629MOL0     H82981  10.428   0.728   0.572  1.5000  1.6275 -2.7051
  629MOL0     H82982  10.792   0.887   0.510 -0.1132 -0.0444 -2.3103
  629MOL0     H82983  10.672   0.788   0.425 -1.9230  0.8133  1.1209
  629MOL0     H82984  10.884   0.669   0.550  1.0415  1.4269  2.1874
  629MOL0     H82985  10.735   0.601   0.606  2.3834 -1.2403  2.5949
  629MOL0     H82986  10.904   0.816   0.714 -0.8815  0.9011  1.4509
  629MOL0     H82987  10.752   0.778   0.800  0.7661 -0.7504  1.2922
  629MOL0     H82988  10.918   0.663   0.916 -0.4716 -3.8340  1.5383
  629MOL0     H82989  11.017   0.634   0.770 -1.3933  0.1697 -1.7905
  629MOL0     H82990  10.970   0.342   0.987  1.6852  1.6030  0.2499
  629MOL0     H82991  11.125   0.156   0.918 -0.0783  1.5778  1.1581
  629MOL0     H82992  11.443  -0.028   0.660 -2.4353  0.6188 -1.0789
  629MOL0     H82993  11.578  -0.240   0.647 -0.0510  1.0038  1.0049
  629MOL0     H82994  11.624  -0.520   0.750  0.9332  1.1262  0.3022
  629MOL0     H82995  11.647  -0.446   0.584 -3.7924  0.6976 -0.5539
  629MOL0     H82996  11.702  -0.658   0.514  1.6551  0.1512  1.4771
  629MOL0     H82997  11.516  -0.672   0.517  0.2108 -1.7502  0.6744
  629MOL0     H82998  11.544  -0.759   0.748  0.4934 -1.5699  0.8797
  629MOL0     H82999  11.714  -0.760   0.739 -0.9633  1.4097  0.9125
  629MOL0     H83000  11.524  -0.949   0.591 -0.3990  0.8454 -1.2293
  629MOL0     H83001  11.693  -0.919   0.531 -0.6423  3.1513 -0.6494
  629MOL0     H83002  11.573  -1.055   0.762 -1.7775  1.9221  0.0223
  629MOL0     H83003  11.730  -0.987   0.802 -0.2026  0.7690 -1.1538
  629MOL0     H83004  11.843  -1.101   0.626 -1.1711  3.9338  0.6404
  629MOL0     H83005  11.692  -1.195   0.592  1.8189 -1.1624 -0.4906
  629MOL0     H83006  11.891  -1.222   0.804  0.1503 -0.8306 -0.8451
  629MOL0     H83007  11.739  -1.212   0.877  0.3093  4.3693  0.9471
  629MOL0     H83008  11.821  -1.435   0.807  2.8714  1.2896 -1.9539
  629MOL0     H83009  11.812  -1.397   0.636  0.9869  2.9017 -0.9478
  629MOL0     H83010  11.213  -0.457   0.718  0.7021 -0.7717 -1.6271
  629MOL0     H83011  11.116  -0.243   0.786 -0.3349  1.0101 -2.1294
  629MOL0     H83012  11.069   0.237   0.508 -2.2430  1.8512 -0.2050
  629MOL0     H83013  10.906   0.424   0.569 -0.2657  1.3719  0.7770
  629MOL0     H83014   9.478   0.936   1.088 -1.9402  0.5365  1.0738
  629MOL0     H83015   9.287   0.888   1.224  1.7369 -1.8790  0.3022
  629MOL0     H83016   9.230   0.795   1.682  0.1757  0.5384  0.5798
  629MOL0     H83017   9.071   0.721   1.862 -2.0003 -0.4264  1.1710
  629MOL0     H83018   8.816   0.810   2.098  2.2053 -0.7447  1.9449
  629MOL0     H83019   8.983   0.807   2.030 -0.6968  1.6642 -1.1612
  629MOL0     H83020   8.961   0.571   1.982 -0.2708 -0.8707  0.7969
  629MOL0     H83021   8.882   0.580   2.133 -1.9374 -2.2323  0.1915
  629MOL0     H83022   8.750   0.536   1.876  3.9095 -1.3316 -0.6469
  629MOL0     H83023   8.662   0.618   2.006 -0.2244 -0.4563 -2.4050
  629MOL0     H83024   8.687   0.424   2.149 -1.0730 -2.0031 -0.3075
  629MOL0     H83025   8.636   0.390   1.985 -0.2416  0.0874  0.1795
  629MOL0     H83026   9.056   0.255   2.048  0.1876  1.1629 -1.0287
  629MOL0     H83027   8.759   0.940   1.681  0.6992  0.2134  1.8546
  629MOL0     H83028   8.914   1.030   1.508 -1.5447 -0.1165  1.8088
  630MOL0     O83029   3.785   4.719   1.560 -0.0185 -1.0145 -0.1401
  630MOL0     C83030   3.682   4.792   1.532  1.3195  0.7039 -0.0364
  630MOL0     O83031   3.618   4.792   1.411 -0.2691  0.4214 -0.2839
  630MOL0     C83032   3.645   4.695   1.318 -0.3505 -0.4144 -0.8941
  630MOL0     C83033   3.646   4.558   1.346 -0.1176 -0.1428  0.3846
  630MOL0     C83034   3.658   4.467   1.243  0.8132 -0.1716 -0.0536
  630MOL0     C83035   3.670   4.511   1.108 -0.6022 -0.5067  0.5299
  630MOL0     O83036   3.720   4.428   1.004 -0.3926  0.2699  0.0283
  630MOL0     C83037   3.734   4.287   1.032  0.3249 -0.3128 -0.3245
  630MOL0     C83038   3.814   4.210   0.920 -0.0480  0.0744 -0.1534
  630MOL0     C83039   3.889   4.301   0.831  0.3706  0.5484  0.4162
  630MOL0     C83040   3.962   4.219   0.730 -0.4073  0.0981  0.2232
  630MOL0     C83041   4.042   4.299   0.632 -0.8918 -0.3406 -0.5667
  630MOL0     C83042   4.145   4.237   0.534  0.4666 -0.3686  0.2645
  630MOL0     C83043   4.238   4.347   0.488 -0.2529  0.2803 -0.4254
  630MOL0     C83044   4.348   4.272   0.405 -0.0828 -0.5360 -0.7806
  630MOL0     N83045   4.456   4.210   0.474  0.2368  1.2298  0.1601
  630MOL0     C83046   4.538   4.125   0.412 -0.1810 -0.1727 -0.5406
  630MOL0     C83047   4.645   4.107   0.497  1.0910  0.0664  0.3339
  630MOL0     C83048   4.774   4.034   0.461  0.1091 -0.1243  0.7589
  630MOL0     C83049   4.852   4.000   0.583 -0.6062  0.0029  0.2303
  630MOL0     C83050   4.780   3.872   0.646 -0.2918 -0.6569  0.1892
  630MOL0     C83051   4.836   3.842   0.780  0.0868 -0.4649  0.0357
  630MOL0     O83052   4.982   3.837   0.772  0.6695 -0.5985  0.1928
  630MOL0     C83053   5.041   3.772   0.877  0.0872 -0.0123 -0.6824
  630MOL0     C83054   4.984   3.775   1.005 -0.0288 -1.3346 -0.5328
  630MOL0     C83055   5.040   3.711   1.120  0.0161  0.3620  0.3760
  630MOL0     C83056   5.144   3.619   1.085  0.5755  0.6443 -0.7348
  630MOL0     C83057   5.208   3.536   1.192 -0.7026  0.1099 -0.1971
  630MOL0     O83058   5.184   3.556   1.323 -1.0513 -0.6248 -0.0513
  630MOL0     C83059   5.275   3.513   1.411  0.3854  0.5142 -0.3203
  630MOL0     C83060   5.411   3.492   1.404 -0.4124  0.3762 -0.1037
  630MOL0     C83061   5.498   3.476   1.509  0.1010 -0.0419  1.1078
  630MOL0     C83062   5.437   3.485   1.641  0.0937  0.2691 -0.0839
  630MOL0     O83063   5.519   3.473   1.751  0.0004  0.2474 -0.3842
  630MOL0     C83064   5.522   3.346   1.824 -0.7735 -0.0334  0.0856
  630MOL0     C83065   5.478   3.369   1.969 -0.9417 -0.4789  0.4184
  630MOL0     C83066   5.475   3.234   2.041 -0.1996  0.3315  0.1152
  630MOL0     C83067   5.328   3.195   2.057 -0.8174 -0.0460 -0.8655
  630MOL0     C83068   5.313   3.060   2.129  0.2504  0.5798  0.1930
  630MOL0     C83069   5.349   2.951   2.035 -0.1208  1.7176  0.4025
  630MOL0     C83070   5.297   2.815   2.092 -0.7574  0.7957 -0.6321
  630MOL0     C83071   5.149   2.797   2.106 -0.1736  0.0285  0.2162
  630MOL0    Cl83072   5.096   2.641   2.173 -0.0847 -0.0916 -0.2569
  630MOL0     C83073   5.305   3.487   1.652 -0.2213  0.5098 -0.2433
  630MOL0     C83074   5.219   3.496   1.541 -0.0908  0.2330  0.3661
  630MOL0     O83075   5.281   3.448   1.146 -0.6523 -0.0342 -0.6588
  630MOL0     C83076   5.200   3.621   0.961 -0.6274  0.2838  0.0795
  630MOL0     C83077   5.156   3.695   0.856  0.1774  0.6693  1.3610
  630MOL0     N83078   4.618   4.168   0.621  0.6818 -0.0365  0.2653
  630MOL0     N83079   4.493   4.218   0.614  0.3277 -0.0353  0.9219
  630MOL0     C83080   3.655   4.643   1.073  0.5311  0.5840 -0.8556
  630MOL0     C83081   3.638   4.732   1.185 -0.4575  1.4182 -0.5396
  630MOL0     C83082   3.623   4.896   1.623 -0.3648 -0.3213  0.1971
  630MOL0     C83083   3.606   4.888   1.763 -0.2406 -0.4530 -0.4856
  630MOL0     C83084   3.556   5.000   1.835  0.3555  0.6893 -0.9499
  630MOL0     C83085   3.503   5.112   1.778 -0.3204  0.6644 -0.4598
  630MOL0     O83086   3.461   5.222   1.844  1.4946 -0.9565 -1.1588
  630MOL0     C83087   3.432   5.208   1.983 -0.1384 -0.4132 -0.2345
  630MOL0     C83088   3.380   5.348   2.035 -0.0254  0.3242  0.6217
  630MOL0     C83089   3.352   5.353   2.184 -0.8245 -0.7180 -0.2784
  630MOL0     C83090   3.286   5.478   2.223 -0.8177  0.5334 -0.9976
  630MOL0     C83091   3.272   5.483   2.367 -0.4081 -0.5333  0.0576
  630MOL0     C83092   3.293   5.498   2.481  0.5687 -0.2227 -0.1631
  630MOL0     C83093   3.510   5.112   1.637  0.4225 -0.6013 -0.4186
  630MOL0     C83094   3.571   5.016   1.564 -0.3003  0.9357 -0.0972
  630MOL0     H83095   3.649   4.538   1.453 -0.4407  0.9656  0.6251
  630MOL0     H83096   3.658   4.361   1.268  2.4523 -1.1385 -3.4754
  630MOL0     H83097   3.629   4.255   1.031 -0.0254  0.7777 -1.2632
  630MOL0     H83098   3.778   4.271   1.131  3.4164  2.0774 -1.1558
  630MOL0     H83099   3.738   4.161   0.859 -0.9964 -1.3050  2.0218
  630MOL0     H83100   3.873   4.124   0.953  0.8826  0.2219 -1.3492
  630MOL0     H83101   3.948   4.359   0.903 -1.0767  0.7937  1.4365
  630MOL0     H83102   3.818   4.358   0.771  1.2601  0.4684 -0.7571
  630MOL0     H83103   4.022   4.150   0.789  1.9049  1.5536 -0.3039
  630MOL0     H83104   3.895   4.161   0.665 -0.0438  1.8876 -1.8758
  630MOL0     H83105   4.093   4.366   0.701 -2.6804  1.4866 -0.9137
  630MOL0     H83106   3.983   4.353   0.558  1.0994  0.3520 -1.7314
  630MOL0     H83107   4.094   4.191   0.449  2.7159 -0.8982 -0.8788
  630MOL0     H83108   4.199   4.154   0.581  1.4451  1.2523  2.1913
  630MOL0     H83109   4.188   4.418   0.422 -0.3102 -1.5529 -2.4480
  630MOL0     H83110   4.281   4.399   0.575 -1.5507  0.4214  0.1572
  630MOL0     H83111   4.384   4.353   0.340 -0.6872  0.2476 -0.1493
  630MOL0     H83112   4.310   4.204   0.328  0.8424  0.6133 -2.3383
  630MOL0     H83113   4.537   4.079   0.314 -3.0661  1.9616 -1.6537
  630MOL0     H83114   4.834   4.104   0.403 -0.5650  0.2641  0.5215
  630MOL0     H83115   4.759   3.950   0.392  1.0479 -0.6128  1.1304
  630MOL0     H83116   4.868   4.078   0.658  1.4719  2.1392 -2.2543
  630MOL0     H83117   4.956   3.975   0.558 -0.6021  0.7370 -0.5280
  630MOL0     H83118   4.671   3.877   0.648 -0.2639  2.4748 -1.0325
  630MOL0     H83119   4.804   3.774   0.604  1.4415 -2.1067  4.0837
  630MOL0     H83120   4.793   3.744   0.803 -1.4327  0.3114  0.6553
  630MOL0     H83121   4.798   3.914   0.853 -1.2703 -2.7595  1.7338
  630MOL0     H83122   4.911   3.848   1.037 -0.8354 -2.2181 -0.3005
  630MOL0     H83123   5.007   3.721   1.223 -1.3637  1.4623 -0.1372
  630MOL0     H83124   5.452   3.508   1.305 -2.0000  3.2153 -0.4155
  630MOL0     H83125   5.605   3.464   1.495  0.3039  1.0780  1.5903
  630MOL0     H83126   5.629   3.324   1.823 -1.2530 -2.7583 -1.7040
  630MOL0     H83127   5.476   3.264   1.768 -0.1682 -0.1736 -0.2256
  630MOL0     H83128   5.395   3.439   1.985 -0.1981  1.4840 -3.2369
  630MOL0     H83129   5.559   3.429   2.011 -0.5551 -0.1493 -0.7667
  630MOL0     H83130   5.527   3.247   2.136 -1.8816  1.0073  0.9753
  630MOL0     H83131   5.534   3.174   1.970  1.7075  3.1169 -0.8571
  630MOL0     H83132   5.281   3.272   2.120  1.1701  3.1430 -2.9959
  630MOL0     H83133   5.289   3.193   1.955 -1.4003  1.4224 -0.7002
  630MOL0     H83134   5.211   3.059   2.167  0.1312  1.8341 -0.0563
  630MOL0     H83135   5.375   3.047   2.218 -1.2678 -0.3546  1.1621
  630MOL0     H83136   5.457   2.950   2.020 -0.1438 -1.5807 -0.4588
  630MOL0     H83137   5.311   2.956   1.932  2.4024 -0.1222 -0.7140
  630MOL0     H83138   5.341   2.734   2.034 -3.5366 -0.3761 -1.2342
  630MOL0     H83139   5.345   2.792   2.188 -0.6252 -3.8688 -1.6096
  630MOL0     H83140   5.107   2.808   2.005  1.7805 -0.9113 -0.7548
  630MOL0     H83141   5.105   2.869   2.175 -1.2708 -2.1287  1.8876
  630MOL0     H83142   5.268   3.464   1.751  2.1870 -0.0042  0.6088
  630MOL0     H83143   5.110   3.497   1.549 -0.0407 -2.1768  2.8931
  630MOL0     H83144   5.289   3.564   0.939  0.0211  2.1203 -2.5953
  630MOL0     H83145   5.201   3.679   0.758  0.8141 -2.2612  2.0467
  630MOL0     H83146   3.683   4.691   0.980  0.6222  0.1154 -1.0693
  630MOL0     H83147   3.612   4.836   1.170 -0.9499  1.6867  1.7071
  630MOL0     H83148   3.627   4.794   1.813  2.3481  0.0139 -0.5247
  630MOL0     H83149   3.542   4.973   1.940 -2.1309  0.3943 -1.2908
  630MOL0     H83150   3.519   5.179   2.043  1.2051  2.5866 -0.5562
  630MOL0     H83151   3.363   5.125   1.998  0.4557 -0.5483  2.1295
  630MOL0     H83152   3.445   5.431   2.008  0.1674  0.6712  2.0318
  630MOL0     H83153   3.286   5.374   1.986 -0.1609 -0.5994  0.3810
  630MOL0     H83154   3.439   5.342   2.249 -3.1482 -2.1282  2.8228
  630MOL0     H83155   3.281   5.277   2.217 -0.3347 -3.0564 -3.9926
  630MOL0     H83156   3.358   5.554   2.191 -1.7761  2.0558  0.3192
  630MOL0     H83157   3.190   5.493   2.174 -1.4187 -1.7215 -0.6172
  630MOL0     H83158   3.321   5.499   2.584 -1.5042  2.1018  0.4711
  630MOL0     H83159   3.478   5.196   1.576  2.2583  0.0903 -0.4833
  630MOL0     H83160   3.581   5.031   1.457 -0.2622  2.9899  0.1596
  631MOL0     O83161  10.256   4.985   5.577 -0.2580  0.5432 -0.3620
  631MOL0     C83162  10.323   4.964   5.674 -0.3853  0.2948 -0.0793
  631MOL0     O83163  10.311   4.857   5.762  0.6308  0.1375  0.1812
  631MOL0     C83164  10.191   4.790   5.756 -0.5021  0.3028  0.1139
  631MOL0     C83165  10.109   4.816   5.857 -0.2842  0.0631  0.2455
  631MOL0     C83166   9.996   4.731   5.883  0.0037  0.6726 -0.5493
  631MOL0     C83167   9.977   4.625   5.798  0.1242 -0.8664  0.3955
  631MOL0     O83168   9.882   4.534   5.829 -0.1388  0.3099 -0.1129
  631MOL0     C83169   9.748   4.561   5.779  0.3655 -0.3186 -0.0570
  631MOL0     C83170   9.712   4.512   5.639  0.6725  0.2746  1.1909
  631MOL0     C83171   9.708   4.641   5.551 -0.4071 -0.1780  0.1360
  631MOL0     C83172   9.685   4.606   5.395  0.8290 -0.1027 -0.5071
  631MOL0     C83173   9.794   4.645   5.306  0.4362 -0.4690  0.0969
  631MOL0     C83174   9.787   4.795   5.282  0.2871 -1.5935  0.5870
  631MOL0     C83175   9.904   4.834   5.198  0.3927  0.6690  0.3298
  631MOL0     C83176   9.900   4.969   5.139 -0.6526  0.7743  0.0291
  631MOL0     N83177   9.923   5.080   5.232  0.4854 -0.4280  0.1946
  631MOL0     C83178   9.996   5.086   5.346 -0.1685  0.2652 -0.8878
  631MOL0     C83179   9.973   5.206   5.408 -0.0366  0.1751 -0.2398
  631MOL0     C83180  10.016   5.266   5.540  1.1531 -0.3294  0.0302
  631MOL0     C83181   9.893   5.241   5.644  0.4074 -0.1427 -0.3139
  631MOL0     C83182   9.891   5.112   5.727 -0.5413 -0.2859  0.8809
  631MOL0     C83183   9.756   5.087   5.788  0.5372 -0.2162 -1.1529
  631MOL0     O83184   9.727   5.186   5.897 -0.6478 -0.4732 -0.5425
  631MOL0     C83185   9.736   5.140   6.024 -0.2089  0.2833 -0.1467
  631MOL0     C83186   9.661   5.032   6.079  0.3099 -0.0311 -0.5893
  631MOL0     C83187   9.685   4.997   6.217  0.3772 -0.4029 -1.0499
  631MOL0     C83188   9.772   5.066   6.299 -0.2263  0.1410  0.3752
  631MOL0     C83189   9.808   5.017   6.433 -0.6606  0.4033 -0.3228
  631MOL0     O83190   9.890   5.102   6.499 -0.0662 -1.1854  0.2271
  631MOL0     C83191   9.925   5.085   6.631 -0.7262  0.1465 -0.6431
  631MOL0     C83192  10.041   5.158   6.670  0.5975 -0.3514 -0.9313
  631MOL0     C83193  10.087   5.149   6.801 -0.8753  0.3000  0.1249
  631MOL0     C83194  10.035   5.058   6.896  0.5186  0.2713  0.8177
  631MOL0     O83195  10.094   5.047   7.023 -0.3295 -0.4248  0.4945
  631MOL0     C83196  10.051   4.953   7.120  0.7536 -0.4108 -0.2250
  631MOL0     C83197  10.102   4.998   7.260 -0.1155 -0.3485  0.9277
  631MOL0     C83198  10.057   5.132   7.316  0.3945  0.1209 -0.1410
  631MOL0     C83199  10.134   5.152   7.460  1.1804 -0.3766  0.9021
  631MOL0     C83200  10.055   5.084   7.570 -0.7085 -0.2636 -0.0289
  631MOL0     C83201  10.126   5.062   7.695 -0.8741 -0.1845 -0.4354
  631MOL0     C83202  10.148   5.189   7.763  0.4640 -0.0178 -0.3601
  631MOL0     C83203  10.247   5.160   7.875 -0.9874  0.1478 -0.4129
  631MOL0    Cl83204  10.178   5.029   7.993 -0.3840 -0.2264  0.0524
  631MOL0     C83205   9.934   4.977   6.850  1.0241  0.1754  0.0620
  631MOL0     C83206   9.865   5.003   6.728 -1.1992 -0.2245 -0.7161
  631MOL0     O83207   9.762   4.909   6.484 -0.5854 -0.5555 -0.2472
  631MOL0     C83208   9.837   5.183   6.242 -0.3630  0.8626  0.0770
  631MOL0     C83209   9.822   5.215   6.105 -0.0817  0.3203  0.1534
  631MOL0     N83210   9.888   5.275   5.330 -0.0016  1.2634 -0.6307
  631MOL0     N83211   9.864   5.206   5.224  0.5199 -0.1187  0.5469
  631MOL0     C83212  10.060   4.614   5.687 -0.2022  0.0950  0.1010
  631MOL0     C83213  10.167   4.699   5.662 -0.1339 -0.0804  0.8181
  631MOL0     C83214  10.434   5.056   5.706 -0.0705 -0.7366  1.2039
  631MOL0     C83215  10.541   5.022   5.792  0.4562  0.6929  0.3337
  631MOL0     C83216  10.648   5.109   5.790 -0.1525  0.3732 -0.3193
  631MOL0     C83217  10.644   5.232   5.720  0.3981  0.3831  0.1614
  631MOL0     O83218  10.744   5.324   5.750 -0.4826  0.2567 -0.3017
  631MOL0     C83219  10.728   5.381   5.879  0.6608  0.5936  0.0737
  631MOL0     C83220  10.692   5.528   5.871 -0.2367  0.3341 -0.2410
  631MOL0     C83221  10.794   5.609   5.779  0.1493  0.4800  0.6674
  631MOL0     C83222  10.722   5.729   5.704 -0.1965 -0.8035  0.1464
  631MOL0     C83223  10.815   5.780   5.603  0.9398 -1.4055  0.1481
  631MOL0     C83224  10.881   5.829   5.516  0.2737  0.3891  0.1093
  631MOL0     C83225  10.537   5.265   5.638 -0.8037 -0.1622  0.0956
  631MOL0     C83226  10.438   5.175   5.626  0.0636  0.8066 -0.1426
  631MOL0     H83227  10.134   4.891   5.931  1.6503 -0.0532 -0.2319
  631MOL0     H83228   9.932   4.728   5.970  2.7212  0.5094  1.5839
  631MOL0     H83229   9.714   4.664   5.795  0.3981  0.1533 -2.6851
  631MOL0     H83230   9.685   4.502   5.847  2.4733 -0.5171  1.8151
  631MOL0     H83231   9.615   4.462   5.639 -1.0590  3.1961 -2.0136
  631MOL0     H83232   9.798   4.454   5.602 -0.2871 -1.0952  1.0348
  631MOL0     H83233   9.805   4.692   5.558 -0.0802 -0.8673  0.7344
  631MOL0     H83234   9.629   4.713   5.575  0.1025  1.0534 -1.6170
  631MOL0     H83235   9.661   4.500   5.395 -0.1709  0.1107 -0.2876
  631MOL0     H83236   9.591   4.653   5.364  2.5128  1.8285 -3.0453
  631MOL0     H83237   9.787   4.583   5.217 -0.1522 -0.4644  0.1306
  631MOL0     H83238   9.886   4.610   5.354  0.2350 -0.5954  0.3963
  631MOL0     H83239   9.785   4.858   5.371 -0.5088  1.1990 -1.2698
  631MOL0     H83240   9.697   4.803   5.220 -1.8649 -3.8185  3.1451
  631MOL0     H83241   9.992   4.829   5.263  1.6160  0.5190 -1.2757
  631MOL0     H83242   9.906   4.768   5.111  1.4314 -0.0689  0.8980
  631MOL0     H83243   9.808   4.994   5.085 -1.1379  1.4296  1.1319
  631MOL0     H83244   9.987   4.974   5.074  1.0728  0.9236  2.2358
  631MOL0     H83245  10.067   5.009   5.376 -3.2431 -1.2634  3.5715
  631MOL0     H83246  10.024   5.375   5.535  1.9574  0.0267  4.6741
  631MOL0     H83247  10.107   5.220   5.579  0.5874 -0.1949  1.6162
  631MOL0     H83248   9.800   5.245   5.587  0.4287 -2.8647 -0.6550
  631MOL0     H83249   9.886   5.332   5.704  0.3031  3.0393 -4.7202
  631MOL0     H83250   9.916   5.035   5.654  0.6791  2.5714 -1.9535
  631MOL0     H83251   9.973   5.112   5.800 -1.4542 -1.3461  1.9393
  631MOL0     H83252   9.758   4.989   5.837 -1.0740  1.4733  2.7216
  631MOL0     H83253   9.683   5.107   5.709 -0.3514 -2.0721 -0.8520
  631MOL0     H83254   9.588   4.986   6.014 -3.5167  0.2888  3.0228
  631MOL0     H83255   9.632   4.907   6.245  1.1538 -0.5175  0.0949
  631MOL0     H83256  10.080   5.237   6.607 -0.3662 -1.1915 -2.6667
  631MOL0     H83257  10.178   5.199   6.832 -1.8430  2.7373 -0.7377
  631MOL0     H83258  10.080   4.851   7.094  0.9225 -1.9877  5.0489
  631MOL0     H83259   9.942   4.940   7.122  0.6705  0.3421  1.4580
  631MOL0     H83260  10.207   4.983   7.289 -0.4335 -1.1642  1.7121
  631MOL0     H83261  10.040   4.932   7.321 -2.2314  1.1996  0.5449
  631MOL0     H83262   9.949   5.136   7.336  0.5339 -2.9518  1.9188
  631MOL0     H83263  10.092   5.211   7.249 -2.7220  1.4042 -0.4330
  631MOL0     H83264  10.237   5.116   7.461 -0.5327 -6.4186 -0.0774
  631MOL0     H83265  10.134   5.261   7.471  1.5835 -0.5590  3.2189
  631MOL0     H83266  10.022   4.981   7.549 -3.4504  0.5618 -0.2158
  631MOL0     H83267   9.965   5.144   7.588 -1.7908 -1.4410 -1.1964
  631MOL0     H83268  10.220   5.011   7.672  0.5619  3.0566 -2.3607
  631MOL0     H83269  10.056   5.008   7.760 -0.3296  0.1719  0.4768
  631MOL0     H83270  10.179   5.272   7.699 -1.1963  1.4508  0.6580
  631MOL0     H83271  10.054   5.233   7.797  1.9189  1.2775  2.2935
  631MOL0     H83272  10.275   5.245   7.937 -2.0791 -0.1066  0.4673
  631MOL0     H83273  10.342   5.125   7.834  1.2461  2.0555  2.7516
  631MOL0     H83274   9.883   4.907   6.915 -2.5767  0.0858 -2.5398
  631MOL0     H83275   9.764   4.965   6.712 -0.4460 -4.1413  2.3026
  631MOL0     H83276   9.898   5.248   6.304 -2.8037  1.1709  2.3230
  631MOL0     H83277   9.887   5.295   6.071  0.7057 -1.5543 -3.1698
  631MOL0     H83278  10.047   4.532   5.618  0.3903 -0.4164  0.5803
  631MOL0     H83279  10.222   4.687   5.569 -2.0500 -1.4521 -0.2116
  631MOL0     H83280  10.532   4.929   5.846 -1.7374  0.9595  0.4923
  631MOL0     H83281  10.738   5.084   5.845 -1.2801  1.7838  2.3406
  631MOL0     H83282  10.824   5.357   5.926  0.2257 -3.7837 -0.8824
  631MOL0     H83283  10.658   5.325   5.942 -1.3140  1.6983 -1.0369
  631MOL0     H83284  10.591   5.532   5.830 -1.4764  0.3271  2.5539
  631MOL0     H83285  10.692   5.575   5.970  0.7097  1.4642 -0.7628
  631MOL0     H83286  10.822   5.550   5.691  0.3070  3.9897 -1.8121
  631MOL0     H83287  10.879   5.650   5.834 -0.8645  4.6529 -0.5728
  631MOL0     H83288  10.629   5.693   5.658 -0.7684  0.2031  0.4882
  631MOL0     H83289  10.695   5.808   5.775  1.4896 -0.7483  0.7667
  631MOL0     H83290  10.953   5.876   5.453 -1.8009  1.6251 -1.4471
  631MOL0     H83291  10.537   5.363   5.593 -2.3621  0.6423  1.7368
  631MOL0     H83292  10.358   5.208   5.561  1.1885 -0.8178 -2.5125
  632MOL0     O83293   9.476   4.913   5.757  0.2085  0.5998  0.7609
  632MOL0     C83294   9.354   4.933   5.764 -0.8033 -0.5357 -0.3403
  632MOL0     O83295   9.272   4.864   5.849  0.1872  0.2590 -0.2124
  632MOL0     C83296   9.310   4.743   5.903  0.9002  0.6680  0.5716
  632MOL0     C83297   9.337   4.643   5.815  0.9591  0.1657  0.2233
  632MOL0     C83298   9.382   4.523   5.860  0.7206 -0.3132 -0.2884
  632MOL0     C83299   9.417   4.503   5.995  0.4005 -0.6455  1.0318
  632MOL0     O83300   9.464   4.377   6.030  0.5118  0.1844  0.7465
  632MOL0     C83301   9.425   4.339   6.160 -0.3375  0.6204 -0.7147
  632MOL0     C83302   9.458   4.183   6.182 -0.1379  0.5063  0.2526
  632MOL0     C83303   9.380   4.100   6.078  0.9832 -0.3472  0.1544
  632MOL0     C83304   9.430   3.959   6.045  0.8221  0.1990  0.6169
  632MOL0     C83305   9.416   3.865   6.169 -0.5728 -0.0554 -0.8356
  632MOL0     C83306   9.452   3.717   6.146  0.0304  0.4286 -0.4717
  632MOL0     C83307   9.578   3.693   6.066  0.0043 -0.7662  1.2332
  632MOL0     C83308   9.640   3.546   6.083  0.2978  0.1606 -0.6337
  632MOL0     N83309   9.693   3.523   6.223  0.4708  0.0550  0.1025
  632MOL0     C83310   9.822   3.546   6.275  0.6576 -0.4666  0.1419
  632MOL0     C83311   9.813   3.510   6.407 -1.2096 -0.0676  0.3656
  632MOL0     C83312   9.927   3.522   6.502  0.2372  0.1882  0.6713
  632MOL0     C83313   9.953   3.660   6.571  0.1825  0.5126 -0.4530
  632MOL0     C83314   9.846   3.686   6.684  0.0728 -0.6257  0.3527
  632MOL0     C83315   9.856   3.825   6.753 -0.0209  0.1458  0.8201
  632MOL0     O83316   9.983   3.858   6.800 -0.6067 -0.7099  0.2370
  632MOL0     C83317  10.003   3.993   6.817  0.1180  0.7630 -0.3349
  632MOL0     C83318   9.907   4.093   6.817 -0.4020 -0.0055 -0.1914
  632MOL0     C83319   9.948   4.228   6.815  0.2136  0.0298  0.2824
  632MOL0     C83320  10.078   4.263   6.831  0.0976  0.8323 -0.0146
  632MOL0     C83321  10.125   4.395   6.812  0.6399 -0.9214 -0.4105
  632MOL0     O83322  10.245   4.413   6.754  0.1612  0.1446  0.3685
  632MOL0     C83323  10.287   4.540   6.744 -0.7253  0.4880  0.0551
  632MOL0     C83324  10.280   4.645   6.838  0.2325 -0.4316  0.3805
  632MOL0     C83325  10.329   4.766   6.808  0.1654  0.1376  0.7624
  632MOL0     C83326  10.387   4.792   6.677  0.2926  0.0528  0.1615
  632MOL0     O83327  10.430   4.917   6.634  0.5458 -0.1613 -0.6808
  632MOL0     C83328  10.486   5.016   6.724  0.7251 -0.6001 -0.7464
  632MOL0     C83329  10.515   5.137   6.632 -0.2891 -0.4280  0.3901
  632MOL0     C83330  10.385   5.208   6.588 -0.6440 -0.1927 -0.7033
  632MOL0     C83331  10.425   5.328   6.501 -0.4861  0.7188 -0.0341
  632MOL0     C83332  10.297   5.405   6.492 -0.0652 -0.3067  0.5811
  632MOL0     C83333  10.321   5.524   6.406 -0.3066  0.6777 -0.9824
  632MOL0     C83334  10.219   5.630   6.429 -0.1791 -0.4963  0.7077
  632MOL0     C83335  10.082   5.616   6.367  0.0498 -0.2974 -0.0934
  632MOL0    Cl83336  10.014   5.778   6.354  0.2385  0.1615 -0.3802
  632MOL0     C83337  10.402   4.687   6.582  0.1994  0.5979 -0.0330
  632MOL0     C83338  10.350   4.561   6.619 -0.0028  0.3240 -0.2686
  632MOL0     O83339  10.046   4.488   6.828  0.3198 -0.6049  0.5845
  632MOL0     C83340  10.168   4.164   6.870  0.4079 -0.3827 -0.1228
  632MOL0     C83341  10.131   4.029   6.865  0.1374  1.1586  0.3984
  632MOL0     N83342   9.685   3.463   6.434 -0.6284  0.5073 -1.2877
  632MOL0     N83343   9.616   3.471   6.323  1.2328 -0.1200  0.2911
  632MOL0     C83344   9.390   4.610   6.081 -0.0102  0.6483 -0.1519
  632MOL0     C83345   9.335   4.730   6.036 -0.8509 -0.1261  0.5784
  632MOL0     C83346   9.286   5.023   5.674  0.7465 -0.5058  0.0787
  632MOL0     C83347   9.165   5.091   5.714  0.5640  0.3526  0.1502
  632MOL0     C83348   9.107   5.188   5.629 -0.5686 -0.1160 -0.0682
  632MOL0     C83349   9.175   5.229   5.516 -1.0142 -1.4040  0.4110
  632MOL0     O83350   9.111   5.329   5.442  0.3503 -0.3196 -0.0088
  632MOL0     C83351   9.138   5.346   5.300  0.4919 -0.0641 -1.0313
  632MOL0     C83352   9.062   5.252   5.215 -0.7644  0.0726  0.2120
  632MOL0     C83353   8.905   5.285   5.205 -0.1722 -0.5306  0.6209
  632MOL0     C83354   8.837   5.196   5.108  1.1441 -0.0617 -0.2691
  632MOL0     C83355   8.846   5.062   5.157 -0.3310  0.4859 -0.0850
  632MOL0     C83356   8.838   4.962   5.223  0.5974  0.3888 -0.7250
  632MOL0     C83357   9.296   5.168   5.483  0.5090  0.3407  0.9366
  632MOL0     C83358   9.344   5.060   5.557 -0.1264 -0.6432  0.1279
  632MOL0     H83359   9.326   4.659   5.708  1.1411 -0.4139  0.1157
  632MOL0     H83360   9.394   4.452   5.779 -0.4359 -0.7370 -0.1000
  632MOL0     H83361   9.318   4.346   6.179 -0.7616 -1.8997 -1.7873
  632MOL0     H83362   9.476   4.392   6.241  0.4469 -2.9197  1.3131
  632MOL0     H83363   9.458   4.146   6.285 -0.2730  1.4748  0.6061
  632MOL0     H83364   9.564   4.171   6.158 -0.4421 -1.3313 -0.3949
  632MOL0     H83365   9.377   4.155   5.983 -1.4947 -0.2758  0.1986
  632MOL0     H83366   9.273   4.090   6.098  1.1186 -2.2011  0.1929
  632MOL0     H83367   9.383   3.920   5.954 -1.0592 -1.3541  2.1433
  632MOL0     H83368   9.536   3.957   6.021  0.1326 -1.9711 -3.1656
  632MOL0     H83369   9.312   3.874   6.201 -0.9920  2.3907 -2.5893
  632MOL0     H83370   9.473   3.903   6.255 -2.2424 -2.5366  1.5127
  632MOL0     H83371   9.370   3.669   6.091 -1.2895 -1.4923  2.8999
  632MOL0     H83372   9.459   3.681   6.249  1.1546  0.9963 -0.3379
  632MOL0     H83373   9.554   3.694   5.960  3.1825  0.4673  0.4170
  632MOL0     H83374   9.660   3.765   6.073  0.3369 -0.9671 -0.3132
  632MOL0     H83375   9.722   3.532   6.012  0.4168 -0.0043 -0.4618
  632MOL0     H83376   9.571   3.470   6.045  1.1086  0.9391 -3.9647
  632MOL0     H83377   9.905   3.589   6.218  1.2565 -1.7667 -0.0041
  632MOL0     H83378  10.015   3.500   6.440 -1.0839 -0.2515 -1.1232
  632MOL0     H83379   9.911   3.450   6.583 -0.1506  0.5129  0.8869
  632MOL0     H83380   9.939   3.744   6.502  0.4707  0.4389 -0.6028
  632MOL0     H83381  10.052   3.668   6.617 -0.3473 -2.3751  1.4384
  632MOL0     H83382   9.747   3.678   6.640 -1.0642 -0.3539  2.7297
  632MOL0     H83383   9.861   3.609   6.760 -2.3581 -2.0332 -0.4937
  632MOL0     H83384   9.779   3.828   6.830  0.0401  1.6225  0.8394
  632MOL0     H83385   9.828   3.900   6.678 -1.5958 -0.7725  0.4230
  632MOL0     H83386   9.801   4.070   6.805 -0.7134  0.0491  1.9949
  632MOL0     H83387   9.870   4.302   6.803 -0.8663 -0.7121  2.1673
  632MOL0     H83388  10.210   4.646   6.921 -0.0034  0.4847  0.1813
  632MOL0     H83389  10.315   4.847   6.879  0.3699  2.4584 -1.6939
  632MOL0     H83390  10.581   4.990   6.771 -0.3581 -0.4050  1.7105
  632MOL0     H83391  10.413   5.039   6.802 -1.6440 -1.1716 -2.6834
  632MOL0     H83392  10.567   5.103   6.542  0.1422  0.2655  0.3693
  632MOL0     H83393  10.581   5.198   6.694 -2.3141 -0.1285  2.4009
  632MOL0     H83394  10.340   5.234   6.684 -3.5052 -3.6975 -0.9014
  632MOL0     H83395  10.321   5.139   6.533 -0.3289 -0.1244 -1.1625
  632MOL0     H83396  10.494   5.395   6.554 -0.0770 -0.4262  0.9250
  632MOL0     H83397  10.464   5.289   6.407 -1.2065 -0.5173  0.1689
  632MOL0     H83398  10.269   5.436   6.593 -0.4435 -1.4718  0.8463
  632MOL0     H83399  10.216   5.340   6.458  1.7823 -2.5716  0.2953
  632MOL0     H83400  10.315   5.492   6.301 -0.1873 -1.4653 -0.3849
  632MOL0     H83401  10.425   5.553   6.418  0.3934 -1.5756 -1.1586
  632MOL0     H83402  10.207   5.650   6.536  0.6532  2.8209  0.3179
  632MOL0     H83403  10.256   5.721   6.381  2.0545 -1.5798  0.2331
  632MOL0     H83404  10.013   5.556   6.428  0.1502 -2.1458 -1.6833
  632MOL0     H83405  10.088   5.570   6.267  0.7961  0.6255 -0.4896
  632MOL0     H83406  10.447   4.711   6.487 -0.6156 -2.9098 -1.4532
  632MOL0     H83407  10.363   4.483   6.545 -0.1942 -0.1695  0.2090
  632MOL0     H83408  10.268   4.201   6.888  0.7075 -1.3016  0.1435
  632MOL0     H83409  10.201   3.948   6.882  0.8056  1.7556  0.5619
  632MOL0     H83410   9.418   4.598   6.185  0.8641  0.1579 -0.4378
  632MOL0     H83411   9.334   4.816   6.102 -0.3914 -0.1862  0.6641
  632MOL0     H83412   9.126   5.051   5.807  0.4123  0.2251  0.0322
  632MOL0     H83413   9.005   5.220   5.650 -0.7408 -0.4682 -0.3549
  632MOL0     H83414   9.244   5.327   5.280  0.7922  2.4795 -2.1796
  632MOL0     H83415   9.113   5.451   5.281  0.7444  0.1095 -0.4478
  632MOL0     H83416   9.112   5.275   5.121  2.6053 -1.8591  1.3405
  632MOL0     H83417   9.088   5.150   5.244 -0.4104 -1.1129 -3.7705
  632MOL0     H83418   8.893   5.385   5.164  0.1629 -0.2443  1.2043
  632MOL0     H83419   8.858   5.278   5.304 -2.0658  1.1279 -0.0972
  632MOL0     H83420   8.734   5.231   5.097  0.6965 -1.6331 -1.3925
  632MOL0     H83421   8.877   5.198   5.006 -0.4543  2.0490 -0.9272
  632MOL0     H83422   8.825   4.873   5.280 -3.3498  0.6322 -0.9740
  632MOL0     H83423   9.354   5.192   5.394  0.0495  1.1361  0.8467
  632MOL0     H83424   9.439   5.014   5.532  1.8456  2.1751  1.8144
  633MOL0     O83425   3.692   5.940   5.174 -0.3134  0.2624  0.0575
  633MOL0     C83426   3.740   5.903   5.283  0.3428 -0.6907 -0.1382
  633MOL0     O83427   3.863   5.924   5.334 -0.4357 -0.8216 -0.9040
  633MOL0     C83428   3.971   5.962   5.255  0.7157 -0.1071  0.4631
  633MOL0     C83429   3.973   6.073   5.168  0.4430  0.0706 -0.0577
  633MOL0     C83430   4.076   6.108   5.084  0.4960 -0.6352 -0.0809
  633MOL0     C83431   4.190   6.037   5.092  0.1715  0.0357  0.6505
  633MOL0     O83432   4.284   6.074   5.004  0.0469  0.6647 -0.6214
  633MOL0     C83433   4.413   6.012   5.002  1.0994 -1.1658  0.6011
  633MOL0     C83434   4.511   6.069   4.895  0.4370 -0.2659  0.3241
  633MOL0     C83435   4.535   6.215   4.918 -1.2222 -0.5593  0.6222
  633MOL0     C83436   4.664   6.261   4.828  0.2702 -0.0710 -0.5154
  633MOL0     C83437   4.691   6.413   4.852  0.5001  0.7199  0.9580
  633MOL0     C83438   4.803   6.464   4.769  0.7435  0.2366 -0.1943
  633MOL0     C83439   4.822   6.614   4.800  0.4533  0.5708 -0.5372
  633MOL0     C83440   4.939   6.672   4.731  0.1515 -0.1292  0.6110
  633MOL0     N83441   4.955   6.622   4.589  0.7451  0.6047 -1.0515
  633MOL0     C83442   5.040   6.524   4.538  0.4840  0.7890 -0.6845
  633MOL0     C83443   5.028   6.543   4.406  0.2015 -1.5400  0.8352
  633MOL0     C83444   5.119   6.472   4.309  0.4885 -0.5035  0.1032
  633MOL0     C83445   5.213   6.575   4.228 -0.6399 -0.9073 -0.3592
  633MOL0     C83446   5.325   6.495   4.167  0.3279  0.1888  0.8306
  633MOL0     C83447   5.423   6.565   4.072  0.8962  0.8328  0.8210
  633MOL0     O83448   5.497   6.479   3.982  0.2069  0.1794 -0.6626
  633MOL0     C83449   5.572   6.529   3.881 -0.1934 -0.2094 -0.5864
  633MOL0     C83450   5.632   6.656   3.883 -0.0547 -0.1364 -0.1214
  633MOL0     C83451   5.717   6.696   3.789  0.5522  0.7170 -0.1388
  633MOL0     C83452   5.770   6.605   3.700  0.1767  0.3304 -0.0426
  633MOL0     C83453   5.868   6.649   3.598 -0.0132 -0.0888  1.5063
  633MOL0     O83454   5.895   6.786   3.599 -0.4474  0.4404 -0.3498
  633MOL0     C83455   6.025   6.836   3.587 -0.3232  0.6283 -0.0063
  633MOL0     C83456   6.069   6.920   3.689  0.3343  0.0736  0.2790
  633MOL0     C83457   6.189   6.981   3.682  0.0319  0.3391  0.5631
  633MOL0     C83458   6.274   6.954   3.569 -0.6306 -0.2823 -0.5670
  633MOL0     O83459   6.393   7.017   3.563 -0.4484  0.6371  0.6971
  633MOL0     C83460   6.507   6.944   3.604 -0.3663 -0.6323  0.9253
  633MOL0     C83461   6.572   7.027   3.711 -0.5794  0.1155 -0.3209
  633MOL0     C83462   6.700   6.976   3.782  0.3839  0.4072  0.4606
  633MOL0     C83463   6.743   7.051   3.914  0.2970 -0.2613  0.0749
  633MOL0     C83464   6.809   7.182   3.871  0.5976 -0.8002 -0.3647
  633MOL0     C83465   6.872   7.258   3.985 -0.2684  1.2973  0.3866
  633MOL0     C83466   6.986   7.185   4.062  0.0483 -0.0519 -0.0426
  633MOL0     C83467   7.122   7.244   4.028 -0.1005  0.0818 -0.0699
  633MOL0    Cl83468   7.120   7.399   4.120  0.0793  0.3572 -0.0594
  633MOL0     C83469   6.232   6.865   3.468  1.4725  0.9741  0.9832
  633MOL0     C83470   6.107   6.803   3.478  0.0053 -0.8165 -0.0986
  633MOL0     O83471   5.917   6.570   3.515 -0.2905  0.6849  0.9183
  633MOL0     C83472   5.716   6.473   3.685 -0.2630 -0.6339  0.1914
  633MOL0     C83473   5.622   6.434   3.788 -0.0618 -0.1342  1.1603
  633MOL0     N83474   4.932   6.636   4.372  0.1099  0.2598  0.1756
  633MOL0     N83475   4.891   6.678   4.487 -0.3446 -0.9978  0.6406
  633MOL0     C83476   4.204   5.937   5.187 -0.6608 -1.1829  0.8454
  633MOL0     C83477   4.093   5.892   5.259 -0.0406  0.4091 -0.2490
  633MOL0     C83478   3.649   5.830   5.369  0.1283  0.1745 -0.4806
  633MOL0     C83479   3.545   5.742   5.328 -0.1901 -1.0504 -0.6054
  633MOL0     C83480   3.458   5.663   5.418 -0.3260 -0.3007 -0.1019
  633MOL0     C83481   3.483   5.666   5.550 -0.0574  0.0261  0.3637
  633MOL0     O83482   3.410   5.590   5.645 -0.3597 -0.0303 -0.3145
  633MOL0     C83483   3.302   5.500   5.597 -1.0911  0.4627  0.4840
  633MOL0     C83484   3.351   5.373   5.528  0.1154  0.3053  1.0146
  633MOL0     C83485   3.234   5.304   5.455  0.4214  0.1897  0.0018
  633MOL0     C83486   3.293   5.172   5.397  0.9462 -0.0235 -0.3262
  633MOL0     C83487   3.172   5.097   5.348 -0.1447  0.2469  0.7848
  633MOL0     C83488   3.075   5.034   5.312  1.0517 -1.1725  0.4351
  633MOL0     C83489   3.590   5.740   5.606 -0.5016 -0.6475  0.5438
  633MOL0     C83490   3.666   5.823   5.510  0.3645 -0.6699  0.2742
  633MOL0     H83491   3.883   6.134   5.161  0.6195  0.1458 -2.5113
  633MOL0     H83492   4.055   6.198   5.027 -2.4085 -1.7086 -0.8272
  633MOL0     H83493   4.398   5.905   4.984 -1.8275 -0.9355  1.1724
  633MOL0     H83494   4.453   6.029   5.102 -0.1829 -0.8033  1.0796
  633MOL0     H83495   4.469   6.052   4.796 -1.3929  0.7236  0.8835
  633MOL0     H83496   4.608   6.019   4.898  1.1591  1.0729  3.3603
  633MOL0     H83497   4.579   6.227   5.018 -0.4662 -0.9078  0.3416
  633MOL0     H83498   4.445   6.274   4.900  0.8120  2.2133 -1.3116
  633MOL0     H83499   4.759   6.210   4.845  1.5272  2.6625  1.5722
  633MOL0     H83500   4.629   6.249   4.725 -2.0359  1.2875  0.0347
  633MOL0     H83501   4.700   6.438   4.958 -4.6949  0.3049  1.7599
  633MOL0     H83502   4.601   6.469   4.823  0.9686  1.0288  0.0893
  633MOL0     H83503   4.787   6.446   4.663  0.1347  1.0414 -0.2490
  633MOL0     H83504   4.896   6.415   4.801  1.1137 -0.0902 -1.7129
  633MOL0     H83505   4.726   6.662   4.780  0.9315  1.0879 -1.6977
  633MOL0     H83506   4.852   6.616   4.905  0.5601 -0.4127 -0.5400
  633MOL0     H83507   5.034   6.648   4.780 -0.5292 -2.9626  0.6894
  633MOL0     H83508   4.931   6.781   4.720 -2.2371 -0.2899  0.2232
  633MOL0     H83509   5.105   6.464   4.601 -1.8353 -0.0877  1.0277
  633MOL0     H83510   5.056   6.412   4.243 -0.9663  2.0302 -0.9803
  633MOL0     H83511   5.184   6.406   4.366  0.8234  1.1675  1.7733
  633MOL0     H83512   5.250   6.646   4.302  0.9677 -2.1661  0.1030
  633MOL0     H83513   5.151   6.628   4.155 -0.7316 -1.7413 -0.8975
  633MOL0     H83514   5.378   6.440   4.246  0.0855 -2.7400 -0.8900
  633MOL0     H83515   5.279   6.411   4.114 -0.4477  1.6210 -0.8426
  633MOL0     H83516   5.491   6.638   4.117  1.6272  1.5840 -1.3816
  633MOL0     H83517   5.360   6.628   4.008  1.0409  0.8782  0.7227
  633MOL0     H83518   5.605   6.738   3.949 -2.5303 -0.3111 -0.7856
  633MOL0     H83519   5.745   6.801   3.797 -2.8633  1.5743  2.6717
  633MOL0     H83520   5.988   6.943   3.757 -0.1300  1.5006 -0.7118
  633MOL0     H83521   6.218   7.049   3.761  1.0439  0.5089  0.0540
  633MOL0     H83522   6.584   6.940   3.526  1.0553  0.5479  2.1882
  633MOL0     H83523   6.473   6.848   3.643  0.1990 -1.3471 -0.2750
  633MOL0     H83524   6.505   7.045   3.796  1.5456  1.6524  1.1342
  633MOL0     H83525   6.584   7.120   3.655 -0.5394 -0.3921 -1.1675
  633MOL0     H83526   6.782   6.980   3.709  0.8969  1.2497  1.0648
  633MOL0     H83527   6.674   6.873   3.809 -2.6353  1.2930  1.3612
  633MOL0     H83528   6.666   7.069   3.989 -0.4172 -3.9840  0.4437
  633MOL0     H83529   6.820   6.994   3.967  2.7501  1.7302 -1.0877
  633MOL0     H83530   6.727   7.229   3.816 -0.7610 -2.2152  0.3564
  633MOL0     H83531   6.885   7.158   3.797  3.1329 -0.1333  1.8863
  633MOL0     H83532   6.791   7.277   4.057 -1.6584  0.9209 -1.0073
  633MOL0     H83533   6.911   7.349   3.938 -4.1134  1.3175 -3.4458
  633MOL0     H83534   6.967   7.183   4.170 -0.1231  1.1666 -0.0449
  633MOL0     H83535   6.994   7.080   4.032  0.1225 -0.4030  1.1225
  633MOL0     H83536   7.120   7.252   3.919  1.6640  0.1027 -0.1290
  633MOL0     H83537   7.204   7.181   4.063  3.1110  1.8991 -3.5431
  633MOL0     H83538   6.283   6.851   3.373  0.4429  0.4414  0.4943
  633MOL0     H83539   6.069   6.743   3.395 -1.7645  0.0621  0.0179
  633MOL0     H83540   5.746   6.405   3.605  2.0154 -0.2345  0.6377
  633MOL0     H83541   5.586   6.333   3.795  0.6805 -0.5026  0.0123
  633MOL0     H83542   4.296   5.880   5.195  1.5763  2.0451  0.2706
  633MOL0     H83543   4.107   5.799   5.314 -0.0375  2.5783  3.8637
  633MOL0     H83544   3.520   5.739   5.223  0.1743 -0.4888 -0.7088
  633MOL0     H83545   3.375   5.617   5.365 -0.4484 -0.0484 -0.1347
  633MOL0     H83546   3.238   5.555   5.527  0.3335  1.2879 -0.2161
  633MOL0     H83547   3.245   5.459   5.682 -1.8190  1.5459  0.5478
  633MOL0     H83548   3.425   5.399   5.452  1.1130 -1.3302  1.3777
  633MOL0     H83549   3.400   5.307   5.599 -0.8711  0.7449  2.1423
  633MOL0     H83550   3.185   5.368   5.381  0.9394  0.4351 -0.1326
  633MOL0     H83551   3.161   5.279   5.532 -0.7525  1.4813 -0.6449
  633MOL0     H83552   3.351   5.194   5.306 -1.6989 -4.2137 -3.4378
  633MOL0     H83553   3.363   5.105   5.448 -0.7139 -3.2773 -1.9662
  633MOL0     H83554   2.985   4.995   5.269 -0.9011  0.4382  2.7198
  633MOL0     H83555   3.607   5.740   5.714  0.8893 -1.5719  0.3469
  633MOL0     H83556   3.751   5.874   5.555  1.7514 -1.7450 -1.0213
  634MOL0     O83557   7.436   7.830  10.161  0.0720 -1.1342  0.0384
  634MOL0     C83558   7.390   7.725  10.206  0.5162  0.2577 -0.3051
  634MOL0     O83559   7.279   7.655  10.150  0.2313  0.4848 -0.6102
  634MOL0     C83560   7.252   7.680  10.014 -0.2685  0.6435 -1.0470
  634MOL0     C83561   7.357   7.654   9.921  0.1034  0.4652 -0.3919
  634MOL0     C83562   7.327   7.641   9.788  0.2073 -0.7088 -0.2448
  634MOL0     C83563   7.195   7.664   9.738  0.9871 -0.3478 -0.7625
  634MOL0     O83564   7.163   7.639   9.610 -0.2325  0.3301  0.1059
  634MOL0     C83565   7.174   7.760   9.525  0.1409 -0.6377 -0.7286
  634MOL0     C83566   7.139   7.723   9.379 -0.1464  0.9646 -0.2253
  634MOL0     C83567   6.984   7.688   9.350 -0.1537  0.0396  0.1067
  634MOL0     C83568   6.958   7.642   9.197  0.0341  0.2955  0.1905
  634MOL0     C83569   6.809   7.634   9.182 -0.3506  0.6683 -0.5101
  634MOL0     C83570   6.769   7.607   9.037 -0.3093 -0.4499 -0.4470
  634MOL0     C83571   6.621   7.624   8.996  0.8804  0.2280  0.3471
  634MOL0     C83572   6.519   7.631   9.109  0.3925  0.2192 -0.5381
  634MOL0     N83573   6.478   7.504   9.161 -0.0130 -0.0780 -0.4095
  634MOL0     C83574   6.536   7.380   9.136  0.3097  0.5503 -0.7008
  634MOL0     C83575   6.458   7.282   9.182 -0.6456  0.1441 -0.1709
  634MOL0     C83576   6.482   7.128   9.176  0.6715 -0.3629 -0.5943
  634MOL0     C83577   6.528   7.097   9.320 -0.2230 -0.7089  0.6265
  634MOL0     C83578   6.663   7.139   9.360 -0.0126  0.0097 -0.4813
  634MOL0     C83579   6.675   7.132   9.516 -0.5384  0.1615  0.0268
  634MOL0     O83580   6.676   7.000   9.556  0.2839  0.1397  0.3828
  634MOL0     C83581   6.747   6.944   9.663  0.0921  0.3199  0.1076
  634MOL0     C83582   6.724   6.808   9.675  0.3099  0.3475  0.1201
  634MOL0     C83583   6.790   6.744   9.775 -0.2728  0.0954 -0.3138
  634MOL0     C83584   6.858   6.814   9.877 -0.1345 -0.3988 -0.0892
  634MOL0     C83585   6.910   6.745  10.001  0.1545 -0.8629  0.6734
  634MOL0     O83586   6.997   6.822  10.073 -0.4964  0.2069  0.8734
  634MOL0     C83587   7.120   6.765  10.113  0.3718  0.1460 -0.1348
  634MOL0     C83588   7.161   6.631  10.113 -0.4696 -0.6619  1.2295
  634MOL0     C83589   7.285   6.591  10.169 -0.3141  0.4709  0.6443
  634MOL0     C83590   7.378   6.676  10.222  0.1805 -0.1920 -0.0809
  634MOL0     O83591   7.484   6.613  10.286 -0.5651 -0.2780  0.8305
  634MOL0     C83592   7.576   6.708  10.341  0.3333  0.0130 -0.9948
  634MOL0     C83593   7.685   6.634  10.427 -0.5072  0.4453  0.1238
  634MOL0     C83594   7.783   6.741  10.482 -0.7403 -0.4042  0.3575
  634MOL0     C83595   7.928   6.691  10.527  0.0919  0.1549  0.0015
  634MOL0     C83596   8.012   6.814  10.545 -0.2326 -0.0401 -0.2718
  634MOL0     C83597   8.114   6.795  10.657  0.6218  0.3490  0.8086
  634MOL0     C83598   8.166   6.935  10.691  0.2658 -0.7219  0.5200
  634MOL0     C83599   8.281   6.931  10.787  0.4026  0.2595 -0.1314
  634MOL0    Cl83600   8.418   6.832  10.709 -0.2702 -0.0981 -0.0869
  634MOL0     C83601   7.344   6.810  10.210  0.7625 -0.0061  0.4423
  634MOL0     C83602   7.216   6.856  10.161 -1.1289 -0.3847  0.0406
  634MOL0     O83603   6.866   6.639  10.040  0.2708  0.2791  0.5373
  634MOL0     C83604   6.892   6.952   9.858 -0.2646  0.8747  0.5240
  634MOL0     C83605   6.825   7.018   9.755  0.1678  0.9729 -0.4221
  634MOL0     N83606   6.341   7.344   9.234 -0.9283  0.9822  0.5707
  634MOL0     N83607   6.357   7.470   9.218  0.5822 -0.0623 -0.7811
  634MOL0     C83608   7.085   7.685   9.825  0.0485 -0.1999 -0.2088
  634MOL0     C83609   7.119   7.678   9.963  0.5118 -0.1137 -0.5072
  634MOL0     C83610   7.439   7.681  10.337 -0.0601 -0.8807 -0.1763
  634MOL0     C83611   7.558   7.734  10.398  0.6511 -0.3387  0.4746
  634MOL0     C83612   7.605   7.691  10.520 -0.5185 -0.0251 -0.1910
  634MOL0     C83613   7.538   7.588  10.583 -0.3358  0.0269  0.2896
  634MOL0     O83614   7.590   7.543  10.704  0.5396  0.4516 -0.5656
  634MOL0     C83615   7.689   7.432  10.699 -0.2236 -0.3442  0.3355
  634MOL0     C83616   7.628   7.318  10.627  0.4124 -0.5449 -0.1817
  634MOL0     C83617   7.707   7.191  10.607 -0.5849  0.0194 -0.2522
  634MOL0     C83618   7.618   7.076  10.549  0.0537 -0.0211  1.0791
  634MOL0     C83619   7.481   7.064  10.589  2.0103 -0.4550 -0.0025
  634MOL0     C83620   7.365   7.059  10.618 -0.6826 -0.0672  0.0104
  634MOL0     C83621   7.423   7.537  10.533 -1.1675 -0.1497 -0.0962
  634MOL0     C83622   7.373   7.579  10.412  1.4017 -0.2304 -1.6888
  634MOL0     H83623   7.462   7.638   9.940  1.1659 -0.2408 -5.4399
  634MOL0     H83624   7.404   7.605   9.720  1.9923  1.2626  0.6045
  634MOL0     H83625   7.273   7.804   9.539 -0.4256  0.0350  1.7440
  634MOL0     H83626   7.100   7.834   9.558 -1.7609 -2.3497 -0.9374
  634MOL0     H83627   7.187   7.629   9.347 -0.0171  0.2633  1.9029
  634MOL0     H83628   7.173   7.799   9.308 -0.5735 -1.2492 -3.0340
  634MOL0     H83629   6.930   7.783   9.351  1.0882  0.7732 -0.3558
  634MOL0     H83630   6.958   7.611   9.423  1.9519 -1.3496 -0.5165
  634MOL0     H83631   7.008   7.714   9.131  2.0153  0.9450  2.2804
  634MOL0     H83632   6.996   7.543   9.168  0.1071  0.0142  1.2201
  634MOL0     H83633   6.755   7.729   9.197 -2.3659 -0.0076 -2.7891
  634MOL0     H83634   6.773   7.562   9.255  2.8738 -0.3512  0.2560
  634MOL0     H83635   6.798   7.508   9.000  1.0494 -0.3057  0.1742
  634MOL0     H83636   6.830   7.670   8.972  0.7631  0.1961  1.1194
  634MOL0     H83637   6.607   7.712   8.932  0.9971  0.8722  1.1934
  634MOL0     H83638   6.587   7.542   8.932  3.8011 -2.0819  1.5373
  634MOL0     H83639   6.431   7.682   9.069 -0.6634 -0.6875  0.5254
  634MOL0     H83640   6.549   7.697   9.190 -1.7029 -0.8605  1.2308
  634MOL0     H83641   6.630   7.369   9.081  1.7181 -0.8770  1.8187
  634MOL0     H83642   6.558   7.102   9.102  3.0156  1.4010  1.0174
  634MOL0     H83643   6.389   7.075   9.153  1.9500 -2.3624 -1.3248
  634MOL0     H83644   6.521   6.988   9.329 -0.1213 -0.5224  4.1715
  634MOL0     H83645   6.448   7.140   9.380 -0.7524 -0.6089 -0.1341
  634MOL0     H83646   6.736   7.073   9.312 -4.4602 -3.5101 -3.2576
  634MOL0     H83647   6.676   7.245   9.339 -1.5210  0.0983 -1.1293
  634MOL0     H83648   6.590   7.185   9.560  1.1116  2.1497  1.0038
  634MOL0     H83649   6.764   7.186   9.550 -1.9178  1.0006  2.5020
  634MOL0     H83650   6.646   6.753   9.622  0.2477 -1.9583  2.4178
  634MOL0     H83651   6.767   6.640   9.793 -1.6071  0.2411 -1.0717
  634MOL0     H83652   7.097   6.551  10.077  0.5439 -0.9850  0.0852
  634MOL0     H83653   7.301   6.485  10.188  0.7243  0.3517 -0.7551
  634MOL0     H83654   7.517   6.770  10.409  1.7556  0.4438 -0.1094
  634MOL0     H83655   7.613   6.771  10.260  1.3373  0.9209  0.1274
  634MOL0     H83656   7.729   6.564  10.356 -0.8936 -1.3677  1.5986
  634MOL0     H83657   7.641   6.575  10.508 -1.9294  0.3702 -0.6716
  634MOL0     H83658   7.738   6.785  10.572  1.7570 -0.7230  1.8631
  634MOL0     H83659   7.793   6.816  10.403  1.3760  0.6771  1.5668
  634MOL0     H83660   7.926   6.628  10.616  0.3478  1.4083  0.9318
  634MOL0     H83661   7.979   6.645  10.443 -0.6275 -1.2859  0.3224
  634MOL0     H83662   7.943   6.895  10.571 -0.0471  0.3858 -1.0719
  634MOL0     H83663   8.062   6.835  10.450  1.8883  4.1959  1.5165
  634MOL0     H83664   8.193   6.731  10.616 -0.5996 -0.7591  0.1071
  634MOL0     H83665   8.069   6.744  10.743  1.5262 -2.1164 -0.0808
  634MOL0     H83666   8.199   6.987  10.601  0.1538 -1.7952 -0.1643
  634MOL0     H83667   8.089   6.997  10.739 -0.1129  0.8180 -1.9158
  634MOL0     H83668   8.267   6.874  10.879  3.1738 -2.0207 -0.9543
  634MOL0     H83669   8.309   7.037  10.794 -2.2475  0.9564  0.9338
  634MOL0     H83670   7.419   6.877  10.252  3.8783 -1.9554 -1.5685
  634MOL0     H83671   7.196   6.962  10.162 -0.2684 -0.1624 -2.0003
  634MOL0     H83672   6.959   7.009   9.921  1.2094  0.1179 -0.3104
  634MOL0     H83673   6.836   7.126   9.744  1.3034  1.3262  2.9182
  634MOL0     H83674   6.983   7.709   9.799 -0.7430 -0.5541  2.2944
  634MOL0     H83675   7.041   7.683  10.038  0.7531  1.3772 -0.3334
  634MOL0     H83676   7.618   7.810  10.348 -1.1668 -0.1335 -1.5208
  634MOL0     H83677   7.698   7.721  10.567  0.7327 -3.3576 -0.2473
  634MOL0     H83678   7.717   7.394  10.798 -1.4052 -2.6372 -0.1289
  634MOL0     H83679   7.780   7.460  10.646  0.1040  1.7552  1.8886
  634MOL0     H83680   7.527   7.294  10.663 -0.1680 -0.3736 -1.6063
  634MOL0     H83681   7.626   7.359  10.525 -0.2730 -2.8412 -1.1432
  634MOL0     H83682   7.734   7.148  10.704  0.3617 -2.3826 -1.5021
  634MOL0     H83683   7.793   7.212  10.544  0.0376 -1.5372  0.0354
  634MOL0     H83684   7.622   7.065  10.440  0.9781 -1.7579  1.2571
  634MOL0     H83685   7.676   6.990  10.584  1.1580  0.2137 -0.1005
  634MOL0     H83686   7.262   7.056  10.647 -0.9864 -1.1404 -1.1235
  634MOL0     H83687   7.368   7.464  10.592  2.4392 -0.4688  3.3635
  634MOL0     H83688   7.281   7.532  10.379 -0.5865  1.8922  0.4775
  635MOL0     O83689   1.105  11.407   8.651 -0.5717  0.2116 -0.2405
  635MOL0     C83690   1.227  11.405   8.639  0.4067  0.4886  0.1963
  635MOL0     O83691   1.309  11.513   8.669  0.1054  0.2597  0.9047
  635MOL0     C83692   1.255  11.637   8.702 -0.2431 -0.7368  0.3707
  635MOL0     C83693   1.137  11.683   8.638 -0.5043 -0.5499 -0.4572
  635MOL0     C83694   1.071  11.795   8.679 -0.5869 -1.2937 -0.0946
  635MOL0     C83695   1.133  11.881   8.782  0.2019  0.3653  0.3430
  635MOL0     O83696   1.085  12.001   8.826 -0.1156  0.4303 -1.2109
  635MOL0     C83697   0.947  12.037   8.781  0.5590  0.3143  1.1813
  635MOL0     C83698   0.879  12.157   8.855 -0.0520  0.0303  0.2407
  635MOL0     C83699   0.894  12.299   8.794 -0.2758 -0.0560  0.5304
  635MOL0     C83700   0.804  12.319   8.667 -0.1635 -0.0916  0.1853
  635MOL0     C83701   0.766  12.464   8.651  0.2037 -0.4121  0.9153
  635MOL0     C83702   0.897  12.549   8.613 -0.0731  0.1313 -0.9835
  635MOL0     C83703   0.868  12.696   8.623  0.2222 -0.3334 -0.0719
  635MOL0     C83704   0.771  12.749   8.526  0.6185 -0.3392  0.0887
  635MOL0     N83705   0.738  12.897   8.541 -0.4979  1.1823  0.1839
  635MOL0     C83706   0.717  12.963   8.655  0.5204  0.0883 -0.3917
  635MOL0     C83707   0.730  13.095   8.624 -0.5166  0.1033 -0.3669
  635MOL0     C83708   0.733  13.213   8.729  0.2994  0.3051  0.0779
  635MOL0     C83709   0.602  13.293   8.708 -0.6750  0.1838 -0.4010
  635MOL0     C83710   0.478  13.198   8.707  0.7912 -0.2589  0.1476
  635MOL0     C83711   0.348  13.271   8.659 -0.4520 -0.6167  0.4678
  635MOL0     O83712   0.328  13.369   8.768 -0.2496  0.3987  0.2113
  635MOL0     C83713   0.244  13.473   8.744 -1.6594 -0.2598  0.9810
  635MOL0     C83714   0.230  13.551   8.857  0.3415 -0.0677  0.4439
  635MOL0     C83715   0.139  13.660   8.867 -0.7299  1.4553 -0.7418
  635MOL0     C83716   0.069  13.699   8.752 -0.3318 -0.4682  0.3037
  635MOL0     C83717  -0.036  13.801   8.753  0.5120  0.6158  0.6169
  635MOL0     O83718  -0.094  13.836   8.640  0.5210 -0.3870  0.5181
  635MOL0     C83719  -0.191  13.936   8.646 -0.7498 -0.7048 -0.3693
  635MOL0     C83720  -0.313  13.916   8.579  0.1794 -0.4713 -0.2587
  635MOL0     C83721  -0.415  14.017   8.594  0.2095 -0.1317  0.8966
  635MOL0     C83722  -0.399  14.130   8.669 -0.9278 -0.0149 -0.6127
  635MOL0     O83723  -0.497  14.231   8.682 -0.2155  0.4294  1.2399
  635MOL0     C83724  -0.637  14.186   8.672  0.0575  0.2455  0.4879
  635MOL0     C83725  -0.738  14.305   8.692  1.1558  0.2767 -1.0995
  635MOL0     C83726  -0.719  14.430   8.589 -1.0959 -0.4105 -0.3570
  635MOL0     C83727  -0.830  14.538   8.611 -0.5494  0.4637  0.4969
  635MOL0     C83728  -0.904  14.567   8.481  0.0589 -0.6301  1.0893
  635MOL0     C83729  -1.006  14.686   8.495  0.2051 -0.5729 -0.2525
  635MOL0     C83730  -1.082  14.720   8.357 -0.0630  0.5946  0.6560
  635MOL0     C83731  -1.141  14.862   8.337 -0.1493 -0.5975  0.8340
  635MOL0    Cl83732  -1.271  14.897   8.441  0.1267 -0.0945 -0.3339
  635MOL0     C83733  -0.275  14.151   8.723 -0.3717  0.0137  0.7449
  635MOL0     C83734  -0.165  14.064   8.703 -0.5052  0.3109 -0.3515
  635MOL0     O83735  -0.069  13.848   8.862 -0.7054 -0.1357  0.6896
  635MOL0     C83736   0.088  13.623   8.634 -0.1315  0.7352 -0.0529
  635MOL0     C83737   0.173  13.505   8.630  0.4680  1.3043 -0.2307
  635MOL0     N83738   0.740  13.105   8.488 -0.4728  0.3514  0.3416
  635MOL0     N83739   0.739  12.987   8.439  0.9564  0.0396 -0.2348
  635MOL0     C83740   1.248  11.836   8.851  0.1824 -0.7719  0.9535
  635MOL0     C83741   1.310  11.714   8.809  0.5360 -0.1343 -0.5004
  635MOL0     C83742   1.292  11.294   8.594  0.5140 -0.1981 -1.1217
  635MOL0     C83743   1.226  11.165   8.570  0.4762 -0.5669  0.1533
  635MOL0     C83744   1.286  11.066   8.491  0.9432  0.1126 -0.0425
  635MOL0     C83745   1.410  11.089   8.434  0.2580 -0.0400 -0.7427
  635MOL0     O83746   1.461  10.988   8.357 -0.4480  0.5288 -0.1887
  635MOL0     C83747   1.464  11.005   8.217  1.0624  0.8535 -0.0026
  635MOL0     C83748   1.415  10.879   8.144 -0.2703  0.9612  0.0650
  635MOL0     C83749   1.439  10.875   7.988  0.3393 -0.5710 -0.2789
  635MOL0     C83750   1.420  10.737   7.925 -0.3598 -0.3000 -0.1579
  635MOL0     C83751   1.281  10.706   7.913  0.4890  0.3469 -0.0224
  635MOL0     C83752   1.159  10.685   7.903 -0.3134  0.6540 -0.8758
  635MOL0     C83753   1.483  11.206   8.462 -0.1732  0.1452  0.9158
  635MOL0     C83754   1.427  11.295   8.555  0.1868  0.5157  0.0613
  635MOL0     H83755   1.103  11.623   8.554  1.8012 -1.3247 -0.9169
  635MOL0     H83756   0.982  11.826   8.626  0.1274 -2.7744 -2.3199
  635MOL0     H83757   0.879  11.951   8.792 -1.0673  0.5844 -4.0144
  635MOL0     H83758   0.934  12.057   8.675 -1.9246  0.9821  1.5498
  635MOL0     H83759   0.937  12.164   8.947  2.2099  0.5468 -1.1144
  635MOL0     H83760   0.775  12.130   8.875  0.8699 -2.6909  1.8157
  635MOL0     H83761   1.001  12.310   8.774 -0.2389  0.8256  1.1335
  635MOL0     H83762   0.864  12.377   8.865 -2.6188 -1.6950  1.4705
  635MOL0     H83763   0.849  12.288   8.573  1.3817  2.3447  0.0263
  635MOL0     H83764   0.707  12.270   8.675  0.2200 -0.6808  1.7733
  635MOL0     H83765   0.720  12.488   8.747 -1.9893 -2.4481  0.4612
  635MOL0     H83766   0.690  12.471   8.573  1.8478 -0.3172 -0.7226
  635MOL0     H83767   0.939  12.520   8.517  0.7659 -0.4960 -0.4488
  635MOL0     H83768   0.973  12.532   8.690 -3.0800  2.3285  2.8467
  635MOL0     H83769   0.840  12.714   8.728  1.4373 -2.3307  0.6523
  635MOL0     H83770   0.962  12.749   8.610 -1.1054  1.9726 -0.9279
  635MOL0     H83771   0.669  12.710   8.535  0.2965  0.5113  0.3004
  635MOL0     H83772   0.807  12.723   8.426 -1.1239 -0.7952 -0.4602
  635MOL0     H83773   0.686  12.932   8.754 -0.5237 -0.9854 -1.0391
  635MOL0     H83774   0.826  13.271   8.725  1.7411 -1.8434  0.4858
  635MOL0     H83775   0.728  13.166   8.828  0.0360 -1.2999 -0.6643
  635MOL0     H83776   0.613  13.348   8.614  2.5160  1.8874  0.8308
  635MOL0     H83777   0.580  13.355   8.795 -2.3493 -1.7404  0.6266
  635MOL0     H83778   0.503  13.121   8.634  0.6583 -0.8152  0.6794
  635MOL0     H83779   0.466  13.170   8.812  1.7380 -0.5956  0.1807
  635MOL0     H83780   0.261  13.205   8.651 -1.1442  0.4105 -0.9647
  635MOL0     H83781   0.373  13.307   8.559  0.9795 -3.2396 -0.2003
  635MOL0     H83782   0.286  13.526   8.947 -0.3935  1.1843  1.2839
  635MOL0     H83783   0.122  13.720   8.955  1.1360  0.8056  0.1218
  635MOL0     H83784  -0.333  13.820   8.533  2.7324 -0.5943 -1.2614
  635MOL0     H83785  -0.509  13.989   8.547  1.3565  0.1341 -1.7264
  635MOL0     H83786  -0.673  14.097   8.725 -0.1739  0.4181  0.6186
  635MOL0     H83787  -0.652  14.154   8.568  3.6513 -0.6486  0.0993
  635MOL0     H83788  -0.739  14.353   8.790 -6.9154 -0.4570 -0.0988
  635MOL0     H83789  -0.834  14.253   8.686  1.6239 -0.9060  0.9393
  635MOL0     H83790  -0.727  14.399   8.485 -2.0638  0.0092 -0.4209
  635MOL0     H83791  -0.617  14.463   8.607 -0.5496 -2.0464 -0.2543
  635MOL0     H83792  -0.905  14.499   8.681  0.7891 -3.0548  0.1740
  635MOL0     H83793  -0.782  14.625   8.657  5.3537 -0.2813 -3.2175
  635MOL0     H83794  -0.963  14.480   8.451 -0.9116 -0.4953  2.5277
  635MOL0     H83795  -0.821  14.600   8.418 -2.2683  4.8216  0.3333
  635MOL0     H83796  -0.949  14.771   8.533  1.7447 -1.1175 -1.2786
  635MOL0     H83797  -1.082  14.656   8.567 -0.1304 -2.4572 -1.3242
  635MOL0     H83798  -1.022  14.692   8.269 -0.4631  2.5652 -0.3062
  635MOL0     H83799  -1.172  14.658   8.359  1.4956 -1.7920  1.0000
  635MOL0     H83800  -1.192  14.870   8.240  0.6046 -2.2580  0.2729
  635MOL0     H83801  -1.060  14.933   8.354 -0.6167 -0.0552  0.8449
  635MOL0     H83802  -0.270  14.244   8.779 -1.7695 -0.9217  2.5577
  635MOL0     H83803  -0.067  14.091   8.741 -0.4618  5.3172 -3.1049
  635MOL0     H83804   0.032  13.650   8.545 -0.7061  0.2820  0.1691
  635MOL0     H83805   0.187  13.445   8.541  0.3738 -0.0953  0.6485
  635MOL0     H83806   1.298  11.879   8.938 -1.2823 -0.5442  1.7247
  635MOL0     H83807   1.397  11.676   8.862  0.3602  0.7374  0.4456
  635MOL0     H83808   1.128  11.154   8.615  0.5594  1.0456  0.7930
  635MOL0     H83809   1.241  10.967   8.486  1.6099 -0.5166  3.5867
  635MOL0     H83810   1.565  11.033   8.184  0.4478  0.0746 -2.8375
  635MOL0     H83811   1.392  11.083   8.190 -0.7075  0.1590  2.4169
  635MOL0     H83812   1.455  10.789   8.191 -1.3455  0.1246 -0.5784
  635MOL0     H83813   1.306  10.885   8.149 -0.4059 -0.5418 -0.4777
  635MOL0     H83814   1.541  10.910   7.966  0.6401 -0.3415  1.3499
  635MOL0     H83815   1.379  10.955   7.944 -0.1496 -1.1639 -0.6909
  635MOL0     H83816   1.468  10.750   7.827  0.0764 -0.7198  0.0006
  635MOL0     H83817   1.475  10.656   7.974  0.4513  0.9051  0.9644
  635MOL0     H83818   1.059  10.648   7.897  0.3834 -1.0626 -3.3277
  635MOL0     H83819   1.587  11.216   8.433  0.0514 -0.2931  1.5236
  635MOL0     H83820   1.499  11.373   8.582 -0.4738  0.6436  1.5592
  636MOL0     O83821   8.115   5.482   1.360 -0.1569  1.0123 -0.0114
  636MOL0     C83822   8.120   5.357   1.335  0.6557 -0.1364  0.3251
  636MOL0     O83823   8.111   5.299   1.207  0.1724  0.5598  0.0961
  636MOL0     C83824   8.118   5.384   1.094 -0.3179 -0.5359 -0.0971
  636MOL0     C83825   8.243   5.425   1.050 -0.2516 -0.2557 -0.0422
  636MOL0     C83826   8.258   5.469   0.919 -0.1026 -0.1186  1.1465
  636MOL0     C83827   8.138   5.488   0.842 -0.3258 -1.4459  0.1549
  636MOL0     O83828   8.149   5.551   0.720 -0.8216  0.5593 -0.0636
  636MOL0     C83829   8.127   5.691   0.719  0.7218 -0.9745 -0.5990
  636MOL0     C83830   8.156   5.749   0.574 -0.0516 -0.3206  0.0928
  636MOL0     C83831   8.028   5.730   0.496 -0.2415  0.9901 -0.1111
  636MOL0     C83832   8.024   5.792   0.358 -0.9324  0.2460 -0.2233
  636MOL0     C83833   8.116   5.689   0.268 -0.5494  0.1204  0.4081
  636MOL0     C83834   8.152   5.755   0.129 -0.1487 -0.2054  0.1736
  636MOL0     C83835   8.033   5.799   0.039  0.4925 -0.4293 -0.6636
  636MOL0     C83836   8.070   5.810  -0.108  0.7010  0.3635 -0.4996
  636MOL0     N83837   7.949   5.832  -0.194  0.0866  0.1873 -1.1246
  636MOL0     C83838   7.879   5.950  -0.173  1.2587  0.5041  0.7948
  636MOL0     C83839   7.791   5.943  -0.277  0.7573 -0.3465  0.3013
  636MOL0     C83840   7.691   6.043  -0.314  0.0902 -0.8334 -0.2948
  636MOL0     C83841   7.756   6.181  -0.330  0.4193 -0.8959  0.1657
  636MOL0     C83842   7.854   6.196  -0.450 -0.1532  0.0463  0.4210
  636MOL0     C83843   7.951   6.314  -0.444 -0.8065  0.0764  0.0470
  636MOL0     O83844   8.047   6.284  -0.342  0.4393  0.2570 -0.0855
  636MOL0     C83845   8.161   6.363  -0.359 -0.1054  0.5779 -0.1931
  636MOL0     C83846   8.259   6.317  -0.446  0.6823  0.0024  0.8960
  636MOL0     C83847   8.380   6.382  -0.468  1.1729 -0.9816  0.6191
  636MOL0     C83848   8.415   6.497  -0.398  0.4478  0.6600 -0.3941
  636MOL0     C83849   8.537   6.578  -0.413 -0.2537  0.7021 -0.0278
  636MOL0     O83850   8.570   6.663  -0.314  0.1369  0.3477 -1.4958
  636MOL0     C83851   8.695   6.733  -0.295  0.2748  0.3848  0.4044
  636MOL0     C83852   8.686   6.867  -0.286  0.4317 -0.1724  0.2925
  636MOL0     C83853   8.797   6.943  -0.252  0.1613  0.1726  0.3029
  636MOL0     C83854   8.915   6.880  -0.222 -0.7984 -0.1326  0.0079
  636MOL0     O83855   9.021   6.958  -0.194  0.1531 -0.2105  0.4918
  636MOL0     C83856   9.151   6.911  -0.238  1.3080 -0.5307 -0.1054
  636MOL0     C83857   9.272   7.003  -0.192  0.3513  0.1673  0.1029
  636MOL0     C83858   9.300   7.117  -0.290  0.4355 -0.0583  0.5512
  636MOL0     C83859   9.333   7.087  -0.434  0.5151  0.0004  1.1359
  636MOL0     C83860   9.472   7.043  -0.469 -0.1202 -0.2234  0.2165
  636MOL0     C83861   9.487   7.080  -0.617 -0.0872 -0.0181 -0.1873
  636MOL0     C83862   9.617   7.052  -0.689 -0.2676 -0.0514 -0.1862
  636MOL0     C83863   9.734   7.143  -0.645  0.2419 -0.3830  0.2642
  636MOL0    Cl83864   9.894   7.092  -0.716  0.3043  0.1710  0.0525
  636MOL0     C83865   8.921   6.737  -0.234 -0.1704  0.3361  0.5135
  636MOL0     C83866   8.812   6.671  -0.276  0.0625 -0.3611  0.2720
  636MOL0     O83867   8.602   6.550  -0.516 -0.6347 -0.1414  0.3430
  636MOL0     C83868   8.307   6.556  -0.332 -0.9537 -0.4842  0.1849
  636MOL0     C83869   8.186   6.494  -0.304 -0.1757  0.7480  0.3650
  636MOL0     N83870   7.825   5.836  -0.350  1.0432  0.6776  0.4073
  636MOL0     N83871   7.926   5.761  -0.305 -0.1399  0.5195  0.0393
  636MOL0     C83872   8.012   5.452   0.891 -1.0838  0.0723 -0.2511
  636MOL0     C83873   8.004   5.407   1.024 -1.0005 -0.5409  0.3734
  636MOL0     C83874   8.148   5.269   1.450 -1.2753 -0.9349  0.5843
  636MOL0     C83875   8.137   5.312   1.586  0.0198  0.0200 -0.6881
  636MOL0     C83876   8.167   5.227   1.693  0.3223 -1.1934 -0.1701
  636MOL0     C83877   8.203   5.098   1.670  0.1872  0.0751 -0.2546
  636MOL0     O83878   8.226   5.018   1.777  0.2136 -0.5099 -0.1887
  636MOL0     C83879   8.231   5.058   1.912  0.3052  0.0860 -0.7775
  636MOL0     C83880   8.236   4.930   2.008 -0.7675 -0.0392  0.1731
  636MOL0     C83881   8.094   4.876   2.030 -0.3653  0.7449  0.1308
  636MOL0     C83882   8.017   4.954   2.140  0.2307 -0.4255 -0.8043
  636MOL0     C83883   8.038   4.892   2.269  0.8130 -0.0763 -1.1358
  636MOL0     C83884   8.035   4.848   2.385 -0.5966 -0.4062  0.1363
  636MOL0     C83885   8.229   5.056   1.541 -0.7132 -0.1874 -1.3360
  636MOL0     C83886   8.208   5.141   1.432  0.0717  0.0047 -1.1050
  636MOL0     H83887   8.332   5.396   1.104 -2.8406 -1.6143  3.9719
  636MOL0     H83888   8.357   5.496   0.884 -2.1348  4.0105 -2.4970
  636MOL0     H83889   8.191   5.743   0.790  0.1201  2.1298 -2.1916
  636MOL0     H83890   8.024   5.705   0.753  0.2412 -2.8835 -1.1187
  636MOL0     H83891   8.238   5.693   0.529  0.7446 -0.1160  1.2614
  636MOL0     H83892   8.186   5.854   0.582 -1.8702  0.5884 -2.9508
  636MOL0     H83893   7.949   5.783   0.550  0.4984  0.9605  1.0539
  636MOL0     H83894   8.003   5.624   0.481  2.7334  0.4422 -2.2203
  636MOL0     H83895   7.927   5.793   0.308 -0.7012 -0.1502 -0.6981
  636MOL0     H83896   8.077   5.887   0.354  0.4082 -0.4912 -0.5872
  636MOL0     H83897   8.066   5.594   0.248  2.7299 -1.7761  0.4087
  636MOL0     H83898   8.211   5.659   0.315  0.1077  0.6354 -0.5474
  636MOL0     H83899   8.199   5.685   0.059 -5.1835  0.6453 -4.8780
  636MOL0     H83900   8.215   5.843   0.148  1.5038 -0.6314 -2.7434
  636MOL0     H83901   7.957   5.722   0.054  0.7961 -0.3991  1.2799
  636MOL0     H83902   7.994   5.895   0.074  1.1453 -0.2455 -0.4199
  636MOL0     H83903   8.119   5.717  -0.139 -0.2531 -0.1323 -0.5520
  636MOL0     H83904   8.128   5.899  -0.132 -3.2927  3.7116  1.1719
  636MOL0     H83905   7.891   6.038  -0.111  4.8601  2.9969 -2.9208
  636MOL0     H83906   7.601   6.050  -0.251 -0.7849 -0.2292 -1.5697
  636MOL0     H83907   7.655   6.016  -0.413  2.8394 -1.3810 -1.2170
  636MOL0     H83908   7.814   6.211  -0.242  4.6828  0.4806 -2.8314
  636MOL0     H83909   7.670   6.248  -0.324  0.1706 -1.2049  0.0690
  636MOL0     H83910   7.905   6.100  -0.466 -0.0361  0.3643 -1.3494
  636MOL0     H83911   7.795   6.201  -0.542  2.7543 -1.4398 -1.6679
  636MOL0     H83912   7.906   6.408  -0.412 -0.1809  0.5517 -0.4299
  636MOL0     H83913   7.981   6.327  -0.548 -3.4286  0.6995 -0.7090
  636MOL0     H83914   8.245   6.228  -0.506 -2.1070  0.3279  0.9467
  636MOL0     H83915   8.457   6.339  -0.532  0.6836  1.2811 -1.6447
  636MOL0     H83916   8.590   6.915  -0.300  0.0605 -0.7072  0.9197
  636MOL0     H83917   8.787   7.051  -0.247 -2.3336 -0.0385  1.5735
  636MOL0     H83918   9.150   6.902  -0.347 -0.1961  1.8829 -0.3475
  636MOL0     H83919   9.153   6.815  -0.185 -0.2192  0.7643  2.4919
  636MOL0     H83920   9.365   6.948  -0.181  1.0299  1.4185  0.9044
  636MOL0     H83921   9.258   7.043  -0.091  2.6106  0.6178  0.2811
  636MOL0     H83922   9.376   7.181  -0.243  1.5816 -2.6301  2.4332
  636MOL0     H83923   9.213   7.183  -0.296  1.5583  1.4289 -0.2710
  636MOL0     H83924   9.266   7.015  -0.481  1.2953  0.7536 -1.3097
  636MOL0     H83925   9.320   7.183  -0.485 -1.1527 -1.0355 -0.5176
  636MOL0     H83926   9.499   6.937  -0.469  0.4264 -0.2839 -4.5308
  636MOL0     H83927   9.537   7.109  -0.410  0.0691  0.2531 -0.5110
  636MOL0     H83928   9.480   7.189  -0.619  1.9356  0.3831  3.8342
  636MOL0     H83929   9.401   7.038  -0.669 -1.4880  0.4737  1.6201
  636MOL0     H83930   9.635   6.946  -0.674  2.6472  0.3052 -0.5367
  636MOL0     H83931   9.595   7.060  -0.796  0.6827  1.3872 -0.3079
  636MOL0     H83932   9.737   7.149  -0.536  0.5497 -0.3114  0.2546
  636MOL0     H83933   9.704   7.244  -0.676 -0.6804 -1.0838 -1.2317
  636MOL0     H83934   9.006   6.676  -0.205  0.2589  1.0833  0.8651
  636MOL0     H83935   8.801   6.563  -0.277  0.7030 -0.6511 -5.4170
  636MOL0     H83936   8.337   6.652  -0.293  4.7380 -1.1737 -1.5697
  636MOL0     H83937   8.104   6.541  -0.250 -1.7684 -2.4797  1.0237
  636MOL0     H83938   7.925   5.452   0.826 -2.3103  0.2002  1.3439
  636MOL0     H83939   7.911   5.363   1.058 -0.6091 -1.6628  0.0301
  636MOL0     H83940   8.114   5.413   1.616  1.4586  0.7973 -2.0326
  636MOL0     H83941   8.164   5.276   1.790  1.4818  3.0341 -2.0258
  636MOL0     H83942   8.136   5.104   1.941 -2.3840 -4.9994 -0.4111
  636MOL0     H83943   8.309   5.132   1.936 -1.3999  1.3435  1.2486
  636MOL0     H83944   8.293   4.842   1.976 -2.0282  0.2273 -3.1548
  636MOL0     H83945   8.287   4.961   2.100  0.0271 -0.8243  0.0144
  636MOL0     H83946   8.105   4.769   2.049 -0.7806  0.5333 -0.7794
  636MOL0     H83947   8.027   4.888   1.945 -2.1928 -1.8383  1.0989
  636MOL0     H83948   8.061   5.054   2.142  2.2710 -1.2493 -1.4074
  636MOL0     H83949   7.911   4.942   2.118  0.2996 -4.3252  0.1775
  636MOL0     H83950   8.022   4.795   2.477  0.2252  0.8359  1.0067
  636MOL0     H83951   8.285   4.964   1.525  0.8536  0.4153  0.2982
  636MOL0     H83952   8.228   5.107   1.331 -4.2710  0.7821 -2.4406
  637MOL0     O83953  11.226   9.495   6.928  0.3440  0.6917 -0.5646
  637MOL0     C83954  11.238   9.383   6.979  0.2669  0.6737 -0.2977
  637MOL0     O83955  11.208   9.267   6.903  0.7086 -0.4619 -0.7044
  637MOL0     C83956  11.156   9.267   6.782  0.3802 -0.5945 -0.0574
  637MOL0     C83957  11.065   9.358   6.719  0.0848 -1.2030 -0.0285
  637MOL0     C83958  11.020   9.338   6.587 -0.2294 -0.9348 -0.5698
  637MOL0     C83959  11.087   9.248   6.507  0.3991  0.9641  0.1894
  637MOL0     O83960  11.031   9.213   6.387  0.2185  0.4506  0.5762
  637MOL0     C83961  11.112   9.219   6.260 -0.6319 -0.1314 -0.5966
  637MOL0     C83962  11.049   9.229   6.126 -0.3987 -0.4837 -0.1404
  637MOL0     C83963  10.958   9.358   6.126  0.2750  1.3095 -0.0169
  637MOL0     C83964  10.870   9.362   6.001  0.4133  0.0552 -0.6116
  637MOL0     C83965  10.927   9.347   5.856 -0.0363 -0.8242  0.5714
  637MOL0     C83966  10.841   9.379   5.740 -0.5656  1.1316 -0.4094
  637MOL0     C83967  10.925   9.382   5.609 -0.0469  0.3155 -1.0889
  637MOL0     C83968  10.985   9.241   5.565  0.1022  0.6400  0.5477
  637MOL0     N83969  11.046   9.244   5.432 -0.0780  0.4093  0.0299
  637MOL0     C83970  11.173   9.238   5.396 -0.1430 -0.5135 -0.8336
  637MOL0     C83971  11.172   9.259   5.257  0.6724  0.4446  0.5804
  637MOL0     C83972  11.286   9.268   5.169  0.2647  0.1822 -0.6728
  637MOL0     C83973  11.390   9.148   5.215 -0.4616 -0.3149  0.4306
  637MOL0     C83974  11.527   9.150   5.141  0.4947  0.4913  0.3345
  637MOL0     C83975  11.623   9.246   5.211 -0.7948 -0.5097 -0.7167
  637MOL0     O83976  11.723   9.282   5.116  0.0579  0.7163 -0.2698
  637MOL0     C83977  11.845   9.333   5.155  0.4781  0.3561 -0.8532
  637MOL0     C83978  11.939   9.359   5.053  0.6122  0.7723 -0.1560
  637MOL0     C83979  12.067   9.406   5.080  0.1115 -0.5506 -0.0921
  637MOL0     C83980  12.094   9.456   5.210  0.1389 -1.0233 -0.1854
  637MOL0     C83981  12.231   9.501   5.249  0.3984  0.4003 -0.0062
  637MOL0     O83982  12.247   9.574   5.360 -0.4922  0.0430 -0.0712
  637MOL0     C83983  12.363   9.635   5.403 -0.2821  0.5930  1.1458
  637MOL0     C83984  12.496   9.585   5.378  0.3183  0.1867 -0.2641
  637MOL0     C83985  12.608   9.649   5.433  0.1345  0.0887 -0.8871
  637MOL0     C83986  12.589   9.757   5.522 -0.2159  0.4151 -0.0850
  637MOL0     O83987  12.690   9.832   5.571 -0.1134 -0.2040 -1.0483
  637MOL0     C83988  12.817   9.780   5.592  0.4680  1.7561 -0.3915
  637MOL0     C83989  12.833   9.703   5.730 -0.3372  0.6288 -0.0402
  637MOL0     C83990  12.934   9.579   5.726 -0.2961 -0.0699  0.2066
  637MOL0     C83991  13.078   9.621   5.723 -0.6358  0.6799  0.4632
  637MOL0     C83992  13.175   9.496   5.723 -0.1189 -0.3737 -0.9710
  637MOL0     C83993  13.184   9.423   5.859  0.4545 -1.2956 -0.0640
  637MOL0     C83994  13.290   9.317   5.868  0.5552  0.0550 -0.0146
  637MOL0     C83995  13.239   9.178   5.823 -0.5244  0.0893  0.8465
  637MOL0    Cl83996  13.173   9.150   5.652  0.2012 -0.1864  0.3588
  637MOL0     C83997  12.461   9.810   5.545 -1.2139  0.5812  0.9183
  637MOL0     C83998  12.343   9.747   5.491  0.4996  0.0449  0.8522
  637MOL0     O83999  12.316   9.472   5.170 -0.0025 -0.4053  0.0717
  637MOL0     C84000  11.998   9.433   5.314 -0.8440  1.0725  0.2222
  637MOL0     C84001  11.874   9.386   5.279  0.0522 -0.6577 -0.7429
  637MOL0     N84002  11.041   9.286   5.217 -0.5237 -0.4035 -0.8359
  637MOL0     N84003  10.968   9.276   5.328  0.0672  0.5553 -0.1309
  637MOL0     C84004  11.197   9.174   6.558  0.1997  0.3152  0.0986
  637MOL0     C84005  11.218   9.181   6.697  0.2635 -0.0894  0.8214
  637MOL0     C84006  11.287   9.387   7.120 -0.6250  0.3782 -0.1230
  637MOL0     C84007  11.337   9.503   7.171  0.3525  0.2549 -0.1034
  637MOL0     C84008  11.414   9.503   7.285 -0.0853  0.3268  0.2973
  637MOL0     C84009  11.430   9.385   7.354  0.3136  0.5250 -0.0677
  637MOL0     O84010  11.493   9.383   7.479  0.2593 -0.1885  0.0119
  637MOL0     C84011  11.559   9.505   7.526  0.0851  0.3728 -0.4574
  637MOL0     C84012  11.628   9.472   7.658 -1.4313 -0.3926  0.3724
  637MOL0     C84013  11.677   9.613   7.722 -0.2148  0.0340 -0.7651
  637MOL0     C84014  11.567   9.662   7.818  0.5062 -1.1841  0.8827
  637MOL0     C84015  11.443   9.717   7.759 -0.9035 -0.1818  0.3045
  637MOL0     C84016  11.339   9.771   7.722 -0.3365 -0.6593  0.7121
  637MOL0     C84017  11.373   9.262   7.307  0.9772 -0.3402 -0.1766
  637MOL0     C84018  11.307   9.271   7.191  0.0963 -0.3368  0.2416
  637MOL0     H84019  11.016   9.439   6.771  0.8877 -0.0380 -1.0385
  637MOL0     H84020  10.944   9.409   6.557  0.9515  0.3999 -0.4846
  637MOL0     H84021  11.178   9.134   6.247 -1.1352 -1.2485  2.9748
  637MOL0     H84022  11.185   9.301   6.258 -0.1888 -0.4747  0.6676
  637MOL0     H84023  10.969   9.155   6.114 -2.0473  1.0697  0.6586
  637MOL0     H84024  11.130   9.234   6.053  0.5432 -0.9646  0.8562
  637MOL0     H84025  11.031   9.439   6.120  1.0110  0.5652 -2.7137
  637MOL0     H84026  10.891   9.369   6.212  0.5197  2.8763 -0.0033
  637MOL0     H84027  10.814   9.270   6.018 -4.1167  2.9133  1.8992
  637MOL0     H84028  10.806   9.451   5.997 -0.7122 -0.7362 -4.6599
  637MOL0     H84029  10.978   9.252   5.839  2.1503  0.3484  0.2916
  637MOL0     H84030  11.013   9.415   5.857 -0.5986  0.1894 -3.3779
  637MOL0     H84031  10.780   9.467   5.760 -1.1485  0.2189  2.2397
  637MOL0     H84032  10.764   9.301   5.732  1.2289 -0.9534  1.3285
  637MOL0     H84033  10.854   9.414   5.533  0.6634  0.3219 -1.7667
  637MOL0     H84034  11.006   9.455   5.613  1.4826 -1.1966  4.3240
  637MOL0     H84035  10.906   9.168   5.543 -0.5578  2.5822 -5.1204
  637MOL0     H84036  11.060   9.198   5.633  0.9478  2.0441  0.5367
  637MOL0     H84037  11.261   9.235   5.459 -0.6237  2.1740  0.0929
  637MOL0     H84038  11.330   9.368   5.165  1.2881 -0.2931 -2.2279
  637MOL0     H84039  11.245   9.237   5.072 -0.9388 -2.3613  0.5382
  637MOL0     H84040  11.331   9.056   5.203 -0.6489 -0.0461 -0.9459
  637MOL0     H84041  11.424   9.157   5.318  0.3594 -0.4176  0.1775
  637MOL0     H84042  11.569   9.049   5.131  2.8085  1.2450  1.6123
  637MOL0     H84043  11.507   9.186   5.040  1.9352  0.3320 -0.0279
  637MOL0     H84044  11.659   9.204   5.305 -1.3636  2.4444  0.9515
  637MOL0     H84045  11.561   9.335   5.227  3.2515  2.5708 -0.5585
  637MOL0     H84046  11.898   9.338   4.955 -1.9677  0.4225  0.9157
  637MOL0     H84047  12.145   9.419   5.006 -0.7794  1.5135 -0.7436
  637MOL0     H84048  12.508   9.490   5.327  2.9116  1.1144 -1.5459
  637MOL0     H84049  12.702   9.596   5.419  1.4353  1.7509  1.0553
  637MOL0     H84050  12.889   9.862   5.596  2.6249 -0.0702  1.8754
  637MOL0     H84051  12.844   9.727   5.501 -2.6163  0.6668 -0.7997
  637MOL0     H84052  12.738   9.667   5.770 -0.1596 -2.2164 -1.8447
  637MOL0     H84053  12.862   9.768   5.812  3.1538 -0.6859 -0.0656
  637MOL0     H84054  12.899   9.522   5.640 -2.4964  3.0259 -1.1303
  637MOL0     H84055  12.918   9.511   5.810 -0.7841  0.1200  0.2715
  637MOL0     H84056  13.097   9.675   5.630  1.4275 -0.3055  0.2387
  637MOL0     H84057  13.114   9.689   5.801 -1.2329 -0.7880  2.0649
  637MOL0     H84058  13.275   9.536   5.705  0.3218 -0.6280  0.6578
  637MOL0     H84059  13.147   9.421   5.648 -1.4970  1.6403 -2.5558
  637MOL0     H84060  13.083   9.394   5.890 -1.2076  1.1467 -2.6260
  637MOL0     H84061  13.219   9.491   5.937 -2.4802 -0.4463  0.6663
  637MOL0     H84062  13.377   9.340   5.805  2.0673  2.6928  2.7937
  637MOL0     H84063  13.306   9.290   5.973 -1.8051 -2.1068 -0.0973
  637MOL0     H84064  13.167   9.141   5.896 -0.7046 -1.7486 -0.1961
  637MOL0     H84065  13.320   9.106   5.838 -1.4594 -0.4249  4.4206
  637MOL0     H84066  12.448   9.883   5.624 -1.7719  1.2828  0.1959
  637MOL0     H84067  12.244   9.787   5.514  1.4631  3.9215 -0.8809
  637MOL0     H84068  12.025   9.457   5.416 -1.9168  4.0542 -0.0947
  637MOL0     H84069  11.795   9.388   5.353 -0.1700 -1.7045 -0.9359
  637MOL0     H84070  11.250   9.103   6.495 -1.0918 -0.1206 -0.5254
  637MOL0     H84071  11.294   9.119   6.743  2.9573  0.4577 -2.4656
  637MOL0     H84072  11.336   9.602   7.125  3.4311  1.1854  1.5262
  637MOL0     H84073  11.452   9.601   7.312 -0.8012  1.0006 -1.0306
  637MOL0     H84074  11.483   9.573   7.567 -0.1247 -1.4367  2.4426
  637MOL0     H84075  11.636   9.551   7.463  1.3346 -0.4905  0.3956
  637MOL0     H84076  11.567   9.401   7.715 -1.0389 -1.5278 -0.5875
  637MOL0     H84077  11.712   9.409   7.628 -2.1341 -0.9994 -0.3988
  637MOL0     H84078  11.690   9.700   7.657 -0.8146  1.1593  0.5722
  637MOL0     H84079  11.758   9.600   7.794 -1.0925 -0.8567  0.0880
  637MOL0     H84080  11.534   9.571   7.871  2.2800 -2.1395  0.4219
  637MOL0     H84081  11.614   9.731   7.888  1.8288 -0.5709 -0.5408
  637MOL0     H84082  11.243   9.798   7.685  0.4473  1.0968 -0.1543
  637MOL0     H84083  11.375   9.164   7.353 -4.6291 -1.7329 -2.1043
  637MOL0     H84084  11.272   9.172   7.162 -1.9905 -0.2754  2.2373
  638MOL0     O84085   7.770   2.769   5.217  0.3415 -0.4440 -0.2941
  638MOL0     C84086   7.715   2.864   5.149 -1.1258  0.5960  0.0020
  638MOL0     O84087   7.784   2.983   5.109  0.1968 -0.3929 -0.9181
  638MOL0     C84088   7.915   2.974   5.117  0.1000 -0.1699 -0.9196
  638MOL0     C84089   7.993   2.956   5.012 -0.1133  0.0666  0.5737
  638MOL0     C84090   8.136   2.969   5.033  0.3790  0.2495 -0.4411
  638MOL0     C84091   8.189   2.977   5.160 -0.5780  0.6751 -0.6464
  638MOL0     O84092   8.324   2.995   5.175  0.3699  0.0275  0.1067
  638MOL0     C84093   8.364   3.131   5.222  1.3619 -0.8962  0.5104
  638MOL0     C84094   8.515   3.140   5.204  0.0092  0.8139 -0.5313
  638MOL0     C84095   8.586   3.068   5.314  0.0161  0.3661  0.6829
  638MOL0     C84096   8.740   3.096   5.319  0.1557 -0.6152  0.6729
  638MOL0     C84097   8.789   3.086   5.456 -0.5058 -0.3900  0.0064
  638MOL0     C84098   8.948   3.091   5.466  0.5475 -0.0995  0.6283
  638MOL0     C84099   8.990   3.063   5.605 -0.5471  0.1229  0.1879
  638MOL0     C84100   8.981   2.917   5.651 -0.0501 -0.3798 -0.2875
  638MOL0     N84101   9.059   2.821   5.561  0.5448  0.1754 -0.2224
  638MOL0     C84102   9.002   2.731   5.479 -0.1540  0.5810 -0.4764
  638MOL0     C84103   9.117   2.668   5.431  0.6062  0.5982  0.0841
  638MOL0     C84104   9.107   2.560   5.331  0.4546  0.4150 -0.6088
  638MOL0     C84105   9.106   2.617   5.190  0.2231  0.8372  0.0375
  638MOL0     C84106   9.045   2.511   5.092 -0.3441  0.0435  0.2408
  638MOL0     C84107   9.047   2.556   4.950 -0.3324  1.1057  0.3935
  638MOL0     O84108   9.017   2.696   4.942 -0.5707  0.1171 -0.8502
  638MOL0     C84109   8.890   2.715   4.903  0.2233 -0.1637 -0.2208
  638MOL0     C84110   8.803   2.803   4.978  0.4848  0.6398 -0.3388
  638MOL0     C84111   8.678   2.822   4.930 -0.1006  0.1689  0.3321
  638MOL0     C84112   8.623   2.759   4.815 -0.6034  0.8233 -0.7388
  638MOL0     C84113   8.483   2.775   4.798 -0.5449  0.9677 -0.1979
  638MOL0     O84114   8.438   2.821   4.674 -0.5079  0.4205  0.7585
  638MOL0     C84115   8.294   2.837   4.648  0.7471  0.1369  0.1665
  638MOL0     C84116   8.249   2.956   4.596 -0.0324  0.5206  0.1958
  638MOL0     C84117   8.119   2.987   4.589  1.2944  0.7627  0.3135
  638MOL0     C84118   8.020   2.893   4.611 -0.2751  0.0252  0.5956
  638MOL0     O84119   7.888   2.927   4.580 -0.7097 -0.9267 -0.2341
  638MOL0     C84120   7.797   2.829   4.609 -0.6777  0.6116 -0.1919
  638MOL0     C84121   7.653   2.881   4.592 -0.3402  0.3004 -0.2072
  638MOL0     C84122   7.642   2.877   4.445 -0.9084 -0.9712  0.7586
  638MOL0     C84123   7.505   2.938   4.395  0.0973 -0.2368  0.1233
  638MOL0     C84124   7.518   2.973   4.249 -0.7841 -0.2032  1.0276
  638MOL0     C84125   7.378   3.000   4.194  0.6728 -0.7066  0.8461
  638MOL0     C84126   7.304   3.121   4.249 -0.0605  0.6904 -1.0244
  638MOL0     C84127   7.182   3.155   4.169 -0.0675 -0.3945 -0.3575
  638MOL0    Cl84128   7.045   3.040   4.201  0.0278 -0.1552 -0.2557
  638MOL0     C84129   8.061   2.766   4.655  0.5940 -0.1965  0.4766
  638MOL0     C84130   8.198   2.743   4.667  0.0178  0.7929  0.1768
  638MOL0     O84131   8.408   2.737   4.894 -0.0425 -0.0279  0.2381
  638MOL0     C84132   8.712   2.688   4.735 -0.3871 -0.0156  0.8358
  638MOL0     C84133   8.840   2.665   4.776  0.1769 -0.5023  0.5416
  638MOL0     N84134   9.225   2.719   5.488  0.3686  0.9387 -0.3711
  638MOL0     N84135   9.193   2.818   5.556  0.2522 -0.4922 -0.7173
  638MOL0     C84136   8.104   2.970   5.267  0.1820 -0.0825 -0.8311
  638MOL0     C84137   7.969   2.971   5.247  0.3321 -0.2189  1.0097
  638MOL0     C84138   7.583   2.845   5.088 -0.7232  0.0194  0.5150
  638MOL0     C84139   7.508   2.964   5.060 -0.2136 -0.0213  0.9574
  638MOL0     C84140   7.380   2.947   5.010 -0.3821 -0.7789 -0.1297
  638MOL0     C84141   7.331   2.821   4.977  0.5706 -0.4860 -0.8472
  638MOL0     O84142   7.211   2.809   4.916 -0.8013  0.4811 -0.5771
  638MOL0     C84143   7.146   2.919   4.864 -0.2898 -0.2549  0.1578
  638MOL0     C84144   7.207   2.996   4.743 -0.4359  0.8299 -0.0143
  638MOL0     C84145   7.190   3.150   4.737  0.9143  0.0255  0.4316
  638MOL0     C84146   7.077   3.209   4.831 -0.0621  0.6670 -1.1744
  638MOL0     C84147   7.054   3.355   4.813  0.1934 -0.3368  0.6340
  638MOL0     C84148   7.024   3.470   4.783  0.9030 -0.3306  0.9524
  638MOL0     C84149   7.395   2.708   5.004  0.3830  0.9717  0.3700
  638MOL0     C84150   7.527   2.717   5.063  0.8249  0.9638 -0.7326
  638MOL0     H84151   7.930   2.969   4.924 -1.7114  1.6762  1.8755
  638MOL0     H84152   8.206   2.969   4.950 -0.6468  2.5071 -1.3957
  638MOL0     H84153   8.331   3.139   5.326 -1.0797  0.7346 -0.2961
  638MOL0     H84154   8.314   3.212   5.168  1.0394  0.1466  2.3020
  638MOL0     H84155   8.541   3.246   5.205 -2.3208  1.6509  4.6479
  638MOL0     H84156   8.551   3.098   5.110 -2.7512 -1.0846 -0.8501
  638MOL0     H84157   8.577   2.962   5.289 -6.4650  0.7956 -0.4540
  638MOL0     H84158   8.538   3.092   5.409 -4.3957  0.2746 -1.2544
  638MOL0     H84159   8.790   3.026   5.251 -0.3170  0.6575 -1.0592
  638MOL0     H84160   8.754   3.199   5.286  0.0792 -1.5318 -2.5505
  638MOL0     H84161   8.758   2.991   5.501  0.2191 -0.1583  1.0366
  638MOL0     H84162   8.731   3.149   5.524  0.1824 -1.0408  1.2291
  638MOL0     H84163   8.988   3.188   5.439  1.0879 -0.9271 -1.7521
  638MOL0     H84164   8.994   3.017   5.400  1.1757 -0.5186  1.5184
  638MOL0     H84165   9.098   3.082   5.608 -0.2210 -1.4462 -0.4969
  638MOL0     H84166   8.950   3.132   5.681  2.9113  2.2683  0.3212
  638MOL0     H84167   8.875   2.890   5.657  0.4624 -2.1711  3.0979
  638MOL0     H84168   9.024   2.900   5.750 -0.0793  0.3910 -0.1420
  638MOL0     H84169   8.897   2.721   5.454 -0.9437  0.2004  2.6096
  638MOL0     H84170   9.018   2.500   5.352  1.6315 -1.2391 -0.0968
  638MOL0     H84171   9.186   2.484   5.327 -2.3511 -2.7846  0.0691
  638MOL0     H84172   9.207   2.650   5.166  0.5296  3.2827  3.9095
  638MOL0     H84173   9.036   2.701   5.182 -0.2012  0.4209 -0.8546
  638MOL0     H84174   9.109   2.422   5.092  0.0992  0.3151 -1.8265
  638MOL0     H84175   8.941   2.489   5.118  0.0617 -0.0066  1.9393
  638MOL0     H84176   8.991   2.494   4.880  2.4851 -0.4566 -0.6568
  638MOL0     H84177   9.153   2.555   4.922  0.2221  1.7492  2.3052
  638MOL0     H84178   8.829   2.850   5.072  3.2883 -2.6649  0.7131
  638MOL0     H84179   8.612   2.886   4.987  1.2795  3.9551 -1.9165
  638MOL0     H84180   8.324   3.033   4.579 -1.5248  2.0018 -0.0582
  638MOL0     H84181   8.084   3.086   4.561 -0.7348  0.1590  0.4861
  638MOL0     H84182   7.796   2.812   4.717  0.8538 -2.7991 -0.5985
  638MOL0     H84183   7.810   2.732   4.559 -3.2043  1.0878 -1.9737
  638MOL0     H84184   7.642   2.983   4.629 -1.5449  1.1804 -2.7691
  638MOL0     H84185   7.577   2.825   4.648 -0.9313  0.9559 -0.3372
  638MOL0     H84186   7.653   2.772   4.416 -0.1653 -0.0735 -2.6304
  638MOL0     H84187   7.717   2.941   4.399 -3.1839 -0.2910 -2.2984
  638MOL0     H84188   7.443   2.850   4.414 -0.1476  0.0282  0.5322
  638MOL0     H84189   7.476   3.020   4.460  3.2203  0.0919  1.2842
  638MOL0     H84190   7.573   2.896   4.194 -1.5755  1.5396 -2.4547
  638MOL0     H84191   7.574   3.067   4.240 -2.1618  0.8227  2.7101
  638MOL0     H84192   7.317   2.909   4.186  2.9051 -2.3283  1.4575
  638MOL0     H84193   7.395   3.026   4.089 -0.1207  2.9801  1.4967
  638MOL0     H84194   7.298   3.130   4.357  1.0906  3.2032 -1.0946
  638MOL0     H84195   7.371   3.205   4.228 -0.6895  0.7337 -3.1191
  638MOL0     H84196   7.200   3.156   4.061 -1.0675 -0.2589 -0.5317
  638MOL0     H84197   7.163   3.260   4.193 -1.3078 -0.6245 -0.2618
  638MOL0     H84198   7.989   2.687   4.673  0.1556  0.2909  0.9077
  638MOL0     H84199   8.222   2.646   4.709 -3.3592 -0.8201 -1.3023
  638MOL0     H84200   8.678   2.638   4.644  0.0812 -0.2085  0.7663
  638MOL0     H84201   8.914   2.603   4.728  0.7575  0.0555  0.6957
  638MOL0     H84202   8.156   2.967   5.362 -0.5740  0.3694 -0.3886
  638MOL0     H84203   7.900   2.963   5.330  0.0042  3.5265  1.2709
  638MOL0     H84204   7.557   3.059   5.075  1.9730 -1.2266  1.9684
  638MOL0     H84205   7.334   3.042   4.984  0.9276  0.2762  1.1754
  638MOL0     H84206   7.134   2.989   4.947 -2.4114 -1.3809  0.8797
  638MOL0     H84207   7.042   2.889   4.847 -0.4595  1.3406 -1.9604
  638MOL0     H84208   7.315   2.977   4.740 -0.3595  0.5172  2.6167
  638MOL0     H84209   7.164   2.952   4.652 -2.9610 -0.1189  1.5449
  638MOL0     H84210   7.174   3.177   4.632  0.1594 -2.9646 -0.3239
  638MOL0     H84211   7.278   3.205   4.769  2.1508 -0.8281 -1.3442
  638MOL0     H84212   6.988   3.145   4.823  2.1251 -2.9417  0.6327
  638MOL0     H84213   7.119   3.190   4.930  0.9874 -0.7078 -1.8421
  638MOL0     H84214   6.999   3.568   4.748 -3.7015 -0.7839  2.3791
  638MOL0     H84215   7.348   2.612   4.987 -0.1372  0.9218  1.9727
  638MOL0     H84216   7.573   2.622   5.088  0.2338  0.7960 -0.2737
  639MOL0     O84217   3.588   7.092   8.153  0.4341 -0.5457  0.8544
  639MOL0     C84218   3.520   7.189   8.176 -1.2004  0.7525  0.4393
  639MOL0     O84219   3.498   7.240   8.291  0.2061  0.0412 -0.3051
  639MOL0     C84220   3.521   7.169   8.407 -0.7848  0.6314  0.4477
  639MOL0     C84221   3.559   7.244   8.516 -0.0041  0.2261  0.2176
  639MOL0     C84222   3.603   7.175   8.626  1.3904 -0.6043 -0.4064
  639MOL0     C84223   3.575   7.032   8.647 -0.0546  0.3772  0.3858
  639MOL0     O84224   3.619   6.968   8.758  0.6540 -0.7959  0.0204
  639MOL0     C84225   3.591   6.830   8.775  0.0762  0.2431 -0.9127
  639MOL0     C84226   3.604   6.779   8.920  0.0846 -0.5091  0.0539
  639MOL0     C84227   3.551   6.634   8.948  0.1109  0.7290  0.9340
  639MOL0     C84228   3.601   6.591   9.085 -0.1103  0.4289 -0.1216
  639MOL0     C84229   3.571   6.441   9.105  0.6763 -0.8084  0.6959
  639MOL0     C84230   3.646   6.383   9.230 -0.5288 -0.7026 -0.2322
  639MOL0     C84231   3.558   6.277   9.300  0.2766 -0.3944 -0.8892
  639MOL0     C84232   3.542   6.137   9.248  1.4078 -0.4867  0.8897
  639MOL0     N84233   3.653   6.038   9.277  0.8553 -0.2876 -0.4561
  639MOL0     C84234   3.744   5.994   9.187  0.3492 -0.7832 -0.2753
  639MOL0     C84235   3.835   5.932   9.263 -0.5865 -1.1157  0.4320
  639MOL0     C84236   3.971   5.878   9.221 -0.0941  1.0808  0.6222
  639MOL0     C84237   3.983   5.723   9.227 -0.1440 -0.8698  0.1825
  639MOL0     C84238   3.894   5.652   9.119  0.6405  0.4814 -0.1767
  639MOL0     C84239   3.869   5.503   9.167  0.0214 -0.0911 -0.0993
  639MOL0     O84240   3.980   5.434   9.227  0.4745 -0.3257 -0.4646
  639MOL0     C84241   4.100   5.428   9.149 -0.3907  0.0914  0.7841
  639MOL0     C84242   4.217   5.467   9.210  0.0832 -0.0513 -0.0339
  639MOL0     C84243   4.340   5.437   9.154 -0.6362 -0.0947 -0.6964
  639MOL0     C84244   4.350   5.377   9.028  0.1410  0.2825 -0.3012
  639MOL0     C84245   4.485   5.359   8.978 -0.0404  0.6912 -0.2556
  639MOL0     O84246   4.601   5.408   9.049  1.0385  0.1698  0.1511
  639MOL0     C84247   4.716   5.422   8.980  0.3096  0.2942 -0.0098
  639MOL0     C84248   4.825   5.351   9.034 -0.1644 -0.1588  0.4697
  639MOL0     C84249   4.954   5.347   8.971  0.5104  0.4694 -0.7103
  639MOL0     C84250   4.968   5.413   8.845  0.2440  0.0367  0.1834
  639MOL0     O84251   5.083   5.436   8.762 -0.7545  0.3217 -0.1724
  639MOL0     C84252   5.209   5.422   8.834 -0.4130 -0.2399 -0.3274
  639MOL0     C84253   5.321   5.475   8.752 -0.0836 -0.5002  0.4405
  639MOL0     C84254   5.456   5.491   8.833 -0.2152  0.0408  0.0514
  639MOL0     C84255   5.520   5.357   8.842  0.2682  0.2144  0.6254
  639MOL0     C84256   5.644   5.352   8.925  0.0500 -0.4880 -0.4387
  639MOL0     C84257   5.756   5.457   8.888 -0.5273  0.3017 -0.1952
  639MOL0     C84258   5.864   5.431   8.995 -0.2716  0.2434 -0.5743
  639MOL0     C84259   5.969   5.542   8.988  0.2542  0.1423  0.3787
  639MOL0    Cl84260   5.898   5.688   9.044  0.2052  0.4660  0.6048
  639MOL0     C84261   4.850   5.472   8.792 -0.0164 -0.2863 -0.5197
  639MOL0     C84262   4.723   5.473   8.847  0.3673 -1.0242 -0.0543
  639MOL0     O84263   4.495   5.284   8.882  0.2470  0.1348  0.1646
  639MOL0     C84264   4.231   5.339   8.959 -0.0045 -0.2516 -0.6101
  639MOL0     C84265   4.110   5.353   9.029  1.3469  0.0060  0.5728
  639MOL0     N84266   3.791   5.920   9.389 -0.1304 -0.2734  0.3215
  639MOL0     N84267   3.691   5.996   9.401  0.7077 -0.6810 -0.5148
  639MOL0     C84268   3.531   6.962   8.537  0.3089  0.0252  0.1574
  639MOL0     C84269   3.496   7.029   8.424  0.6038  0.3551  0.2760
  639MOL0     C84270   3.455   7.249   8.058  0.5817 -0.9238 -0.4125
  639MOL0     C84271   3.488   7.228   7.928  0.3452  0.8683 -0.4431
  639MOL0     C84272   3.420   7.297   7.824 -0.1987 -0.1688 -0.4551
  639MOL0     C84273   3.325   7.398   7.857  0.2062  0.9736  0.4905
  639MOL0     O84274   3.254   7.455   7.759  0.6071  0.1559 -0.2571
  639MOL0     C84275   3.282   7.594   7.751 -0.3741  0.0159  1.0579
  639MOL0     C84276   3.429   7.622   7.695  0.4065 -0.3766  0.9747
  639MOL0     C84277   3.449   7.549   7.559 -1.4716 -0.9826 -0.8825
  639MOL0     C84278   3.588   7.590   7.495  1.2042  0.0339  0.0272
  639MOL0     C84279   3.691   7.514   7.559 -0.2499 -0.1893  0.5318
  639MOL0     C84280   3.765   7.432   7.610 -0.8679 -0.0559 -0.8778
  639MOL0     C84281   3.284   7.414   7.982 -1.0401  0.0965  0.6210
  639MOL0     C84282   3.346   7.333   8.084 -1.0500 -0.3775 -1.2010
  639MOL0     H84283   3.578   7.350   8.515  2.5081 -0.1723  0.0472
  639MOL0     H84284   3.644   7.238   8.704 -1.2563 -0.5984  1.0590
  639MOL0     H84285   3.657   6.769   8.712  0.9528 -1.1256  1.2068
  639MOL0     H84286   3.487   6.807   8.750  0.0514 -0.6888 -0.0124
  639MOL0     H84287   3.548   6.850   8.982 -1.2661 -1.0950 -0.4553
  639MOL0     H84288   3.711   6.788   8.940  0.0858 -0.7217  0.1411
  639MOL0     H84289   3.599   6.576   8.868  3.5449  3.0765  1.0474
  639MOL0     H84290   3.445   6.615   8.934  0.3255 -1.3608  1.8695
  639MOL0     H84291   3.709   6.604   9.092  0.8913 -4.6600 -1.6185
  639MOL0     H84292   3.545   6.650   9.158 -4.8225  0.8664 -3.5830
  639MOL0     H84293   3.604   6.389   9.015  0.0736  0.8701 -0.5599
  639MOL0     H84294   3.462   6.430   9.108  0.4002  0.9490 -0.8132
  639MOL0     H84295   3.659   6.464   9.302  1.3653 -0.7161 -0.5071
  639MOL0     H84296   3.745   6.339   9.219  0.0641  0.1923  1.3304
  639MOL0     H84297   3.602   6.263   9.400 -0.8548 -0.8387 -0.4379
  639MOL0     H84298   3.459   6.314   9.326 -0.7298 -4.8465  3.3275
  639MOL0     H84299   3.517   6.138   9.142 -1.3105 -1.3195  1.4471
  639MOL0     H84300   3.448   6.097   9.288  0.1777  1.8224  0.4850
  639MOL0     H84301   3.756   6.030   9.085  3.3887  1.1130  0.6436
  639MOL0     H84302   4.044   5.921   9.291  0.1414  0.3415  0.8469
  639MOL0     H84303   3.994   5.917   9.122 -1.0486  0.5788  0.1954
  639MOL0     H84304   3.951   5.683   9.324  4.5446  0.7904  2.6972
  639MOL0     H84305   4.090   5.709   9.211 -0.6804 -1.7516 -3.6914
  639MOL0     H84306   3.795   5.697   9.116 -0.6168 -2.1482 -1.7069
  639MOL0     H84307   3.932   5.655   9.016 -2.1637  0.0622 -1.3029
  639MOL0     H84308   3.833   5.448   9.079  3.6052  0.2522 -1.9461
  639MOL0     H84309   3.780   5.495   9.230  0.2247  1.0935  0.3689
  639MOL0     H84310   4.205   5.527   9.300  0.0073 -2.7570  1.8653
  639MOL0     H84311   4.424   5.479   9.209 -1.8930 -0.7211  1.8364
  639MOL0     H84312   4.810   5.316   9.135 -3.6367 -0.5829 -0.0573
  639MOL0     H84313   5.038   5.308   9.027  1.7125  3.0061 -0.6336
  639MOL0     H84314   5.223   5.316   8.857  0.4358  0.1326  0.9700
  639MOL0     H84315   5.203   5.469   8.932 -4.4791 -2.2755  0.6277
  639MOL0     H84316   5.279   5.571   8.722 -2.5319 -0.8041  2.5464
  639MOL0     H84317   5.340   5.415   8.662  0.4987  0.4303 -0.0731
  639MOL0     H84318   5.444   5.531   8.934  1.0706  0.0354  0.2320
  639MOL0     H84319   5.522   5.561   8.781  0.0255  0.2200  0.5995
  639MOL0     H84320   5.446   5.288   8.883 -1.0656  0.0058 -1.9252
  639MOL0     H84321   5.555   5.323   8.745 -1.6105 -0.1940  0.0404
  639MOL0     H84322   5.678   5.250   8.909  1.5001 -0.2328  0.8273
  639MOL0     H84323   5.605   5.369   9.026 -2.9621 -2.4056 -1.1230
  639MOL0     H84324   5.711   5.557   8.890 -0.8292  0.1588  0.2302
  639MOL0     H84325   5.795   5.440   8.787 -1.3851 -1.0756 -0.3282
  639MOL0     H84326   5.830   5.441   9.099 -2.3719  1.4335 -1.3266
  639MOL0     H84327   5.904   5.329   8.988  1.4712  0.8554 -0.0848
  639MOL0     H84328   5.988   5.537   8.881  0.6859 -0.3771  0.4745
  639MOL0     H84329   6.063   5.531   9.043 -1.0651  0.6911  2.9253
  639MOL0     H84330   4.852   5.503   8.688  1.0349  0.4383 -0.2919
  639MOL0     H84331   4.635   5.505   8.793  1.1443  0.2769 -0.6064
  639MOL0     H84332   4.234   5.291   8.862  2.8121 -0.8074 -0.3363
  639MOL0     H84333   4.007   5.329   9.004  0.4803  3.6219  0.1394
  639MOL0     H84334   3.524   6.854   8.525  1.9768  0.0477 -1.5603
  639MOL0     H84335   3.459   6.979   8.335  0.1321 -0.2663  0.8060
  639MOL0     H84336   3.568   7.156   7.911  0.1573  0.3280  0.8396
  639MOL0     H84337   3.439   7.279   7.719 -2.8660  1.3984 -1.2841
  639MOL0     H84338   3.268   7.640   7.849  2.0020 -1.9309  2.4380
  639MOL0     H84339   3.199   7.629   7.690 -0.2029 -0.6761  0.3984
  639MOL0     H84340   3.433   7.731   7.692 -0.5980 -0.2328  3.1042
  639MOL0     H84341   3.507   7.594   7.766  0.8398 -1.0108  0.2653
  639MOL0     H84342   3.362   7.569   7.496  0.0128 -0.0108 -2.6965
  639MOL0     H84343   3.443   7.439   7.559 -4.5109 -0.9038 -1.8849
  639MOL0     H84344   3.580   7.559   7.391 -0.3493 -1.8292  0.6512
  639MOL0     H84345   3.594   7.698   7.512  0.3053  0.0598  0.2381
  639MOL0     H84346   3.835   7.365   7.654  0.4010  1.8843  0.1996
  639MOL0     H84347   3.201   7.483   7.994 -1.5094  0.1697 -2.3869
  639MOL0     H84348   3.326   7.350   8.189 -2.3134 -2.2691 -1.0815
  640MOL0     O84349   9.976   1.547   0.376  0.1298  0.0287  1.1855
  640MOL0     C84350  10.090   1.578   0.418  0.3861  0.2362 -0.5928
  640MOL0     O84351  10.119   1.678   0.488 -0.4263  1.0029 -0.1444
  640MOL0     C84352  10.046   1.691   0.605  0.5972 -0.1133  0.3859
  640MOL0     C84353   9.975   1.587   0.678 -0.2353 -1.3980  1.0701
  640MOL0     C84354   9.917   1.615   0.799  1.0929 -0.2327  0.2819
  640MOL0     C84355   9.914   1.750   0.838 -0.3692 -0.3376 -0.7412
  640MOL0     O84356   9.835   1.789   0.944 -0.4638  0.9822  0.7851
  640MOL0     C84357   9.874   1.716   1.064  1.1203  0.3896  0.3250
  640MOL0     C84358   9.841   1.794   1.188 -0.5236 -0.1325  0.0127
  640MOL0     C84359   9.853   1.725   1.321 -0.2421 -0.1664  0.2414
  640MOL0     C84360   9.794   1.825   1.428  1.0390 -0.4774  0.4832
  640MOL0     C84361   9.893   1.948   1.459 -0.1335  0.3292  0.0619
  640MOL0     C84362   9.849   2.036   1.569  0.2590  0.0023 -0.4481
  640MOL0     C84363   9.706   2.089   1.545 -0.0475  0.3093  0.4000
  640MOL0     C84364   9.664   2.216   1.619 -0.6749 -0.5504 -0.3983
  640MOL0     N84365   9.705   2.222   1.762 -0.1605 -0.3296  0.6668
  640MOL0     C84366   9.636   2.176   1.870 -0.8790  0.7292 -0.7797
  640MOL0     C84367   9.724   2.180   1.971 -0.2640  0.1100  0.2428
  640MOL0     C84368   9.717   2.122   2.113  1.0449 -1.0181 -0.4530
  640MOL0     C84369   9.835   2.026   2.143 -1.0385  1.5349 -0.4536
  640MOL0     C84370   9.843   1.914   2.040 -0.6656  0.1755 -0.1350
  640MOL0     C84371   9.715   1.851   1.981  0.4372  0.3395 -0.3557
  640MOL0     O84372   9.631   1.790   2.085 -0.0268  0.5515  0.8407
  640MOL0     C84373   9.493   1.784   2.067 -0.3051  0.8330 -0.5092
  640MOL0     C84374   9.420   1.742   2.181  0.3323 -0.6737  0.0389
  640MOL0     C84375   9.285   1.741   2.183 -0.5767  0.6139  0.5984
  640MOL0     C84376   9.208   1.759   2.061  0.5915 -0.9571  0.4902
  640MOL0     C84377   9.058   1.733   2.064 -0.3121  0.6823 -0.8807
  640MOL0     O84378   9.007   1.678   2.181 -0.2277 -0.8597  0.3969
  640MOL0     C84379   8.876   1.677   2.197 -0.0962  0.0316 -0.2883
  640MOL0     C84380   8.812   1.552   2.164 -0.9631  0.0928 -0.5698
  640MOL0     C84381   8.675   1.539   2.204 -0.3405 -0.0169 -0.8894
  640MOL0     C84382   8.600   1.651   2.253 -0.5423  0.4525  0.3412
  640MOL0     O84383   8.473   1.656   2.296  0.4561 -0.4103  0.3286
  640MOL0     C84384   8.374   1.588   2.221  0.4237  0.0343 -0.1449
  640MOL0     C84385   8.242   1.620   2.292  0.1030  0.4068  0.5566
  640MOL0     C84386   8.123   1.523   2.249 -0.0490  0.0748 -0.2741
  640MOL0     C84387   8.069   1.554   2.105 -0.5145 -0.8396  0.1491
  640MOL0     C84388   8.140   1.475   1.994 -0.5555  0.3498 -0.6106
  640MOL0     C84389   8.079   1.518   1.862  0.0385  1.6289  0.1372
  640MOL0     C84390   8.141   1.439   1.739 -0.2371  0.9401  0.0872
  640MOL0     C84391   8.133   1.279   1.747  0.0925 -0.0818  0.1805
  640MOL0    Cl84392   8.190   1.205   1.589 -0.1699  0.1366 -0.5832
  640MOL0     C84393   8.667   1.774   2.258 -0.3683  0.0906  0.1365
  640MOL0     C84394   8.804   1.782   2.241  0.5043  0.1946 -0.6910
  640MOL0     O84395   8.993   1.760   1.966 -0.1334  0.3463  0.1292
  640MOL0     C84396   9.281   1.767   1.945 -0.8846 -0.0915 -0.2146
  640MOL0     C84397   9.423   1.781   1.948  0.2811 -1.3183 -0.1735
  640MOL0     N84398   9.843   2.230   1.915 -0.3754 -0.0785 -0.6185
  640MOL0     N84399   9.832   2.254   1.789 -0.1627  0.3593  1.1582
  640MOL0     C84400   9.973   1.853   0.766 -0.2105 -0.9392 -0.6149
  640MOL0     C84401  10.049   1.823   0.659 -0.4545  0.7796 -0.4584
  640MOL0     C84402  10.206   1.489   0.375  0.2000 -1.1382  0.0768
  640MOL0     C84403  10.191   1.382   0.286 -0.2308  0.5859 -0.2671
  640MOL0     C84404  10.299   1.298   0.248  0.7378 -0.6245 -0.5352
  640MOL0     C84405  10.421   1.317   0.313 -0.0509  0.1335 -0.6141
  640MOL0     O84406  10.527   1.235   0.271 -0.1267 -0.3147 -0.1315
  640MOL0     C84407  10.588   1.179   0.387  0.2723  0.9252  0.0292
  640MOL0     C84408  10.729   1.221   0.428  0.5601 -0.4032 -0.7395
  640MOL0     C84409  10.847   1.162   0.349  1.2403 -0.7360  0.6889
  640MOL0     C84410  10.978   1.189   0.400 -0.3764 -1.0188  0.7606
  640MOL0     C84411  11.016   1.330   0.428  1.0949 -0.6829  0.1945
  640MOL0     C84412  11.053   1.445   0.456 -0.2930  0.0280  0.3695
  640MOL0     C84413  10.435   1.411   0.414  0.3943  0.1436  0.2722
  640MOL0     C84414  10.334   1.502   0.440  0.3205 -0.0959 -0.3029
  640MOL0     H84415   9.978   1.484   0.644 -0.1003 -0.6308 -1.3915
  640MOL0     H84416   9.885   1.533   0.863  1.1633  0.3802  1.1078
  640MOL0     H84417   9.981   1.695   1.071  1.7768  2.2149 -2.5445
  640MOL0     H84418   9.815   1.624   1.068  0.1490  0.9808 -0.1325
  640MOL0     H84419   9.735   1.809   1.165 -0.0515  0.6624 -1.7837
  640MOL0     H84420   9.891   1.891   1.196  0.2755 -0.6159  1.2409
  640MOL0     H84421   9.957   1.701   1.345 -0.2395 -1.0044 -0.5231
  640MOL0     H84422   9.789   1.637   1.332 -0.8597  0.3927  1.2308
  640MOL0     H84423   9.701   1.868   1.390  1.0852  1.1915  2.1445
  640MOL0     H84424   9.753   1.771   1.513 -4.5375 -0.2091 -1.6358
  640MOL0     H84425   9.905   2.015   1.373 -2.6753 -0.6606 -1.1495
  640MOL0     H84426   9.994   1.916   1.488 -0.3656  0.8752  1.5691
  640MOL0     H84427   9.922   2.110   1.603  1.3537 -1.1439 -0.2149
  640MOL0     H84428   9.827   1.968   1.652  2.2218  0.1893  0.2623
  640MOL0     H84429   9.706   2.112   1.438 -1.2582  0.7184  0.4714
  640MOL0     H84430   9.633   2.019   1.587 -3.1303  3.7197  1.2827
  640MOL0     H84431   9.560   2.249   1.613 -1.5752 -3.3699 -3.9271
  640MOL0     H84432   9.732   2.294   1.582  1.1283 -0.0056  3.5349
  640MOL0     H84433   9.533   2.145   1.856 -1.1739  1.6778 -0.8154
  640MOL0     H84434   9.621   2.070   2.123 -0.5730  1.6740 -1.0190
  640MOL0     H84435   9.718   2.203   2.186 -3.6292 -1.8377  0.8370
  640MOL0     H84436   9.816   1.989   2.245  1.9831 -2.3953 -1.0840
  640MOL0     H84437   9.933   2.071   2.158 -0.2167  0.4031 -2.1152
  640MOL0     H84438   9.901   1.956   1.957  2.9050 -1.5957  1.2662
  640MOL0     H84439   9.906   1.836   2.083 -0.0160  1.2213  0.8562
  640MOL0     H84440   9.744   1.765   1.921 -1.3735  0.0080 -0.8273
  640MOL0     H84441   9.653   1.916   1.918 -1.2474  0.5827  1.4192
  640MOL0     H84442   9.469   1.713   2.274  1.6645 -1.0033 -0.7437
  640MOL0     H84443   9.228   1.707   2.269 -2.2936 -3.7645 -1.9142
  640MOL0     H84444   8.876   1.469   2.137  1.4638  1.4859  0.5322
  640MOL0     H84445   8.629   1.441   2.208  1.7783 -1.1554 -2.2163
  640MOL0     H84446   8.396   1.481   2.220 -1.7918 -0.5184 -2.4414
  640MOL0     H84447   8.376   1.628   2.119  1.0082  0.9414  0.2084
  640MOL0     H84448   8.207   1.722   2.274 -1.2450  0.1509  1.5463
  640MOL0     H84449   8.257   1.602   2.399 -2.0366  1.3581  1.0888
  640MOL0     H84450   8.035   1.520   2.314 -1.2264  1.0059 -1.7713
  640MOL0     H84451   8.157   1.419   2.237  3.1455  0.8826  0.8352
  640MOL0     H84452   7.961   1.543   2.092 -0.8861  2.7210 -0.7951
  640MOL0     H84453   8.102   1.657   2.089  1.3575 -0.9454  2.6894
  640MOL0     H84454   8.140   1.370   2.022  1.3960  0.8211  1.5327
  640MOL0     H84455   8.246   1.505   1.999  0.2736 -2.5455  3.2469
  640MOL0     H84456   8.087   1.625   1.840  0.8707  1.2608 -1.5179
  640MOL0     H84457   7.973   1.495   1.868  0.0653  1.7010  1.0514
  640MOL0     H84458   8.077   1.457   1.652 -0.4871 -4.2379 -1.1225
  640MOL0     H84459   8.237   1.473   1.698  0.6561 -0.8931  0.5601
  640MOL0     H84460   8.029   1.250   1.763  0.5437 -0.9367  1.7440
  640MOL0     H84461   8.194   1.249   1.832  2.0976 -0.4708 -1.3269
  640MOL0     H84462   8.624   1.869   2.288  1.4974  0.8161  0.6414
  640MOL0     H84463   8.858   1.875   2.253  1.8631 -0.5421 -0.9428
  640MOL0     H84464   9.230   1.774   1.849  0.5187  4.0194 -0.8842
  640MOL0     H84465   9.473   1.794   1.852 -3.3291  0.0286 -2.0926
  640MOL0     H84466   9.973   1.954   0.807  0.4226 -2.2203  2.8224
  640MOL0     H84467  10.110   1.896   0.606  1.7982  1.0514  2.2433
  640MOL0     H84468  10.092   1.364   0.246 -0.2729 -0.9834  0.4974
  640MOL0     H84469  10.284   1.221   0.173  2.2103 -0.0146 -1.5008
  640MOL0     H84470  10.582   1.070   0.386 -1.1191  0.7464  4.5726
  640MOL0     H84471  10.519   1.196   0.471 -0.1889  2.3244 -0.6025
  640MOL0     H84472  10.727   1.330   0.413 -1.2352 -0.3722 -0.5261
  640MOL0     H84473  10.745   1.198   0.534 -1.8949 -2.2338 -0.6924
  640MOL0     H84474  10.840   1.202   0.248 -2.7139  1.8859  1.7812
  640MOL0     H84475  10.836   1.054   0.336  0.7895 -0.5928 -0.1835
  640MOL0     H84476  10.996   1.129   0.490 -1.4513  0.4376  2.0130
  640MOL0     H84477  11.055   1.157   0.329  1.0342  1.8507  0.8722
  640MOL0     H84478  11.077   1.544   0.490 -1.9446  0.1912  1.1281
  640MOL0     H84479  10.527   1.416   0.472  0.5244 -1.0277  0.1847
  640MOL0     H84480  10.351   1.573   0.521  0.5543 -0.5493  0.0503
  641MOL0     O84481   8.815   7.008   9.826 -0.5101  0.1383  0.0491
  641MOL0     C84482   8.892   7.065   9.897 -0.7026  0.3044  0.1828
  641MOL0     O84483   8.882   7.195   9.951  0.4244  0.6124 -0.1007
  641MOL0     C84484   8.809   7.291   9.899  0.0524 -0.5190 -0.6886
  641MOL0     C84485   8.780   7.304   9.760  1.0135 -0.5321  0.0217
  641MOL0     C84486   8.695   7.397   9.707 -0.4059 -0.6533 -0.7120
  641MOL0     C84487   8.640   7.501   9.794 -0.8756 -0.3981  0.0439
  641MOL0     O84488   8.571   7.617   9.748  0.4843  0.0796 -0.2563
  641MOL0     C84489   8.427   7.619   9.770 -0.2255 -0.3493  0.3503
  641MOL0     C84490   8.394   7.703   9.898  0.1385 -0.1550  0.0657
  641MOL0     C84491   8.501   7.819   9.911  0.2786  0.3273 -0.0407
  641MOL0     C84492   8.482   7.913  10.021  0.5611  0.4720  0.1479
  641MOL0     C84493   8.522   7.854  10.163  0.0141 -0.0783  0.1410
  641MOL0     C84494   8.504   7.943  10.275  0.4883 -0.6173  0.4484
  641MOL0     C84495   8.496   7.867  10.411 -0.9395 -1.3141  0.1522
  641MOL0     C84496   8.404   7.743  10.415  0.5210 -0.7102  0.0903
  641MOL0     N84497   8.267   7.754  10.352 -1.3922  0.1938  0.4420
  641MOL0     C84498   8.175   7.860  10.376  0.0359 -1.5107  0.6924
  641MOL0     C84499   8.075   7.831  10.293 -0.4369 -0.1000 -0.9126
  641MOL0     C84500   7.945   7.901  10.308  0.4750 -0.2431  0.8660
  641MOL0     C84501   7.933   8.018  10.213  0.6731  0.4605 -0.4745
  641MOL0     C84502   7.782   8.060  10.206  0.3901 -0.7431 -0.8977
  641MOL0     C84503   7.764   8.158  10.092  0.0720 -0.4209 -0.4938
  641MOL0     O84504   7.834   8.287  10.119  0.3168 -0.4710 -1.2381
  641MOL0     C84505   7.753   8.394  10.153 -0.6912 -0.5342  0.0004
  641MOL0     C84506   7.617   8.392  10.193 -0.0211 -0.8809 -0.9828
  641MOL0     C84507   7.544   8.518  10.198 -0.1235  0.6785  0.0284
  641MOL0     C84508   7.616   8.638  10.200  0.5365 -0.2664 -0.0508
  641MOL0     C84509   7.555   8.769  10.227  0.0057  0.6246  1.1398
  641MOL0     O84510   7.421   8.781  10.208 -0.2269  0.6668  0.1069
  641MOL0     C84511   7.368   8.895  10.266  0.5446 -0.2767  0.4703
  641MOL0     C84512   7.321   8.907  10.397  0.8925  0.5756 -0.5053
  641MOL0     C84513   7.263   9.028  10.440 -0.5804  1.3598 -0.3688
  641MOL0     C84514   7.248   9.141  10.359  1.2515  0.2136 -0.2276
  641MOL0     O84515   7.191   9.259  10.387 -0.6757 -0.1570 -1.0554
  641MOL0     C84516   7.083   9.270  10.480 -0.5990 -1.0568 -0.2195
  641MOL0     C84517   7.005   9.378  10.410  0.9716  0.6601 -0.2871
  641MOL0     C84518   6.876   9.409  10.489 -0.2973  0.4453 -0.1693
  641MOL0     C84519   6.912   9.503  10.603 -0.2661 -0.0253  0.0814
  641MOL0     C84520   6.798   9.535  10.695 -0.0529 -0.2920 -0.9756
  641MOL0     C84521   6.837   9.619  10.816 -0.5831 -1.5063 -0.3137
  641MOL0     C84522   6.710   9.653  10.899 -0.4777  0.5161 -0.2182
  641MOL0     C84523   6.651   9.535  10.967 -0.2157  0.1684 -0.0189
  641MOL0    Cl84524   6.526   9.609  11.069 -0.2486 -0.2045  0.0749
  641MOL0     C84525   7.298   9.128  10.229 -0.0979  0.9190  0.2873
  641MOL0     C84526   7.352   9.008  10.182  0.8242  0.1693 -0.1676
  641MOL0     O84527   7.625   8.850  10.282  0.3808 -0.6264  0.1118
  641MOL0     C84528   7.755   8.637  10.171 -0.7809 -0.3931 -0.4812
  641MOL0     C84529   7.823   8.516  10.153 -0.6594 -0.5121 -0.1119
  641MOL0     N84530   8.113   7.723  10.214 -0.1990  0.3921 -0.2747
  641MOL0     N84531   8.225   7.677  10.257  0.4176  0.0841  0.0920
  641MOL0     C84532   8.657   7.493   9.934 -0.3275  1.3346 -0.3882
  641MOL0     C84533   8.751   7.392   9.987  0.2620  0.7786  0.1579
  641MOL0     C84534   9.013   6.994   9.956 -0.2009 -0.2737  0.1443
  641MOL0     C84535   9.088   7.065  10.060 -0.1920 -0.3400 -0.5878
  641MOL0     C84536   9.200   6.994  10.117  0.4756  0.1030  0.4564
  641MOL0     C84537   9.231   6.856  10.087  0.3679 -0.6236 -0.3395
  641MOL0     O84538   9.337   6.807  10.160 -0.7917  0.8011  0.2934
  641MOL0     C84539   9.389   6.674  10.123 -0.2577  0.6459 -0.1145
  641MOL0     C84540   9.298   6.563  10.177 -0.0612 -0.0491  0.7146
  641MOL0     C84541   9.307   6.441  10.086  0.4432 -0.0713  0.1113
  641MOL0     C84542   9.206   6.332  10.119 -0.2948  0.2571 -0.1192
  641MOL0     C84543   9.173   6.253  10.005 -1.1730 -0.4724 -0.3604
  641MOL0     C84544   9.151   6.169   9.918 -0.1259  0.3430 -0.1281
  641MOL0     C84545   9.150   6.792   9.988  0.6379  0.0130 -0.2946
  641MOL0     C84546   9.046   6.866   9.921  0.4557 -0.3237 -0.2059
  641MOL0     H84547   8.809   7.223   9.694 -2.4955 -2.9722  1.1239
  641MOL0     H84548   8.676   7.401   9.600 -2.4268 -0.5071 -0.3852
  641MOL0     H84549   8.382   7.520   9.781 -0.5961 -0.3100 -0.7131
  641MOL0     H84550   8.386   7.673   9.684  1.6718 -0.8083 -0.9199
  641MOL0     H84551   8.413   7.638   9.984  2.5804  2.1389  1.4117
  641MOL0     H84552   8.292   7.742   9.900  0.4346  0.7774 -1.4289
  641MOL0     H84553   8.488   7.873   9.817 -0.6443 -2.5219 -1.6804
  641MOL0     H84554   8.593   7.759   9.908 -2.3185 -3.9964 -1.5054
  641MOL0     H84555   8.534   8.006   9.997 -1.2893  0.9999 -2.2935
  641MOL0     H84556   8.377   7.942  10.034  0.6761  2.6576 -2.8767
  641MOL0     H84557   8.625   7.818  10.170 -0.1325 -0.5509 -0.1083
  641MOL0     H84558   8.463   7.764  10.179  1.4206 -0.9497  0.5848
  641MOL0     H84559   8.419   8.012  10.277 -0.0782 -1.3246  1.5274
  641MOL0     H84560   8.590   8.011  10.272 -0.7886  1.1681  1.5883
  641MOL0     H84561   8.595   7.834  10.442  0.7348  2.6424 -0.3694
  641MOL0     H84562   8.462   7.928  10.495 -3.8551 -1.1390 -1.0255
  641MOL0     H84563   8.394   7.724  10.522  0.9011  0.0857  0.2824
  641MOL0     H84564   8.460   7.659  10.374 -0.2133 -1.6786  1.0365
  641MOL0     H84565   8.176   7.939  10.450 -3.0842 -1.5640  0.9134
  641MOL0     H84566   7.940   7.933  10.413  1.5375  0.6054  0.6725
  641MOL0     H84567   7.870   7.825  10.284  2.4356 -2.5503  1.5810
  641MOL0     H84568   7.966   7.986  10.114  3.0187 -0.4537  0.5293
  641MOL0     H84569   7.994   8.105  10.242 -1.4780  2.3973 -1.4368
  641MOL0     H84570   7.725   7.968  10.191  3.3771 -3.1212  1.0276
  641MOL0     H84571   7.747   8.101  10.301  0.2618  0.3983 -1.4289
  641MOL0     H84572   7.661   8.177  10.062  0.6482  4.9348  0.0094
  641MOL0     H84573   7.810   8.122   9.999  0.5678 -0.3698 -0.2734
  641MOL0     H84574   7.570   8.295  10.205 -1.7984  0.0018 -0.4856
  641MOL0     H84575   7.436   8.524  10.192 -0.1462  1.8264  1.3118
  641MOL0     H84576   7.316   8.828  10.471  1.8725 -0.2907 -1.3100
  641MOL0     H84577   7.231   9.024  10.543 -1.4298  0.1556 -0.6677
  641MOL0     H84578   7.103   9.298  10.583 -1.8258 -3.0923  0.6228
  641MOL0     H84579   7.037   9.171  10.475 -2.8104 -0.0670 -0.5985
  641MOL0     H84580   6.975   9.336  10.313 -0.9785 -1.6022  1.1776
  641MOL0     H84581   7.070   9.465  10.397  2.6205 -0.5427 -0.4629
  641MOL0     H84582   6.835   9.316  10.529 -0.3862 -1.7304 -4.7210
  641MOL0     H84583   6.812   9.452  10.411  1.5896  0.6185 -1.6641
  641MOL0     H84584   6.991   9.461  10.665  1.5505  3.2384  0.1934
  641MOL0     H84585   6.960   9.597  10.574 -2.2950  0.1948 -3.2580
  641MOL0     H84586   6.769   9.435  10.726  1.6564  0.0631  2.2434
  641MOL0     H84587   6.721   9.589  10.639 -1.0669  0.8187  1.3254
  641MOL0     H84588   6.872   9.721  10.796 -0.9989 -1.2883  0.0531
  641MOL0     H84589   6.920   9.573  10.870  0.2803  1.3258  0.9948
  641MOL0     H84590   6.737   9.714  10.985  0.1536 -1.7945  1.3306
  641MOL0     H84591   6.647   9.706  10.827  1.1700  0.7624 -1.5271
  641MOL0     H84592   6.722   9.475  11.025 -3.0634 -0.4568  3.1724
  641MOL0     H84593   6.613   9.464  10.892 -1.4388 -0.0254  0.7492
  641MOL0     H84594   7.284   9.206  10.155  1.1889  0.8049 -0.1052
  641MOL0     H84595   7.389   8.991  10.082 -1.5468 -1.1933 -0.8795
  641MOL0     H84596   7.805   8.732  10.155 -3.4949  1.0507 -0.8913
  641MOL0     H84597   7.930   8.519  10.138 -0.2932 -0.9010  2.0311
  641MOL0     H84598   8.632   7.572  10.004  0.6287  1.2981  0.0089
  641MOL0     H84599   8.773   7.386  10.094  3.2261 -0.5988 -0.4138
  641MOL0     H84600   9.082   7.166  10.098  1.9517 -0.7928  1.1512
  641MOL0     H84601   9.253   7.042  10.199 -1.1879 -0.6329  2.0477
  641MOL0     H84602   9.487   6.656  10.169  1.2309  3.6833 -1.7964
  641MOL0     H84603   9.403   6.662  10.015 -0.6268 -0.7573 -0.0303
  641MOL0     H84604   9.341   6.550  10.276  2.0315  1.5187  0.0929
  641MOL0     H84605   9.193   6.592  10.185  0.0779  1.3060 -1.5022
  641MOL0     H84606   9.397   6.383  10.103 -1.7853 -4.2680 -1.0756
  641MOL0     H84607   9.304   6.465   9.979  2.6637 -1.2951 -0.2828
  641MOL0     H84608   9.242   6.270  10.201 -0.3450 -0.1972 -0.4350
  641MOL0     H84609   9.111   6.376  10.150  1.2488  1.5602  3.1515
  641MOL0     H84610   9.132   6.102   9.837 -0.5301  0.8941 -0.4954
  641MOL0     H84611   9.165   6.686   9.969 -3.0454 -0.9834  1.5183
  641MOL0     H84612   8.988   6.830   9.837  0.7154  2.6300 -1.7878
  642MOL0     O84613   5.170   3.218   3.284 -0.3347  0.3445 -0.4136
  642MOL0     C84614   5.173   3.182   3.407  0.5278 -0.3949  0.6175
  642MOL0     O84615   5.125   3.059   3.451 -0.6116 -0.2529  0.3262
  642MOL0     C84616   5.081   2.977   3.343 -0.9609 -0.9896 -0.3263
  642MOL0     C84617   5.153   2.855   3.327 -0.0302 -0.3721 -0.8454
  642MOL0     C84618   5.104   2.757   3.242 -0.1603  0.5164  0.4134
  642MOL0     C84619   4.989   2.794   3.165 -0.6461 -0.3782  0.2077
  642MOL0     O84620   4.927   2.691   3.108  0.3413 -0.2836  0.4908
  642MOL0     C84621   4.844   2.721   3.006  0.5460  0.3816  0.6488
  642MOL0     C84622   4.826   2.591   2.916 -0.4704 -0.0954  0.0331
  642MOL0     C84623   4.956   2.567   2.830  0.2200 -0.1317  0.0775
  642MOL0     C84624   4.924   2.452   2.738 -0.2053  0.5960  0.4316
  642MOL0     C84625   5.059   2.417   2.668 -0.8795  0.7887  0.0214
  642MOL0     C84626   5.031   2.323   2.545 -0.3420  0.2142 -0.7136
  642MOL0     C84627   5.163   2.288   2.477 -0.5522  0.0924 -0.1974
  642MOL0     C84628   5.139   2.233   2.332  0.0133 -0.7804 -0.3190
  642MOL0     N84629   5.082   2.096   2.329 -0.4176 -0.0163  0.0798
  642MOL0     C84630   5.124   1.980   2.260 -0.0395  0.5496  0.3934
  642MOL0     C84631   5.035   1.877   2.284  0.3572  0.6426 -0.5887
  642MOL0     C84632   5.034   1.729   2.240 -0.4093 -0.1669  0.1734
  642MOL0     C84633   4.907   1.700   2.159 -0.0131  0.0200  0.3576
  642MOL0     C84634   4.910   1.596   2.047 -0.4018  0.4862  0.1197
  642MOL0     C84635   4.980   1.655   1.918  1.2693 -0.2323  0.4533
  642MOL0     O84636   4.888   1.735   1.839  0.1663  0.1779 -0.6843
  642MOL0     C84637   4.813   1.677   1.736 -0.7354  0.6353  0.2791
  642MOL0     C84638   4.731   1.760   1.666  0.7740 -0.5002  0.9378
  642MOL0     C84639   4.648   1.726   1.561 -0.2972  1.1884 -0.7492
  642MOL0     C84640   4.625   1.593   1.540 -0.1130  0.2777  0.2337
  642MOL0     C84641   4.533   1.551   1.443 -0.9262 -0.4895  0.2425
  642MOL0     O84642   4.426   1.637   1.411 -0.5322 -0.1020  0.2532
  642MOL0     C84643   4.353   1.615   1.301 -0.4512 -0.4707 -0.8311
  642MOL0     C84644   4.325   1.492   1.245 -0.0911 -0.3425 -0.3625
  642MOL0     C84645   4.233   1.482   1.137  0.1432  0.8372 -0.1785
  642MOL0     C84646   4.166   1.593   1.101  0.9504  0.3271 -0.1173
  642MOL0     O84647   4.075   1.581   0.996 -0.5528 -0.7476  0.3774
  642MOL0     C84648   4.065   1.699   0.915  0.7939  0.4448 -0.6877
  642MOL0     C84649   4.183   1.721   0.819 -0.4249  0.2606 -0.6716
  642MOL0     C84650   4.191   1.618   0.709  0.3442 -0.4426 -0.8637
  642MOL0     C84651   4.266   1.484   0.741 -0.1405 -0.7127  0.1196
  642MOL0     C84652   4.290   1.407   0.612  0.5717 -0.5419  0.0572
  642MOL0     C84653   4.162   1.353   0.550  0.0055 -0.1302 -0.3979
  642MOL0     C84654   4.191   1.284   0.421 -0.4339 -0.2672 -0.3608
  642MOL0     C84655   4.086   1.304   0.321 -1.0012  0.1698  0.6810
  642MOL0    Cl84656   3.924   1.235   0.373  0.1059  0.0880 -0.0552
  642MOL0     C84657   4.198   1.723   1.157 -0.5315 -0.8280  0.1518
  642MOL0     C84658   4.280   1.723   1.260 -0.4392  0.2582  0.0551
  642MOL0     O84659   4.551   1.440   1.399 -0.0156  0.2702 -0.7529
  642MOL0     C84660   4.705   1.500   1.614 -1.7773 -0.1555  0.6859
  642MOL0     C84661   4.800   1.538   1.718 -0.1977  0.4224  0.4329
  642MOL0     N84662   4.929   1.932   2.367 -0.1049 -0.3203  0.9528
  642MOL0     N84663   4.967   2.052   2.393 -0.0645 -0.0985  0.5218
  642MOL0     C84664   4.926   2.919   3.179 -0.3039 -0.5141 -0.3856
  642MOL0     C84665   4.968   3.005   3.277 -0.5237 -0.8127  0.4265
  642MOL0     C84666   5.234   3.277   3.501  0.1628  0.3046 -0.6855
  642MOL0     C84667   5.275   3.236   3.626  0.9644  0.0269 -0.3386
  642MOL0     C84668   5.325   3.321   3.724  0.1885  0.3283 -0.1893
  642MOL0     C84669   5.341   3.460   3.698 -0.1219  0.4459  0.1324
  642MOL0     O84670   5.389   3.548   3.795  0.8332 -0.6091 -0.2296
  642MOL0     C84671   5.356   3.687   3.771  0.5252  0.2381 -0.2979
  642MOL0     C84672   5.359   3.752   3.903 -1.5170  0.7704  1.0003
  642MOL0     C84673   5.338   3.907   3.872  0.2407 -0.2165  0.1240
  642MOL0     C84674   5.433   3.978   3.777 -0.1172  0.2478 -0.3340
  642MOL0     C84675   5.402   4.122   3.788  0.5438  0.2431 -0.6725
  642MOL0     C84676   5.381   4.234   3.824  0.0413 -0.4507 -0.6535
  642MOL0     C84677   5.325   3.492   3.565 -0.4082  0.1877  0.3385
  642MOL0     C84678   5.273   3.405   3.468 -0.6533  0.4772  0.4107
  642MOL0     H84679   5.237   2.824   3.390 -0.3989 -0.9049 -0.6055
  642MOL0     H84680   5.148   2.658   3.236 -1.5079 -0.0358 -1.4753
  642MOL0     H84681   4.889   2.792   2.936  1.1360 -2.3903 -1.9941
  642MOL0     H84682   4.750   2.756   3.050  1.0754 -1.1984  3.3082
  642MOL0     H84683   4.739   2.591   2.850 -1.6937 -0.4949  1.5834
  642MOL0     H84684   4.816   2.508   2.987  0.0050  1.9915  2.6870
  642MOL0     H84685   5.043   2.556   2.895  0.0521  1.5524  0.6262
  642MOL0     H84686   4.968   2.656   2.767  0.9728  0.7065  1.3484
  642MOL0     H84687   4.881   2.369   2.796 -0.7210 -0.4052 -1.2883
  642MOL0     H84688   4.846   2.486   2.669  0.9196  3.5623  0.4723
  642MOL0     H84689   5.137   2.367   2.726 -0.6014  1.6623  0.4237
  642MOL0     H84690   5.098   2.514   2.634  1.1681  0.3286  0.9253
  642MOL0     H84691   4.964   2.382   2.483  1.3414 -0.1766 -3.0385
  642MOL0     H84692   4.984   2.229   2.574 -1.3874 -0.5786 -4.4604
  642MOL0     H84693   5.205   2.389   2.471 -0.6474  0.1292 -0.2392
  642MOL0     H84694   5.219   2.221   2.543 -1.5019 -0.5373 -0.0065
  642MOL0     H84695   5.231   2.236   2.272  1.1060  5.5999  0.9604
  642MOL0     H84696   5.072   2.306   2.285 -0.7589 -1.2148  0.0937
  642MOL0     H84697   5.209   1.971   2.193  0.5004 -1.4830  1.2738
  642MOL0     H84698   5.034   1.673   2.333  1.3970  1.2768  1.1343
  642MOL0     H84699   5.126   1.704   2.185  0.8182  3.3261  0.3789
  642MOL0     H84700   4.884   1.799   2.119  2.0961  1.3843  2.2863
  642MOL0     H84701   4.827   1.677   2.230  1.8685 -0.4116  2.4344
  642MOL0     H84702   4.962   1.507   2.083 -0.0766  0.1134 -1.2014
  642MOL0     H84703   4.807   1.572   2.019 -0.4535 -2.9585  2.6494
  642MOL0     H84704   5.009   1.568   1.859 -1.3265 -0.5623 -0.4393
  642MOL0     H84705   5.056   1.728   1.949  1.0409 -0.1412  0.8151
  642MOL0     H84706   4.724   1.867   1.684  1.1806 -0.6658  2.1623
  642MOL0     H84707   4.584   1.797   1.509 -2.9430 -1.0776 -0.8486
  642MOL0     H84708   4.377   1.399   1.267  1.6495  0.7901  0.4985
  642MOL0     H84709   4.198   1.389   1.093 -1.1171  0.9356  0.5789
  642MOL0     H84710   4.043   1.791   0.971  3.3333  1.0224 -0.4813
  642MOL0     H84711   3.984   1.673   0.847  0.1284 -1.5109  0.7631
  642MOL0     H84712   4.278   1.733   0.872 -1.4391 -2.4840  2.0366
  642MOL0     H84713   4.159   1.819   0.777 -2.5235  0.8185  1.6462
  642MOL0     H84714   4.232   1.665   0.619 -0.6366  0.4344 -0.8730
  642MOL0     H84715   4.092   1.598   0.667 -0.3274  0.3488  0.2695
  642MOL0     H84716   4.362   1.503   0.791  0.5886 -0.5480 -1.2685
  642MOL0     H84717   4.220   1.419   0.816  1.1020  2.1039  3.6155
  642MOL0     H84718   4.343   1.316   0.643 -2.5947 -2.0853  1.4129
  642MOL0     H84719   4.355   1.465   0.546  2.3045  1.4588  3.2783
  642MOL0     H84720   4.083   1.428   0.540  2.2696  2.4215 -0.3349
  642MOL0     H84721   4.128   1.274   0.618  4.9729 -3.1712 -0.9638
  642MOL0     H84722   4.288   1.321   0.386 -0.4888  1.8008  1.4834
  642MOL0     H84723   4.207   1.176   0.434 -0.5001 -0.4669 -1.7903
  642MOL0     H84724   4.136   1.263   0.233  3.1213  2.4195  1.6736
  642MOL0     H84725   4.057   1.409   0.305  2.3475  1.5574  2.6064
  642MOL0     H84726   4.134   1.806   1.129 -0.3203 -0.3268  1.0943
  642MOL0     H84727   4.288   1.810   1.324 -1.0485  0.1827  0.2417
  642MOL0     H84728   4.693   1.395   1.590 -1.6607 -0.5447  2.2382
  642MOL0     H84729   4.851   1.467   1.781  0.3132  1.2636  0.9795
  642MOL0     H84730   4.826   2.938   3.142 -0.5166  0.1214  0.4871
  642MOL0     H84731   4.917   3.100   3.289 -0.6563 -1.0106  1.5743
  642MOL0     H84732   5.252   3.133   3.653 -2.5714  0.6902 -0.3569
  642MOL0     H84733   5.330   3.290   3.828 -0.1390  1.9651  0.3345
  642MOL0     H84734   5.262   3.710   3.721 -0.5486  1.5125  2.1360
  642MOL0     H84735   5.444   3.715   3.712  1.7801  1.3298  1.9672
  642MOL0     H84736   5.278   3.711   3.964 -0.2024 -1.1932  1.5318
  642MOL0     H84737   5.457   3.746   3.952 -0.2913  3.7035 -0.8177
  642MOL0     H84738   5.353   3.965   3.963  0.2269 -0.4196  0.2579
  642MOL0     H84739   5.235   3.915   3.838  0.1212 -1.2259  0.1921
  642MOL0     H84740   5.532   3.953   3.815 -0.5541  0.6411  1.0935
  642MOL0     H84741   5.420   3.962   3.669  0.7401  1.7085 -0.6773
  642MOL0     H84742   5.350   4.335   3.845  0.5891  0.2947 -3.1041
  642MOL0     H84743   5.335   3.598   3.540 -3.9036  0.4822 -0.4078
  642MOL0     H84744   5.247   3.427   3.365 -2.8598 -2.3235  0.2351
  643MOL0     O84745  10.185   6.793   5.587 -0.2915  0.4980 -0.6008
  643MOL0     C84746  10.177   6.703   5.503 -0.1028  0.7653 -1.0106
  643MOL0     O84747  10.093   6.708   5.399  0.1877  0.0396 -0.5644
  643MOL0     C84748  10.000   6.806   5.403  0.1820 -0.9620 -0.1271
  643MOL0     C84749   9.907   6.812   5.511 -0.0955 -0.2949 -0.7047
  643MOL0     C84750   9.799   6.901   5.513  0.2542  0.4882 -0.9769
  643MOL0     C84751   9.799   6.993   5.411 -0.4666 -0.0738 -0.0939
  643MOL0     O84752   9.691   7.073   5.402  0.1232 -0.0955 -0.1810
  643MOL0     C84753   9.698   7.214   5.416  0.4575  0.3490  0.0320
  643MOL0     C84754   9.639   7.279   5.544  1.0321  0.7337  0.1945
  643MOL0     C84755   9.705   7.233   5.672  0.1848  0.3235 -0.3975
  643MOL0     C84756   9.673   7.318   5.804  0.0383  0.5265 -0.5065
  643MOL0     C84757   9.516   7.301   5.848 -0.2525  1.5186  0.5998
  643MOL0     C84758   9.480   7.384   5.968  0.2557  0.5934 -0.4320
  643MOL0     C84759   9.339   7.344   6.011 -0.0324 -0.7014 -0.0187
  643MOL0     C84760   9.303   7.454   6.121  0.4215 -0.0945  0.0019
  643MOL0     N84761   9.379   7.454   6.242 -0.9931  0.0384 -0.3109
  643MOL0     C84762   9.436   7.338   6.298  0.5902  0.0545 -0.5043
  643MOL0     C84763   9.536   7.384   6.378 -0.6527  0.1649 -0.0607
  643MOL0     C84764   9.606   7.294   6.466  0.6225  0.5715 -0.3766
  643MOL0     C84765   9.757   7.277   6.438 -0.1967  0.4994  0.3240
  643MOL0     C84766   9.836   7.405   6.450  0.5203 -0.1121 -1.0908
  643MOL0     C84767   9.818   7.478   6.585 -0.3647  0.2116  0.5359
  643MOL0     O84768   9.921   7.588   6.599 -0.7935 -0.6089  0.5674
  643MOL0     C84769   9.934   7.688   6.514 -1.0531  0.4884  0.6688
  643MOL0     C84770   9.824   7.723   6.438  0.0687 -0.5463 -0.1547
  643MOL0     C84771   9.822   7.826   6.352  0.2441  0.4960  0.7033
  643MOL0     C84772   9.930   7.921   6.338 -0.3073  0.9753 -0.1203
  643MOL0     C84773   9.923   8.030   6.243  0.0247  0.3035 -0.2764
  643MOL0     O84774   9.811   8.037   6.175 -0.7789 -0.3389  0.1155
  643MOL0     C84775   9.791   8.121   6.071  0.3745 -0.1929  0.2478
  643MOL0     C84776   9.658   8.156   6.072 -0.4523 -0.8249 -0.2785
  643MOL0     C84777   9.619   8.234   5.963 -0.3241 -0.2442  0.3533
  643MOL0     C84778   9.709   8.284   5.863  0.3787  0.0249  0.9489
  643MOL0     O84779   9.666   8.361   5.754 -0.3786  0.3398  0.1460
  643MOL0     C84780   9.560   8.451   5.778 -0.4609 -0.0483  0.7331
  643MOL0     C84781   9.535   8.539   5.652 -0.3376 -0.0083 -1.1881
  643MOL0     C84782   9.413   8.622   5.683  0.7628  1.4373 -0.1541
  643MOL0     C84783   9.440   8.756   5.758  0.1589  0.2931  0.0582
  643MOL0     C84784   9.339   8.803   5.864 -0.3640 -0.2442 -0.3599
  643MOL0     C84785   9.197   8.797   5.808 -0.6337 -1.8020 -0.1285
  643MOL0     C84786   9.098   8.879   5.895  0.6895  0.2852  0.4807
  643MOL0     C84787   8.957   8.871   5.848  0.3445  0.2314  0.7426
  643MOL0    Cl84788   8.927   8.992   5.710  0.2482  0.2065  0.1863
  643MOL0     C84789   9.839   8.251   5.878 -0.7463 -0.8321  0.5352
  643MOL0     C84790   9.886   8.175   5.985  0.6133 -0.0061 -0.7478
  643MOL0     O84791  10.014   8.108   6.241  0.3792 -0.6912  0.5187
  643MOL0     C84792  10.048   7.887   6.411  0.2805  0.0718 -0.6673
  643MOL0     C84793  10.045   7.780   6.508  0.6996  0.3793  0.9554
  643MOL0     N84794   9.560   7.517   6.353  0.2093  0.2458 -1.0563
  643MOL0     N84795   9.461   7.558   6.283  0.1575  1.2891  0.8507
  643MOL0     C84796   9.881   6.990   5.296 -0.4564  0.9140 -0.1729
  643MOL0     C84797   9.989   6.899   5.305 -0.4229 -0.2389  0.4969
  643MOL0     C84798  10.279   6.601   5.502 -0.0598 -0.5126  0.5384
  643MOL0     C84799  10.354   6.587   5.615 -0.5328 -0.5023  0.0263
  643MOL0     C84800  10.480   6.503   5.614 -0.1056  0.1211 -0.4300
  643MOL0     C84801  10.523   6.444   5.494  0.0431  0.0073  0.8098
  643MOL0     O84802  10.638   6.373   5.482 -0.3589 -0.5485  0.5023
  643MOL0     C84803  10.734   6.473   5.450 -0.2149  0.1810  0.0995
  643MOL0     C84804  10.872   6.396   5.438 -0.8045  0.4512  0.4846
  643MOL0     C84805  10.892   6.328   5.299  0.6987 -0.1083 -0.0079
  643MOL0     C84806  10.912   6.429   5.179 -0.7404  0.0885  0.3269
  643MOL0     C84807  10.963   6.354   5.061 -0.1232  0.7133 -0.7466
  643MOL0     C84808  10.997   6.285   4.968 -0.2525 -0.6108 -1.2263
  643MOL0     C84809  10.441   6.455   5.381 -0.6466  0.7002  0.2547
  643MOL0     C84810  10.327   6.540   5.380 -0.8822 -0.7864  0.3542
  643MOL0     H84811   9.926   6.743   5.593  2.8412  1.0350 -0.1157
  643MOL0     H84812   9.721   6.901   5.588 -0.3400 -2.5957 -1.4728
  643MOL0     H84813   9.647   7.266   5.335  0.9384  5.3508  2.5053
  643MOL0     H84814   9.798   7.260   5.413  0.8319 -0.4351  0.1819
  643MOL0     H84815   9.536   7.244   5.552  1.3463  0.1124  2.0870
  643MOL0     H84816   9.647   7.387   5.536 -0.3173  0.7450 -1.6365
  643MOL0     H84817   9.811   7.236   5.648  0.2254  2.6835 -0.2067
  643MOL0     H84818   9.678   7.131   5.700 -2.0359  1.3068  1.5455
  643MOL0     H84819   9.737   7.292   5.889  0.8417  1.2925 -0.8576
  643MOL0     H84820   9.688   7.426   5.799  1.9501  0.6306  3.6640
  643MOL0     H84821   9.494   7.196   5.869  2.9710  0.7727  0.8006
  643MOL0     H84822   9.464   7.332   5.757 -1.8292 -2.2481  0.0200
  643MOL0     H84823   9.489   7.491   5.944 -1.1887  1.2252  1.5156
  643MOL0     H84824   9.552   7.365   6.049 -0.1675  0.7860 -0.0016
  643MOL0     H84825   9.265   7.351   5.930 -1.0191 -2.4014  0.6682
  643MOL0     H84826   9.336   7.244   6.057  0.5271  0.3605  2.5150
  643MOL0     H84827   9.196   7.437   6.140  0.8961  0.2265  3.7015
  643MOL0     H84828   9.295   7.550   6.070 -0.6513  0.0040  0.3221
  643MOL0     H84829   9.378   7.246   6.299 -0.7106  0.8325  0.5420
  643MOL0     H84830   9.562   7.194   6.471  0.3469  0.6591 -0.9841
  643MOL0     H84831   9.584   7.325   6.569 -2.6866 -1.0384 -0.4824
  643MOL0     H84832   9.768   7.240   6.335  2.6021 -1.1901  1.1504
  643MOL0     H84833   9.800   7.204   6.507 -0.2522 -1.2878 -1.4458
  643MOL0     H84834   9.941   7.375   6.455  0.5040 -0.0600 -0.3358
  643MOL0     H84835   9.826   7.472   6.364 -1.2005 -1.1889 -1.8023
  643MOL0     H84836   9.824   7.407   6.668 -4.0585  0.6447  1.3724
  643MOL0     H84837   9.716   7.517   6.594 -1.1442 -0.9600 -2.2957
  643MOL0     H84838   9.729   7.671   6.444 -1.3342  1.2890 -3.6238
  643MOL0     H84839   9.737   7.841   6.286  0.7809  0.8579  0.0718
  643MOL0     H84840   9.593   8.123   6.152  3.2725 -2.2716  2.4758
  643MOL0     H84841   9.511   8.249   5.960 -0.9620 -3.7312  1.0124
  643MOL0     H84842   9.586   8.515   5.863 -0.8487 -0.3894  1.1141
  643MOL0     H84843   9.469   8.392   5.788 -0.7278 -0.3818 -2.5909
  643MOL0     H84844   9.534   8.473   5.564  3.8349  0.8004 -2.0600
  643MOL0     H84845   9.616   8.611   5.636 -0.6140 -0.0574 -3.0771
  643MOL0     H84846   9.333   8.562   5.726 -0.1427  1.0149 -2.2945
  643MOL0     H84847   9.380   8.657   5.585 -0.0018  4.1013  0.9539
  643MOL0     H84848   9.538   8.752   5.807  0.0094 -0.6526  0.2993
  643MOL0     H84849   9.451   8.834   5.682  0.7498 -0.7895 -0.9965
  643MOL0     H84850   9.352   8.910   5.884  0.7050 -0.2653 -0.8414
  643MOL0     H84851   9.355   8.752   5.960  0.5465  2.0354  0.7808
  643MOL0     H84852   9.158   8.695   5.803 -3.4622 -0.7408 -2.8476
  643MOL0     H84853   9.206   8.844   5.710 -1.8381  0.6016  0.8415
  643MOL0     H84854   9.117   8.833   5.992  0.9484 -1.4741 -0.3680
  643MOL0     H84855   9.115   8.986   5.910  1.0101  0.6832 -2.1835
  643MOL0     H84856   8.895   8.898   5.934 -1.0014 -0.2796 -0.0370
  643MOL0     H84857   8.934   8.775   5.801  4.6346 -0.3842 -0.5714
  643MOL0     H84858   9.912   8.287   5.807 -1.1495  0.8791  0.9455
  643MOL0     H84859   9.985   8.133   6.001 -0.0017 -0.3775  2.8554
  643MOL0     H84860  10.142   7.935   6.386  1.5478 -0.2058  2.9691
  643MOL0     H84861  10.132   7.761   6.570  1.6571  1.3661 -0.0451
  643MOL0     H84862   9.873   7.060   5.214  1.1152  1.3539  0.0208
  643MOL0     H84863  10.060   6.894   5.223 -2.1956  0.8844 -1.1733
  643MOL0     H84864  10.320   6.635   5.706 -0.9246 -0.8058  0.0435
  643MOL0     H84865  10.546   6.500   5.699 -0.7284 -3.7224  0.0728
  643MOL0     H84866  10.751   6.540   5.535  0.2065  1.3010 -0.8486
  643MOL0     H84867  10.705   6.531   5.362 -0.7367  3.0130  1.9844
  643MOL0     H84868  10.955   6.466   5.451 -0.7065  0.4308 -0.0130
  643MOL0     H84869  10.884   6.312   5.507  0.2485 -0.5798 -0.8923
  643MOL0     H84870  10.802   6.273   5.269 -0.0287  1.0339  0.0066
  643MOL0     H84871  10.963   6.245   5.310  0.1771 -0.3836  1.3747
  643MOL0     H84872  10.820   6.485   5.158 -1.6715 -1.3103  0.5582
  643MOL0     H84873  10.995   6.487   5.221  2.2688 -3.7431  0.1528
  643MOL0     H84874  11.031   6.233   4.880  2.4705  2.2888 -2.0869
  643MOL0     H84875  10.461   6.402   5.288  2.2516  2.8189 -0.4688
  643MOL0     H84876  10.285   6.551   5.281 -3.1614 -2.7796  1.0196
  644MOL0     O84877   0.932  10.169   6.420  0.2162 -1.4257  0.0812
  644MOL0     C84878   0.972  10.073   6.476  0.1603  0.9668  0.9661
  644MOL0     O84879   1.038  10.071   6.602  0.0220  0.2153 -0.6638
  644MOL0     C84880   1.049  10.198   6.663 -1.1713  0.4798  0.0256
  644MOL0     C84881   1.176  10.235   6.722 -0.1247 -0.2108 -0.1856
  644MOL0     C84882   1.198  10.362   6.780  0.7754 -0.6796  0.1532
  644MOL0     C84883   1.088  10.457   6.782 -0.1152 -0.0183 -0.9599
  644MOL0     O84884   1.115  10.586   6.826 -0.4731 -0.8247  0.9703
  644MOL0     C84885   1.166  10.682   6.727 -0.6787 -0.6169 -0.1044
  644MOL0     C84886   1.056  10.773   6.660  0.5412 -1.0319  0.4071
  644MOL0     C84887   1.065  10.921   6.688 -0.3965  0.0438 -0.2533
  644MOL0     C84888   0.950  10.991   6.610 -0.1672 -0.7517  0.2394
  644MOL0     C84889   0.928  11.133   6.657 -0.4034 -0.2492 -0.1692
  644MOL0     C84890   0.818  11.206   6.564 -0.5806  0.4483 -0.4298
  644MOL0     C84891   0.795  11.346   6.618  0.2503 -0.3647  0.0843
  644MOL0     C84892   0.653  11.408   6.606 -0.1232  0.6855 -0.2363
  644MOL0     N84893   0.636  11.456   6.470 -0.7556 -0.6603  0.1574
  644MOL0     C84894   0.607  11.374   6.362 -0.2426  0.0006  0.9095
  644MOL0     C84895   0.582  11.451   6.259  0.6777  0.0884 -0.0954
  644MOL0     C84896   0.582  11.414   6.109 -0.1523 -0.0447 -0.6723
  644MOL0     C84897   0.730  11.406   6.050  0.0954 -0.4677 -0.1628
  644MOL0     C84898   0.829  11.520   6.093  0.1381 -0.2048  0.0081
  644MOL0     C84899   0.977  11.509   6.056 -0.4695 -0.2442 -0.6897
  644MOL0     O84900   1.022  11.375   6.109  0.9341 -0.1920  0.0208
  644MOL0     C84901   1.080  11.380   6.224 -0.2476 -0.9819 -0.1109
  644MOL0     C84902   1.091  11.502   6.308  0.7791  0.7426  0.1717
  644MOL0     C84903   1.152  11.490   6.426 -0.9593 -0.0737  0.0583
  644MOL0     C84904   1.200  11.372   6.482  0.5391 -0.8400 -0.3204
  644MOL0     C84905   1.281  11.366   6.608 -0.9222 -0.1962  0.1345
  644MOL0     O84906   1.303  11.247   6.673 -0.4322  0.6727 -0.2870
  644MOL0     C84907   1.390  11.239   6.783 -0.0084  0.5879  0.0816
  644MOL0     C84908   1.522  11.240   6.776 -0.0965  0.4629  0.2717
  644MOL0     C84909   1.604  11.221   6.886 -0.6453 -0.3173  0.0829
  644MOL0     C84910   1.551  11.212   7.012  0.6747  1.1966 -0.8441
  644MOL0     O84911   1.614  11.212   7.130 -0.3881 -0.4064  0.6901
  644MOL0     C84912   1.711  11.113   7.153 -1.7519 -0.5210 -0.4974
  644MOL0     C84913   1.742  11.104   7.303 -0.1424 -0.8626 -0.2124
  644MOL0     C84914   1.768  11.241   7.358 -0.2280 -0.0995 -0.6863
  644MOL0     C84915   1.905  11.309   7.321  0.2018  0.7636  0.1658
  644MOL0     C84916   1.908  11.446   7.399 -0.3228 -0.4179  0.4617
  644MOL0     C84917   2.049  11.500   7.405 -0.4038 -0.2519  0.4324
  644MOL0     C84918   2.058  11.658   7.438  0.0688  0.1293 -0.1137
  644MOL0     C84919   2.172  11.706   7.530  1.2880  0.4178 -0.8218
  644MOL0    Cl84920   2.195  11.891   7.525  0.1597  0.0015  0.0086
  644MOL0     C84921   1.412  11.197   7.026 -1.0797 -0.0844 -0.1706
  644MOL0     C84922   1.326  11.213   6.915  0.2629  0.2305  0.2799
  644MOL0     O84923   1.351  11.466   6.628  0.1271 -0.6760  0.1037
  644MOL0     C84924   1.179  11.260   6.398  0.1043 -0.1011 -0.2171
  644MOL0     C84925   1.127  11.266   6.273 -0.5637  0.0565  0.0848
  644MOL0     N84926   0.592  11.583   6.306 -0.0891 -0.0939 -0.4941
  644MOL0     N84927   0.618  11.585   6.432 -0.2441  0.1071 -0.0565
  644MOL0     C84928   0.977  10.421   6.719  0.3579 -0.0192 -0.9579
  644MOL0     C84929   0.948  10.293   6.667  0.1699 -0.0374 -0.0331
  644MOL0     C84930   0.943   9.952   6.399  0.0007  0.2888 -0.0563
  644MOL0     C84931   0.975   9.820   6.441 -1.0935 -0.2226  0.9630
  644MOL0     C84932   0.961   9.700   6.359 -0.1135 -0.6303  0.2165
  644MOL0     C84933   0.901   9.708   6.232  0.1153  0.1057  0.3476
  644MOL0     O84934   0.902   9.596   6.155 -0.2921 -0.7064  0.3252
  644MOL0     C84935   0.841   9.599   6.027  1.2310 -0.0510 -0.4577
  644MOL0     C84936   0.830   9.445   5.989  0.4215 -0.4171  0.4851
  644MOL0     C84937   0.955   9.406   5.928  0.4825 -0.5285 -0.2490
  644MOL0     C84938   0.950   9.441   5.777 -0.6398  0.9119 -0.6727
  644MOL0     C84939   1.077   9.410   5.714  0.0414 -0.5838 -0.1847
  644MOL0     C84940   1.190   9.396   5.683 -0.2396 -0.2103  0.5370
  644MOL0     C84941   0.874   9.845   6.189 -0.5319  0.4149 -0.6795
  644MOL0     C84942   0.895   9.957   6.269 -0.1550 -0.3827  1.0578
  644MOL0     H84943   1.250  10.157   6.715  0.6510  0.6688 -3.4192
  644MOL0     H84944   1.297  10.394   6.811 -0.2133  1.4023  1.3732
  644MOL0     H84945   1.216  10.625   6.648  4.3265  2.8750  0.0603
  644MOL0     H84946   1.250  10.731   6.778 -1.4879 -0.9856  1.6508
  644MOL0     H84947   0.956  10.729   6.668  0.8695 -1.4386  3.1460
  644MOL0     H84948   1.087  10.763   6.555 -0.8034  2.2101 -0.4043
  644MOL0     H84949   1.162  10.960   6.654 -0.0920  0.7651  1.3403
  644MOL0     H84950   1.053  10.951   6.793 -0.8310  1.3470 -0.6476
  644MOL0     H84951   0.978  11.008   6.506  1.8158  3.0861  1.1970
  644MOL0     H84952   0.856  10.936   6.617 -1.0692 -0.0589 -3.8745
  644MOL0     H84953   1.011  11.204   6.651  0.7765 -1.6315 -5.1492
  644MOL0     H84954   0.893  11.143   6.760  0.3372 -1.4157  0.2182
  644MOL0     H84955   0.734  11.139   6.581  1.1149 -1.0894  3.0074
  644MOL0     H84956   0.838  11.204   6.457  0.2265 -0.9387 -0.2757
  644MOL0     H84957   0.825  11.354   6.723 -2.6022  2.8906  0.8523
  644MOL0     H84958   0.869  11.411   6.571  1.6143 -1.4607  0.6421
  644MOL0     H84959   0.634  11.483   6.683 -0.2043  0.2213  0.1981
  644MOL0     H84960   0.587  11.324   6.628 -0.9279  0.7341 -2.2600
  644MOL0     H84961   0.613  11.265   6.362 -0.2926 -0.1228 -2.4250
  644MOL0     H84962   0.520  11.494   6.067  0.5509  2.7620  3.0054
  644MOL0     H84963   0.533  11.320   6.083  1.2920 -0.1984 -3.1076
  644MOL0     H84964   0.726  11.397   5.941  1.7040  0.2091 -0.2946
  644MOL0     H84965   0.770  11.315   6.095 -1.1843 -0.4346  1.1284
  644MOL0     H84966   0.797  11.620   6.062 -2.2212 -0.3184  1.7690
  644MOL0     H84967   0.826  11.520   6.202 -0.9600 -0.3873 -0.0104
  644MOL0     H84968   1.041  11.595   6.075  0.1184 -0.9921  0.8357
  644MOL0     H84969   0.976  11.506   5.947 -1.0029  0.2993 -0.7084
  644MOL0     H84970   1.041  11.596   6.285 -0.9488  0.1120  1.1543
  644MOL0     H84971   1.166  11.578   6.489  2.3108 -0.3999  0.0035
  644MOL0     H84972   1.571  11.249   6.679  2.5521 -0.6435  1.4183
  644MOL0     H84973   1.712  11.232   6.889 -0.3921 -1.7970 -1.6293
  644MOL0     H84974   1.799  11.137   7.092 -2.3898 -1.3481 -1.8164
  644MOL0     H84975   1.676  11.017   7.113  0.1775 -0.8891 -1.4715
  644MOL0     H84976   1.830  11.042   7.324  3.3903  3.4346 -0.8695
  644MOL0     H84977   1.653  11.070   7.357 -1.4166  4.0456  1.3145
  644MOL0     H84978   1.773  11.221   7.465  2.2580  0.3572 -0.6626
  644MOL0     H84979   1.686  11.310   7.336  0.2199  1.4269  1.9821
  644MOL0     H84980   1.988  11.243   7.350  2.6590  1.7654 -3.7723
  644MOL0     H84981   1.903  11.323   7.212 -4.3178 -1.6119 -0.2699
  644MOL0     H84982   1.861  11.436   7.497 -3.1787 -1.2381 -0.9078
  644MOL0     H84983   1.853  11.519   7.340 -1.4331 -1.4422  0.1977
  644MOL0     H84984   2.100  11.485   7.310 -0.0143  0.6419  0.4862
  644MOL0     H84985   2.092  11.455   7.495 -3.7645 -2.5417  1.0761
  644MOL0     H84986   2.063  11.723   7.350 -3.0477  1.9953  0.9171
  644MOL0     H84987   1.960  11.684   7.481 -0.8675 -2.0463 -0.7875
  644MOL0     H84988   2.265  11.660   7.496  0.7776 -2.6594  1.5184
  644MOL0     H84989   2.147  11.693   7.635  2.5830  1.1730 -0.3957
  644MOL0     H84990   1.366  11.183   7.123 -2.2849 -1.6118 -0.8986
  644MOL0     H84991   1.220  11.201   6.933  0.9230 -3.1859  3.1348
  644MOL0     H84992   1.216  11.162   6.428  2.0670  0.9783  1.1564
  644MOL0     H84993   1.104  11.173   6.223 -0.2149 -0.7421  1.3598
  644MOL0     H84994   0.894  10.488   6.701 -0.9038 -0.4731  2.4099
  644MOL0     H84995   0.845  10.265   6.645 -1.3131  1.8535  3.5497
  644MOL0     H84996   1.016   9.792   6.537 -1.2533 -0.4065  0.9798
  644MOL0     H84997   0.989   9.601   6.395 -1.2326 -0.9110  0.3367
  644MOL0     H84998   0.892   9.666   5.957  0.5382  3.2616  1.9655
  644MOL0     H84999   0.738   9.626   6.052  1.1710  0.0812 -0.8527
  644MOL0     H85000   0.824   9.391   6.084 -0.8533  0.1548  0.7488
  644MOL0     H85001   0.754   9.422   5.913 -0.0009 -1.9671  1.3312
  644MOL0     H85002   0.962   9.300   5.953  0.4214 -0.2038  1.2323
  644MOL0     H85003   1.041   9.459   5.970  0.3184 -0.9792  0.6705
  644MOL0     H85004   0.875   9.382   5.724  3.3661 -3.4028 -2.1778
  644MOL0     H85005   0.927   9.548   5.770  1.1105  1.5137  1.4957
  644MOL0     H85006   1.292   9.386   5.653 -1.0019 -2.7587 -1.6238
  644MOL0     H85007   0.847   9.867   6.086 -1.6087  1.6219 -0.1611
  644MOL0     H85008   0.873  10.051   6.218 -1.3741 -0.6738  1.0076
  645MOL0     O85009   9.727   0.694   0.969 -0.1764  0.4466 -0.1621
  645MOL0     C85010   9.636   0.642   0.910 -0.5562  0.7198  0.6647
  645MOL0     O85011   9.636   0.616   0.773 -0.1589  0.0845 -0.0419
  645MOL0     C85012   9.749   0.656   0.704  0.9761 -1.3609 -0.1264
  645MOL0     C85013   9.726   0.761   0.616  0.5934 -0.3782 -0.2134
  645MOL0     C85014   9.832   0.801   0.526 -0.2197 -0.2405 -0.6062
  645MOL0     C85015   9.956   0.739   0.535 -0.8884 -0.4857  1.3012
  645MOL0     O85016  10.049   0.776   0.446  0.4238 -0.3443 -0.7434
  645MOL0     C85017  10.171   0.714   0.426 -0.3694  0.2667  0.5674
  645MOL0     C85018  10.255   0.774   0.311 -0.2254 -0.5403 -0.6537
  645MOL0     C85019  10.178   0.755   0.187  0.5801  0.0817  0.7019
  645MOL0     C85020  10.270   0.791   0.071 -0.1816  0.1005  0.9897
  645MOL0     C85021  10.174   0.846  -0.047  0.1090 -0.4523 -0.2849
  645MOL0     C85022  10.249   0.918  -0.155  0.1266 -0.1506  0.1205
  645MOL0     C85023  10.166   0.976  -0.273 -0.4385 -0.4629  1.0191
  645MOL0     C85024  10.262   1.054  -0.368  1.5631 -1.2483  0.1242
  645MOL0     N85025  10.207   1.158  -0.460 -0.1774  0.3491 -0.4519
  645MOL0     C85026  10.182   1.297  -0.428 -0.2709  0.0406  0.1348
  645MOL0     C85027  10.156   1.348  -0.554  0.2465  0.1246 -0.1836
  645MOL0     C85028  10.139   1.493  -0.598  0.3384 -0.5505  0.1244
  645MOL0     C85029   9.990   1.543  -0.568 -1.1489 -0.1382 -0.5278
  645MOL0     C85030   9.996   1.626  -0.444 -0.4354  0.5337 -0.6532
  645MOL0     C85031   9.847   1.668  -0.405  0.6920 -0.0473  0.6648
  645MOL0     O85032   9.769   1.549  -0.377  0.1579 -0.6476 -0.4193
  645MOL0     C85033   9.633   1.574  -0.371  0.1076  0.7161  0.4238
  645MOL0     C85034   9.550   1.478  -0.426  0.8487 -0.3271 -0.0675
  645MOL0     C85035   9.410   1.495  -0.424  0.3676 -0.6458  1.1586
  645MOL0     C85036   9.349   1.614  -0.389 -0.8282 -0.8953 -0.5223
  645MOL0     C85037   9.201   1.636  -0.416 -0.1193  1.2374 -0.5022
  645MOL0     O85038   9.154   1.751  -0.364 -0.2387 -1.2850  0.3150
  645MOL0     C85039   9.022   1.783  -0.357  0.7668 -0.4140 -1.5881
  645MOL0     C85040   8.935   1.777  -0.465  0.4914 -0.2006 -0.1047
  645MOL0     C85041   8.813   1.839  -0.457  0.1550 -0.4446 -0.4666
  645MOL0     C85042   8.772   1.901  -0.337  0.4783  1.1371  0.9517
  645MOL0     O85043   8.647   1.968  -0.344  0.0146  0.0932 -0.1389
  645MOL0     C85044   8.554   1.950  -0.231 -0.7069  0.3757 -0.1967
  645MOL0     C85045   8.475   2.067  -0.184  0.5349 -0.4846  0.9968
  645MOL0     C85046   8.577   2.181  -0.158 -0.3115  0.5752  0.0981
  645MOL0     C85047   8.499   2.286  -0.079 -0.2678 -0.0465 -0.4288
  645MOL0     C85048   8.577   2.414  -0.070 -0.6436  0.4356 -0.8019
  645MOL0     C85049   8.531   2.513   0.041  0.2233  0.1784  0.3915
  645MOL0     C85050   8.631   2.629   0.035  0.7429  0.9254  0.4983
  645MOL0     C85051   8.629   2.719   0.163  0.0802  0.4275  0.0987
  645MOL0    Cl85052   8.725   2.861   0.129 -0.3336  0.3593 -0.1790
  645MOL0     C85053   8.855   1.902  -0.228 -0.3495 -0.2419 -0.1995
  645MOL0     C85054   8.984   1.838  -0.233 -0.0716  0.0665 -0.3553
  645MOL0     O85055   9.133   1.555  -0.477  0.5691  0.9119 -0.3820
  645MOL0     C85056   9.434   1.715  -0.337  0.5799 -0.2976  0.4511
  645MOL0     C85057   9.571   1.691  -0.326  0.7501 -0.7170  0.7369
  645MOL0     N85058  10.160   1.253  -0.654  0.3560  0.2356 -0.5702
  645MOL0     N85059  10.176   1.137  -0.597  0.3106 -0.1264 -0.0696
  645MOL0     C85060   9.979   0.629   0.624 -0.1828  0.2201 -0.4982
  645MOL0     C85061   9.876   0.592   0.714  0.2247  0.0426  0.4824
  645MOL0     C85062   9.516   0.600   0.992  0.3011  1.1019  0.4630
  645MOL0     C85063   9.388   0.584   0.937  0.1790 -0.1014 -0.2593
  645MOL0     C85064   9.271   0.580   1.014 -0.6752  0.3281 -0.7785
  645MOL0     C85065   9.286   0.553   1.156 -0.3227 -0.7382 -0.1381
  645MOL0     O85066   9.176   0.529   1.229  0.2185 -0.1320  0.2052
  645MOL0     C85067   9.183   0.547   1.375  0.0324 -0.5603 -0.5567
  645MOL0     C85068   9.040   0.532   1.441  0.5433  0.4657  0.2652
  645MOL0     C85069   9.039   0.499   1.594  0.8242 -1.3866  0.0644
  645MOL0     C85070   8.896   0.502   1.658 -0.5038  0.2375  0.0840
  645MOL0     C85071   8.781   0.549   1.580 -0.8234  0.5245  0.7087
  645MOL0     C85072   8.691   0.592   1.511  0.0039 -0.1736 -0.4317
  645MOL0     C85073   9.416   0.565   1.212  0.4809 -0.5587  0.2968
  645MOL0     C85074   9.525   0.589   1.133  0.7155  0.4294  0.1258
  645MOL0     H85075   9.630   0.810   0.604 -0.0555 -2.0811 -2.9349
  645MOL0     H85076   9.805   0.877   0.454 -1.9460 -0.7402 -0.5453
  645MOL0     H85077  10.170   0.605   0.413  0.3137 -0.2240  3.8322
  645MOL0     H85078  10.227   0.709   0.520  0.9388 -2.4356 -0.2357
  645MOL0     H85079  10.351   0.723   0.302 -1.5443 -3.9180  2.3381
  645MOL0     H85080  10.283   0.879   0.328  2.2768 -1.0595 -1.1434
  645MOL0     H85081  10.088   0.818   0.187 -2.5011 -3.8899 -0.5764
  645MOL0     H85082  10.147   0.651   0.169  0.7638  0.4169 -1.9990
  645MOL0     H85083  10.332   0.877   0.100 -0.1424 -0.0122  1.2430
  645MOL0     H85084  10.329   0.705   0.036 -1.8215  0.3091 -2.7381
  645MOL0     H85085  10.094   0.904  -0.001  0.8812 -0.2586  0.8577
  645MOL0     H85086  10.120   0.763  -0.093  1.1966 -2.2791  1.5236
  645MOL0     H85087  10.319   0.850  -0.204  1.4312  0.0035  1.6934
  645MOL0     H85088  10.299   1.006  -0.113 -1.5413  0.6492  0.5451
  645MOL0     H85089  10.113   0.891  -0.317  0.6850 -1.2642  1.1441
  645MOL0     H85090  10.091   1.038  -0.224 -0.0268  0.0813  0.9674
  645MOL0     H85091  10.308   0.977  -0.431  1.0993 -0.1826 -1.5633
  645MOL0     H85092  10.341   1.105  -0.312  2.6170 -1.0406 -1.4874
  645MOL0     H85093  10.201   1.338  -0.329 -0.3127 -0.5029  0.3732
  645MOL0     H85094  10.136   1.496  -0.707 -0.9935 -0.7340  0.1412
  645MOL0     H85095  10.220   1.556  -0.559  1.8165 -0.3859 -2.9539
  645MOL0     H85096   9.914   1.465  -0.560 -0.5524 -0.7320 -0.4744
  645MOL0     H85097   9.966   1.620  -0.642  3.0905  0.4190 -1.6448
  645MOL0     H85098  10.041   1.574  -0.359  1.1752  1.9456 -0.5767
  645MOL0     H85099  10.057   1.716  -0.459 -2.3292  1.8123 -1.1025
  645MOL0     H85100   9.815   1.725  -0.493  3.7511 -0.0482 -0.5792
  645MOL0     H85101   9.843   1.736  -0.320 -0.7856  0.4946  0.1869
  645MOL0     H85102   9.599   1.389  -0.462 -1.1047 -1.0007 -1.2415
  645MOL0     H85103   9.349   1.418  -0.470  2.1569 -0.7036 -1.3436
  645MOL0     H85104   8.964   1.729  -0.558 -1.0719  1.4310 -1.5078
  645MOL0     H85105   8.747   1.846  -0.543  0.4486  4.6715 -0.5819
  645MOL0     H85106   8.600   1.901  -0.144 -1.7359 -0.8461 -0.2900
  645MOL0     H85107   8.473   1.883  -0.264  1.0196 -1.5646 -0.7338
  645MOL0     H85108   8.426   2.033  -0.092 -0.1749  2.0128  1.6111
  645MOL0     H85109   8.398   2.089  -0.259  1.5820 -1.7615 -0.5260
  645MOL0     H85110   8.618   2.226  -0.249  1.5292 -1.4111 -0.1385
  645MOL0     H85111   8.661   2.136  -0.105 -0.8589 -0.9214 -0.2576
  645MOL0     H85112   8.407   2.324  -0.126  0.7282  1.7402 -1.0445
  645MOL0     H85113   8.460   2.256   0.019  1.0777  1.6801  0.7064
  645MOL0     H85114   8.567   2.468  -0.164 -0.4698  2.1324  0.1118
  645MOL0     H85115   8.681   2.384  -0.054 -0.7148 -1.2920 -3.1241
  645MOL0     H85116   8.525   2.470   0.142  0.4278 -3.4572 -1.0087
  645MOL0     H85117   8.432   2.555   0.020 -0.5929 -0.7050  2.2108
  645MOL0     H85118   8.736   2.599   0.023  1.4853  3.9722 -1.9802
  645MOL0     H85119   8.615   2.670  -0.066  0.9583 -1.2620 -0.4884
  645MOL0     H85120   8.664   2.652   0.243 -4.9950 -0.2035  2.1646
  645MOL0     H85121   8.526   2.752   0.180 -1.0998 -2.2494 -1.3212
  645MOL0     H85122   8.821   1.950  -0.137 -2.4492 -0.5192 -0.7791
  645MOL0     H85123   9.051   1.843  -0.148 -2.0292  3.3221  1.1693
  645MOL0     H85124   9.383   1.808  -0.312 -0.2152  0.2744 -2.8362
  645MOL0     H85125   9.628   1.776  -0.288 -0.7107  2.2725 -3.1275
  645MOL0     H85126  10.074   0.576   0.631  3.1551  5.4862  0.4278
  645MOL0     H85127   9.889   0.510   0.784 -1.5813 -2.7608 -2.2282
  645MOL0     H85128   9.366   0.572   0.831 -0.8575 -0.5338 -0.0097
  645MOL0     H85129   9.174   0.582   0.967 -0.9712 -0.8443 -0.2549
  645MOL0     H85130   9.224   0.644   1.406 -0.4271 -0.1907 -1.0942
  645MOL0     H85131   9.243   0.465   1.417  2.1189 -0.2660 -2.7300
  645MOL0     H85132   8.987   0.626   1.421 -3.7552 -1.7508  0.2657
  645MOL0     H85133   8.974   0.461   1.390  2.0989 -1.7800  1.2268
  645MOL0     H85134   9.101   0.573   1.645  0.3157 -0.9271  0.0265
  645MOL0     H85135   9.088   0.405   1.619 -0.1889 -1.9121  0.1491
  645MOL0     H85136   8.878   0.407   1.710  0.3415  0.2332  0.3908
  645MOL0     H85137   8.916   0.565   1.745 -3.3628  2.9271 -1.0099
  645MOL0     H85138   8.609   0.635   1.457 -3.3745 -2.8722  2.0767
  645MOL0     H85139   9.429   0.550   1.318  0.3050 -2.8779  0.0501
  645MOL0     H85140   9.621   0.613   1.178  1.0610 -1.1859  0.2784
  646MOL0     O85141   9.512   2.705   8.132  0.3141 -0.2291  0.0969
  646MOL0     C85142   9.419   2.736   8.064  0.0495  0.2245  0.6057
  646MOL0     O85143   9.408   2.860   7.996  0.2529 -0.1302 -0.3102
  646MOL0     C85144   9.525   2.926   7.965  0.2382 -0.2313 -0.7195
  646MOL0     C85145   9.507   3.061   7.978 -0.2981 -0.5098 -0.5375
  646MOL0     C85146   9.611   3.145   7.944 -1.1116 -0.2955  0.7098
  646MOL0     C85147   9.737   3.098   7.901  0.1830 -0.4596 -0.3366
  646MOL0     O85148   9.848   3.179   7.892 -0.3823 -0.3551 -0.7622
  646MOL0     C85149   9.895   3.235   8.021  0.5926  0.8265 -0.3869
  646MOL0     C85150  10.034   3.273   8.001  0.3747  0.1755 -0.8185
  646MOL0     C85151  10.113   3.152   7.953 -0.0570  0.1289 -0.5149
  646MOL0     C85152  10.266   3.156   7.993 -1.0796 -0.0828  0.8497
  646MOL0     C85153  10.337   3.029   7.996  1.3003  0.5859 -0.1722
  646MOL0     C85154  10.473   3.041   8.064 -0.0969  0.3289 -0.6098
  646MOL0     C85155  10.581   2.955   8.009 -0.0084  0.0604  0.4960
  646MOL0     C85156  10.718   2.962   8.072 -0.5302  0.1638 -0.9016
  646MOL0     N85157  10.813   2.941   7.964  0.3247  0.7973 -0.3743
  646MOL0     C85158  10.810   2.823   7.897  0.2170  0.2633 -0.1388
  646MOL0     C85159  10.911   2.830   7.813 -0.4343  0.4092 -0.5361
  646MOL0     C85160  10.948   2.719   7.717  0.0836 -1.0440  0.4757
  646MOL0     C85161  11.085   2.671   7.750 -0.4625  0.0634  0.5906
  646MOL0     C85162  11.134   2.581   7.631  0.4360 -0.4151  0.2948
  646MOL0     C85163  11.277   2.526   7.635  0.2086  0.1559 -0.4516
  646MOL0     O85164  11.309   2.418   7.551 -0.7185  0.1676 -0.5456
  646MOL0     C85165  11.435   2.367   7.565  0.4770  0.1786  0.1703
  646MOL0     C85166  11.467   2.249   7.492  0.1767 -0.0987  0.3881
  646MOL0     C85167  11.591   2.183   7.506  0.1083  0.1843  0.3631
  646MOL0     C85168  11.689   2.228   7.602 -1.0090 -0.1349  0.7108
  646MOL0     C85169  11.820   2.159   7.605  1.1127  0.1538 -0.4388
  646MOL0     O85170  11.862   2.092   7.489  0.7741 -0.4442  0.4381
  646MOL0     C85171  11.979   2.018   7.497  0.0391 -0.1846  0.1266
  646MOL0     C85172  12.010   1.921   7.604  1.4175  0.0501  0.6920
  646MOL0     C85173  12.136   1.859   7.600  0.0196 -1.1362  0.3180
  646MOL0     C85174  12.218   1.874   7.491 -1.4413 -0.1398  0.8796
  646MOL0     O85175  12.344   1.810   7.472 -0.7738 -0.7177 -0.2113
  646MOL0     C85176  12.357   1.694   7.545  0.0293  0.7078 -0.2567
  646MOL0     C85177  12.455   1.599   7.475  0.7395 -0.0036  0.0045
  646MOL0     C85178  12.547   1.545   7.581  0.8261  0.2655  0.6087
  646MOL0     C85179  12.633   1.427   7.520 -0.4372 -0.0935 -0.7064
  646MOL0     C85180  12.723   1.386   7.637 -0.3869 -0.0127  0.6879
  646MOL0     C85181  12.858   1.360   7.609 -0.4965  0.8127 -0.0855
  646MOL0     C85182  12.874   1.220   7.538  0.4601 -1.4934 -0.0840
  646MOL0     C85183  13.014   1.174   7.498 -0.0998  0.2806 -0.7659
  646MOL0    Cl85184  13.124   1.137   7.637 -0.4873  0.1638  0.1395
  646MOL0     C85185  12.181   1.952   7.380  1.2199 -0.2932  0.4607
  646MOL0     C85186  12.065   2.032   7.384  0.3697 -0.1743 -1.0085
  646MOL0     O85187  11.878   2.166   7.718 -0.4982 -0.7011  0.9013
  646MOL0     C85188  11.654   2.340   7.680  0.4569  0.0035  1.1428
  646MOL0     C85189  11.525   2.402   7.666  0.5579  0.2139  0.6990
  646MOL0     N85190  10.960   2.959   7.829 -0.5977  0.1315 -0.0200
  646MOL0     N85191  10.904   3.030   7.919  0.5659 -0.2105 -0.7692
  646MOL0     C85192   9.753   2.964   7.898  0.5211  1.0306  0.5510
  646MOL0     C85193   9.649   2.873   7.927  0.6813 -0.0055  0.3952
  646MOL0     C85194   9.303   2.639   8.070 -0.1134 -0.6607 -0.6613
  646MOL0     C85195   9.274   2.568   8.190  0.0104 -0.1161 -0.3255
  646MOL0     C85196   9.163   2.479   8.189  0.6740 -0.6028 -0.1901
  646MOL0     C85197   9.091   2.465   8.072  0.4504  0.0087 -0.4448
  646MOL0     O85198   9.000   2.361   8.059 -0.3929  0.5973  0.0438
  646MOL0     C85199   8.973   2.278   8.169  0.7919 -0.4506  0.0830
  646MOL0     C85200   8.857   2.191   8.127 -0.5451 -0.2112 -0.7448
  646MOL0     C85201   8.827   2.104   8.253 -0.0101 -0.5399 -0.3733
  646MOL0     C85202   8.738   1.991   8.241 -0.2494  0.8162 -0.0007
  646MOL0     C85203   8.794   1.894   8.157 -0.3359  0.6990  0.6896
  646MOL0     C85204   8.840   1.824   8.068 -0.1693  0.4330 -0.2825
  646MOL0     C85205   9.122   2.544   7.962  0.0368 -0.3564 -0.1447
  646MOL0     C85206   9.234   2.621   7.953 -0.2103 -0.0214  0.2123
  646MOL0     H85207   9.416   3.100   8.023 -0.3354 -1.1098 -0.0772
  646MOL0     H85208   9.601   3.250   7.969 -1.2852 -0.2850  0.5917
  646MOL0     H85209   9.882   3.167   8.105 -2.0559  1.9885  0.2452
  646MOL0     H85210   9.833   3.320   8.051 -0.8184 -0.1335 -0.4430
  646MOL0     H85211  10.069   3.307   8.099  1.0041 -0.8681 -0.6728
  646MOL0     H85212  10.047   3.345   7.920  0.2302  3.8623  2.1706
  646MOL0     H85213  10.095   3.140   7.846  0.4481 -0.3939 -0.5437
  646MOL0     H85214  10.069   3.076   8.018  1.7943 -0.2211  0.4039
  646MOL0     H85215  10.315   3.217   7.917 -0.9640 -0.1506  0.8702
  646MOL0     H85216  10.278   3.201   8.091  0.1829 -2.2183  1.7533
  646MOL0     H85217  10.342   2.993   7.893  1.6953  0.7242 -0.2031
  646MOL0     H85218  10.272   2.952   8.039 -2.5921  2.9570 -1.3131
  646MOL0     H85219  10.462   3.018   8.171  1.0316 -0.3568 -0.6354
  646MOL0     H85220  10.507   3.145   8.059 -3.7725  1.6761 -0.8441
  646MOL0     H85221  10.558   2.849   7.993 -0.5739  0.3145 -0.4281
  646MOL0     H85222  10.591   2.992   7.907  1.0456 -3.7683 -0.9716
  646MOL0     H85223  10.728   2.890   8.154 -0.6720 -0.2556 -1.2458
  646MOL0     H85224  10.736   3.063   8.108  2.8438 -0.7213  0.2748
  646MOL0     H85225  10.747   2.735   7.908  0.2801  0.2775  0.3846
  646MOL0     H85226  10.931   2.762   7.618 -3.5818 -2.6266  0.2464
  646MOL0     H85227  10.881   2.634   7.730  0.6062 -1.7034 -1.0274
  646MOL0     H85228  11.088   2.599   7.832  0.5916 -3.0759 -2.0034
  646MOL0     H85229  11.155   2.751   7.780 -2.6398  1.9672  0.8665
  646MOL0     H85230  11.056   2.505   7.621 -1.9442  1.8077  0.9380
  646MOL0     H85231  11.145   2.646   7.544 -1.2726  4.5960  3.3471
  646MOL0     H85232  11.282   2.476   7.732 -0.0759  0.7059 -0.1528
  646MOL0     H85233  11.349   2.607   7.623 -0.2757  0.6187 -0.2485
  646MOL0     H85234  11.394   2.212   7.420 -0.8700 -0.7122  1.7313
  646MOL0     H85235  11.603   2.102   7.435  0.0886  1.1062 -0.7181
  646MOL0     H85236  11.936   1.905   7.681 -0.0070  0.7299 -0.4849
  646MOL0     H85237  12.163   1.798   7.686 -4.0729 -2.1492  1.0874
  646MOL0     H85238  12.257   1.652   7.543 -1.1032  2.8201  3.4114
  646MOL0     H85239  12.372   1.706   7.652 -1.5330 -0.2362  0.0855
  646MOL0     H85240  12.526   1.645   7.407  2.8801 -1.8879  0.8485
  646MOL0     H85241  12.407   1.522   7.413 -1.6084 -1.1050  2.9353
  646MOL0     H85242  12.490   1.501   7.663 -1.6799  0.7893 -0.7460
  646MOL0     H85243  12.603   1.630   7.622 -2.1098  1.8200  1.6612
  646MOL0     H85244  12.573   1.343   7.486 -1.6091 -0.6823  2.4875
  646MOL0     H85245  12.692   1.471   7.439 -0.5108 -2.6188 -2.2261
  646MOL0     H85246  12.682   1.301   7.693  1.1570 -1.1315  0.2072
  646MOL0     H85247  12.740   1.464   7.712  0.6226  1.2274 -0.7789
  646MOL0     H85248  12.917   1.367   7.700 -0.6998  0.6819  0.0569
  646MOL0     H85249  12.895   1.438   7.542 -0.3928 -0.9235 -2.1782
  646MOL0     H85250  12.818   1.150   7.601 -3.6485  2.0325  0.6214
  646MOL0     H85251  12.820   1.223   7.443 -1.1157 -0.4644  0.7940
  646MOL0     H85252  13.072   1.250   7.444  2.0965 -0.4035  0.4919
  646MOL0     H85253  13.016   1.083   7.437  1.8346 -1.8215  2.1374
  646MOL0     H85254  12.257   1.975   7.306  2.4528 -2.4481  0.9797
  646MOL0     H85255  12.032   2.099   7.305  3.0944  0.6089 -1.5759
  646MOL0     H85256  11.707   2.368   7.770  0.6189 -1.1563  1.4203
  646MOL0     H85257  11.509   2.489   7.728  1.1106  1.1525 -0.4472
  646MOL0     H85258   9.839   2.912   7.857  0.3662 -0.5362  2.0994
  646MOL0     H85259   9.648   2.764   7.920  1.2139  0.0002  0.1351
  646MOL0     H85260   9.325   2.581   8.285 -1.3590 -2.2841  0.8048
  646MOL0     H85261   9.148   2.415   8.276  0.2571 -0.2571 -0.0061
  646MOL0     H85262   8.927   2.341   8.245  0.8491 -1.3112  0.8519
  646MOL0     H85263   9.059   2.219   8.204  1.8760  0.2538 -1.3081
  646MOL0     H85264   8.763   2.243   8.110  0.6387  2.1140 -0.5130
  646MOL0     H85265   8.895   2.128   8.046  0.4289 -3.3675  1.9439
  646MOL0     H85266   8.776   2.164   8.328 -1.9046 -1.8525 -0.5435
  646MOL0     H85267   8.921   2.067   8.296 -0.0880  2.2822  2.5578
  646MOL0     H85268   8.721   1.951   8.342  2.8897  3.6006  1.8284
  646MOL0     H85269   8.645   2.022   8.192  1.0796  1.8025 -2.0062
  646MOL0     H85270   8.874   1.768   7.983 -0.5982  1.1199 -0.9167
  646MOL0     H85271   9.062   2.537   7.872 -0.6163 -0.0459  0.2560
  646MOL0     H85272   9.272   2.665   7.861 -0.2861 -0.1313  0.1278
  647MOL0     O85273   0.378  11.222   8.557  0.0490  0.7881  1.1983
  647MOL0     C85274   0.449  11.270   8.645  0.2810  1.7440 -0.0576
  647MOL0     O85275   0.586  11.277   8.641 -0.4727 -0.2475 -0.2691
  647MOL0     C85276   0.660  11.223   8.541  0.5415 -0.2532  0.2287
  647MOL0     C85277   0.646  11.089   8.502  0.3034  0.3046 -0.9909
  647MOL0     C85278   0.722  11.034   8.405  1.2271  0.5186  0.3620
  647MOL0     C85279   0.807  11.120   8.321  0.1389  0.8493 -0.5766
  647MOL0     O85280   0.878  11.084   8.214 -0.4629 -0.7741  0.0859
  647MOL0     C85281   0.793  11.024   8.122  0.2299  0.3403  1.3317
  647MOL0     C85282   0.883  10.954   8.021  0.4198  1.2086  0.1424
  647MOL0     C85283   0.814  10.929   7.888  1.5698  0.0975 -0.0659
  647MOL0     C85284   0.897  10.877   7.773  0.2190  0.0927  0.5670
  647MOL0     C85285   0.804  10.885   7.645  0.1953  0.5025  0.0992
  647MOL0     C85286   0.681  10.791   7.654  0.0985  0.5761  0.1142
  647MOL0     C85287   0.646  10.759   7.506  0.1681 -0.3088 -0.5734
  647MOL0     C85288   0.509  10.690   7.527  0.4350 -0.5844  0.1642
  647MOL0     N85289   0.479  10.614   7.411  0.5519 -0.7401 -0.2169
  647MOL0     C85290   0.493  10.476   7.412 -0.3111  0.5021  0.0472
  647MOL0     C85291   0.417  10.436   7.308 -0.4801 -0.6388 -0.4414
  647MOL0     C85292   0.390  10.296   7.280  0.1549  0.1590  0.0722
  647MOL0     C85293   0.455  10.248   7.153  0.2602 -0.1039  0.4626
  647MOL0     C85294   0.607  10.241   7.172  0.2299 -0.3146 -0.3134
  647MOL0     C85295   0.672  10.182   7.043 -0.5328 -0.1632 -0.1545
  647MOL0     O85296   0.628  10.039   7.033  0.0862 -0.7595  0.2427
  647MOL0     C85297   0.698   9.944   6.970 -0.9723 -0.3424 -0.1929
  647MOL0     C85298   0.818   9.977   6.899 -0.6383 -0.4158  0.1020
  647MOL0     C85299   0.890   9.875   6.839  0.8974 -0.7344  0.2797
  647MOL0     C85300   0.845   9.742   6.846 -0.0613 -0.9869  0.5745
  647MOL0     C85301   0.915   9.626   6.791  0.4668  0.7438  0.5789
  647MOL0     O85302   0.853   9.501   6.816 -0.1509  0.4911 -0.5231
  647MOL0     C85303   0.911   9.389   6.769 -0.2784  0.0413  0.5478
  647MOL0     C85304   1.044   9.361   6.765  0.7208 -0.5194 -0.7901
  647MOL0     C85305   1.086   9.234   6.735 -0.9046 -0.6296  0.0991
  647MOL0     C85306   1.000   9.132   6.707 -0.4466 -0.1483  1.0866
  647MOL0     O85307   1.041   9.004   6.676 -0.5787 -0.5394  0.5220
  647MOL0     C85308   1.060   8.919   6.786 -0.2464  0.0077 -0.2554
  647MOL0     C85309   1.085   8.770   6.758 -0.5009  0.1849 -0.1581
  647MOL0     C85310   1.198   8.751   6.657 -0.0285 -1.3028 -0.2114
  647MOL0     C85311   1.260   8.617   6.647 -0.3225  0.9699  0.3363
  647MOL0     C85312   1.407   8.626   6.594 -0.9962 -0.5990  0.7396
  647MOL0     C85313   1.475   8.481   6.590 -0.2742  0.5418 -1.4016
  647MOL0     C85314   1.606   8.491   6.511 -0.1457 -0.3411  0.1020
  647MOL0     C85315   1.662   8.352   6.499 -0.5727  1.2250 -0.3207
  647MOL0    Cl85316   1.744   8.291   6.650 -0.0533  0.2497  0.2503
  647MOL0     C85317   0.866   9.161   6.694  0.0039 -0.2927 -0.1815
  647MOL0     C85318   0.822   9.280   6.742  0.2361 -0.6375 -0.9604
  647MOL0     O85319   1.004   9.649   6.709  0.6079  0.5429  0.2483
  647MOL0     C85320   0.734   9.710   6.922  0.0345 -0.4602  0.5048
  647MOL0     C85321   0.664   9.812   6.989  0.4346 -0.3006  1.2146
  647MOL0     N85322   0.366  10.549   7.241  0.0321  0.2137  0.0044
  647MOL0     N85323   0.405  10.657   7.304 -0.3348  0.5922 -0.6866
  647MOL0     C85324   0.826  11.247   8.361 -0.6273  0.0742  0.5047
  647MOL0     C85325   0.762  11.299   8.470  0.3870  0.1159  0.5390
  647MOL0     C85326   0.385  11.296   8.781 -0.3890  0.0164  0.2594
  647MOL0     C85327   0.459  11.362   8.876 -0.1685  0.0926  0.1650
  647MOL0     C85328   0.394  11.409   8.994 -0.5827 -0.1602  0.2344
  647MOL0     C85329   0.254  11.397   9.017  0.0623 -0.1250 -0.6476
  647MOL0     O85330   0.179  11.440   9.123 -0.3261 -0.4870  0.2059
  647MOL0     C85331   0.252  11.485   9.250  0.7995 -0.0498  0.8006
  647MOL0     C85332   0.169  11.449   9.373 -0.0099  0.1387  0.6576
  647MOL0     C85333   0.062  11.556   9.377  0.0949  0.4773 -0.9196
  647MOL0     C85334  -0.076  11.494   9.407 -0.4634 -0.0119  0.3326
  647MOL0     C85335  -0.106  11.406   9.298  1.6292  0.0864 -0.3898
  647MOL0     C85336  -0.140  11.314   9.232  0.0774  0.6716 -0.3263
  647MOL0     C85337   0.187  11.327   8.922  0.4801 -0.8528  0.0627
  647MOL0     C85338   0.254  11.260   8.814  0.6920  0.0640 -0.0422
  647MOL0     H85339   0.575  11.036   8.565  1.9454  2.5580  3.1266
  647MOL0     H85340   0.708  10.929   8.381 -0.9907  0.5627  1.2750
  647MOL0     H85341   0.732  11.099   8.072  2.0479  1.5804  0.8652
  647MOL0     H85342   0.730  10.945   8.164 -1.5800  0.9523 -0.1054
  647MOL0     H85343   0.919  10.856   8.053  3.4900  0.7987 -3.6961
  647MOL0     H85344   0.976  11.010   8.002  0.1651  2.0801  1.3213
  647MOL0     H85345   0.788  11.030   7.857  1.1935  0.1485  0.4224
  647MOL0     H85346   0.733  10.856   7.897  1.8080 -0.3542 -1.3234
  647MOL0     H85347   0.980  10.945   7.750 -1.4636  1.5613 -1.6480
  647MOL0     H85348   0.938  10.778   7.794  1.0062  0.1185 -0.7002
  647MOL0     H85349   0.868  10.861   7.560  0.4404 -2.8167  1.0970
  647MOL0     H85350   0.763  10.987   7.646 -0.8706  0.0923  0.9138
  647MOL0     H85351   0.592  10.839   7.696  0.7213  0.4022  1.6774
  647MOL0     H85352   0.710  10.709   7.720 -1.4573  0.3454  0.5529
  647MOL0     H85353   0.647  10.850   7.445  4.1713 -0.1571 -0.6021
  647MOL0     H85354   0.716  10.691   7.456  0.4068  1.5294 -2.8784
  647MOL0     H85355   0.442  10.775   7.543  0.4832 -0.2940 -1.0761
  647MOL0     H85356   0.505  10.623   7.614  0.2704  0.3233  0.8672
  647MOL0     H85357   0.536  10.407   7.485 -1.2016 -1.0903 -0.8918
  647MOL0     H85358   0.284  10.290   7.257  0.1300  0.1211  0.1979
  647MOL0     H85359   0.419  10.231   7.363 -1.0724 -1.4288 -0.6757
  647MOL0     H85360   0.415  10.308   7.071 -0.6477 -2.4045 -0.8889
  647MOL0     H85361   0.422  10.146   7.130  1.6658 -0.2582 -1.0125
  647MOL0     H85362   0.644  10.342   7.188 -1.0623  0.5513 -2.4088
  647MOL0     H85363   0.620  10.180   7.262 -1.9791 -1.1596 -0.5082
  647MOL0     H85364   0.780  10.195   7.050 -0.6442  1.7159 -1.3958
  647MOL0     H85365   0.647  10.235   6.951  3.9729  1.3171 -0.7618
  647MOL0     H85366   0.863  10.075   6.886 -0.1348 -0.5219  0.9282
  647MOL0     H85367   0.980   9.905   6.788  0.2314 -0.1693 -0.5897
  647MOL0     H85368   1.115   9.438   6.792  0.5798 -0.0323 -1.7752
  647MOL0     H85369   1.193   9.212   6.736 -0.7955 -0.2315 -1.0915
  647MOL0     H85370   0.975   8.926   6.855  0.0303  1.3755 -0.0280
  647MOL0     H85371   1.153   8.954   6.831 -0.5264  0.4422 -0.0068
  647MOL0     H85372   0.993   8.724   6.721 -1.7553  2.3581  0.0989
  647MOL0     H85373   1.106   8.712   6.849 -1.9139 -0.4437 -0.1994
  647MOL0     H85374   1.266   8.836   6.669 -0.6160 -1.0560  1.6918
  647MOL0     H85375   1.155   8.755   6.556  1.6274 -2.2727 -0.9990
  647MOL0     H85376   1.283   8.564   6.740 -0.4156 -2.0403 -1.2499
  647MOL0     H85377   1.207   8.546   6.583  2.4820  0.3367 -1.5137
  647MOL0     H85378   1.468   8.692   6.656  0.3977 -0.6759 -0.5023
  647MOL0     H85379   1.412   8.661   6.490 -0.7222  1.3903  1.3877
  647MOL0     H85380   1.413   8.401   6.549  2.3183 -3.7535  2.2775
  647MOL0     H85381   1.487   8.456   6.696 -0.8868  1.2906 -1.1426
  647MOL0     H85382   1.586   8.541   6.415  0.7486  1.6349  0.8748
  647MOL0     H85383   1.677   8.563   6.555 -1.8038  2.1348 -1.0213
  647MOL0     H85384   1.743   8.358   6.425 -0.1203 -1.1819 -0.1086
  647MOL0     H85385   1.584   8.278   6.476 -0.4229 -1.1630  5.3301
  647MOL0     H85386   0.790   9.083   6.692 -2.1510  1.4853  2.8670
  647MOL0     H85387   0.714   9.292   6.748  0.4358  0.5177  1.8065
  647MOL0     H85388   0.699   9.607   6.923 -1.4534  0.0202  1.1168
  647MOL0     H85389   0.577   9.781   7.046 -0.7128 -0.1239 -0.3780
  647MOL0     H85390   0.894  11.306   8.301 -0.7157 -1.6995 -1.4416
  647MOL0     H85391   0.785  11.402   8.494 -0.3074  0.2918  0.4710
  647MOL0     H85392   0.566  11.377   8.882 -0.0788 -0.8975  1.5339
  647MOL0     H85393   0.464  11.458   9.060  3.4512 -1.7902 -2.4349
  647MOL0     H85394   0.302  11.582   9.248  1.4410 -0.3824 -0.3478
  647MOL0     H85395   0.342  11.423   9.255 -0.2878 -2.4076 -3.5934
  647MOL0     H85396   0.134  11.347   9.356  1.2839 -0.3760  0.9020
  647MOL0     H85397   0.233  11.454   9.462  1.2767 -0.9775 -0.1495
  647MOL0     H85398   0.057  11.600   9.276  0.6963 -3.1148 -2.6791
  647MOL0     H85399   0.081  11.627   9.458 -2.7502  0.1946  0.1051
  647MOL0     H85400  -0.075  11.441   9.502 -2.1754  0.6995  0.7976
  647MOL0     H85401  -0.144  11.579   9.417 -0.4814  0.6904 -3.9332
  647MOL0     H85402  -0.174  11.231   9.173 -2.6368  1.1447  0.4524
  647MOL0     H85403   0.080  11.313   8.921  0.5060 -1.1646 -1.7922
  647MOL0     H85404   0.185  11.194   8.763 -0.6732  0.5464  1.0945
  648MOL0     O85405   1.961   5.067   6.148 -0.2533 -0.6552  0.4007
  648MOL0     C85406   1.849   5.122   6.126 -0.8331  0.9108  0.4841
  648MOL0     O85407   1.737   5.096   6.197 -0.2967 -0.6314  0.0098
  648MOL0     C85408   1.709   4.998   6.281  0.2405  1.2130 -0.7154
  648MOL0     C85409   1.772   4.876   6.281  0.3170  0.3731 -0.3754
  648MOL0     C85410   1.734   4.777   6.373 -0.0889  0.9401  0.2634
  648MOL0     C85411   1.634   4.798   6.468 -0.3511 -0.3204  0.1239
  648MOL0     O85412   1.615   4.708   6.567  0.7765 -0.7046  0.1882
  648MOL0     C85413   1.481   4.686   6.610 -0.6506  0.4076 -0.0042
  648MOL0     C85414   1.399   4.630   6.488  1.1555 -0.3682  0.3092
  648MOL0     C85415   1.246   4.609   6.505  0.0431  0.1683 -0.3475
  648MOL0     C85416   1.219   4.508   6.616  0.0788  0.1993 -0.3840
  648MOL0     C85417   1.071   4.479   6.619 -0.9395  0.4381 -0.2225
  648MOL0     C85418   1.032   4.386   6.733 -0.0821 -0.9754 -0.5758
  648MOL0     C85419   0.877   4.389   6.737  0.1767  0.6281  0.1136
  648MOL0     C85420   0.839   4.466   6.868 -0.1134  1.2469 -0.4109
  648MOL0     N85421   0.694   4.481   6.866 -0.1110  0.0249 -0.3718
  648MOL0     C85422   0.608   4.386   6.903 -0.1143  0.1682 -0.8627
  648MOL0     C85423   0.487   4.440   6.869 -0.4713  0.7200  0.3015
  648MOL0     C85424   0.358   4.365   6.877  0.2425 -1.2294 -0.5774
  648MOL0     C85425   0.353   4.254   6.987  0.4299 -0.6184  0.1871
  648MOL0     C85426   0.213   4.213   6.988  0.2958 -0.0472  0.2874
  648MOL0     C85427   0.202   4.105   7.106  0.1856  0.5192  0.2376
  648MOL0     O85428   0.248   4.165   7.227  0.3676 -0.4823 -0.4881
  648MOL0     C85429   0.153   4.218   7.309 -0.2768 -0.4139  0.9772
  648MOL0     C85430   0.191   4.228   7.443 -0.6513 -0.8503  0.5445
  648MOL0     C85431   0.106   4.278   7.540  1.0913 -0.6643  0.4229
  648MOL0     C85432  -0.021   4.320   7.511  0.4156 -0.1580  0.4877
  648MOL0     C85433  -0.093   4.389   7.618  0.4421 -1.3956 -0.5513
  648MOL0     O85434  -0.183   4.485   7.582  0.4388  0.1694 -0.4090
  648MOL0     C85435  -0.245   4.564   7.672 -0.4175 -0.2646 -0.1357
  648MOL0     C85436  -0.171   4.629   7.780  0.0215  0.4006  0.4197
  648MOL0     C85437  -0.245   4.717   7.862 -0.5193  0.3765  0.0930
  648MOL0     C85438  -0.373   4.759   7.829 -1.4056  0.8876 -0.0599
  648MOL0     O85439  -0.425   4.842   7.924  0.2358  0.4995 -0.0365
  648MOL0     C85440  -0.564   4.828   7.936 -0.7416  0.4373 -0.2183
  648MOL0     C85441  -0.602   4.916   8.057  0.7790 -0.5280 -0.5692
  648MOL0     C85442  -0.753   4.950   8.067  0.5501  1.0151  0.3559
  648MOL0     C85443  -0.822   4.814   8.104  0.2438 -0.0801 -0.3264
  648MOL0     C85444  -0.975   4.832   8.128 -0.2489  0.7851 -0.2087
  648MOL0     C85445  -1.035   4.714   8.202 -0.1704  0.3412  0.3667
  648MOL0     C85446  -1.184   4.729   8.227  0.3712 -0.1817  0.2510
  648MOL0     C85447  -1.209   4.672   8.367 -1.1585 -0.1508  0.5111
  648MOL0    Cl85448  -1.196   4.493   8.381 -0.7061 -0.4884  0.0813
  648MOL0     C85449  -0.436   4.704   7.711 -0.3039 -0.1982  0.4992
  648MOL0     C85450  -0.370   4.605   7.635  0.7029  0.6483  0.3916
  648MOL0     O85451  -0.064   4.366   7.737  0.0748  0.5200 -0.4153
  648MOL0     C85452  -0.067   4.310   7.376  0.5368 -0.6134  0.0054
  648MOL0     C85453   0.017   4.250   7.282 -0.7916  0.4484  0.0955
  648MOL0     N85454   0.503   4.569   6.818  0.2448 -0.7045 -0.3251
  648MOL0     N85455   0.627   4.593   6.815 -0.6651  0.2517 -0.1071
  648MOL0     C85456   1.561   4.920   6.455 -0.4571 -0.3806 -0.2145
  648MOL0     C85457   1.595   5.012   6.360 -0.3936 -0.2771  0.2980
  648MOL0     C85458   1.825   5.210   6.004  0.2508  0.0712  0.4668
  648MOL0     C85459   1.696   5.219   5.947 -0.4805 -0.1557  0.2579
  648MOL0     C85460   1.678   5.307   5.834  0.7671  0.1594 -0.2434
  648MOL0     C85461   1.785   5.384   5.791  0.4066  0.4129 -0.3050
  648MOL0     O85462   1.768   5.464   5.686  0.7157  0.1296  0.2976
  648MOL0     C85463   1.694   5.579   5.724  0.1541  0.2759  0.1392
  648MOL0     C85464   1.679   5.673   5.599 -0.3334 -0.3659  1.0884
  648MOL0     C85465   1.537   5.638   5.534  0.4834 -0.1500 -0.4567
  648MOL0     C85466   1.549   5.675   5.387  0.5429  0.0728  0.1133
  648MOL0     C85467   1.594   5.814   5.351  0.0479  0.0602 -0.8097
  648MOL0     C85468   1.637   5.916   5.307 -0.0667 -0.9599  0.0785
  648MOL0     C85469   1.908   5.379   5.851  0.4282  0.1214  0.0937
  648MOL0     C85470   1.934   5.291   5.953  1.3043  0.0582  0.1106
  648MOL0     H85471   1.851   4.863   6.208  1.1720  2.6111  0.0640
  648MOL0     H85472   1.776   4.678   6.384 -1.9685  0.1865  1.0714
  648MOL0     H85473   1.433   4.769   6.662 -0.5497 -1.6767  3.7964
  648MOL0     H85474   1.496   4.604   6.681  1.4466 -0.3442 -1.2353
  648MOL0     H85475   1.435   4.539   6.438 -0.3763 -1.5130  1.2265
  648MOL0     H85476   1.396   4.708   6.411 -2.6883  1.7810  2.3875
  648MOL0     H85477   1.211   4.575   6.408 -3.3259 -0.2298  0.8630
  648MOL0     H85478   1.207   4.709   6.527 -0.8301 -0.0116 -1.0613
  648MOL0     H85479   1.274   4.414   6.607  0.7170  0.6830 -1.7666
  648MOL0     H85480   1.260   4.554   6.707  3.9191 -0.8927 -1.3612
  648MOL0     H85481   1.041   4.419   6.532 -1.5451  0.2593  0.1031
  648MOL0     H85482   1.018   4.574   6.613 -1.9146 -0.1519 -3.4164
  648MOL0     H85483   1.068   4.416   6.832 -2.3627 -0.3567  0.1414
  648MOL0     H85484   1.062   4.285   6.706 -0.9031 -0.7860 -2.3194
  648MOL0     H85485   0.835   4.441   6.651 -1.6342  0.0096  0.5721
  648MOL0     H85486   0.831   4.291   6.750  0.7788  0.5346  1.7628
  648MOL0     H85487   0.881   4.567   6.874 -0.1743  1.2159  0.6079
  648MOL0     H85488   0.857   4.411   6.961 -3.2356 -0.0604 -0.4594
  648MOL0     H85489   0.623   4.290   6.951 -1.2777 -1.1062 -2.9020
  648MOL0     H85490   0.327   4.321   6.781 -2.8578 -0.2754 -0.1460
  648MOL0     H85491   0.279   4.441   6.888  1.6962  0.1154  1.2853
  648MOL0     H85492   0.386   4.293   7.084  0.1803 -0.7844  0.3407
  648MOL0     H85493   0.408   4.162   6.968 -1.8953 -1.9030 -0.7681
  648MOL0     H85494   0.139   4.292   7.000 -1.0046 -1.6307  4.4918
  648MOL0     H85495   0.195   4.159   6.894  0.3400 -1.5577  1.1072
  648MOL0     H85496   0.272   4.022   7.097 -2.1348 -1.8067  1.9793
  648MOL0     H85497   0.098   4.071   7.111  0.2781  0.3468  1.0016
  648MOL0     H85498   0.296   4.207   7.461 -0.1908  0.8688  0.0367
  648MOL0     H85499   0.145   4.286   7.641 -3.8406 -1.6007  2.7046
  648MOL0     H85500  -0.066   4.609   7.793 -0.0012 -1.7087 -1.8730
  648MOL0     H85501  -0.196   4.748   7.954 -0.0117  1.4324 -0.5286
  648MOL0     H85502  -0.576   4.721   7.958 -2.9133  0.1731 -2.3889
  648MOL0     H85503  -0.610   4.859   7.842 -0.4947  0.1608 -0.4341
  648MOL0     H85504  -0.545   5.009   8.048 -0.6956  0.5870  0.9347
  648MOL0     H85505  -0.573   4.878   8.156  1.5058  3.4752  0.9578
  648MOL0     H85506  -0.798   5.000   7.981 -1.2283  1.4501  1.4751
  648MOL0     H85507  -0.758   5.016   8.154 -1.5826  2.2476 -0.6294
  648MOL0     H85508  -0.814   4.735   8.029 -1.9037 -1.0361  0.3748
  648MOL0     H85509  -0.786   4.772   8.198 -0.3346 -2.6648 -1.1707
  648MOL0     H85510  -1.028   4.847   8.034  0.0472 -0.2280 -0.5552
  648MOL0     H85511  -0.987   4.918   8.195 -1.8341  1.3464 -1.1530
  648MOL0     H85512  -0.971   4.690   8.288  2.3778 -1.0997 -1.7957
  648MOL0     H85513  -1.018   4.628   8.137  2.3879  0.1547  1.1569
  648MOL0     H85514  -1.198   4.838   8.229  0.6954 -0.1302 -0.1289
  648MOL0     H85515  -1.251   4.682   8.155 -1.9956  1.3112  1.3830
  648MOL0     H85516  -1.312   4.696   8.397 -0.9202 -2.7127  4.0433
  648MOL0     H85517  -1.143   4.724   8.436  0.3806  1.1514 -1.7983
  648MOL0     H85518  -0.535   4.736   7.683 -0.4090  0.0173  1.1093
  648MOL0     H85519  -0.424   4.572   7.546 -0.3658  1.6636  0.6310
  648MOL0     H85520  -0.170   4.338   7.358  0.0701 -0.6251  2.3130
  648MOL0     H85521  -0.028   4.236   7.184 -0.7508 -0.1323  0.1556
  648MOL0     H85522   1.475   4.936   6.519  1.8656  3.6388  2.3746
  648MOL0     H85523   1.524   5.092   6.340 -0.7528 -0.6701 -0.0006
  648MOL0     H85524   1.614   5.159   5.985  0.0581 -0.7282  0.5549
  648MOL0     H85525   1.587   5.314   5.775  1.3394  0.8671 -1.0823
  648MOL0     H85526   1.753   5.644   5.790  2.5994 -1.8998  0.2728
  648MOL0     H85527   1.598   5.562   5.773  2.1487 -4.4063  3.0770
  648MOL0     H85528   1.682   5.779   5.623 -2.1278  0.4005 -1.6179
  648MOL0     H85529   1.763   5.658   5.531 -0.7924 -1.0706  0.6526
  648MOL0     H85530   1.450   5.686   5.579 -0.6889 -2.6386  0.0947
  648MOL0     H85531   1.526   5.532   5.555  0.5790  0.0962  0.9223
  648MOL0     H85532   1.612   5.606   5.330 -0.4181  0.4217 -1.4421
  648MOL0     H85533   1.448   5.665   5.345  0.5435  1.3258 -0.2336
  648MOL0     H85534   1.668   6.014   5.275 -0.9553 -1.0459 -1.0883
  648MOL0     H85535   1.975   5.453   5.806  2.2303 -0.5049  1.6268
  648MOL0     H85536   2.028   5.288   6.007  2.5085 -1.3290 -1.9306
  649MOL0     O85537   6.455   7.655   1.941 -0.4143 -0.2660  0.0228
  649MOL0     C85538   6.450   7.542   1.980  0.5569  0.8304 -1.0703
  649MOL0     O85539   6.558   7.453   2.003 -0.3936 -0.7675 -0.2757
  649MOL0     C85540   6.688   7.490   1.978 -1.4311 -0.6936 -0.5249
  649MOL0     C85541   6.735   7.538   1.860  0.0867  0.3244 -0.2476
  649MOL0     C85542   6.871   7.548   1.841  0.2173 -0.6902  0.0484
  649MOL0     C85543   6.959   7.520   1.945 -1.3431 -0.1568 -0.1527
  649MOL0     O85544   7.092   7.550   1.918  0.1162  0.4585 -0.2453
  649MOL0     C85545   7.172   7.604   2.029 -0.2825  0.0505  0.0021
  649MOL0     C85546   7.294   7.675   1.964 -1.5213 -0.0714 -0.6842
  649MOL0     C85547   7.392   7.571   1.888  0.2795  0.1528  1.4492
  649MOL0     C85548   7.484   7.644   1.791  0.3469 -0.8055  0.3205
  649MOL0     C85549   7.568   7.551   1.705 -0.2930  0.4744  1.3255
  649MOL0     C85550   7.683   7.492   1.792  0.8558  0.5189 -0.1067
  649MOL0     C85551   7.789   7.418   1.710  0.5785  0.4288  0.5830
  649MOL0     C85552   7.751   7.276   1.682  0.6157  0.3679 -0.0463
  649MOL0     N85553   7.730   7.190   1.807 -0.7410 -0.2007  0.6882
  649MOL0     C85554   7.814   7.174   1.920 -0.1939 -0.3524 -0.3211
  649MOL0     C85555   7.748   7.094   2.007 -1.6297  0.0116 -0.2517
  649MOL0     C85556   7.812   7.053   2.133 -0.1981  0.4515  0.2181
  649MOL0     C85557   7.800   7.168   2.234  0.3237 -0.3652 -1.0899
  649MOL0     C85558   7.653   7.232   2.240  0.4611  0.1532  0.7491
  649MOL0     C85559   7.548   7.135   2.285 -0.5941 -0.3383 -0.6871
  649MOL0     O85560   7.439   7.221   2.333  0.2383 -0.8694 -0.3122
  649MOL0     C85561   7.318   7.211   2.272 -0.7520  0.8917  1.5701
  649MOL0     C85562   7.209   7.213   2.342  0.0593 -0.3263 -0.0841
  649MOL0     C85563   7.078   7.204   2.294  0.4379  1.6160 -0.3178
  649MOL0     C85564   7.061   7.160   2.164 -0.1449  0.2260  1.1062
  649MOL0     C85565   6.918   7.149   2.115 -0.0780 -0.0943  0.8110
  649MOL0     O85566   6.826   7.139   2.218 -0.1894  0.9876 -0.2480
  649MOL0     C85567   6.697   7.092   2.218 -0.2021 -0.4049 -0.0354
  649MOL0     C85568   6.624   7.057   2.103  0.6175 -0.6784  0.2937
  649MOL0     C85569   6.487   7.023   2.109 -0.3022 -0.9903 -0.1045
  649MOL0     C85570   6.416   7.018   2.230  1.0344  0.3839  0.0433
  649MOL0     O85571   6.280   6.998   2.235  0.1217  0.6282 -0.1354
  649MOL0     C85572   6.230   6.920   2.349 -0.1611 -0.6989  0.4419
  649MOL0     C85573   6.244   6.783   2.302 -0.2540 -0.2071  0.3689
  649MOL0     C85574   6.187   6.678   2.410  0.5855 -0.2646  0.2986
  649MOL0     C85575   6.297   6.642   2.514 -0.6157  0.1635 -0.4029
  649MOL0     C85576   6.252   6.647   2.663  0.0642 -0.4583  0.5545
  649MOL0     C85577   6.133   6.541   2.677 -0.6484  0.1022 -0.1638
  649MOL0     C85578   6.054   6.553   2.806  0.0421  0.8003 -0.9778
  649MOL0     C85579   5.993   6.413   2.853 -0.8069  0.3608  1.0170
  649MOL0    Cl85580   5.876   6.348   2.744 -0.4628 -0.4674 -0.0819
  649MOL0     C85581   6.487   7.062   2.346 -0.0899  0.1053  0.7296
  649MOL0     C85582   6.622   7.100   2.336 -0.5280  0.7111 -0.6706
  649MOL0     O85583   6.891   7.135   1.995 -0.0239  0.5956 -0.4988
  649MOL0     C85584   7.172   7.151   2.084 -0.5940 -0.4033  0.8181
  649MOL0     C85585   7.305   7.167   2.134 -0.3551 -0.5261 -0.4258
  649MOL0     N85586   7.630   7.058   1.943 -1.3415  0.3359  0.3975
  649MOL0     N85587   7.627   7.109   1.825 -0.1449  0.8870  0.0862
  649MOL0     C85588   6.915   7.473   2.067 -0.5649  0.7360  0.8705
  649MOL0     C85589   6.777   7.458   2.088 -0.6660  0.4012 -0.0600
  649MOL0     C85590   6.312   7.495   1.999 -0.0760  0.1103 -0.1371
  649MOL0     C85591   6.300   7.376   2.076 -0.1756 -0.8767 -0.4397
  649MOL0     C85592   6.176   7.319   2.089 -0.7113  0.6094 -0.6081
  649MOL0     C85593   6.061   7.378   2.042 -0.9985 -0.8923 -0.5614
  649MOL0     O85594   5.940   7.319   2.047 -0.0782  0.4854  0.1069
  649MOL0     C85595   5.925   7.173   2.069  0.8467 -0.0329 -0.0637
  649MOL0     C85596   5.935   7.092   1.946  0.5601 -0.7094  0.4068
  649MOL0     C85597   5.949   6.943   1.970 -0.3242 -0.1304 -0.7948
  649MOL0     C85598   5.824   6.869   2.014  0.1805 -0.7138  0.3550
  649MOL0     C85599   5.839   6.724   2.013 -0.4674  0.0909 -0.1467
  649MOL0     C85600   5.839   6.599   2.018 -0.0297 -1.4155 -1.1357
  649MOL0     C85601   6.075   7.503   1.978  0.2208  0.1049  0.5502
  649MOL0     C85602   6.199   7.560   1.947 -0.4864 -0.0570 -0.4219
  649MOL0     H85603   6.673   7.549   1.771  1.1816 -0.5297 -1.1595
  649MOL0     H85604   6.902   7.595   1.749 -1.7864 -2.0172 -1.4047
  649MOL0     H85605   7.218   7.519   2.081  1.3935  1.4032  0.8383
  649MOL0     H85606   7.106   7.664   2.093 -0.0225  2.2784 -1.6953
  649MOL0     H85607   7.349   7.733   2.038 -1.1064 -0.2637 -0.8432
  649MOL0     H85608   7.257   7.749   1.893  1.0581  1.1062 -0.8843
  649MOL0     H85609   7.335   7.490   1.842  0.2015  1.0208 -0.0316
  649MOL0     H85610   7.450   7.514   1.962  2.1503  2.3779  1.8186
  649MOL0     H85611   7.421   7.707   1.727  0.1619  0.8684  2.0740
  649MOL0     H85612   7.558   7.704   1.843  0.1463  2.0860 -2.4252
  649MOL0     H85613   7.608   7.611   1.623 -0.4561 -0.3176  0.6511
  649MOL0     H85614   7.494   7.476   1.673  0.5834 -0.6492  1.8518
  649MOL0     H85615   7.651   7.436   1.880 -0.1642  0.4452 -0.5213
  649MOL0     H85616   7.726   7.581   1.840  1.2159  0.6188 -0.5991
  649MOL0     H85617   7.816   7.466   1.616 -1.7868  0.9671  0.1054
  649MOL0     H85618   7.881   7.408   1.768  0.7421  0.4365  0.3242
  649MOL0     H85619   7.824   7.225   1.618  3.1400  2.6860  0.7933
  649MOL0     H85620   7.653   7.281   1.634  1.5922 -1.3796 -2.3953
  649MOL0     H85621   7.911   7.223   1.925 -0.7919  0.9266 -0.7601
  649MOL0     H85622   7.916   7.026   2.110  0.7813  3.4113  0.7586
  649MOL0     H85623   7.756   6.965   2.166 -2.7400  1.4954 -1.0212
  649MOL0     H85624   7.868   7.248   2.203 -0.2418  0.1817 -0.9248
  649MOL0     H85625   7.827   7.131   2.333  1.4103  1.5074 -0.6354
  649MOL0     H85626   7.647   7.319   2.307 -1.6474 -0.7403  1.8052
  649MOL0     H85627   7.608   7.265   2.146 -0.1187  0.8363  1.2475
  649MOL0     H85628   7.590   7.069   2.362 -0.6195 -0.7069 -0.9846
  649MOL0     H85629   7.524   7.065   2.204  0.3576 -1.5642  0.0475
  649MOL0     H85630   7.223   7.230   2.448  0.7912 -1.4135  0.0130
  649MOL0     H85631   6.995   7.222   2.362 -0.2301  0.2409 -0.7167
  649MOL0     H85632   6.669   7.067   2.004 -1.1551 -2.3882 -0.7513
  649MOL0     H85633   6.449   7.021   2.008 -0.0036  3.2305 -0.4933
  649MOL0     H85634   6.129   6.952   2.375  0.3360  0.7853  0.6815
  649MOL0     H85635   6.284   6.929   2.444 -1.1795  2.4060  0.8473
  649MOL0     H85636   6.351   6.764   2.287 -0.1851 -0.6388  1.3353
  649MOL0     H85637   6.193   6.778   2.206  0.5118  2.8066 -0.3061
  649MOL0     H85638   6.157   6.592   2.349 -0.8284  2.4337 -3.1802
  649MOL0     H85639   6.091   6.714   2.446 -1.1559 -3.9806 -0.1638
  649MOL0     H85640   6.335   6.543   2.488  2.6669  1.0445  0.5288
  649MOL0     H85641   6.377   6.716   2.517  0.8978 -1.3600 -1.4843
  649MOL0     H85642   6.214   6.748   2.680 -1.4753 -0.9398  0.1554
  649MOL0     H85643   6.329   6.629   2.738  0.2096  0.6861  0.7002
  649MOL0     H85644   6.179   6.444   2.656  1.9968  1.7206 -2.7238
  649MOL0     H85645   6.059   6.568   2.601  0.3093  1.3861 -0.6888
  649MOL0     H85646   6.105   6.595   2.894 -1.6914 -2.0260  1.5749
  649MOL0     H85647   5.970   6.622   2.798 -0.7517 -0.3259 -2.9412
  649MOL0     H85648   5.945   6.423   2.951  1.8996  3.5513  2.2154
  649MOL0     H85649   6.068   6.334   2.856  1.1387  2.1634  2.3710
  649MOL0     H85650   6.433   7.069   2.440 -2.3194 -2.6867 -0.2317
  649MOL0     H85651   6.671   7.130   2.428  0.6130  0.9408 -1.3257
  649MOL0     H85652   7.171   7.120   1.980 -1.6784  0.6270  0.4993
  649MOL0     H85653   7.396   7.165   2.075  0.5203 -1.3468  0.9129
  649MOL0     H85654   6.981   7.459   2.152  0.9820 -0.3563 -0.4578
  649MOL0     H85655   6.741   7.441   2.188 -2.6143  0.0131 -0.7848
  649MOL0     H85656   6.385   7.324   2.119  0.0624  0.3541  0.6858
  649MOL0     H85657   6.182   7.223   2.140 -1.2069 -2.3852 -5.5583
  649MOL0     H85658   5.824   7.149   2.104  1.4346 -1.8822  0.4932
  649MOL0     H85659   6.000   7.139   2.142  1.2005 -1.6100 -1.1093
  649MOL0     H85660   5.849   7.113   1.881 -0.3090 -2.7426  0.8234
  649MOL0     H85661   6.025   7.128   1.897 -0.1179  0.5727  0.0468
  649MOL0     H85662   6.019   6.910   2.047  1.3464 -1.0838 -2.6396
  649MOL0     H85663   5.972   6.905   1.870 -1.9200 -0.4620 -1.0629
  649MOL0     H85664   5.805   6.920   2.109 -2.9128  1.2504 -1.1602
  649MOL0     H85665   5.738   6.882   1.947  0.8301  1.4591 -0.1315
  649MOL0     H85666   5.842   6.492   2.019 -2.1036 -1.5274  0.6888
  649MOL0     H85667   5.981   7.547   1.947 -0.4617  0.4673  2.9575
  649MOL0     H85668   6.184   7.647   1.884  0.2810  0.0930 -0.4003
  650MOL0     O85669   1.534   2.374   2.749  0.2200  0.8929  0.3737
  650MOL0     C85670   1.587   2.319   2.650  0.2682  0.6459 -0.2189
  650MOL0     O85671   1.661   2.198   2.660 -0.1849  0.4689 -0.4047
  650MOL0     C85672   1.711   2.161   2.788  0.9004  0.8141  0.0662
  650MOL0     C85673   1.848   2.157   2.822  0.9709 -0.5697  0.6756
  650MOL0     C85674   1.874   2.102   2.954  0.3285  1.0465  0.1407
  650MOL0     C85675   1.779   2.057   3.043  0.3804 -0.6527 -0.9457
  650MOL0     O85676   1.809   1.987   3.161 -0.0111 -0.0365  0.5189
  650MOL0     C85677   1.944   1.977   3.204 -0.3790 -0.2894  0.9360
  650MOL0     C85678   1.951   1.912   3.346 -0.1879 -0.8856  0.1168
  650MOL0     C85679   2.091   1.921   3.417  0.9086  0.7188 -0.6961
  650MOL0     C85680   2.073   1.832   3.545 -0.7300 -0.6925 -0.3907
  650MOL0     C85681   2.201   1.848   3.622  0.0505 -0.5799 -0.7755
  650MOL0     C85682   2.196   1.964   3.724  0.9572 -0.0759 -1.4337
  650MOL0     C85683   2.323   2.050   3.737  0.2340 -0.0324  0.4935
  650MOL0     C85684   2.426   1.968   3.808 -0.3307 -0.6152  0.0878
  650MOL0     N85685   2.556   2.026   3.833  0.2993  0.0700 -0.0207
  650MOL0     C85686   2.602   2.012   3.962  0.1295 -0.7099 -0.0010
  650MOL0     C85687   2.722   2.077   3.953 -0.1251  0.0446  0.2181
  650MOL0     C85688   2.825   2.073   4.059  0.8134 -0.6035  0.3277
  650MOL0     C85689   2.954   2.025   4.007 -0.0807  0.8453  0.5187
  650MOL0     C85690   3.070   2.042   4.109 -0.2468  0.1712 -0.6046
  650MOL0     C85691   3.036   1.995   4.253 -0.2953  0.6609 -0.1057
  650MOL0     O85692   3.154   2.006   4.334 -0.2556 -0.1453  0.0251
  650MOL0     C85693   3.273   1.935   4.320  1.0391  0.6179  0.6416
  650MOL0     C85694   3.273   1.822   4.227  1.3690  0.2886 -1.3308
  650MOL0     C85695   3.387   1.740   4.228  0.4305  1.1456 -0.0415
  650MOL0     C85696   3.506   1.768   4.300  0.2302 -0.8664 -0.3108
  650MOL0     C85697   3.624   1.686   4.294 -0.1016 -0.6957 -0.1704
  650MOL0     O85698   3.710   1.687   4.408  0.3583 -0.1816 -0.6394
  650MOL0     C85699   3.820   1.603   4.407  0.9121  0.3720 -0.1773
  650MOL0     C85700   3.944   1.671   4.403  0.2830 -0.3600 -0.3958
  650MOL0     C85701   4.065   1.597   4.419 -0.0972  0.1487  1.1747
  650MOL0     C85702   4.068   1.463   4.422  0.0083 -0.3741 -0.4612
  650MOL0     O85703   4.196   1.405   4.440  0.5192 -0.2244  0.4702
  650MOL0     C85704   4.212   1.262   4.413  0.2801 -0.9479  0.8136
  650MOL0     C85705   4.364   1.239   4.441  0.4152 -0.3867  0.0797
  650MOL0     C85706   4.398   1.089   4.410  0.1570 -0.3613 -0.2479
  650MOL0     C85707   4.528   1.039   4.484 -0.3687 -0.9509 -0.0740
  650MOL0     C85708   4.667   1.092   4.439 -0.4968  0.2513  0.2945
  650MOL0     C85709   4.772   0.984   4.468 -0.3756  0.2406 -0.3545
  650MOL0     C85710   4.907   1.018   4.407 -0.8369 -0.2910  0.0526
  650MOL0     C85711   5.012   0.927   4.468 -0.7057  1.2022  0.5641
  650MOL0    Cl85712   5.097   1.016   4.585 -0.2055  0.6195  0.1585
  650MOL0     C85713   3.948   1.393   4.409 -0.1059 -0.0755 -0.2288
  650MOL0     C85714   3.827   1.463   4.402 -0.3341 -0.1771 -0.4472
  650MOL0     O85715   3.638   1.604   4.200  0.4729 -1.3810  0.8666
  650MOL0     C85716   3.513   1.879   4.377 -0.8032  0.1673  0.1314
  650MOL0     C85717   3.394   1.962   4.386 -0.7547  0.2869 -0.2970
  650MOL0     N85718   2.751   2.121   3.827  0.3823 -0.8059  0.0211
  650MOL0     N85719   2.642   2.100   3.752 -0.3135  0.7727 -0.4142
  650MOL0     C85720   1.643   2.061   3.003 -0.9256 -0.2269 -0.4930
  650MOL0     C85721   1.616   2.113   2.878  0.8681 -0.0778 -0.1134
  650MOL0     C85722   1.578   2.377   2.512 -0.7433  0.5965  0.2200
  650MOL0     C85723   1.636   2.306   2.396  0.5423  0.4243 -0.0813
  650MOL0     C85724   1.635   2.359   2.265 -0.0929 -0.5648 -0.2216
  650MOL0     C85725   1.567   2.485   2.240  0.0730  1.1067 -0.7295
  650MOL0     O85726   1.564   2.523   2.111 -0.2463 -0.0321  0.5977
  650MOL0     C85727   1.493   2.639   2.075 -0.3805 -0.2900  0.5458
  650MOL0     C85728   1.475   2.668   1.933 -0.3031  0.8093 -0.3618
  650MOL0     C85729   1.564   2.754   1.866  0.8601 -0.1492  0.5506
  650MOL0     C85730   1.528   2.764   1.717  0.2913 -0.2503  0.3192
  650MOL0     C85731   1.544   2.639   1.642 -1.1342  0.8068 -0.4690
  650MOL0     C85732   1.567   2.530   1.592 -0.1429 -0.1982  0.7590
  650MOL0     C85733   1.503   2.543   2.346  0.2779 -0.8885  0.0081
  650MOL0     C85734   1.517   2.503   2.479  0.0199 -0.6740 -0.0674
  650MOL0     H85735   1.923   2.195   2.754 -0.4253 -2.5748 -2.2031
  650MOL0     H85736   1.978   2.091   2.985  0.6414 -0.5783 -1.3661
  650MOL0     H85737   1.986   2.078   3.204  0.5634 -0.6357  2.7137
  650MOL0     H85738   2.004   1.920   3.133 -0.9100 -1.0225  1.0707
  650MOL0     H85739   1.915   1.810   3.329 -1.2386 -0.6380  0.7169
  650MOL0     H85740   1.885   1.979   3.402  2.7861  3.1630 -0.8493
  650MOL0     H85741   2.107   2.024   3.449 -2.1124  0.7914  1.0356
  650MOL0     H85742   2.175   1.879   3.361  0.9075 -3.3986  1.9009
  650MOL0     H85743   1.982   1.865   3.597  0.0158 -0.6809  0.9357
  650MOL0     H85744   2.065   1.729   3.510 -0.2525 -0.3232 -1.6531
  650MOL0     H85745   2.292   1.854   3.561  1.1559 -0.2349  0.8620
  650MOL0     H85746   2.219   1.758   3.681 -0.3356  0.2304  0.6257
  650MOL0     H85747   2.146   1.932   3.816  0.4538  3.2820 -0.3861
  650MOL0     H85748   2.122   2.033   3.683  0.0421  0.8711  1.5202
  650MOL0     H85749   2.349   2.074   3.634  0.7915 -3.2753 -0.2340
  650MOL0     H85750   2.307   2.147   3.787 -1.6179  0.1238 -0.3229
  650MOL0     H85751   2.447   1.889   3.735  0.3119 -0.8048  0.4655
  650MOL0     H85752   2.390   1.918   3.899  1.8220 -0.9792  0.8222
  650MOL0     H85753   2.558   1.963   4.049 -1.4013  0.1006 -0.2856
  650MOL0     H85754   2.795   2.015   4.147 -1.2784  4.0392  3.0974
  650MOL0     H85755   2.854   2.175   4.086  1.4019 -0.7052  0.0797
  650MOL0     H85756   2.982   2.077   3.914  0.6280 -2.3617 -1.2040
  650MOL0     H85757   2.952   1.920   3.979  2.4042  1.6873 -3.6808
  650MOL0     H85758   3.162   1.995   4.074 -0.8883 -1.0449 -0.6998
  650MOL0     H85759   3.078   2.151   4.101 -2.2393  0.3538 -0.5920
  650MOL0     H85760   3.004   1.891   4.248 -0.2307  0.6774 -1.3224
  650MOL0     H85761   2.954   2.045   4.305  0.6365  1.7079  0.3951
  650MOL0     H85762   3.179   1.799   4.178  1.3410  1.7982 -2.0587
  650MOL0     H85763   3.381   1.650   4.167 -0.3301  2.5704 -2.1785
  650MOL0     H85764   3.937   1.779   4.402  0.9843 -0.3162 -1.5357
  650MOL0     H85765   4.159   1.651   4.420  0.7161 -0.9457 -2.3081
  650MOL0     H85766   4.177   1.240   4.312  2.0785  0.3991 -0.1475
  650MOL0     H85767   4.149   1.199   4.477  2.9982 -1.2036  3.4460
  650MOL0     H85768   4.398   1.271   4.540 -0.0692  2.6419 -0.6378
  650MOL0     H85769   4.417   1.301   4.368  0.7814 -0.8935 -0.0937
  650MOL0     H85770   4.401   1.081   4.301 -0.3959  0.9133 -0.3686
  650MOL0     H85771   4.304   1.046   4.447 -1.5969  2.8073 -0.6869
  650MOL0     H85772   4.517   1.078   4.586 -0.1150 -0.0298 -0.3863
  650MOL0     H85773   4.542   0.933   4.506  1.4128 -0.2144  3.0426
  650MOL0     H85774   4.687   1.184   4.494  1.0286 -0.4510  0.9996
  650MOL0     H85775   4.666   1.110   4.331 -0.9730  0.5231  0.3447
  650MOL0     H85776   4.732   0.887   4.436 -1.5081  1.3790 -2.6704
  650MOL0     H85777   4.787   0.965   4.574  2.8932  0.6435 -0.6420
  650MOL0     H85778   4.896   1.005   4.299 -2.0512 -1.6783  0.3119
  650MOL0     H85779   4.926   1.124   4.423  0.4874 -0.8305  2.5738
  650MOL0     H85780   5.084   0.884   4.398 -0.7550  1.8124  0.1338
  650MOL0     H85781   4.967   0.836   4.511  0.1304 -0.0697 -1.1327
  650MOL0     H85782   3.950   1.286   4.390 -3.9818  0.0562 -2.2682
  650MOL0     H85783   3.734   1.408   4.419 -1.3591  1.5183 -0.3594
  650MOL0     H85784   3.602   1.899   4.436  1.4997 -1.2167 -2.6194
  650MOL0     H85785   3.410   2.050   4.448 -2.0690  1.2441 -1.2562
  650MOL0     H85786   1.567   2.007   3.058 -1.0345 -0.9921 -1.3684
  650MOL0     H85787   1.512   2.108   2.846  0.5561 -1.6849  1.0164
  650MOL0     H85788   1.690   2.214   2.420  3.2011  2.1341  0.9358
  650MOL0     H85789   1.668   2.289   2.188  2.5078  0.3100 -0.0067
  650MOL0     H85790   1.516   2.733   2.126  0.5007 -1.0577  1.6012
  650MOL0     H85791   1.390   2.622   2.108 -1.3069 -1.0188 -2.4240
  650MOL0     H85792   1.471   2.567   1.890 -0.6486 -0.3563  2.2317
  650MOL0     H85793   1.373   2.703   1.914 -0.8016 -0.0365  0.6080
  650MOL0     H85794   1.668   2.721   1.880  0.6900 -0.3703  1.3393
  650MOL0     H85795   1.555   2.848   1.921  1.1015 -0.6612  1.4915
  650MOL0     H85796   1.425   2.799   1.701  0.1232 -0.7626  0.2290
  650MOL0     H85797   1.596   2.832   1.665 -2.2409  0.0934 -2.8616
  650MOL0     H85798   1.588   2.441   1.535  1.3356  0.9837 -0.6805
  650MOL0     H85799   1.464   2.641   2.320  0.6737 -1.0217 -1.1194
  650MOL0     H85800   1.489   2.565   2.564  1.5589 -1.0695  0.7580
  651MOL0     O85801   5.926   1.122   9.308 -1.0922  0.4447  0.2833
  651MOL0     C85802   5.850   1.052   9.233 -0.0553 -1.1404  0.6432
  651MOL0     O85803   5.717   1.082   9.211 -0.1962  0.5683  0.7637
  651MOL0     C85804   5.658   1.194   9.260 -0.1713 -0.4703 -0.9419
  651MOL0     C85805   5.543   1.246   9.198 -0.2249 -0.1564  0.6659
  651MOL0     C85806   5.477   1.352   9.244 -0.3644 -0.3204 -0.5531
  651MOL0     C85807   5.513   1.416   9.362 -0.5798 -0.5586  0.0759
  651MOL0     O85808   5.437   1.521   9.393 -0.5445 -0.0394 -0.8006
  651MOL0     C85809   5.393   1.534   9.534 -0.6653 -0.6111  1.2538
  651MOL0     C85810   5.460   1.651   9.585 -0.4302  0.0507  0.8944
  651MOL0     C85811   5.380   1.713   9.704 -0.6353 -0.7196  0.4093
  651MOL0     C85812   5.453   1.841   9.752  0.6723 -1.0921  0.0686
  651MOL0     C85813   5.405   1.890   9.887  0.1736 -0.1712 -0.4944
  651MOL0     C85814   5.493   2.009   9.930  0.1381 -1.0579  0.4231
  651MOL0     C85815   5.446   2.091  10.046  0.6843  0.2678 -1.2367
  651MOL0     C85816   5.513   2.229  10.060 -0.5791  0.2689  0.4109
  651MOL0     N85817   5.461   2.306  10.165  0.1951  0.5980  0.3755
  651MOL0     C85818   5.485   2.299  10.303 -0.1068  0.2028  1.1333
  651MOL0     C85819   5.419   2.391  10.360  0.5695 -0.8721 -0.8162
  651MOL0     C85820   5.406   2.426  10.510  0.2309 -0.2647  0.7678
  651MOL0     C85821   5.495   2.549  10.547 -0.9175 -0.3887 -1.2365
  651MOL0     C85822   5.488   2.581  10.694  0.3843  0.4333  0.3634
  651MOL0     C85823   5.356   2.644  10.753  0.0379 -0.1741  0.6518
  651MOL0     O85824   5.400   2.739  10.854  0.1523 -0.1882  0.0810
  651MOL0     C85825   5.321   2.768  10.963  0.8937  0.5677 -0.6547
  651MOL0     C85826   5.240   2.881  10.969 -0.4148 -0.0357 -0.2783
  651MOL0     C85827   5.157   2.903  11.084  0.1239  0.6295 -0.2737
  651MOL0     C85828   5.146   2.804  11.183 -0.7243  0.2640  0.1558
  651MOL0     C85829   5.077   2.816  11.310 -0.0114 -0.1914  1.3606
  651MOL0     O85830   4.978   2.914  11.315  0.0120 -0.5509  0.1508
  651MOL0     C85831   4.927   2.969  11.434  0.5316  0.5949 -0.6158
  651MOL0     C85832   4.999   2.998  11.547  0.9765  0.3493 -0.2937
  651MOL0     C85833   4.942   3.059  11.651 -0.1667  0.3092 -0.8926
  651MOL0     C85834   4.808   3.097  11.652  0.7434  0.5498 -0.3552
  651MOL0     O85835   4.751   3.188  11.743 -0.2308 -0.1162  0.2743
  651MOL0     C85836   4.804   3.204  11.876 -1.1431  0.1134 -0.0296
  651MOL0     C85837   4.701   3.284  11.946  0.2825  0.5413  0.4941
  651MOL0     C85838   4.590   3.195  11.996 -0.3092 -0.0030  0.6229
  651MOL0     C85839   4.486   3.281  12.068  0.8235 -0.5847  0.7929
  651MOL0     C85840   4.388   3.207  12.158 -0.5807 -0.1308 -0.0075
  651MOL0     C85841   4.285   3.316  12.207 -0.2405  0.2545 -0.7181
  651MOL0     C85842   4.159   3.250  12.255  1.1797  0.8492  0.5014
  651MOL0     C85843   4.169   3.130  12.350  0.1951  0.7874 -0.4440
  651MOL0    Cl85844   4.280   3.169  12.483  0.1216  0.1216  0.3054
  651MOL0     C85845   4.728   3.066  11.542 -0.6295 -0.4991  0.0905
  651MOL0     C85846   4.789   3.014  11.425 -0.9545  0.1637  0.1083
  651MOL0     O85847   5.113   2.751  11.402  0.3161  1.0293  0.1596
  651MOL0     C85848   5.230   2.694  11.175  0.3459 -1.2450 -0.3241
  651MOL0     C85849   5.310   2.680  11.070 -0.7083 -0.2300  0.1745
  651MOL0     N85850   5.341   2.453  10.260 -0.4957  0.2852 -0.9049
  651MOL0     N85851   5.356   2.392  10.148  0.3430 -0.3299  0.1690
  651MOL0     C85852   5.629   1.368   9.430  0.6148 -0.1565  0.0073
  651MOL0     C85853   5.696   1.254   9.386 -0.3009 -1.1328  0.4694
  651MOL0     C85854   5.914   0.930   9.187  0.5834  0.1886 -1.3135
  651MOL0     C85855   5.835   0.829   9.132 -0.2204 -0.1899  0.1535
  651MOL0     C85856   5.903   0.716   9.073  0.0212  0.2678  0.6132
  651MOL0     C85857   6.038   0.697   9.070 -0.2507  0.6032 -0.5345
  651MOL0     O85858   6.109   0.588   9.016 -0.0672  0.6595  0.8283
  651MOL0     C85859   6.055   0.535   8.897 -0.0196  0.3461  0.6013
  651MOL0     C85860   6.149   0.559   8.781  0.0126 -0.3782 -0.7549
  651MOL0     C85861   6.108   0.456   8.674 -0.0155  0.0623  0.7966
  651MOL0     C85862   6.183   0.483   8.545 -0.8632 -0.3324  0.5643
  651MOL0     C85863   6.127   0.613   8.491 -0.5446  0.7187  0.2076
  651MOL0     C85864   6.092   0.723   8.475 -0.3911  0.0534  0.7418
  651MOL0     C85865   6.111   0.800   9.145 -0.2741 -0.1580 -0.2279
  651MOL0     C85866   6.057   0.920   9.195  0.2459  0.3739  0.1707
  651MOL0     H85867   5.509   1.200   9.106  1.9724 -1.4508  0.4272
  651MOL0     H85868   5.400   1.394   9.180 -1.5951 -0.1817  0.9632
  651MOL0     H85869   5.417   1.441   9.586  0.3930 -0.0744  1.7547
  651MOL0     H85870   5.286   1.560   9.532 -0.7492 -0.9134 -0.7988
  651MOL0     H85871   5.458   1.726   9.505 -3.3506  0.5874  1.3468
  651MOL0     H85872   5.565   1.630   9.606  0.8864  1.4377 -3.3050
  651MOL0     H85873   5.376   1.631   9.777 -1.6003 -1.1872 -0.1557
  651MOL0     H85874   5.283   1.750   9.669  0.6085  2.4068 -0.0404
  651MOL0     H85875   5.561   1.826   9.748  0.8561  0.3073 -2.6019
  651MOL0     H85876   5.439   1.920   9.678  1.1367  0.4536  1.5529
  651MOL0     H85877   5.423   1.808   9.958 -0.8438  0.4545  0.5224
  651MOL0     H85878   5.298   1.910   9.899 -0.3244 -2.8034  0.2480
  651MOL0     H85879   5.501   2.078   9.846 -0.5636  2.5146  3.0273
  651MOL0     H85880   5.596   1.975   9.942  1.7643  2.3975 -2.2567
  651MOL0     H85881   5.341   2.117  10.030  1.1916  3.3566 -0.0844
  651MOL0     H85882   5.444   2.025  10.133 -0.7381 -1.5914 -2.5718
  651MOL0     H85883   5.485   2.294   9.977 -0.5738  2.4209  2.0262
  651MOL0     H85884   5.622   2.220  10.065 -0.3860 -1.4880 -3.5405
  651MOL0     H85885   5.560   2.233  10.345  0.3759 -0.5637 -0.7998
  651MOL0     H85886   5.445   2.338  10.562  0.1821 -0.2533  0.8242
  651MOL0     H85887   5.302   2.450  10.532  0.1568  0.4277 -0.2577
  651MOL0     H85888   5.457   2.630  10.485 -1.1847 -1.2821 -2.2864
  651MOL0     H85889   5.600   2.537  10.519 -0.6918 -0.3605 -0.4426
  651MOL0     H85890   5.509   2.487  10.746 -0.4982  0.5612  0.9822
  651MOL0     H85891   5.570   2.649  10.718  0.4419 -0.4825  3.1993
  651MOL0     H85892   5.287   2.564  10.782 -3.4313  1.8635 -1.2914
  651MOL0     H85893   5.303   2.705  10.680 -1.7212 -2.0465  0.2754
  651MOL0     H85894   5.233   2.955  10.890 -1.4924 -1.6145 -1.7311
  651MOL0     H85895   5.098   2.986  11.120 -3.8687 -2.3651  0.7865
  651MOL0     H85896   5.099   2.958  11.539  0.3500 -1.3356 -0.0052
  651MOL0     H85897   4.998   3.082  11.742  0.5925  4.4522 -2.1683
  651MOL0     H85898   4.895   3.261  11.855 -0.0361 -2.2554 -2.2245
  651MOL0     H85899   4.840   3.111  11.921 -0.4855  0.0087 -0.7425
  651MOL0     H85900   4.658   3.362  11.883 -0.3515  2.6981  3.3883
  651MOL0     H85901   4.747   3.318  12.040  0.3963 -1.0236  1.0359
  651MOL0     H85902   4.632   3.125  12.069  1.5921 -2.6710 -2.7175
  651MOL0     H85903   4.542   3.136  11.917 -1.4082 -0.6986  1.7798
  651MOL0     H85904   4.539   3.354  12.130  3.6291 -0.7741 -1.1861
  651MOL0     H85905   4.428   3.337  11.994  0.1772  0.7564  2.2384
  651MOL0     H85906   4.453   3.167  12.236  1.5010  2.2985 -0.3467
  651MOL0     H85907   4.334   3.136  12.095 -1.4897  0.9247 -0.4457
  651MOL0     H85908   4.260   3.387  12.127 -1.5729 -1.0041 -1.4582
  651MOL0     H85909   4.328   3.365  12.294 -4.1327 -0.0645  1.6125
  651MOL0     H85910   4.098   3.333  12.290  1.4488 -0.0251  3.2654
  651MOL0     H85911   4.113   3.217  12.161 -1.1962  1.3737  1.4272
  651MOL0     H85912   4.216   3.041  12.309 -1.0285 -0.7321  1.2961
  651MOL0     H85913   4.076   3.091  12.393  1.0557 -2.4432 -1.2949
  651MOL0     H85914   4.623   3.090  11.531 -0.5747  1.1298  2.4165
  651MOL0     H85915   4.745   3.018  11.326  1.7174 -1.1100 -1.2397
  651MOL0     H85916   5.229   2.612  11.245 -1.6255 -0.4499  0.6574
  651MOL0     H85917   5.379   2.596  11.079  1.9110  1.7583 -0.0313
  651MOL0     H85918   5.665   1.409   9.524  0.9920 -1.3720  0.4048
  651MOL0     H85919   5.780   1.232   9.451  0.7285 -2.8483 -1.3435
  651MOL0     H85920   5.727   0.831   9.135 -0.3055  3.6396 -1.1032
  651MOL0     H85921   5.837   0.634   9.048  2.0859 -0.8182 -1.7171
  651MOL0     H85922   5.958   0.568   8.859 -0.1255  1.1207  1.5368
  651MOL0     H85923   6.042   0.427   8.911 -1.8963  0.4772  0.1078
  651MOL0     H85924   6.157   0.661   8.742  1.6249  0.4848  1.6057
  651MOL0     H85925   6.249   0.537   8.818 -0.6744 -1.9710  0.2763
  651MOL0     H85926   6.001   0.471   8.660  0.2312  1.4555  0.1560
  651MOL0     H85927   6.130   0.357   8.715  2.2770  0.4744  0.7260
  651MOL0     H85928   6.291   0.498   8.554 -0.1631 -3.3185 -1.1728
  651MOL0     H85929   6.154   0.404   8.475 -0.7686  1.8879 -2.1472
  651MOL0     H85930   6.051   0.821   8.460 -2.1702 -0.8637 -0.7724
  651MOL0     H85931   6.219   0.799   9.151 -0.0770 -1.0493 -2.8026
  651MOL0     H85932   6.127   0.990   9.241  0.1170 -1.2985  3.1521
  652MOL0     O85933   4.801   9.103  10.501 -0.7430  0.7464  0.3000
  652MOL0     C85934   4.717   9.066  10.413  0.0153  0.4356 -0.2484
  652MOL0     O85935   4.739   8.970  10.318  0.2150 -0.5127 -0.1436
  652MOL0     C85936   4.852   8.895  10.324 -0.2241  0.2387  0.5656
  652MOL0     C85937   4.897   8.814  10.427 -0.5426 -0.1745 -0.7878
  652MOL0     C85938   5.014   8.733  10.411  0.5799 -0.5474 -0.9036
  652MOL0     C85939   5.065   8.712  10.289 -0.7113  0.0523 -0.3717
  652MOL0     O85940   5.176   8.631  10.289  0.0917 -0.2640  0.4422
  652MOL0     C85941   5.240   8.576  10.171 -0.0494  0.9312 -0.0107
  652MOL0     C85942   5.322   8.458  10.231 -0.1755  0.7591  0.5860
  652MOL0     C85943   5.408   8.394  10.119  0.7940 -0.0803  0.0075
  652MOL0     C85944   5.317   8.332  10.007  0.1616  0.7117 -0.2946
  652MOL0     C85945   5.400   8.289   9.882 -1.2466 -1.5049  0.2648
  652MOL0     C85946   5.299   8.213   9.783  0.1916 -0.0210 -0.1751
  652MOL0     C85947   5.368   8.187   9.649 -0.2021 -1.1211  0.5886
  652MOL0     C85948   5.296   8.107   9.547 -0.2295 -0.0402  0.9344
  652MOL0     N85949   5.331   8.142   9.405 -0.0505  0.2883  0.1173
  652MOL0     C85950   5.446   8.091   9.364  0.6654  0.2732  0.9912
  652MOL0     C85951   5.433   8.101   9.224  0.2136 -0.0511  0.5865
  652MOL0     C85952   5.536   8.052   9.119 -0.6013  0.2183  0.6408
  652MOL0     C85953   5.558   7.903   9.123 -0.2953  0.3097 -0.5372
  652MOL0     C85954   5.698   7.881   9.069 -0.3074  0.6959 -0.4767
  652MOL0     C85955   5.735   7.742   9.027 -0.0089  0.1421  0.1043
  652MOL0     O85956   5.665   7.692   8.908  0.4428  0.4343  0.5610
  652MOL0     C85957   5.690   7.763   8.787 -0.0147 -0.5119 -0.9187
  652MOL0     C85958   5.601   7.742   8.680 -0.7819 -0.0024 -0.1123
  652MOL0     C85959   5.627   7.790   8.553  0.2124  0.5690  0.6180
  652MOL0     C85960   5.746   7.862   8.518  1.1817  0.3845  0.0347
  652MOL0     C85961   5.771   7.898   8.382 -0.6363 -0.1507  0.4892
  652MOL0     O85962   5.704   7.824   8.283 -0.5800  0.6421 -0.2471
  652MOL0     C85963   5.734   7.846   8.157 -0.6558  0.1334  0.1687
  652MOL0     C85964   5.859   7.801   8.109  0.5529 -0.1496 -0.7502
  652MOL0     C85965   5.888   7.837   7.980  0.3776  0.7024  0.3957
  652MOL0     C85966   5.798   7.904   7.899  1.0761 -0.2444 -0.5363
  652MOL0     O85967   5.817   7.936   7.767  0.2230  0.0503 -0.1964
  652MOL0     C85968   5.945   7.959   7.716 -0.6555 -0.5825 -0.1815
  652MOL0     C85969   5.934   7.972   7.565 -0.2880  0.5422  1.2526
  652MOL0     C85970   5.865   8.101   7.514  1.2129  0.6246 -0.1157
  652MOL0     C85971   5.914   8.143   7.377 -0.1432 -0.1363  0.3426
  652MOL0     C85972   5.831   8.053   7.275 -0.4670  0.1092  0.6847
  652MOL0     C85973   5.848   8.090   7.133 -0.4849  0.0890 -0.8513
  652MOL0     C85974   5.781   7.993   7.043 -0.0912  1.1558  0.3731
  652MOL0     C85975   5.824   8.015   6.898  0.8174 -0.2209  0.5881
  652MOL0    Cl85976   5.770   8.166   6.832 -0.0695  0.2434 -0.4693
  652MOL0     C85977   5.665   7.932   7.946 -0.0225 -0.2920 -0.1987
  652MOL0     C85978   5.636   7.908   8.076 -0.9071 -0.2488  0.1761
  652MOL0     O85979   5.842   7.997   8.360  0.1602  1.1690 -0.4220
  652MOL0     C85980   5.829   7.893   8.631  0.2538 -0.2728  0.3874
  652MOL0     C85981   5.798   7.851   8.763 -0.6935 -0.3064  0.3300
  652MOL0     N85982   5.320   8.158   9.186 -0.3079  0.5322 -0.8303
  652MOL0     N85983   5.255   8.187   9.298  0.2245 -0.8301 -1.1668
  652MOL0     C85984   5.015   8.780  10.177  1.3972 -0.3175 -0.6405
  652MOL0     C85985   4.913   8.881  10.203 -0.4164 -0.4861  0.7347
  652MOL0     C85986   4.592   9.142  10.398  0.7553  0.6791  0.1192
  652MOL0     C85987   4.556   9.253  10.475  0.2444  1.1135  0.0941
  652MOL0     C85988   4.436   9.329  10.439 -0.2172 -0.2984  0.5103
  652MOL0     C85989   4.356   9.286  10.330  0.2572 -1.0755  0.3257
  652MOL0     O85990   4.244   9.353  10.286  0.5280  1.2159  0.1003
  652MOL0     C85991   4.201   9.467  10.353  0.2113 -0.8863  0.5618
  652MOL0     C85992   4.296   9.580  10.318  0.1114 -0.7637  1.6903
  652MOL0     C85993   4.228   9.716  10.304  0.1709 -0.6108  0.5986
  652MOL0     C85994   4.323   9.839  10.254 -0.4319 -0.4809  0.2316
  652MOL0     C85995   4.240   9.956  10.223  0.4834  1.2778  0.3938
  652MOL0     C85996   4.165  10.055  10.237  0.4117  0.0132 -0.3167
  652MOL0     C85997   4.382   9.165  10.267 -0.0492 -0.4460  0.2541
  652MOL0     C85998   4.503   9.102  10.298 -0.2621  0.8672 -0.3070
  652MOL0     H85999   4.849   8.822  10.524 -0.6414 -2.6098 -0.5735
  652MOL0     H86000   5.041   8.672  10.497 -0.4270  3.1187  2.3412
  652MOL0     H86001   5.302   8.654  10.125 -3.2446  2.0679 -2.8415
  652MOL0     H86002   5.167   8.555  10.092 -0.3073  3.4106 -0.5397
  652MOL0     H86003   5.248   8.386  10.266  0.6263 -0.2077  0.3536
  652MOL0     H86004   5.392   8.479  10.313 -0.3382 -0.4399  1.0502
  652MOL0     H86005   5.490   8.328  10.152  0.6802  0.7666  2.1378
  652MOL0     H86006   5.461   8.485  10.091  0.2194 -0.5463 -2.8761
  652MOL0     H86007   5.275   8.236  10.039  0.4684  0.9668  0.9189
  652MOL0     H86008   5.231   8.393   9.979 -0.9839 -0.2825  0.9380
  652MOL0     H86009   5.477   8.214   9.901 -1.1645 -1.9460 -1.6061
  652MOL0     H86010   5.442   8.381   9.842 -1.2193 -0.1939  3.0636
  652MOL0     H86011   5.205   8.263   9.757  0.7934 -0.3282 -3.2142
  652MOL0     H86012   5.271   8.121   9.836  2.5812  0.9042  2.9867
  652MOL0     H86013   5.361   8.290   9.612  1.5531 -0.7435  1.2001
  652MOL0     H86014   5.473   8.158   9.663 -0.4987 -1.9330  1.1823
  652MOL0     H86015   5.189   8.128   9.557 -0.3606  0.2613 -0.7436
  652MOL0     H86016   5.333   8.006   9.565  3.3235  0.8005 -0.7890
  652MOL0     H86017   5.533   8.053   9.416  0.6882 -0.6252  0.3114
  652MOL0     H86018   5.633   8.101   9.123 -0.1163 -0.6514 -0.1542
  652MOL0     H86019   5.498   8.078   9.020 -0.3786 -1.0813  0.1896
  652MOL0     H86020   5.489   7.845   9.061  0.7332  1.6141 -3.0452
  652MOL0     H86021   5.555   7.862   9.224  1.4517 -2.0111 -1.3497
  652MOL0     H86022   5.699   7.950   8.985 -0.6923 -1.2036 -2.1178
  652MOL0     H86023   5.769   7.918   9.143  0.5507 -1.7398  0.0309
  652MOL0     H86024   5.721   7.675   9.113 -0.4287 -0.2254 -0.2420
  652MOL0     H86025   5.842   7.744   9.005 -0.1022 -1.7034 -0.6980
  652MOL0     H86026   5.517   7.674   8.695  0.6701 -1.6388  1.0432
  652MOL0     H86027   5.549   7.762   8.482  1.4985 -1.8790  0.0626
  652MOL0     H86028   5.938   7.765   8.174 -0.2539  1.6030  1.3240
  652MOL0     H86029   5.991   7.828   7.947  0.2501 -2.3823  0.5770
  652MOL0     H86030   6.018   7.880   7.737  0.7571  0.9269  0.8196
  652MOL0     H86031   5.984   8.050   7.763  1.3699 -2.6463  2.4914
  652MOL0     H86032   5.893   7.883   7.517  0.7424  1.0648 -0.6728
  652MOL0     H86033   6.039   7.981   7.537  0.0343  2.3202  2.8100
  652MOL0     H86034   5.878   8.189   7.578 -1.2720  0.5937  0.5516
  652MOL0     H86035   5.757   8.085   7.522  1.3932  0.3745  4.2836
  652MOL0     H86036   5.880   8.240   7.341 -0.1586 -0.2524  0.0418
  652MOL0     H86037   6.022   8.125   7.370  0.3826  3.1061 -3.0451
  652MOL0     H86038   5.724   8.053   7.299 -0.0628 -0.5130  2.6572
  652MOL0     H86039   5.859   7.948   7.283 -1.0299  0.0705  2.5183
  652MOL0     H86040   5.957   8.094   7.124 -0.2655 -1.0179  0.9786
  652MOL0     H86041   5.809   8.189   7.105 -0.5791  0.4848  0.5901
  652MOL0     H86042   5.813   7.892   7.068  1.3306  1.3839 -0.4314
  652MOL0     H86043   5.672   8.006   7.052 -0.1875  0.7392 -0.1179
  652MOL0     H86044   5.769   7.949   6.832 -0.6506  0.3125  1.2367
  652MOL0     H86045   5.932   8.000   6.890  0.5912 -1.4332 -0.4201
  652MOL0     H86046   5.594   7.984   7.883 -1.2634 -2.1373 -0.4178
  652MOL0     H86047   5.541   7.940   8.118 -1.6701 -2.1255 -0.0183
  652MOL0     H86048   5.918   7.948   8.600  1.4373 -1.4285  1.6160
  652MOL0     H86049   5.863   7.887   8.842  0.2517  0.7893 -0.9179
  652MOL0     H86050   5.039   8.750  10.076 -4.3096 -1.3004 -2.0862
  652MOL0     H86051   4.885   8.926  10.108 -0.6757 -3.2461 -0.5884
  652MOL0     H86052   4.619   9.278  10.560 -0.5488  2.3722  0.3365
  652MOL0     H86053   4.426   9.418  10.499 -0.0873 -2.0969  3.3976
  652MOL0     H86054   4.192   9.458  10.462  0.5362 -2.0341  0.5115
  652MOL0     H86055   4.101   9.486  10.312  1.3973  2.8661 -0.9774
  652MOL0     H86056   4.379   9.576  10.389  0.7555 -3.3850  0.9130
  652MOL0     H86057   4.343   9.574  10.219  0.9242  2.7637  1.7330
  652MOL0     H86058   4.198   9.743  10.406  3.3255 -1.5347  1.8849
  652MOL0     H86059   4.141   9.705  10.239 -0.8153 -0.2276  1.8053
  652MOL0     H86060   4.389   9.874  10.334  0.9802  1.4109 -1.6200
  652MOL0     H86061   4.379   9.805  10.166  0.2367  1.0752  0.0239
  652MOL0     H86062   4.087  10.128  10.245  0.7826  0.2927  1.1085
  652MOL0     H86063   4.311   9.118  10.200  1.2478 -0.9633 -0.7899
  652MOL0     H86064   4.515   9.004  10.252 -3.8474 -0.2866  0.7944
  653MOL0     O86065   5.532   5.295   7.653  0.1560 -0.2536 -0.4851
  653MOL0     C86066   5.414   5.335   7.657 -0.3665  0.0277 -0.0926
  653MOL0     O86067   5.370   5.462   7.639 -0.1429 -0.1813  0.1114
  653MOL0     C86068   5.463   5.560   7.600  0.7185 -0.4722 -0.8000
  653MOL0     C86069   5.582   5.601   7.675  0.7772  0.1738  0.5167
  653MOL0     C86070   5.673   5.682   7.618 -0.2514  0.5649  0.6310
  653MOL0     C86071   5.648   5.751   7.498  0.8201 -0.4497 -0.4150
  653MOL0     O86072   5.741   5.844   7.462 -0.0970  0.4520  0.1641
  653MOL0     C86073   5.700   5.935   7.353  0.3683  1.0267  0.7541
  653MOL0     C86074   5.711   5.869   7.208  0.8981 -0.3372  0.1103
  653MOL0     C86075   5.729   5.979   7.095  0.7242 -0.6102 -1.1314
  653MOL0     C86076   5.740   5.918   6.953  0.1327  0.1342 -0.4471
  653MOL0     C86077   5.768   6.039   6.850  0.3986 -0.0078 -0.6217
  653MOL0     C86078   5.785   5.994   6.710  0.0016 -0.2734  0.1278
  653MOL0     C86079   5.781   6.116   6.613  0.4993 -0.1060 -0.2390
  653MOL0     C86080   5.818   6.097   6.474  0.7433 -0.9502 -0.1728
  653MOL0     N86081   5.711   6.044   6.392 -0.2895 -0.6691 -0.2529
  653MOL0     C86082   5.602   6.119   6.350  0.4859 -0.5898 -0.0734
  653MOL0     C86083   5.530   6.031   6.273 -0.0332  0.3339 -0.2246
  653MOL0     C86084   5.397   6.046   6.213  1.0700  0.4998  0.7730
  653MOL0     C86085   5.379   6.005   6.070  0.0645  0.3979 -0.9508
  653MOL0     C86086   5.441   6.093   5.976 -0.9570  0.3654  0.7230
  653MOL0     C86087   5.394   6.073   5.832 -0.3087 -1.5513 -0.6667
  653MOL0     O86088   5.446   6.189   5.762  0.4089  1.5460  0.2972
  653MOL0     C86089   5.467   6.187   5.625  0.0753  0.7682 -0.0777
  653MOL0     C86090   5.475   6.074   5.538 -0.0351 -0.3566  0.3619
  653MOL0     C86091   5.505   6.085   5.403  0.3874  0.5812  0.8408
  653MOL0     C86092   5.538   6.210   5.348  0.3239  0.5063 -0.6830
  653MOL0     C86093   5.573   6.226   5.206 -0.9617  0.4137 -0.2423
  653MOL0     O86094   5.632   6.345   5.173  0.1091  0.0287 -0.1642
  653MOL0     C86095   5.707   6.350   5.062  0.2778  1.0506  0.0679
  653MOL0     C86096   5.814   6.259   5.032  0.8759 -0.1444 -0.8211
  653MOL0     C86097   5.880   6.267   4.910 -1.1402 -0.3235  0.2037
  653MOL0     C86098   5.861   6.373   4.819 -0.5755 -0.4722 -1.0462
  653MOL0     O86099   5.953   6.380   4.714  0.2192 -1.5234  0.4814
  653MOL0     C86100   5.950   6.499   4.631 -0.2921  0.7179 -0.5815
  653MOL0     C86101   6.063   6.460   4.533 -0.0426 -0.8605  0.3450
  653MOL0     C86102   6.107   6.576   4.438 -1.1303 -0.2193  0.8517
  653MOL0     C86103   6.234   6.547   4.347  0.5993  0.9204  0.0338
  653MOL0     C86104   6.240   6.637   4.223  0.3933 -0.7176 -0.4215
  653MOL0     C86105   6.331   6.577   4.117 -1.0971 -0.6847 -1.3682
  653MOL0     C86106   6.356   6.684   4.010 -0.0164 -0.4647 -0.1178
  653MOL0     C86107   6.415   6.616   3.889 -0.3948  0.0177 -0.4805
  653MOL0    Cl86108   6.594   6.592   3.915 -0.2078  0.5151 -0.1993
  653MOL0     C86109   5.762   6.467   4.854 -0.5364  0.6043  0.1368
  653MOL0     C86110   5.680   6.447   4.973  0.4778  0.4827 -0.2068
  653MOL0     O86111   5.565   6.127   5.134 -0.0814 -0.2960  0.5942
  653MOL0     C86112   5.527   6.324   5.434 -0.5460 -1.0914  0.5629
  653MOL0     C86113   5.479   6.318   5.563  0.1155  0.3062  0.6324
  653MOL0     N86114   5.604   5.915   6.266  0.1959 -0.6329 -0.2835
  653MOL0     N86115   5.714   5.918   6.330  0.1695 -1.8492 -0.6573
  653MOL0     C86116   5.528   5.727   7.434  0.0659  1.0642  0.8254
  653MOL0     C86117   5.448   5.622   7.481 -0.6062  0.2677  1.1540
  653MOL0     C86118   5.302   5.228   7.668  0.8053  0.6063 -0.5146
  653MOL0     C86119   5.171   5.257   7.635  0.4100  0.1805  0.0249
  653MOL0     C86120   5.073   5.161   7.661  0.4414 -0.8053  0.5664
  653MOL0     C86121   5.099   5.036   7.707 -0.1153  0.9317 -0.8709
  653MOL0     O86122   4.991   4.954   7.738 -0.3471  0.0152  0.3759
  653MOL0     C86123   4.983   4.813   7.705  0.1669  0.5501 -0.0487
  653MOL0     C86124   4.829   4.777   7.694 -0.5813  0.1825 -0.0682
  653MOL0     C86125   4.754   4.809   7.560 -0.1497 -0.5134 -0.5715
  653MOL0     C86126   4.683   4.695   7.479 -0.0847 -0.2568 -0.2893
  653MOL0     C86127   4.780   4.593   7.432 -0.1264  0.6068 -0.2874
  653MOL0     C86128   4.858   4.505   7.413  0.2239  0.9512 -0.4136
  653MOL0     C86129   5.233   5.003   7.746 -0.1969 -0.3225  0.0629
  653MOL0     C86130   5.329   5.098   7.724  0.1047 -0.1264  0.4764
  653MOL0     H86131   5.608   5.556   7.770  0.5765  0.4569  0.7048
  653MOL0     H86132   5.769   5.692   7.668  1.5520 -2.3330 -1.8773
  653MOL0     H86133   5.773   6.016   7.343  0.6152  0.8864  1.3603
  653MOL0     H86134   5.600   5.971   7.375  0.7292  0.9382  2.7243
  653MOL0     H86135   5.625   5.809   7.177  1.4273 -0.7826 -0.5208
  653MOL0     H86136   5.795   5.799   7.209  0.5045 -0.8603 -1.2743
  653MOL0     H86137   5.820   6.036   7.117 -0.2228  0.9700 -1.1881
  653MOL0     H86138   5.643   6.047   7.096  1.2743  0.1028 -0.6021
  653MOL0     H86139   5.823   5.847   6.962  0.9256  1.2423  1.7688
  653MOL0     H86140   5.648   5.876   6.912  0.0059  0.8399 -0.9045
  653MOL0     H86141   5.852   6.102   6.880  0.7478 -0.8933  0.3051
  653MOL0     H86142   5.679   6.102   6.848 -1.2727 -2.2160 -2.5371
  653MOL0     H86143   5.708   5.921   6.685 -0.0196  0.0717 -0.8561
  653MOL0     H86144   5.877   5.935   6.708  0.5095  0.2561  2.9610
  653MOL0     H86145   5.685   6.168   6.622 -0.4571 -1.9806  0.9645
  653MOL0     H86146   5.857   6.190   6.642  1.0933  0.2243 -2.4863
  653MOL0     H86147   5.909   6.042   6.449  1.5471  0.4113 -0.3717
  653MOL0     H86148   5.843   6.198   6.442  2.8138 -1.1699  0.6049
  653MOL0     H86149   5.573   6.217   6.388 -2.0099 -1.2053 -0.2371
  653MOL0     H86150   5.358   6.148   6.222  0.5960  0.5113 -1.1211
  653MOL0     H86151   5.332   5.978   6.269  2.4711 -1.6191 -0.0490
  653MOL0     H86152   5.271   6.017   6.056 -0.2431 -0.9970 -0.0039
  653MOL0     H86153   5.424   5.908   6.050 -1.9713 -1.1838  1.4595
  653MOL0     H86154   5.423   6.198   6.002 -2.1298  0.3289  0.0857
  653MOL0     H86155   5.551   6.089   5.979 -0.3569  5.1850 -2.4210
  653MOL0     H86156   5.285   6.076   5.828 -0.2959  2.4575 -3.0178
  653MOL0     H86157   5.436   5.978   5.799  0.0537 -2.0993  1.2544
  653MOL0     H86158   5.478   5.973   5.578  0.7486 -1.0462 -1.3366
  653MOL0     H86159   5.517   5.989   5.353  2.7809  0.2008  2.0459
  653MOL0     H86160   5.824   6.174   5.097 -1.1828 -0.3514 -0.7116
  653MOL0     H86161   5.970   6.210   4.892  0.1586  0.9364  2.2953
  653MOL0     H86162   5.980   6.585   4.691 -2.4245  2.4204 -1.8149
  653MOL0     H86163   5.850   6.524   4.594  0.7080  1.9694 -2.6042
  653MOL0     H86164   6.033   6.371   4.476 -4.0599 -1.5392  3.0690
  653MOL0     H86165   6.152   6.427   4.589 -1.2378  2.0215  4.3348
  653MOL0     H86166   6.123   6.667   4.497  0.5838  1.1286 -1.5423
  653MOL0     H86167   6.026   6.602   4.369  1.4722  2.0018 -1.6050
  653MOL0     H86168   6.329   6.549   4.402  0.4230  0.9052  0.3364
  653MOL0     H86169   6.225   6.441   4.319  0.4181  1.3069 -1.4692
  653MOL0     H86170   6.272   6.738   4.251 -0.3746  0.0288 -2.1004
  653MOL0     H86171   6.137   6.644   4.190  0.0162 -2.4939  0.3054
  653MOL0     H86172   6.301   6.475   4.089 -0.9737 -0.9587 -0.5356
  653MOL0     H86173   6.431   6.562   4.158 -1.1386  3.0468  0.4860
  653MOL0     H86174   6.269   6.740   3.977 -0.1230 -0.4180  0.2423
  653MOL0     H86175   6.430   6.760   4.036 -1.6069  2.7372 -3.8619
  653MOL0     H86176   6.406   6.692   3.811  0.0082  1.1765  0.5571
  653MOL0     H86177   6.376   6.519   3.859  2.5710 -1.9417  1.4760
  653MOL0     H86178   5.755   6.561   4.801 -0.9221  0.3931 -0.1935
  653MOL0     H86179   5.611   6.530   4.987 -0.0329 -0.0057  0.2142
  653MOL0     H86180   5.545   6.422   5.392 -1.4733 -1.6985 -1.3783
  653MOL0     H86181   5.484   6.398   5.636 -4.0323  1.2314  0.1318
  653MOL0     H86182   5.490   5.756   7.337 -1.7121  0.3178  1.2765
  653MOL0     H86183   5.366   5.591   7.418  1.3151 -0.3790 -1.1772
  653MOL0     H86184   5.127   5.347   7.593 -0.7919 -1.0382 -1.4246
  653MOL0     H86185   4.972   5.184   7.629  1.2968  1.4843 -0.7660
  653MOL0     H86186   5.040   4.757   7.780  2.9959  0.7043 -1.9333
  653MOL0     H86187   5.017   4.775   7.608 -2.2211  1.7260 -1.4580
  653MOL0     H86188   4.814   4.670   7.711 -2.2603  0.3152 -0.5201
  653MOL0     H86189   4.766   4.826   7.769 -1.2220  0.9642 -1.0858
  653MOL0     H86190   4.811   4.871   7.491 -2.2275  1.4822 -0.6060
  653MOL0     H86191   4.675   4.879   7.590 -0.1555 -0.0060 -1.7247
  653MOL0     H86192   4.596   4.646   7.523 -0.0614 -0.1966 -0.1755
  653MOL0     H86193   4.640   4.740   7.389 -1.5090  1.1232  1.0031
  653MOL0     H86194   4.926   4.430   7.376 -1.1753  0.3072 -1.8098
  653MOL0     H86195   5.254   4.916   7.808 -0.5773  1.4138  2.8080
  653MOL0     H86196   5.432   5.063   7.721 -0.0732 -0.7152  0.9798
  654MOL0     O86197   2.134   6.856   1.861 -1.1587  0.1967 -0.4372
  654MOL0     C86198   2.107   6.911   1.966 -0.5508 -0.5494 -0.1045
  654MOL0     O86199   2.184   7.023   2.015  0.1368  0.1356  0.1893
  654MOL0     C86200   2.283   7.094   1.948 -0.8908 -1.2063  0.0798
  654MOL0     C86201   2.338   7.078   1.818 -0.5308 -0.6317 -0.4529
  654MOL0     C86202   2.450   7.149   1.772  0.5598 -0.4167 -1.2067
  654MOL0     C86203   2.499   7.256   1.846  0.1096  0.1388  0.0830
  654MOL0     O86204   2.607   7.321   1.791  0.6626  0.3396 -0.2232
  654MOL0     C86205   2.646   7.447   1.846 -0.6261  0.0270  0.1344
  654MOL0     C86206   2.801   7.455   1.843 -0.7521 -0.1584  0.2440
  654MOL0     C86207   2.879   7.328   1.898 -0.2249 -0.9004 -0.0803
  654MOL0     C86208   3.024   7.372   1.945 -0.6820  0.2096  0.6131
  654MOL0     C86209   3.110   7.262   2.013  0.0444 -0.3971 -1.1728
  654MOL0     C86210   3.023   7.171   2.104 -0.9407  0.0615  0.6874
  654MOL0     C86211   3.108   7.086   2.202 -0.3063 -0.4047  0.3313
  654MOL0     C86212   3.017   6.984   2.278  0.9083  0.6229 -0.7464
  654MOL0     N86213   3.089   6.919   2.389  0.6672  0.8220  0.0561
  654MOL0     C86214   3.121   6.787   2.410  0.5684  0.3206 -0.2108
  654MOL0     C86215   3.207   6.793   2.513  0.4750  0.5421  0.7632
  654MOL0     C86216   3.287   6.677   2.558  0.0254 -0.7258  0.0841
  654MOL0     C86217   3.208   6.549   2.536  0.4394  0.7837 -1.8958
  654MOL0     C86218   3.263   6.438   2.618  0.2183 -0.0294  0.8878
  654MOL0     C86219   3.190   6.300   2.610  0.1756 -0.5053 -0.9103
  654MOL0     O86220   3.290   6.196   2.622  0.5636  0.6870  0.1839
  654MOL0     C86221   3.247   6.070   2.663 -0.0527  0.5287  1.1374
  654MOL0     C86222   3.108   6.021   2.668 -1.2509  0.3275  0.5997
  654MOL0     C86223   3.082   5.884   2.689 -0.0531  0.6070 -0.5461
  654MOL0     C86224   3.187   5.791   2.719 -0.0933 -0.2454 -0.8402
  654MOL0     C86225   3.163   5.645   2.750 -0.1563  0.3754  0.3119
  654MOL0     O86226   3.053   5.591   2.686  0.6046 -0.4730 -0.0607
  654MOL0     C86227   3.008   5.462   2.708  0.4151  0.8521  0.5105
  654MOL0     C86228   3.073   5.357   2.779 -0.5556 -0.1983 -1.1342
  654MOL0     C86229   3.009   5.235   2.787 -0.3759 -0.4611  0.1297
  654MOL0     C86230   2.890   5.209   2.727  0.5285 -0.9034  0.6507
  654MOL0     O86231   2.821   5.090   2.754 -0.3392 -0.8209  0.1221
  654MOL0     C86232   2.795   5.004   2.645  0.6303 -0.6423  0.6137
  654MOL0     C86233   2.826   4.857   2.664  0.5105  0.0273 -0.3212
  654MOL0     C86234   2.975   4.834   2.702 -0.0691  0.1428  0.1563
  654MOL0     C86235   3.011   4.683   2.690 -0.0184  0.4263  0.7007
  654MOL0     C86236   3.093   4.652   2.566 -0.5987 -0.0476  0.3650
  654MOL0     C86237   3.174   4.529   2.571 -0.6215 -0.1818  0.0623
  654MOL0     C86238   3.090   4.413   2.632 -0.1714  1.1166 -0.8042
  654MOL0     C86239   3.169   4.274   2.638 -0.2019 -0.3168  0.3405
  654MOL0    Cl86240   3.069   4.146   2.714  0.3569 -0.0492  0.1051
  654MOL0     C86241   2.831   5.301   2.646 -0.0210  0.8059  0.5024
  654MOL0     C86242   2.884   5.433   2.641 -0.7751  0.0198 -0.1368
  654MOL0     O86243   3.254   5.582   2.804  1.2823 -0.3408  0.0852
  654MOL0     C86244   3.318   5.845   2.714 -0.0698 -0.4116 -0.3565
  654MOL0     C86245   3.343   5.976   2.688 -0.3247  0.2828 -0.5570
  654MOL0     N86246   3.219   6.918   2.561 -0.4729 -0.0889 -0.2575
  654MOL0     N86247   3.141   6.990   2.484  0.7711  0.0727 -1.2515
  654MOL0     C86248   2.442   7.285   1.973 -0.2542 -0.8128 -0.0521
  654MOL0     C86249   2.340   7.197   2.021  0.0124 -0.1099  1.3500
  654MOL0     C86250   1.994   6.852   2.046 -0.3176  0.2268 -0.4076
  654MOL0     C86251   1.902   6.764   1.994 -0.1871  0.1620 -0.0206
  654MOL0     C86252   1.797   6.720   2.069 -0.3470  0.1250 -0.6286
  654MOL0     C86253   1.771   6.760   2.205  0.5137  0.1562  0.0732
  654MOL0     O86254   1.653   6.732   2.268  0.1153 -0.3934 -0.2939
  654MOL0     C86255   1.674   6.663   2.395 -0.4487 -0.3783 -0.1319
  654MOL0     C86256   1.649   6.520   2.390  1.1009 -0.3997  0.8988
  654MOL0     C86257   1.510   6.489   2.331 -0.1776 -0.9069 -0.2594
  654MOL0     C86258   1.434   6.390   2.413 -1.1640  0.3932 -0.6003
  654MOL0     C86259   1.296   6.366   2.382  1.4651  0.2700 -0.7128
  654MOL0     C86260   1.176   6.344   2.352 -0.4760 -0.5874  0.4220
  654MOL0     C86261   1.855   6.857   2.252 -0.1154 -0.2675  0.0535
  654MOL0     C86262   1.966   6.903   2.178 -0.9668 -0.6158  0.6657
  654MOL0     H86263   2.294   7.001   1.755 -0.9602  0.3958 -1.4481
  654MOL0     H86264   2.492   7.127   1.674 -1.0161 -0.1496 -1.9700
  654MOL0     H86265   2.611   7.466   1.948  0.7399 -2.0617  1.0364
  654MOL0     H86266   2.596   7.528   1.791 -0.5620  1.0964  1.5708
  654MOL0     H86267   2.835   7.537   1.907 -2.0160 -0.5720  1.5167
  654MOL0     H86268   2.824   7.457   1.736 -2.3517  4.5422 -0.2661
  654MOL0     H86269   2.891   7.241   1.833 -1.3756 -0.2221 -1.2448
  654MOL0     H86270   2.825   7.297   1.988 -0.6267 -1.6991 -0.5977
  654MOL0     H86271   3.078   7.402   1.854 -3.9148 -0.6580 -1.7433
  654MOL0     H86272   3.026   7.459   2.012 -2.1873  1.2134 -0.5703
  654MOL0     H86273   3.187   7.305   2.077  2.1224 -0.3240 -3.5919
  654MOL0     H86274   3.167   7.209   1.936  1.0422  0.3622 -0.9774
  654MOL0     H86275   2.959   7.115   2.035 -0.2841 -1.1833  1.0720
  654MOL0     H86276   2.954   7.235   2.160 -2.1498 -1.0706  0.5337
  654MOL0     H86277   3.187   7.027   2.155  0.6791  0.0730  1.3499
  654MOL0     H86278   3.158   7.149   2.276 -1.4827  1.8345 -0.6998
  654MOL0     H86279   2.977   6.909   2.209  4.1586 -2.0990  0.0493
  654MOL0     H86280   2.938   7.043   2.325  0.0850 -1.6689  0.9201
  654MOL0     H86281   3.118   6.698   2.347  0.9130  0.2113 -0.0737
  654MOL0     H86282   3.287   6.689   2.667 -2.5799  3.3763 -0.1151
  654MOL0     H86283   3.380   6.679   2.502 -0.2896  1.2092 -0.4344
  654MOL0     H86284   3.219   6.516   2.433 -1.0408  0.8494 -2.1012
  654MOL0     H86285   3.101   6.559   2.557  0.2582 -0.2912 -2.2800
  654MOL0     H86286   3.367   6.421   2.587  0.7674  1.8379  1.6102
  654MOL0     H86287   3.273   6.473   2.721 -0.6907  0.4704  0.8151
  654MOL0     H86288   3.134   6.286   2.517 -0.0592  0.5359 -0.9363
  654MOL0     H86289   3.128   6.287   2.699  0.4018  0.9105 -0.5175
  654MOL0     H86290   3.022   6.087   2.664 -1.3173  0.2360  0.5138
  654MOL0     H86291   2.979   5.851   2.685  0.1436 -0.0047 -0.6897
  654MOL0     H86292   3.167   5.377   2.830 -1.4182  1.4470 -0.0832
  654MOL0     H86293   3.060   5.162   2.849 -0.3378  2.8019  4.4245
  654MOL0     H86294   2.846   5.038   2.555 -2.3883  2.5029 -0.1243
  654MOL0     H86295   2.689   5.012   2.619  1.3098  0.3659 -2.2268
  654MOL0     H86296   2.791   4.812   2.571  0.1668  1.6469 -1.0157
  654MOL0     H86297   2.761   4.818   2.743  0.1615 -0.2942 -0.7701
  654MOL0     H86298   2.982   4.867   2.806 -2.7873 -1.3353  0.9329
  654MOL0     H86299   3.039   4.888   2.632  1.7732 -3.8901 -1.6300
  654MOL0     H86300   3.083   4.675   2.772  1.3504 -1.0079 -0.5593
  654MOL0     H86301   2.921   4.622   2.694  0.2562 -0.1018 -0.5563
  654MOL0     H86302   3.156   4.736   2.536 -3.3198  2.4940  1.3469
  654MOL0     H86303   3.026   4.633   2.482  1.3709 -1.3999 -0.9945
  654MOL0     H86304   3.278   4.531   2.605 -0.1789 -3.8941 -0.6913
  654MOL0     H86305   3.190   4.490   2.470  2.8092 -0.6655  0.6515
  654MOL0     H86306   3.062   4.443   2.733  1.5723  0.7053 -0.1620
  654MOL0     H86307   2.998   4.398   2.574 -0.9380 -1.9352  0.9374
  654MOL0     H86308   3.266   4.296   2.684  0.6862 -0.2606 -1.4802
  654MOL0     H86309   3.201   4.239   2.539  3.3738  0.0182  1.2237
  654MOL0     H86310   2.749   5.280   2.578  1.0228  1.7638 -1.1178
  654MOL0     H86311   2.842   5.518   2.589 -2.4413 -2.1905 -2.6643
  654MOL0     H86312   3.397   5.783   2.754 -0.6585  0.9601  3.2784
  654MOL0     H86313   3.447   6.006   2.690 -0.0700 -0.5791 -0.1389
  654MOL0     H86314   2.476   7.353   2.050 -1.9612 -0.0850  0.0911
  654MOL0     H86315   2.303   7.206   2.122 -2.5217  1.1342  0.3915
  654MOL0     H86316   1.905   6.718   1.895 -3.1950  0.3484 -0.2906
  654MOL0     H86317   1.737   6.644   2.022  0.2378 -1.6505  1.3271
  654MOL0     H86318   1.603   6.710   2.463  1.0385 -0.0699  1.2874
  654MOL0     H86319   1.774   6.690   2.430  0.0284  0.5041 -2.0302
  654MOL0     H86320   1.726   6.473   2.328 -0.3201 -0.0298 -1.2776
  654MOL0     H86321   1.671   6.467   2.483 -0.1539 -3.6931 -0.5175
  654MOL0     H86322   1.527   6.459   2.227 -3.2676 -1.9254 -0.5907
  654MOL0     H86323   1.439   6.571   2.316 -0.8575 -1.9605 -3.9523
  654MOL0     H86324   1.494   6.299   2.406 -1.3995  0.0795  1.1389
  654MOL0     H86325   1.446   6.419   2.518 -0.6545  4.2088 -1.5323
  654MOL0     H86326   1.074   6.311   2.341  0.0830 -2.7378  1.2227
  654MOL0     H86327   1.842   6.904   2.349  1.2318 -2.8106  1.6110
  654MOL0     H86328   2.032   6.972   2.229  2.5666 -0.5213 -3.3810
  655MOL0     O86329   9.238   1.153  10.594 -0.0418 -0.3321 -0.7175
  655MOL0     C86330   9.219   1.035  10.624  0.0639 -0.1763 -0.4856
  655MOL0     O86331   9.203   0.935  10.524 -0.2103 -0.3068 -0.2275
  655MOL0     C86332   9.144   1.007  10.417  0.3338 -0.6541  0.6345
  655MOL0     C86333   9.213   1.035  10.298  0.2077 -1.2688 -1.0878
  655MOL0     C86334   9.143   1.112  10.194 -0.0362  0.2312  0.0789
  655MOL0     C86335   9.023   1.158  10.212  1.2531  0.1068  0.6217
  655MOL0     O86336   8.958   1.204  10.101 -0.8338  0.7952 -0.6162
  655MOL0     C86337   8.960   1.117   9.980 -0.6737  0.1235 -0.8262
  655MOL0     C86338   8.827   1.166   9.930  0.1151  0.8965 -0.0192
  655MOL0     C86339   8.697   1.106  10.009  0.8581 -0.6411 -0.2798
  655MOL0     C86340   8.657   0.954   9.977  0.1501  0.2725  0.1158
  655MOL0     C86341   8.615   0.945   9.834  0.1639  0.4275  0.1534
  655MOL0     C86342   8.679   0.819   9.760  1.1557  1.7344  0.4280
  655MOL0     C86343   8.652   0.680   9.826 -0.2232 -0.4805 -0.4364
  655MOL0     C86344   8.510   0.641   9.830 -0.3839 -0.1521  0.5916
  655MOL0     N86345   8.496   0.516   9.908 -0.4544 -0.3170  0.7205
  655MOL0     C86346   8.566   0.396   9.888  0.1496 -0.9598  0.8462
  655MOL0     C86347   8.548   0.330  10.007 -0.5519  0.3763  0.0083
  655MOL0     C86348   8.612   0.207  10.056 -1.4043  0.3370  1.2336
  655MOL0     C86349   8.725   0.232  10.166 -0.1195  0.0713  0.9314
  655MOL0     C86350   8.839   0.136  10.142  0.7901 -0.7271  0.4890
  655MOL0     C86351   8.820   0.006  10.216 -0.3791 -0.0125  0.2109
  655MOL0     O86352   8.725  -0.086  10.148 -0.0543 -0.9935 -0.6908
  655MOL0     C86353   8.762  -0.141  10.024 -0.0199 -0.9615 -0.2477
  655MOL0     C86354   8.661  -0.184   9.928 -0.7172 -0.1032 -0.3847
  655MOL0     C86355   8.692  -0.230   9.803  0.0120  0.5364 -0.9183
  655MOL0     C86356   8.832  -0.257   9.771  0.3965  0.0300  0.7567
  655MOL0     C86357   8.864  -0.310   9.630  0.0694  0.1689  0.0465
  655MOL0     O86358   8.766  -0.388   9.572 -0.0182  0.1747  0.4618
  655MOL0     C86359   8.787  -0.441   9.448 -0.5427  0.2434  0.5739
  655MOL0     C86360   8.811  -0.360   9.333 -0.5597 -0.2821  0.1323
  655MOL0     C86361   8.831  -0.412   9.206  0.6075 -0.4827 -0.2256
  655MOL0     C86362   8.821  -0.547   9.185 -0.4787  0.8364 -0.8003
  655MOL0     O86363   8.825  -0.614   9.068  0.1799 -0.2273  0.0563
  655MOL0     C86364   8.759  -0.560   8.953  0.0215 -0.4014 -0.1707
  655MOL0     C86365   8.798  -0.666   8.851  0.2481  0.9252  0.1243
  655MOL0     C86366   8.750  -0.634   8.704 -0.1004  0.6478  0.4803
  655MOL0     C86367   8.795  -0.757   8.621 -0.3705 -0.0107  0.7551
  655MOL0     C86368   8.774  -0.734   8.473  0.8571  0.7926 -0.4292
  655MOL0     C86369   8.903  -0.666   8.419  0.1765  0.8440 -0.6105
  655MOL0     C86370   8.901  -0.634   8.263 -0.4095 -0.1158 -0.3074
  655MOL0     C86371   8.768  -0.578   8.227  0.5620  0.7447  0.6626
  655MOL0    Cl86372   8.657  -0.717   8.190  0.0822  0.0367  0.1337
  655MOL0     C86373   8.800  -0.632   9.300  0.8038  0.5404 -0.3275
  655MOL0     C86374   8.784  -0.582   9.429  0.3615  0.1361 -0.6015
  655MOL0     O86375   8.985  -0.307   9.598 -0.2036 -1.1148  0.2091
  655MOL0     C86376   8.923  -0.229   9.866  0.5220 -1.0442  0.0730
  655MOL0     C86377   8.892  -0.167   9.991 -0.0643 -0.2802 -0.3920
  655MOL0     N86378   8.457   0.398  10.088  0.3371  0.7335  0.5045
  655MOL0     N86379   8.452   0.517  10.034  0.4857 -0.4588 -0.5854
  655MOL0     C86380   8.961   1.137  10.330  0.3524 -0.1647  0.6874
  655MOL0     C86381   9.014   1.062  10.434 -0.2299  0.2343  0.5330
  655MOL0     C86382   9.236   1.007  10.774  0.3974 -0.3154 -0.5093
  655MOL0     C86383   9.286   1.098  10.859  0.9615 -0.9013  0.7853
  655MOL0     C86384   9.280   1.082  10.991  0.0965  0.0957 -0.5345
  655MOL0     C86385   9.222   0.974  11.045  0.0721  0.3256 -1.0718
  655MOL0     O86386   9.205   0.960  11.179  0.2059 -0.8024  0.0554
  655MOL0     C86387   9.297   0.872  11.247  0.7922 -0.1487 -0.3900
  655MOL0     C86388   9.243   0.737  11.300  0.4802  0.6026  0.3488
  655MOL0     C86389   9.109   0.752  11.373  0.3868 -0.1257 -1.0277
  655MOL0     C86390   9.032   0.619  11.357 -0.3970  0.8671 -0.3294
  655MOL0     C86391   8.892   0.636  11.399  0.1561 -0.0555  0.8354
  655MOL0     C86392   8.776   0.652  11.441 -0.3298 -0.0184  0.9927
  655MOL0     C86393   9.168   0.875  10.959 -0.2340 -0.0629 -0.0607
  655MOL0     C86394   9.180   0.886  10.823 -0.1125 -0.4904 -0.3582
  655MOL0     H86395   9.309   0.989  10.278 -0.2496 -2.0137 -1.5952
  655MOL0     H86396   9.201   1.143  10.108  1.2774  1.5595  1.3615
  655MOL0     H86397   8.958   1.011  10.005  0.4045  0.2501 -0.1342
  655MOL0     H86398   9.042   1.143   9.913  1.1918  0.6558  1.5200
  655MOL0     H86399   8.827   1.129   9.827  0.7408 -4.4673  1.5680
  655MOL0     H86400   8.814   1.274   9.937 -2.0296  0.6911 -0.3548
  655MOL0     H86401   8.616   1.179  10.004  0.4765 -0.6416  3.2608
  655MOL0     H86402   8.702   1.116  10.118  3.3771 -0.3589 -0.3572
  655MOL0     H86403   8.744   0.890   9.996  2.1866  3.1636  1.3001
  655MOL0     H86404   8.573   0.924  10.040 -0.3746 -1.3217 -1.2933
  655MOL0     H86405   8.645   1.040   9.789  1.4312  0.4198  0.9226
  655MOL0     H86406   8.506   0.937   9.839  0.2159 -0.9745 -0.3971
  655MOL0     H86407   8.787   0.835   9.756  1.6875 -1.3346 -0.1780
  655MOL0     H86408   8.646   0.822   9.656  1.5475  2.6765  0.3218
  655MOL0     H86409   8.718   0.606   9.779  1.3649 -0.6466  1.8575
  655MOL0     H86410   8.692   0.674   9.928 -0.9806 -0.3529 -0.1255
  655MOL0     H86411   8.480   0.616   9.727  1.0784  4.8379 -1.3417
  655MOL0     H86412   8.443   0.718   9.866  3.6458  2.0404  4.2859
  655MOL0     H86413   8.614   0.360   9.797 -3.3724 -0.9470 -1.2091
  655MOL0     H86414   8.643   0.146   9.971  3.0076  2.9201  0.7031
  655MOL0     H86415   8.546   0.139  10.112  1.0724 -2.1907  1.3218
  655MOL0     H86416   8.690   0.220  10.269  2.7434 -1.5647  1.8344
  655MOL0     H86417   8.762   0.334  10.154  0.5847 -0.2913 -0.0517
  655MOL0     H86418   8.847   0.122  10.034 -1.3906 -0.1257  0.1962
  655MOL0     H86419   8.929   0.188  10.177 -0.2862  1.9202 -0.3918
  655MOL0     H86420   8.770   0.027  10.311 -2.0317 -1.5492 -0.2590
  655MOL0     H86421   8.915  -0.043  10.240  0.3316  1.0767 -0.3221
  655MOL0     H86422   8.561  -0.204   9.967 -0.1159 -2.7311  0.0473
  655MOL0     H86423   8.617  -0.253   9.727 -1.7296  2.0487  0.2757
  655MOL0     H86424   8.833  -0.255   9.343  0.0419 -0.4357  0.4782
  655MOL0     H86425   8.837  -0.348   9.119  2.7186 -1.0638 -0.5654
  655MOL0     H86426   8.815  -0.468   8.933  2.0542 -1.7654 -1.2168
  655MOL0     H86427   8.654  -0.533   8.949  0.8098  2.9875 -1.4259
  655MOL0     H86428   8.746  -0.757   8.883  3.3095 -0.4794  1.5310
  655MOL0     H86429   8.904  -0.694   8.855 -0.4336 -1.7914  1.5109
  655MOL0     H86430   8.789  -0.536   8.673 -0.1476  1.1109  1.8106
  655MOL0     H86431   8.641  -0.623   8.704  0.1264  3.8579 -0.0952
  655MOL0     H86432   8.900  -0.775   8.645 -0.0523 -0.1656 -0.6810
  655MOL0     H86433   8.732  -0.843   8.647 -1.5560  0.0121 -1.7476
  655MOL0     H86434   8.690  -0.666   8.459 -0.0709  0.4652  2.7634
  655MOL0     H86435   8.765  -0.837   8.436 -0.0951 -0.2086  2.3600
  655MOL0     H86436   8.993  -0.727   8.433  1.1116  2.3360  0.1715
  655MOL0     H86437   8.915  -0.574   8.477  1.0966 -0.5258  1.5222
  655MOL0     H86438   8.977  -0.559   8.239  0.8640 -1.7651 -1.6516
  655MOL0     H86439   8.923  -0.721   8.201  1.9411  0.0545  0.2072
  655MOL0     H86440   8.787  -0.519   8.137  2.1285  0.5666  0.8528
  655MOL0     H86441   8.728  -0.522   8.312  0.1368  1.4969 -0.0160
  655MOL0     H86442   8.802  -0.739   9.284 -0.3608  0.6363 -1.2553
  655MOL0     H86443   8.772  -0.644   9.517 -0.1070  1.3717  0.2426
  655MOL0     H86444   9.024  -0.245   9.828  0.3173 -3.1460  0.2610
  655MOL0     H86445   8.969  -0.126  10.055 -1.1794  1.7970 -0.3019
  655MOL0     H86446   8.855   1.155  10.348 -0.5453 -3.8146 -0.0092
  655MOL0     H86447   8.958   1.046  10.526 -1.7885 -0.9847 -0.5808
  655MOL0     H86448   9.313   1.196  10.819 -3.1606 -0.5183 -1.6722
  655MOL0     H86449   9.328   1.154  11.056 -1.0483 -0.0511  0.5185
  655MOL0     H86450   9.340   0.933  11.327  2.0661 -0.6710 -0.6531
  655MOL0     H86451   9.380   0.842  11.183 -1.8338 -2.4131 -2.9965
  655MOL0     H86452   9.225   0.670  11.216 -1.9238  0.0378  1.2133
  655MOL0     H86453   9.309   0.701  11.379 -0.4780  3.4743  2.6559
  655MOL0     H86454   9.049   0.834  11.332 -0.9375 -1.7652 -2.5594
  655MOL0     H86455   9.132   0.768  11.478  0.3476  0.2821 -1.0784
  655MOL0     H86456   9.033   0.587  11.253 -0.7641 -2.2030  0.5097
  655MOL0     H86457   9.068   0.531  11.410 -3.9697  0.1468  1.2048
  655MOL0     H86458   8.689   0.682  11.494  2.1331  2.0542  4.2547
  655MOL0     H86459   9.119   0.786  10.998  1.9364 -0.3561  2.2992
  655MOL0     H86460   9.147   0.807  10.756 -2.7367  0.3750 -0.1868
  656MOL0     O86461   6.186   6.995   0.584  0.1559 -0.3483 -0.1789
  656MOL0     C86462   6.240   6.880   0.597  1.5306 -0.0547  0.1175
  656MOL0     O86463   6.190   6.771   0.657 -0.0894  1.1930 -0.1920
  656MOL0     C86464   6.076   6.805   0.732 -0.6929  0.4482 -0.3088
  656MOL0     C86465   6.061   6.911   0.818  1.0483  0.2729 -0.9337
  656MOL0     C86466   5.944   6.908   0.898 -0.7896 -1.0078  0.0826
  656MOL0     C86467   5.843   6.821   0.876  0.0314  0.0214  0.8532
  656MOL0     O86468   5.721   6.839   0.922  0.5422  0.1701  0.2365
  656MOL0     C86469   5.721   6.851   1.067  0.3879  0.3819 -0.5984
  656MOL0     C86470   5.614   6.757   1.125 -0.3043 -0.2476  0.4439
  656MOL0     C86471   5.629   6.611   1.081 -0.7366 -0.4238  0.9710
  656MOL0     C86472   5.553   6.519   1.173  0.9119  1.1604  0.3867
  656MOL0     C86473   5.406   6.556   1.206  0.6623  0.7818 -0.5659
  656MOL0     C86474   5.306   6.559   1.091 -0.0770 -0.0825 -0.1778
  656MOL0     C86475   5.168   6.517   1.146  0.8176 -1.0141 -0.9264
  656MOL0     C86476   5.103   6.617   1.250  0.2149 -0.2417 -0.0267
  656MOL0     N86477   5.028   6.731   1.202  0.7975 -0.3993  0.6373
  656MOL0     C86478   5.063   6.845   1.132 -0.1361 -0.3802 -0.8370
  656MOL0     C86479   4.956   6.924   1.142  0.0015 -1.0543 -0.3695
  656MOL0     C86480   4.954   7.068   1.090 -0.2496 -0.3442 -0.1882
  656MOL0     C86481   5.027   7.096   0.957 -0.6161 -0.8573 -0.9398
  656MOL0     C86482   4.964   7.018   0.851  1.2535  0.2972  0.0049
  656MOL0     C86483   4.986   7.071   0.706  0.1518 -0.1345 -0.2765
  656MOL0     O86484   5.118   7.121   0.706  0.0890  0.4404  0.1450
  656MOL0     C86485   5.170   7.176   0.590  0.0534 -0.2061 -0.1942
  656MOL0     C86486   5.285   7.247   0.610  0.5232 -0.1013  0.1284
  656MOL0     C86487   5.336   7.318   0.501 -0.2926  0.2225 -0.1000
  656MOL0     C86488   5.272   7.320   0.368  0.2334 -0.1751 -0.0521
  656MOL0     C86489   5.324   7.403   0.259 -0.6729  0.2557  0.6051
  656MOL0     O86490   5.463   7.432   0.271  0.5281 -0.7236  0.4835
  656MOL0     C86491   5.506   7.552   0.218  0.1455  0.5571 -0.1995
  656MOL0     C86492   5.643   7.556   0.177  1.1150 -0.0939 -0.4570
  656MOL0     C86493   5.698   7.677   0.135  0.1008  0.5023 -0.1672
  656MOL0     C86494   5.611   7.794   0.116  0.3093  1.0476  0.0775
  656MOL0     O86495   5.674   7.897   0.054 -0.0353 -0.3948 -0.1945
  656MOL0     C86496   5.583   8.001   0.019  0.3119 -0.1430  0.1903
  656MOL0     C86497   5.646   8.094  -0.094 -0.1722  0.5392 -0.6554
  656MOL0     C86498   5.561   8.225  -0.103 -0.5178 -1.1756 -0.5353
  656MOL0     C86499   5.603   8.336  -0.203  0.7212 -0.0023  0.4676
  656MOL0     C86500   5.478   8.415  -0.248  0.3067 -0.3926  0.3780
  656MOL0     C86501   5.498   8.562  -0.292 -0.8804  0.6455  0.8314
  656MOL0     C86502   5.569   8.574  -0.434 -0.2640  0.3084  0.5868
  656MOL0     C86503   5.666   8.699  -0.462 -0.4580 -0.0316 -0.0728
  656MOL0    Cl86504   5.798   8.704  -0.344 -0.0198  0.4585 -0.1101
  656MOL0     C86505   5.473   7.787   0.156 -1.3466  0.3114 -0.6124
  656MOL0     C86506   5.423   7.665   0.198 -0.2230  0.7621 -0.1379
  656MOL0     O86507   5.244   7.438   0.169  0.2578 -0.4919  0.2776
  656MOL0     C86508   5.161   7.240   0.352  0.3733 -0.5436 -0.1072
  656MOL0     C86509   5.117   7.164   0.464  0.8537 -0.0535  0.0945
  656MOL0     N86510   4.847   6.859   1.194 -0.4994 -0.1870 -0.2447
  656MOL0     N86511   4.896   6.749   1.236 -0.1860  0.4619 -0.2450
  656MOL0     C86512   5.861   6.718   0.778  0.1069 -0.7075 -0.3280
  656MOL0     C86513   5.971   6.714   0.711 -0.0928  0.0865  0.1964
  656MOL0     C86514   6.386   6.874   0.547  0.7663 -0.3491  0.2996
  656MOL0     C86515   6.453   6.754   0.565 -0.1723 -0.5951  0.3578
  656MOL0     C86516   6.586   6.752   0.518  0.0880  0.0804  0.3571
  656MOL0     C86517   6.649   6.867   0.466 -0.2044  0.2100 -1.0380
  656MOL0     O86518   6.786   6.885   0.445  0.4400  0.2225  0.3148
  656MOL0     C86519   6.863   6.769   0.431 -0.1241  0.7107  0.4704
  656MOL0     C86520   7.007   6.826   0.418 -1.1273 -0.3996 -0.4383
  656MOL0     C86521   7.030   6.862   0.274 -0.6649  0.2092 -0.1550
  656MOL0     C86522   7.143   6.963   0.250 -0.1524  0.6191  0.1598
  656MOL0     C86523   7.147   6.999   0.111 -1.2778  0.9344 -0.2627
  656MOL0     C86524   7.148   7.042  -0.006  0.4223  0.3994 -0.0170
  656MOL0     C86525   6.581   6.986   0.455 -0.1024  0.1288 -0.0593
  656MOL0     C86526   6.448   6.989   0.496 -0.7103 -0.8010  0.2519
  656MOL0     H86527   6.133   6.990   0.839 -0.4537  1.2786  0.7145
  656MOL0     H86528   5.926   7.001   0.952  4.0591  1.6470 -2.1584
  656MOL0     H86529   5.715   6.955   1.101  1.0895  1.4078 -3.3387
  656MOL0     H86530   5.816   6.807   1.098  0.3226  0.4643 -0.2841
  656MOL0     H86531   5.515   6.789   1.092 -0.6054 -0.0333  1.5041
  656MOL0     H86532   5.611   6.755   1.235  0.1365  2.3049  0.5509
  656MOL0     H86533   5.734   6.579   1.072 -0.4381  0.7015  0.1037
  656MOL0     H86534   5.588   6.603   0.980 -1.4820  2.0015  1.0147
  656MOL0     H86535   5.562   6.418   1.132  1.4130  0.9024  1.1068
  656MOL0     H86536   5.608   6.520   1.268  0.0050  3.4958  0.9512
  656MOL0     H86537   5.405   6.661   1.237  0.8470  0.9749 -1.2013
  656MOL0     H86538   5.379   6.492   1.291  0.3853  1.8818  0.1914
  656MOL0     H86539   5.327   6.485   1.014  1.1554  0.1384 -0.0719
  656MOL0     H86540   5.296   6.661   1.053 -0.8060 -0.1472 -0.1792
  656MOL0     H86541   5.100   6.509   1.060 -0.6207 -2.5332  0.2775
  656MOL0     H86542   5.166   6.423   1.201 -0.3117  0.7526  2.2919
  656MOL0     H86543   5.188   6.654   1.307 -0.6105  0.1006  1.0239
  656MOL0     H86544   5.043   6.551   1.314  0.8812 -0.6752  0.1604
  656MOL0     H86545   5.164   6.870   1.102  0.6858 -0.9755  1.2322
  656MOL0     H86546   4.992   7.129   1.172  0.6574 -2.7909  1.3453
  656MOL0     H86547   4.850   7.096   1.070 -0.8741 -1.9558  0.6042
  656MOL0     H86548   5.134   7.086   0.979 -0.7360  1.1444  0.9141
  656MOL0     H86549   5.011   7.203   0.939  1.3317 -0.2799  0.4076
  656MOL0     H86550   5.000   6.915   0.853  0.0558 -0.1519 -0.5976
  656MOL0     H86551   4.855   7.021   0.864  1.1281 -2.8846  0.6304
  656MOL0     H86552   4.922   7.157   0.681 -0.5989 -1.2754 -2.6424
  656MOL0     H86553   4.973   6.995   0.628 -1.0051  2.2291 -2.5754
  656MOL0     H86554   5.330   7.234   0.708  2.4275 -0.2974 -0.7207
  656MOL0     H86555   5.426   7.370   0.533 -0.4856  0.5546 -0.1011
  656MOL0     H86556   5.698   7.466   0.203 -0.0542  0.3505  4.6070
  656MOL0     H86557   5.802   7.688   0.109  0.6458  0.6956  1.9264
  656MOL0     H86558   5.537   8.056   0.103 -0.6333 -0.3074 -0.2087
  656MOL0     H86559   5.493   7.961  -0.029 -0.3890  1.6428 -0.0676
  656MOL0     H86560   5.637   8.048  -0.193 -0.1268  0.8017 -0.7825
  656MOL0     H86561   5.745   8.136  -0.073  0.4742 -1.6319  0.9860
  656MOL0     H86562   5.554   8.266  -0.002  3.2714 -4.6413  1.4348
  656MOL0     H86563   5.459   8.200  -0.136 -1.5744  2.0296 -0.0254
  656MOL0     H86564   5.682   8.399  -0.160  0.4011  1.8240 -1.4896
  656MOL0     H86565   5.644   8.273  -0.282  1.5475  0.2520  0.6826
  656MOL0     H86566   5.407   8.420  -0.165 -1.9380 -4.3386 -1.0561
  656MOL0     H86567   5.426   8.357  -0.325  1.8205 -0.4102 -0.6765
  656MOL0     H86568   5.552   8.625  -0.221 -2.5945  1.5393  1.4018
  656MOL0     H86569   5.396   8.598  -0.313 -2.5674 -3.5927  0.8498
  656MOL0     H86570   5.609   8.477  -0.462 -1.7810  0.2344 -1.6006
  656MOL0     H86571   5.491   8.595  -0.509  1.5928  3.2243 -0.7314
  656MOL0     H86572   5.615   8.795  -0.445 -2.2093 -0.0004 -4.3506
  656MOL0     H86573   5.697   8.714  -0.565 -0.5646  1.8243  0.1217
  656MOL0     H86574   5.402   7.868   0.142 -3.4964 -1.6556 -1.8220
  656MOL0     H86575   5.325   7.659   0.245  1.4442 -1.8123  3.4605
  656MOL0     H86576   5.106   7.235   0.259 -1.8526  1.7631  0.9353
  656MOL0     H86577   5.046   7.089   0.430  0.0806 -0.5106  2.4717
  656MOL0     H86578   5.779   6.648   0.762 -1.3807  0.1186  2.9626
  656MOL0     H86579   5.981   6.648   0.627 -1.2610 -1.8397  1.4929
  656MOL0     H86580   6.419   6.667   0.619 -1.4805  0.2091  0.8548
  656MOL0     H86581   6.644   6.660   0.524  2.2005  1.3518  0.2018
  656MOL0     H86582   6.831   6.708   0.346 -1.2201 -2.4297  2.9272
  656MOL0     H86583   6.874   6.705   0.519  0.3846 -2.0826 -1.4871
  656MOL0     H86584   7.022   6.914   0.481  3.2404 -0.6831 -0.7924
  656MOL0     H86585   7.062   6.743   0.464 -1.0815 -0.5454 -0.7504
  656MOL0     H86586   6.934   6.901   0.239 -0.5478  0.9103  0.2743
  656MOL0     H86587   7.050   6.770   0.218 -0.7890  0.7289 -1.0547
  656MOL0     H86588   7.120   7.054   0.308  1.1877  0.8038  0.4443
  656MOL0     H86589   7.245   6.933   0.278  0.1881  0.7941 -0.8640
  656MOL0     H86590   7.122   7.054  -0.110 -0.8988 -1.3333  0.0777
  656MOL0     H86591   6.629   7.082   0.437  0.6926 -0.8034 -3.7595
  656MOL0     H86592   6.396   7.082   0.478 -0.3150 -0.6093  0.0787
  657MOL0     O86593   1.219   9.270   1.654 -0.1699 -0.3529  0.2970
  657MOL0     C86594   1.121   9.338   1.680 -0.0609  0.2357 -0.5860
  657MOL0     O86595   0.993   9.300   1.654 -0.3006  0.3914  0.3679
  657MOL0     C86596   0.953   9.174   1.605 -1.2525  0.2648 -0.5591
  657MOL0     C86597   0.818   9.147   1.616  0.1192 -0.4872  0.8659
  657MOL0     C86598   0.755   9.029   1.577 -0.2774  0.1910  0.1588
  657MOL0     C86599   0.832   8.927   1.523  0.4667  1.0135  0.0373
  657MOL0     O86600   0.773   8.805   1.494  0.7796 -0.0165 -0.2846
  657MOL0     C86601   0.844   8.715   1.413 -0.5973  0.6960  0.1952
  657MOL0     C86602   0.758   8.592   1.368  0.0683 -0.7114 -0.1053
  657MOL0     C86603   0.820   8.502   1.269 -0.7861  0.6170 -0.5445
  657MOL0     C86604   0.764   8.366   1.244  0.0115 -0.0687  0.0889
  657MOL0     C86605   0.632   8.362   1.154 -0.1822  0.1769  0.4014
  657MOL0     C86606   0.602   8.218   1.107  0.5646 -0.4852 -0.5710
  657MOL0     C86607   0.558   8.137   1.224  0.0037  0.1088 -0.0965
  657MOL0     C86608   0.545   7.982   1.196 -0.0182 -0.1359 -0.6337
  657MOL0     N86609   0.471   7.905   1.300 -0.2102  0.6241 -0.1907
  657MOL0     C86610   0.498   7.896   1.434 -0.3433  0.4339  0.2410
  657MOL0     C86611   0.411   7.798   1.480  0.0100 -0.4615  0.0698
  657MOL0     C86612   0.389   7.754   1.618  0.2941 -0.2766  0.1225
  657MOL0     C86613   0.488   7.800   1.722  0.0305 -0.7636 -0.2306
  657MOL0     C86614   0.633   7.759   1.709 -0.2877 -0.1964  0.6832
  657MOL0     C86615   0.725   7.802   1.827 -0.0210  0.2536 -0.0840
  657MOL0     O86616   0.690   7.708   1.929 -0.1326  0.4375 -0.5545
  657MOL0     C86617   0.756   7.728   2.054  0.0024 -0.5861  0.4550
  657MOL0     C86618   0.694   7.662   2.160 -0.1910  0.9269 -1.1745
  657MOL0     C86619   0.740   7.676   2.297  0.0164 -0.1959  0.2589
  657MOL0     C86620   0.835   7.778   2.329 -0.6046  0.2830 -0.3187
  657MOL0     C86621   0.884   7.800   2.467  1.0752 -0.3303  0.0462
  657MOL0     O86622   0.917   7.691   2.540 -0.3793  0.1496  0.0613
  657MOL0     C86623   0.950   7.705   2.674  0.9429 -1.0461  0.6513
  657MOL0     C86624   0.862   7.664   2.772  0.1852  0.3799 -0.0238
  657MOL0     C86625   0.895   7.663   2.900  1.0648  0.0689 -0.6518
  657MOL0     C86626   1.023   7.710   2.947  0.9052  0.3760 -0.6516
  657MOL0     O86627   1.059   7.702   3.075 -0.0685  0.0605  0.0162
  657MOL0     C86628   1.197   7.679   3.106  0.2010 -0.0064  0.3932
  657MOL0     C86629   1.222   7.538   3.063  0.3760  0.1889  1.1185
  657MOL0     C86630   1.354   7.489   3.122 -0.2220  0.5953  0.1213
  657MOL0     C86631   1.384   7.350   3.075 -0.2125  0.2094 -0.5417
  657MOL0     C86632   1.503   7.287   3.159 -0.2271 -0.1934 -0.5595
  657MOL0     C86633   1.603   7.200   3.083 -1.3656 -0.5346  0.3307
  657MOL0     C86634   1.702   7.260   2.986 -0.6843  0.3307  1.0819
  657MOL0     C86635   1.791   7.367   3.037  0.5529  0.5416  0.4693
  657MOL0    Cl86636   1.894   7.432   2.905  0.1997 -0.0158  0.0897
  657MOL0     C86637   1.107   7.755   2.851 -1.0800 -0.5201 -0.8889
  657MOL0     C86638   1.068   7.759   2.715  0.1242 -0.0150 -0.2381
  657MOL0     O86639   0.887   7.914   2.504  0.5118 -0.0418  0.0803
  657MOL0     C86640   0.887   7.850   2.220 -0.5726 -0.7011  0.1689
  657MOL0     C86641   0.851   7.827   2.092 -0.7544  0.4136  0.6582
  657MOL0     N86642   0.335   7.754   1.371  0.8544 -0.4042  0.2886
  657MOL0     N86643   0.378   7.818   1.264 -0.2731  0.0351  0.3242
  657MOL0     C86644   0.969   8.948   1.523  0.7789  0.0412 -0.0804
  657MOL0     C86645   1.031   9.071   1.550  0.6752 -0.0674  0.8276
  657MOL0     C86646   1.146   9.476   1.736 -0.2439 -1.1892 -0.6706
  657MOL0     C86647   1.271   9.526   1.747 -0.6162  0.3395  0.3481
  657MOL0     C86648   1.287   9.655   1.797 -0.1927 -0.0435  0.1483
  657MOL0     C86649   1.183   9.726   1.856  0.7344 -0.3256 -0.6197
  657MOL0     O86650   1.227   9.837   1.922  0.1242 -0.0817  0.6399
  657MOL0     C86651   1.142   9.928   1.984  0.4385 -0.5378 -0.5860
  657MOL0     C86652   1.204  10.067   2.007  0.0486 -0.0243 -0.1606
  657MOL0     C86653   1.254  10.140   1.879 -0.0975  0.6331 -0.1813
  657MOL0     C86654   1.316  10.270   1.907 -0.5933  0.2868  0.4061
  657MOL0     C86655   1.461  10.261   1.941 -0.1825 -0.6102 -0.1085
  657MOL0     C86656   1.582  10.250   1.957  0.1873 -0.0927  0.3760
  657MOL0     C86657   1.051   9.673   1.847 -1.1974 -0.1006  0.6717
  657MOL0     C86658   1.034   9.550   1.789 -0.2339 -0.1430  0.4127
  657MOL0     H86659   0.755   9.230   1.644 -0.3641 -0.4966 -0.1191
  657MOL0     H86660   0.649   9.011   1.562 -0.3938 -0.6385  1.8058
  657MOL0     H86661   0.924   8.666   1.469 -2.0114 -3.6409 -1.2153
  657MOL0     H86662   0.899   8.757   1.328 -0.2911 -1.9386 -1.0162
  657MOL0     H86663   0.657   8.618   1.337 -0.0533 -0.3172  0.5920
  657MOL0     H86664   0.755   8.531   1.459  2.7718  1.6643  1.7844
  657MOL0     H86665   0.926   8.489   1.294 -0.7887  1.5054 -0.0688
  657MOL0     H86666   0.820   8.551   1.171  0.8785  1.4826 -0.1484
  657MOL0     H86667   0.843   8.303   1.201  2.2596  2.0398  0.8699
  657MOL0     H86668   0.742   8.322   1.341 -1.8738  0.6235  0.0088
  657MOL0     H86669   0.652   8.416   1.062 -2.0605 -2.0115 -1.4320
  657MOL0     H86670   0.545   8.407   1.202 -0.9079 -0.8335  0.0919
  657MOL0     H86671   0.690   8.180   1.054  1.2265 -0.3051  0.3799
  657MOL0     H86672   0.519   8.218   1.035 -1.0093  1.2325  1.1279
  657MOL0     H86673   0.629   8.155   1.306 -1.3083  2.7392  0.5757
  657MOL0     H86674   0.458   8.174   1.248  0.2584  0.6508  0.1499
  657MOL0     H86675   0.647   7.943   1.190  1.3529  2.4789  2.4362
  657MOL0     H86676   0.492   7.985   1.100  1.2616 -2.9512 -1.5528
  657MOL0     H86677   0.579   7.945   1.486 -1.0865  1.1455  0.7458
  657MOL0     H86678   0.394   7.645   1.628  5.5407 -0.4235 -1.1852
  657MOL0     H86679   0.292   7.792   1.649  0.7267  1.7630 -0.8555
  657MOL0     H86680   0.453   7.770   1.822 -1.7334  0.8592 -0.3093
  657MOL0     H86681   0.482   7.909   1.718  1.6424 -0.6074  0.7508
  657MOL0     H86682   0.630   7.651   1.690 -4.0392 -0.1580  0.3626
  657MOL0     H86683   0.669   7.805   1.617  2.9867 -3.4547  0.1061
  657MOL0     H86684   0.700   7.905   1.853  3.7513  0.6358  3.0869
  657MOL0     H86685   0.831   7.786   1.806 -0.0231 -2.8225  1.4924
  657MOL0     H86686   0.611   7.595   2.140  0.2401 -0.4946  1.3477
  657MOL0     H86687   0.689   7.614   2.369 -0.2773 -1.2215 -0.7912
  657MOL0     H86688   0.770   7.616   2.740  0.2060  1.4443 -1.7690
  657MOL0     H86689   0.819   7.621   2.964  0.6749  0.1264 -1.0671
  657MOL0     H86690   1.223   7.698   3.211  0.1919  1.8637  0.1051
  657MOL0     H86691   1.272   7.746   3.063  1.3572 -1.6845 -0.3125
  657MOL0     H86692   1.224   7.543   2.953  0.6596  4.0732  1.1789
  657MOL0     H86693   1.136   7.479   3.096 -0.8548  3.2883  4.0520
  657MOL0     H86694   1.357   7.491   3.231  1.3729  0.2367  0.1036
  657MOL0     H86695   1.430   7.559   3.085 -0.2631  0.8808  0.5697
  657MOL0     H86696   1.294   7.289   3.070  0.3110 -0.6510  0.3118
  657MOL0     H86697   1.428   7.366   2.976 -0.9156 -0.3895 -0.9546
  657MOL0     H86698   1.459   7.221   3.234  0.5106  0.1356  0.1805
  657MOL0     H86699   1.562   7.359   3.216 -0.4336  0.7201 -1.4737
  657MOL0     H86700   1.543   7.134   3.019  1.5344 -2.9993 -0.0652
  657MOL0     H86701   1.659   7.134   3.151  3.2529  1.6689 -0.9411
  657MOL0     H86702   1.753   7.175   2.938  1.4682  0.0106  3.7007
  657MOL0     H86703   1.634   7.303   2.912  0.6286 -0.0247 -0.4209
  657MOL0     H86704   1.859   7.325   3.112  1.6768  1.8365  0.2176
  657MOL0     H86705   1.733   7.444   3.090  1.3590  1.2469  0.3480
  657MOL0     H86706   1.207   7.784   2.883  1.4145 -4.8456 -3.7760
  657MOL0     H86707   1.131   7.804   2.639  2.3075 -1.9026  0.3409
  657MOL0     H86708   0.962   7.924   2.245  1.0838 -1.8002 -1.3352
  657MOL0     H86709   0.899   7.889   2.017  0.3680 -1.0805  0.0823
  657MOL0     H86710   1.035   8.864   1.506 -0.9531 -0.9558 -2.4455
  657MOL0     H86711   1.139   9.081   1.545  0.6423 -0.3086 -0.8325
  657MOL0     H86712   1.359   9.475   1.710 -0.0989  2.7723 -2.1074
  657MOL0     H86713   1.385   9.701   1.787 -1.1006  1.6745 -1.4466
  657MOL0     H86714   1.090   9.890   2.073 -1.8704 -2.4637 -2.6028
  657MOL0     H86715   1.052   9.933   1.921  0.6061 -1.5992 -0.9289
  657MOL0     H86716   1.128  10.126   2.059  1.6019 -0.9804  3.5549
  657MOL0     H86717   1.289  10.060   2.076  0.0714 -2.3703 -0.3435
  657MOL0     H86718   1.168  10.161   1.814 -0.7883 -0.2164  0.4345
  657MOL0     H86719   1.331  10.084   1.826 -0.4676 -0.3307  0.2673
  657MOL0     H86720   1.316  10.325   1.813  1.0344 -0.4219 -0.0469
  657MOL0     H86721   1.260  10.342   1.967 -0.0849  1.4236 -0.4614
  657MOL0     H86722   1.689  10.245   1.958  0.2579  1.2024  1.3449
  657MOL0     H86723   0.959   9.722   1.878  0.0736  4.6352 -1.9506
  657MOL0     H86724   0.933   9.512   1.796 -1.1442  2.0398  0.0433
  658MOL0     O86725   9.168   2.477   6.489  0.1036 -0.3179  0.3780
  658MOL0     C86726   9.170   2.585   6.428 -0.4491 -0.0322  0.1965
  658MOL0     O86727   9.079   2.682   6.444  0.1896 -0.2918 -0.9465
  658MOL0     C86728   8.991   2.699   6.545  0.5752  0.3874 -0.5178
  658MOL0     C86729   8.889   2.800   6.518 -0.0441  0.0835 -0.3494
  658MOL0     C86730   8.777   2.816   6.604 -0.9250  0.5073  0.3459
  658MOL0     C86731   8.743   2.723   6.696 -0.7138  0.8894 -0.6239
  658MOL0     O86732   8.634   2.748   6.768 -0.4411  0.3291 -0.9578
  658MOL0     C86733   8.561   2.636   6.803 -0.6063  0.3648 -0.3988
  658MOL0     C86734   8.461   2.594   6.698  0.6001  0.4431 -0.4946
  658MOL0     C86735   8.338   2.517   6.758 -0.0491 -0.0740  1.3099
  658MOL0     C86736   8.245   2.447   6.658 -0.2973  0.2912 -0.1482
  658MOL0     C86737   8.164   2.340   6.726  0.7453 -0.1526  0.6823
  658MOL0     C86738   8.067   2.409   6.827  0.8368 -0.1082  0.6289
  658MOL0     C86739   7.938   2.324   6.861  1.1221  0.2388 -0.5911
  658MOL0     C86740   7.838   2.393   6.956  1.1038 -0.7238 -0.0843
  658MOL0     N86741   7.737   2.298   7.017 -0.3449 -0.1882 -0.1947
  658MOL0     C86742   7.612   2.277   6.979 -0.8011 -0.1758 -0.3037
  658MOL0     C86743   7.556   2.207   7.075 -0.4443  0.5888 -0.2984
  658MOL0     C86744   7.414   2.151   7.082  0.2088 -0.0190  0.2161
  658MOL0     C86745   7.336   2.225   7.179 -0.1876 -0.0202 -0.0745
  658MOL0     C86746   7.232   2.304   7.099 -0.9547  0.0418  0.8799
  658MOL0     C86747   7.145   2.394   7.184 -0.0418 -0.5035 -0.0423
  658MOL0     O86748   7.092   2.502   7.113  0.1426 -0.0802  0.4359
  658MOL0     C86749   7.160   2.615   7.090  0.2071  0.2933 -0.1663
  658MOL0     C86750   7.285   2.663   7.134  0.4808  0.0382 -0.3028
  658MOL0     C86751   7.329   2.793   7.122 -0.3048  1.2783  0.3287
  658MOL0     C86752   7.245   2.873   7.034 -1.4124  0.0698  0.7049
  658MOL0     C86753   7.295   3.010   6.998 -0.0595 -1.0523 -0.1523
  658MOL0     O86754   7.205   3.106   7.004  0.6413 -0.3264  0.5296
  658MOL0     C86755   7.249   3.227   6.966  0.3598 -1.0595 -0.6740
  658MOL0     C86756   7.320   3.261   6.855 -0.8116  0.2697 -0.2219
  658MOL0     C86757   7.327   3.397   6.822  0.0047  0.0263  0.2178
  658MOL0     C86758   7.265   3.504   6.893  0.9039  0.0929 -0.2545
  658MOL0     O86759   7.270   3.631   6.848 -0.4031 -0.2002 -0.4992
  658MOL0     C86760   7.311   3.730   6.948  0.5454  0.8122  0.3878
  658MOL0     C86761   7.347   3.865   6.874 -0.4396  0.2916 -0.3278
  658MOL0     C86762   7.402   3.973   6.967  0.7506 -0.0831  2.0605
  658MOL0     C86763   7.391   4.121   6.898  0.6083  0.4065 -0.4202
  658MOL0     C86764   7.476   4.137   6.782 -0.2389 -0.1885 -0.8471
  658MOL0     C86765   7.628   4.155   6.807 -0.2893 -0.7136 -0.1284
  658MOL0     C86766   7.700   4.247   6.703  0.3972  0.2877 -0.4972
  658MOL0     C86767   7.850   4.261   6.720  0.3869 -0.9826 -0.1718
  658MOL0    Cl86768   7.904   4.269   6.894 -0.4000  0.0837 -0.3176
  658MOL0     C86769   7.201   3.471   7.010  0.2448 -0.5235 -0.3596
  658MOL0     C86770   7.192   3.332   7.039 -0.4813 -0.7929  0.0380
  658MOL0     O86771   7.415   3.041   7.010  0.4009 -0.0933 -0.4826
  658MOL0     C86772   7.128   2.821   6.983  0.4941 -0.0211  0.3334
  658MOL0     C86773   7.081   2.697   7.014 -0.0512 -1.0431 -0.6724
  658MOL0     N86774   7.645   2.191   7.173 -0.7488 -0.0404 -1.1369
  658MOL0     N86775   7.759   2.248   7.139  0.5731  0.1901 -0.2975
  658MOL0     C86776   8.843   2.618   6.720  0.3837 -0.9220 -0.0059
  658MOL0     C86777   8.968   2.613   6.655 -0.4305 -0.3403 -0.2626
  658MOL0     C86778   9.253   2.592   6.313 -0.4517 -0.1153  0.5709
  658MOL0     C86779   9.390   2.570   6.302 -0.1759  0.6528 -0.5443
  658MOL0     C86780   9.466   2.603   6.193  0.4611 -0.2157 -0.1385
  658MOL0     C86781   9.411   2.650   6.074 -1.0529 -1.2702  0.7028
  658MOL0     O86782   9.487   2.677   5.961 -0.0437  0.0579  0.3385
  658MOL0     C86783   9.564   2.566   5.908  0.1010 -0.0593  1.0133
  658MOL0     C86784   9.468   2.492   5.803  0.4704  0.9322 -0.0207
  658MOL0     C86785   9.523   2.343   5.784  0.0775  0.1683  0.1088
  658MOL0     C86786   9.671   2.306   5.811  0.4846 -0.9475 -0.5365
  658MOL0     C86787   9.752   2.394   5.725  0.1745  0.3838 -0.0123
  658MOL0     C86788   9.819   2.476   5.660 -0.2332  0.0210 -0.0617
  658MOL0     C86789   9.281   2.676   6.075  0.1267 -0.1006  0.0288
  658MOL0     C86790   9.195   2.642   6.187 -0.3334 -0.0745  0.1849
  658MOL0     H86791   8.905   2.864   6.432  1.0638 -0.1923 -0.3686
  658MOL0     H86792   8.707   2.894   6.575 -1.6912 -0.2002  0.2600
  658MOL0     H86793   8.519   2.674   6.897  4.1798  2.3359  1.2482
  658MOL0     H86794   8.618   2.547   6.832 -0.2412  0.7183 -0.0332
  658MOL0     H86795   8.498   2.521   6.625 -1.2149  0.2777 -1.3285
  658MOL0     H86796   8.423   2.679   6.640 -0.1125 -0.0180 -0.7279
  658MOL0     H86797   8.292   2.599   6.814 -1.2638 -0.4856  0.9384
  658MOL0     H86798   8.367   2.440   6.830 -0.8388 -1.1181  0.5422
  658MOL0     H86799   8.182   2.511   6.595 -0.9300 -2.7196 -2.8163
  658MOL0     H86800   8.305   2.409   6.574  1.7260  1.8845  0.4703
  658MOL0     H86801   8.232   2.277   6.784 -1.2199 -1.9881  1.1371
  658MOL0     H86802   8.115   2.278   6.651 -0.2142 -1.4133  2.2856
  658MOL0     H86803   8.045   2.506   6.781  1.2864 -0.8720 -1.2877
  658MOL0     H86804   8.120   2.426   6.921 -2.6916  2.1377  2.4477
  658MOL0     H86805   7.891   2.303   6.764 -0.3031  1.5501 -0.2348
  658MOL0     H86806   7.966   2.230   6.909 -0.3193 -0.6880 -1.4831
  658MOL0     H86807   7.787   2.473   6.902 -1.2672 -1.9603  0.1977
  658MOL0     H86808   7.899   2.427   7.040 -0.2147  1.0073  0.2224
  658MOL0     H86809   7.573   2.299   6.880  1.7713  6.2065 -0.3517
  658MOL0     H86810   7.412   2.044   7.106 -0.4706 -0.0066  0.2458
  658MOL0     H86811   7.365   2.141   6.985  0.9069 -0.5339 -0.0913
  658MOL0     H86812   7.402   2.293   7.234  2.1723 -2.2757  0.0711
  658MOL0     H86813   7.283   2.159   7.250 -0.9033  0.5360 -0.0788
  658MOL0     H86814   7.282   2.366   7.024 -3.5674  1.3297  0.0640
  658MOL0     H86815   7.172   2.237   7.038  1.7429  0.0651 -2.0696
  658MOL0     H86816   7.198   2.426   7.274 -1.3090 -1.5430  1.1171
  658MOL0     H86817   7.055   2.349   7.226 -1.8514  2.2087 -0.7816
  658MOL0     H86818   7.349   2.593   7.187 -3.0378 -1.9351  1.7083
  658MOL0     H86819   7.423   2.805   7.173  0.7489  1.6008 -1.6066
  658MOL0     H86820   7.368   3.187   6.792  2.2959  0.6335  1.5090
  658MOL0     H86821   7.367   3.431   6.727  1.9010 -2.2362  0.1256
  658MOL0     H86822   7.396   3.696   7.007  0.1692 -1.6919 -0.3726
  658MOL0     H86823   7.222   3.756   7.006  1.7724  2.4537  1.6227
  658MOL0     H86824   7.254   3.891   6.823 -0.9485 -0.3401  0.2635
  658MOL0     H86825   7.420   3.843   6.796  0.5025  1.5417  0.1597
  658MOL0     H86826   7.509   3.956   6.979  1.7849  3.3766 -0.5200
  658MOL0     H86827   7.340   3.976   7.057 -0.3424  3.0946  1.3458
  658MOL0     H86828   7.294   4.161   6.867  0.5986  0.6799 -0.0451
  658MOL0     H86829   7.426   4.199   6.966 -0.9446  1.7168 -1.0603
  658MOL0     H86830   7.450   4.238   6.749 -1.8196 -0.0248  0.7698
  658MOL0     H86831   7.448   4.072   6.699 -2.5100 -0.5979  0.1575
  658MOL0     H86832   7.681   4.059   6.808 -1.4777 -1.3937  0.3282
  658MOL0     H86833   7.644   4.207   6.902 -0.9724  1.3824 -1.1089
  658MOL0     H86834   7.683   4.206   6.603  1.9046  3.6811 -2.3409
  658MOL0     H86835   7.642   4.340   6.711 -3.1604 -1.9069  2.4205
  658MOL0     H86836   7.885   4.342   6.656 -2.9128  2.7087  2.2618
  658MOL0     H86837   7.892   4.167   6.682  2.0702 -2.2799  4.2462
  658MOL0     H86838   7.156   3.550   7.070  1.2639  1.6044 -2.2369
  658MOL0     H86839   7.123   3.322   7.121  0.1212  1.5058  0.9114
  658MOL0     H86840   7.073   2.883   6.913  0.1000 -1.6632 -0.8744
  658MOL0     H86841   6.982   2.666   6.982  0.0184 -2.9499  0.7897
  658MOL0     H86842   8.830   2.535   6.788  0.0006 -1.3104 -0.5376
  658MOL0     H86843   9.039   2.536   6.682 -2.1155 -1.1585  2.1692
  658MOL0     H86844   9.446   2.525   6.383  1.1953 -1.2519 -2.4619
  658MOL0     H86845   9.574   2.591   6.191  0.6356  1.0466  0.4312
  658MOL0     H86846   9.609   2.501   5.983  0.2736 -0.2896  0.7120
  658MOL0     H86847   9.651   2.608   5.856 -2.0194  0.8071 -2.1771
  658MOL0     H86848   9.362   2.489   5.831  0.3857 -1.6226 -0.3789
  658MOL0     H86849   9.492   2.543   5.710  1.3626 -3.0403 -2.2004
  658MOL0     H86850   9.503   2.311   5.681 -1.0603  1.9643 -0.2614
  658MOL0     H86851   9.461   2.282   5.851 -1.0578 -0.0525 -1.0981
  658MOL0     H86852   9.700   2.319   5.916 -0.7211  3.3699 -0.5356
  658MOL0     H86853   9.683   2.201   5.785  1.0795 -1.0036 -0.0484
  658MOL0     H86854   9.883   2.548   5.612  0.2750 -0.4601 -0.1071
  658MOL0     H86855   9.224   2.719   5.994 -0.0843 -1.3435 -0.5011
  658MOL0     H86856   9.090   2.662   6.171 -0.3767 -0.2092  0.2980
  659MOL0     O86857   7.993   3.692   8.241  0.2619 -0.7076 -1.1210
  659MOL0     C86858   8.087   3.637   8.285  0.3557 -0.6167  0.1651
  659MOL0     O86859   8.210   3.652   8.237 -0.1168 -0.5276  0.1723
  659MOL0     C86860   8.223   3.677   8.103  0.9440  0.5512 -0.2116
  659MOL0     C86861   8.197   3.810   8.056 -0.2115 -0.0909 -0.2520
  659MOL0     C86862   8.197   3.852   7.925 -0.7445 -0.2758 -0.3919
  659MOL0     C86863   8.234   3.750   7.827 -0.1370  0.4580 -1.0540
  659MOL0     O86864   8.234   3.773   7.692 -0.7511 -0.1055  0.1703
  659MOL0     C86865   8.154   3.882   7.634 -0.8422  0.6615 -0.4351
  659MOL0     C86866   8.137   3.876   7.482  0.8922 -0.1967 -0.3201
  659MOL0     C86867   8.266   3.922   7.409  0.4477 -0.3575 -0.2944
  659MOL0     C86868   8.253   3.872   7.265 -1.4139 -1.0547 -0.4726
  659MOL0     C86869   8.379   3.894   7.189  0.5944  0.1144 -0.2254
  659MOL0     C86870   8.398   3.833   7.051  1.0792  0.8950 -0.2902
  659MOL0     C86871   8.320   3.917   6.952 -0.0563 -0.0738  0.7548
  659MOL0     C86872   8.277   3.814   6.845 -0.4720  1.1556 -0.5584
  659MOL0     N86873   8.232   3.869   6.720  0.0871  0.2129 -0.2803
  659MOL0     C86874   8.290   3.962   6.636  0.1988  0.1045  0.7667
  659MOL0     C86875   8.225   3.938   6.510  0.2702 -0.3246  0.3579
  659MOL0     C86876   8.253   4.017   6.387  1.0771 -0.4140 -1.5081
  659MOL0     C86877   8.208   3.946   6.257  0.9238  0.0585 -0.5667
  659MOL0     C86878   8.050   3.934   6.240  0.1706 -0.3405 -0.2004
  659MOL0     C86879   8.007   3.894   6.106 -0.0829 -0.0382 -0.0970
  659MOL0     O86880   8.043   3.998   6.017  0.5718 -0.3990  0.2885
  659MOL0     C86881   7.943   4.095   6.012  0.7689 -0.0776 -0.5508
  659MOL0     C86882   7.982   4.229   6.027  0.5494 -0.0281 -0.0900
  659MOL0     C86883   7.890   4.336   6.016 -0.4793  0.0761 -0.3808
  659MOL0     C86884   7.761   4.314   5.977  0.1670 -0.8691  0.6926
  659MOL0     C86885   7.669   4.420   5.938  0.0255  0.1837 -0.4183
  659MOL0     O86886   7.541   4.378   5.886  0.3583  0.1162 -0.4149
  659MOL0     C86887   7.471   4.450   5.787  0.5397 -0.3188 -0.0313
  659MOL0     C86888   7.532   4.512   5.683 -0.5825  0.1077  0.1537
  659MOL0     C86889   7.458   4.598   5.598 -0.3561  0.0095 -0.7486
  659MOL0     C86890   7.317   4.613   5.609  0.2876 -0.1846 -0.2339
  659MOL0     O86891   7.248   4.713   5.537  0.3537  0.2395  0.7402
  659MOL0     C86892   7.105   4.735   5.566 -0.5214 -0.2877 -0.1791
  659MOL0     C86893   7.060   4.841   5.473 -0.3964  0.3395  0.0434
  659MOL0     C86894   7.082   4.978   5.546 -0.3502 -0.0784  0.4541
  659MOL0     C86895   7.041   5.098   5.457 -0.4058 -0.5653 -0.7011
  659MOL0     C86896   7.080   5.235   5.529 -0.4136 -0.4786 -0.2121
  659MOL0     C86897   7.098   5.355   5.436 -0.6546  0.3987 -0.2378
  659MOL0     C86898   7.158   5.484   5.517 -0.6585  0.0592  0.7967
  659MOL0     C86899   7.222   5.592   5.428 -0.4852 -0.2526 -0.5608
  659MOL0    Cl86900   7.111   5.612   5.287 -0.4074  0.4174  0.3971
  659MOL0     C86901   7.255   4.523   5.698 -0.0704  0.2095  0.5205
  659MOL0     C86902   7.325   4.446   5.787 -0.1028  0.4204 -0.2950
  659MOL0     O86903   7.702   4.537   5.971  0.1403 -1.1807 -0.1133
  659MOL0     C86904   7.720   4.188   5.962 -0.3972  1.0442 -0.3064
  659MOL0     C86905   7.806   4.078   5.975 -0.0086  0.9363 -0.5440
  659MOL0     N86906   8.135   3.833   6.522  0.3732  0.4208 -1.0903
  659MOL0     N86907   8.137   3.799   6.646  0.2154 -0.2591 -0.1919
  659MOL0     C86908   8.274   3.624   7.873 -0.5437  0.0769  0.2740
  659MOL0     C86909   8.265   3.585   8.009  0.4518 -0.5162  0.3049
  659MOL0     C86910   8.070   3.528   8.379 -0.3778  0.9936 -0.4761
  659MOL0     C86911   7.951   3.448   8.385 -0.8566  0.5469  0.0954
  659MOL0     C86912   7.944   3.344   8.476 -0.7519 -0.4430 -0.4370
  659MOL0     C86913   8.053   3.314   8.555 -0.3605  0.8915 -0.9473
  659MOL0     O86914   8.062   3.197   8.632 -0.2015  0.1671 -0.2442
  659MOL0     C86915   8.004   3.074   8.578  0.1582 -0.2103 -0.1518
  659MOL0     C86916   7.892   3.036   8.679  0.0325  0.0226 -0.2846
  659MOL0     C86917   7.785   2.950   8.596  0.4817 -0.5171 -0.8165
  659MOL0     C86918   7.645   2.968   8.653 -0.1042  0.4498 -0.3767
  659MOL0     C86919   7.633   2.958   8.797 -0.3844 -0.7255  0.1056
  659MOL0     C86920   7.621   2.952   8.919 -0.8812  0.0842  0.1476
  659MOL0     C86921   8.166   3.391   8.554 -0.0041  0.9865 -0.9561
  659MOL0     C86922   8.174   3.498   8.468 -0.4811 -0.0463 -0.4348
  659MOL0     H86923   8.172   3.881   8.134 -0.7856  0.4848 -0.9436
  659MOL0     H86924   8.152   3.948   7.900 -0.7741 -0.1193  0.2383
  659MOL0     H86925   8.202   3.979   7.650  0.8846 -0.3036  0.6528
  659MOL0     H86926   8.060   3.895   7.689  0.1456  0.3308  1.4311
  659MOL0     H86927   8.048   3.935   7.460 -0.4286 -1.3478  1.6018
  659MOL0     H86928   8.120   3.773   7.449 -0.1455  0.4563 -1.9163
  659MOL0     H86929   8.357   3.890   7.460  1.2062 -1.3630 -2.1731
  659MOL0     H86930   8.277   4.030   7.405  1.8852 -0.5061 -0.7639
  659MOL0     H86931   8.218   3.769   7.264 -4.1316 -0.3599  2.9451
  659MOL0     H86932   8.170   3.931   7.224 -0.6916 -0.8078 -1.6345
  659MOL0     H86933   8.466   3.875   7.251  1.0080  1.4931 -0.3504
  659MOL0     H86934   8.384   4.003   7.190 -1.2158  0.3214  3.4423
  659MOL0     H86935   8.369   3.728   7.038  3.3341  0.5622 -4.3814
  659MOL0     H86936   8.505   3.838   7.030  1.1250 -1.3769 -0.8160
  659MOL0     H86937   8.234   3.964   7.000  1.0110  0.3024  2.3781
  659MOL0     H86938   8.391   3.995   6.921  0.4180 -0.6033  0.4994
  659MOL0     H86939   8.197   3.754   6.890  1.2544  0.6550  2.0496
  659MOL0     H86940   8.354   3.743   6.813 -0.7894  0.8271 -0.6022
  659MOL0     H86941   8.356   4.044   6.664 -0.3920  1.5305 -1.6982
  659MOL0     H86942   8.362   4.027   6.393  0.9473  0.9761 -1.2078
  659MOL0     H86943   8.204   4.115   6.391 -2.6420 -2.1508  1.4881
  659MOL0     H86944   8.251   3.846   6.266  0.9256  0.1664  0.9348
  659MOL0     H86945   8.259   3.992   6.172  1.5217  1.2064  0.3854
  659MOL0     H86946   7.996   3.880   6.318  1.2139  1.8299  2.1530
  659MOL0     H86947   8.005   4.028   6.273 -0.0501 -1.8302  4.5756
  659MOL0     H86948   7.902   3.866   6.100  0.2063 -0.9147 -1.6207
  659MOL0     H86949   8.069   3.813   6.065  0.6642  1.5020 -2.1833
  659MOL0     H86950   8.085   4.235   6.063  0.0266 -0.9948  1.6525
  659MOL0     H86951   7.934   4.432   6.037 -1.4374  0.4173  0.1148
  659MOL0     H86952   7.637   4.497   5.660 -1.0284 -4.3564  0.2317
  659MOL0     H86953   7.506   4.662   5.524 -3.0218  1.4592 -1.3416
  659MOL0     H86954   7.076   4.736   5.671 -1.9980  1.0051 -0.5549
  659MOL0     H86955   7.052   4.648   5.527 -1.0209  0.1537 -0.4937
  659MOL0     H86956   6.951   4.831   5.469 -0.3723 -0.3463  0.8175
  659MOL0     H86957   7.111   4.840   5.377 -0.1563 -2.3229  0.1374
  659MOL0     H86958   7.190   4.977   5.556 -0.4634 -1.6095  2.0022
  659MOL0     H86959   7.032   4.975   5.644  1.2316  0.8810  1.3236
  659MOL0     H86960   7.101   5.083   5.367  0.8333 -3.0791  0.4674
  659MOL0     H86961   6.938   5.104   5.420 -0.6980  1.2586  0.2907
  659MOL0     H86962   7.173   5.222   5.585 -1.1165  0.6583  1.2979
  659MOL0     H86963   7.006   5.261   5.606  2.2887  3.6184  1.3432
  659MOL0     H86964   7.000   5.385   5.396 -0.7353  0.1190 -0.2522
  659MOL0     H86965   7.167   5.334   5.354  0.0412  0.5350  0.3072
  659MOL0     H86966   7.078   5.524   5.580 -0.6022  3.7050 -1.2005
  659MOL0     H86967   7.237   5.458   5.588  1.1673  2.0602 -0.3986
  659MOL0     H86968   7.313   5.538   5.400 -0.5912 -0.1198 -1.1867
  659MOL0     H86969   7.257   5.685   5.474  1.4207 -2.1049  1.9618
  659MOL0     H86970   7.148   4.529   5.714  0.2351  0.8456  2.5550
  659MOL0     H86971   7.270   4.400   5.869  0.0489  0.9567  0.1148
  659MOL0     H86972   7.618   4.154   5.951 -0.1533  0.0828  0.2746
  659MOL0     H86973   7.772   3.977   5.957  1.1346  0.3032  0.6906
  659MOL0     H86974   8.305   3.558   7.792 -0.0360 -0.8301  1.1779
  659MOL0     H86975   8.285   3.487   8.050 -0.6706 -0.8613  0.0451
  659MOL0     H86976   7.866   3.474   8.323 -1.3786  3.1837  1.7285
  659MOL0     H86977   7.860   3.280   8.500  2.1383 -3.9230  1.3482
  659MOL0     H86978   8.078   2.994   8.578  0.3031 -0.0831 -0.8457
  659MOL0     H86979   7.972   3.089   8.474 -3.3903 -1.8292  0.5294
  659MOL0     H86980   7.927   2.983   8.769 -0.1042  0.4427  0.0210
  659MOL0     H86981   7.846   3.126   8.723 -0.0910 -0.7902  1.3275
  659MOL0     H86982   7.811   2.845   8.611 -0.6543 -0.5322  1.3966
  659MOL0     H86983   7.791   2.970   8.488 -2.4056 -0.5104 -1.0569
  659MOL0     H86984   7.599   3.064   8.626 -2.8597 -0.8638 -0.7624
  659MOL0     H86985   7.583   2.887   8.613  3.7860 -2.8387 -0.3467
  659MOL0     H86986   7.601   2.949   9.024  0.7851  4.0950  0.7360
  659MOL0     H86987   8.257   3.365   8.607 -0.8406 -1.9660 -0.7864
  659MOL0     H86988   8.257   3.563   8.442  0.6399 -0.8014  1.0397
  660MOL0     O86989   6.767   5.096   8.122 -0.6371  0.4671 -0.5499
  660MOL0     C86990   6.755   5.118   8.247 -0.5633  0.3656 -0.3599
  660MOL0     O86991   6.635   5.128   8.314 -0.3556  0.1566 -0.5586
  660MOL0     C86992   6.512   5.132   8.252  0.0073 -0.5892  0.3122
  660MOL0     C86993   6.453   5.255   8.228  0.9735 -0.1274  0.9352
  660MOL0     C86994   6.335   5.269   8.155 -1.1643 -0.7385 -0.4283
  660MOL0     C86995   6.288   5.159   8.077  0.7549 -0.3512  0.5572
  660MOL0     O86996   6.167   5.167   8.012 -0.6584 -0.2538  0.3839
  660MOL0     C86997   6.176   5.209   7.870  0.6651 -0.0063 -0.1871
  660MOL0     C86998   6.062   5.300   7.831  0.6746  0.1013 -0.2261
  660MOL0     C86999   6.056   5.414   7.929 -0.7633 -0.9086 -0.4815
  660MOL0     C87000   5.962   5.525   7.888 -0.4575  0.6973 -0.3541
  660MOL0     C87001   5.952   5.627   8.011  0.4892 -0.0382  0.0411
  660MOL0     C87002   5.876   5.749   7.949  0.2056  0.6358  0.0888
  660MOL0     C87003   5.863   5.875   8.044 -0.1529  0.2540  0.7844
  660MOL0     C87004   5.778   5.848   8.168  0.0075 -0.6080 -0.7853
  660MOL0     N87005   5.843   5.793   8.287 -0.3296  0.0543  0.1081
  660MOL0     C87006   5.785   5.752   8.401 -0.3765  0.1245  1.1189
  660MOL0     C87007   5.891   5.737   8.481 -0.7630  0.7154 -0.0492
  660MOL0     C87008   5.896   5.697   8.628  1.0437  0.9185  0.9292
  660MOL0     C87009   5.786   5.777   8.712 -0.8939 -0.5734  0.0558
  660MOL0     C87010   5.825   5.927   8.686  0.8209  0.0241 -1.0231
  660MOL0     C87011   5.968   5.966   8.728  0.4501 -0.1842  0.0820
  660MOL0     O87012   5.974   5.990   8.870 -0.0725  0.5105 -0.3307
  660MOL0     C87013   5.901   6.101   8.913 -0.8950 -1.4491  2.0114
  660MOL0     C87014   5.940   6.231   8.876  0.0557  0.7711 -0.3738
  660MOL0     C87015   5.851   6.334   8.895 -0.3273  0.6687 -0.5976
  660MOL0     C87016   5.727   6.318   8.961 -0.1699  1.1387  0.0572
  660MOL0     C87017   5.634   6.432   8.983 -0.1004 -1.1011  0.1174
  660MOL0     O87018   5.513   6.404   9.029  0.0415 -0.7440 -0.1520
  660MOL0     C87019   5.430   6.512   9.064 -0.3213 -0.9368 -0.4966
  660MOL0     C87020   5.414   6.555   9.195 -0.2335  0.1426  0.2559
  660MOL0     C87021   5.333   6.661   9.236 -0.5380  0.1870 -0.1711
  660MOL0     C87022   5.237   6.704   9.138  0.2029  0.6281 -0.7783
  660MOL0     O87023   5.138   6.799   9.169 -0.0360  0.1780  0.1637
  660MOL0     C87024   5.056   6.780   9.282  0.5958 -0.4710 -0.1194
  660MOL0     C87025   4.916   6.838   9.270 -0.1846  1.9340 -0.1366
  660MOL0     C87026   4.910   6.986   9.281  0.0125  0.2065  0.7035
  660MOL0     C87027   4.778   7.033   9.337  0.0347  0.2164 -1.0334
  660MOL0     C87028   4.771   7.184   9.378  0.0656  0.1585 -0.0773
  660MOL0     C87029   4.627   7.235   9.378 -0.6508  0.4572 -0.0840
  660MOL0     C87030   4.572   7.249   9.239  0.3795 -0.5232 -0.6478
  660MOL0     C87031   4.580   7.387   9.175 -0.9335  0.3526 -0.1348
  660MOL0    Cl87032   4.491   7.520   9.258 -0.1078  0.1012  0.0242
  660MOL0     C87033   5.247   6.658   9.006 -0.4486 -0.1709  0.7462
  660MOL0     C87034   5.346   6.564   8.970  1.2585 -0.5113 -0.4324
  660MOL0     O87035   5.670   6.547   8.950  0.8105 -0.2381 -0.6848
  660MOL0     C87036   5.703   6.181   8.995 -0.1052  0.3041  0.2500
  660MOL0     C87037   5.798   6.089   8.990  1.0539 -0.0478  0.1644
  660MOL0     N87038   6.002   5.781   8.421 -0.8200 -0.4555  0.4291
  660MOL0     N87039   5.976   5.801   8.302 -0.9087  0.5937 -0.1228
  660MOL0     C87040   6.351   5.035   8.101 -0.5149 -0.8236  0.3556
  660MOL0     C87041   6.460   5.019   8.193  0.1638  0.3565  0.9100
  660MOL0     C87042   6.878   5.136   8.328 -0.0677 -0.1827  0.2637
  660MOL0     C87043   6.873   5.217   8.437  0.0352 -0.7814  0.3081
  660MOL0     C87044   6.983   5.230   8.522  0.0067  0.9308  0.1356
  660MOL0     C87045   7.102   5.157   8.489  0.5932 -1.0101 -0.0738
  660MOL0     O87046   7.223   5.167   8.564 -0.5428 -0.3487  0.7463
  660MOL0     C87047   7.234   5.074   8.685 -0.0803  0.2817  0.4960
  660MOL0     C87048   7.155   5.121   8.804 -0.2034 -0.4161 -0.2850
  660MOL0     C87049   7.172   5.269   8.840  0.6399  0.3585  0.1844
  660MOL0     C87050   7.069   5.315   8.942  0.1513 -0.6780 -0.9571
  660MOL0     C87051   7.094   5.252   9.071  0.9589 -0.3738 -0.0006
  660MOL0     C87052   7.122   5.196   9.171 -1.2224  0.0398 -0.2912
  660MOL0     C87053   7.105   5.080   8.372  1.2422  0.3192 -0.8001
  660MOL0     C87054   6.996   5.077   8.280 -0.9012  0.7555 -0.6629
  660MOL0     H87055   6.491   5.338   8.286  1.7548 -1.9810  3.2079
  660MOL0     H87056   6.291   5.368   8.154  0.0495 -0.1897 -1.0888
  660MOL0     H87057   6.161   5.120   7.809  0.1039 -0.0517  0.0037
  660MOL0     H87058   6.275   5.253   7.858  1.9420 -2.3758  1.0763
  660MOL0     H87059   5.966   5.248   7.835  1.5012 -1.5066 -0.4234
  660MOL0     H87060   6.082   5.340   7.731  1.6349 -0.1616 -0.1478
  660MOL0     H87061   6.156   5.456   7.938 -2.5599  3.7532  0.9312
  660MOL0     H87062   6.041   5.376   8.030  0.5222 -1.6288 -0.5485
  660MOL0     H87063   6.012   5.583   7.810 -0.2965  3.2002  1.4562
  660MOL0     H87064   5.865   5.494   7.849 -1.1311 -0.9446  2.3612
  660MOL0     H87065   6.048   5.661   8.052  0.4509  1.0965 -0.7796
  660MOL0     H87066   5.889   5.579   8.086 -0.2747  0.4991 -0.2518
  660MOL0     H87067   5.777   5.724   7.912 -0.0660 -2.8836  2.6285
  660MOL0     H87068   5.937   5.786   7.866 -0.9172 -0.0532 -1.0784
  660MOL0     H87069   5.960   5.921   8.065 -1.6699  4.5327 -0.5912
  660MOL0     H87070   5.819   5.957   7.986  0.3191 -0.3592 -0.4813
  660MOL0     H87071   5.689   5.789   8.143  0.1644 -0.8420 -0.7911
  660MOL0     H87072   5.742   5.948   8.195  2.4085  0.7416 -2.2259
  660MOL0     H87073   5.677   5.738   8.412 -0.4773  0.7082  0.9250
  660MOL0     H87074   5.999   5.692   8.662  0.7273 -1.1987  1.7737
  660MOL0     H87075   5.859   5.594   8.635  2.0885  0.5236  0.7268
  660MOL0     H87076   5.774   5.763   8.819 -1.3697 -2.1901 -0.1882
  660MOL0     H87077   5.690   5.751   8.666 -0.9602  0.4929 -0.4434
  660MOL0     H87078   5.822   5.956   8.581  1.2856  1.7226 -0.6034
  660MOL0     H87079   5.743   5.979   8.737 -0.1062 -2.3834  0.0831
  660MOL0     H87080   6.007   6.057   8.682  0.9927 -1.4509 -2.1371
  660MOL0     H87081   6.040   5.887   8.704  0.4614  0.6933 -3.3212
  660MOL0     H87082   6.034   6.248   8.824  1.1861  1.4698  1.7965
  660MOL0     H87083   5.876   6.432   8.857 -0.9192  0.8710 -0.4718
  660MOL0     H87084   5.479   6.527   9.277 -0.8021 -1.2967  0.2494
  660MOL0     H87085   5.327   6.708   9.334  0.3209  1.0212 -0.4988
  660MOL0     H87086   5.114   6.789   9.375  1.1191  1.2577 -0.5792
  660MOL0     H87087   5.038   6.672   9.287 -0.2346 -0.3386 -0.1651
  660MOL0     H87088   4.856   6.787   9.347 -2.4301  0.6336 -2.5926
  660MOL0     H87089   4.862   6.802   9.182 -2.1370  1.7043  1.0916
  660MOL0     H87090   4.930   7.030   9.183  0.9671 -2.0420 -0.1756
  660MOL0     H87091   4.986   7.022   9.350 -0.0287  2.4747 -0.3494
  660MOL0     H87092   4.690   7.022   9.273 -1.8405  2.1651  1.0115
  660MOL0     H87093   4.762   6.992   9.437  0.6918 -0.1475 -1.0726
  660MOL0     H87094   4.827   7.254   9.315 -0.1197  1.1362  0.8223
  660MOL0     H87095   4.812   7.185   9.479 -0.6403  0.8662  0.2129
  660MOL0     H87096   4.614   7.332   9.427 -0.7066 -0.8587  2.6754
  660MOL0     H87097   4.563   7.168   9.434 -1.2299  1.3022  0.2867
  660MOL0     H87098   4.619   7.180   9.169  3.6515  1.0536 -0.1699
  660MOL0     H87099   4.464   7.229   9.237  0.4952 -1.2058 -0.1755
  660MOL0     H87100   4.545   7.371   9.073  1.7317 -1.6607 -0.8466
  660MOL0     H87101   4.688   7.397   9.161 -1.1942  1.4996 -1.6241
  660MOL0     H87102   5.184   6.695   8.925  2.9683  1.5893 -1.3381
  660MOL0     H87103   5.353   6.541   8.865 -1.9958  1.6327 -1.2674
  660MOL0     H87104   5.620   6.161   9.063  1.4422  2.0080  2.8135
  660MOL0     H87105   5.793   5.991   9.038  0.2444 -0.2140 -0.2431
  660MOL0     H87106   6.309   4.944   8.059 -1.4243  0.7414 -2.4231
  660MOL0     H87107   6.498   4.918   8.205  0.5962  0.2651 -0.9615
  660MOL0     H87108   6.781   5.272   8.452  0.3735 -0.1054 -0.0769
  660MOL0     H87109   6.987   5.267   8.624  1.7836  2.5614 -0.4595
  660MOL0     H87110   7.341   5.084   8.708  0.0822  1.7045 -0.7283
  660MOL0     H87111   7.211   4.968   8.673 -0.2957  0.3709  0.1287
  660MOL0     H87112   7.048   5.110   8.786 -0.7125 -1.0752  2.6820
  660MOL0     H87113   7.186   5.050   8.880  2.0147 -3.0116 -3.3402
  660MOL0     H87114   7.165   5.328   8.748  1.5227  0.6750  0.3109
  660MOL0     H87115   7.276   5.278   8.872  0.2592  0.0423  1.5880
  660MOL0     H87116   7.086   5.424   8.945 -1.0121 -0.3745 -3.2354
  660MOL0     H87117   6.968   5.292   8.909 -0.3405 -2.7314  1.7035
  660MOL0     H87118   7.161   5.165   9.266 -1.8183 -1.3686 -0.4745
  660MOL0     H87119   7.193   5.022   8.348  2.1097  1.4434 -0.4060
  660MOL0     H87120   7.008   5.024   8.187 -0.8877  3.5774 -2.3642
  661MOL0     O87121   7.273   1.478   5.402  0.5847  0.1938  1.1813
  661MOL0     C87122   7.291   1.500   5.281 -0.3698  0.4277 -0.4940
  661MOL0     O87123   7.211   1.478   5.177 -0.3556  0.1758  0.1359
  661MOL0     C87124   7.091   1.410   5.209 -0.1934  0.7325 -0.1231
  661MOL0     C87125   6.972   1.476   5.252 -0.4817  0.7519 -0.6087
  661MOL0     C87126   6.853   1.398   5.272  0.1282 -0.0505  0.6620
  661MOL0     C87127   6.857   1.257   5.254  0.1826  0.4297 -0.4229
  661MOL0     O87128   6.749   1.171   5.260  0.6393 -0.4420 -0.6483
  661MOL0     C87129   6.632   1.225   5.324  0.3882 -0.8355 -0.3679
  661MOL0     C87130   6.515   1.139   5.339 -0.5006 -0.5669 -0.0614
  661MOL0     C87131   6.461   1.108   5.204  0.1225  0.2043 -0.3115
  661MOL0     C87132   6.313   1.054   5.185 -1.2302  1.2776  1.0142
  661MOL0     C87133   6.312   0.902   5.196  0.2910  0.5850  0.5140
  661MOL0     C87134   6.221   0.834   5.303  0.0440  0.0461 -0.7712
  661MOL0     C87135   6.211   0.681   5.302 -0.1570 -0.4233  0.1402
  661MOL0     C87136   6.339   0.624   5.369 -0.2169 -0.3916  0.1225
  661MOL0     N87137   6.344   0.481   5.379 -0.1411  0.4269  0.3850
  661MOL0     C87138   6.406   0.412   5.472 -0.0373 -0.0868 -1.5155
  661MOL0     C87139   6.351   0.291   5.467 -0.0038  1.0755  1.1544
  661MOL0     C87140   6.369   0.183   5.560  1.1383  0.0563 -0.5473
  661MOL0     C87141   6.507   0.134   5.583  0.1736 -0.4817  0.0078
  661MOL0     C87142   6.534   0.034   5.478 -0.4068  0.3150  0.0591
  661MOL0     C87143   6.696   0.007   5.479  0.6686 -0.3327  0.1341
  661MOL0     O87144   6.731  -0.078   5.589  0.2669 -0.0199  0.0340
  661MOL0     C87145   6.814  -0.183   5.567 -0.1944  0.4105  0.2050
  661MOL0     C87146   6.786  -0.299   5.642  0.1713 -0.7403  0.1617
  661MOL0     C87147   6.880  -0.403   5.635  0.1523  0.7155 -0.5170
  661MOL0     C87148   6.988  -0.402   5.544  0.2055 -0.3817 -0.6456
  661MOL0     C87149   7.079  -0.512   5.538 -0.9161 -1.2720 -0.2067
  661MOL0     O87150   7.082  -0.600   5.650 -0.2783 -0.6517  0.1180
  661MOL0     C87151   7.150  -0.718   5.650 -0.1546 -0.4219 -0.7212
  661MOL0     C87152   7.127  -0.792   5.764 -0.3412  0.3211  0.2542
  661MOL0     C87153   7.173  -0.919   5.785 -0.5214 -0.1240  0.2100
  661MOL0     C87154   7.234  -0.989   5.688  0.2487 -0.6220  0.0956
  661MOL0     O87155   7.259  -1.122   5.708 -0.1751  0.1443  0.4720
  661MOL0     C87156   7.342  -1.192   5.606  0.7414 -0.8709  0.2363
  661MOL0     C87157   7.386  -1.327   5.663 -0.4209  0.0261 -0.1178
  661MOL0     C87158   7.479  -1.413   5.576 -0.5773 -0.9058 -0.7737
  661MOL0     C87159   7.447  -1.559   5.592 -0.3665  0.0781 -0.2085
  661MOL0     C87160   7.510  -1.647   5.487  1.0339 -0.3863  0.9826
  661MOL0     C87161   7.483  -1.795   5.513 -1.1964 -0.3073 -0.3205
  661MOL0     C87162   7.573  -1.890   5.436  0.4762  0.7383  0.0364
  661MOL0     C87163   7.494  -2.004   5.372  0.7107  0.2238 -0.5444
  661MOL0    Cl87164   7.602  -2.105   5.272 -0.3964 -0.6103 -0.5744
  661MOL0     C87165   7.264  -0.918   5.565  0.6323 -0.4147  1.1797
  661MOL0     C87166   7.218  -0.783   5.546  0.0443  0.0123 -0.3898
  661MOL0     O87167   7.153  -0.525   5.441  0.4656 -0.3019  1.3954
  661MOL0     C87168   7.018  -0.280   5.489 -0.2866 -0.4783 -0.0132
  661MOL0     C87169   6.939  -0.171   5.507  0.3307 -0.7563  0.4731
  661MOL0     N87170   6.282   0.275   5.346 -0.1216  0.3478 -0.5236
  661MOL0     N87171   6.295   0.384   5.289 -0.5179  0.5180  0.3149
  661MOL0     C87172   6.981   1.200   5.227  0.7094  0.5673  0.1920
  661MOL0     C87173   7.098   1.274   5.205  0.4691  0.8987 -0.3440
  661MOL0     C87174   7.443   1.517   5.247  1.2606  0.6430  0.6882
  661MOL0     C87175   7.489   1.488   5.116 -0.6368  0.2550  0.1070
  661MOL0     C87176   7.629   1.498   5.076  0.0277 -0.5362  0.2256
  661MOL0     C87177   7.726   1.532   5.165 -0.4854 -0.1065 -0.0721
  661MOL0     O87178   7.855   1.558   5.126  0.4014  0.3336 -0.0611
  661MOL0     C87179   7.884   1.561   4.987  0.7101 -0.1859  0.5449
  661MOL0     C87180   8.038   1.555   4.977 -0.0402 -0.4049 -0.0138
  661MOL0     C87181   8.104   1.691   4.987  0.0302 -0.2117  0.0103
  661MOL0     C87182   8.247   1.671   5.039  0.2883  0.2356  1.0386
  661MOL0     C87183   8.348   1.787   5.031  0.7289  0.5177  0.5023
  661MOL0     C87184   8.415   1.886   5.010  0.5312 -0.5058 -0.3320
  661MOL0     C87185   7.685   1.552   5.301  1.4090 -0.2984  0.3238
  661MOL0     C87186   7.548   1.541   5.336 -0.1735  0.2455 -0.6330
  661MOL0     H87187   6.969   1.584   5.251  0.1702  0.8515  1.8101
  661MOL0     H87188   6.764   1.455   5.299  0.4954  0.9151 -0.0808
  661MOL0     H87189   6.603   1.322   5.282 -1.0643 -0.7865  0.6832
  661MOL0     H87190   6.666   1.240   5.427 -1.7986  0.8597  0.1668
  661MOL0     H87191   6.434   1.188   5.394 -0.6652 -0.6831 -0.1969
  661MOL0     H87192   6.535   1.041   5.382  1.1657  0.6836  2.2490
  661MOL0     H87193   6.526   1.039   5.150  1.2879  1.1565 -0.1599
  661MOL0     H87194   6.444   1.209   5.164  1.7278  0.9730  0.8193
  661MOL0     H87195   6.242   1.102   5.253  0.4345  1.4827  2.6631
  661MOL0     H87196   6.285   1.081   5.082  1.6321  3.1379  0.6286
  661MOL0     H87197   6.417   0.872   5.201 -0.0136 -0.8161 -0.8570
  661MOL0     H87198   6.277   0.856   5.103  1.4742 -2.0775  1.2828
  661MOL0     H87199   6.116   0.863   5.291  0.1405  0.5662 -0.3993
  661MOL0     H87200   6.247   0.862   5.406 -2.0905 -4.0728  1.1019
  661MOL0     H87201   6.122   0.639   5.350 -0.3121  0.3888  0.5821
  661MOL0     H87202   6.208   0.646   5.198  1.7974  0.4045 -0.2506
  661MOL0     H87203   6.339   0.666   5.470 -1.4566 -0.4643  0.1731
  661MOL0     H87204   6.433   0.663   5.330 -0.8772  0.1366 -1.0024
  661MOL0     H87205   6.467   0.459   5.549 -0.3952 -1.7085 -0.1918
  661MOL0     H87206   6.303   0.101   5.530  1.4326 -0.0402 -0.9379
  661MOL0     H87207   6.330   0.226   5.654  1.0721  0.3744 -0.7176
  661MOL0     H87208   6.517   0.082   5.679 -1.5270 -0.5735  0.1610
  661MOL0     H87209   6.581   0.214   5.570 -0.1346 -0.5245 -2.3358
  661MOL0     H87210   6.494  -0.065   5.502  0.6077 -0.3902 -1.0040
  661MOL0     H87211   6.496   0.056   5.378 -0.0949 -2.3280 -0.7092
  661MOL0     H87212   6.760   0.095   5.483 -0.8109  0.8389 -0.9076
  661MOL0     H87213   6.720  -0.044   5.386 -0.5827  3.4284 -2.4722
  661MOL0     H87214   6.695  -0.291   5.700  0.7060  1.1499  0.8265
  661MOL0     H87215   6.864  -0.485   5.705  2.7995 -0.5209 -1.2516
  661MOL0     H87216   7.081  -0.751   5.854  2.0203 -0.0588  1.7194
  661MOL0     H87217   7.158  -0.961   5.884  2.8545  0.6801  1.2065
  661MOL0     H87218   7.435  -1.142   5.574 -1.0982  2.6376 -0.2110
  661MOL0     H87219   7.277  -1.206   5.519  0.8469  0.6220 -0.1229
  661MOL0     H87220   7.293  -1.381   5.683  0.3910 -1.0640  0.8703
  661MOL0     H87221   7.441  -1.308   5.756  1.4897 -0.9232 -0.9970
  661MOL0     H87222   7.583  -1.391   5.599 -0.6139  0.3613 -1.7086
  661MOL0     H87223   7.469  -1.384   5.471  0.5597  3.1413  0.0461
  661MOL0     H87224   7.474  -1.598   5.690  0.0603 -5.7102 -2.2597
  661MOL0     H87225   7.339  -1.578   5.583 -0.8004  1.2112  1.8651
  661MOL0     H87226   7.618  -1.635   5.469  0.2700  1.0904 -4.2421
  661MOL0     H87227   7.463  -1.603   5.398  1.0733  1.6374  1.9026
  661MOL0     H87228   7.380  -1.810   5.481 -0.5443 -1.0713 -2.1862
  661MOL0     H87229   7.508  -1.803   5.620  0.8938 -0.0172 -0.7382
  661MOL0     H87230   7.610  -1.826   5.356  1.7924  0.3148  0.2908
  661MOL0     H87231   7.648  -1.942   5.497  0.4453  1.0337  0.3288
  661MOL0     H87232   7.410  -1.986   5.304 -0.5975 -2.0272  0.3689
  661MOL0     H87233   7.454  -2.072   5.448 -1.4614  1.2780 -0.6530
  661MOL0     H87234   7.318  -0.963   5.482 -0.5977 -2.6763  1.5149
  661MOL0     H87235   7.231  -0.729   5.453 -1.9400  1.3749  0.0560
  661MOL0     H87236   7.112  -0.265   5.437  0.5105 -0.1744  1.4809
  661MOL0     H87237   6.967  -0.080   5.457 -0.8130 -0.6131  0.0606
  661MOL0     H87238   6.979   1.093   5.206 -2.1546  1.4106 -6.3967
  661MOL0     H87239   7.191   1.221   5.188 -0.9546 -2.2098  0.7699
  661MOL0     H87240   7.430   1.441   5.038 -0.7453 -3.3113  2.1464
  661MOL0     H87241   7.659   1.470   4.976 -0.3005  1.4449 -0.4710
  661MOL0     H87242   7.844   1.654   4.945  0.7998  0.0979  1.0758
  661MOL0     H87243   7.855   1.472   4.929  2.8274 -1.0884  0.7838
  661MOL0     H87244   8.073   1.491   5.057  0.8775  0.9388  0.6924
  661MOL0     H87245   8.067   1.513   4.880 -1.5381  5.0709 -3.3042
  661MOL0     H87246   8.046   1.757   5.052 -2.6118 -1.6370 -0.7538
  661MOL0     H87247   8.097   1.733   4.886  0.2264 -0.0310  0.0712
  661MOL0     H87248   8.233   1.648   5.145  2.5302  0.0618  1.3387
  661MOL0     H87249   8.296   1.590   4.984  0.4374  1.1840 -0.2880
  661MOL0     H87250   8.472   1.973   4.983 -0.1088  0.2577  0.6680
  661MOL0     H87251   7.766   1.576   5.368  1.8915  1.7320 -0.8816
  661MOL0     H87252   7.535   1.582   5.436  1.7338  2.3893 -1.1767
  662MOL0     O87253   5.036   5.117   0.198 -0.0948 -0.3592 -0.8047
  662MOL0     C87254   5.073   5.080   0.310 -1.1507 -0.1830 -0.9683
  662MOL0     O87255   5.000   5.004   0.399  0.2982  0.5202  0.2440
  662MOL0     C87256   4.864   4.981   0.368 -0.2507 -0.5561 -0.7026
  662MOL0     C87257   4.771   5.079   0.399  0.1596  0.8550  0.5621
  662MOL0     C87258   4.636   5.064   0.356 -0.1293  0.1944 -0.0509
  662MOL0     C87259   4.606   4.957   0.269 -0.4009  0.9071  0.1152
  662MOL0     O87260   4.486   4.927   0.206  0.2569 -0.2969  0.0192
  662MOL0     C87261   4.384   5.027   0.222  0.2766 -0.0345  0.3426
  662MOL0     C87262   4.313   5.006   0.363 -0.0010  0.8275  0.4116
  662MOL0     C87263   4.240   4.878   0.369 -0.9724  0.4893 -0.4479
  662MOL0     C87264   4.171   4.868   0.509  0.2621  0.4598  0.1240
  662MOL0     C87265   4.087   4.742   0.530  0.9026 -1.2256  0.1991
  662MOL0     C87266   4.031   4.723   0.674  0.3564  0.0133  0.7159
  662MOL0     C87267   3.943   4.841   0.734 -0.2079  0.4282  0.3139
  662MOL0     C87268   3.926   4.828   0.885 -0.8581  0.4897  0.6422
  662MOL0     N87269   3.828   4.923   0.938  0.3138  0.6182  0.0238
  662MOL0     C87270   3.856   5.022   1.028  0.1401 -1.0105  0.2499
  662MOL0     C87271   3.741   5.107   1.029 -0.1698  0.1085 -0.0873
  662MOL0     C87272   3.732   5.252   1.082 -0.4128 -0.4601  0.9170
  662MOL0     C87273   3.693   5.359   0.974  0.0329 -0.0399 -0.0685
  662MOL0     C87274   3.653   5.493   1.040  0.6987 -0.6273  0.3918
  662MOL0     C87275   3.553   5.588   0.970  0.0370  0.3109 -0.0052
  662MOL0     O87276   3.433   5.607   1.044  0.4899  0.1331 -0.3754
  662MOL0     C87277   3.449   5.698   1.143  0.3980 -0.7257 -0.7689
  662MOL0     C87278   3.351   5.690   1.249  0.8195  1.2669 -0.4069
  662MOL0     C87279   3.346   5.782   1.344 -0.1647  0.4809 -0.7197
  662MOL0     C87280   3.441   5.888   1.358 -0.3509 -0.0378  0.8677
  662MOL0     C87281   3.435   5.983   1.475 -0.2190  0.2940  0.4694
  662MOL0     O87282   3.523   6.085   1.471 -0.2192 -0.2819  0.8229
  662MOL0     C87283   3.519   6.194   1.562  0.3233 -0.2970  0.8350
  662MOL0     C87284   3.635   6.224   1.635 -0.0396 -0.4045 -0.9817
  662MOL0     C87285   3.626   6.339   1.721 -0.1274  0.1110 -0.0683
  662MOL0     C87286   3.514   6.425   1.738 -0.6371 -0.1278  0.3164
  662MOL0     O87287   3.512   6.538   1.809  0.0743  0.6731 -0.0023
  662MOL0     C87288   3.630   6.611   1.812 -1.0905 -0.8470 -0.9407
  662MOL0     C87289   3.584   6.747   1.850  0.4116 -0.8859  0.1994
  662MOL0     C87290   3.691   6.855   1.837 -0.0146  0.0826 -0.1657
  662MOL0     C87291   3.782   6.855   1.964  0.3135  0.5734 -0.0372
  662MOL0     C87292   3.865   6.977   1.943 -0.5776  0.9964 -0.6206
  662MOL0     C87293   3.924   7.049   2.071 -0.2116  0.6159  0.3225
  662MOL0     C87294   3.993   7.175   2.029 -0.1263 -0.2130 -0.3020
  662MOL0     C87295   4.082   7.218   2.146  0.2567  0.3709  0.3582
  662MOL0    Cl87296   3.972   7.290   2.266  0.0604 -0.1275 -0.2062
  662MOL0     C87297   3.396   6.375   1.675 -0.0988 -0.0055  0.0724
  662MOL0     C87298   3.395   6.263   1.583 -0.4234 -0.5235 -0.3220
  662MOL0     O87299   3.356   5.955   1.563 -0.3860  0.2058 -0.3726
  662MOL0     C87300   3.534   5.903   1.254 -0.4074  0.3065  0.0933
  662MOL0     C87301   3.542   5.811   1.145  1.3789  0.1717  0.0798
  662MOL0     N87302   3.637   5.045   0.955 -0.8284  0.0113 -1.7594
  662MOL0     N87303   3.697   4.942   0.901  0.3535  0.8896 -0.1678
  662MOL0     C87304   4.704   4.858   0.251  0.4055  0.5670  0.5418
  662MOL0     C87305   4.829   4.861   0.306  0.9866 -0.2462  0.5756
  662MOL0     C87306   5.203   5.118   0.353  0.1040 -0.5950 -0.2345
  662MOL0     C87307   5.297   5.170   0.261 -0.3805  0.5053 -0.1174
  662MOL0     C87308   5.423   5.211   0.303 -0.4166  0.8820  0.4763
  662MOL0     C87309   5.471   5.200   0.440  0.8682  0.2477  0.5885
  662MOL0     O87310   5.601   5.217   0.458 -0.1254 -0.0197 -0.1188
  662MOL0     C87311   5.654   5.257   0.587  0.7225  0.2244 -0.0903
  662MOL0     C87312   5.799   5.203   0.605 -0.8326 -0.6992  0.8205
  662MOL0     C87313   5.896   5.265   0.503  0.8495 -0.4490  0.5922
  662MOL0     C87314   6.015   5.171   0.466 -0.6166  0.3565  0.3815
  662MOL0     C87315   6.124   5.174   0.556  0.2797 -1.2288  0.2859
  662MOL0     C87316   6.212   5.157   0.643 -0.5999  1.4738 -0.7875
  662MOL0     C87317   5.382   5.136   0.528  0.4378 -0.0845  1.1812
  662MOL0     C87318   5.255   5.096   0.489 -0.7479 -0.1331  0.9679
  662MOL0     H87319   4.797   5.178   0.434 -2.0517  2.0762 -1.0502
  662MOL0     H87320   4.563   5.144   0.362 -0.0446  0.4090 -1.3860
  662MOL0     H87321   4.314   5.020   0.138  0.8606 -1.1386 -0.0733
  662MOL0     H87322   4.424   5.128   0.218 -0.6361  0.3594  0.7619
  662MOL0     H87323   4.239   5.085   0.372 -0.0025  0.7752  0.8632
  662MOL0     H87324   4.380   5.003   0.449 -0.0976 -0.5745  0.4690
  662MOL0     H87325   4.304   4.790   0.356  0.4947  1.0700  2.2128
  662MOL0     H87326   4.161   4.870   0.293 -2.0122  1.6960  0.4604
  662MOL0     H87327   4.253   4.859   0.581 -0.0578 -2.1374  0.2457
  662MOL0     H87328   4.119   4.960   0.538 -1.5877 -0.8390  1.1611
  662MOL0     H87329   4.145   4.654   0.504  0.7172 -0.8633 -1.6145
  662MOL0     H87330   4.001   4.757   0.463  2.4764 -1.4074 -1.9625
  662MOL0     H87331   4.115   4.702   0.741 -0.5430  0.0187  1.8756
  662MOL0     H87332   3.980   4.626   0.668  1.5135 -0.6046  0.5270
  662MOL0     H87333   3.988   4.941   0.731 -1.3139  0.9765  1.1091
  662MOL0     H87334   3.849   4.840   0.678  0.8371 -1.0183 -1.4810
  662MOL0     H87335   4.021   4.847   0.935  0.2146 -1.8914 -0.3540
  662MOL0     H87336   3.902   4.724   0.904  1.4181 -0.1408  0.3665
  662MOL0     H87337   3.956   5.049   1.062  0.1859  0.7024 -1.1305
  662MOL0     H87338   3.831   5.285   1.113  0.7121  0.2318 -2.9305
  662MOL0     H87339   3.656   5.238   1.160 -3.3525  4.3034 -0.6498
  662MOL0     H87340   3.601   5.326   0.925 -1.6094 -0.2640  2.9545
  662MOL0     H87341   3.778   5.373   0.906 -0.3069 -0.6239 -0.6195
  662MOL0     H87342   3.632   5.478   1.146 -1.9556  0.7930  0.1392
  662MOL0     H87343   3.743   5.555   1.037  1.1216 -1.1675  1.3988
  662MOL0     H87344   3.529   5.533   0.878  1.4659  1.1966 -0.9397
  662MOL0     H87345   3.608   5.678   0.940  2.4589 -0.4431  1.8793
  662MOL0     H87346   3.276   5.612   1.244  1.3122  0.7420  0.1569
  662MOL0     H87347   3.265   5.772   1.414  0.8002  4.4634  1.2626
  662MOL0     H87348   3.726   6.164   1.632  0.0516 -0.2998 -0.4430
  662MOL0     H87349   3.710   6.365   1.785 -1.8299  3.8926  0.8522
  662MOL0     H87350   3.675   6.618   1.712  0.9442  0.3508 -0.0112
  662MOL0     H87351   3.711   6.576   1.876 -3.2152 -1.5862  1.5193
  662MOL0     H87352   3.557   6.740   1.956  2.8917 -3.9048  0.7915
  662MOL0     H87353   3.494   6.784   1.800  0.9501  1.4504  0.8553
  662MOL0     H87354   3.642   6.952   1.825 -0.7694 -0.3787 -0.9145
  662MOL0     H87355   3.750   6.843   1.745  0.9559 -1.2798  0.5979
  662MOL0     H87356   3.709   6.863   2.045 -1.8519 -2.1328 -1.5609
  662MOL0     H87357   3.847   6.768   1.958 -0.1729  0.2900 -2.2594
  662MOL0     H87358   3.806   7.051   1.887 -0.3002 -0.4953 -3.0692
  662MOL0     H87359   3.955   6.956   1.884 -0.8974  1.7917 -1.4275
  662MOL0     H87360   3.998   6.984   2.118  3.3423  0.7450 -4.4316
  662MOL0     H87361   3.841   7.066   2.140 -0.1572  0.6775  0.3732
  662MOL0     H87362   4.060   7.169   1.943 -1.0199  0.8469 -1.1022
  662MOL0     H87363   3.922   7.253   1.999  1.8339  1.8217  0.0469
  662MOL0     H87364   4.154   7.295   2.117  1.4673  0.0442  2.3824
  662MOL0     H87365   4.148   7.146   2.195 -0.2670 -0.8071 -0.6198
  662MOL0     H87366   3.299   6.424   1.677 -0.2364 -0.2868  0.7652
  662MOL0     H87367   3.302   6.227   1.542 -0.1335 -2.0829  0.3256
  662MOL0     H87368   3.616   5.974   1.263 -1.3135  1.4705 -0.5553
  662MOL0     H87369   3.621   5.827   1.072  0.7129 -0.7615 -0.8711
  662MOL0     H87370   4.683   4.773   0.186  3.0019  0.6878 -0.5734
  662MOL0     H87371   4.903   4.782   0.294  0.5067 -0.6187  0.0134
  662MOL0     H87372   5.267   5.203   0.162 -1.1455 -1.4148 -0.5549
  662MOL0     H87373   5.486   5.248   0.222 -1.1562  0.3840 -0.3347
  662MOL0     H87374   5.584   5.216   0.662 -0.1423  1.1444 -0.3742
  662MOL0     H87375   5.645   5.364   0.604  0.0406 -0.0152  1.2876
  662MOL0     H87376   5.828   5.223   0.708 -1.2123 -2.3830  1.2924
  662MOL0     H87377   5.802   5.093   0.604 -0.0313 -0.6929 -1.0544
  662MOL0     H87378   5.936   5.363   0.528 -0.8178  0.8938 -1.7179
  662MOL0     H87379   5.849   5.282   0.406 -1.2290  1.0838  1.7927
  662MOL0     H87380   5.984   5.067   0.448  1.9600 -0.4838  0.3582
  662MOL0     H87381   6.055   5.215   0.373 -1.5689  1.8839  0.6732
  662MOL0     H87382   6.295   5.135   0.707  0.0574  2.9947 -1.0583
  662MOL0     H87383   5.418   5.087   0.618  1.1307 -1.2038  0.3219
  662MOL0     H87384   5.188   5.047   0.559  0.1578  4.2702  5.5501
  663MOL0     O87385   0.688   6.917   2.851  0.3066  0.1263  0.8192
  663MOL0     C87386   0.629   6.932   2.743 -0.2388  0.8874 -0.3412
  663MOL0     O87387   0.525   6.859   2.689  0.0952 -0.3426 -0.4245
  663MOL0     C87388   0.498   6.738   2.741  0.1275 -0.3034  0.9263
  663MOL0     C87389   0.574   6.627   2.723  0.4336 -0.0681 -0.2445
  663MOL0     C87390   0.552   6.511   2.787 -0.3187 -0.0886  1.1348
  663MOL0     C87391   0.438   6.500   2.863 -0.0919 -0.1564 -0.4174
  663MOL0     O87392   0.422   6.378   2.919 -0.6056  0.3085 -0.0850
  663MOL0     C87393   0.296   6.347   2.983 -0.3855  0.5562  1.4981
  663MOL0     C87394   0.296   6.199   3.023  0.9537 -0.0242 -0.1235
  663MOL0     C87395   0.245   6.092   2.925 -0.3479  0.5252  0.8868
  663MOL0     C87396   0.236   5.944   2.976 -1.0273  0.4863  0.2846
  663MOL0     C87397   0.329   5.914   3.103  0.3416 -0.2260 -0.5001
  663MOL0     C87398   0.336   5.760   3.119 -0.4425  1.1447 -1.5917
  663MOL0     C87399   0.453   5.710   3.209  0.4325  0.0584  0.2663
  663MOL0     C87400   0.434   5.576   3.277 -0.5621  1.0795  0.3403
  663MOL0     N87401   0.444   5.463   3.178  0.4490  0.3480 -0.3491
  663MOL0     C87402   0.337   5.393   3.132 -0.2837  1.3538  0.5869
  663MOL0     C87403   0.390   5.295   3.051  0.5234  0.1202 -0.1212
  663MOL0     C87404   0.298   5.213   2.964  0.2145 -0.2738  0.1092
  663MOL0     C87405   0.212   5.293   2.856  0.7577  0.0091 -0.7504
  663MOL0     C87406   0.121   5.199   2.778  0.9540 -0.2101  1.2654
  663MOL0     C87407   0.195   5.076   2.726  0.1152 -0.2898 -0.0615
  663MOL0     O87408   0.147   5.008   2.611 -0.8836  0.5027  0.1949
  663MOL0     C87409   0.022   4.973   2.607  0.0939  0.4267  0.2602
  663MOL0     C87410  -0.053   4.927   2.714 -0.1076  0.4142 -0.1422
  663MOL0     C87411  -0.188   4.900   2.702  0.1803 -0.7750 -0.4285
  663MOL0     C87412  -0.264   4.908   2.581 -0.2894  0.2908 -0.3153
  663MOL0     C87413  -0.400   4.859   2.570  1.1140 -0.5086  0.1671
  663MOL0     O87414  -0.483   4.886   2.683  0.0215 -0.1190  0.5160
  663MOL0     C87415  -0.612   4.851   2.690  0.4913  0.2819 -0.0525
  663MOL0     C87416  -0.684   4.877   2.814 -0.4359 -0.4881  1.0745
  663MOL0     C87417  -0.817   4.842   2.832  0.0911  0.0466  0.1559
  663MOL0     C87418  -0.881   4.766   2.740  0.3517  0.5344 -0.6752
  663MOL0     O87419  -1.006   4.714   2.769 -0.0285 -0.4942  0.0111
  663MOL0     C87420  -1.099   4.800   2.827 -0.6176 -0.2250  0.2730
  663MOL0     C87421  -1.242   4.752   2.831  0.4680 -0.5767 -0.8166
  663MOL0     C87422  -1.279   4.677   2.706  0.5390 -0.0339  0.2474
  663MOL0     C87423  -1.422   4.642   2.721 -0.0238 -0.3593  0.5764
  663MOL0     C87424  -1.463   4.546   2.610 -0.4972  0.0463 -0.4948
  663MOL0     C87425  -1.603   4.494   2.619 -0.8912  0.2981 -0.0394
  663MOL0     C87426  -1.642   4.417   2.756 -0.0317 -0.6167 -0.6755
  663MOL0     C87427  -1.791   4.375   2.768  0.2056  0.0112  0.0364
  663MOL0    Cl87428  -1.841   4.330   2.930 -0.3822  0.2233  0.5229
  663MOL0     C87429  -0.816   4.741   2.617 -0.1543  0.3535 -0.2995
  663MOL0     C87430  -0.688   4.780   2.597  0.0028  0.1119  0.3553
  663MOL0     O87431  -0.429   4.797   2.470 -0.0195  0.1003 -0.0697
  663MOL0     C87432  -0.176   4.931   2.470 -0.0763 -0.1780  0.1861
  663MOL0     C87433  -0.043   4.972   2.480 -0.4024 -0.3877  0.2536
  663MOL0     N87434   0.532   5.313   3.046 -1.2063  0.3144 -0.0796
  663MOL0     N87435   0.554   5.404   3.128  0.1618  0.5134 -0.8111
  663MOL0     C87436   0.352   6.614   2.879  0.1271  0.5938  0.1044
  663MOL0     C87437   0.394   6.737   2.833  0.3909  0.2234 -0.3068
  663MOL0     C87438   0.678   7.027   2.645  1.8136 -0.4329 -0.2150
  663MOL0     C87439   0.727   7.148   2.697  0.0513 -0.4698  0.8442
  663MOL0     C87440   0.753   7.249   2.594  0.2912 -0.6066 -0.5408
  663MOL0     C87441   0.744   7.225   2.456  0.8297 -0.0463 -0.4498
  663MOL0     O87442   0.758   7.328   2.376 -0.4049 -0.4296  0.3612
  663MOL0     C87443   0.901   7.362   2.360  0.2918 -1.0879  0.2767
  663MOL0     C87444   0.955   7.309   2.226 -0.6202 -0.0718 -0.4387
  663MOL0     C87445   1.102   7.335   2.203 -0.6873 -0.4187  0.4346
  663MOL0     C87446   1.117   7.488   2.168  0.4885  0.1480 -0.7527
  663MOL0     C87447   1.251   7.521   2.175  0.5795 -0.7479  0.0215
  663MOL0     C87448   1.370   7.539   2.203 -0.2966 -0.2936  0.1086
  663MOL0     C87449   0.716   7.097   2.408 -0.1799 -0.0167  0.9352
  663MOL0     C87450   0.681   6.994   2.504 -0.7755 -0.3428 -0.6972
  663MOL0     H87451   0.661   6.656   2.665 -0.6803  1.9166 -1.0219
  663MOL0     H87452   0.631   6.444   2.755  0.3154  1.9666 -1.9605
  663MOL0     H87453   0.210   6.390   2.931 -1.2574 -1.3663  1.2939
  663MOL0     H87454   0.287   6.389   3.084 -1.3472  1.3225  1.1187
  663MOL0     H87455   0.222   6.194   3.104 -1.5462  0.5711 -2.2320
  663MOL0     H87456   0.401   6.183   3.050  1.2568  2.3079  0.2391
  663MOL0     H87457   0.315   6.101   2.841 -0.4993 -0.4299  0.6511
  663MOL0     H87458   0.147   6.114   2.880 -0.6256 -1.8500  0.2353
  663MOL0     H87459   0.132   5.915   2.994 -0.3847 -3.3341 -1.1547
  663MOL0     H87460   0.266   5.879   2.893 -1.3446 -2.3485  2.2390
  663MOL0     H87461   0.281   5.951   3.194 -3.1217 -0.6591 -2.0072
  663MOL0     H87462   0.432   5.951   3.097  0.8280 -1.4130  0.1344
  663MOL0     H87463   0.344   5.698   3.029  1.4510 -1.6135  0.3282
  663MOL0     H87464   0.242   5.734   3.167 -0.7877  1.0845 -2.2884
  663MOL0     H87465   0.537   5.702   3.139  0.1944  0.2508 -0.0435
  663MOL0     H87466   0.476   5.782   3.287 -1.3604 -0.2327  1.1255
  663MOL0     H87467   0.339   5.580   3.332 -1.1729  0.4580 -0.6444
  663MOL0     H87468   0.518   5.563   3.345  1.3461 -3.2761 -2.3901
  663MOL0     H87469   0.230   5.411   3.142 -0.8857 -0.8721 -1.0154
  663MOL0     H87470   0.242   5.149   3.033 -2.6697  1.4828 -0.4474
  663MOL0     H87471   0.364   5.145   2.909  0.0975 -0.1811 -0.1466
  663MOL0     H87472   0.277   5.359   2.798 -1.4135  0.4996 -2.7805
  663MOL0     H87473   0.137   5.363   2.894  0.4552 -1.6615  1.9590
  663MOL0     H87474   0.042   5.177   2.850 -1.0585 -1.1852 -1.0648
  663MOL0     H87475   0.082   5.247   2.687  2.3819 -0.7177  0.3479
  663MOL0     H87476   0.180   5.002   2.805  1.8597  0.1431  0.7389
  663MOL0     H87477   0.303   5.086   2.709  0.5461  0.0814  2.4904
  663MOL0     H87478  -0.015   4.908   2.814 -2.1503 -0.1581  0.5932
  663MOL0     H87479  -0.254   4.878   2.785 -3.7858  2.3135 -2.3566
  663MOL0     H87480  -0.628   4.928   2.891  2.3248 -3.2981  1.1243
  663MOL0     H87481  -0.870   4.857   2.926 -1.1434  1.1845 -0.6839
  663MOL0     H87482  -1.100   4.894   2.771  0.9015 -0.9013 -0.9723
  663MOL0     H87483  -1.068   4.811   2.931 -2.2847  1.3482  0.6661
  663MOL0     H87484  -1.307   4.838   2.850  1.1823  0.0703 -1.2378
  663MOL0     H87485  -1.253   4.685   2.917  1.5472  0.1312 -0.1029
  663MOL0     H87486  -1.218   4.588   2.688 -1.9250 -1.8965  0.5914
  663MOL0     H87487  -1.277   4.742   2.618 -0.8087 -0.8355 -0.4108
  663MOL0     H87488  -1.440   4.582   2.811  1.2378 -0.8501  0.5303
  663MOL0     H87489  -1.494   4.725   2.721 -1.0388 -1.2161 -0.1022
  663MOL0     H87490  -1.400   4.457   2.621 -1.4764 -0.7105 -0.8214
  663MOL0     H87491  -1.456   4.594   2.512  2.1996 -0.7943 -0.7893
  663MOL0     H87492  -1.615   4.431   2.530  0.2239  0.4806 -0.3382
  663MOL0     H87493  -1.673   4.578   2.613 -0.7320  0.4956  0.7681
  663MOL0     H87494  -1.588   4.322   2.764  1.9728  0.5444  0.6430
  663MOL0     H87495  -1.605   4.478   2.839 -2.6107  0.9144 -0.5371
  663MOL0     H87496  -1.802   4.291   2.700  1.4095  0.9418 -1.3789
  663MOL0     H87497  -1.862   4.451   2.735 -0.6282 -1.0662 -0.7126
  663MOL0     H87498  -0.861   4.690   2.532 -1.2081  2.0671 -0.8311
  663MOL0     H87499  -0.648   4.759   2.498 -1.0190  1.0671 -0.2921
  663MOL0     H87500  -0.222   4.925   2.372 -0.4628  1.3130  0.2485
  663MOL0     H87501   0.036   5.002   2.412 -1.7285  1.5245 -0.5137
  663MOL0     H87502   0.254   6.622   2.923 -0.2430  0.7369 -0.7184
  663MOL0     H87503   0.333   6.824   2.853 -0.1584 -0.4712  1.1394
  663MOL0     H87504   0.736   7.141   2.805 -3.3027  3.7469  1.6572
  663MOL0     H87505   0.790   7.345   2.628  1.9061 -1.4084  0.0730
  663MOL0     H87506   0.965   7.317   2.437  2.2860 -1.7662 -1.6347
  663MOL0     H87507   0.910   7.471   2.359  2.4202 -1.1475  2.6400
  663MOL0     H87508   0.950   7.200   2.236 -2.3041 -0.0789 -1.1665
  663MOL0     H87509   0.897   7.351   2.144  2.1138  2.1613 -1.3697
  663MOL0     H87510   1.134   7.278   2.115 -3.0592 -0.4024 -0.5206
  663MOL0     H87511   1.160   7.302   2.290  1.8703 -3.6293 -2.1858
  663MOL0     H87512   1.059   7.509   2.077  0.0050  1.0101 -0.2625
  663MOL0     H87513   1.066   7.551   2.242  1.3309 -0.6169  0.5237
  663MOL0     H87514   1.463   7.563   2.251 -1.6944 -1.3201  3.6727
  663MOL0     H87515   0.720   7.074   2.302  2.2276  0.4551  0.8645
  663MOL0     H87516   0.657   6.897   2.461 -1.2100  0.1082 -1.4933
  664MOL0     O87517   6.869   7.921   3.649 -0.2530 -0.4854 -0.3413
  664MOL0     C87518   6.761   7.869   3.677 -0.1300 -0.3444  0.1031
  664MOL0     O87519   6.735   7.737   3.647  0.7591  0.4291 -0.1889
  664MOL0     C87520   6.826   7.627   3.658  0.8373  0.1994 -0.0765
  664MOL0     C87521   6.941   7.624   3.742  0.4941 -0.6899  0.9643
  664MOL0     C87522   7.026   7.523   3.744 -0.8653 -0.4514  0.1875
  664MOL0     C87523   6.999   7.408   3.665 -0.5336 -0.4496 -0.0781
  664MOL0     O87524   7.089   7.299   3.665 -0.4863 -0.0124 -0.0855
  664MOL0     C87525   7.157   7.245   3.552 -0.0959 -0.3581  0.2200
  664MOL0     C87526   7.252   7.127   3.606 -0.0790  0.1172  0.2574
  664MOL0     C87527   7.188   6.998   3.675  0.1202  0.1267 -0.1372
  664MOL0     C87528   7.060   6.954   3.597  0.4875  0.8480  0.5972
  664MOL0     C87529   6.997   6.835   3.672  0.6255 -0.0593  0.1876
  664MOL0     C87530   6.887   6.757   3.594 -0.0290  0.1639 -0.1924
  664MOL0     C87531   6.832   6.622   3.654  0.1586  0.4302  0.2533
  664MOL0     C87532   6.933   6.519   3.718  0.1974  0.9712  0.0960
  664MOL0     N87533   6.989   6.557   3.845  0.7252 -0.3746 -0.6976
  664MOL0     C87534   6.924   6.542   3.969 -0.7460 -0.3819 -0.1104
  664MOL0     C87535   7.017   6.570   4.061  0.0093  0.7234 -0.2963
  664MOL0     C87536   6.993   6.596   4.207  0.1213  0.3587 -0.2970
  664MOL0     C87537   7.016   6.459   4.275 -0.4689  1.2362 -0.1944
  664MOL0     C87538   6.910   6.348   4.265  0.3674 -0.4711  0.0531
  664MOL0     C87539   6.783   6.372   4.347 -0.3718  0.2662 -1.0876
  664MOL0     O87540   6.695   6.467   4.290  0.0418  0.0674  0.0537
  664MOL0     C87541   6.628   6.559   4.365 -0.3481 -0.2579 -0.3458
  664MOL0     C87542   6.587   6.544   4.497  0.0894 -0.7418 -0.0600
  664MOL0     C87543   6.522   6.651   4.574  0.0766 -0.9769  0.8056
  664MOL0     C87544   6.508   6.772   4.508 -0.1810 -0.0177  0.0190
  664MOL0     C87545   6.431   6.876   4.582 -0.7516  0.2492 -0.2361
  664MOL0     O87546   6.362   6.950   4.499  0.7398  0.4643 -0.4323
  664MOL0     C87547   6.272   7.038   4.527  0.0445 -0.3925  0.4528
  664MOL0     C87548   6.210   7.053   4.652 -0.6861 -0.5464  0.4975
  664MOL0     C87549   6.099   7.138   4.669  0.2847 -0.2738 -0.3084
  664MOL0     C87550   6.066   7.235   4.573 -0.1603 -0.3814  0.4913
  664MOL0     O87551   5.962   7.330   4.573 -0.7220  0.3684 -0.3049
  664MOL0     C87552   5.958   7.392   4.704  0.1793  0.6111  0.7779
  664MOL0     C87553   5.885   7.532   4.692  0.3008  0.2903 -0.6347
  664MOL0     C87554   5.935   7.631   4.582  0.2591  0.3194  0.1418
  664MOL0     C87555   5.848   7.750   4.567 -0.3760  0.0621  0.2486
  664MOL0     C87556   5.888   7.851   4.458  0.0232  0.7440  0.7442
  664MOL0     C87557   5.776   7.966   4.465  0.1141  0.7589 -0.0613
  664MOL0     C87558   5.706   7.996   4.332 -0.2888 -0.5424  0.3776
  664MOL0     C87559   5.659   7.877   4.246  0.6281 -0.5361 -0.8105
  664MOL0    Cl87560   5.578   7.751   4.345 -0.9232 -0.1562  0.2710
  664MOL0     C87561   6.146   7.243   4.457  0.0644 -0.0442 -0.2416
  664MOL0     C87562   6.240   7.144   4.433 -0.1658  0.7115 -0.7945
  664MOL0     O87563   6.450   6.886   4.708 -0.1861 -0.6116  0.7399
  664MOL0     C87564   6.553   6.787   4.375  0.5543 -0.4888  0.2967
  664MOL0     C87565   6.608   6.686   4.310 -0.3149 -0.1407  0.3068
  664MOL0     N87566   7.142   6.581   4.004  0.4949 -0.1712  0.7070
  664MOL0     N87567   7.120   6.572   3.870 -0.2202  0.1966 -0.5390
  664MOL0     C87568   6.876   7.404   3.597  0.6219  0.8201 -0.8875
  664MOL0     C87569   6.795   7.517   3.585  0.1928  0.5011  0.2058
  664MOL0     C87570   6.645   7.938   3.732  0.6063  0.1798  0.7014
  664MOL0     C87571   6.675   8.047   3.810 -0.5978  0.2428 -0.7987
  664MOL0     C87572   6.580   8.116   3.867 -0.3827 -0.3770  0.1949
  664MOL0     C87573   6.449   8.090   3.848 -0.5626  0.3025 -0.2838
  664MOL0     O87574   6.367   8.181   3.906 -0.2859 -0.2233  0.7439
  664MOL0     C87575   6.232   8.145   3.901 -1.2580  0.2945  0.0390
  664MOL0     C87576   6.160   8.183   3.768 -0.7539  0.4424  0.3729
  664MOL0     C87577   6.135   8.336   3.754  0.1174  0.1820 -0.2603
  664MOL0     C87578   5.984   8.356   3.768  0.1744 -0.0166  0.6775
  664MOL0     C87579   5.942   8.359   3.912  0.4273  1.5128  0.4255
  664MOL0     C87580   5.915   8.347   4.026  0.1218 -0.6213  0.1977
  664MOL0     C87581   6.409   7.983   3.758 -0.2251  0.1494 -0.6536
  664MOL0     C87582   6.508   7.907   3.705 -0.2742 -0.1919 -0.1619
  664MOL0     H87583   6.951   7.708   3.810 -0.5115  1.9479 -1.8912
  664MOL0     H87584   7.116   7.534   3.803 -0.0124 -0.3715 -1.0866
  664MOL0     H87585   7.216   7.321   3.502  0.2292 -2.8941 -3.6802
  664MOL0     H87586   7.092   7.203   3.475  0.3885 -0.8441  0.0672
  664MOL0     H87587   7.316   7.170   3.684  0.2335 -0.6510  0.4276
  664MOL0     H87588   7.311   7.110   3.516  0.2242  3.7866 -0.3958
  664MOL0     H87589   7.153   7.027   3.775  0.8714 -1.4835  0.6289
  664MOL0     H87590   7.262   6.920   3.696 -0.6063 -1.2730 -2.4067
  664MOL0     H87591   6.999   7.043   3.609  1.6294  1.2451  4.9222
  664MOL0     H87592   7.082   6.928   3.493 -0.0658 -2.5036  1.2097
  664MOL0     H87593   6.961   6.880   3.765 -2.6782 -0.0648 -0.9449
  664MOL0     H87594   7.080   6.771   3.704  2.0772  1.9512  0.6313
  664MOL0     H87595   6.926   6.726   3.497 -0.6147  0.8718 -0.6587
  664MOL0     H87596   6.802   6.821   3.569  0.2054  1.0449  1.1438
  664MOL0     H87597   6.744   6.642   3.716 -1.0347  2.3419 -1.9248
  664MOL0     H87598   6.787   6.569   3.570 -2.0772  0.3130  1.4482
  664MOL0     H87599   7.010   6.510   3.641 -0.7871 -0.4253 -0.7456
  664MOL0     H87600   6.889   6.421   3.735  1.8835  0.1813  0.1165
  664MOL0     H87601   6.820   6.517   3.987 -0.3791  0.8214  5.1365
  664MOL0     H87602   6.894   6.640   4.220  0.4252  2.0112 -2.9026
  664MOL0     H87603   7.068   6.667   4.245 -0.8970  1.6942 -0.7283
  664MOL0     H87604   7.041   6.476   4.380  0.4677 -1.3427  0.0809
  664MOL0     H87605   7.112   6.426   4.237 -0.5013  2.1306 -1.0937
  664MOL0     H87606   6.877   6.340   4.161  0.3217  1.2912 -0.0948
  664MOL0     H87607   6.962   6.258   4.300  1.4040  0.6876  1.6399
  664MOL0     H87608   6.815   6.396   4.449 -2.5681  3.5413 -1.0140
  664MOL0     H87609   6.723   6.281   4.357  0.4097 -0.5336 -3.1413
  664MOL0     H87610   6.609   6.448   4.544 -1.2387 -1.4448 -0.8043
  664MOL0     H87611   6.488   6.636   4.676  0.3778 -0.3502  1.0016
  664MOL0     H87612   6.227   6.979   4.730  1.1314 -0.9807 -0.2599
  664MOL0     H87613   6.043   7.107   4.757  1.8623 -2.9706 -0.1322
  664MOL0     H87614   6.060   7.409   4.737  0.7480  0.0793 -0.6103
  664MOL0     H87615   5.908   7.327   4.777  0.6709 -0.1450  0.4524
  664MOL0     H87616   5.892   7.581   4.790  2.8531 -3.6273  1.4221
  664MOL0     H87617   5.778   7.510   4.686 -0.4690  0.6580  5.3044
  664MOL0     H87618   5.933   7.569   4.491 -1.5746  1.5633 -0.7262
  664MOL0     H87619   6.040   7.659   4.598  0.2300 -0.5037  2.0528
  664MOL0     H87620   5.746   7.716   4.549  0.4854 -3.3055  0.9891
  664MOL0     H87621   5.838   7.801   4.664  1.9411 -0.1679  0.6706
  664MOL0     H87622   5.900   7.802   4.361 -0.1915 -1.0659  1.5859
  664MOL0     H87623   5.985   7.898   4.475  0.1316  1.1167 -0.7628
  664MOL0     H87624   5.833   8.055   4.494  0.3137  1.1615 -1.6189
  664MOL0     H87625   5.703   7.963   4.546 -0.1055  2.6087 -0.1595
  664MOL0     H87626   5.635   8.077   4.351  1.4549  1.7574 -2.1631
  664MOL0     H87627   5.783   8.040   4.268 -0.1057 -3.4586 -1.5937
  664MOL0     H87628   5.735   7.839   4.177 -0.5606  0.1084 -2.5620
  664MOL0     H87629   5.579   7.907   4.177 -1.2298 -1.5475  0.8016
  664MOL0     H87630   6.129   7.319   4.381 -0.0569  1.1618  0.9486
  664MOL0     H87631   6.291   7.132   4.338  0.8320 -1.1446 -0.0958
  664MOL0     H87632   6.547   6.885   4.327 -0.2136  0.6261  2.5493
  664MOL0     H87633   6.637   6.708   4.208  0.0649  1.1126  0.6698
  664MOL0     H87634   6.852   7.305   3.560 -0.6698  0.3526  1.0690
  664MOL0     H87635   6.708   7.516   3.520  0.8596 -2.4535 -0.7802
  664MOL0     H87636   6.780   8.061   3.835 -1.7776  0.4241  5.7674
  664MOL0     H87637   6.601   8.206   3.924  0.8165  2.6583 -4.4419
  664MOL0     H87638   6.199   8.199   3.990  1.4671 -0.5559  1.6661
  664MOL0     H87639   6.217   8.044   3.941  2.7480 -0.9579 -1.1929
  664MOL0     H87640   6.207   8.142   3.678 -3.5893  0.2204 -1.1461
  664MOL0     H87641   6.068   8.123   3.769  1.1181 -2.7142 -0.3456
  664MOL0     H87642   6.177   8.367   3.657  0.2226 -0.3323 -0.3845
  664MOL0     H87643   6.195   8.392   3.826  1.2225 -0.4972 -0.6232
  664MOL0     H87644   5.964   8.451   3.718 -0.5725 -0.6914 -0.3639
  664MOL0     H87645   5.931   8.282   3.707  0.0327 -0.9282  1.8537
  664MOL0     H87646   5.883   8.354   4.128  1.6333  0.3415  0.6334
  664MOL0     H87647   6.306   7.953   3.744 -0.8848  2.8963 -2.2238
  664MOL0     H87648   6.475   7.825   3.642 -2.9368  1.0194 -0.4773
  665MOL0     O87649   0.550   5.935   3.980 -0.6026 -0.4972 -0.5603
  665MOL0     C87650   0.575   6.053   3.981 -0.4286  0.0480 -0.7037
  665MOL0     O87651   0.683   6.124   3.925  0.0896  0.6707 -0.0921
  665MOL0     C87652   0.788   6.057   3.866 -0.5094  0.7558  0.8335
  665MOL0     C87653   0.822   5.919   3.868  0.4204  1.0217 -0.0746
  665MOL0     C87654   0.939   5.876   3.814 -0.1578 -0.7220  0.0068
  665MOL0     C87655   1.023   5.967   3.734 -0.6967 -0.3280 -0.0307
  665MOL0     O87656   1.148   5.932   3.704  0.1252  0.7109  0.1006
  665MOL0     C87657   1.189   5.798   3.704 -0.2064  1.0489 -0.2080
  665MOL0     C87658   1.339   5.793   3.654  0.3319 -0.4543  0.6177
  665MOL0     C87659   1.386   5.649   3.635 -0.2505  0.9598 -0.0304
  665MOL0     C87660   1.533   5.634   3.607 -0.6796 -0.1749 -0.7407
  665MOL0     C87661   1.574   5.503   3.553 -0.0181 -0.2410  0.5777
  665MOL0     C87662   1.718   5.516   3.543  0.1258  0.2080  0.0315
  665MOL0     C87663   1.769   5.382   3.476 -0.3930 -0.3091  0.0425
  665MOL0     C87664   1.918   5.354   3.516 -0.1370 -0.1384  0.3507
  665MOL0     N87665   2.003   5.477   3.533 -0.9219  0.3576 -0.8010
  665MOL0     C87666   2.058   5.542   3.425 -1.1024  1.0470  0.5410
  665MOL0     C87667   2.147   5.631   3.469 -0.0606  0.2689  0.0401
  665MOL0     C87668   2.217   5.735   3.375  0.5175  0.4306  0.5572
  665MOL0     C87669   2.138   5.853   3.325  0.2930  0.4477  0.2862
  665MOL0     C87670   2.031   5.824   3.219 -0.8415 -0.1365 -0.1830
  665MOL0     C87671   1.965   5.965   3.191 -0.8396  0.1364 -0.5698
  665MOL0     O87672   1.884   5.958   3.073 -0.0362  0.6392  0.9688
  665MOL0     C87673   1.820   6.076   3.044  0.4319  0.0351 -0.1368
  665MOL0     C87674   1.710   6.067   2.957 -0.9941 -0.5948 -0.3473
  665MOL0     C87675   1.633   6.183   2.929  0.2635  0.1214  0.0391
  665MOL0     C87676   1.662   6.307   2.999  0.3059  0.3920  0.2820
  665MOL0     C87677   1.556   6.419   3.003 -0.1539  0.1538  0.0768
  665MOL0     O87678   1.575   6.525   3.088  0.2125 -0.4247  0.0103
  665MOL0     C87679   1.472   6.613   3.103  0.1480 -0.5227  0.1536
  665MOL0     C87680   1.501   6.746   3.097  0.7845 -0.3678 -0.4565
  665MOL0     C87681   1.403   6.845   3.135  0.1458 -0.2059  0.4654
  665MOL0     C87682   1.276   6.805   3.184  0.5946  0.0140  0.0448
  665MOL0     O87683   1.182   6.897   3.223 -0.3791  0.2111  0.9950
  665MOL0     C87684   1.211   7.030   3.190 -0.4049  0.2213  0.3203
  665MOL0     C87685   1.090   7.106   3.235 -0.6252  0.0387 -0.2169
  665MOL0     C87686   0.965   7.086   3.141 -0.4029 -1.3393  0.3491
  665MOL0     C87687   0.841   7.176   3.178  0.9539 -0.2274  1.2291
  665MOL0     C87688   0.745   7.206   3.061 -0.5612  0.4451  0.4627
  665MOL0     C87689   0.647   7.317   3.105  1.1296  0.1842  0.1564
  665MOL0     C87690   0.560   7.368   2.991  0.1700  0.5119  0.3298
  665MOL0     C87691   0.446   7.462   3.038 -0.4419 -1.2576 -0.2889
  665MOL0    Cl87692   0.368   7.552   2.900 -0.9728  0.1364 -0.0083
  665MOL0     C87693   1.247   6.670   3.184  0.3440  0.3632  0.3613
  665MOL0     C87694   1.344   6.576   3.150  0.0766 -0.0885  0.1652
  665MOL0     O87695   1.469   6.412   2.918  0.1516  0.8014 -0.0310
  665MOL0     C87696   1.771   6.319   3.083  1.1821  0.1786  0.6280
  665MOL0     C87697   1.845   6.203   3.102 -0.2565  0.2435  0.2502
  665MOL0     N87698   2.160   5.609   3.611  0.4790 -0.2055 -0.5820
  665MOL0     N87699   2.074   5.513   3.644 -0.2858 -0.4663  1.3785
  665MOL0     C87700   0.970   6.089   3.707  0.2297  0.2492 -0.0800
  665MOL0     C87701   0.868   6.137   3.789 -0.1583  0.0444  0.6213
  665MOL0     C87702   0.470   6.144   4.036 -0.0461 -0.2965  0.5527
  665MOL0     C87703   0.461   6.277   3.982 -0.6864  0.3980  0.8183
  665MOL0     C87704   0.352   6.357   4.014 -1.1049 -0.6434  1.2525
  665MOL0     C87705   0.265   6.313   4.113  0.6275 -0.3708 -0.2964
  665MOL0     O87706   0.174   6.404   4.166  0.8436 -0.4918 -0.3270
  665MOL0     C87707   0.135   6.513   4.074 -0.4113 -0.5148 -0.1201
  665MOL0     C87708   0.015   6.575   4.133 -0.0464  0.4801  0.0026
  665MOL0     C87709  -0.023   6.710   4.079 -0.5070 -0.3714  0.3168
  665MOL0     C87710  -0.161   6.754   4.136  0.2109  0.2405 -0.8586
  665MOL0     C87711  -0.156   6.806   4.282  0.7773  0.7288  1.1932
  665MOL0     C87712  -0.144   6.838   4.395 -0.1268 -0.2834 -0.9953
  665MOL0     C87713   0.281   6.186   4.170 -0.5321 -0.1309 -0.2498
  665MOL0     C87714   0.370   6.103   4.119  0.3920 -1.7408  0.7759
  665MOL0     H87715   0.764   5.845   3.923  1.0220  0.8503  0.3411
  665MOL0     H87716   0.975   5.776   3.836  2.9551  0.4448  0.6769
  665MOL0     H87717   1.129   5.731   3.642  0.1866 -0.1592  0.6599
  665MOL0     H87718   1.203   5.754   3.804  0.4307  0.3246 -0.6029
  665MOL0     H87719   1.401   5.831   3.737  3.0367  0.3019 -1.5860
  665MOL0     H87720   1.362   5.851   3.564  1.8103 -0.8605  0.7050
  665MOL0     H87721   1.341   5.614   3.542 -2.0362  1.6537  0.5235
  665MOL0     H87722   1.349   5.588   3.718  1.1648 -2.1888 -1.5686
  665MOL0     H87723   1.563   5.716   3.542  0.7148  2.1564  2.5747
  665MOL0     H87724   1.578   5.652   3.705 -0.9002 -2.0337 -0.2641
  665MOL0     H87725   1.523   5.498   3.457  0.7350 -0.6110  0.1800
  665MOL0     H87726   1.542   5.419   3.616 -4.1933  1.9448  1.7400
  665MOL0     H87727   1.748   5.523   3.648  2.9928 -4.2538 -0.1814
  665MOL0     H87728   1.735   5.606   3.484 -2.8967  1.2076  0.5383
  665MOL0     H87729   1.703   5.301   3.511  1.3818 -1.4635  0.8711
  665MOL0     H87730   1.762   5.383   3.367 -3.1266 -1.8522  0.1019
  665MOL0     H87731   1.969   5.284   3.449 -2.6253  0.5425 -2.4834
  665MOL0     H87732   1.909   5.291   3.605  1.5045 -1.2443 -0.2282
  665MOL0     H87733   2.026   5.517   3.324 -1.8322 -1.5544  1.3312
  665MOL0     H87734   2.267   5.677   3.297  2.0504  0.3847  1.5089
  665MOL0     H87735   2.306   5.781   3.420  1.5738  2.1526 -2.9751
  665MOL0     H87736   2.217   5.918   3.286 -0.7571  0.5738 -1.7357
  665MOL0     H87737   2.098   5.897   3.417  2.8362  2.5868  0.4855
  665MOL0     H87738   2.088   5.790   3.132 -0.3740 -2.4562  0.9717
  665MOL0     H87739   1.956   5.750   3.247  1.0220 -2.2600 -0.5479
  665MOL0     H87740   2.042   6.042   3.183  0.6799 -1.4673 -2.7653
  665MOL0     H87741   1.907   5.987   3.280  0.0404 -2.0625  0.6306
  665MOL0     H87742   1.696   5.969   2.913  2.1781 -1.7854  1.0209
  665MOL0     H87743   1.562   6.176   2.847 -2.2803  1.7105  1.9504
  665MOL0     H87744   1.597   6.770   3.051 -0.2215  0.3593 -2.2617
  665MOL0     H87745   1.434   6.948   3.127 -0.0881 -0.1849 -0.1884
  665MOL0     H87746   1.232   7.036   3.083  1.1838  3.9476  0.6773
  665MOL0     H87747   1.299   7.064   3.245 -0.9902  1.3030  0.6214
  665MOL0     H87748   1.127   7.209   3.238  0.2781 -0.2739 -0.3192
  665MOL0     H87749   1.070   7.073   3.337 -1.7621  1.4064  0.0329
  665MOL0     H87750   0.943   6.979   3.136 -0.1897 -1.4551  1.6802
  665MOL0     H87751   0.990   7.104   3.036  2.0596 -4.4883  0.2417
  665MOL0     H87752   0.786   7.115   3.251  1.6959 -1.5792  0.6847
  665MOL0     H87753   0.871   7.271   3.222 -0.7111  0.0238  1.9105
  665MOL0     H87754   0.704   7.113   3.019  0.8241  0.3317 -0.7211
  665MOL0     H87755   0.793   7.258   2.978 -4.2210  2.3020 -0.6749
  665MOL0     H87756   0.690   7.412   3.137  1.4435  0.2897 -0.5560
  665MOL0     H87757   0.582   7.271   3.181 -1.3481  2.0932 -0.6899
  665MOL0     H87758   0.627   7.413   2.918  3.7049 -1.2929  2.1774
  665MOL0     H87759   0.522   7.275   2.946  2.6184 -0.5526  0.3057
  665MOL0     H87760   0.500   7.542   3.090 -3.4566  0.1356  0.9526
  665MOL0     H87761   0.381   7.409   3.108 -1.6031 -2.6123 -2.2876
  665MOL0     H87762   1.150   6.632   3.216 -2.0005  3.0412 -2.8796
  665MOL0     H87763   1.326   6.470   3.144  0.8442 -0.1359 -3.1941
  665MOL0     H87764   1.780   6.418   3.128 -1.4537  0.1421  1.4262
  665MOL0     H87765   1.932   6.214   3.166 -1.2355 -0.6018  1.7827
  665MOL0     H87766   1.015   6.163   3.641  0.4696  0.2450  0.0776
  665MOL0     H87767   0.825   6.235   3.774 -1.2119 -0.3831  0.7567
  665MOL0     H87768   0.521   6.319   3.902 -0.5795  1.9474  1.6814
  665MOL0     H87769   0.347   6.445   3.951  1.4036  0.3178  2.2480
  665MOL0     H87770   0.124   6.485   3.969  1.5157  0.0852 -0.5163
  665MOL0     H87771   0.212   6.591   4.074  0.5811 -1.4650 -0.8359
  665MOL0     H87772  -0.061   6.496   4.131 -0.6776  0.9820  1.9886
  665MOL0     H87773   0.042   6.595   4.237 -2.0582  1.7658  0.3489
  665MOL0     H87774  -0.041   6.698   3.972 -1.6993  1.3808  0.2841
  665MOL0     H87775   0.059   6.777   4.102  2.0747 -3.4139  0.6780
  665MOL0     H87776  -0.213   6.821   4.068  3.5819  0.9377 -2.9778
  665MOL0     H87777  -0.224   6.665   4.134  0.0602  0.2870  0.4584
  665MOL0     H87778  -0.123   6.862   4.497  0.1614 -1.2889 -0.8120
  665MOL0     H87779   0.218   6.151   4.251  0.0951  0.2926  0.4314
  665MOL0     H87780   0.375   5.998   4.147  1.7130 -1.4340  1.8153
  666MOL0     O87781   2.089   1.069   0.595  0.1593 -0.0408 -0.2163
  666MOL0     C87782   2.010   1.025   0.510  0.1865  0.4299  0.4730
  666MOL0     O87783   1.990   0.892   0.483 -0.2510  0.3475 -0.7497
  666MOL0     C87784   2.076   0.800   0.544 -0.7521  0.7762  0.0356
  666MOL0     C87785   2.022   0.710   0.635 -0.6281 -0.5616 -0.3806
  666MOL0     C87786   2.105   0.619   0.706  0.4366 -0.1803  0.3960
  666MOL0     C87787   2.244   0.625   0.681  0.7495  0.7755  0.1760
  666MOL0     O87788   2.314   0.525   0.752 -1.2782  0.1600 -0.1625
  666MOL0     C87789   2.459   0.543   0.764 -0.8850  0.0836  0.0930
  666MOL0     C87790   2.521   0.661   0.843 -1.0611  0.3322 -0.7117
  666MOL0     C87791   2.656   0.610   0.902 -0.2723  0.3442  0.0939
  666MOL0     C87792   2.715   0.723   0.975 -0.3996  1.1833  0.1420
  666MOL0     C87793   2.857   0.684   1.023  0.0813  0.1371  0.2660
  666MOL0     C87794   2.921   0.808   1.070  0.5322  1.3853 -0.2011
  666MOL0     C87795   3.062   0.780   1.117  0.2674  0.4112 -0.2446
  666MOL0     C87796   3.155   0.712   1.017 -0.2965 -0.0382  0.2178
  666MOL0     N87797   3.187   0.796   0.903  0.8965  0.5157  0.4410
  666MOL0     C87798   3.265   0.911   0.895 -0.4164 -0.3333 -0.4426
  666MOL0     C87799   3.272   0.941   0.763 -0.1136  0.3977  1.5632
  666MOL0     C87800   3.322   1.074   0.701  0.5416  0.3963  0.1861
  666MOL0     C87801   3.400   1.049   0.568 -0.4670 -0.9533  0.6608
  666MOL0     C87802   3.464   1.177   0.515 -0.4114  0.4108 -0.3598
  666MOL0     C87803   3.377   1.240   0.403 -0.5801 -0.4506  0.0233
  666MOL0     O87804   3.426   1.380   0.397 -0.8549 -0.5818  0.6182
  666MOL0     C87805   3.370   1.475   0.490 -0.5919  0.9801  0.3589
  666MOL0     C87806   3.256   1.458   0.572 -0.6182  0.4305  0.3569
  666MOL0     C87807   3.208   1.560   0.652 -0.6802  0.0017  0.3256
  666MOL0     C87808   3.277   1.682   0.652 -0.3463 -0.0445 -0.5354
  666MOL0     C87809   3.235   1.796   0.739 -0.8048  1.2641 -0.5459
  666MOL0     O87810   3.310   1.914   0.725  1.2309 -0.1020 -0.1956
  666MOL0     C87811   3.289   2.029   0.802 -0.8520 -0.3382 -0.1253
  666MOL0     C87812   3.406   2.098   0.845 -0.6587  0.2814 -0.6025
  666MOL0     C87813   3.397   2.207   0.921  0.3336  0.0274 -1.1255
  666MOL0     C87814   3.276   2.259   0.958 -0.2940  0.7034 -0.6102
  666MOL0     O87815   3.257   2.366   1.050 -0.1813 -0.3330 -0.1329
  666MOL0     C87816   3.368   2.412   1.132 -0.8506  0.2694  0.3230
  666MOL0     C87817   3.300   2.497   1.234 -0.1279 -0.4217 -0.9912
  666MOL0     C87818   3.395   2.581   1.317 -0.6502  0.3868  0.4490
  666MOL0     C87819   3.314   2.683   1.391  0.8325 -0.2900  0.0993
  666MOL0     C87820   3.390   2.808   1.443  0.5316  0.3903  1.5251
  666MOL0     C87821   3.298   2.911   1.510  0.4033  0.1969  0.4131
  666MOL0     C87822   3.369   3.050   1.509  0.7411  0.5079 -0.1096
  666MOL0     C87823   3.486   3.062   1.607  0.3155  0.5756 -1.1988
  666MOL0    Cl87824   3.428   3.017   1.771  0.2462  0.3943  0.3526
  666MOL0     C87825   3.160   2.203   0.908 -0.3335  0.5615  0.0825
  666MOL0     C87826   3.165   2.079   0.835 -0.7855  0.4782  0.1860
  666MOL0     O87827   3.134   1.773   0.807  0.1505 -0.1582  0.2187
  666MOL0     C87828   3.394   1.694   0.587 -0.3734 -0.0173  1.0164
  666MOL0     C87829   3.447   1.585   0.503  0.5894 -1.2010 -0.3991
  666MOL0     N87830   3.208   0.846   0.687  0.0955 -0.3757 -0.9748
  666MOL0     N87831   3.162   0.755   0.775  0.0440  0.6272  0.1858
  666MOL0     C87832   2.294   0.708   0.590  0.3412 -0.5900  0.0442
  666MOL0     C87833   2.218   0.801   0.522 -0.2094 -0.5555 -0.3645
  666MOL0     C87834   1.917   1.126   0.453  0.1166 -0.0038  0.2245
  666MOL0     C87835   1.865   1.099   0.324  0.2512 -0.3881 -0.2071
  666MOL0     C87836   1.784   1.199   0.269  0.6318  0.7108  0.4662
  666MOL0     C87837   1.749   1.319   0.337 -0.6720 -0.5144 -0.0302
  666MOL0     O87838   1.648   1.406   0.287 -1.1130 -0.1596  0.6510
  666MOL0     C87839   1.711   1.506   0.198 -0.1094 -0.5845  0.0051
  666MOL0     C87840   1.618   1.620   0.185  0.2220  0.2899 -0.9079
  666MOL0     C87841   1.682   1.746   0.127 -0.4146 -0.3485  0.4023
  666MOL0     C87842   1.574   1.853   0.090 -0.0286  0.1030 -0.1093
  666MOL0     C87843   1.638   1.968   0.024  0.1541  0.2907  0.7217
  666MOL0     C87844   1.681   2.060  -0.047 -0.0676 -0.7196 -0.4369
  666MOL0     C87845   1.807   1.336   0.460 -0.7658 -0.6124  0.2321
  666MOL0     C87846   1.885   1.238   0.523 -0.1884  0.0568  0.1434
  666MOL0     H87847   1.914   0.708   0.639 -0.6548 -2.0388 -1.1041
  666MOL0     H87848   2.060   0.554   0.781  2.1424 -2.5221 -0.5209
  666MOL0     H87849   2.502   0.547   0.663 -3.5489  0.4839 -1.1375
  666MOL0     H87850   2.490   0.450   0.811  1.1743 -0.5909 -2.3632
  666MOL0     H87851   2.444   0.687   0.917 -1.4417  0.7357 -1.2367
  666MOL0     H87852   2.538   0.746   0.777  2.4906  2.0603  2.1167
  666MOL0     H87853   2.726   0.589   0.821  0.8467  4.9290 -0.3797
  666MOL0     H87854   2.632   0.526   0.968  0.8904 -0.4184 -0.4276
  666MOL0     H87855   2.719   0.812   0.912  2.8860 -0.8400 -2.9018
  666MOL0     H87856   2.653   0.756   1.059 -0.6765 -1.3830  1.0252
  666MOL0     H87857   2.919   0.637   0.945  1.7520 -2.7283  3.0645
  666MOL0     H87858   2.854   0.608   1.101  2.6080 -0.5682 -0.2140
  666MOL0     H87859   2.861   0.854   1.149 -1.9429 -1.2125 -0.4151
  666MOL0     H87860   2.916   0.879   0.986 -1.4778  3.0159  1.1659
  666MOL0     H87861   3.104   0.876   1.150 -2.8047  0.8592  2.9364
  666MOL0     H87862   3.056   0.707   1.198  1.1194  0.8594  0.2404
  666MOL0     H87863   3.125   0.609   0.995 -1.5393 -1.0852  5.5387
  666MOL0     H87864   3.250   0.699   1.070  0.8227  1.0204 -1.4277
  666MOL0     H87865   3.292   0.971   0.981 -2.7329  0.7051 -0.3377
  666MOL0     H87866   3.390   1.123   0.772 -4.2718  0.7305  5.1746
  666MOL0     H87867   3.236   1.138   0.677  1.3498  1.1822 -0.7453
  666MOL0     H87868   3.345   0.998   0.489  0.3041  0.0104 -0.5408
  666MOL0     H87869   3.486   0.984   0.587  0.7845  0.2084 -0.8048
  666MOL0     H87870   3.463   1.244   0.601  6.2086 -0.4700  0.8837
  666MOL0     H87871   3.567   1.164   0.480 -0.6765 -1.2419 -0.6213
  666MOL0     H87872   3.273   1.226   0.433 -0.2245 -1.9896  0.5995
  666MOL0     H87873   3.395   1.191   0.307 -1.5758  1.0339 -0.9723
  666MOL0     H87874   3.199   1.366   0.559  0.2052  0.1871 -2.1080
  666MOL0     H87875   3.113   1.550   0.704  0.1614 -0.8057  1.8182
  666MOL0     H87876   3.503   2.059   0.815 -0.1267  1.8609 -1.0671
  666MOL0     H87877   3.482   2.263   0.959  0.2471 -0.7615  0.2825
  666MOL0     H87878   3.433   2.465   1.062  0.9179 -0.1979  1.5395
  666MOL0     H87879   3.428   2.335   1.183  1.6707  0.0297 -2.6839
  666MOL0     H87880   3.237   2.439   1.302  0.5462 -1.3990 -1.1896
  666MOL0     H87881   3.230   2.565   1.184  1.6665  0.2155 -2.7532
  666MOL0     H87882   3.464   2.642   1.258 -0.2157  1.0166  1.5634
  666MOL0     H87883   3.435   2.510   1.390 -1.9746  1.7301  2.5933
  666MOL0     H87884   3.228   2.714   1.331 -0.0908 -2.2427  0.3599
  666MOL0     H87885   3.265   2.640   1.479 -2.3897 -1.1685 -1.9541
  666MOL0     H87886   3.436   2.860   1.358  0.3404  1.7790  2.2527
  666MOL0     H87887   3.468   2.786   1.516  1.8889 -2.7637 -0.6320
  666MOL0     H87888   3.258   2.894   1.611 -3.0281  1.2068 -0.6450
  666MOL0     H87889   3.208   2.918   1.448  0.9357 -2.1582 -0.7441
  666MOL0     H87890   3.398   3.079   1.407 -2.2665 -2.4486 -2.0356
  666MOL0     H87891   3.305   3.130   1.546  2.1154  0.9336  1.4618
  666MOL0     H87892   3.523   3.165   1.610 -0.5543  1.0640  4.6232
  666MOL0     H87893   3.564   2.990   1.578  1.4479  1.5080 -0.5617
  666MOL0     H87894   3.063   2.245   0.932 -1.7751 -0.3858 -3.4225
  666MOL0     H87895   3.079   2.025   0.796 -0.3632 -0.5256  0.6120
  666MOL0     H87896   3.451   1.784   0.606 -2.7909  1.2029  3.0173
  666MOL0     H87897   3.545   1.574   0.458  0.9829  1.0302 -0.2139
  666MOL0     H87898   2.401   0.729   0.588 -0.0631  1.7905  0.4671
  666MOL0     H87899   2.250   0.867   0.443  0.1632 -1.7747 -1.2744
  666MOL0     H87900   1.879   1.012   0.260 -1.3071 -0.4397 -0.5284
  666MOL0     H87901   1.742   1.179   0.171  1.8213  2.2319 -0.4073
  666MOL0     H87902   1.725   1.455   0.102 -2.3079 -3.7794  1.2225
  666MOL0     H87903   1.804   1.546   0.242  0.4243 -2.6798  0.9057
  666MOL0     H87904   1.539   1.589   0.116  0.4574 -1.1736 -0.5560
  666MOL0     H87905   1.585   1.662   0.281  2.3870  1.3824 -0.5857
  666MOL0     H87906   1.727   1.712   0.033  1.1180  0.1971  0.8980
  666MOL0     H87907   1.751   1.779   0.206  0.7715 -2.6864  0.4160
  666MOL0     H87908   1.484   1.815   0.039 -3.1767  2.2413  3.3421
  666MOL0     H87909   1.528   1.880   0.186  2.2685  1.1112  0.7644
  666MOL0     H87910   1.720   2.133  -0.115  2.6332 -1.7231 -0.0891
  666MOL0     H87911   1.787   1.428   0.514  2.0873 -1.0910  2.3313
  666MOL0     H87912   1.918   1.252   0.625  2.3020  2.2605 -0.8649
  667MOL0     O87913   2.847   5.473   5.029  0.6870 -0.9543  0.1276
  667MOL0     C87914   2.930   5.387   5.062 -0.9339 -0.5474  0.0035
  667MOL0     O87915   3.043   5.415   5.129 -0.2897 -0.5848 -0.0278
  667MOL0     C87916   3.066   5.545   5.171 -0.3822  0.0105 -0.1664
  667MOL0     C87917   3.118   5.651   5.092  0.6484 -0.8321  0.5230
  667MOL0     C87918   3.162   5.770   5.139 -0.2054 -0.7785 -0.3266
  667MOL0     C87919   3.152   5.795   5.275  0.1858 -0.5225 -0.6858
  667MOL0     O87920   3.187   5.913   5.329  0.2095 -0.6648  0.2211
  667MOL0     C87921   3.203   5.923   5.471  0.2058 -1.2380 -0.0553
  667MOL0     C87922   3.249   6.070   5.495  0.0375 -0.0974 -0.4917
  667MOL0     C87923   3.375   6.110   5.425  0.6043  0.3701  0.1676
  667MOL0     C87924   3.423   6.243   5.456 -0.2327 -1.4076 -0.6353
  667MOL0     C87925   3.555   6.259   5.383  0.0833 -0.7753 -0.4317
  667MOL0     C87926   3.595   6.406   5.353  0.2648 -0.2122 -0.5715
  667MOL0     C87927   3.673   6.470   5.469  0.2899 -0.4009  0.8741
  667MOL0     C87928   3.696   6.616   5.424  0.3911  0.0299 -0.3855
  667MOL0     N87929   3.751   6.688   5.537 -0.5354 -0.6027  1.3661
  667MOL0     C87930   3.886   6.717   5.548 -0.8015 -0.9663 -0.2212
  667MOL0     C87931   3.887   6.817   5.639 -1.0780 -0.4518  0.4404
  667MOL0     C87932   4.022   6.862   5.703  0.9421 -0.8919 -0.6068
  667MOL0     C87933   4.116   6.744   5.710 -0.9593  0.6966  0.2201
  667MOL0     C87934   4.245   6.786   5.781  0.6981 -0.3829 -0.1133
  667MOL0     C87935   4.368   6.695   5.775 -0.3850 -0.5254 -0.2883
  667MOL0     O87936   4.327   6.556   5.791 -0.4303  0.9079  0.3056
  667MOL0     C87937   4.401   6.483   5.892  0.0315  0.5157  0.6615
  667MOL0     C87938   4.540   6.473   5.891  0.5074 -1.0355 -0.6120
  667MOL0     C87939   4.605   6.413   5.993 -0.7720 -0.0363 -0.5742
  667MOL0     C87940   4.525   6.352   6.101  0.4469 -0.2530  0.7297
  667MOL0     C87941   4.592   6.303   6.221  0.5859  0.0810  0.6344
  667MOL0     O87942   4.508   6.267   6.326 -0.1556  0.3589  0.2376
  667MOL0     C87943   4.557   6.193   6.430 -0.6934 -0.3316  1.0191
  667MOL0     C87944   4.481   6.086   6.477 -0.2817 -0.2203 -0.2357
  667MOL0     C87945   4.528   5.992   6.574 -0.3578  0.4575  0.4724
  667MOL0     C87946   4.652   6.009   6.634  0.1312 -0.0250 -0.1980
  667MOL0     O87947   4.695   5.907   6.712  0.2901 -0.3479 -0.2194
  667MOL0     C87948   4.719   5.948   6.843  0.7429 -0.5964  0.4011
  667MOL0     C87949   4.595   5.954   6.932 -0.4441 -0.3563  0.5179
  667MOL0     C87950   4.630   6.007   7.072 -0.3246 -0.6014  0.2826
  667MOL0     C87951   4.685   5.890   7.153  1.0662 -0.9943  0.6149
  667MOL0     C87952   4.660   5.914   7.305  0.5330  0.5595 -0.3484
  667MOL0     C87953   4.721   5.808   7.390  0.1080  1.3773 -0.1101
  667MOL0     C87954   4.659   5.668   7.370 -0.2316 -0.4174  0.7085
  667MOL0     C87955   4.730   5.561   7.446  0.2346  0.0304 -1.5224
  667MOL0    Cl87956   4.891   5.524   7.365 -0.3436  0.3977 -0.5510
  667MOL0     C87957   4.729   6.118   6.590  0.2112 -0.3585 -0.6334
  667MOL0     C87958   4.687   6.206   6.487  0.0042 -0.3239  0.2220
  667MOL0     O87959   4.715   6.291   6.211 -0.5497  0.5063  0.2057
  667MOL0     C87960   4.378   6.360   6.094 -1.1358  0.2962  0.8034
  667MOL0     C87961   4.319   6.415   5.981  0.3797  0.2343  0.5020
  667MOL0     N87962   3.765   6.858   5.679  0.9157 -0.6289  0.5685
  667MOL0     N87963   3.680   6.771   5.617 -1.2762 -0.0550 -0.6228
  667MOL0     C87964   3.077   5.700   5.350 -0.1708  0.0100 -0.2986
  667MOL0     C87965   3.048   5.573   5.304  0.7028 -0.6561 -0.1734
  667MOL0     C87966   2.909   5.250   5.024  0.7825 -0.4702  0.5741
  667MOL0     C87967   3.008   5.152   5.016  0.2888 -0.9005 -0.5081
  667MOL0     C87968   2.971   5.022   4.992  0.1249 -0.4058 -0.4984
  667MOL0     C87969   2.839   4.982   4.964  0.6924 -0.3794  0.3191
  667MOL0     O87970   2.832   4.855   4.923  0.0793  0.6205 -0.0853
  667MOL0     C87971   2.790   4.838   4.794 -0.5595 -0.2072  0.9237
  667MOL0     C87972   2.914   4.829   4.696 -0.7608  0.9851  0.2424
  667MOL0     C87973   2.994   4.704   4.715 -0.3677 -0.0316 -0.3436
  667MOL0     C87974   2.933   4.566   4.692 -0.2666 -0.6201 -0.7144
  667MOL0     C87975   2.909   4.536   4.548  0.3287 -0.0407 -0.3392
  667MOL0     C87976   2.859   4.522   4.447 -0.3629  0.2785  0.2157
  667MOL0     C87977   2.742   5.088   4.955  0.6666  0.6061  0.6985
  667MOL0     C87978   2.781   5.217   4.977 -1.6306  0.6801 -0.0924
  667MOL0     H87979   3.143   5.620   4.991  0.6259 -1.0908  0.5972
  667MOL0     H87980   3.217   5.846   5.084 -0.8063  0.1821  0.3914
  667MOL0     H87981   3.274   5.847   5.504  1.0068 -1.0257 -1.2013
  667MOL0     H87982   3.109   5.919   5.526 -0.1470 -1.9535 -0.6937
  667MOL0     H87983   3.258   6.077   5.603 -2.7923 -3.1108  0.1028
  667MOL0     H87984   3.170   6.141   5.466  1.3767  2.3465  1.4425
  667MOL0     H87985   3.361   6.110   5.317  0.8472 -0.5979  0.1335
  667MOL0     H87986   3.456   6.046   5.462 -0.8640 -0.4349  2.2050
  667MOL0     H87987   3.359   6.320   5.411  0.2877 -2.2344 -2.9401
  667MOL0     H87988   3.422   6.261   5.564  0.1911 -0.4020 -0.7889
  667MOL0     H87989   3.559   6.206   5.288  1.8400  2.5748 -2.4011
  667MOL0     H87990   3.635   6.217   5.446  0.9860  1.6742  0.1723
  667MOL0     H87991   3.509   6.472   5.336 -1.1349 -2.1401 -1.2256
  667MOL0     H87992   3.648   6.411   5.257 -1.1192  3.3144 -1.3140
  667MOL0     H87993   3.615   6.471   5.561  0.9989  2.2826  1.3920
  667MOL0     H87994   3.768   6.417   5.472 -0.2018 -1.4459 -0.6887
  667MOL0     H87995   3.600   6.667   5.413  0.2313 -0.4036 -1.1032
  667MOL0     H87996   3.768   6.623   5.341  1.5741 -0.3320  0.5842
  667MOL0     H87997   3.968   6.656   5.511 -1.1025 -0.6476 -1.4738
  667MOL0     H87998   4.006   6.903   5.803 -2.2171  0.9448 -1.7364
  667MOL0     H87999   4.061   6.933   5.629  2.0730 -0.8079  0.0539
  667MOL0     H88000   4.163   6.724   5.612 -0.4319 -1.3313  0.8318
  667MOL0     H88001   4.078   6.647   5.743 -1.2181 -0.4785 -3.0815
  667MOL0     H88002   4.278   6.888   5.761 -0.4505  1.3914  5.2061
  667MOL0     H88003   4.219   6.791   5.887  0.8590 -0.2870 -0.0774
  667MOL0     H88004   4.429   6.728   5.860 -2.3139 -2.8526  2.1975
  667MOL0     H88005   4.413   6.719   5.678 -0.7494 -0.7907 -0.5247
  667MOL0     H88006   4.602   6.535   5.827 -1.1136  1.4750  0.0884
  667MOL0     H88007   4.713   6.420   6.001 -0.7726  0.7173 -1.1204
  667MOL0     H88008   4.388   6.065   6.425  1.4941  0.8931 -4.1784
  667MOL0     H88009   4.461   5.909   6.598  0.0600 -1.2060 -3.3900
  667MOL0     H88010   4.765   6.047   6.850 -0.6030  0.1928 -1.0877
  667MOL0     H88011   4.779   5.872   6.894  0.4747  0.0688  1.7561
  667MOL0     H88012   4.551   5.853   6.932 -0.1783 -0.4776  1.5087
  667MOL0     H88013   4.520   6.020   6.888  2.9243  1.7296 -2.6991
  667MOL0     H88014   4.543   6.054   7.118 -1.5936 -1.4814 -1.0994
  667MOL0     H88015   4.706   6.084   7.062 -1.6328  0.4335 -3.3310
  667MOL0     H88016   4.628   5.803   7.118  2.3565 -0.6780 -2.6459
  667MOL0     H88017   4.789   5.862   7.130  0.7654  0.3487 -2.9996
  667MOL0     H88018   4.562   5.919   7.353  2.7510  1.6527  4.7510
  667MOL0     H88019   4.725   6.001   7.317 -0.6511  1.2847  1.0855
  667MOL0     H88020   4.721   5.838   7.495  0.3776 -0.2786  0.3928
  667MOL0     H88021   4.826   5.802   7.358 -0.1193 -2.2818 -0.6230
  667MOL0     H88022   4.553   5.671   7.394 -0.2209  2.7869  0.7860
  667MOL0     H88023   4.674   5.633   7.267  0.6764  0.1307  0.6365
  667MOL0     H88024   4.668   5.471   7.456  3.9532 -2.5096  0.9189
  667MOL0     H88025   4.758   5.601   7.544 -1.8085 -0.2380 -0.7741
  667MOL0     H88026   4.827   6.120   6.638  0.9549 -1.4427 -2.0107
  667MOL0     H88027   4.751   6.287   6.456  1.6699 -2.1600 -1.4477
  667MOL0     H88028   4.319   6.328   6.179  0.9295  1.5772  2.8459
  667MOL0     H88029   4.211   6.425   5.983  0.4078  0.4376  0.9443
  667MOL0     H88030   3.059   5.721   5.455  0.3744 -0.2782 -0.1442
  667MOL0     H88031   3.004   5.493   5.362  1.3046 -0.4565  0.5863
  667MOL0     H88032   3.110   5.172   5.050  0.4652 -0.6275 -1.1865
  667MOL0     H88033   3.057   4.954   4.998  1.8611  1.7174  5.4063
  667MOL0     H88034   2.726   4.917   4.752 -0.0481  0.3847  1.2483
  667MOL0     H88035   2.742   4.740   4.788  1.4220 -1.2126  0.7473
  667MOL0     H88036   2.883   4.840   4.592 -1.0770  0.9700  0.3332
  667MOL0     H88037   2.975   4.919   4.711  1.2332 -0.3643  0.7439
  667MOL0     H88038   3.027   4.701   4.819 -0.2481 -2.4706 -0.3988
  667MOL0     H88039   3.089   4.711   4.662  1.1602 -3.1916  1.6382
  667MOL0     H88040   3.005   4.492   4.728 -0.1279  0.1992  0.7481
  667MOL0     H88041   2.840   4.555   4.749  2.0801 -0.8910  3.4864
  667MOL0     H88042   2.802   4.493   4.360 -2.3104  2.0287  0.8024
  667MOL0     H88043   2.640   5.069   4.921  1.4640  2.7005 -3.5701
  667MOL0     H88044   2.708   5.296   4.965 -1.8518  0.3312 -1.2337
  668MOL0     O88045   2.278   9.541   9.000 -0.1679  0.3692 -0.0881
  668MOL0     C88046   2.288   9.528   9.127  0.4258  0.1353  0.0977
  668MOL0     O88047   2.384   9.467   9.204 -0.3449 -0.1982  0.6628
  668MOL0     C88048   2.483   9.388   9.145  0.0700 -1.1751 -0.2604
  668MOL0     C88049   2.512   9.367   9.011  0.1182  0.2378  0.5244
  668MOL0     C88050   2.620   9.295   8.970  1.0977  0.1743  0.1212
  668MOL0     C88051   2.714   9.248   9.055 -0.4913 -0.9515 -0.3021
  668MOL0     O88052   2.824   9.176   9.000 -0.7007 -0.0766 -0.1068
  668MOL0     C88053   2.925   9.143   9.091 -1.1369  0.6766  0.8147
  668MOL0     C88054   3.032   9.072   9.009  0.5062  0.5942  0.5400
  668MOL0     C88055   3.120   8.967   9.067 -0.9124 -0.6211 -0.9241
  668MOL0     C88056   3.195   9.012   9.187 -0.0111 -0.1447  0.1952
  668MOL0     C88057   3.280   8.893   9.241  0.0210 -0.2091 -0.3681
  668MOL0     C88058   3.414   8.878   9.171 -0.0286  0.5564 -0.1430
  668MOL0     C88059   3.521   8.974   9.212  0.0559  1.5516 -0.2313
  668MOL0     C88060   3.656   8.967   9.136 -0.1327  0.1417  0.6340
  668MOL0     N88061   3.774   9.030   9.204 -0.3493 -0.8690  0.0101
  668MOL0     C88062   3.782   9.156   9.244 -0.4049  0.6964 -1.0946
  668MOL0     C88063   3.907   9.166   9.286  0.2501 -0.2248 -0.5626
  668MOL0     C88064   3.947   9.297   9.350  0.4069  0.3340  0.7297
  668MOL0     C88065   3.873   9.296   9.491  0.1021 -0.3348 -0.4444
  668MOL0     C88066   3.913   9.412   9.586 -0.0256 -0.4108 -0.0079
  668MOL0     C88067   3.796   9.444   9.678  0.2445 -0.5738 -1.1038
  668MOL0     O88068   3.681   9.487   9.614 -0.0326 -0.5099 -1.3480
  668MOL0     C88069   3.562   9.504   9.684  0.6864 -0.2101 -0.0154
  668MOL0     C88070   3.542   9.486   9.816  0.0977  0.2216 -1.1313
  668MOL0     C88071   3.416   9.508   9.876  0.8225  0.2286  0.0594
  668MOL0     C88072   3.308   9.541   9.792 -0.3755 -0.3682 -0.7596
  668MOL0     C88073   3.184   9.559   9.845  0.2771  0.0073 -0.2835
  668MOL0     O88074   3.157   9.513   9.968 -0.9200  0.5407  0.1465
  668MOL0     C88075   3.025   9.505   9.995  0.0665 -0.1588 -0.4908
  668MOL0     C88076   2.932   9.605  10.028  0.2988 -0.3875 -0.1363
  668MOL0     C88077   2.796   9.585  10.036 -0.7805  0.1794  0.5518
  668MOL0     C88078   2.751   9.457  10.040  0.3866  1.1227 -0.0598
  668MOL0     O88079   2.625   9.421  10.070  0.4729 -0.2345  0.5555
  668MOL0     C88080   2.541   9.517  10.129 -0.5974  0.5785 -0.2768
  668MOL0     C88081   2.431   9.435  10.188 -0.3616 -0.0909 -0.0385
  668MOL0     C88082   2.329   9.371  10.093 -0.6403  0.5635  0.3672
  668MOL0     C88083   2.195   9.450  10.104 -0.3742 -1.0559  0.1795
  668MOL0     C88084   2.198   9.556   9.990  0.2302  0.2763 -0.0621
  668MOL0     C88085   2.083   9.652  10.001  0.2683  1.0970 -0.9184
  668MOL0     C88086   1.943   9.580  10.000 -0.6280  0.0004 -0.1216
  668MOL0     C88087   1.823   9.666   9.957  0.9275 -0.2348 -0.1532
  668MOL0    Cl88088   1.867   9.778   9.815  0.0185 -0.5332 -0.1930
  668MOL0     C88089   2.835   9.360   9.986 -1.7111  0.4493  0.4256
  668MOL0     C88090   2.962   9.376   9.970  0.0471 -0.8933  0.9243
  668MOL0     O88091   3.100   9.608   9.768  0.5446  0.5852  0.0516
  668MOL0     C88092   3.335   9.552   9.661  0.6894  0.2430 -0.0334
  668MOL0     C88093   3.460   9.534   9.608  0.4807  1.3012 -0.0868
  668MOL0     N88094   3.986   9.061   9.251 -1.0317 -0.6017 -1.0622
  668MOL0     N88095   3.900   8.977   9.219  0.1717  0.5014 -0.4078
  668MOL0     C88096   2.694   9.276   9.187 -0.8585  0.6044 -0.0700
  668MOL0     C88097   2.583   9.341   9.233 -0.3995  0.4174  0.0767
  668MOL0     C88098   2.194   9.610   9.202 -0.7649 -0.1469  0.8985
  668MOL0     C88099   2.141   9.741   9.156  0.0941  0.7533  0.3375
  668MOL0     C88100   2.032   9.798   9.218  1.0618  0.1938 -0.1764
  668MOL0     C88101   1.974   9.736   9.332 -0.3448 -0.4005 -0.6288
  668MOL0     O88102   1.867   9.786   9.411  0.2817  0.3814 -0.0149
  668MOL0     C88103   1.811   9.914   9.368 -0.2852  0.2487 -0.2552
  668MOL0     C88104   1.728   9.966   9.487  0.5976  1.1043 -0.0333
  668MOL0     C88105   1.586   9.912   9.475 -0.1589  0.4816 -0.0167
  668MOL0     C88106   1.491   9.971   9.575 -0.2205  0.0218  0.5075
  668MOL0     C88107   1.368   9.906   9.554  0.6419 -0.4208  0.9009
  668MOL0     C88108   1.263   9.845   9.549 -0.5633 -0.5201 -0.3149
  668MOL0     C88109   2.042   9.626   9.388 -0.6349 -1.0343 -0.6489
  668MOL0     C88110   2.141   9.553   9.314  0.1580 -0.0907 -0.5132
  668MOL0     H88111   2.443   9.397   8.932  0.7276  1.2538  0.3580
  668MOL0     H88112   2.634   9.256   8.870 -1.5594 -0.2044 -0.1750
  668MOL0     H88113   2.886   9.081   9.172 -4.2126  0.8994 -0.3417
  668MOL0     H88114   2.993   9.226   9.113  1.6159  0.0630 -4.0357
  668MOL0     H88115   3.100   9.150   8.974 -0.0959  1.0430  0.3553
  668MOL0     H88116   2.988   9.023   8.922  0.7925 -1.0677  1.2746
  668MOL0     H88117   3.205   8.946   9.002  0.4051  1.3066  0.1028
  668MOL0     H88118   3.061   8.877   9.091 -0.4811 -1.4770 -2.8496
  668MOL0     H88119   3.250   9.099   9.153  2.0559 -1.2466  0.5320
  668MOL0     H88120   3.128   9.036   9.271 -2.3945 -0.9253 -1.3648
  668MOL0     H88121   3.220   8.803   9.232 -1.3040  0.7054 -1.0649
  668MOL0     H88122   3.311   8.912   9.344 -0.6201 -1.0637 -0.0105
  668MOL0     H88123   3.391   8.869   9.064  0.8463 -2.6418 -0.1533
  668MOL0     H88124   3.451   8.778   9.192  1.0685  1.0981  0.5925
  668MOL0     H88125   3.484   9.076   9.200 -1.7711  0.9548  0.0372
  668MOL0     H88126   3.540   8.963   9.319 -0.0471  4.4335  0.1630
  668MOL0     H88127   3.657   8.984   9.028 -1.3907 -0.9940  0.4134
  668MOL0     H88128   3.685   8.862   9.144 -1.3802 -0.1322  2.4415
  668MOL0     H88129   3.703   9.228   9.265 -0.5014 -0.3379  2.9493
  668MOL0     H88130   3.896   9.370   9.287  0.1421  0.9169  1.6030
  668MOL0     H88131   4.047   9.339   9.361 -0.4227  1.9222  2.9147
  668MOL0     H88132   3.905   9.208   9.546 -1.4148  0.8162  2.5190
  668MOL0     H88133   3.765   9.296   9.474 -0.5553  1.1207  2.8623
  668MOL0     H88134   4.003   9.390   9.644  1.0722 -1.2252 -1.9154
  668MOL0     H88135   3.937   9.497   9.521 -2.3643 -0.3416 -0.8673
  668MOL0     H88136   3.830   9.517   9.753 -3.1883 -0.7045  0.7952
  668MOL0     H88137   3.778   9.352   9.735  2.4241  0.1741  0.9745
  668MOL0     H88138   3.622   9.448   9.879 -1.9175  1.4564  2.4696
  668MOL0     H88139   3.402   9.487   9.982 -1.7169 -2.5699 -0.7100
  668MOL0     H88140   2.979   9.703  10.030  0.2133 -0.3499  1.5378
  668MOL0     H88141   2.739   9.676  10.050 -0.3736  0.4646  0.3870
  668MOL0     H88142   2.502   9.588  10.055 -0.3282 -1.2932 -2.3255
  668MOL0     H88143   2.593   9.573  10.207  2.6666  0.1084 -1.9499
  668MOL0     H88144   2.379   9.501  10.259 -3.5919 -0.3943 -1.9002
  668MOL0     H88145   2.483   9.354  10.241  0.8212  0.2499 -0.6633
  668MOL0     H88146   2.318   9.265  10.118  1.0097  0.6375  1.5473
  668MOL0     H88147   2.362   9.373   9.989 -1.1353 -1.7821  0.1080
  668MOL0     H88148   2.110   9.381  10.102 -0.7204 -0.7559  2.4575
  668MOL0     H88149   2.187   9.504  10.198 -1.9934 -1.1630  0.1361
  668MOL0     H88150   2.192   9.510   9.891 -1.9586  2.0343 -0.8133
  668MOL0     H88151   2.296   9.599  10.012  1.5202 -2.4896  0.0835
  668MOL0     H88152   2.092   9.722   9.917 -2.0109 -1.0357 -3.1105
  668MOL0     H88153   2.092   9.711  10.092 -3.9135  0.9112 -0.1993
  668MOL0     H88154   1.953   9.496   9.930  2.0048 -0.5967  0.8538
  668MOL0     H88155   1.930   9.535  10.100  2.4195 -3.1791 -0.9333
  668MOL0     H88156   1.793   9.728  10.043 -1.9281 -2.1575  0.3782
  668MOL0     H88157   1.737   9.606   9.929 -1.7931  3.2768 -0.0141
  668MOL0     H88158   2.792   9.262   9.967  1.2267 -0.8587 -0.0444
  668MOL0     H88159   3.035   9.302   9.938  2.0740  1.2884  0.1277
  668MOL0     H88160   3.254   9.558   9.588 -0.0544  1.2622  0.8617
  668MOL0     H88161   3.467   9.515   9.501  0.4207 -1.1461  0.2881
  668MOL0     H88162   2.768   9.247   9.261  0.8862  0.0345 -1.9265
  668MOL0     H88163   2.571   9.353   9.340 -0.8086 -3.1274  0.5296
  668MOL0     H88164   2.178   9.789   9.066 -1.4499  1.5622  0.0989
  668MOL0     H88165   1.993   9.886   9.168 -1.2035  0.0194  1.1646
  668MOL0     H88166   1.751   9.898   9.278 -0.2460 -1.8746  0.0291
  668MOL0     H88167   1.887   9.992   9.361 -0.5288  0.8632  2.5980
  668MOL0     H88168   1.770   9.942   9.585 -0.7066 -1.0887  0.0499
  668MOL0     H88169   1.726  10.075   9.496 -0.1066  1.0494  0.5241
  668MOL0     H88170   1.593   9.805   9.493 -0.3949  0.7597  1.9907
  668MOL0     H88171   1.551   9.929   9.373  2.2059  5.8804 -0.2675
  668MOL0     H88172   1.522   9.951   9.678 -0.2034  2.2421  0.9686
  668MOL0     H88173   1.474  10.078   9.563 -2.1844 -0.3860 -0.8083
  668MOL0     H88174   1.166   9.800   9.537 -1.4676  0.6709  1.9384
  668MOL0     H88175   2.018   9.580   9.484  2.1335 -1.7673 -0.2069
  668MOL0     H88176   2.177   9.461   9.358  0.0517  0.1962  0.1892
  669MOL0     O88177   4.071   6.453   3.883 -0.4855  0.3181  0.3899
  669MOL0     C88178   4.044   6.569   3.926 -0.4013  0.4440 -0.1965
  669MOL0     O88179   3.949   6.648   3.882 -0.1159  0.5602 -0.4774
  669MOL0     C88180   3.867   6.615   3.768 -0.2104  0.0581 -0.4367
  669MOL0     C88181   3.764   6.705   3.736 -0.0791  0.6889  0.7811
  669MOL0     C88182   3.673   6.690   3.633 -0.7766  0.2279  0.4574
  669MOL0     C88183   3.676   6.577   3.548 -0.7888 -0.2812  1.7420
  669MOL0     O88184   3.583   6.565   3.442  0.0693 -0.0864 -0.1999
  669MOL0     C88185   3.559   6.679   3.369 -0.4945  0.3730  0.3158
  669MOL0     C88186   3.435   6.745   3.405  1.0883  0.3018 -1.0594
  669MOL0     C88187   3.296   6.669   3.378  0.2286 -0.4592  0.2437
  669MOL0     C88188   3.180   6.746   3.452 -0.1947 -0.4780 -0.1256
  669MOL0     C88189   3.039   6.703   3.408  0.0861 -0.8440 -0.2387
  669MOL0     C88190   3.002   6.554   3.443  0.8039 -0.1420 -0.4297
  669MOL0     C88191   2.863   6.526   3.395  0.5175 -0.5565 -0.0649
  669MOL0     C88192   2.861   6.467   3.244  0.3927 -1.0141  0.4717
  669MOL0     N88193   2.728   6.434   3.190  0.1824 -0.4129  0.4669
  669MOL0     C88194   2.671   6.308   3.189  0.1471 -0.1932  0.3809
  669MOL0     C88195   2.552   6.313   3.118  0.4178 -0.9326 -0.1749
  669MOL0     C88196   2.452   6.209   3.104 -0.1629 -0.0363  0.4940
  669MOL0     C88197   2.457   6.143   2.963  0.2836  0.1653 -1.1186
  669MOL0     C88198   2.365   6.023   2.930 -0.9257  0.0321  0.1959
  669MOL0     C88199   2.212   6.059   2.945 -0.4494 -0.1485  0.1256
  669MOL0     O88200   2.168   6.129   2.827  0.4284 -0.2052 -0.9022
  669MOL0     C88201   2.094   6.246   2.838  0.5040  0.7559  0.4394
  669MOL0     C88202   1.991   6.262   2.749  0.1223  0.1714 -0.3252
  669MOL0     C88203   1.911   6.378   2.749 -0.3865  0.1885  0.4632
  669MOL0     C88204   1.933   6.482   2.840  0.4422 -0.3442 -0.2950
  669MOL0     C88205   1.842   6.602   2.837  0.0966 -0.7861  0.1231
  669MOL0     O88206   1.754   6.608   2.735  0.2242  0.5001  0.0858
  669MOL0     C88207   1.671   6.720   2.728  0.3414  0.3650  0.2685
  669MOL0     C88208   1.726   6.848   2.724 -0.0719 -0.5746  0.1069
  669MOL0     C88209   1.643   6.956   2.699  0.1145  0.0093 -0.3223
  669MOL0     C88210   1.514   6.943   2.694  1.4961 -0.7246  0.0925
  669MOL0     O88211   1.443   7.055   2.703  0.1188 -0.2516  0.5648
  669MOL0     C88212   1.336   7.077   2.612 -1.1523 -0.1051  0.5349
  669MOL0     C88213   1.265   7.209   2.632  0.5346 -0.2899  0.8379
  669MOL0     C88214   1.352   7.337   2.625 -1.2586 -0.5805  0.1317
  669MOL0     C88215   1.269   7.462   2.661 -0.0324 -0.3366  0.8401
  669MOL0     C88216   1.366   7.580   2.670 -0.6814  0.1682  0.1577
  669MOL0     C88217   1.412   7.650   2.539  0.6910 -0.7497  0.3054
  669MOL0     C88218   1.470   7.792   2.573  1.1639 -0.5141 -0.1486
  669MOL0     C88219   1.456   7.878   2.447 -0.2788 -0.3787 -0.2836
  669MOL0    Cl88220   1.285   7.924   2.422  0.0005 -0.0533  0.3280
  669MOL0     C88221   1.452   6.815   2.705 -0.0391  0.5172  0.3761
  669MOL0     C88222   1.530   6.703   2.718 -0.3694 -0.7047 -0.2028
  669MOL0     O88223   1.849   6.678   2.927  0.3193 -0.7437  0.4061
  669MOL0     C88224   2.042   6.465   2.933 -0.6366  0.6175 -0.0260
  669MOL0     C88225   2.122   6.353   2.927 -0.3513 -0.5855 -0.3532
  669MOL0     N88226   2.548   6.448   3.067 -0.0150  0.3633 -0.4675
  669MOL0     N88227   2.657   6.515   3.097 -0.8055 -0.0034 -0.9270
  669MOL0     C88228   3.794   6.495   3.560  0.2447  0.4313 -0.2151
  669MOL0     C88229   3.884   6.514   3.668  0.1578  0.2554 -0.8032
  669MOL0     C88230   4.143   6.632   4.013  0.4012  1.2522  0.0368
  669MOL0     C88231   4.276   6.580   4.028  0.1266 -0.5527  0.0613
  669MOL0     C88232   4.378   6.655   4.086 -0.5756 -0.1374  0.3257
  669MOL0     C88233   4.332   6.760   4.166 -0.2805 -1.0167 -0.2071
  669MOL0     O88234   4.408   6.827   4.267  0.9308 -0.7893 -0.7214
  669MOL0     C88235   4.536   6.770   4.313  0.0335  0.6759  0.3962
  669MOL0     C88236   4.516   6.621   4.368 -0.7709  0.1706  0.1862
  669MOL0     C88237   4.418   6.605   4.492 -0.2355  0.1666  0.0870
  669MOL0     C88238   4.436   6.689   4.612 -0.0185  0.1037  0.8033
  669MOL0     C88239   4.335   6.785   4.606  0.0770  0.1571  0.2744
  669MOL0     C88240   4.244   6.859   4.622 -0.1580 -0.1847 -0.1339
  669MOL0     C88241   4.200   6.814   4.157  0.3343 -0.2493 -1.4960
  669MOL0     C88242   4.109   6.751   4.083  0.2797 -0.2098  0.6720
  669MOL0     H88243   3.762   6.777   3.818 -0.4589 -0.3314  1.6945
  669MOL0     H88244   3.588   6.757   3.622 -0.8899  0.1185  0.6698
  669MOL0     H88245   3.567   6.661   3.261  0.8115 -3.2242  0.8559
  669MOL0     H88246   3.643   6.748   3.384 -1.2782  1.6344 -0.8629
  669MOL0     H88247   3.431   6.839   3.349 -0.5790  2.3697  2.2246
  669MOL0     H88248   3.439   6.790   3.504 -0.3025  3.3721 -2.2856
  669MOL0     H88249   3.309   6.573   3.428  0.2222  0.4123  1.9766
  669MOL0     H88250   3.268   6.663   3.272  2.0470 -3.0475 -0.1909
  669MOL0     H88251   3.198   6.738   3.560  1.1334 -1.4077 -0.3917
  669MOL0     H88252   3.189   6.853   3.430 -2.0662 -0.0179  1.0965
  669MOL0     H88253   3.033   6.717   3.300  1.4099  0.9047 -0.1194
  669MOL0     H88254   2.966   6.778   3.439  2.7118  1.6218  0.3515
  669MOL0     H88255   3.011   6.536   3.551 -0.6667 -2.3575 -0.6039
  669MOL0     H88256   3.071   6.478   3.404 -0.3511 -0.9963 -0.8715
  669MOL0     H88257   2.805   6.464   3.465 -4.0470 -0.1009 -2.9581
  669MOL0     H88258   2.809   6.621   3.387  1.4120 -0.1819 -2.5693
  669MOL0     H88259   2.927   6.381   3.226 -0.2411 -1.2026 -1.2369
  669MOL0     H88260   2.917   6.546   3.194  2.2935 -0.8395  2.7655
  669MOL0     H88261   2.723   6.226   3.237 -1.6107  0.1829  3.2025
  669MOL0     H88262   2.353   6.252   3.122 -0.0266  0.8110 -0.6481
  669MOL0     H88263   2.469   6.128   3.176 -0.1854 -0.7952 -0.3248
  669MOL0     H88264   2.560   6.110   2.948  0.6336  0.1447  0.9475
  669MOL0     H88265   2.419   6.215   2.890 -2.4046 -0.4078 -0.3964
  669MOL0     H88266   2.377   5.990   2.826  0.0656  0.3439  0.2035
  669MOL0     H88267   2.391   5.929   2.980 -2.1456  0.1423  1.0647
  669MOL0     H88268   2.200   6.131   3.027 -0.7330  0.9987 -0.8912
  669MOL0     H88269   2.144   5.976   2.964 -2.7540  1.8131  0.9302
  669MOL0     H88270   1.957   6.181   2.685  0.9828  0.1803 -0.8022
  669MOL0     H88271   1.838   6.386   2.669 -0.6513 -2.4847  0.3158
  669MOL0     H88272   1.832   6.869   2.726 -0.8679  4.4990  1.9026
  669MOL0     H88273   1.694   7.050   2.682  0.2184 -0.1217 -0.7530
  669MOL0     H88274   1.255   7.003   2.621 -0.8582 -0.5718 -0.4958
  669MOL0     H88275   1.372   7.073   2.509 -0.3301 -0.7899  0.8336
  669MOL0     H88276   1.212   7.192   2.726 -2.5252 -1.1467 -0.8925
  669MOL0     H88277   1.186   7.220   2.556 -1.3568 -0.9471  2.6086
  669MOL0     H88278   1.397   7.341   2.526  3.2479 -0.1432  1.9831
  669MOL0     H88279   1.434   7.331   2.697  2.4036  2.4022 -3.3579
  669MOL0     H88280   1.200   7.477   2.578  0.0069  2.0209  1.1502
  669MOL0     H88281   1.218   7.448   2.757  0.9509  0.9740  1.5937
  669MOL0     H88282   1.459   7.548   2.717  0.1833  0.1719 -1.4641
  669MOL0     H88283   1.310   7.657   2.723  1.0251  2.8153 -1.6188
  669MOL0     H88284   1.321   7.666   2.480  0.7749  0.1871  0.4226
  669MOL0     H88285   1.478   7.575   2.494  0.7753 -0.9891  0.8186
  669MOL0     H88286   1.411   7.840   2.651  1.3793 -1.6016  0.7135
  669MOL0     H88287   1.573   7.784   2.607  0.8432 -0.6343  0.8152
  669MOL0     H88288   1.504   7.849   2.354  2.3593  2.1602  0.1389
  669MOL0     H88289   1.511   7.970   2.467  0.0508 -0.0309 -2.5519
  669MOL0     H88290   1.343   6.810   2.705 -0.0998 -0.6098 -3.2766
  669MOL0     H88291   1.492   6.602   2.725  0.5750 -1.4054 -3.4935
  669MOL0     H88292   2.051   6.529   3.020 -3.5404 -0.3941  1.1400
  669MOL0     H88293   2.208   6.356   2.993 -0.3981  2.4421 -0.3215
  669MOL0     H88294   3.806   6.411   3.492  1.1939  0.9197 -0.6618
  669MOL0     H88295   3.959   6.436   3.676  1.2988  1.5277  2.9215
  669MOL0     H88296   4.300   6.483   3.985 -0.2806 -2.4168  3.6192
  669MOL0     H88297   4.482   6.631   4.067 -1.9225 -3.3550 -4.6608
  669MOL0     H88298   4.569   6.830   4.399 -0.8181 -1.0289  1.9984
  669MOL0     H88299   4.622   6.775   4.245  1.1919 -1.2685  1.6106
  669MOL0     H88300   4.482   6.548   4.295 -2.5722  0.6187  0.5400
  669MOL0     H88301   4.611   6.574   4.395 -2.4182 -3.5344  0.0471
  669MOL0     H88302   4.426   6.500   4.521 -1.0989  0.1570  0.3186
  669MOL0     H88303   4.315   6.607   4.455 -0.0011  1.5047 -0.5707
  669MOL0     H88304   4.414   6.633   4.703 -0.0568 -0.5709  0.3876
  669MOL0     H88305   4.540   6.722   4.601 -1.0699  3.1049 -1.7864
  669MOL0     H88306   4.154   6.914   4.602 -1.9053 -2.8816 -0.2330
  669MOL0     H88307   4.169   6.899   4.217  0.2570 -3.2136  3.1525
  669MOL0     H88308   4.010   6.796   4.075 -0.2797 -1.2910  1.3180
  670MOL0     O88309   3.360   2.411   2.547 -0.3741  0.5205  0.1235
  670MOL0     C88310   3.469   2.358   2.576  0.0539 -0.9223 -0.3312
  670MOL0     O88311   3.580   2.349   2.493  0.0291 -0.3148 -0.1944
  670MOL0     C88312   3.587   2.419   2.381  0.3554 -0.6342  0.1203
  670MOL0     C88313   3.561   2.552   2.360  0.6595  0.5280  0.3590
  670MOL0     C88314   3.574   2.616   2.233  0.1792  0.1525 -0.6140
  670MOL0     C88315   3.617   2.541   2.134 -0.3352  0.8377 -1.1543
  670MOL0     O88316   3.651   2.589   2.010  1.0736  0.8696  0.9069
  670MOL0     C88317   3.569   2.687   1.956 -0.3122  0.1047  0.4450
  670MOL0     C88318   3.487   2.650   1.831  0.6628  0.5508 -0.6977
  670MOL0     C88319   3.394   2.524   1.849  0.6813  0.2871 -0.4683
  670MOL0     C88320   3.290   2.527   1.964 -0.3134 -0.8391  0.0759
  670MOL0     C88321   3.224   2.402   1.997 -0.7411 -0.4651  0.3368
  670MOL0     C88322   3.107   2.427   2.100 -0.1399  0.2817  0.3433
  670MOL0     C88323   3.053   2.288   2.152  0.2331  0.4480  0.2139
  670MOL0     C88324   3.157   2.225   2.238  0.5242  0.5356  0.9135
  670MOL0     N88325   3.096   2.103   2.301  0.5302  0.1589  0.3363
  670MOL0     C88326   3.141   2.044   2.419  0.2351  0.6169 -0.5356
  670MOL0     C88327   3.069   1.930   2.422 -0.4906 -0.2935  0.3526
  670MOL0     C88328   3.074   1.816   2.526  0.0874 -0.3227  0.0902
  670MOL0     C88329   3.206   1.728   2.525  0.3699 -0.3929 -0.0206
  670MOL0     C88330   3.184   1.612   2.638 -1.0981 -0.4788  0.3353
  670MOL0     C88331   3.200   1.484   2.566 -0.5923 -0.0788 -0.4196
  670MOL0     O88332   3.338   1.438   2.579 -0.5674 -0.1189  0.8311
  670MOL0     C88333   3.388   1.353   2.676 -0.0663 -0.5465  0.1579
  670MOL0     C88334   3.524   1.324   2.681 -0.2769 -1.4914 -0.1526
  670MOL0     C88335   3.588   1.248   2.775  0.4780 -0.2012 -0.3790
  670MOL0     C88336   3.513   1.194   2.891 -0.9845 -0.1278  0.3413
  670MOL0     C88337   3.577   1.125   3.000  1.4178  0.7695  0.6094
  670MOL0     O88338   3.488   1.077   3.089  0.9387 -0.7256  0.2158
  670MOL0     C88339   3.535   1.015   3.201  0.6345 -0.7280 -0.2825
  670MOL0     C88340   3.631   0.909   3.208  0.6828  0.6344 -0.7479
  670MOL0     C88341   3.652   0.831   3.331  0.1142 -0.3232  0.3590
  670MOL0     C88342   3.586   0.864   3.440  0.3295 -0.0829  0.3968
  670MOL0     O88343   3.618   0.793   3.552 -0.7396  0.7058  0.2678
  670MOL0     C88344   3.568   0.819   3.682  0.8257 -0.1477 -0.3686
  670MOL0     C88345   3.455   0.727   3.710 -0.0241  0.2832 -0.7548
  670MOL0     C88346   3.397   0.774   3.839 -0.0791 -0.7138  0.0855
  670MOL0     C88347   3.306   0.669   3.901  0.0667  1.2619  0.8657
  670MOL0     C88348   3.226   0.726   4.014  0.2089  0.3662  0.3738
  670MOL0     C88349   3.117   0.824   3.983  0.6478 -0.4054  0.0753
  670MOL0     C88350   3.061   0.891   4.110  0.8508  0.0693 -0.5410
  670MOL0     C88351   2.950   0.991   4.080 -1.1169  0.0620  0.2852
  670MOL0    Cl88352   3.013   1.124   3.986  0.0864  0.2861 -0.1085
  670MOL0     C88353   3.491   0.962   3.436  0.7409 -0.1212  0.2352
  670MOL0     C88354   3.462   1.035   3.317 -0.0497  0.2329 -1.1147
  670MOL0     O88355   3.693   1.101   2.989 -0.1743  0.4067 -0.1195
  670MOL0     C88356   3.378   1.221   2.885 -0.5626  1.1264 -1.4095
  670MOL0     C88357   3.314   1.297   2.783  0.1821 -0.4148  0.8287
  670MOL0     N88358   2.971   1.932   2.318 -0.3239  0.0586  0.5654
  670MOL0     N88359   2.992   2.034   2.246 -0.6106 -0.6367 -0.2584
  670MOL0     C88360   3.660   2.409   2.154 -0.0945 -0.2337  0.0684
  670MOL0     C88361   3.641   2.353   2.276  0.4937  0.4546 -0.1761
  670MOL0     C88362   3.458   2.283   2.699  0.2317  0.5590 -0.6163
  670MOL0     C88363   3.338   2.242   2.764  0.6464 -0.3625  0.0923
  670MOL0     C88364   3.336   2.163   2.881 -0.0737 -0.2191  0.6947
  670MOL0     C88365   3.451   2.146   2.944 -0.3076 -0.8016  0.5647
  670MOL0     O88366   3.440   2.078   3.060  0.9476  0.6459 -0.3370
  670MOL0     C88367   3.516   2.131   3.172  0.2105  0.0398  0.4040
  670MOL0     C88368   3.451   2.262   3.217 -0.5382  0.4021  0.1858
  670MOL0     C88369   3.313   2.259   3.282  0.5181 -0.3858 -0.0115
  670MOL0     C88370   3.303   2.161   3.400  0.7631 -0.2854  1.3206
  670MOL0     C88371   3.409   2.177   3.504  1.0576  0.8924  0.7853
  670MOL0     C88372   3.495   2.181   3.592  0.4335 -0.3689  1.2001
  670MOL0     C88373   3.576   2.189   2.893  0.5594  0.2219  0.5405
  670MOL0     C88374   3.573   2.245   2.755 -1.1294  0.3636  0.4855
  670MOL0     H88375   3.503   2.610   2.431 -3.1159  0.1773 -2.1595
  670MOL0     H88376   3.555   2.723   2.223  4.0241  1.3066  1.9750
  670MOL0     H88377   3.636   2.763   1.917  0.3372 -1.4061 -1.5465
  670MOL0     H88378   3.500   2.725   2.032 -1.6477 -2.8139  0.8524
  670MOL0     H88379   3.551   2.641   1.742  4.1347  0.0251  1.6711
  670MOL0     H88380   3.422   2.733   1.801 -0.4297 -0.4636 -1.1990
  670MOL0     H88381   3.462   2.442   1.874  0.2161  0.4522  1.4740
  670MOL0     H88382   3.348   2.514   1.750  3.4610  1.5740 -2.0033
  670MOL0     H88383   3.345   2.565   2.050  2.9157  1.1127 -2.5714
  670MOL0     H88384   3.222   2.612   1.952 -0.7125 -0.8976  1.7885
  670MOL0     H88385   3.293   2.332   2.045 -0.1092  1.9780  3.2923
  670MOL0     H88386   3.193   2.363   1.900  2.8824 -1.0586 -0.7373
  670MOL0     H88387   3.024   2.477   2.049 -0.6935 -3.3425 -2.8351
  670MOL0     H88388   3.150   2.488   2.180  0.5950  0.5699 -0.2550
  670MOL0     H88389   2.960   2.305   2.206 -0.9885 -3.0906 -0.5498
  670MOL0     H88390   3.040   2.213   2.073 -0.9232 -0.1211  0.9244
  670MOL0     H88391   3.201   2.291   2.313  0.6382 -0.1070  1.4224
  670MOL0     H88392   3.238   2.188   2.173  0.5838 -1.6760  2.1418
  670MOL0     H88393   3.211   2.075   2.496 -1.6823 -1.6091  2.2763
  670MOL0     H88394   2.995   1.744   2.503 -0.8932  1.3909 -2.3585
  670MOL0     H88395   3.050   1.865   2.621 -1.0995 -1.3991  0.3768
  670MOL0     H88396   3.294   1.786   2.556  0.9261 -2.0783  1.7910
  670MOL0     H88397   3.226   1.694   2.423 -0.3743 -1.1146  0.0659
  670MOL0     H88398   3.246   1.626   2.727 -3.1743 -1.5935  2.0719
  670MOL0     H88399   3.081   1.624   2.674 -0.5278  0.6194  1.7241
  670MOL0     H88400   3.165   1.491   2.462 -1.0786  2.8358 -0.1368
  670MOL0     H88401   3.120   1.421   2.606 -1.2393  2.1967  2.0910
  670MOL0     H88402   3.586   1.343   2.593  3.3313 -1.0948  2.2693
  670MOL0     H88403   3.695   1.239   2.767  0.5725 -3.9145  2.3992
  670MOL0     H88404   3.671   0.879   3.112  1.0401  0.5149 -0.5676
  670MOL0     H88405   3.730   0.757   3.343 -2.6741 -3.6687 -0.3790
  670MOL0     H88406   3.542   0.925   3.692  2.7214  0.3586 -0.3392
  670MOL0     H88407   3.637   0.805   3.766 -1.0532  3.2299  2.0295
  670MOL0     H88408   3.496   0.626   3.716  0.2752  0.4407 -0.1088
  670MOL0     H88409   3.378   0.738   3.633 -1.6616 -0.2253  0.7471
  670MOL0     H88410   3.340   0.868   3.829  1.7794  0.2495 -2.8999
  670MOL0     H88411   3.467   0.797   3.920 -1.5296  0.7251  0.9925
  670MOL0     H88412   3.243   0.629   3.822  2.4327  1.2441 -1.1384
  670MOL0     H88413   3.378   0.603   3.950  1.4027  1.6215 -0.5431
  670MOL0     H88414   3.303   0.761   4.084  1.0034 -4.0332  2.0487
  670MOL0     H88415   3.181   0.643   4.070  0.7895 -0.3759 -0.2574
  670MOL0     H88416   3.032   0.774   3.935  0.0520  2.7962 -2.6055
  670MOL0     H88417   3.147   0.907   3.918  1.5158 -2.3357 -2.1581
  670MOL0     H88418   3.023   0.811   4.175  4.6844 -0.8539  0.8306
  670MOL0     H88419   3.143   0.931   4.172  3.2824 -3.2432 -1.3268
  670MOL0     H88420   2.909   1.049   4.163  2.5211  1.2428  1.4423
  670MOL0     H88421   2.862   0.941   4.039 -0.1082 -2.0512  0.5546
  670MOL0     H88422   3.428   0.979   3.523 -2.9920 -3.7770 -1.4022
  670MOL0     H88423   3.377   1.102   3.322  0.1828  0.5434 -1.2863
  670MOL0     H88424   3.323   1.199   2.976  3.7888 -0.7579  1.0785
  670MOL0     H88425   3.210   1.327   2.791  0.4669  1.3542 -1.0915
  670MOL0     H88426   3.714   2.358   2.075 -1.9211 -1.6063 -0.3644
  670MOL0     H88427   3.654   2.246   2.290  0.4867  0.1131 -2.4092
  670MOL0     H88428   3.244   2.273   2.722  0.0585 -1.4057  0.5903
  670MOL0     H88429   3.241   2.147   2.930 -0.1419  2.6300  1.6504
  670MOL0     H88430   3.623   2.133   3.146  0.0548  0.3260 -0.2331
  670MOL0     H88431   3.511   2.058   3.254  0.0839 -0.2013  0.1837
  670MOL0     H88432   3.507   2.306   3.300 -1.7898  0.8320  0.8441
  670MOL0     H88433   3.460   2.334   3.135 -3.1002  1.5961  0.8560
  670MOL0     H88434   3.248   2.232   3.198 -0.1522 -0.3308  0.4759
  670MOL0     H88435   3.296   2.363   3.309 -2.6612 -1.2824  1.9384
  670MOL0     H88436   3.204   2.172   3.445  0.2236 -2.7043  0.8395
  670MOL0     H88437   3.306   2.061   3.356  3.3618  0.9472 -1.7646
  670MOL0     H88438   3.560   2.164   3.675 -0.5940 -1.5426  1.8008
  670MOL0     H88439   3.667   2.161   2.944  0.4922  0.3418  0.7234
  670MOL0     H88440   3.673   2.257   2.715  0.3470 -4.8021  1.8417
  671MOL0     O88441   8.156   0.723   7.018  0.2908  0.5852 -1.0717
  671MOL0     C88442   8.251   0.767   7.079 -0.8150  0.2695 -0.0939
  671MOL0     O88443   8.380   0.790   7.035 -0.1762  0.3971  0.5653
  671MOL0     C88444   8.406   0.784   6.897 -0.7472 -0.3198 -0.5705
  671MOL0     C88445   8.328   0.847   6.798 -0.2477 -0.1820 -0.5184
  671MOL0     C88446   8.390   0.884   6.672  1.0637  0.6558 -0.2583
  671MOL0     C88447   8.509   0.834   6.625 -0.0872  0.7032  0.2325
  671MOL0     O88448   8.557   0.836   6.502  0.0531 -0.5219 -0.0642
  671MOL0     C88449   8.620   0.962   6.484 -0.4051  0.2056  0.7461
  671MOL0     C88450   8.636   1.000   6.335  0.1468 -1.4847 -1.1663
  671MOL0     C88451   8.500   0.982   6.245  0.3354  0.3346 -0.7001
  671MOL0     C88452   8.512   1.043   6.113  0.7838 -0.0873 -0.0522
  671MOL0     C88453   8.393   1.005   6.014  0.5860 -1.1728  0.7930
  671MOL0     C88454   8.413   1.072   5.890 -0.2021  0.1622  0.5280
  671MOL0     C88455   8.314   1.031   5.780  0.6597 -0.3109  0.0095
  671MOL0     C88456   8.306   1.141   5.675 -0.1675  0.2684  0.0340
  671MOL0     N88457   8.220   1.093   5.563 -0.7794 -0.4497 -0.2231
  671MOL0     C88458   8.085   1.067   5.567  0.1117 -0.3538  0.8719
  671MOL0     C88459   8.068   0.973   5.465 -0.6363 -0.3015  0.3263
  671MOL0     C88460   7.926   0.919   5.441  0.6511  0.6152  0.9523
  671MOL0     C88461   7.920   0.760   5.453 -0.7212  0.2653  0.1589
  671MOL0     C88462   8.007   0.681   5.351 -0.0036 -0.0249 -0.0046
  671MOL0     C88463   7.961   0.699   5.210 -0.4526 -0.6786  0.1861
  671MOL0     O88464   7.831   0.637   5.190  0.5805 -0.4757 -0.2448
  671MOL0     C88465   7.745   0.678   5.093 -1.1222 -0.0318 -0.4961
  671MOL0     C88466   7.774   0.759   4.991  0.6680  1.0251  0.9628
  671MOL0     C88467   7.681   0.792   4.893  0.7207  0.5037  0.1362
  671MOL0     C88468   7.544   0.751   4.909  0.1417 -0.3764  0.5452
  671MOL0     C88469   7.445   0.783   4.795 -0.3205  1.4899 -0.5782
  671MOL0     O88470   7.465   0.878   4.701  0.2375 -0.2038 -0.5190
  671MOL0     C88471   7.363   0.905   4.611  0.3908  1.0311  0.3041
  671MOL0     C88472   7.256   0.986   4.636  1.4061 -0.2279 -0.5251
  671MOL0     C88473   7.156   1.020   4.550 -0.2307 -0.3380  0.0098
  671MOL0     C88474   7.153   0.954   4.429  0.0096 -0.2520  0.3390
  671MOL0     O88475   7.057   0.995   4.336  0.7853  0.0606 -0.9561
  671MOL0     C88476   6.918   0.989   4.376  1.2562 -0.1048  0.1933
  671MOL0     C88477   6.826   0.981   4.255 -0.2684 -0.9789 -0.4483
  671MOL0     C88478   6.676   0.990   4.310 -0.7623  0.1100 -0.1641
  671MOL0     C88479   6.587   0.993   4.193 -0.3333 -0.8556  0.6154
  671MOL0     C88480   6.443   1.039   4.224 -0.1309  0.2006  0.3180
  671MOL0     C88481   6.354   1.084   4.103  1.0932 -0.1846  0.1637
  671MOL0     C88482   6.210   1.039   4.133 -0.0261 -0.5040  0.1748
  671MOL0     C88483   6.111   1.116   4.034 -0.3152 -0.5991  0.6205
  671MOL0    Cl88484   5.958   1.051   4.077 -0.1747 -0.1557 -0.2598
  671MOL0     C88485   7.261   0.870   4.393 -0.0173  0.1184  0.2382
  671MOL0     C88486   7.368   0.853   4.474  0.4753 -0.5349 -0.9219
  671MOL0     O88487   7.345   0.703   4.800 -0.2620 -0.5770  0.1412
  671MOL0     C88488   7.518   0.670   5.019 -1.1509  0.2600 -0.3725
  671MOL0     C88489   7.621   0.643   5.108  0.5869  0.2244 -0.1925
  671MOL0     N88490   8.183   0.939   5.398  0.3648 -0.4826 -0.4987
  671MOL0     N88491   8.268   1.016   5.461  0.8168  0.3655  1.1341
  671MOL0     C88492   8.590   0.770   6.731  1.0095 -0.5528  0.1657
  671MOL0     C88493   8.539   0.742   6.861 -0.2647  0.8058  0.0486
  671MOL0     C88494   8.226   0.799   7.225 -0.0116  0.2254  0.1142
  671MOL0     C88495   8.321   0.769   7.321 -0.0293 -0.1544  0.1489
  671MOL0     C88496   8.310   0.810   7.460 -0.6787 -0.3148 -0.1742
  671MOL0     C88497   8.183   0.857   7.502 -0.3716 -0.9987 -1.2706
  671MOL0     O88498   8.157   0.894   7.633 -0.2951 -0.0194 -0.0402
  671MOL0     C88499   8.055   0.822   7.701  1.1340  0.8546 -0.0430
  671MOL0     C88500   8.119   0.700   7.777  1.2423 -0.2389 -0.2358
  671MOL0     C88501   8.001   0.615   7.828 -0.3016 -0.3071  0.0897
  671MOL0     C88502   8.051   0.530   7.943 -0.1017 -0.5604  0.6880
  671MOL0     C88503   8.069   0.608   8.065  0.7295 -0.7364 -0.2987
  671MOL0     C88504   8.106   0.683   8.154  0.0460 -0.6542 -0.7845
  671MOL0     C88505   8.090   0.886   7.407  0.5578  0.1725  0.6924
  671MOL0     C88506   8.107   0.859   7.267  0.3831 -0.4751 -0.7846
  671MOL0     H88507   8.236   0.897   6.825  0.5877  1.0530  0.1380
  671MOL0     H88508   8.316   0.936   6.612 -1.4027 -4.8805 -2.7582
  671MOL0     H88509   8.727   0.965   6.507 -0.0002  2.9653 -0.9965
  671MOL0     H88510   8.582   1.047   6.542  0.5774  0.4325  1.0981
  671MOL0     H88511   8.714   0.934   6.297  2.1889 -0.3263  0.7625
  671MOL0     H88512   8.668   1.104   6.338 -0.2822 -1.3675  0.4722
  671MOL0     H88513   8.424   1.026   6.309  1.6857  2.6918 -0.6079
  671MOL0     H88514   8.476   0.877   6.226  0.4707  0.0263  0.7234
  671MOL0     H88515   8.518   1.152   6.127  0.3516  0.1141 -1.2666
  671MOL0     H88516   8.601   1.005   6.063  0.3890 -0.0666 -0.7838
  671MOL0     H88517   8.297   1.023   6.062  1.5530  1.2349  1.9801
  671MOL0     H88518   8.400   0.900   5.984 -1.7609 -0.7973 -1.4134
  671MOL0     H88519   8.515   1.046   5.859  0.2545  1.7217  0.6078
  671MOL0     H88520   8.400   1.180   5.906 -0.6993  0.4780 -1.6305
  671MOL0     H88521   8.350   0.943   5.725 -2.7054 -1.6902 -0.2458
  671MOL0     H88522   8.213   1.011   5.818  0.5967 -2.1175 -1.0136
  671MOL0     H88523   8.403   1.174   5.639 -0.0714  0.2484  0.2768
  671MOL0     H88524   8.256   1.220   5.733  1.2638 -0.1821  1.9720
  671MOL0     H88525   8.013   1.109   5.637  1.0200  4.8810 -0.8476
  671MOL0     H88526   7.893   0.936   5.338 -2.4404 -0.9729  1.5460
  671MOL0     H88527   7.846   0.962   5.502 -0.8405  0.1205 -0.5811
  671MOL0     H88528   7.821   0.722   5.427  0.1655 -0.9997 -1.6016
  671MOL0     H88529   7.947   0.724   5.553  0.9007 -1.2985 -0.7924
  671MOL0     H88530   8.112   0.709   5.365  0.9772 -2.3487 -1.9909
  671MOL0     H88531   8.001   0.574   5.373  0.9278  0.2165  1.5738
  671MOL0     H88532   8.026   0.652   5.135 -2.6677 -0.8258 -1.7299
  671MOL0     H88533   7.969   0.804   5.180 -2.3370 -0.1774  1.2843
  671MOL0     H88534   7.873   0.790   4.958 -0.8397  0.2413 -5.4197
  671MOL0     H88535   7.713   0.858   4.813 -3.4950  2.0929 -0.5160
  671MOL0     H88536   7.253   1.020   4.739  0.0788  0.6899 -0.8350
  671MOL0     H88537   7.084   1.100   4.565 -0.8761 -0.6858 -1.1236
  671MOL0     H88538   6.892   1.075   4.438  2.2721  0.3244  0.0422
  671MOL0     H88539   6.891   0.900   4.435  3.2779 -2.1032 -1.6706
  671MOL0     H88540   6.836   0.881   4.213 -0.3538 -0.5053 -1.6478
  671MOL0     H88541   6.851   1.051   4.174 -1.5095 -3.3552 -3.0446
  671MOL0     H88542   6.661   1.086   4.360  0.1118  0.2001 -0.0458
  671MOL0     H88543   6.657   0.906   4.377  2.4160 -1.0632 -0.5575
  671MOL0     H88544   6.623   1.072   4.127 -1.5400  2.1603  3.3161
  671MOL0     H88545   6.593   0.896   4.142  4.5661 -0.2194 -0.5787
  671MOL0     H88546   6.448   1.119   4.299  2.1394  1.3249 -0.9363
  671MOL0     H88547   6.396   0.952   4.270 -0.1292 -1.0238 -1.8460
  671MOL0     H88548   6.386   1.022   4.018 -1.6069 -0.9376 -0.3977
  671MOL0     H88549   6.357   1.192   4.084 -1.8721 -0.4861 -3.0178
  671MOL0     H88550   6.202   0.930   4.131  1.3392 -0.7076  2.3740
  671MOL0     H88551   6.188   1.074   4.235  2.4687  1.9309  0.0185
  671MOL0     H88552   6.143   1.107   3.930  1.6848  1.2261  1.0019
  671MOL0     H88553   6.111   1.226   4.037  1.5379 -0.5622  0.2748
  671MOL0     H88554   7.275   0.833   4.292  0.3667  1.7431 -0.3429
  671MOL0     H88555   7.458   0.800   4.444  1.1221  1.3219 -2.4062
  671MOL0     H88556   7.416   0.634   5.034  0.0386 -3.3337  0.0930
  671MOL0     H88557   7.596   0.577   5.190 -0.2411 -0.3411 -0.8801
  671MOL0     H88558   8.688   0.739   6.696  1.0214 -0.3841  0.0483
  671MOL0     H88559   8.595   0.688   6.936 -2.2837 -0.2918  0.8577
  671MOL0     H88560   8.408   0.712   7.288 -0.2659 -0.1384 -0.5094
  671MOL0     H88561   8.371   0.776   7.543 -0.4183  1.5629  0.4503
  671MOL0     H88562   7.983   0.775   7.633  0.4912  1.5632  0.1335
  671MOL0     H88563   8.005   0.889   7.772 -0.5896 -0.7893  0.3910
  671MOL0     H88564   8.180   0.638   7.710 -0.5696 -1.3603 -0.9535
  671MOL0     H88565   8.179   0.747   7.855 -2.5370  1.8205  1.7392
  671MOL0     H88566   7.964   0.546   7.752  1.1296  0.3767 -1.2871
  671MOL0     H88567   7.914   0.678   7.850  2.0063  2.9260  0.6296
  671MOL0     H88568   7.984   0.447   7.966  2.4063 -2.1742  2.8389
  671MOL0     H88569   8.146   0.486   7.911  0.8879  2.2376 -0.5964
  671MOL0     H88570   8.146   0.752   8.226  0.5614 -3.5461  1.9212
  671MOL0     H88571   7.995   0.936   7.422  1.8553  3.6412 -1.4704
  671MOL0     H88572   8.026   0.889   7.202  1.0262  2.4870 -0.4109
  672MOL0     O88573   7.067   7.444   6.195 -0.0296 -0.3746 -0.5749
  672MOL0     C88574   6.975   7.474   6.280 -0.4631 -0.2094  0.2072
  672MOL0     O88575   6.928   7.383   6.369  0.4190  0.5512  0.5908
  672MOL0     C88576   6.942   7.254   6.313 -0.6132 -0.1780  1.0326
  672MOL0     C88577   7.047   7.168   6.363  0.6271  0.0318 -0.9816
  672MOL0     C88578   7.065   7.042   6.318 -0.7428  0.6253 -0.6978
  672MOL0     C88579   6.980   6.997   6.222  1.1273 -0.7932 -0.2493
  672MOL0     O88580   7.000   6.868   6.178  0.0315  0.1591  0.1837
  672MOL0     C88581   6.884   6.782   6.166 -0.4346 -0.4429  0.1264
  672MOL0     C88582   6.874   6.704   6.035  0.1333  0.3813  0.5425
  672MOL0     C88583   7.012   6.651   5.996  1.0576  1.2188 -0.1188
  672MOL0     C88584   7.018   6.567   5.868 -0.3294  0.6762  1.0662
  672MOL0     C88585   7.026   6.653   5.748  0.0006 -0.2538  1.7575
  672MOL0     C88586   7.009   6.565   5.623  0.9626  0.3960 -0.4655
  672MOL0     C88587   7.037   6.659   5.501 -0.6825  0.2486 -0.2650
  672MOL0     C88588   6.951   6.790   5.497 -1.2833  0.6434 -0.7786
  672MOL0     N88589   6.987   6.854   5.370  0.1645  0.0520 -0.4632
  672MOL0     C88590   6.942   6.801   5.251 -0.6385  0.4731 -0.2883
  672MOL0     C88591   6.938   6.907   5.166  0.1253  0.9242  0.6949
  672MOL0     C88592   6.884   6.911   5.025 -0.5446  1.0177 -0.5472
  672MOL0     C88593   6.810   7.039   4.962  0.1453 -0.6501 -0.2328
  672MOL0     C88594   6.738   7.124   5.068  0.6199  0.4410 -0.7477
  672MOL0     C88595   6.633   7.223   5.011  0.0254  0.0550 -0.5071
  672MOL0     O88596   6.701   7.316   4.929  0.4337  0.2618  0.0248
  672MOL0     C88597   6.622   7.385   4.837 -0.3316  0.2260 -0.3317
  672MOL0     C88598   6.634   7.523   4.829  0.6701 -0.2460 -0.5625
  672MOL0     C88599   6.551   7.594   4.738  0.4799 -0.8361 -0.8467
  672MOL0     C88600   6.458   7.533   4.657 -0.2609 -0.0586  1.2359
  672MOL0     C88601   6.361   7.619   4.573 -0.4933 -0.6473  0.0798
  672MOL0     O88602   6.282   7.560   4.469  0.7587  0.6512 -0.0267
  672MOL0     C88603   6.239   7.637   4.358 -0.5726 -0.0638 -0.6323
  672MOL0     C88604   6.251   7.563   4.241  0.4018  0.4093  0.5468
  672MOL0     C88605   6.217   7.625   4.124 -0.3433  0.3269 -0.0787
  672MOL0     C88606   6.154   7.753   4.116  0.4300 -0.0810  0.5830
  672MOL0     O88607   6.095   7.817   4.012  0.1151  0.2273 -0.1221
  672MOL0     C88608   6.075   7.735   3.898 -0.2397 -0.9011  0.7053
  672MOL0     C88609   6.026   7.825   3.783 -0.1943 -0.6022 -0.1562
  672MOL0     C88610   6.003   7.744   3.651  0.8818  0.1308  0.2013
  672MOL0     C88611   5.909   7.824   3.562  0.3285 -0.4289 -0.6369
  672MOL0     C88612   5.884   7.762   3.420 -0.2795  0.2743 -0.0573
  672MOL0     C88613   5.836   7.616   3.418 -0.7236 -0.0441 -0.6542
  672MOL0     C88614   5.852   7.554   3.276  0.8893  1.4315 -0.2181
  672MOL0     C88615   5.805   7.408   3.282 -0.2997  0.2425 -0.0214
  672MOL0    Cl88616   5.941   7.322   3.350 -0.3028  0.0144 -0.1516
  672MOL0     C88617   6.150   7.829   4.234 -1.2233  0.4364 -0.5922
  672MOL0     C88618   6.190   7.772   4.356 -0.0930 -0.0786 -0.6003
  672MOL0     O88619   6.383   7.743   4.587  0.1237 -0.5811 -0.0706
  672MOL0     C88620   6.455   7.389   4.663 -0.6264 -0.5282 -0.6501
  672MOL0     C88621   6.533   7.318   4.753  0.0603  0.6728  0.7436
  672MOL0     N88622   6.974   7.015   5.238  0.8212  0.1388  0.0888
  672MOL0     N88623   7.008   6.986   5.357 -0.1945  0.0012 -0.1888
  672MOL0     C88624   6.890   7.076   6.154  0.1245  0.2329 -0.5725
  672MOL0     C88625   6.863   7.200   6.205  0.1501 -0.4637  0.0844
  672MOL0     C88626   6.967   7.618   6.308  1.2688 -1.1418 -0.1462
  672MOL0     C88627   6.846   7.666   6.377  0.5856 -0.8398 -1.1416
  672MOL0     C88628   6.840   7.807   6.388  0.1002 -0.1618 -1.0059
  672MOL0     C88629   6.946   7.895   6.353  0.0048  0.9872  0.1785
  672MOL0     O88630   6.941   8.035   6.336  0.2760  0.2335  0.4576
  672MOL0     C88631   6.818   8.077   6.289  0.4427 -0.6445 -0.0315
  672MOL0     C88632   6.835   8.228   6.234 -0.0934  0.4056  0.6128
  672MOL0     C88633   6.694   8.294   6.228 -0.0503  0.4548 -0.0677
  672MOL0     C88634   6.690   8.373   6.100  0.6491 -0.7558 -0.3421
  672MOL0     C88635   6.566   8.442   6.116 -0.6574  0.6160 -0.6480
  672MOL0     C88636   6.459   8.500   6.138 -0.8335 -1.1226  0.4737
  672MOL0     C88637   7.071   7.835   6.315 -0.5923  0.8211  0.3581
  672MOL0     C88638   7.076   7.698   6.281  0.7470  0.3217  0.2683
  672MOL0     H88639   7.127   7.205   6.427  0.0143 -2.2852  1.3268
  672MOL0     H88640   7.145   6.976   6.350 -1.8861 -0.4984 -0.0371
  672MOL0     H88641   6.783   6.820   6.183 -0.2878 -0.1153  0.2608
  672MOL0     H88642   6.888   6.709   6.247 -2.8030  1.1145  1.7868
  672MOL0     H88643   6.821   6.757   5.955  0.3942 -1.3126 -0.8200
  672MOL0     H88644   6.814   6.612   6.043 -1.9331  1.5472 -0.7638
  672MOL0     H88645   7.040   6.581   6.076 -2.0510 -0.1313 -0.0738
  672MOL0     H88646   7.086   6.732   5.993  0.9459  1.2862 -1.9481
  672MOL0     H88647   7.106   6.502   5.865  0.0931  1.2479 -2.4293
  672MOL0     H88648   6.927   6.508   5.849 -0.1361  0.6943  0.0160
  672MOL0     H88649   7.113   6.718   5.731 -1.7660  1.7586 -0.0546
  672MOL0     H88650   6.935   6.711   5.761  0.2435  0.3949  0.6650
  672MOL0     H88651   6.905   6.530   5.623  1.3436 -0.7892 -0.1163
  672MOL0     H88652   7.071   6.475   5.629  0.9175  0.4498  2.8213
  672MOL0     H88653   7.144   6.677   5.506 -0.6282 -0.3668  1.4246
  672MOL0     H88654   7.026   6.586   5.420  2.3067 -0.6181  0.0099
  672MOL0     H88655   6.974   6.860   5.578  0.9922 -0.3500 -0.4846
  672MOL0     H88656   6.846   6.761   5.489 -1.0751  0.2952 -2.8763
  672MOL0     H88657   6.924   6.695   5.236  1.5434 -0.0791  0.6416
  672MOL0     H88658   6.796   6.849   5.044 -0.2733  1.1718  1.4582
  672MOL0     H88659   6.963   6.873   4.960 -1.3037 -4.0753  1.0482
  672MOL0     H88660   6.734   7.005   4.891 -0.2322 -4.6115  1.7817
  672MOL0     H88661   6.882   7.096   4.903  1.1910 -1.2347  0.4534
  672MOL0     H88662   6.682   7.060   5.137 -0.3416  1.7382 -0.2822
  672MOL0     H88663   6.813   7.190   5.114  2.8899 -1.5260 -1.4013
  672MOL0     H88664   6.571   7.270   5.088 -2.9395 -4.5845  0.3699
  672MOL0     H88665   6.558   7.158   4.965 -0.9275  0.4210  0.4974
  672MOL0     H88666   6.697   7.580   4.896  2.5601 -2.8086 -0.0291
  672MOL0     H88667   6.561   7.702   4.744  1.2753 -0.9794  2.3455
  672MOL0     H88668   6.282   7.459   4.252  0.8690  0.6852  2.1432
  672MOL0     H88669   6.224   7.570   4.031  1.1513  0.9491 -0.3636
  672MOL0     H88670   5.988   7.672   3.914 -1.3681  0.4178  0.0031
  672MOL0     H88671   6.164   7.676   3.876  0.7915  0.7691  0.1805
  672MOL0     H88672   6.100   7.905   3.767 -0.4778  0.5042  3.2516
  672MOL0     H88673   5.936   7.875   3.819 -0.4389 -1.4247  0.3684
  672MOL0     H88674   5.944   7.659   3.686 -0.9119  2.6028  3.7939
  672MOL0     H88675   6.101   7.713   3.612  0.8286 -1.9829  1.6106
  672MOL0     H88676   5.809   7.830   3.606  0.6560 -0.2802  0.1081
  672MOL0     H88677   5.933   7.931   3.555  0.9738 -0.5435 -0.2376
  672MOL0     H88678   5.977   7.769   3.362 -0.0678  1.7851  0.4472
  672MOL0     H88679   5.817   7.830   3.367 -0.0680  1.0901  0.7066
  672MOL0     H88680   5.735   7.599   3.456 -1.3047 -1.5922 -2.7160
  672MOL0     H88681   5.902   7.558   3.484  1.3221  2.0731 -0.6896
  672MOL0     H88682   5.788   7.607   3.206  0.5068  2.1958  0.6840
  672MOL0     H88683   5.953   7.552   3.235  1.2333 -2.1281  0.4126
  672MOL0     H88684   5.781   7.371   3.182  1.7013 -2.6134  0.4141
  672MOL0     H88685   5.718   7.396   3.347 -0.4353 -1.9561 -0.5337
  672MOL0     H88686   6.126   7.935   4.227  4.3963  1.9990 -1.9816
  672MOL0     H88687   6.174   7.828   4.447 -6.1226 -1.3155 -0.4313
  672MOL0     H88688   6.396   7.336   4.588  1.3662 -4.1767  0.1281
  672MOL0     H88689   6.533   7.210   4.762  0.4001  0.7102  1.2259
  672MOL0     H88690   6.840   7.044   6.063 -2.3828  1.9553  0.0873
  672MOL0     H88691   6.791   7.261   6.151  2.5639  2.4398 -0.0813
  672MOL0     H88692   6.765   7.597   6.400  1.6147 -1.5905  0.4016
  672MOL0     H88693   6.750   7.858   6.420 -1.0067 -1.4301 -1.9944
  672MOL0     H88694   6.749   8.074   6.374 -1.1804 -0.6336 -1.3092
  672MOL0     H88695   6.787   8.018   6.203  0.3723  1.8491 -1.7954
  672MOL0     H88696   6.895   8.287   6.303  0.3520  1.1865 -0.4089
  672MOL0     H88697   6.892   8.226   6.141 -1.2629  2.3322 -0.2224
  672MOL0     H88698   6.685   8.362   6.313 -0.6917  1.4155 -0.8767
  672MOL0     H88699   6.614   8.219   6.230  0.6701 -0.4876 -2.6850
  672MOL0     H88700   6.777   8.439   6.109  0.4681 -0.7827  4.6410
  672MOL0     H88701   6.692   8.312   6.010  0.0847 -0.1903 -0.7454
  672MOL0     H88702   6.358   8.533   6.148 -0.7358 -1.0488  1.2528
  672MOL0     H88703   7.159   7.890   6.283 -1.1005 -0.5799 -4.2319
  672MOL0     H88704   7.160   7.657   6.224  1.5219  0.4571  1.2754
  673MOL0     O88705   8.690   2.882   2.598  0.5340  0.2365 -0.2369
  673MOL0     C88706   8.635   2.867   2.708  0.1624 -0.5362  0.7748
  673MOL0     O88707   8.559   2.769   2.744  0.5432 -0.1765  0.8101
  673MOL0     C88708   8.536   2.664   2.655  0.8997  1.5578  0.7045
  673MOL0     C88709   8.590   2.533   2.683 -0.0171  1.0698  0.9776
  673MOL0     C88710   8.576   2.421   2.593  0.0925  0.0638  0.3376
  673MOL0     C88711   8.504   2.440   2.473  0.2502 -0.5006  0.2060
  673MOL0     O88712   8.482   2.342   2.376 -0.7675 -0.4071 -0.3259
  673MOL0     C88713   8.515   2.373   2.242 -0.5422  0.3676  0.0771
  673MOL0     C88714   8.640   2.278   2.216  0.0099 -0.9152  0.5471
  673MOL0     C88715   8.679   2.321   2.075  0.3135  0.5903 -0.0800
  673MOL0     C88716   8.793   2.240   2.025 -0.0252 -0.6458  0.0829
  673MOL0     C88717   8.731   2.128   1.934  0.2806  0.5339 -0.7340
  673MOL0     C88718   8.710   2.180   1.797 -0.4581 -0.0802 -0.0441
  673MOL0     C88719   8.621   2.081   1.718  1.3915  1.1681 -0.7734
  673MOL0     C88720   8.628   2.106   1.561 -0.7578  0.6546  0.5138
  673MOL0     N88721   8.728   2.026   1.493 -1.1969 -0.2622  0.4965
  673MOL0     C88722   8.699   1.902   1.437  0.2354 -1.1721 -0.3328
  673MOL0     C88723   8.820   1.847   1.417  0.7911 -0.0758 -0.5258
  673MOL0     C88724   8.856   1.725   1.349 -1.0657  0.6296  0.8810
  673MOL0     C88725   8.753   1.609   1.342 -0.1495 -0.5758  0.2319
  673MOL0     C88726   8.746   1.532   1.471 -0.1156  0.3635 -0.0143
  673MOL0     C88727   8.712   1.605   1.602 -0.3206 -0.8638 -0.3264
  673MOL0     O88728   8.574   1.657   1.591  0.4013  0.3113 -0.2616
  673MOL0     C88729   8.528   1.713   1.708  0.4120  0.1501 -0.2730
  673MOL0     C88730   8.614   1.732   1.828 -0.4912 -0.0486  0.3223
  673MOL0     C88731   8.553   1.784   1.943 -0.6797 -0.2199  0.7310
  673MOL0     C88732   8.424   1.835   1.938  0.8491 -0.5724 -0.7436
  673MOL0     C88733   8.364   1.917   2.049  0.6455  0.0698  0.5224
  673MOL0     O88734   8.229   1.948   2.043 -0.2831 -0.0838  0.2438
  673MOL0     C88735   8.175   2.050   2.123  0.5583 -0.1378  0.0480
  673MOL0     C88736   8.228   2.176   2.149  0.0201  1.0353  0.7303
  673MOL0     C88737   8.168   2.255   2.245  0.6414  0.2166  0.8599
  673MOL0     C88738   8.061   2.213   2.321  0.3869  0.5293 -0.5754
  673MOL0     O88739   8.022   2.304   2.416 -0.2575 -0.9660 -0.2087
  673MOL0     C88740   7.886   2.295   2.461  0.3024  0.1096  0.0764
  673MOL0     C88741   7.864   2.404   2.562  1.3233 -0.1494  0.0153
  673MOL0     C88742   7.919   2.546   2.529  0.4267  0.5079  0.7357
  673MOL0     C88743   7.886   2.582   2.384 -0.5993 -1.2237  0.4016
  673MOL0     C88744   7.895   2.733   2.348  1.2559 -1.1138  0.9237
  673MOL0     C88745   8.029   2.796   2.403  0.8828 -1.2526  0.3762
  673MOL0     C88746   8.038   2.945   2.363  0.0961 -0.0368  0.9508
  673MOL0     C88747   8.111   2.957   2.231  0.6261 -0.4014 -0.1598
  673MOL0    Cl88748   8.037   3.098   2.159 -0.1311  0.1016 -0.1028
  673MOL0     C88749   7.995   2.097   2.282 -0.5561  0.0701  0.2872
  673MOL0     C88750   8.051   2.012   2.183 -0.1745  0.5173  0.5731
  673MOL0     O88751   8.438   1.964   2.133  1.1505  0.4401  0.3741
  673MOL0     C88752   8.350   1.821   1.821 -0.1073 -0.2712 -0.1126
  673MOL0     C88753   8.394   1.750   1.716 -0.5990 -0.0687  0.5111
  673MOL0     N88754   8.915   1.937   1.450  0.2592 -0.2255  0.5102
  673MOL0     N88755   8.861   2.044   1.499  0.0569 -0.4855  0.1179
  673MOL0     C88756   8.451   2.569   2.449  0.1630 -0.6690 -0.4916
  673MOL0     C88757   8.458   2.681   2.536  0.1633 -1.0086 -0.4338
  673MOL0     C88758   8.654   2.972   2.811 -0.5512  0.5768 -0.7466
  673MOL0     C88759   8.718   3.094   2.776 -0.2372 -0.7656  0.7782
  673MOL0     C88760   8.741   3.191   2.875 -0.6605  0.9403  0.4227
  673MOL0     C88761   8.688   3.175   3.006  0.2362  0.4225  0.6229
  673MOL0     O88762   8.706   3.280   3.083  0.3420  0.0412  0.4772
  673MOL0     C88763   8.638   3.282   3.211  0.7648 -0.4679  0.0886
  673MOL0     C88764   8.667   3.420   3.278 -0.6956  0.2879  0.5292
  673MOL0     C88765   8.819   3.442   3.293  0.1275 -0.0151 -0.1617
  673MOL0     C88766   8.876   3.353   3.391 -0.7437 -0.3122 -0.4730
  673MOL0     C88767   8.862   3.404   3.530  0.1258 -0.1639 -0.0193
  673MOL0     C88768   8.856   3.456   3.641  0.2058  0.6341  0.6167
  673MOL0     C88769   8.606   3.060   3.028 -1.3185 -0.4097 -0.4111
  673MOL0     C88770   8.599   2.959   2.941  0.3402  0.2388  0.2119
  673MOL0     H88771   8.637   2.531   2.780  3.0848  4.9806 -0.1938
  673MOL0     H88772   8.600   2.320   2.625  1.1774 -0.0420 -0.7358
  673MOL0     H88773   8.540   2.478   2.224 -1.0017  0.2737 -1.3165
  673MOL0     H88774   8.433   2.350   2.173 -2.7422  1.1377  2.2779
  673MOL0     H88775   8.609   2.174   2.228  1.7642 -1.7018 -1.1359
  673MOL0     H88776   8.708   2.293   2.300  1.3457 -5.4331  0.5506
  673MOL0     H88777   8.711   2.425   2.080 -3.9220  2.0820  0.3130
  673MOL0     H88778   8.593   2.309   2.008  1.1311 -1.0679 -0.8949
  673MOL0     H88779   8.862   2.297   1.962 -0.9618 -0.9770 -1.2965
  673MOL0     H88780   8.853   2.200   2.108  0.8747 -0.6659 -0.5691
  673MOL0     H88781   8.637   2.090   1.975  0.1084  1.5220 -0.1886
  673MOL0     H88782   8.804   2.046   1.931 -0.7416 -0.3826 -1.3230
  673MOL0     H88783   8.796   2.216   1.739  1.2415  0.0806  2.4460
  673MOL0     H88784   8.653   2.272   1.810  0.4200  0.1816  2.3128
  673MOL0     H88785   8.656   1.981   1.747  0.2006  1.1667  0.7988
  673MOL0     H88786   8.520   2.088   1.759  1.9068 -0.6132  1.0063
  673MOL0     H88787   8.647   2.211   1.537 -2.6583  1.8193  3.6044
  673MOL0     H88788   8.535   2.087   1.506 -1.2853 -0.5400  1.7550
  673MOL0     H88789   8.599   1.866   1.415 -0.6444 -0.0345  1.5464
  673MOL0     H88790   8.951   1.695   1.393 -0.7814  1.0535  0.5594
  673MOL0     H88791   8.879   1.756   1.247  1.5196  1.3555  1.6284
  673MOL0     H88792   8.773   1.538   1.261 -0.1575 -0.2670 -0.0414
  673MOL0     H88793   8.652   1.640   1.315 -0.1722 -2.2274 -1.8876
  673MOL0     H88794   8.665   1.459   1.463 -1.0607  1.5171 -1.7974
  673MOL0     H88795   8.843   1.483   1.477 -0.3342 -0.5912 -2.8133
  673MOL0     H88796   8.780   1.690   1.610 -2.9076  1.2634  0.2585
  673MOL0     H88797   8.727   1.550   1.695 -0.3168  2.1569  1.5874
  673MOL0     H88798   8.718   1.700   1.822 -1.2208 -2.8156  1.0031
  673MOL0     H88799   8.613   1.776   2.032  0.2738 -2.5148 -0.0368
  673MOL0     H88800   8.317   2.205   2.094  0.7222  0.3093  1.4736
  673MOL0     H88801   8.226   2.339   2.282  0.4772  0.2699  0.9986
  673MOL0     H88802   7.863   2.195   2.499 -3.5710  0.0699 -1.8192
  673MOL0     H88803   7.818   2.306   2.376  0.5766 -1.1394 -0.3335
  673MOL0     H88804   7.915   2.363   2.650 -1.0335 -1.0343  1.0597
  673MOL0     H88805   7.762   2.421   2.598  0.5533 -1.4656 -1.4307
  673MOL0     H88806   8.028   2.536   2.534  0.3114 -2.6342 -0.2986
  673MOL0     H88807   7.886   2.625   2.597  1.6483  1.1447  0.6066
  673MOL0     H88808   7.948   2.520   2.320  1.3281  2.1741 -1.2730
  673MOL0     H88809   7.785   2.542   2.370 -1.0407 -0.1000  0.2617
  673MOL0     H88810   7.815   2.790   2.395  1.5876  0.9819 -0.9042
  673MOL0     H88811   7.895   2.751   2.240  0.3504  0.7630  1.2082
  673MOL0     H88812   8.113   2.748   2.352 -0.0979 -1.9211 -0.6737
  673MOL0     H88813   8.039   2.790   2.512  0.3204  1.7617  0.6783
  673MOL0     H88814   7.940   2.992   2.347  0.1556 -0.0397  0.5633
  673MOL0     H88815   8.082   3.010   2.439  0.7245  2.6868 -1.5406
  673MOL0     H88816   8.103   2.864   2.173  2.0313 -0.3587 -0.4425
  673MOL0     H88817   8.218   2.972   2.247  0.3435 -0.3865  1.8804
  673MOL0     H88818   7.900   2.079   2.331 -0.8894 -0.3776 -0.5007
  673MOL0     H88819   8.002   1.915   2.175  1.0263 -0.0511 -0.3451
  673MOL0     H88820   8.246   1.853   1.823 -1.8174 -4.7402 -2.6484
  673MOL0     H88821   8.344   1.732   1.621  2.1234 -1.5088 -0.7696
  673MOL0     H88822   8.391   2.582   2.359  1.5757 -0.4418 -1.4374
  673MOL0     H88823   8.410   2.776   2.516 -0.0471 -0.7026  1.3673
  673MOL0     H88824   8.750   3.098   2.672 -4.1519 -3.1763 -0.7549
  673MOL0     H88825   8.798   3.280   2.847  0.7154 -0.2438 -0.6841
  673MOL0     H88826   8.679   3.200   3.271  1.5655 -0.3655 -0.3021
  673MOL0     H88827   8.532   3.259   3.208  0.6310 -0.5525  2.8372
  673MOL0     H88828   8.640   3.489   3.198 -0.4019 -0.5419 -0.3058
  673MOL0     H88829   8.609   3.439   3.368 -4.4225  0.0184 -1.6358
  673MOL0     H88830   8.837   3.548   3.313 -1.2374 -0.0816  1.6582
  673MOL0     H88831   8.876   3.439   3.199 -0.5526  1.9709 -0.6830
  673MOL0     H88832   8.849   3.247   3.395 -0.0871 -0.4858 -0.4317
  673MOL0     H88833   8.983   3.351   3.367 -0.4904  0.3679  0.5466
  673MOL0     H88834   8.857   3.505   3.736 -0.9665 -0.8791  1.4448
  673MOL0     H88835   8.566   3.033   3.125 -0.6845 -1.6110 -0.4666
  673MOL0     H88836   8.547   2.867   2.968 -1.6374  1.3345  0.3108
  674MOL0     O88837   8.437   9.513   1.453 -0.0186  0.4533  0.1435
  674MOL0     C88838   8.478   9.494   1.567  0.6173  0.4609  0.8274
  674MOL0     O88839   8.551   9.582   1.638  0.9117 -0.2590 -0.0167
  674MOL0     C88840   8.584   9.697   1.577 -0.5579  0.0571  0.2013
  674MOL0     C88841   8.717   9.729   1.529  0.8259 -0.2393 -0.7894
  674MOL0     C88842   8.737   9.859   1.479 -0.1661 -0.6158  0.8103
  674MOL0     C88843   8.634   9.954   1.468 -0.4509 -0.6452  0.4051
  674MOL0     O88844   8.641  10.080   1.425 -0.4141  0.7342  0.3816
  674MOL0     C88845   8.753  10.125   1.344 -0.3868 -0.0020 -1.2850
  674MOL0     C88846   8.754  10.066   1.206 -0.0875  0.0394  1.0704
  674MOL0     C88847   8.872  10.126   1.117  0.2851  0.8816  0.6335
  674MOL0     C88848   8.823  10.251   1.037 -0.2597  0.9376 -0.2572
  674MOL0     C88849   8.918  10.311   0.933 -0.0179  0.9133  0.2955
  674MOL0     C88850   8.900  10.459   0.904  0.3233  0.7140 -0.4745
  674MOL0     C88851   8.982  10.503   0.788  0.3743  0.8228  1.3563
  674MOL0     C88852   8.936  10.628   0.731  0.4345  0.0433  0.6037
  674MOL0     N88853   8.978  10.736   0.828 -0.5464  0.8665  0.3680
  674MOL0     C88854   8.889  10.816   0.880  1.1614 -0.3455 -0.2397
  674MOL0     C88855   8.962  10.926   0.914  0.0306  0.5508 -0.9522
  674MOL0     C88856   8.913  11.065   0.954  0.2497  0.5500  0.0366
  674MOL0     C88857   8.989  11.108   1.078 -0.1319 -1.2046 -0.2207
  674MOL0     C88858   8.940  11.246   1.132 -0.0282 -0.2209 -0.3030
  674MOL0     C88859   8.808  11.242   1.202  0.0289 -0.8059 -0.2130
  674MOL0     O88860   8.695  11.238   1.111 -0.5083  0.7181  0.2633
  674MOL0     C88861   8.569  11.213   1.165 -0.1787  0.6231 -0.2047
  674MOL0     C88862   8.451  11.209   1.090  0.5854  0.0149 -0.1801
  674MOL0     C88863   8.330  11.163   1.142  0.7215 -0.2529  0.3973
  674MOL0     C88864   8.310  11.154   1.277  0.8146  0.8448  0.7095
  674MOL0     C88865   8.176  11.116   1.334  0.6210 -0.1760 -0.0969
  674MOL0     O88866   8.100  11.018   1.265  0.7040  0.1861 -0.3995
  674MOL0     C88867   7.981  10.956   1.311  0.7512 -1.1002 -0.4531
  674MOL0     C88868   7.924  10.984   1.436  0.3719  0.6198 -0.3568
  674MOL0     C88869   7.808  10.902   1.479 -0.5164  0.2502  0.5447
  674MOL0     C88870   7.757  10.803   1.397  0.4268  0.6349  1.5498
  674MOL0     O88871   7.661  10.717   1.452 -0.4217  0.1929  0.4836
  674MOL0     C88872   7.552  10.678   1.375 -0.1251 -0.3643 -1.0345
  674MOL0     C88873   7.484  10.554   1.443  1.0939  0.2923  0.3584
  674MOL0     C88874   7.364  10.503   1.356  0.2104 -0.6926 -1.0400
  674MOL0     C88875   7.242  10.597   1.380  0.2730  0.0376 -0.4925
  674MOL0     C88876   7.148  10.605   1.261 -0.2855  0.2202 -0.1797
  674MOL0     C88877   7.003  10.610   1.303  0.3516  0.2185  0.6846
  674MOL0     C88878   6.897  10.614   1.186 -0.2698 -0.0660  0.1797
  674MOL0     C88879   6.763  10.561   1.235 -0.5607 -0.3385  0.2821
  674MOL0    Cl88880   6.640  10.549   1.103  0.1910  0.3209 -0.1028
  674MOL0     C88881   7.821  10.788   1.268  0.1224 -0.6753  0.1709
  674MOL0     C88882   7.926  10.867   1.225  0.7257 -0.2198 -0.3460
  674MOL0     O88883   8.139  11.201   1.416 -0.3363 -0.6334  0.6969
  674MOL0     C88884   8.421  11.186   1.358  0.3143 -0.2098  0.3432
  674MOL0     C88885   8.551  11.206   1.309 -0.0341  0.2357  0.1801
  674MOL0     N88886   9.093  10.894   0.889  0.6260 -0.3109  0.7157
  674MOL0     N88887   9.099  10.782   0.836 -0.4574  0.6809  0.5375
  674MOL0     C88888   8.504   9.919   1.505 -0.6056  0.3100 -0.9284
  674MOL0     C88889   8.475   9.793   1.560 -0.8250 -0.6193  0.3015
  674MOL0     C88890   8.451   9.368   1.627  0.5410  0.5791  0.0347
  674MOL0     C88891   8.338   9.293   1.590 -0.1035 -0.6129  0.3492
  674MOL0     C88892   8.305   9.186   1.675 -0.7489  0.6278 -0.2696
  674MOL0     C88893   8.394   9.147   1.781  0.6882 -0.4219 -0.4084
  674MOL0     O88894   8.372   9.050   1.875 -0.3594 -0.8119  0.1623
  674MOL0     C88895   8.240   8.996   1.884  0.3476  1.0519  0.4226
  674MOL0     C88896   8.247   8.875   1.976 -0.0550 -0.6544 -0.4242
  674MOL0     C88897   8.267   8.924   2.121  0.4256 -0.4455  0.2272
  674MOL0     C88898   8.285   8.815   2.221  0.0166 -0.1266  0.3299
  674MOL0     C88899   8.159   8.742   2.247 -0.4725 -0.5264  0.1875
  674MOL0     C88900   8.051   8.685   2.272 -0.9311 -0.6401 -0.4292
  674MOL0     C88901   8.515   9.217   1.802  0.2896  0.6368 -0.2150
  674MOL0     C88902   8.542   9.323   1.724 -0.7871 -0.9469 -0.2622
  674MOL0     H88903   8.800   9.661   1.547  0.9241 -0.3421 -1.5806
  674MOL0     H88904   8.839   9.884   1.453 -0.8858  0.0060 -1.6890
  674MOL0     H88905   8.844  10.109   1.402 -2.1661 -0.7365  1.5522
  674MOL0     H88906   8.745  10.234   1.349  0.7276  0.0844 -1.2962
  674MOL0     H88907   8.652  10.078   1.168 -0.3626 -5.0477 -0.5039
  674MOL0     H88908   8.768   9.958   1.210 -0.9996 -0.1055  0.6903
  674MOL0     H88909   8.889  10.050   1.041  2.0448  0.4335  1.4351
  674MOL0     H88910   8.958  10.140   1.183 -0.0608 -1.7585  1.7512
  674MOL0     H88911   8.736  10.213   0.984  1.1777 -1.3161 -1.1284
  674MOL0     H88912   8.797  10.331   1.108  0.2520  1.3949 -0.5730
  674MOL0     H88913   8.903  10.256   0.840  3.2723  0.0406  0.1826
  674MOL0     H88914   9.017  10.293   0.975 -0.6726 -0.1696  1.4578
  674MOL0     H88915   8.943  10.511   0.991 -1.8014 -0.8314  1.6161
  674MOL0     H88916   8.794  10.481   0.892  0.6480  2.8292  0.0096
  674MOL0     H88917   9.089  10.492   0.806  0.6217  2.4259  1.0088
  674MOL0     H88918   8.958  10.434   0.707 -0.7315 -0.6422  2.8674
  674MOL0     H88919   8.826  10.623   0.728  0.4659 -0.5977 -2.6564
  674MOL0     H88920   8.972  10.643   0.629 -3.2053  3.3803 -0.4598
  674MOL0     H88921   8.785  10.789   0.894  0.7264  1.6038  0.6859
  674MOL0     H88922   8.808  11.057   0.983 -0.5114  3.1901 -1.6525
  674MOL0     H88923   8.918  11.133   0.869  1.5623  0.6795  0.1960
  674MOL0     H88924   9.097  11.109   1.061 -0.2578  0.4525 -1.1588
  674MOL0     H88925   8.971  11.030   1.153 -1.3943 -1.3260 -0.6229
  674MOL0     H88926   9.010  11.277   1.210 -0.4073 -1.4977  0.5869
  674MOL0     H88927   8.936  11.316   1.049 -2.8899 -0.3068 -0.3358
  674MOL0     H88928   8.805  11.330   1.267  1.7272 -1.8781  1.4321
  674MOL0     H88929   8.807  11.155   1.268 -3.5448 -1.1874 -0.5939
  674MOL0     H88930   8.450  11.237   0.985 -0.1248  4.1473  0.7533
  674MOL0     H88931   8.241  11.157   1.080  0.9241  1.5828 -0.1261
  674MOL0     H88932   7.957  11.062   1.504 -0.3621  1.4641 -0.9439
  674MOL0     H88933   7.761  10.909   1.576  0.9269  0.7901  1.2299
  674MOL0     H88934   7.587  10.644   1.278  2.0062 -2.5814  0.3904
  674MOL0     H88935   7.476  10.757   1.373 -0.3702 -0.4656  1.0930
  674MOL0     H88936   7.452  10.582   1.544 -1.3058  0.4434 -0.3698
  674MOL0     H88937   7.562  10.478   1.441  1.4875  0.5324 -3.9820
  674MOL0     H88938   7.337  10.403   1.390 -2.1634  0.9178  2.3822
  674MOL0     H88939   7.402  10.498   1.254 -0.4788 -0.9527 -1.2872
  674MOL0     H88940   7.191  10.552   1.466  0.7596 -1.0203 -0.7310
  674MOL0     H88941   7.272  10.699   1.404 -0.5360  0.0826  0.3774
  674MOL0     H88942   7.149  10.513   1.202  1.4448  0.5401 -0.7249
  674MOL0     H88943   7.162  10.689   1.192  0.0093 -0.4606 -0.9702
  674MOL0     H88944   6.986  10.691   1.375  2.0675 -1.4662  3.1562
  674MOL0     H88945   6.975  10.519   1.358  2.4297 -0.5493  0.5446
  674MOL0     H88946   6.884  10.709   1.132 -1.1922 -1.0228 -1.3675
  674MOL0     H88947   6.931  10.551   1.103  0.1730  0.0431  0.2737
  674MOL0     H88948   6.724  10.626   1.313 -1.8879 -0.4482 -0.2641
  674MOL0     H88949   6.782  10.464   1.279  1.9492 -1.0464 -2.0799
  674MOL0     H88950   7.782  10.719   1.194  0.8151  0.9342 -1.7895
  674MOL0     H88951   7.979  10.855   1.131  0.3563 -3.0293 -0.2818
  674MOL0     H88952   8.415  11.180   1.466  2.4562 -0.9756  0.4679
  674MOL0     H88953   8.629  11.211   1.385 -0.3128 -0.7995  0.5435
  674MOL0     H88954   8.433  10.000   1.515  0.0357  0.9237 -1.2731
  674MOL0     H88955   8.377   9.783   1.605  1.2963 -0.1269  5.8189
  674MOL0     H88956   8.276   9.322   1.505 -1.9164 -0.8764  1.5302
  674MOL0     H88957   8.216   9.125   1.665  0.4116 -1.0073 -1.3442
  674MOL0     H88958   8.195   8.967   1.789  0.0487 -0.1167  0.9049
  674MOL0     H88959   8.174   9.072   1.926 -1.7004 -1.6469  2.4126
  674MOL0     H88960   8.161   8.809   1.962  0.2357 -1.5883  1.7156
  674MOL0     H88961   8.328   8.807   1.946 -0.0151 -1.7208  1.9011
  674MOL0     H88962   8.170   8.968   2.149  1.9458  2.5116  1.2522
  674MOL0     H88963   8.342   9.003   2.124 -0.0479 -0.0109  0.9078
  674MOL0     H88964   8.372   8.757   2.190  1.7903  2.2048  0.6564
  674MOL0     H88965   8.308   8.852   2.322 -1.8404  1.4891  0.2250
  674MOL0     H88966   7.954   8.649   2.299 -2.0195  0.8656 -2.0577
  674MOL0     H88967   8.599   9.189   1.865  1.4391  1.4100 -1.3591
  674MOL0     H88968   8.634   9.377   1.745  0.5214 -3.5425  1.2328
  675MOL0     O88969   8.378   1.787   1.375 -0.4084  0.3374  0.0716
  675MOL0     C88970   8.390   1.740   1.260 -0.1282 -1.2013  0.1333
  675MOL0     O88971   8.396   1.820   1.143  1.0306 -0.6810 -0.1739
  675MOL0     C88972   8.389   1.961   1.164 -0.2509  0.0173 -1.0805
  675MOL0     C88973   8.515   2.028   1.187  0.0791 -0.1818 -0.4671
  675MOL0     C88974   8.516   2.167   1.215  0.4802  0.4430  0.3704
  675MOL0     C88975   8.394   2.241   1.220  0.0614 -0.2556 -0.1263
  675MOL0     O88976   8.416   2.377   1.237  0.8913  0.4390 -1.0132
  675MOL0     C88977   8.283   2.441   1.263  0.0245 -0.2939  1.0853
  675MOL0     C88978   8.302   2.578   1.320 -0.3488  0.1535 -0.4121
  675MOL0     C88979   8.377   2.673   1.226 -0.1911  0.5041  0.5987
  675MOL0     C88980   8.440   2.789   1.299  0.5854 -0.1757  0.1677
  675MOL0     C88981   8.493   2.905   1.201 -0.3314  0.5452  0.2301
  675MOL0     C88982   8.548   3.016   1.293 -0.1922  0.7093  0.2277
  675MOL0     C88983   8.595   3.137   1.214  0.0410 -0.2725  0.3536
  675MOL0     C88984   8.665   3.226   1.318 -0.1379 -0.6514 -0.3499
  675MOL0     N88985   8.638   3.357   1.262 -0.1298 -1.4190 -0.0778
  675MOL0     C88986   8.687   3.414   1.143 -0.2323  0.0399  0.8609
  675MOL0     C88987   8.618   3.530   1.119 -0.0975  1.2058 -0.3027
  675MOL0     C88988   8.630   3.631   1.007  0.0252  0.1043 -0.2453
  675MOL0     C88989   8.491   3.687   0.955 -0.7175  0.3246 -0.8100
  675MOL0     C88990   8.513   3.778   0.840  0.2567 -0.1112  0.3980
  675MOL0     C88991   8.469   3.718   0.711  0.2094 -0.3552  0.5812
  675MOL0     O88992   8.333   3.698   0.710 -0.1935 -0.7272  0.2774
  675MOL0     C88993   8.252   3.804   0.679  0.4177 -1.1533  0.6029
  675MOL0     C88994   8.269   3.902   0.576  0.0567  1.0885  0.6821
  675MOL0     C88995   8.157   3.977   0.547 -0.5583  0.2991  0.6227
  675MOL0     C88996   8.034   3.975   0.614  0.1170 -0.3069  0.2058
  675MOL0     C88997   7.920   4.077   0.589  1.0876  0.8621 -1.4156
  675MOL0     O88998   7.794   4.043   0.630 -0.5999  1.0051 -0.7304
  675MOL0     C88999   7.693   4.130   0.651 -0.2574 -0.1372  0.0687
  675MOL0     C89000   7.664   4.247   0.581 -0.6528 -0.8603  1.0387
  675MOL0     C89001   7.563   4.330   0.624  0.1847 -0.3692  0.2111
  675MOL0     C89002   7.486   4.290   0.733  0.2929  1.5431  0.6349
  675MOL0     O89003   7.388   4.380   0.775  0.3495  0.6843  0.7566
  675MOL0     C89004   7.366   4.388   0.911 -1.0150  0.4757  0.5561
  675MOL0     C89005   7.255   4.486   0.950 -0.7230  0.9080  0.0408
  675MOL0     C89006   7.124   4.435   0.906  0.8288 -0.5443  0.1036
  675MOL0     C89007   7.026   4.447   1.025 -0.3817  0.9583 -0.2982
  675MOL0     C89008   6.877   4.427   0.976 -0.4594 -0.3280  1.0717
  675MOL0     C89009   6.775   4.428   1.084 -0.2238  1.3823 -1.0102
  675MOL0     C89010   6.735   4.285   1.138 -0.5900  0.0542  0.1657
  675MOL0     C89011   6.693   4.285   1.284  0.8130  0.0051  0.1696
  675MOL0    Cl89012   6.692   4.108   1.331 -0.2721  0.2775 -0.2145
  675MOL0     C89013   7.515   4.178   0.809  0.2841  0.4522 -0.2778
  675MOL0     C89014   7.621   4.095   0.769  0.0199 -0.7527  0.1352
  675MOL0     O89015   7.963   4.190   0.562 -0.2323 -0.4834  1.1449
  675MOL0     C89016   8.027   3.893   0.724  0.9080  0.7508 -0.5294
  675MOL0     C89017   8.131   3.797   0.755  0.4572 -0.2071  0.4399
  675MOL0     N89018   8.533   3.544   1.227  0.4854 -0.2093 -0.3345
  675MOL0     N89019   8.555   3.458   1.320  0.1117  0.5420  1.0199
  675MOL0     C89020   8.268   2.172   1.197 -0.3090 -0.7661 -0.6110
  675MOL0     C89021   8.274   2.036   1.174  0.8637  0.4062 -1.1442
  675MOL0     C89022   8.344   1.601   1.243  0.8151  0.3422  0.1636
  675MOL0     C89023   8.376   1.502   1.339 -0.4797  0.2819 -0.0884
  675MOL0     C89024   8.343   1.370   1.307 -0.6293  0.0000 -0.3873
  675MOL0     C89025   8.267   1.341   1.193 -0.0124  0.4645  0.4481
  675MOL0     O89026   8.223   1.211   1.176  0.1270  0.7668 -0.4379
  675MOL0     C89027   8.328   1.114   1.145 -0.1968 -1.1822  1.2160
  675MOL0     C89028   8.299   0.966   1.187 -0.5089 -0.5732  0.7412
  675MOL0     C89029   8.154   0.920   1.178  0.3412  0.3050  0.6488
  675MOL0     C89030   8.122   0.891   1.027 -0.3942  1.2071  1.0095
  675MOL0     C89031   8.117   1.013   0.943  0.2939  1.0270  0.1268
  675MOL0     C89032   8.102   1.095   0.854 -0.4856  0.2491 -0.1702
  675MOL0     C89033   8.220   1.444   1.108 -0.3018  0.0356 -0.0342
  675MOL0     C89034   8.269   1.571   1.130 -0.8041  0.1102  0.5847
  675MOL0     H89035   8.602   1.966   1.168  0.2617  0.0160 -0.2822
  675MOL0     H89036   8.604   2.230   1.219  0.4543  0.4482  4.6046
  675MOL0     H89037   8.232   2.394   1.347 -4.0424  2.8906  0.6729
  675MOL0     H89038   8.215   2.449   1.177  0.8784 -0.8021  0.3421
  675MOL0     H89039   8.361   2.560   1.411 -0.3819 -0.3305 -0.4856
  675MOL0     H89040   8.214   2.628   1.362  0.6984  1.2314  0.5630
  675MOL0     H89041   8.308   2.700   1.145 -1.7658 -1.1942  1.2945
  675MOL0     H89042   8.459   2.619   1.179  0.1203 -0.0374  1.7327
  675MOL0     H89043   8.368   2.828   1.372  2.0139 -2.5963  3.1060
  675MOL0     H89044   8.525   2.756   1.360  1.7024  2.9254  0.4768
  675MOL0     H89045   8.425   2.948   1.128 -0.8360  0.8508  0.8701
  675MOL0     H89046   8.571   2.860   1.138 -0.6197 -0.1211  0.3378
  675MOL0     H89047   8.631   2.988   1.358 -0.0501 -1.5389 -0.8459
  675MOL0     H89048   8.461   3.047   1.352 -1.7059 -0.4548 -1.2829
  675MOL0     H89049   8.663   3.109   1.133 -1.0644 -1.2823 -0.2648
  675MOL0     H89050   8.512   3.180   1.158  1.5050  2.7233  0.3169
  675MOL0     H89051   8.770   3.209   1.343 -0.6189 -0.5620  1.9030
  675MOL0     H89052   8.608   3.230   1.411 -1.0237  0.9941 -0.9106
  675MOL0     H89053   8.760   3.382   1.069 -1.4474  0.5069 -0.5901
  675MOL0     H89054   8.681   3.592   0.919 -1.7013 -0.9910 -0.7955
  675MOL0     H89055   8.681   3.711   1.062 -2.5768 -0.5474  3.4802
  675MOL0     H89056   8.449   3.736   1.043 -3.1816 -3.3610  0.3370
  675MOL0     H89057   8.412   3.613   0.939 -0.9852  0.4389 -0.0849
  675MOL0     H89058   8.453   3.865   0.868 -1.0104 -0.6285 -0.6313
  675MOL0     H89059   8.622   3.785   0.833  0.2921  2.3692  2.0830
  675MOL0     H89060   8.525   3.627   0.686  0.9513 -0.0569  1.1238
  675MOL0     H89061   8.495   3.793   0.636 -0.4792 -1.2907 -0.6450
  675MOL0     H89062   8.354   3.907   0.509 -0.2956  1.7769  0.2803
  675MOL0     H89063   8.172   4.039   0.460 -1.6235 -0.9823 -0.5171
  675MOL0     H89064   7.725   4.267   0.493 -1.9810 -0.3123  0.2146
  675MOL0     H89065   7.525   4.417   0.571  0.4313 -1.3656 -1.6948
  675MOL0     H89066   7.461   4.410   0.961 -0.7062 -2.9190  1.7187
  675MOL0     H89067   7.332   4.296   0.958 -1.2466 -0.8331 -1.9905
  675MOL0     H89068   7.261   4.580   0.896 -1.1435  2.6800  2.8440
  675MOL0     H89069   7.267   4.494   1.059  1.7023  2.3748 -0.2672
  675MOL0     H89070   7.122   4.330   0.874 -0.2590 -0.3143 -0.6301
  675MOL0     H89071   7.095   4.502   0.825  1.6878 -2.1203 -1.5858
  675MOL0     H89072   7.035   4.368   1.100 -0.4867  1.4439  0.2307
  675MOL0     H89073   7.037   4.537   1.087  1.9360 -0.4722  1.5236
  675MOL0     H89074   6.867   4.333   0.923  0.5285  0.1505  0.0070
  675MOL0     H89075   6.847   4.507   0.908  4.4835  1.6830  0.7824
  675MOL0     H89076   6.684   4.483   1.059 -2.0895 -0.1982  1.6698
  675MOL0     H89077   6.818   4.487   1.165 -0.8493  0.6535 -0.1209
  675MOL0     H89078   6.648   4.244   1.087 -1.1274 -0.0792  1.1708
  675MOL0     H89079   6.821   4.223   1.110 -0.4317  0.9528 -1.4601
  675MOL0     H89080   6.593   4.328   1.293  1.3049  0.9456  1.4770
  675MOL0     H89081   6.751   4.332   1.364 -1.6192  0.0488  2.0745
  675MOL0     H89082   7.447   4.144   0.886  3.0978 -2.8037  1.0250
  675MOL0     H89083   7.645   4.021   0.845 -0.9879 -1.8636 -0.5862
  675MOL0     H89084   7.942   3.908   0.790  2.2675 -0.8632  1.7325
  675MOL0     H89085   8.118   3.749   0.852 -0.2045  4.3175  2.8815
  675MOL0     H89086   8.177   2.227   1.176  1.1298  1.9388 -0.2632
  675MOL0     H89087   8.180   1.989   1.146  1.7345 -1.3949 -1.1929
  675MOL0     H89088   8.449   1.522   1.417  0.1830 -2.5207  0.1098
  675MOL0     H89089   8.379   1.289   1.370  0.0188  0.0566 -0.6788
  675MOL0     H89090   8.423   1.153   1.180  0.7212 -1.5383 -0.7307
  675MOL0     H89091   8.330   1.122   1.036 -1.7598  0.3517  1.2516
  675MOL0     H89092   8.369   0.899   1.137 -1.8700 -1.0788 -0.5609
  675MOL0     H89093   8.344   0.960   1.286 -0.1399 -3.2189  0.4760
  675MOL0     H89094   8.091   0.996   1.226  0.2107  2.3423 -2.3863
  675MOL0     H89095   8.154   0.824   1.230  3.4280 -0.0161  0.2543
  675MOL0     H89096   8.197   0.830   0.976 -2.7639 -1.1177  0.0509
  675MOL0     H89097   8.032   0.829   1.026  1.7524 -2.1619  0.1163
  675MOL0     H89098   8.083   1.143   0.760 -0.5504  0.1919 -0.1862
  675MOL0     H89099   8.154   1.417   1.026 -0.3645 -2.5404  0.7679
  675MOL0     H89100   8.254   1.647   1.054  0.7364 -0.5593 -0.4371
  676MOL0     O89101   3.565   3.284  10.857  0.0064  0.2476 -0.4973
  676MOL0     C89102   3.541   3.230  10.751  0.4663 -0.2645  0.0136
  676MOL0     O89103   3.617   3.142  10.682  0.1588  0.6688  0.2461
  676MOL0     C89104   3.730   3.088  10.732 -0.2001 -0.4703  1.0290
  676MOL0     C89105   3.797   3.020  10.636 -0.5113 -0.3603 -0.0875
  676MOL0     C89106   3.931   2.968  10.648  0.2075 -0.4757  0.4981
  676MOL0     C89107   3.997   2.983  10.776 -0.8554 -0.7119 -0.4882
  676MOL0     O89108   4.127   2.945  10.804 -0.1979  0.7830  0.3174
  676MOL0     C89109   4.204   2.968  10.684  0.7094 -0.0631 -0.9689
  676MOL0     C89110   4.351   2.988  10.714 -0.2286  0.0706 -0.0295
  676MOL0     C89111   4.411   2.876  10.808 -0.1627  0.3290  1.1020
  676MOL0     C89112   4.520   2.941  10.891  0.3854  0.0317 -0.2187
  676MOL0     C89113   4.646   2.970  10.804 -0.5899 -0.5131 -0.0484
  676MOL0     C89114   4.735   2.842  10.760  0.1815 -0.3450  0.5457
  676MOL0     C89115   4.853   2.872  10.666 -0.1860  0.1207 -0.1234
  676MOL0     C89116   4.937   2.750  10.648 -0.2079 -0.4181 -0.1030
  676MOL0     N89117   5.055   2.795  10.560 -0.2260  0.1262 -0.5700
  676MOL0     C89118   5.093   2.732  10.442 -0.3106 -0.7470 -0.2026
  676MOL0     C89119   5.202   2.807  10.396  0.1399 -0.0462  0.2227
  676MOL0     C89120   5.281   2.782  10.273  0.7639 -0.5524  0.7182
  676MOL0     C89121   5.253   2.899  10.168 -0.1575  0.4431 -0.4657
  676MOL0     C89122   5.359   2.897  10.057 -0.6680  0.6854 -0.7271
  676MOL0     C89123   5.366   2.761   9.992  0.8846  1.2028  0.4146
  676MOL0     O89124   5.435   2.757   9.867  0.0109 -0.4550  0.4762
  676MOL0     C89125   5.437   2.642   9.791  0.3827 -1.0491 -0.0472
  676MOL0     C89126   5.387   2.524   9.827  1.1463  0.3121 -1.2654
  676MOL0     C89127   5.387   2.414   9.748 -0.6437  0.6335 -0.0562
  676MOL0     C89128   5.469   2.418   9.624  0.6328  0.0510 -0.2246
  676MOL0     C89129   5.479   2.295   9.541 -0.4268  0.4690  0.4006
  676MOL0     O89130   5.528   2.325   9.410  0.7239 -0.9711 -0.3734
  676MOL0     C89131   5.547   2.215   9.325  0.5850  0.0975 -0.4339
  676MOL0     C89132   5.651   2.234   9.232  0.5634 -0.1023 -0.4072
  676MOL0     C89133   5.670   2.140   9.128  0.0995  0.1619  0.6773
  676MOL0     C89134   5.597   2.023   9.119  1.1354  0.4441  0.4174
  676MOL0     O89135   5.632   1.938   9.013  0.3281 -0.0038  0.3956
  676MOL0     C89136   5.625   1.798   9.030 -0.3646  0.0101 -0.1699
  676MOL0     C89137   5.669   1.712   8.909  0.9965  0.2111  0.0399
  676MOL0     C89138   5.659   1.566   8.946 -0.0411 -0.1391  0.4358
  676MOL0     C89139   5.663   1.478   8.819  0.0850  0.3533  0.0443
  676MOL0     C89140   5.658   1.330   8.847  0.5843  0.0044  1.0562
  676MOL0     C89141   5.791   1.282   8.912  0.5875 -0.2630 -0.6550
  676MOL0     C89142   5.844   1.143   8.879  1.1603  0.2746  0.4819
  676MOL0     C89143   5.869   1.116   8.735 -0.0674  0.1660  0.9640
  676MOL0    Cl89144   5.726   1.069   8.631 -0.0135  0.6420  0.2163
  676MOL0     C89145   5.487   2.004   9.202 -0.2646 -1.7178 -0.3217
  676MOL0     C89146   5.457   2.103   9.303  0.1637  0.9898 -0.6289
  676MOL0     O89147   5.466   2.189   9.596  0.2733  0.1951 -0.3450
  676MOL0     C89148   5.530   2.546   9.588  0.3634  1.0411  0.3356
  676MOL0     C89149   5.506   2.653   9.673 -1.3277 -0.2412  0.7519
  676MOL0     N89150   5.221   2.916  10.479  0.8479 -0.5765 -0.3128
  676MOL0     N89151   5.136   2.904  10.578  0.4224  0.1489 -0.2616
  676MOL0     C89152   3.929   3.050  10.881  0.1241  0.3829  0.8338
  676MOL0     C89153   3.797   3.101  10.852 -0.2966  0.1874  0.3041
  676MOL0     C89154   3.417   3.273  10.690  0.7673 -0.3502  0.2554
  676MOL0     C89155   3.393   3.282  10.554 -0.2146  0.5956 -0.4783
  676MOL0     C89156   3.273   3.317  10.502  0.2722 -1.0571 -0.0646
  676MOL0     C89157   3.167   3.339  10.590 -0.1424  0.5868  0.3036
  676MOL0     O89158   3.046   3.386  10.548  0.0243 -0.1197 -0.0022
  676MOL0     C89159   3.040   3.527  10.544  0.0492 -0.0944  0.1677
  676MOL0     C89160   2.910   3.571  10.480 -0.5223 -0.8475  0.1264
  676MOL0     C89161   2.796   3.588  10.579 -0.4099  0.0443 -0.2294
  676MOL0     C89162   2.827   3.702  10.684  0.1362  0.7036  0.0692
  676MOL0     C89163   2.695   3.746  10.737 -0.5479  0.2199 -0.0891
  676MOL0     C89164   2.609   3.800  10.802 -0.4311  0.5463  0.5355
  676MOL0     C89165   3.180   3.324  10.729  0.5003 -0.8948  0.2862
  676MOL0     C89166   3.303   3.303  10.777  0.3839 -0.8360 -0.1742
  676MOL0     H89167   3.739   2.999  10.547 -0.9409  0.4586 -0.0128
  676MOL0     H89168   3.985   2.923  10.566  0.6678  1.1866 -0.1441
  676MOL0     H89169   4.174   3.060  10.634 -0.1020  0.0943 -0.2141
  676MOL0     H89170   4.188   2.883  10.617 -0.9424  0.7464 -1.6750
  676MOL0     H89171   4.383   3.084  10.754  0.8458 -0.8661  1.4966
  676MOL0     H89172   4.405   2.981  10.620 -0.1534 -2.9271  0.1197
  676MOL0     H89173   4.454   2.792  10.752  1.1151  1.6740 -0.0385
  676MOL0     H89174   4.334   2.839  10.876 -0.1146  1.4677  1.7919
  676MOL0     H89175   4.476   3.033  10.929 -2.2574  0.8390 -4.5512
  676MOL0     H89176   4.548   2.874  10.973  0.9185  2.6914  1.8824
  676MOL0     H89177   4.718   3.026  10.864 -0.1683 -2.6011  1.5200
  676MOL0     H89178   4.614   3.011  10.708  3.0362 -0.2412 -1.3214
  676MOL0     H89179   4.666   2.772  10.713 -1.2586  0.3783  1.4941
  676MOL0     H89180   4.774   2.795  10.851  3.1500  0.3434 -0.2402
  676MOL0     H89181   4.814   2.897  10.567  0.3406  0.4471 -0.2546
  676MOL0     H89182   4.904   2.964  10.695 -1.5751  1.6102 -2.0828
  676MOL0     H89183   4.880   2.679  10.588  0.8543  0.2062 -1.9202
  676MOL0     H89184   4.975   2.711  10.743  0.0188 -0.0283 -0.0277
  676MOL0     H89185   5.052   2.642  10.396 -3.9122 -0.6907  2.4678
  676MOL0     H89186   5.239   2.692  10.228 -3.4106  2.1024 -1.3497
  676MOL0     H89187   5.385   2.774  10.306  1.0607 -2.4657 -0.5296
  676MOL0     H89188   5.256   2.993  10.225 -2.8521  1.4153 -1.7831
  676MOL0     H89189   5.158   2.883  10.118 -0.7740 -1.7837  1.2733
  676MOL0     H89190   5.345   2.970   9.978 -0.3612  0.9962 -0.4983
  676MOL0     H89191   5.452   2.919  10.111 -1.0956 -3.6013  2.2819
  676MOL0     H89192   5.263   2.731   9.969  0.1218  4.8153 -1.6480
  676MOL0     H89193   5.410   2.694  10.067 -0.6964  0.6127  0.8669
  676MOL0     H89194   5.318   2.515   9.911  3.7801  0.5693  1.0566
  676MOL0     H89195   5.351   2.323   9.796 -0.8273  1.0793  0.6606
  676MOL0     H89196   5.712   2.324   9.234  1.0459 -0.4331  0.9058
  676MOL0     H89197   5.751   2.162   9.059 -2.9948 -0.5414 -3.5742
  676MOL0     H89198   5.522   1.764   9.044  0.3513 -2.1605  0.3113
  676MOL0     H89199   5.678   1.773   9.122 -0.7163 -0.2299 -0.0308
  676MOL0     H89200   5.772   1.741   8.886  0.5828  1.1204 -0.7877
  676MOL0     H89201   5.609   1.732   8.820 -0.9795 -4.4295  0.0422
  676MOL0     H89202   5.561   1.555   8.993 -0.7276 -2.1987 -1.2761
  676MOL0     H89203   5.737   1.548   9.021 -0.9482  0.1594  1.4636
  676MOL0     H89204   5.578   1.503   8.755 -0.7567 -0.9877  0.5865
  676MOL0     H89205   5.756   1.508   8.771 -0.5325  2.0322 -0.1606
  676MOL0     H89206   5.657   1.283   8.748  0.7533  3.7624 -0.9204
  676MOL0     H89207   5.562   1.303   8.892 -1.0651 -0.3433 -2.3750
  676MOL0     H89208   5.777   1.270   9.020 -0.0078 -0.6632 -0.7755
  676MOL0     H89209   5.868   1.349   8.872  0.2522  0.6611  0.1905
  676MOL0     H89210   5.928   1.110   8.940  0.3730 -0.6070  1.1252
  676MOL0     H89211   5.767   1.076   8.920 -0.7572  1.8559 -0.3819
  676MOL0     H89212   5.933   1.027   8.729 -2.1875 -1.3811 -0.1419
  676MOL0     H89213   5.909   1.197   8.673  1.0048 -0.8387  0.3052
  676MOL0     H89214   5.423   1.922   9.171 -3.9543  0.2226  1.4836
  676MOL0     H89215   5.368   2.106   9.366  0.4266  2.6373 -0.3083
  676MOL0     H89216   5.577   2.551   9.491 -3.8392  1.5728 -1.8981
  676MOL0     H89217   5.552   2.749   9.654 -0.7561 -0.6333  0.1212
  676MOL0     H89218   3.974   3.060  10.980  2.1266 -0.6204  0.0964
  676MOL0     H89219   3.750   3.138  10.942 -0.1461 -1.8398  1.2707
  676MOL0     H89220   3.470   3.256  10.482 -1.5298 -0.6284 -1.5043
  676MOL0     H89221   3.262   3.315  10.394  0.4740 -1.0668 -0.0862
  676MOL0     H89222   3.126   3.562  10.485  1.5532 -1.9312  1.1221
  676MOL0     H89223   3.033   3.563  10.647 -0.9440  0.7912 -0.1921
  676MOL0     H89224   2.924   3.674  10.447 -1.3654  0.1158  2.5627
  676MOL0     H89225   2.894   3.504  10.395  0.4114 -1.3951  0.3746
  676MOL0     H89226   2.769   3.492  10.625  2.5562 -2.3721 -3.0418
  676MOL0     H89227   2.708   3.619  10.523  0.7883  1.1607 -1.5745
  676MOL0     H89228   2.893   3.666  10.764 -0.0247 -0.9886 -0.5239
  676MOL0     H89229   2.872   3.786  10.630 -1.5940 -0.2145 -3.0753
  676MOL0     H89230   2.523   3.827  10.859 -1.1288 -2.2289  0.9379
  676MOL0     H89231   3.091   3.340  10.789  1.1281  2.8431  0.4573
  676MOL0     H89232   3.312   3.306  10.885 -1.6297 -2.3778  0.0948
  677MOL0     O89233   1.647   5.753   7.069  0.5212 -0.0609  0.4160
  677MOL0     C89234   1.587   5.652   7.033 -0.2457 -0.0518 -0.8442
  677MOL0     O89235   1.613   5.522   7.087 -0.4547 -0.1159  0.8440
  677MOL0     C89236   1.709   5.480   7.176 -1.0016 -0.1819  0.2659
  677MOL0     C89237   1.745   5.340   7.178  0.1981 -0.0123  0.9881
  677MOL0     C89238   1.840   5.302   7.271 -0.3481 -0.3798 -0.7297
  677MOL0     C89239   1.915   5.395   7.357  0.7323  0.2997 -0.9090
  677MOL0     O89240   2.017   5.355   7.438  0.0468 -0.1521  0.9982
  677MOL0     C89241   1.951   5.267   7.542  0.1762 -1.2330  0.8828
  677MOL0     C89242   2.046   5.269   7.669 -0.6723 -0.6975  0.8536
  677MOL0     C89243   2.178   5.179   7.639  0.6582  0.3070  0.1793
  677MOL0     C89244   2.205   5.077   7.742  0.0252 -0.5962 -0.4908
  677MOL0     C89245   2.336   5.007   7.746 -0.5463  1.1479 -0.2652
  677MOL0     C89246   2.355   4.915   7.628  0.3581 -0.2914  0.4156
  677MOL0     C89247   2.473   4.819   7.642 -0.8809  0.2928 -0.3057
  677MOL0     C89248   2.607   4.890   7.605 -0.9150  0.8830  0.1239
  677MOL0     N89249   2.724   4.793   7.615 -0.3242 -0.1431 -1.3163
  677MOL0     C89250   2.728   4.667   7.552 -0.5422 -0.7792 -0.8683
  677MOL0     C89251   2.835   4.614   7.610  0.3642  0.1300  0.2599
  677MOL0     C89252   2.881   4.476   7.579 -0.9074 -0.1252  0.6041
  677MOL0     C89253   2.941   4.463   7.439 -0.1320 -0.3371 -0.5323
  677MOL0     C89254   3.069   4.540   7.405  0.7253 -0.4270  1.3475
  677MOL0     C89255   3.195   4.481   7.465  0.4059  0.9720 -0.3809
  677MOL0     O89256   3.315   4.555   7.474 -0.3998 -0.1827  0.1327
  677MOL0     C89257   3.307   4.663   7.559  0.6946 -0.4700 -0.7155
  677MOL0     C89258   3.212   4.685   7.667  0.2025 -0.5902 -0.1769
  677MOL0     C89259   3.224   4.802   7.748  0.7351 -0.3321 -1.1311
  677MOL0     C89260   3.324   4.902   7.728  0.0742 -0.6604  0.8575
  677MOL0     C89261   3.348   5.022   7.800 -0.1795 -0.8081 -0.1535
  677MOL0     O89262   3.464   5.091   7.789  0.8297 -0.6112  0.4545
  677MOL0     C89263   3.504   5.178   7.896  0.3824  0.4379 -0.5420
  677MOL0     C89264   3.640   5.185   7.916  0.3857  0.0348  0.1266
  677MOL0     C89265   3.699   5.281   8.005 -0.5729  0.0007  0.9402
  677MOL0     C89266   3.622   5.361   8.085  0.0131  0.1158  0.4044
  677MOL0     O89267   3.684   5.475   8.132 -0.1351 -0.8584  0.0259
  677MOL0     C89268   3.816   5.468   8.184 -0.5758 -0.3250  0.8030
  677MOL0     C89269   3.827   5.603   8.262 -0.5652 -0.5304  0.7317
  677MOL0     C89270   3.725   5.617   8.373 -0.2538  0.6419 -0.2506
  677MOL0     C89271   3.772   5.726   8.485  0.6134 -0.7060  0.4487
  677MOL0     C89272   3.690   5.700   8.611 -0.2807  0.1630  0.6743
  677MOL0     C89273   3.718   5.796   8.721  0.4400  0.0714 -0.1719
  677MOL0     C89274   3.709   5.725   8.856  0.1426  0.1155 -0.2933
  677MOL0     C89275   3.564   5.675   8.893 -0.5450  0.2282  0.3937
  677MOL0    Cl89276   3.585   5.563   9.040 -0.0149 -0.0709  0.2604
  677MOL0     C89277   3.484   5.352   8.080  0.4014  1.0730  0.4807
  677MOL0     C89278   3.428   5.279   7.967 -0.6681  0.9224  0.3412
  677MOL0     O89279   3.259   5.051   7.882  0.0285 -0.1138 -0.0862
  677MOL0     C89280   3.410   4.882   7.619  0.2994 -0.0444  0.1612
  677MOL0     C89281   3.401   4.773   7.535  1.0412 -0.4305  0.4895
  677MOL0     N89282   2.885   4.694   7.708  1.4124 -0.3603 -0.0230
  677MOL0     N89283   2.822   4.803   7.711 -0.6727 -0.7047  0.7917
  677MOL0     C89284   1.871   5.523   7.355 -0.9354  0.4793  0.0447
  677MOL0     C89285   1.771   5.569   7.266 -0.1272  0.4328 -0.6607
  677MOL0     C89286   1.465   5.652   6.950 -0.5096 -0.1453 -0.8574
  677MOL0     C89287   1.369   5.564   6.961  0.5226  1.1449 -0.2507
  677MOL0     C89288   1.257   5.565   6.878  0.7226 -0.2388  0.3515
  677MOL0     C89289   1.241   5.679   6.787  0.2625 -0.0175  0.1255
  677MOL0     O89290   1.130   5.685   6.697 -0.4462  0.0338  0.2925
  677MOL0     C89291   1.160   5.678   6.552  0.4955 -0.6892  0.3445
  677MOL0     C89292   1.095   5.797   6.477  0.2254 -0.2801  0.0276
  677MOL0     C89293   0.941   5.794   6.483  0.1868  0.8505  0.1159
  677MOL0     C89294   0.880   5.929   6.449 -0.3458 -0.4826  0.6606
  677MOL0     C89295   0.741   5.893   6.425  0.7512 -0.4995 -0.2140
  677MOL0     C89296   0.627   5.879   6.390  0.0194  0.1040 -1.0735
  677MOL0     C89297   1.328   5.792   6.788 -1.4793  0.0226 -0.8103
  677MOL0     C89298   1.440   5.771   6.878 -0.0774 -0.2128  0.1963
  677MOL0     H89299   1.695   5.268   7.114 -1.5639  1.0867  1.0664
  677MOL0     H89300   1.870   5.198   7.265  0.3398 -0.3554  1.4789
  677MOL0     H89301   1.941   5.166   7.501 -1.5591 -0.2049 -1.4295
  677MOL0     H89302   1.858   5.307   7.585 -0.9898 -1.9644 -0.8846
  677MOL0     H89303   1.990   5.226   7.753 -2.8147 -2.9415 -1.5616
  677MOL0     H89304   2.079   5.373   7.679  1.4300 -1.3467  1.0332
  677MOL0     H89305   2.265   5.245   7.640  0.9738  0.0870 -2.7877
  677MOL0     H89306   2.169   5.131   7.541 -0.1120  1.6382 -0.4322
  677MOL0     H89307   2.196   5.128   7.838 -1.0924 -0.2426 -0.7643
  677MOL0     H89308   2.128   4.999   7.737 -0.1030 -0.4525 -0.7610
  677MOL0     H89309   2.339   4.944   7.836 -0.2004 -0.7309 -1.5383
  677MOL0     H89310   2.423   5.070   7.769 -0.3537  0.7627  0.0812
  677MOL0     H89311   2.360   4.979   7.539  3.0490 -0.2299  0.5219
  677MOL0     H89312   2.266   4.852   7.623 -0.4453  0.8502 -0.2610
  677MOL0     H89313   2.470   4.759   7.733  0.4352 -0.4392 -0.7165
  677MOL0     H89314   2.456   4.739   7.569 -0.3318  0.9943 -1.2240
  677MOL0     H89315   2.613   4.977   7.671  0.1414  0.2395  0.9128
  677MOL0     H89316   2.605   4.927   7.502  4.0707  1.1128 -0.1394
  677MOL0     H89317   2.685   4.606   7.473  0.4519 -0.6450 -1.5259
  677MOL0     H89318   2.787   4.420   7.584 -1.0681 -0.1631 -1.6071
  677MOL0     H89319   2.950   4.439   7.655  0.6729  0.5490 -0.4342
  677MOL0     H89320   2.865   4.494   7.367 -1.0158  0.1054  0.5661
  677MOL0     H89321   2.967   4.357   7.425 -1.5119 -0.9794  1.2798
  677MOL0     H89322   3.093   4.534   7.299  2.8699 -1.7071  1.8403
  677MOL0     H89323   3.065   4.645   7.434 -0.6028  0.1491 -0.7142
  677MOL0     H89324   3.220   4.392   7.407  1.3934  0.6354  0.5386
  677MOL0     H89325   3.174   4.441   7.565 -0.2709 -3.0047 -1.9228
  677MOL0     H89326   3.132   4.615   7.689  0.7159 -1.7312 -1.8149
  677MOL0     H89327   3.148   4.814   7.825  2.3504 -0.3928  0.5393
  677MOL0     H89328   3.696   5.104   7.871  1.7084  0.4829  0.9068
  677MOL0     H89329   3.807   5.276   8.002 -0.4975  0.8044  2.0873
  677MOL0     H89330   3.881   5.462   8.096 -0.0861 -0.7574  1.1845
  677MOL0     H89331   3.830   5.378   8.245 -1.8832 -1.0814  0.0477
  677MOL0     H89332   3.808   5.683   8.191  1.2595 -1.0360 -0.3921
  677MOL0     H89333   3.926   5.620   8.306 -1.5176  2.4980  1.9434
  677MOL0     H89334   3.721   5.521   8.425  0.2514  1.4313  1.3187
  677MOL0     H89335   3.624   5.636   8.337  0.4955  2.3901 -1.5993
  677MOL0     H89336   3.877   5.710   8.511  0.6549  1.4073  1.7297
  677MOL0     H89337   3.758   5.829   8.452  2.9981 -0.0802  1.2690
  677MOL0     H89338   3.725   5.600   8.638 -0.0952 -0.8726 -2.9490
  677MOL0     H89339   3.583   5.706   8.591  0.1523 -1.5465 -2.8167
  677MOL0     H89340   3.657   5.886   8.710  1.1553  0.7885  1.3992
  677MOL0     H89341   3.825   5.815   8.714  0.3490 -0.0666 -5.0129
  677MOL0     H89342   3.792   5.655   8.860  0.1308 -0.1082 -2.7092
  677MOL0     H89343   3.734   5.808   8.923 -0.8651  1.5801 -1.6493
  677MOL0     H89344   3.513   5.612   8.819 -0.9224  1.3325 -0.3037
  677MOL0     H89345   3.493   5.757   8.910 -2.1383  0.0492 -4.0800
  677MOL0     H89346   3.419   5.424   8.128 -0.7473 -0.1019  0.7484
  677MOL0     H89347   3.321   5.287   7.951 -0.9494  1.2716  2.0881
  677MOL0     H89348   3.476   4.966   7.601 -2.4781  3.4698  4.2566
  677MOL0     H89349   3.476   4.753   7.459  2.4726 -2.6401  2.3832
  677MOL0     H89350   1.919   5.583   7.432  3.8901 -1.6447 -0.8828
  677MOL0     H89351   1.731   5.670   7.263  1.6086  1.1833  0.3213
  677MOL0     H89352   1.364   5.491   7.041  1.4117  1.2353 -0.1072
  677MOL0     H89353   1.184   5.484   6.875  2.2549 -1.6571 -1.0471
  677MOL0     H89354   1.114   5.589   6.508 -1.9949  0.7462 -0.1683
  677MOL0     H89355   1.268   5.683   6.532  0.4238 -1.2807 -0.2508
  677MOL0     H89356   1.138   5.886   6.522  0.7029 -0.0371 -0.8811
  677MOL0     H89357   1.117   5.796   6.370 -0.5175 -0.4605 -0.1329
  677MOL0     H89358   0.908   5.766   6.583 -1.4825 -3.0987 -1.3578
  677MOL0     H89359   0.907   5.716   6.415  0.0553  1.2871 -0.3305
  677MOL0     H89360   0.913   6.007   6.518 -0.3766 -1.3835  1.7215
  677MOL0     H89361   0.919   5.958   6.351 -4.3825  1.9766 -0.4512
  677MOL0     H89362   0.526   5.871   6.357  0.1863 -2.9360 -1.0808
  677MOL0     H89363   1.310   5.880   6.727  3.1145  0.7706 -1.4258
  677MOL0     H89364   1.521   5.844   6.871  0.4378 -0.8271 -0.3613
  678MOL0     O89365   7.573   2.630   1.861 -0.2546  0.3894 -0.6391
  678MOL0     C89366   7.575   2.749   1.833  0.4441  0.4750 -0.0491
  678MOL0     O89367   7.463   2.823   1.815  0.5086  0.0622  0.5264
  678MOL0     C89368   7.338   2.767   1.781  0.0547  0.3657 -0.2844
  678MOL0     C89369   7.243   2.865   1.733  0.1643  1.0361  1.1762
  678MOL0     C89370   7.109   2.830   1.719  0.6729  0.0657  1.4163
  678MOL0     C89371   7.079   2.700   1.701 -0.0080  0.6645 -0.0250
  678MOL0     O89372   6.960   2.662   1.642 -0.2241  0.2052 -0.3197
  678MOL0     C89373   6.842   2.712   1.707 -0.0366  0.2282  0.3367
  678MOL0     C89374   6.721   2.618   1.719 -0.0377  0.3329  0.2438
  678MOL0     C89375   6.617   2.700   1.790  0.3320 -0.7415  0.6124
  678MOL0     C89376   6.489   2.627   1.827  0.5155 -0.4218 -0.2168
  678MOL0     C89377   6.387   2.619   1.710 -0.7151 -0.0881  0.8398
  678MOL0     C89378   6.264   2.710   1.734  0.0491 -0.4882 -0.4301
  678MOL0     C89379   6.174   2.668   1.853 -0.0039 -0.2426  0.0709
  678MOL0     C89380   6.050   2.757   1.869 -0.3832 -0.1991  0.2321
  678MOL0     N89381   5.937   2.691   1.941 -0.1048  0.2909  0.4729
  678MOL0     C89382   5.846   2.755   2.020 -0.1540  0.2058  0.5439
  678MOL0     C89383   5.755   2.664   2.050 -0.7663 -0.4023 -0.7099
  678MOL0     C89384   5.646   2.685   2.149 -0.4598 -0.3140 -0.7402
  678MOL0     C89385   5.714   2.721   2.281 -0.1412 -0.2247 -0.1818
  678MOL0     C89386   5.608   2.762   2.386 -0.5427 -0.1778  0.0201
  678MOL0     C89387   5.686   2.807   2.508 -0.4084  0.1195 -0.5105
  678MOL0     O89388   5.758   2.692   2.568 -0.2422  0.3623 -0.3895
  678MOL0     C89389   5.768   2.696   2.703  0.2991 -0.1280  0.5390
  678MOL0     C89390   5.808   2.807   2.775  0.5575 -0.1585  0.2663
  678MOL0     C89391   5.815   2.805   2.912 -0.2631  0.2710  0.3440
  678MOL0     C89392   5.806   2.685   2.978  0.5582 -0.7414 -0.1933
  678MOL0     C89393   5.846   2.676   3.115  0.6426 -0.5533 -0.1928
  678MOL0     O89394   5.859   2.797   3.183  0.4140 -0.4962 -0.2511
  678MOL0     C89395   5.891   2.807   3.316  0.5448 -0.4484 -0.6118
  678MOL0     C89396   5.859   2.921   3.390  0.4695 -0.4095 -0.3650
  678MOL0     C89397   5.884   2.936   3.529 -0.0246 -0.9699 -0.2176
  678MOL0     C89398   5.965   2.843   3.592  0.6768 -0.6967 -0.6860
  678MOL0     O89399   6.012   2.844   3.717 -0.2567  0.7980 -0.1606
  678MOL0     C89400   6.027   2.977   3.770  0.0426 -0.2444 -0.0673
  678MOL0     C89401   6.133   2.962   3.879 -1.1075  0.4207 -0.3993
  678MOL0     C89402   6.191   3.090   3.951  0.1228  0.7430 -0.2760
  678MOL0     C89403   6.327   3.130   3.897  0.9770  0.1908  0.1326
  678MOL0     C89404   6.330   3.171   3.750 -1.8981  0.4757  0.2976
  678MOL0     C89405   6.472   3.157   3.680 -0.1594 -0.2472 -0.1436
  678MOL0     C89406   6.540   3.019   3.690 -0.4627 -0.1469  0.1593
  678MOL0     C89407   6.450   2.900   3.654  0.0915  0.4886  0.2381
  678MOL0    Cl89408   6.354   2.916   3.500  0.0831  0.0224  0.0831
  678MOL0     C89409   6.003   2.731   3.519  0.3641 -0.2645  1.1020
  678MOL0     C89410   5.952   2.711   3.391 -0.3521 -0.1610  0.4446
  678MOL0     O89411   5.888   2.569   3.143  0.5359  0.0957 -0.2017
  678MOL0     C89412   5.789   2.572   2.897 -0.1299  0.6363  0.2345
  678MOL0     C89413   5.767   2.577   2.763  1.0237 -1.0839  0.4738
  678MOL0     N89414   5.795   2.542   2.003  0.2339  0.5621 -0.5184
  678MOL0     N89415   5.895   2.562   1.924  0.7498 -0.0951 -0.4177
  678MOL0     C89416   7.171   2.598   1.725 -0.1235  0.0582  0.0625
  678MOL0     C89417   7.297   2.630   1.773 -0.0512 -1.1616  0.0936
  678MOL0     C89418   7.705   2.818   1.830  0.7417  0.0161 -0.0584
  678MOL0     C89419   7.721   2.939   1.763  0.7876 -0.2852 -0.1262
  678MOL0     C89420   7.842   3.010   1.753 -0.8001 -0.3417  0.3378
  678MOL0     C89421   7.956   2.952   1.809  0.2926 -0.0317 -0.0911
  678MOL0     O89422   8.081   3.010   1.828  0.5411  0.7792 -0.1326
  678MOL0     C89423   8.091   3.150   1.807  0.6799  1.2834  1.0649
  678MOL0     C89424   8.228   3.198   1.843 -0.3326 -0.6334  0.0207
  678MOL0     C89425   8.355   3.112   1.823  0.4577 -0.2101  0.3175
  678MOL0     C89426   8.371   3.073   1.677  0.1305  0.4842 -1.0977
  678MOL0     C89427   8.503   3.015   1.654 -0.2427  0.2841 -0.4223
  678MOL0     C89428   8.613   2.980   1.616  0.3008 -0.0760  0.3189
  678MOL0     C89429   7.946   2.826   1.869 -0.7965  0.7667 -0.2563
  678MOL0     C89430   7.821   2.753   1.881 -0.0983 -0.1761  0.5502
  678MOL0     H89431   7.281   2.966   1.734 -0.2085  1.2064 -0.0742
  678MOL0     H89432   7.036   2.902   1.685  3.0618  1.3303 -1.4604
  678MOL0     H89433   6.811   2.802   1.654  5.1736  1.1910 -1.6481
  678MOL0     H89434   6.867   2.746   1.808 -1.0537 -0.6100  0.8942
  678MOL0     H89435   6.753   2.532   1.778  0.7570  1.6687  1.8613
  678MOL0     H89436   6.688   2.570   1.627  4.6141  1.7179 -2.5240
  678MOL0     H89437   6.591   2.788   1.731  1.1945 -1.4992 -0.9539
  678MOL0     H89438   6.656   2.730   1.887 -1.4038  0.0682  1.1078
  678MOL0     H89439   6.515   2.523   1.845  3.3911 -0.6412 -4.3731
  678MOL0     H89440   6.444   2.677   1.914 -0.1319 -1.9748  0.3813
  678MOL0     H89441   6.365   2.513   1.689  0.9185 -0.1990 -0.5024
  678MOL0     H89442   6.425   2.651   1.613 -2.6566 -0.3482 -0.0549
  678MOL0     H89443   6.202   2.697   1.644  0.6661 -0.8378 -0.8143
  678MOL0     H89444   6.284   2.818   1.736 -0.5528 -0.3416 -1.4760
  678MOL0     H89445   6.134   2.567   1.837 -1.6132  0.2562  0.6487
  678MOL0     H89446   6.233   2.669   1.944  2.6307 -1.1108 -1.5193
  678MOL0     H89447   6.013   2.770   1.767 -0.0169 -1.3824 -0.0601
  678MOL0     H89448   6.080   2.850   1.918  1.2500  0.0120 -1.0654
  678MOL0     H89449   5.852   2.858   2.054  1.0782 -0.0706  1.2262
  678MOL0     H89450   5.585   2.594   2.155 -1.8665  0.6464 -0.0384
  678MOL0     H89451   5.587   2.765   2.104  1.3247  1.3834 -0.1999
  678MOL0     H89452   5.783   2.806   2.275 -0.4352  0.2282  2.0406
  678MOL0     H89453   5.768   2.633   2.316  0.5803 -0.4986 -1.8764
  678MOL0     H89454   5.549   2.847   2.351 -2.1261 -1.1276  0.2645
  678MOL0     H89455   5.548   2.671   2.397 -0.2922 -0.3355  0.0671
  678MOL0     H89456   5.598   2.836   2.566 -1.4835  1.7250 -2.7700
  678MOL0     H89457   5.752   2.894   2.505 -0.2763  0.0529  0.1855
  678MOL0     H89458   5.820   2.900   2.721 -0.7700  0.9123  1.7582
  678MOL0     H89459   5.818   2.902   2.961 -2.5530 -0.1122  1.3897
  678MOL0     H89460   5.811   3.004   3.340 -1.6474 -1.6553 -0.4878
  678MOL0     H89461   5.860   3.023   3.589 -1.9258 -2.0095  0.6091
  678MOL0     H89462   5.932   3.009   3.812 -0.6272 -2.5298  0.2431
  678MOL0     H89463   6.061   3.054   3.700 -0.3270  2.0111  2.0772
  678MOL0     H89464   6.216   2.912   3.828 -0.6622  0.0015  0.7056
  678MOL0     H89465   6.100   2.896   3.960  0.4256  2.2017  1.8343
  678MOL0     H89466   6.206   3.071   4.058  3.4639  0.4363 -0.7040
  678MOL0     H89467   6.114   3.167   3.936 -0.3097  0.2417 -0.6709
  678MOL0     H89468   6.372   3.208   3.959  0.9576 -0.2821  0.7441
  678MOL0     H89469   6.391   3.045   3.923 -0.8210 -1.0185  0.7286
  678MOL0     H89470   6.307   3.278   3.747 -0.1353  0.8798  0.0499
  678MOL0     H89471   6.255   3.115   3.694 -1.4543  0.6880 -0.5298
  678MOL0     H89472   6.532   3.231   3.735  0.4653  1.2591 -2.7118
  678MOL0     H89473   6.475   3.205   3.582 -0.0279  0.1910  0.0708
  678MOL0     H89474   6.632   3.014   3.630  1.4065 -2.0681  2.9472
  678MOL0     H89475   6.576   3.008   3.793 -1.3397 -0.2943  0.4580
  678MOL0     H89476   6.388   2.881   3.742 -0.7560  0.4506 -0.3596
  678MOL0     H89477   6.520   2.815   3.649 -2.7139 -1.9355 -3.2078
  678MOL0     H89478   6.066   2.659   3.570 -2.3836 -3.3499  0.5136
  678MOL0     H89479   5.991   2.626   3.335  0.2551 -1.9013  3.3127
  678MOL0     H89480   5.789   2.472   2.939 -1.2778 -0.7138 -2.7070
  678MOL0     H89481   5.739   2.491   2.704  1.9301 -0.4477 -0.9495
  678MOL0     H89482   7.144   2.493   1.720  0.7344 -0.1344 -3.8540
  678MOL0     H89483   7.355   2.545   1.808 -1.0941 -2.5099 -1.3213
  678MOL0     H89484   7.640   2.988   1.710  1.9932  1.4472 -0.4405
  678MOL0     H89485   7.860   3.090   1.683  2.2379 -1.6313 -0.5288
  678MOL0     H89486   8.007   3.206   1.849 -0.6625  1.2960 -1.3942
  678MOL0     H89487   8.091   3.150   1.697  0.5519  2.1605  1.0549
  678MOL0     H89488   8.248   3.289   1.786 -2.5583 -1.0400 -1.5743
  678MOL0     H89489   8.225   3.231   1.947  1.0275 -0.2017 -0.0600
  678MOL0     H89490   8.359   3.025   1.889 -1.9549 -0.4817  0.1724
  678MOL0     H89491   8.443   3.176   1.841 -0.6831  1.7833 -0.8624
  678MOL0     H89492   8.291   3.003   1.651 -0.9813 -0.2641  3.4046
  678MOL0     H89493   8.362   3.162   1.615  0.0178  1.2211 -0.0431
  678MOL0     H89494   8.710   2.953   1.578  1.3408  3.1028  0.4103
  678MOL0     H89495   8.031   2.798   1.931 -1.3018  3.3430  1.7861
  678MOL0     H89496   7.811   2.668   1.947  0.7434  0.2075  1.1966
  679MOL0     O89497   3.540   7.223   7.502  0.6489  0.1921 -1.3265
  679MOL0     C89498   3.586   7.168   7.403  0.1551 -0.6627  0.0453
  679MOL0     O89499   3.699   7.096   7.399 -0.1770  0.1420 -0.4543
  679MOL0     C89500   3.775   7.082   7.510  0.4520  0.4006  0.0069
  679MOL0     C89501   3.916   7.104   7.500  0.8081  0.3312 -0.0171
  679MOL0     C89502   3.991   7.069   7.613 -0.0296  0.0028  0.6342
  679MOL0     C89503   3.933   7.054   7.737  0.8080 -0.2371 -0.7136
  679MOL0     O89504   4.017   7.037   7.846 -0.2932  0.5508 -0.8132
  679MOL0     C89505   3.965   7.021   7.985 -0.3203 -0.0207  0.7503
  679MOL0     C89506   3.881   7.146   8.014 -0.0285 -0.1367  0.3365
  679MOL0     C89507   3.979   7.261   8.028  0.3502 -0.0188  1.2758
  679MOL0     C89508   3.916   7.403   8.035 -0.3559  0.2373  0.5067
  679MOL0     C89509   4.031   7.509   8.048  0.5757 -0.0564  0.5247
  679MOL0     C89510   4.065   7.559   8.189  0.1464 -0.2188  0.0312
  679MOL0     C89511   4.201   7.511   8.244  0.1896 -0.8658  0.1462
  679MOL0     C89512   4.203   7.490   8.401 -0.0125  0.1234  0.3342
  679MOL0     N89513   4.103   7.388   8.441 -0.4454  0.3873 -0.1905
  679MOL0     C89514   4.099   7.262   8.396 -0.5998  0.2331 -0.0924
  679MOL0     C89515   3.993   7.208   8.447 -0.2726  1.0657  0.0910
  679MOL0     C89516   3.944   7.075   8.420 -0.8498  0.0577 -0.4652
  679MOL0     C89517   4.047   6.969   8.461  0.1371  0.0855  0.8113
  679MOL0     C89518   4.079   6.978   8.614  0.3070 -0.6295  0.3868
  679MOL0     C89519   3.974   6.910   8.699  0.0729  0.3768  0.2506
  679MOL0     O89520   3.980   6.764   8.674  0.1715  0.3874  0.2660
  679MOL0     C89521   4.099   6.703   8.721  0.5458 -0.6716 -0.8185
  679MOL0     C89522   4.177   6.623   8.638 -0.2347  0.6596  0.1126
  679MOL0     C89523   4.291   6.552   8.686 -0.8987  0.8127 -0.2097
  679MOL0     C89524   4.315   6.554   8.833  0.2729 -0.4367  1.6426
  679MOL0     C89525   4.432   6.475   8.876 -0.9084 -0.1622  0.0897
  679MOL0     O89526   4.473   6.508   8.999 -0.2747  1.0889  0.8116
  679MOL0     C89527   4.577   6.454   9.065 -0.3872  0.5736 -0.1679
  679MOL0     C89528   4.706   6.508   9.046  0.8129 -0.0597  0.1147
  679MOL0     C89529   4.819   6.447   9.106  0.1124 -0.0072 -0.3901
  679MOL0     C89530   4.810   6.337   9.199 -0.8144  0.2207 -0.3289
  679MOL0     O89531   4.920   6.272   9.257  0.0923  0.5117  0.0378
  679MOL0     C89532   5.055   6.294   9.195  1.2324 -0.4354  0.5112
  679MOL0     C89533   5.162   6.267   9.296 -0.4366 -0.1272  0.8798
  679MOL0     C89534   5.191   6.385   9.391  0.5864 -0.5714 -0.8972
  679MOL0     C89535   5.064   6.452   9.463  0.2314  0.8802 -1.2293
  679MOL0     C89536   5.093   6.545   9.584 -1.0377 -0.1040 -1.8381
  679MOL0     C89537   5.151   6.476   9.706 -0.1155 -0.7598  0.8510
  679MOL0     C89538   5.079   6.352   9.746 -0.6823 -0.0982 -0.1004
  679MOL0     C89539   5.137   6.304   9.886  1.0685 -0.1826 -0.3565
  679MOL0    Cl89540   5.295   6.238   9.856 -0.0428  0.0799 -0.0674
  679MOL0     C89541   4.677   6.293   9.224  0.5267 -1.3610 -0.1754
  679MOL0     C89542   4.558   6.354   9.163 -0.1997  0.2674  0.9107
  679MOL0     O89543   4.474   6.378   8.811 -0.8617 -0.1204 -0.3153
  679MOL0     C89544   4.232   6.636   8.914  0.5582  0.4594  0.2612
  679MOL0     C89545   4.124   6.703   8.857  0.7979  0.1728 -0.6132
  679MOL0     N89546   3.929   7.297   8.531 -0.5145 -0.0938 -0.9110
  679MOL0     N89547   3.993   7.408   8.521  0.9655  0.1443  0.3417
  679MOL0     C89548   3.789   7.036   7.743  0.4281 -0.0986 -0.8542
  679MOL0     C89549   3.715   7.044   7.631 -0.4143  0.6417  0.5846
  679MOL0     C89550   3.509   7.180   7.279  0.3644 -0.3344  0.1520
  679MOL0     C89551   3.373   7.180   7.287  1.0931  0.7999  0.2953
  679MOL0     C89552   3.295   7.192   7.166  0.9060  0.1819 -0.7965
  679MOL0     C89553   3.352   7.206   7.043  0.7671  0.0405  0.6350
  679MOL0     O89554   3.274   7.250   6.935 -0.5341 -0.4283  0.0566
  679MOL0     C89555   3.339   7.327   6.828  0.6217  0.3622  0.3925
  679MOL0     C89556   3.378   7.234   6.703  0.2114 -0.3131 -0.5129
  679MOL0     C89557   3.485   7.300   6.598  0.8378  0.1424  0.1031
  679MOL0     C89558   3.408   7.379   6.495 -0.0799 -0.2802 -1.1461
  679MOL0     C89559   3.492   7.467   6.408  0.3198 -0.5045 -0.2372
  679MOL0     C89560   3.543   7.532   6.324  0.2468  0.9372  0.4087
  679MOL0     C89561   3.496   7.204   7.034  0.4215 -0.3715 -0.7529
  679MOL0     C89562   3.570   7.196   7.154  0.0549 -0.5750  0.1654
  679MOL0     H89563   3.957   7.110   7.399  1.7790  0.6139  0.3854
  679MOL0     H89564   4.100   7.070   7.604 -0.1598  3.0779 -3.2893
  679MOL0     H89565   4.051   7.008   8.051  0.6281  0.9419 -0.2315
  679MOL0     H89566   3.896   6.937   7.993 -1.3839  0.8799  1.3360
  679MOL0     H89567   3.844   7.138   8.117  0.7908 -0.6223  0.6122
  679MOL0     H89568   3.806   7.176   7.942 -0.0773 -2.2249 -0.5611
  679MOL0     H89569   4.035   7.252   7.935 -1.5320 -2.1421  0.2344
  679MOL0     H89570   4.049   7.246   8.110 -1.3562  1.2124  3.0569
  679MOL0     H89571   3.875   7.417   7.935  0.8636 -0.3610 -0.0913
  679MOL0     H89572   3.841   7.407   8.115 -1.5940  0.1560 -0.6196
  679MOL0     H89573   4.007   7.605   8.001  0.2239  0.7427  2.2592
  679MOL0     H89574   4.119   7.466   8.000 -0.3433 -2.1863  0.6116
  679MOL0     H89575   3.993   7.512   8.257 -1.2937 -1.5328 -2.2655
  679MOL0     H89576   4.062   7.668   8.190 -0.3774 -0.2224 -0.2553
  679MOL0     H89577   4.239   7.417   8.203 -1.0882 -1.0201 -0.7371
  679MOL0     H89578   4.269   7.596   8.231 -0.1061 -0.7554 -0.7425
  679MOL0     H89579   4.179   7.586   8.446  3.5683  0.1443  2.5642
  679MOL0     H89580   4.305   7.467   8.434 -0.8793  0.0678  3.2900
  679MOL0     H89581   4.174   7.220   8.331  0.2817  2.1690 -0.3795
  679MOL0     H89582   3.912   7.076   8.315 -1.6990  1.2250 -0.2165
  679MOL0     H89583   3.850   7.064   8.477  0.3816 -2.0724  1.3365
  679MOL0     H89584   4.139   6.985   8.405 -0.9886  0.5307 -1.0300
  679MOL0     H89585   4.013   6.868   8.436 -1.1625  0.8140 -0.6075
  679MOL0     H89586   4.175   6.929   8.632 -0.1278 -1.3340  0.8166
  679MOL0     H89587   4.100   7.078   8.653 -0.6614 -0.4433  0.4627
  679MOL0     H89588   3.879   6.939   8.654  2.1901  1.1129 -4.2890
  679MOL0     H89589   3.983   6.926   8.806 -1.3552 -1.5526  0.7184
  679MOL0     H89590   4.154   6.611   8.532  2.6390 -2.3343 -0.3384
  679MOL0     H89591   4.330   6.485   8.611 -3.5110 -0.0482 -0.9282
  679MOL0     H89592   4.704   6.586   8.971 -2.7749  1.2772  1.3752
  679MOL0     H89593   4.911   6.477   9.057 -1.9081  0.1492 -4.5088
  679MOL0     H89594   5.071   6.392   9.148  0.0391 -0.2066  0.5627
  679MOL0     H89595   5.073   6.229   9.109  2.3102 -0.8390  1.0187
  679MOL0     H89596   5.254   6.235   9.246 -1.3714 -2.8361  0.6995
  679MOL0     H89597   5.139   6.179   9.357  1.0277  0.1462  1.8948
  679MOL0     H89598   5.241   6.471   9.346 -1.0544  0.1997 -1.3446
  679MOL0     H89599   5.261   6.344   9.464 -1.3118 -0.6152  1.0178
  679MOL0     H89600   5.004   6.503   9.386  1.2687  0.5714 -2.2796
  679MOL0     H89601   5.002   6.369   9.500 -0.5989  2.4711  1.1294
  679MOL0     H89602   4.997   6.586   9.616 -1.3445 -1.7369 -0.5484
  679MOL0     H89603   5.153   6.631   9.554  1.8342 -0.4687  2.0907
  679MOL0     H89604   5.151   6.542   9.793  0.0173  1.3913 -0.6848
  679MOL0     H89605   5.255   6.456   9.681  0.0978  0.6273  0.5075
  679MOL0     H89606   4.971   6.370   9.746 -0.9613 -1.3471 -2.5599
  679MOL0     H89607   5.094   6.279   9.666 -1.6887  0.0301 -0.4219
  679MOL0     H89608   5.079   6.218   9.922 -0.5194  1.1165  0.3002
  679MOL0     H89609   5.133   6.384   9.959 -3.1485  0.2418 -0.8037
  679MOL0     H89610   4.668   6.201   9.282 -1.5530 -1.0861 -0.0110
  679MOL0     H89611   4.457   6.315   9.171  0.3231 -1.2796  0.1911
  679MOL0     H89612   4.247   6.637   9.021  2.1216 -1.1562  0.0902
  679MOL0     H89613   4.076   6.775   8.922 -1.5397 -0.6248 -1.3271
  679MOL0     H89614   3.745   7.009   7.839  2.0589  2.5141  0.7826
  679MOL0     H89615   3.611   7.019   7.647  0.1690 -0.2457  3.6321
  679MOL0     H89616   3.320   7.172   7.382  0.9047 -0.5637  0.1044
  679MOL0     H89617   3.187   7.181   7.164  0.7902  0.7687  0.7641
  679MOL0     H89618   3.422   7.389   6.862 -0.5166  1.8386  0.6205
  679MOL0     H89619   3.266   7.406   6.806 -0.6457 -0.9849 -0.4280
  679MOL0     H89620   3.420   7.145   6.751 -0.2323 -0.4219 -0.3207
  679MOL0     H89621   3.280   7.214   6.659  0.2946 -0.9776 -0.4075
  679MOL0     H89622   3.551   7.222   6.560  2.8816  1.4180  0.8268
  679MOL0     H89623   3.552   7.360   6.660 -0.9027  3.2838 -0.8018
  679MOL0     H89624   3.352   7.314   6.428 -0.4384  1.3075 -2.4425
  679MOL0     H89625   3.327   7.437   6.539 -1.4597 -2.7593 -0.2230
  679MOL0     H89626   3.585   7.582   6.239 -1.5039  1.0168 -0.4620
  679MOL0     H89627   3.539   7.204   6.935 -1.4251  0.3514 -1.6036
  679MOL0     H89628   3.676   7.200   7.130  0.6215 -0.3918  2.4054
  680MOL0     O89629  10.337  10.050   1.667  0.7152 -0.0890  0.2394
  680MOL0     C89630  10.354   9.941   1.722 -0.0292  0.0779 -0.4597
  680MOL0     O89631  10.294   9.835   1.688  0.2001 -0.1916 -0.0713
  680MOL0     C89632  10.235   9.810   1.566 -0.2134 -0.5459  0.0111
  680MOL0     C89633  10.235   9.882   1.448  0.5959 -0.5216  0.1208
  680MOL0     C89634  10.180   9.831   1.331 -0.1347 -0.3056  0.2492
  680MOL0     C89635  10.120   9.708   1.327 -0.2926 -0.1901 -0.2623
  680MOL0     O89636  10.067   9.648   1.219 -0.5488 -0.3197 -0.1335
  680MOL0     C89637  10.062   9.714   1.082  0.3340 -0.6726  0.3992
  680MOL0     C89638   9.948   9.824   1.068  0.1903 -0.3792  0.0429
  680MOL0     C89639   9.810   9.784   1.112  0.4010 -1.1520 -0.1672
  680MOL0     C89640   9.749   9.685   1.009 -0.0055  0.4427  1.0018
  680MOL0     C89641   9.595   9.669   1.042  0.0210  0.4893 -0.3633
  680MOL0     C89642   9.564   9.559   1.144  0.4878 -0.8584  0.0935
  680MOL0     C89643   9.416   9.508   1.128 -0.0050  1.1046  0.5947
  680MOL0     C89644   9.407   9.371   1.185 -0.9230 -0.0876  0.0050
  680MOL0     N89645   9.271   9.311   1.180  0.6676  0.1961 -0.8184
  680MOL0     C89646   9.156   9.365   1.227 -0.3100 -0.1387  0.4447
  680MOL0     C89647   9.056   9.280   1.189 -0.5518 -0.1214 -0.8449
  680MOL0     C89648   8.910   9.296   1.227 -0.0402  0.5561 -0.1611
  680MOL0     C89649   8.881   9.255   1.369 -0.1552  0.3819 -0.7006
  680MOL0     C89650   8.893   9.104   1.397  0.1642  0.0123  0.1287
  680MOL0     C89651   8.839   9.064   1.529  0.2660 -0.3549 -0.3155
  680MOL0     O89652   8.882   8.925   1.557 -0.7094 -0.0078  0.5380
  680MOL0     C89653   8.829   8.873   1.673  1.1323  1.1653 -0.6860
  680MOL0     C89654   8.698   8.903   1.726 -0.2071 -0.3679 -0.4059
  680MOL0     C89655   8.637   8.817   1.819  0.0329 -0.4642 -0.0277
  680MOL0     C89656   8.703   8.711   1.876 -0.1332  0.0653  0.4058
  680MOL0     C89657   8.655   8.621   1.986  0.7251  0.2999 -0.6046
  680MOL0     O89658   8.718   8.518   2.041 -0.2790 -0.2168  0.4726
  680MOL0     C89659   8.651   8.413   2.109  0.7420 -0.3130  0.6336
  680MOL0     C89660   8.734   8.316   2.159 -0.2126  0.3272 -1.0431
  680MOL0     C89661   8.676   8.198   2.211  0.3637  0.2917  0.0919
  680MOL0     C89662   8.533   8.178   2.220  0.1162  0.3297 -0.1857
  680MOL0     O89663   8.486   8.062   2.266  0.5583 -0.2764  0.4549
  680MOL0     C89664   8.352   8.008   2.252 -0.7697  0.4969  1.1289
  680MOL0     C89665   8.292   8.013   2.388  0.1546  0.0719 -0.3060
  680MOL0     C89666   8.339   7.906   2.474  0.9577  0.1434 -0.5935
  680MOL0     C89667   8.280   7.774   2.441  0.2353  0.1784  0.3200
  680MOL0     C89668   8.264   7.669   2.554  0.4798 -1.0293 -0.7880
  680MOL0     C89669   8.166   7.562   2.508 -0.7964  0.2571  0.6224
  680MOL0     C89670   8.123   7.480   2.629  0.4231 -0.9495  0.8860
  680MOL0     C89671   8.048   7.351   2.593  0.2324  0.1073  0.1661
  680MOL0    Cl89672   7.903   7.400   2.482 -0.4455 -0.3702  0.3415
  680MOL0     C89673   8.452   8.281   2.179 -0.7035 -0.3756 -0.1126
  680MOL0     C89674   8.507   8.391   2.110  0.2761  0.4276 -0.9833
  680MOL0     O89675   8.551   8.672   2.034 -0.1308 -0.1925  0.0945
  680MOL0     C89676   8.831   8.668   1.815  0.7942 -0.1880  0.1989
  680MOL0     C89677   8.894   8.753   1.722  0.7005  0.4503  0.4627
  680MOL0     N89678   9.110   9.179   1.121 -0.0372 -0.2514  0.1006
  680MOL0     N89679   9.240   9.196   1.119 -0.3164  0.9126  0.1623
  680MOL0     C89680  10.122   9.629   1.440 -0.4271 -0.9032 -0.2799
  680MOL0     C89681  10.179   9.678   1.556 -0.0168 -0.1485  0.5530
  680MOL0     C89682  10.441   9.925   1.847 -0.2206 -0.1269 -0.0718
  680MOL0     C89683  10.469   9.803   1.904 -0.5695  0.8807  0.0745
  680MOL0     C89684  10.534   9.784   2.022 -0.7248 -0.1535 -0.1927
  680MOL0     C89685  10.598   9.900   2.089  0.4016  0.5877  0.2735
  680MOL0     O89686  10.678   9.900   2.195  0.2737 -0.1054  0.1273
  680MOL0     C89687  10.727   9.775   2.252  0.4055  0.0592  0.4076
  680MOL0     C89688  10.836   9.796   2.346  0.3755 -0.4289  0.3701
  680MOL0     C89689  10.830   9.710   2.471  1.0636  0.0931 -0.7512
  680MOL0     C89690  10.953   9.745   2.561  0.0455 -0.2080 -0.2083
  680MOL0     C89691  10.938   9.882   2.606  0.0369  0.6115 -0.2552
  680MOL0     C89692  10.926   9.996   2.626 -0.0820  0.8840  0.1208
  680MOL0     C89693  10.569  10.024   2.032  1.0817 -0.5795  0.2568
  680MOL0     C89694  10.493  10.043   1.916 -0.7766  0.8796 -0.1759
  680MOL0     H89695  10.277   9.981   1.435  0.9720 -0.9152 -1.9803
  680MOL0     H89696  10.191   9.890   1.241  1.3319 -0.3589  0.3728
  680MOL0     H89697  10.045   9.637   1.006  3.8357 -1.0361 -0.2002
  680MOL0     H89698  10.159   9.750   1.048  0.5850 -1.6556  0.0535
  680MOL0     H89699   9.947   9.852   0.963 -0.3765 -0.5606 -0.0042
  680MOL0     H89700   9.990   9.905   1.128  0.3692  0.0722 -0.6823
  680MOL0     H89701   9.749   9.872   1.135 -0.2533 -2.2590  2.7066
  680MOL0     H89702   9.804   9.733   1.208  2.1383 -0.7592  0.1817
  680MOL0     H89703   9.758   9.724   0.907  3.2180  1.8342  1.7054
  680MOL0     H89704   9.808   9.592   1.005  0.2694  0.6505 -0.3843
  680MOL0     H89705   9.554   9.637   0.946  0.0407 -0.5363 -0.0430
  680MOL0     H89706   9.557   9.771   1.054  0.9234  0.8316 -0.3065
  680MOL0     H89707   9.581   9.603   1.242 -0.4539 -2.3336  0.9578
  680MOL0     H89708   9.633   9.474   1.134  1.4345 -0.3651  1.9539
  680MOL0     H89709   9.352   9.580   1.179 -1.0151  0.3434  0.4396
  680MOL0     H89710   9.385   9.499   1.023 -2.0385  0.2397  1.2392
  680MOL0     H89711   9.436   9.367   1.291 -2.8152  0.2066  0.5654
  680MOL0     H89712   9.477   9.306   1.130 -0.1083  1.7698 -1.2471
  680MOL0     H89713   9.141   9.463   1.270  1.3586  0.3060  0.0755
  680MOL0     H89714   8.844   9.227   1.173 -0.0794  0.3444  0.1604
  680MOL0     H89715   8.886   9.400   1.206 -0.8734 -0.1595 -3.3638
  680MOL0     H89716   8.774   9.274   1.381 -0.1486 -0.9256  2.3695
  680MOL0     H89717   8.942   9.321   1.432  1.3031 -0.5611 -1.0862
  680MOL0     H89718   8.852   9.048   1.313 -2.3157  3.6606 -1.3590
  680MOL0     H89719   9.000   9.082   1.400  0.7037  2.3910  1.1801
  680MOL0     H89720   8.731   9.074   1.519  0.4556  2.2280 -0.5927
  680MOL0     H89721   8.881   9.132   1.604 -1.8612 -0.1205  0.7178
  680MOL0     H89722   8.623   8.970   1.683 -1.8036 -2.9481 -1.9197
  680MOL0     H89723   8.538   8.844   1.853  0.9143  5.4842 -1.0550
  680MOL0     H89724   8.840   8.339   2.161  0.5963 -2.3934  4.4736
  680MOL0     H89725   8.738   8.120   2.253 -2.0741 -1.4008  0.7760
  680MOL0     H89726   8.362   7.904   2.220  0.5236  1.2378 -1.0680
  680MOL0     H89727   8.285   8.059   2.181 -4.6483 -4.0765  0.9688
  680MOL0     H89728   8.183   8.007   2.385 -0.0175  2.4773 -0.8529
  680MOL0     H89729   8.321   8.111   2.429  0.4778  0.1686 -0.7497
  680MOL0     H89730   8.300   7.922   2.575  3.7849 -3.2393  1.2673
  680MOL0     H89731   8.448   7.908   2.478  0.9469 -0.5480  0.5455
  680MOL0     H89732   8.182   7.783   2.395  1.1481  1.0883 -1.5807
  680MOL0     H89733   8.347   7.736   2.363  0.9166  1.6354  0.1520
  680MOL0     H89734   8.233   7.717   2.647  4.1612 -0.0741  0.1269
  680MOL0     H89735   8.355   7.616   2.585  0.6093 -0.5576 -0.3440
  680MOL0     H89736   8.208   7.490   2.437 -0.8533  0.2186  0.6280
  680MOL0     H89737   8.075   7.611   2.470 -1.4333  0.9610  2.8643
  680MOL0     H89738   8.199   7.459   2.705  1.1236  0.7731  0.6962
  680MOL0     H89739   8.045   7.539   2.679 -1.3314 -2.7410  0.4153
  680MOL0     H89740   8.013   7.308   2.687  0.5289  0.5564  0.4888
  680MOL0     H89741   8.113   7.275   2.550  0.4809 -0.4176  1.4414
  680MOL0     H89742   8.345   8.268   2.173 -0.9074  1.5243 -2.2931
  680MOL0     H89743   8.438   8.460   2.063  2.7421  0.8531 -4.3923
  680MOL0     H89744   8.878   8.577   1.851 -0.7929 -0.8556  0.6771
  680MOL0     H89745   8.990   8.739   1.674 -0.6964  0.0666 -2.4805
  680MOL0     H89746  10.065   9.536   1.445  1.4993 -2.0922  2.0551
  680MOL0     H89747  10.169   9.613   1.643 -0.3774 -0.6466  0.1421
  680MOL0     H89748  10.428   9.713   1.861 -0.2171  1.3606 -1.3237
  680MOL0     H89749  10.536   9.688   2.071  0.2292 -1.1643 -2.0968
  680MOL0     H89750  10.765   9.704   2.179  0.6935 -0.1945  0.7979
  680MOL0     H89751  10.630   9.742   2.291 -1.9856  4.0064 -1.5685
  680MOL0     H89752  10.929   9.770   2.294  0.1382 -0.1079 -0.2278
  680MOL0     H89753  10.831   9.901   2.377  3.4495 -0.4386  1.2291
  680MOL0     H89754  10.831   9.603   2.452  0.4779  0.0297 -0.4383
  680MOL0     H89755  10.743   9.727   2.535  0.4547  2.2980 -2.0384
  680MOL0     H89756  10.973   9.687   2.651  2.2236 -0.6909 -0.9416
  680MOL0     H89757  11.039   9.725   2.496 -1.3958  1.5748 -2.8815
  680MOL0     H89758  10.915  10.100   2.650 -0.2199  0.4145  2.3558
  680MOL0     H89759  10.613  10.111   2.081 -2.1248  1.5854 -0.4111
  680MOL0     H89760  10.470  10.141   1.876 -1.5767  1.2681  1.1838
  681MOL0     O89761   3.489   3.472   0.915  0.2095 -0.3278  0.3392
  681MOL0     C89762   3.364   3.482   0.918  0.8174 -0.2094 -0.2587
  681MOL0     O89763   3.274   3.441   0.821  0.3379  0.5737 -0.0924
  681MOL0     C89764   3.305   3.319   0.770 -0.3059 -1.2489  0.1118
  681MOL0     C89765   3.318   3.319   0.629  0.2381  0.4221  0.6742
  681MOL0     C89766   3.375   3.210   0.562  0.9469 -0.6683  0.9760
  681MOL0     C89767   3.425   3.104   0.632  0.4314 -0.8540  0.0633
  681MOL0     O89768   3.471   2.993   0.576 -0.1172 -0.4417 -0.5933
  681MOL0     C89769   3.505   2.990   0.435  0.5397  0.4304  0.3754
  681MOL0     C89770   3.584   2.860   0.392  0.3495 -0.0906 -0.1975
  681MOL0     C89771   3.528   2.731   0.461  0.0512  0.8920 -0.8117
  681MOL0     C89772   3.387   2.698   0.418  0.2479  1.0757  0.8828
  681MOL0     C89773   3.265   2.759   0.502  0.3314  0.4807  0.0546
  681MOL0     C89774   3.275   2.734   0.657  0.3864  0.7637  1.0621
  681MOL0     C89775   3.146   2.660   0.689 -0.1267 -0.5094 -0.7855
  681MOL0     C89776   3.132   2.640   0.841 -0.2293 -0.3705 -0.0044
  681MOL0     N89777   3.155   2.755   0.934  0.5343  0.4193  0.2681
  681MOL0     C89778   3.053   2.825   0.993 -0.2830 -0.5977 -0.3962
  681MOL0     C89779   3.113   2.915   1.079  0.2919 -0.4979  0.4636
  681MOL0     C89780   3.021   2.983   1.174 -0.6673  0.0005 -0.9641
  681MOL0     C89781   3.023   3.132   1.159 -0.1172 -0.7135  0.1721
  681MOL0     C89782   3.127   3.196   1.251  0.3669 -0.6544  0.0837
  681MOL0     C89783   3.069   3.324   1.303 -0.1847  0.5489  0.0697
  681MOL0     O89784   2.995   3.288   1.421  0.6154 -0.0182  0.2230
  681MOL0     C89785   2.919   3.388   1.481 -0.6662 -0.8702 -0.2893
  681MOL0     C89786   2.893   3.524   1.436  0.2898  0.0216  0.4647
  681MOL0     C89787   2.811   3.601   1.522 -0.4338  0.8047 -0.4132
  681MOL0     C89788   2.764   3.558   1.651 -0.8906  0.1233  0.4395
  681MOL0     C89789   2.699   3.644   1.744  0.3221 -0.2211  0.2519
  681MOL0     O89790   2.707   3.776   1.714  0.2230  0.9300  0.1554
  681MOL0     C89791   2.598   3.852   1.736  1.4835 -0.4068 -0.6396
  681MOL0     C89792   2.465   3.809   1.745  0.0091  0.6584 -0.6219
  681MOL0     C89793   2.358   3.893   1.769  0.3362 -0.7510 -1.1339
  681MOL0     C89794   2.386   4.034   1.775  0.4054 -0.6382 -1.0233
  681MOL0     O89795   2.282   4.109   1.822 -0.4504 -0.0929 -0.4395
  681MOL0     C89796   2.252   4.097   1.959  0.1520 -0.5613 -0.5290
  681MOL0     C89797   2.103   4.104   1.993 -0.0412 -0.8886  0.2779
  681MOL0     C89798   2.018   3.985   1.929  0.0681  0.1152 -0.6979
  681MOL0     C89799   1.869   4.021   1.942  0.8693  0.3888  0.5805
  681MOL0     C89800   1.769   3.914   1.895 -0.1393 -0.3613 -0.0359
  681MOL0     C89801   1.628   3.961   1.907 -0.8585  0.0403 -1.2350
  681MOL0     C89802   1.521   3.853   1.850  0.8006 -0.8470 -0.4851
  681MOL0     C89803   1.544   3.706   1.886  0.1855 -0.5194 -0.6437
  681MOL0    Cl89804   1.432   3.603   1.798  0.0559  0.3008 -0.1301
  681MOL0     C89805   2.516   4.087   1.752 -0.4800  1.1487 -0.9205
  681MOL0     C89806   2.618   3.991   1.728 -0.6406  0.0533  0.3779
  681MOL0     O89807   2.660   3.602   1.850  0.1914  0.1751 -0.2670
  681MOL0     C89808   2.798   3.427   1.686 -0.3006 -0.3878  0.4815
  681MOL0     C89809   2.869   3.347   1.600 -0.3387  0.1190 -0.4212
  681MOL0     N89810   3.252   2.875   1.088  0.1084 -1.3999  0.1974
  681MOL0     N89811   3.268   2.782   1.007 -0.3946  0.5830  0.2750
  681MOL0     C89812   3.419   3.116   0.774  0.3988  0.5574 -0.2866
  681MOL0     C89813   3.349   3.213   0.844 -0.5344 -0.2983  0.7158
  681MOL0     C89814   3.315   3.560   1.028  0.0488 -0.0669 -0.3141
  681MOL0     C89815   3.366   3.550   1.163  0.0421 -0.0355  0.1473
  681MOL0     C89816   3.320   3.621   1.274 -0.2427  0.1902  0.1947
  681MOL0     C89817   3.218   3.715   1.255 -0.2181 -0.2476 -0.7402
  681MOL0     O89818   3.164   3.794   1.355 -0.2337  0.0615 -0.7058
  681MOL0     C89819   3.230   3.792   1.479 -0.0086  0.1609  0.2952
  681MOL0     C89820   3.168   3.675   1.568  0.2341  0.2402  0.0161
  681MOL0     C89821   3.234   3.655   1.706  1.1469 -0.4345  0.4736
  681MOL0     C89822   3.169   3.555   1.807 -0.9595  0.0035 -0.3069
  681MOL0     C89823   3.203   3.414   1.775  0.6517 -0.5646  0.0945
  681MOL0     C89824   3.238   3.299   1.760 -0.3885 -0.3630 -0.5854
  681MOL0     C89825   3.160   3.724   1.126 -0.2526 -0.7994 -0.1006
  681MOL0     C89826   3.202   3.650   1.010  0.0608  0.5156 -0.1093
  681MOL0     H89827   3.272   3.403   0.578  0.1862  0.7679  1.2755
  681MOL0     H89828   3.355   3.201   0.456  1.1529 -1.2467  0.9846
  681MOL0     H89829   3.555   3.081   0.400 -3.7768  2.1103 -2.2530
  681MOL0     H89830   3.412   2.996   0.378  2.4463 -2.1043 -3.4556
  681MOL0     H89831   3.681   2.874   0.441 -0.3251 -0.9908  1.4695
  681MOL0     H89832   3.603   2.845   0.286  2.3502 -0.2301  0.1382
  681MOL0     H89833   3.538   2.740   0.570  0.7261 -1.4135 -0.6396
  681MOL0     H89834   3.587   2.643   0.435 -3.2306 -1.6243 -0.4066
  681MOL0     H89835   3.369   2.725   0.313  1.7075  0.8278  0.5423
  681MOL0     H89836   3.371   2.590   0.432  0.8379  0.7287 -0.8285
  681MOL0     H89837   3.177   2.710   0.459 -0.6878  0.8431  1.6310
  681MOL0     H89838   3.242   2.864   0.482  2.6916  0.9782 -0.3504
  681MOL0     H89839   3.281   2.825   0.718 -1.4156 -0.9845  4.1381
  681MOL0     H89840   3.367   2.677   0.670  1.7045  1.4044 -3.6201
  681MOL0     H89841   3.057   2.719   0.667 -1.7010 -2.6054 -0.3570
  681MOL0     H89842   3.142   2.560   0.646  0.4875 -0.6942 -0.4201
  681MOL0     H89843   3.208   2.565   0.867 -0.3317 -0.5036 -0.0888
  681MOL0     H89844   3.025   2.618   0.852 -0.6355  1.7954  0.8338
  681MOL0     H89845   2.946   2.816   0.979 -0.2035 -0.4105 -1.1636
  681MOL0     H89846   3.059   2.945   1.269 -1.7659 -1.6174 -1.1328
  681MOL0     H89847   2.916   2.953   1.168 -0.9435  0.2400  1.4097
  681MOL0     H89848   2.922   3.163   1.189  0.0472 -0.1985  0.1973
  681MOL0     H89849   3.037   3.159   1.054  0.4193 -0.5313  0.2862
  681MOL0     H89850   3.151   3.132   1.337 -3.0930 -0.9070  0.9995
  681MOL0     H89851   3.215   3.215   1.189  0.3039 -1.1475 -0.1622
  681MOL0     H89852   3.031   3.373   1.213 -2.1905 -3.6552 -1.6429
  681MOL0     H89853   3.152   3.391   1.331 -1.5781  2.2918  0.2443
  681MOL0     H89854   2.929   3.560   1.340  1.3700 -2.3047 -0.0815
  681MOL0     H89855   2.791   3.700   1.482  1.5053  0.9458 -1.1627
  681MOL0     H89856   2.429   3.707   1.738 -0.9696  1.0372 -1.3122
  681MOL0     H89857   2.254   3.862   1.771  0.0415  0.1690 -1.7772
  681MOL0     H89858   2.306   4.176   2.013 -2.7383 -0.8361  3.2193
  681MOL0     H89859   2.287   4.010   2.015 -1.6520 -0.7947  0.3059
  681MOL0     H89860   2.057   4.194   1.953  4.9023  1.1381 -1.6164
  681MOL0     H89861   2.093   4.105   2.102 -0.5141  1.3524  0.2454
  681MOL0     H89862   2.034   3.882   1.962  0.2272 -2.0891 -6.5642
  681MOL0     H89863   2.050   3.988   1.825 -0.8965  2.5374 -0.9847
  681MOL0     H89864   1.849   4.042   2.048  0.4871 -1.7773  0.9880
  681MOL0     H89865   1.849   4.110   1.882 -1.6894  0.0089  0.7303
  681MOL0     H89866   1.782   3.821   1.951  1.3001 -0.6647 -0.8386
  681MOL0     H89867   1.801   3.890   1.793 -0.6031  1.1900 -0.5644
  681MOL0     H89868   1.622   4.060   1.861  0.8630 -0.8705 -3.5956
  681MOL0     H89869   1.609   3.977   2.014 -1.5208  1.4950 -1.5456
  681MOL0     H89870   1.420   3.879   1.885  0.9120  0.2319 -0.9207
  681MOL0     H89871   1.529   3.865   1.742 -0.0024  1.0693 -0.3724
  681MOL0     H89872   1.525   3.706   1.993 -1.8323  1.7948 -0.8958
  681MOL0     H89873   1.645   3.678   1.856 -0.7549 -3.5947 -1.3530
  681MOL0     H89874   2.550   4.190   1.747  0.8254  0.7147 -1.5559
  681MOL0     H89875   2.721   4.024   1.716  0.4404 -2.0026  2.9699
  681MOL0     H89876   2.771   3.399   1.787 -2.1354  1.3980  0.5352
  681MOL0     H89877   2.881   3.245   1.636 -0.5506  0.7454  1.5593
  681MOL0     H89878   3.467   3.030   0.818  0.7762  1.2208  0.6237
  681MOL0     H89879   3.360   3.207   0.951 -0.5690 -3.5890  0.6395
  681MOL0     H89880   3.437   3.470   1.183  0.1329  0.9903  5.0383
  681MOL0     H89881   3.368   3.591   1.366 -1.5863  0.3467  0.9612
  681MOL0     H89882   3.202   3.878   1.541 -1.2380 -0.8328  1.1725
  681MOL0     H89883   3.338   3.780   1.477 -0.2155 -2.2935 -2.9694
  681MOL0     H89884   3.062   3.702   1.581  0.2607  0.1976  0.3144
  681MOL0     H89885   3.171   3.580   1.514  2.3496  0.4716 -0.3327
  681MOL0     H89886   3.241   3.753   1.754 -0.3052 -0.2077  0.2773
  681MOL0     H89887   3.338   3.631   1.687  1.8206 -2.1354  4.9380
  681MOL0     H89888   3.200   3.581   1.908 -0.9241  1.4203 -0.6594
  681MOL0     H89889   3.062   3.575   1.801 -1.2324 -1.6809 -1.8529
  681MOL0     H89890   3.281   3.204   1.737  3.9679  1.8557 -2.9590
  681MOL0     H89891   3.079   3.796   1.116 -0.5828 -1.0765  0.5230
  681MOL0     H89892   3.152   3.655   0.914  2.3585 -2.4331 -1.6164
  682MOL0     O89893   0.416   4.634   4.308  0.0582 -0.0433  1.0400
  682MOL0     C89894   0.381   4.550   4.220  0.5901 -1.0491 -0.4803
  682MOL0     O89895   0.255   4.524   4.186 -0.8270 -0.3237 -0.1386
  682MOL0     C89896   0.139   4.572   4.256 -0.3349  0.7344  0.3627
  682MOL0     C89897   0.132   4.702   4.309 -0.4097 -0.1704  0.8134
  682MOL0     C89898   0.015   4.732   4.387 -0.1371  0.6788  0.1920
  682MOL0     C89899  -0.085   4.635   4.414  0.0544 -0.4232 -0.4776
  682MOL0     O89900  -0.189   4.679   4.497  0.1825  0.2516  1.1870
  682MOL0     C89901  -0.313   4.609   4.507 -0.0465 -0.2126  0.3602
  682MOL0     C89902  -0.307   4.477   4.579  0.2908  0.2849 -0.2968
  682MOL0     C89903  -0.444   4.419   4.596 -1.0695  0.4035  0.6642
  682MOL0     C89904  -0.432   4.294   4.685  0.2000 -0.1939 -0.8258
  682MOL0     C89905  -0.548   4.204   4.665 -0.1882 -0.0281  1.0655
  682MOL0     C89906  -0.575   4.123   4.799  0.2827  0.3220 -0.1369
  682MOL0     C89907  -0.692   4.022   4.789 -0.0113 -0.5693 -0.7831
  682MOL0     C89908  -0.823   4.096   4.766 -1.1146 -0.5560 -0.5764
  682MOL0     N89909  -0.928   3.997   4.784  0.6743  0.2072 -0.1990
  682MOL0     C89910  -0.957   3.885   4.714 -0.2335  0.3654  0.9943
  682MOL0     C89911  -1.082   3.834   4.753  0.5019  0.1191  1.0583
  682MOL0     C89912  -1.160   3.724   4.688 -0.3184  0.0082  0.2748
  682MOL0     C89913  -1.267   3.665   4.769 -1.2158  0.1545 -0.4784
  682MOL0     C89914  -1.376   3.598   4.683  0.5386 -0.4632  0.3079
  682MOL0     C89915  -1.335   3.513   4.561  0.0058  0.1662 -0.8632
  682MOL0     O89916  -1.253   3.412   4.604  0.8138  0.1693  0.0218
  682MOL0     C89917  -1.214   3.317   4.511  0.1435  1.3403 -0.1012
  682MOL0     C89918  -1.215   3.330   4.375 -0.2920 -0.0607  0.6018
  682MOL0     C89919  -1.169   3.227   4.290  0.4800 -0.0980 -1.3054
  682MOL0     C89920  -1.122   3.100   4.350 -0.3491  0.9087  0.8929
  682MOL0     C89921  -1.061   2.994   4.256 -0.3145 -0.1973  0.0642
  682MOL0     O89922  -1.082   3.021   4.122 -0.5729  0.2844 -0.0298
  682MOL0     C89923  -1.047   2.923   4.034  0.3611 -0.5248  0.7738
  682MOL0     C89924  -0.958   2.968   3.941  0.7744 -0.4839 -0.1913
  682MOL0     C89925  -0.914   2.878   3.849  0.0289 -0.4017  0.7595
  682MOL0     C89926  -0.954   2.743   3.839 -0.4468 -0.3252 -0.4171
  682MOL0     O89927  -0.914   2.650   3.742  0.0768  0.0759 -0.4043
  682MOL0     C89928  -0.791   2.681   3.670 -0.7061  0.2199  0.0328
  682MOL0     C89929  -0.755   2.542   3.606  0.1492 -0.1137  0.7880
  682MOL0     C89930  -0.707   2.449   3.717  0.8311 -1.0583 -0.1449
  682MOL0     C89931  -0.667   2.307   3.665  0.7317 -0.3764  0.3950
  682MOL0     C89932  -0.541   2.310   3.585  0.0785  0.3933 -0.8378
  682MOL0     C89933  -0.491   2.172   3.530  0.7001  0.3803 -0.0584
  682MOL0     C89934  -0.577   2.122   3.414  0.4792 -0.3462  0.2289
  682MOL0     C89935  -0.489   2.051   3.314  0.0037  0.0330  0.5241
  682MOL0    Cl89936  -0.425   1.903   3.378  0.2161 -0.1041  0.1958
  682MOL0     C89937  -1.045   2.699   3.930  0.4006  0.1562  0.6389
  682MOL0     C89938  -1.097   2.787   4.027 -0.5762  0.4458  0.1433
  682MOL0     O89939  -0.993   2.898   4.300  0.6073 -0.3409 -0.5875
  682MOL0     C89940  -1.126   3.091   4.486 -1.0602 -0.4666  0.2720
  682MOL0     C89941  -1.166   3.201   4.563  0.2523 -0.0399  0.0871
  682MOL0     N89942  -1.117   3.918   4.858 -0.3469 -0.3246 -0.9250
  682MOL0     N89943  -1.029   4.010   4.873 -0.3642 -0.0072 -0.5225
  682MOL0     C89944  -0.074   4.512   4.357 -0.5584 -0.4528 -0.0746
  682MOL0     C89945   0.038   4.475   4.283  1.0917 -0.4830  0.3411
  682MOL0     C89946   0.485   4.469   4.149  0.1434 -0.6084  0.8079
  682MOL0     C89947   0.623   4.496   4.151  0.0627  0.3116 -0.1296
  682MOL0     C89948   0.721   4.410   4.095  0.1580 -0.0486  0.2038
  682MOL0     C89949   0.686   4.293   4.038  0.3184 -0.3344 -0.0778
  682MOL0     O89950   0.780   4.199   3.993  0.2940  0.4202 -0.1049
  682MOL0     C89951   0.915   4.201   4.045 -0.1951  0.1816  0.0034
  682MOL0     C89952   0.977   4.062   4.036 -0.3486 -0.3100  0.6033
  682MOL0     C89953   1.050   4.039   3.897  0.8663  0.1208 -0.2485
  682MOL0     C89954   0.962   3.949   3.822 -0.3671 -0.3858  0.0193
  682MOL0     C89955   1.022   3.923   3.695  0.3579 -0.5178 -0.3776
  682MOL0     C89956   1.069   3.915   3.585  0.4456 -0.3471  0.2944
  682MOL0     C89957   0.549   4.268   4.023 -0.8826  0.3915  0.6666
  682MOL0     C89958   0.455   4.346   4.083 -0.3709 -0.0379 -0.0134
  682MOL0     H89959   0.220   4.765   4.312  1.2591 -2.4204  0.9430
  682MOL0     H89960   0.001   4.825   4.441 -2.5281 -1.0562  2.8785
  682MOL0     H89961  -0.348   4.597   4.404  1.5341  2.0670 -0.5231
  682MOL0     H89962  -0.383   4.673   4.562 -0.5310  0.5721 -1.1138
  682MOL0     H89963  -0.266   4.497   4.678  0.1187  1.5598 -0.4671
  682MOL0     H89964  -0.251   4.399   4.527  0.4569  0.3886 -0.2734
  682MOL0     H89965  -0.478   4.379   4.500 -1.2352  1.1653  0.3992
  682MOL0     H89966  -0.515   4.489   4.641  0.6844  3.1015 -0.5127
  682MOL0     H89967  -0.353   4.226   4.653 -1.3049 -1.6430 -1.6155
  682MOL0     H89968  -0.426   4.311   4.793 -0.5045 -0.8087 -0.6820
  682MOL0     H89969  -0.535   4.139   4.578 -1.1984  0.1256  0.7888
  682MOL0     H89970  -0.636   4.264   4.643 -2.1350 -2.0727  2.6905
  682MOL0     H89971  -0.585   4.198   4.878  1.0773  1.1079 -0.7544
  682MOL0     H89972  -0.493   4.061   4.836 -1.2345 -1.7891 -0.1426
  682MOL0     H89973  -0.660   3.959   4.705  1.6007  0.3603 -0.9216
  682MOL0     H89974  -0.692   3.961   4.879  1.9165  1.6001  0.8137
  682MOL0     H89975  -0.816   4.141   4.666  2.4600  1.4196  0.3976
  682MOL0     H89976  -0.834   4.183   4.831  3.8214 -2.1663  2.9934
  682MOL0     H89977  -0.910   3.849   4.623 -2.9343 -2.0866  0.4354
  682MOL0     H89978  -1.088   3.645   4.663 -2.6313 -2.7883  1.7466
  682MOL0     H89979  -1.204   3.763   4.596  3.8081 -1.3228 -2.5581
  682MOL0     H89980  -1.299   3.749   4.831  2.8994  2.6079 -1.2728
  682MOL0     H89981  -1.221   3.585   4.827 -0.8121  0.0369 -0.9498
  682MOL0     H89982  -1.445   3.547   4.751  0.4037  2.9941  3.0582
  682MOL0     H89983  -1.443   3.675   4.645  2.1822  0.3004 -1.2073
  682MOL0     H89984  -1.278   3.580   4.496 -1.2870 -1.2004 -3.5962
  682MOL0     H89985  -1.417   3.463   4.509  0.4138 -3.0780  1.3397
  682MOL0     H89986  -1.243   3.420   4.322 -2.9699 -1.8917 -1.3926
  682MOL0     H89987  -1.173   3.250   4.184 -1.1156 -1.3003 -1.5487
  682MOL0     H89988  -0.925   3.071   3.947 -2.6190  0.6668  0.8772
  682MOL0     H89989  -0.845   2.915   3.773 -0.1975 -0.8992  0.3044
  682MOL0     H89990  -0.712   2.722   3.734 -0.0702  0.4065 -0.8479
  682MOL0     H89991  -0.798   2.757   3.591 -0.0468 -2.7109 -3.1124
  682MOL0     H89992  -0.680   2.560   3.529  0.8559  0.2674  1.5562
  682MOL0     H89993  -0.835   2.487   3.555  1.4151 -0.9588 -0.3274
  682MOL0     H89994  -0.788   2.427   3.788  1.2391  1.6328  1.2733
  682MOL0     H89995  -0.629   2.505   3.769  0.5122  2.2801 -2.9002
  682MOL0     H89996  -0.631   2.245   3.747 -1.2183 -0.9512  0.8658
  682MOL0     H89997  -0.747   2.264   3.604  1.4556 -1.4956  0.2032
  682MOL0     H89998  -0.460   2.345   3.649  1.5847 -1.8934 -1.3750
  682MOL0     H89999  -0.538   2.385   3.505  1.4678  0.9162 -0.3244
  682MOL0     H90000  -0.481   2.102   3.613  2.7061  1.3696  0.5871
  682MOL0     H90001  -0.398   2.197   3.480 -0.3801  1.4769 -1.6215
  682MOL0     H90002  -0.653   2.053   3.449 -0.1949 -0.0218 -0.5507
  682MOL0     H90003  -0.642   2.196   3.366 -1.2459 -2.4338 -0.7895
  682MOL0     H90004  -0.415   2.124   3.281  0.4341 -0.7875 -0.4148
  682MOL0     H90005  -0.559   2.030   3.232 -0.6120 -0.3306  1.1322
  682MOL0     H90006  -1.073   2.594   3.931  1.5797 -0.2519 -1.7555
  682MOL0     H90007  -1.158   2.747   4.107  1.2911  0.7385  1.8175
  682MOL0     H90008  -1.083   3.002   4.531  1.1199  0.2041 -0.3222
  682MOL0     H90009  -1.162   3.181   4.670  2.2877 -1.5169 -0.1942
  682MOL0     H90010  -0.142   4.428   4.355  0.2475 -1.1299 -2.5719
  682MOL0     H90011   0.041   4.373   4.247 -2.3163 -1.4095  2.2442
  682MOL0     H90012   0.665   4.584   4.199 -0.5526  1.0207 -0.8530
  682MOL0     H90013   0.826   4.437   4.099 -0.4787  2.7306 -0.3600
  682MOL0     H90014   0.903   4.243   4.145 -2.6788 -0.3191 -0.0071
  682MOL0     H90015   0.969   4.281   3.993  0.4886  1.7441  2.9040
  682MOL0     H90016   1.054   4.049   4.112 -0.2808 -1.4085  0.3527
  682MOL0     H90017   0.897   3.990   4.056  0.0295 -0.9535 -0.1833
  682MOL0     H90018   1.139   3.986   3.932 -0.0828 -1.3541  0.0546
  682MOL0     H90019   1.076   4.126   3.836 -2.9141  1.7761  0.1988
  682MOL0     H90020   0.936   3.864   3.886 -1.8948  2.2678  3.2381
  682MOL0     H90021   0.870   3.998   3.788 -0.1611 -1.0936 -1.6652
  682MOL0     H90022   1.116   3.920   3.489  0.1534  1.8027  0.2173
  682MOL0     H90023   0.513   4.175   3.979  2.0248  0.6178 -2.6753
  682MOL0     H90024   0.352   4.311   4.078  0.6806 -4.0198  1.6299
  683MOL0     O90025   3.124   2.877   3.647 -0.4243 -0.8150 -0.0143
  683MOL0     C90026   3.188   2.965   3.598 -1.3445 -0.8574 -0.3038
  683MOL0     O90027   3.312   2.949   3.538  0.1033  1.1193  0.5797
  683MOL0     C90028   3.371   2.831   3.580 -0.3928 -0.7811  0.1618
  683MOL0     C90029   3.358   2.700   3.523  0.1259  0.1467 -0.9243
  683MOL0     C90030   3.441   2.593   3.554 -1.2549  0.3723 -0.5031
  683MOL0     C90031   3.537   2.615   3.650 -0.5960  0.7905 -0.4040
  683MOL0     O90032   3.622   2.505   3.693 -0.0241 -0.3447 -0.0028
  683MOL0     C90033   3.733   2.520   3.793  0.1682  0.5042  0.0329
  683MOL0     C90034   3.827   2.403   3.779 -0.6302 -0.0199 -0.0754
  683MOL0     C90035   3.919   2.409   3.899  0.5710 -1.0941 -0.5183
  683MOL0     C90036   4.041   2.325   3.883  0.9453  0.3935  0.4793
  683MOL0     C90037   4.143   2.364   4.002  0.4420  0.0885  0.1360
  683MOL0     C90038   4.278   2.288   3.989 -0.3378 -0.3650  0.2792
  683MOL0     C90039   4.350   2.307   4.110  0.3583 -0.5585 -0.1775
  683MOL0     C90040   4.485   2.236   4.107 -0.5219 -0.8118  0.0977
  683MOL0     N90041   4.478   2.088   4.108  0.7877  0.3179 -1.0110
  683MOL0     C90042   4.575   2.005   4.050 -0.0445 -0.5050  0.0618
  683MOL0     C90043   4.544   1.883   4.104 -0.0514 -0.9255  0.1412
  683MOL0     C90044   4.628   1.755   4.062 -0.2074 -0.5705  0.7536
  683MOL0     C90045   4.646   1.660   4.188  0.0679 -0.2922  0.0014
  683MOL0     C90046   4.524   1.562   4.204  0.3618  1.0112  0.9795
  683MOL0     C90047   4.481   1.460   4.091 -1.0295  1.0977  0.2808
  683MOL0     O90048   4.609   1.392   4.040  0.4064  0.1479 -0.1014
  683MOL0     C90049   4.611   1.376   3.905 -1.1678 -0.2619 -0.9137
  683MOL0     C90050   4.514   1.304   3.838 -0.3158  0.0845  0.6828
  683MOL0     C90051   4.511   1.283   3.701 -0.1492 -0.2880 -0.0280
  683MOL0     C90052   4.633   1.332   3.638  0.4034  0.3652 -0.2478
  683MOL0     C90053   4.656   1.307   3.498  0.0324  0.1417  0.6752
  683MOL0     O90054   4.539   1.292   3.426  0.1427 -0.9780  0.1911
  683MOL0     C90055   4.534   1.262   3.291  0.3202  0.6438  0.9663
  683MOL0     C90056   4.635   1.304   3.198  0.3265 -0.2264  0.3481
  683MOL0     C90057   4.615   1.283   3.061  0.6162 -0.1253  0.3094
  683MOL0     C90058   4.499   1.224   3.012  0.3747 -0.5187  0.4168
  683MOL0     O90059   4.462   1.230   2.880  0.0995 -0.1301 -0.5160
  683MOL0     C90060   4.443   1.102   2.809  0.4925 -0.0428 -0.6885
  683MOL0     C90061   4.346   1.115   2.691  0.8018  0.5822  0.4756
  683MOL0     C90062   4.196   1.101   2.725 -0.8264  0.2384 -0.5947
  683MOL0     C90063   4.140   1.243   2.784 -0.1956 -0.2099  0.2860
  683MOL0     C90064   4.007   1.229   2.876  0.6244 -0.1052  0.3261
  683MOL0     C90065   4.005   1.337   2.983  0.0125  0.0849 -0.1685
  683MOL0     C90066   3.941   1.292   3.113 -0.9466 -0.7959  0.2917
  683MOL0     C90067   3.983   1.388   3.227 -0.2513  0.0163  0.0363
  683MOL0    Cl90068   3.909   1.556   3.214 -0.2989 -0.1491  0.1926
  683MOL0     C90069   4.409   1.173   3.103 -0.1351  0.6780  0.8869
  683MOL0     C90070   4.418   1.195   3.240 -0.6284 -0.3047  0.7760
  683MOL0     O90071   4.769   1.290   3.454 -0.2435 -0.7317 -0.6392
  683MOL0     C90072   4.733   1.405   3.703  0.0916  0.6370  0.2493
  683MOL0     C90073   4.720   1.427   3.837  0.2726 -0.8346 -0.3527
  683MOL0     N90074   4.430   1.890   4.183 -0.3135  0.6206  1.0959
  683MOL0     N90075   4.385   2.016   4.181  0.4931  0.3014 -0.1868
  683MOL0     C90076   3.539   2.737   3.721  0.2174 -0.9260 -0.7281
  683MOL0     C90077   3.462   2.839   3.689 -0.1574 -0.7977  0.6935
  683MOL0     C90078   3.124   3.095   3.582  0.8539 -0.3809 -0.1630
  683MOL0     C90079   3.158   3.181   3.478  0.2464  0.2440  0.1909
  683MOL0     C90080   3.078   3.291   3.445  0.9877 -0.3552 -0.0839
  683MOL0     C90081   2.970   3.339   3.523 -0.3225  0.3291  0.4236
  683MOL0     O90082   2.894   3.454   3.489 -0.0810 -0.3387 -0.4997
  683MOL0     C90083   2.903   3.506   3.357 -0.6788  0.1049  0.0061
  683MOL0     C90084   2.816   3.618   3.329  0.4927  0.3545  0.4387
  683MOL0     C90085   2.823   3.656   3.182 -0.2683 -0.3632  0.5641
  683MOL0     C90086   2.753   3.784   3.137 -0.2105 -0.3715  0.0097
  683MOL0     C90087   2.814   3.840   3.007 -0.5100  0.4609  0.4625
  683MOL0     C90088   2.858   3.887   2.903 -0.2875 -0.2995  0.6762
  683MOL0     C90089   2.943   3.263   3.642 -0.4651  0.3784  0.2146
  683MOL0     C90090   3.021   3.149   3.669  0.1378 -0.0047  0.4889
  683MOL0     H90091   3.290   2.680   3.440 -4.4110 -1.3310  2.6937
  683MOL0     H90092   3.448   2.508   3.486 -0.0059 -1.0201  1.2864
  683MOL0     H90093   3.679   2.526   3.888  1.0632 -0.9866  0.6715
  683MOL0     H90094   3.785   2.614   3.773 -1.9944  1.3883 -1.9544
  683MOL0     H90095   3.882   2.416   3.686 -0.1549 -1.1944  0.0170
  683MOL0     H90096   3.784   2.302   3.774 -3.0219  0.6588  3.1133
  683MOL0     H90097   3.855   2.370   3.979 -1.3481  0.3479 -1.2653
  683MOL0     H90098   3.940   2.515   3.915  1.3759 -1.4192  0.6834
  683MOL0     H90099   4.018   2.218   3.890  1.3286  0.3404  1.0333
  683MOL0     H90100   4.098   2.336   3.790  1.8154 -1.3949  0.7466
  683MOL0     H90101   4.093   2.346   4.098 -1.6705 -1.6841 -1.1886
  683MOL0     H90102   4.168   2.470   3.994 -3.9185  1.3499  0.4546
  683MOL0     H90103   4.344   2.328   3.912  0.9952 -0.2981  1.4148
  683MOL0     H90104   4.264   2.184   3.956  0.8943 -1.2594  2.3781
  683MOL0     H90105   4.369   2.413   4.130 -1.8344 -0.2823  0.7117
  683MOL0     H90106   4.291   2.271   4.195  0.8301  1.1010  0.9132
  683MOL0     H90107   4.534   2.271   4.198  0.7764 -2.0435 -0.1050
  683MOL0     H90108   4.544   2.277   4.024 -0.1989 -1.7792 -0.1662
  683MOL0     H90109   4.643   2.030   3.969 -0.2818  3.4450  0.8803
  683MOL0     H90110   4.722   1.795   4.023 -0.8214  5.1191  4.0294
  683MOL0     H90111   4.567   1.709   3.983 -2.8606  2.7860  0.6035
  683MOL0     H90112   4.647   1.723   4.277  0.4624 -0.1855 -0.0783
  683MOL0     H90113   4.738   1.601   4.184 -0.4883 -1.4542  2.5629
  683MOL0     H90114   4.548   1.503   4.292 -0.8316 -2.0165 -0.5704
  683MOL0     H90115   4.439   1.626   4.228 -1.1545  0.2164 -1.8471
  683MOL0     H90116   4.435   1.521   4.013 -3.4124  0.0861  0.8111
  683MOL0     H90117   4.412   1.382   4.125 -2.4966  0.6342 -3.3505
  683MOL0     H90118   4.431   1.261   3.893  0.1660 -2.3731 -0.3782
  683MOL0     H90119   4.426   1.226   3.665  0.9586 -0.7559 -2.0382
  683MOL0     H90120   4.733   1.347   3.216  0.6843 -0.1636 -1.4879
  683MOL0     H90121   4.685   1.337   2.997 -0.1507  1.4470  0.7600
  683MOL0     H90122   4.403   1.038   2.888 -1.1454  4.3640  2.4332
  683MOL0     H90123   4.543   1.068   2.781  0.3151  0.6893 -2.3135
  683MOL0     H90124   4.377   1.035   2.623  1.5673  1.4969 -0.2921
  683MOL0     H90125   4.359   1.215   2.646  1.4260  2.0109  3.5716
  683MOL0     H90126   4.190   1.018   2.796  0.3241 -0.8699 -1.7513
  683MOL0     H90127   4.142   1.079   2.633 -2.4218  1.7402 -0.0880
  683MOL0     H90128   4.221   1.278   2.849  0.6608 -0.9368 -0.3715
  683MOL0     H90129   4.134   1.308   2.696  2.6025  1.6426  1.3272
  683MOL0     H90130   3.991   1.131   2.922  2.9631 -0.2693  0.9227
  683MOL0     H90131   3.916   1.244   2.817  0.5260 -2.8582 -0.3733
  683MOL0     H90132   3.947   1.419   2.939 -2.1627 -1.7834 -0.9738
  683MOL0     H90133   4.106   1.371   3.007 -1.0523  1.8587  2.1042
  683MOL0     H90134   3.833   1.292   3.101 -1.0233  0.8939  0.6671
  683MOL0     H90135   3.974   1.195   3.150  2.5244 -1.7903 -4.3975
  683MOL0     H90136   4.092   1.397   3.224 -0.1000 -1.6118 -0.1994
  683MOL0     H90137   3.945   1.340   3.318  0.8949  2.5942  2.0267
  683MOL0     H90138   4.315   1.137   3.063  1.4597 -2.9002 -0.0590
  683MOL0     H90139   4.338   1.158   3.304 -2.6423  1.4530 -0.6035
  683MOL0     H90140   4.823   1.430   3.647 -0.4282 -0.9612 -1.4055
  683MOL0     H90141   4.792   1.491   3.887  0.5596 -0.1864 -1.5461
  683MOL0     H90142   3.619   2.755   3.793 -0.7889  0.8623 -0.0123
  683MOL0     H90143   3.478   2.939   3.730  0.5450 -0.0039 -1.3843
  683MOL0     H90144   3.227   3.144   3.403 -0.0037 -1.4778  0.7747
  683MOL0     H90145   3.091   3.336   3.347  0.8479 -0.4171 -0.1306
  683MOL0     H90146   2.874   3.423   3.292 -1.3350 -1.7816  2.5436
  683MOL0     H90147   3.003   3.544   3.333  0.8826 -3.4127  0.3122
  683MOL0     H90148   2.711   3.593   3.348 -0.1270 -0.1970 -2.9487
  683MOL0     H90149   2.844   3.706   3.388  1.1428  1.6973 -1.7315
  683MOL0     H90150   2.775   3.575   3.126  0.7051 -0.5077 -0.0828
  683MOL0     H90151   2.927   3.664   3.148 -0.3756 -1.0714  0.0555
  683MOL0     H90152   2.646   3.771   3.119 -0.2779 -1.7665  1.2295
  683MOL0     H90153   2.757   3.859   3.216 -0.4878  0.3867 -0.6836
  683MOL0     H90154   2.899   3.936   2.817 -1.5570  3.0472  1.8035
  683MOL0     H90155   2.857   3.288   3.704 -1.7370  1.3763 -1.8629
  683MOL0     H90156   3.005   3.111   3.769  0.6992 -0.3506  0.4496
  684MOL0     O90157   1.727   8.721   2.126  0.1130  0.5185 -0.3770
  684MOL0     C90158   1.700   8.801   2.031  0.7303  0.3893 -1.0004
  684MOL0     O90159   1.597   8.879   2.030  0.1186  0.7755  0.4927
  684MOL0     C90160   1.478   8.833   2.096  0.3690 -0.8606 -0.1151
  684MOL0     C90161   1.402   8.933   2.170  0.5226  0.4427  0.1607
  684MOL0     C90162   1.286   8.894   2.241  0.1408  0.3502  0.4820
  684MOL0     C90163   1.248   8.757   2.240 -0.3650  0.0495  0.0435
  684MOL0     O90164   1.139   8.715   2.314  0.2518 -0.6797  0.6505
  684MOL0     C90165   1.024   8.739   2.231 -0.5482 -0.2637 -0.3788
  684MOL0     C90166   0.904   8.681   2.307  0.7436 -0.3748 -0.9325
  684MOL0     C90167   0.868   8.769   2.428 -0.1860  0.6559  0.6822
  684MOL0     C90168   0.761   8.872   2.408 -0.2975  0.1817  0.4468
  684MOL0     C90169   0.733   8.950   2.539 -0.2767  0.1120  0.3336
  684MOL0     C90170   0.649   8.869   2.631 -0.2557  0.1873  0.4548
  684MOL0     C90171   0.619   8.944   2.757  0.3116 -0.3204  0.4791
  684MOL0     C90172   0.748   8.925   2.850  0.0109 -0.0432  0.0475
  684MOL0     N90173   0.717   8.950   2.994 -0.4174  0.1231 -1.1124
  684MOL0     C90174   0.687   8.850   3.084  0.4473 -0.4906  0.5448
  684MOL0     C90175   0.651   8.908   3.198  0.8728 -0.3726 -0.3444
  684MOL0     C90176   0.633   8.846   3.329 -0.3868  0.5459 -0.1742
  684MOL0     C90177   0.486   8.840   3.384 -0.3497  0.0475 -0.4064
  684MOL0     C90178   0.446   8.965   3.462 -0.2221 -0.1817  1.2309
  684MOL0     C90179   0.318   8.933   3.528  0.1322  0.3844  0.4934
  684MOL0     O90180   0.209   8.939   3.429 -0.6729 -0.1249 -0.8797
  684MOL0     C90181   0.124   8.837   3.399  0.0563 -0.5635  0.2332
  684MOL0     C90182   0.073   8.746   3.493 -0.7008 -0.5104  0.3303
  684MOL0     C90183   0.002   8.641   3.447  0.6143 -0.1242 -0.0117
  684MOL0     C90184  -0.039   8.628   3.316  0.8629  0.4782 -0.0536
  684MOL0     C90185  -0.111   8.509   3.270  0.8703  0.7282 -0.3638
  684MOL0     O90186  -0.143   8.412   3.367 -0.6657 -0.3813  0.6452
  684MOL0     C90187  -0.244   8.321   3.331 -0.1940 -0.0494 -0.4049
  684MOL0     C90188  -0.222   8.185   3.362  1.2407 -0.5025 -0.6980
  684MOL0     C90189  -0.330   8.100   3.338 -0.2578 -0.3840  0.2538
  684MOL0     C90190  -0.457   8.145   3.310 -0.1321  0.5111 -0.2206
  684MOL0     O90191  -0.555   8.052   3.297  0.5607  0.0863  0.1386
  684MOL0     C90192  -0.600   8.021   3.166  0.7005  0.4806  0.7890
  684MOL0     C90193  -0.614   7.869   3.154  0.9963  0.2995 -0.2135
  684MOL0     C90194  -0.496   7.790   3.233  0.3356  0.3937 -0.3090
  684MOL0     C90195  -0.503   7.635   3.200 -0.2471  0.0163  0.5356
  684MOL0     C90196  -0.425   7.555   3.311 -0.3201 -0.0997 -0.3308
  684MOL0     C90197  -0.270   7.566   3.324  0.5473 -0.3725  0.7453
  684MOL0     C90198  -0.203   7.543   3.190  1.0874 -0.4851 -0.5625
  684MOL0     C90199  -0.168   7.670   3.115  0.1194  0.1079 -0.2684
  684MOL0    Cl90200  -0.070   7.775   3.228 -0.3835 -0.0840  0.4628
  684MOL0     C90201  -0.475   8.292   3.295 -0.2978  0.2445  0.4625
  684MOL0     C90202  -0.366   8.379   3.304  0.9350 -0.7036 -0.6905
  684MOL0     O90203  -0.147   8.504   3.151 -0.0124 -0.2396 -0.0469
  684MOL0     C90204   0.006   8.729   3.228  0.3734 -0.8243 -0.0526
  684MOL0     C90205   0.077   8.836   3.275  0.5045 -0.6816 -0.0711
  684MOL0     N90206   0.668   9.045   3.181  0.3708 -0.4217 -0.0142
  684MOL0     N90207   0.707   9.072   3.056 -0.1568 -0.0597 -0.1767
  684MOL0     C90208   1.322   8.656   2.172 -0.0081 -0.3859  0.7822
  684MOL0     C90209   1.436   8.692   2.099  0.3337 -0.7086 -0.2398
  684MOL0     C90210   1.803   8.821   1.933  0.5462 -0.4759 -0.4571
  684MOL0     C90211   1.890   8.716   1.896 -0.5893  0.0753 -0.5338
  684MOL0     C90212   1.983   8.740   1.785  0.8798  0.2204  0.2082
  684MOL0     C90213   1.988   8.870   1.730  0.1892 -0.1189  0.8631
  684MOL0     O90214   2.093   8.881   1.633  0.4039 -0.5423  0.0450
  684MOL0     C90215   2.111   8.997   1.555 -0.5947 -0.0713 -0.7646
  684MOL0     C90216   2.216   8.979   1.440 -0.1040 -0.3828 -0.6217
  684MOL0     C90217   2.351   8.941   1.496 -0.1017  0.6898  0.3329
  684MOL0     C90218   2.466   8.917   1.394 -0.3864 -0.9252  0.2437
  684MOL0     C90219   2.484   9.021   1.291 -0.9341 -0.3604 -0.1821
  684MOL0     C90220   2.484   9.106   1.204 -0.2507  0.6326 -0.4703
  684MOL0     C90221   1.899   8.973   1.776  0.4792 -0.0688  0.8007
  684MOL0     C90222   1.801   8.942   1.869  0.2683  0.6341 -0.3845
  684MOL0     H90223   1.430   9.036   2.153  1.5458  0.3276  1.0352
  684MOL0     H90224   1.234   8.980   2.284  0.1231  0.0797  1.0179
  684MOL0     H90225   1.026   8.696   2.131  1.4397  0.4725 -0.6954
  684MOL0     H90226   0.987   8.840   2.209 -1.7439 -0.5658  0.1512
  684MOL0     H90227   0.938   8.585   2.346 -0.0331 -0.1181  0.4757
  684MOL0     H90228   0.821   8.679   2.236 -0.3286  0.6597  0.2382
  684MOL0     H90229   0.957   8.829   2.449  1.2178 -1.1863  0.3249
  684MOL0     H90230   0.839   8.700   2.508 -0.8323  2.3556  1.9762
  684MOL0     H90231   0.802   8.943   2.335  2.0183  1.1685  2.5930
  684MOL0     H90232   0.672   8.815   2.379  0.5690 -0.8168 -0.3278
  684MOL0     H90233   0.694   9.048   2.509 -0.4763  0.0982  0.5520
  684MOL0     H90234   0.828   8.970   2.589 -1.4401  2.5772  1.7110
  684MOL0     H90235   0.700   8.775   2.656 -1.2842 -0.9700 -1.5384
  684MOL0     H90236   0.554   8.845   2.582 -1.0085  1.1350  1.4002
  684MOL0     H90237   0.592   9.049   2.742  0.7111 -0.3033 -0.1643
  684MOL0     H90238   0.531   8.906   2.810 -0.3429  1.6181  0.8671
  684MOL0     H90239   0.806   9.013   2.820  2.8666 -1.7434  0.3125
  684MOL0     H90240   0.799   8.830   2.836  1.7493  0.6087  1.6638
  684MOL0     H90241   0.693   8.744   3.062  0.2280 -0.6355  1.1619
  684MOL0     H90242   0.702   8.898   3.397 -1.4960  0.4649  1.0494
  684MOL0     H90243   0.670   8.743   3.335  1.7465  1.0926 -2.3277
  684MOL0     H90244   0.492   8.759   3.458 -0.4423  1.6756  1.4640
  684MOL0     H90245   0.413   8.809   3.309 -3.0041  0.8089  1.6824
  684MOL0     H90246   0.510   9.005   3.541  0.9271 -0.7056  0.5869
  684MOL0     H90247   0.447   9.042   3.384 -1.8228 -1.2820  0.0630
  684MOL0     H90248   0.284   8.998   3.610 -1.7586 -1.2484  1.0966
  684MOL0     H90249   0.332   8.838   3.580  4.9370 -0.5211 -1.8639
  684MOL0     H90250   0.108   8.756   3.595  2.2719 -1.6423 -0.4536
  684MOL0     H90251  -0.005   8.553   3.509  1.9024 -0.7245 -0.6642
  684MOL0     H90252  -0.125   8.150   3.395  1.1705 -0.7566 -0.7600
  684MOL0     H90253  -0.318   7.995   3.361 -3.2675 -0.9331 -0.2128
  684MOL0     H90254  -0.538   8.063   3.086 -1.3618 -1.7713 -2.2188
  684MOL0     H90255  -0.699   8.064   3.147  1.1557  0.6070 -1.5669
  684MOL0     H90256  -0.619   7.828   3.053  3.4046  0.4544 -0.4328
  684MOL0     H90257  -0.701   7.841   3.216  0.6965 -2.1254 -1.5929
  684MOL0     H90258  -0.515   7.793   3.340  2.6412  4.7072  0.2038
  684MOL0     H90259  -0.397   7.826   3.205  1.3246 -2.7612 -1.2609
  684MOL0     H90260  -0.608   7.604   3.207 -0.9957  2.1278 -0.4804
  684MOL0     H90261  -0.466   7.613   3.099  1.6547  1.5945  0.8079
  684MOL0     H90262  -0.443   7.448   3.296 -0.8332  0.0160 -0.5552
  684MOL0     H90263  -0.468   7.585   3.407  3.6136  0.3392  1.5191
  684MOL0     H90264  -0.238   7.486   3.391  2.9856 -0.7414 -0.7585
  684MOL0     H90265  -0.244   7.665   3.363  3.3870 -1.1121  0.8966
  684MOL0     H90266  -0.109   7.489   3.203  0.4517 -1.4379  0.2488
  684MOL0     H90267  -0.257   7.482   3.117  2.3567 -0.7945 -1.2673
  684MOL0     H90268  -0.263   7.716   3.087 -1.3596 -2.0320  0.9716
  684MOL0     H90269  -0.115   7.633   3.026  3.3506  0.3928  1.3663
  684MOL0     H90270  -0.571   8.341   3.279 -0.7924 -0.5879  0.7399
  684MOL0     H90271  -0.369   8.480   3.263  1.3312 -0.3332  0.1781
  684MOL0     H90272  -0.012   8.741   3.122 -3.0216  0.4611  0.5337
  684MOL0     H90273   0.092   8.928   3.220  0.0000 -0.2101  0.5698
  684MOL0     H90274   1.282   8.555   2.177  1.6791 -1.0667  1.3201
  684MOL0     H90275   1.472   8.613   2.034 -1.9711 -1.3427 -0.8338
  684MOL0     H90276   1.884   8.623   1.952  1.5355  0.3149  0.2182
  684MOL0     H90277   2.048   8.673   1.729 -0.4099  0.6962 -1.9739
  684MOL0     H90278   2.145   9.087   1.607 -3.5202  0.6799  0.0102
  684MOL0     H90279   2.015   9.025   1.511 -0.6342  1.6157  0.2992
  684MOL0     H90280   2.191   8.908   1.360 -0.2594 -0.7610 -0.2381
  684MOL0     H90281   2.222   9.076   1.391  1.5939  0.0778  0.4169
  684MOL0     H90282   2.342   8.853   1.561 -1.5159  0.6569  0.1086
  684MOL0     H90283   2.390   9.019   1.563  1.9388 -1.1756  1.4365
  684MOL0     H90284   2.559   8.911   1.453 -1.4190 -1.0968  1.9170
  684MOL0     H90285   2.446   8.823   1.343 -1.0964 -0.1487 -0.9580
  684MOL0     H90286   2.492   9.185   1.132 -0.0977  0.4198 -0.6893
  684MOL0     H90287   1.892   9.070   1.729  1.1172  0.1262  1.0900
  684MOL0     H90288   1.734   9.020   1.903  0.2596  0.9116 -1.0189
  685MOL0     O90289   0.403   1.796   6.168 -0.3415 -0.2061  0.0515
  685MOL0     C90290   0.328   1.738   6.085 -1.0381  0.3421  0.1968
  685MOL0     O90291   0.326   1.750   5.956  0.9209  0.1301 -0.0199
  685MOL0     C90292   0.408   1.843   5.900 -0.3447  1.4284  0.0387
  685MOL0     C90293   0.351   1.965   5.858 -0.4401  0.2051  0.1071
  685MOL0     C90294   0.431   2.075   5.825  0.1600  1.1683 -0.4120
  685MOL0     C90295   0.570   2.057   5.820  0.1751 -0.1230  0.1961
  685MOL0     O90296   0.659   2.155   5.775  0.1444  0.3675  0.3649
  685MOL0     C90297   0.648   2.292   5.826 -0.4654  0.6038 -0.5145
  685MOL0     C90298   0.764   2.379   5.771  0.1995 -0.2760 -0.3535
  685MOL0     C90299   0.768   2.519   5.829 -0.0351  0.5687  0.0415
  685MOL0     C90300   0.864   2.604   5.742 -0.3973  0.3560  0.3773
  685MOL0     C90301   0.922   2.720   5.824  0.7189  1.2011 -0.4798
  685MOL0     C90302   1.037   2.788   5.760 -0.1639 -0.0091  0.4037
  685MOL0     C90303   1.018   2.830   5.613  0.5450  0.3937 -0.4129
  685MOL0     C90304   0.884   2.903   5.582 -0.0818 -0.1373  0.7343
  685MOL0     N90305   0.867   2.904   5.437  0.4647  0.7960 -0.0729
  685MOL0     C90306   0.792   2.812   5.371 -0.3720  0.2533  0.1208
  685MOL0     C90307   0.805   2.840   5.244  0.2049  0.5246  0.2707
  685MOL0     C90308   0.759   2.758   5.128 -0.6187 -0.1061 -0.4419
  685MOL0     C90309   0.638   2.832   5.050  1.0175  0.1286 -0.9363
  685MOL0     C90310   0.550   2.730   4.990  0.4679 -0.4672 -0.3543
  685MOL0     C90311   0.461   2.775   4.872 -1.6294 -0.8147  0.3189
  685MOL0     O90312   0.377   2.669   4.830  0.1464 -0.0270 -0.2555
  685MOL0     C90313   0.287   2.622   4.920 -0.6412  0.7499 -0.6203
  685MOL0     C90314   0.201   2.712   4.985 -0.8535  0.1777  0.7037
  685MOL0     C90315   0.111   2.675   5.092  0.0254  0.6544  0.1371
  685MOL0     C90316   0.112   2.530   5.121 -0.3331 -0.9091  0.2335
  685MOL0     C90317   0.012   2.483   5.224 -0.1310  0.9420  0.2691
  685MOL0     O90318  -0.087   2.569   5.259 -0.3308  0.4910  0.3963
  685MOL0     C90319  -0.223   2.521   5.249 -0.0954 -0.1008 -0.6422
  685MOL0     C90320  -0.321   2.616   5.281  0.6334 -0.0522  1.5761
  685MOL0     C90321  -0.453   2.583   5.293 -0.2402  0.3196  0.7044
  685MOL0     C90322  -0.496   2.454   5.266 -0.3116  0.4793  1.1379
  685MOL0     O90323  -0.626   2.427   5.286 -0.1256  0.3461  0.2967
  685MOL0     C90324  -0.669   2.293   5.245  0.5744  0.0002  0.3585
  685MOL0     C90325  -0.823   2.282   5.241  0.6055 -0.2381  0.0260
  685MOL0     C90326  -0.883   2.145   5.244 -0.0168 -0.2167  0.4617
  685MOL0     C90327  -0.872   2.072   5.374  0.6588  0.0951 -0.0305
  685MOL0     C90328  -0.878   2.166   5.489  0.3612 -0.0806 -0.3419
  685MOL0     C90329  -0.911   2.108   5.625 -0.3043  0.0012 -0.6395
  685MOL0     C90330  -0.795   2.014   5.668  0.6238  0.3661  0.4201
  685MOL0     C90331  -0.827   1.946   5.809  0.7671  0.2943  0.7011
  685MOL0    Cl90332  -0.935   1.804   5.802  0.0860 -0.2850  0.5995
  685MOL0     C90333  -0.398   2.357   5.234  0.0255  0.0241  0.2720
  685MOL0     C90334  -0.266   2.389   5.228 -0.7649  1.0843  0.1963
  685MOL0     O90335   0.041   2.379   5.285  0.3842  0.1029  0.8142
  685MOL0     C90336   0.207   2.450   5.067  1.2073  1.1633  0.1341
  685MOL0     C90337   0.289   2.487   4.968  0.4129 -0.8411 -0.3508
  685MOL0     N90338   0.908   2.931   5.232 -0.0426  0.8380 -0.4307
  685MOL0     N90339   0.938   2.974   5.345 -0.6638  0.0630 -0.9324
  685MOL0     C90340   0.618   1.934   5.826 -0.1176  1.6968  0.2415
  685MOL0     C90341   0.543   1.817   5.872 -0.0108  0.4670 -0.0086
  685MOL0     C90342   0.252   1.628   6.133 -1.0291  0.0473 -0.1570
  685MOL0     C90343   0.140   1.573   6.059  0.0299 -0.6035  0.4712
  685MOL0     C90344   0.062   1.467   6.103  0.6199 -1.3622 -0.3427
  685MOL0     C90345   0.087   1.409   6.229 -0.1005  0.4790  0.1683
  685MOL0     O90346   0.027   1.291   6.283  0.5579 -0.2390 -0.2262
  685MOL0     C90347  -0.119   1.267   6.243 -0.6522 -0.2303 -0.2341
  685MOL0     C90348  -0.207   1.365   6.321  0.3769 -1.0552 -0.0503
  685MOL0     C90349  -0.200   1.346   6.474 -1.2698  0.7190  0.2079
  685MOL0     C90350  -0.296   1.456   6.545 -0.8695  0.3003 -0.0963
  685MOL0     C90351  -0.338   1.413   6.675 -0.6056 -0.8328  0.5414
  685MOL0     C90352  -0.368   1.375   6.786 -0.2911 -0.0302 -0.2781
  685MOL0     C90353   0.196   1.462   6.305  0.6647 -0.9698  1.2726
  685MOL0     C90354   0.274   1.569   6.257 -0.1265 -0.3026 -0.5298
  685MOL0     H90355   0.243   1.974   5.852 -0.5343  0.5029  1.8248
  685MOL0     H90356   0.392   2.168   5.785  0.6328  2.1558  1.2815
  685MOL0     H90357   0.658   2.288   5.935  0.0942  1.1565 -0.5395
  685MOL0     H90358   0.546   2.327   5.807 -0.2654  1.0123 -0.8550
  685MOL0     H90359   0.750   2.387   5.663  2.0705 -2.4384 -0.8280
  685MOL0     H90360   0.858   2.331   5.797  0.9162  1.4321  0.3434
  685MOL0     H90361   0.805   2.517   5.932 -2.1634  0.1252  0.8546
  685MOL0     H90362   0.665   2.558   5.831 -1.0257 -1.6502  4.3646
  685MOL0     H90363   0.946   2.532   5.741  0.7217  1.5783  1.0247
  685MOL0     H90364   0.820   2.628   5.645  2.2499  0.1450 -0.9605
  685MOL0     H90365   0.951   2.679   5.921  0.7431  2.6671  0.1570
  685MOL0     H90366   0.850   2.798   5.851 -0.5140 -0.2793  0.6504
  685MOL0     H90367   1.127   2.727   5.772  0.9276  2.1283  5.5390
  685MOL0     H90368   1.052   2.885   5.808 -0.6760  0.1860  0.1686
  685MOL0     H90369   1.108   2.887   5.587  0.5039  0.3568 -0.6460
  685MOL0     H90370   1.027   2.738   5.554  0.5413 -0.9919  1.6698
  685MOL0     H90371   0.896   3.003   5.625  0.3271 -0.6395  1.8244
  685MOL0     H90372   0.797   2.851   5.623 -1.4284  0.2465 -1.4941
  685MOL0     H90373   0.739   2.728   5.416 -2.1422  1.0943 -0.3064
  685MOL0     H90374   0.733   2.657   5.160 -0.3865 -0.0516 -0.0801
  685MOL0     H90375   0.840   2.752   5.055  0.3874  3.4671  0.1975
  685MOL0     H90376   0.671   2.886   4.961  0.5274 -1.4103 -2.1093
  685MOL0     H90377   0.583   2.896   5.119 -0.7698  0.5969 -2.6980
  685MOL0     H90378   0.602   2.645   4.946 -3.2377 -2.7083 -0.8235
  685MOL0     H90379   0.493   2.690   5.074  2.5396  0.4667  1.5956
  685MOL0     H90380   0.527   2.791   4.786  1.2281  0.1054  2.5276
  685MOL0     H90381   0.408   2.870   4.886 -0.7015  0.3785 -3.2566
  685MOL0     H90382   0.203   2.816   4.954 -1.6008 -0.7621 -2.9809
  685MOL0     H90383   0.036   2.750   5.118  2.0547  3.6443 -1.9227
  685MOL0     H90384  -0.283   2.718   5.291  2.3087 -0.6669  1.8936
  685MOL0     H90385  -0.522   2.661   5.324 -2.1958 -2.1387  3.0383
  685MOL0     H90386  -0.645   2.222   5.324  1.8392  0.7364  0.6676
  685MOL0     H90387  -0.632   2.277   5.143  1.2331  2.3964  0.1571
  685MOL0     H90388  -0.853   2.326   5.145 -1.9795 -4.1613 -1.1940
  685MOL0     H90389  -0.861   2.350   5.317 -0.9772 -1.8020  0.6810
  685MOL0     H90390  -0.841   2.087   5.161  1.6168  2.5634 -0.7985
  685MOL0     H90391  -0.989   2.158   5.218  0.7637  3.0209 -1.7084
  685MOL0     H90392  -0.958   2.004   5.386 -0.7105  1.9519  1.2389
  685MOL0     H90393  -0.779   2.014   5.375 -0.1781 -1.2966  0.3292
  685MOL0     H90394  -0.968   2.226   5.468 -0.3791 -0.9132  0.4008
  685MOL0     H90395  -0.787   2.226   5.484  0.5631 -0.4816 -2.3345
  685MOL0     H90396  -1.010   2.060   5.623 -0.3312 -0.0690  1.1471
  685MOL0     H90397  -0.916   2.189   5.698  1.2243 -0.6870  0.2656
  685MOL0     H90398  -0.775   1.938   5.591  0.0801  2.1556 -1.5885
  685MOL0     H90399  -0.701   2.069   5.679  1.8304 -1.6498  0.8261
  685MOL0     H90400  -0.859   2.033   5.868 -0.0891  1.0788 -0.8707
  685MOL0     H90401  -0.731   1.911   5.847  3.3708  2.7489 -3.0029
  685MOL0     H90402  -0.426   2.253   5.222  3.1343 -0.7927 -0.8100
  685MOL0     H90403  -0.196   2.308   5.211  0.4083  1.1910  3.6644
  685MOL0     H90404   0.213   2.342   5.072 -0.2601  0.8725 -2.4433
  685MOL0     H90405   0.358   2.411   4.935 -0.4395 -0.7825 -2.4032
  685MOL0     H90406   0.725   1.925   5.809  0.1787  1.4131  2.0116
  685MOL0     H90407   0.597   1.726   5.894  1.4023  0.7946 -1.8536
  685MOL0     H90408   0.103   1.608   5.963  1.0691 -0.3038  0.1757
  685MOL0     H90409  -0.028   1.432   6.053 -1.3318 -0.2862  2.1828
  685MOL0     H90410  -0.145   1.161   6.251  0.2671 -0.6957 -2.6680
  685MOL0     H90411  -0.141   1.290   6.138  0.2138 -1.1843 -0.6426
  685MOL0     H90412  -0.181   1.468   6.296  5.1079 -2.8962 -4.4649
  685MOL0     H90413  -0.307   1.341   6.285  0.5143  1.7642 -2.6577
  685MOL0     H90414  -0.097   1.346   6.512 -1.1190  0.8144 -0.2000
  685MOL0     H90415  -0.243   1.246   6.490 -0.0354 -0.3331 -2.4239
  685MOL0     H90416  -0.239   1.548   6.560  0.7858 -0.6274 -0.4475
  685MOL0     H90417  -0.383   1.480   6.484 -2.1162  1.1349  1.8818
  685MOL0     H90418  -0.409   1.352   6.882 -1.0396  0.9095 -0.3557
  685MOL0     H90419   0.228   1.406   6.393 -4.0812  0.3388  4.2075
  685MOL0     H90420   0.351   1.603   6.326 -1.3510 -0.1232  0.7986
  686MOL0     O90421   7.705   8.454   3.268  0.8896 -0.4946  0.0213
  686MOL0     C90422   7.649   8.431   3.378 -0.1022  0.2156 -0.0821
  686MOL0     O90423   7.687   8.476   3.499 -0.5163  0.2447 -0.2686
  686MOL0     C90424   7.810   8.534   3.508 -0.2295  0.5859  0.8194
  686MOL0     C90425   7.823   8.674   3.527 -0.1214  0.0005  1.3686
  686MOL0     C90426   7.943   8.735   3.533 -0.8362 -0.4828  0.1241
  686MOL0     C90427   8.062   8.659   3.551 -0.1281 -0.1770  0.3896
  686MOL0     O90428   8.186   8.707   3.570  0.0282 -0.4357  0.3765
  686MOL0     C90429   8.211   8.779   3.695 -0.1815  1.9942  0.7271
  686MOL0     C90430   8.358   8.811   3.726 -0.1997 -0.3612  0.5575
  686MOL0     C90431   8.373   8.869   3.868 -0.9928 -0.1137  0.0879
  686MOL0     C90432   8.455   8.990   3.884  0.4273  0.0469  0.0193
  686MOL0     C90433   8.508   9.000   4.029  0.4436  0.5853  0.8447
  686MOL0     C90434   8.542   9.147   4.059  0.4697  1.7092  0.3307
  686MOL0     C90435   8.656   9.218   3.983  0.4004 -0.1795 -0.3381
  686MOL0     C90436   8.794   9.148   3.986  1.0320 -0.4157 -0.2984
  686MOL0     N90437   8.913   9.213   3.945 -0.0243  0.4557  0.1740
  686MOL0     C90438   8.920   9.302   3.838  0.5324 -0.2398  0.8114
  686MOL0     C90439   9.044   9.349   3.834 -0.1930  0.5653  0.3929
  686MOL0     C90440   9.108   9.465   3.759 -0.6888  0.5492 -1.0576
  686MOL0     C90441   9.247   9.518   3.816  0.8567  0.2834 -0.6342
  686MOL0     C90442   9.365   9.425   3.772 -1.1881 -0.5650 -0.8972
  686MOL0     C90443   9.492   9.465   3.858  0.8858 -0.2078 -0.6170
  686MOL0     O90444   9.570   9.545   3.775  0.6660  0.2765 -0.1367
  686MOL0     C90445   9.672   9.605   3.835  0.4948 -0.3798  0.2923
  686MOL0     C90446   9.798   9.547   3.822 -0.1135  0.5023  1.1564
  686MOL0     C90447   9.906   9.616   3.870 -0.6024 -0.0436  1.3863
  686MOL0     C90448   9.884   9.743   3.936 -0.7469 -0.4178  0.5237
  686MOL0     C90449  10.001   9.826   3.970  0.6102 -1.1701  0.3001
  686MOL0     O90450  10.121   9.763   4.006 -0.6431 -0.3473 -0.2818
  686MOL0     C90451  10.229   9.852   4.015 -0.3078  0.7758  0.5764
  686MOL0     C90452  10.257   9.909   4.142 -0.3056  0.1590 -0.5347
  686MOL0     C90453  10.358  10.004   4.163 -0.3001  0.3009  0.2950
  686MOL0     C90454  10.449  10.019   4.060  0.3430 -0.3661  0.7543
  686MOL0     O90455  10.544  10.117   4.086 -0.3407  0.3991  0.8168
  686MOL0     C90456  10.676  10.087   4.031 -1.2430  0.1860  0.6319
  686MOL0     C90457  10.707  10.152   3.905 -1.6753  0.1249 -0.0729
  686MOL0     C90458  10.670  10.306   3.901 -0.7939  0.0801  0.6044
  686MOL0     C90459  10.756  10.385   3.799 -0.4653  0.3712 -0.2240
  686MOL0     C90460  10.886  10.441   3.862  0.5550  0.2152 -0.2272
  686MOL0     C90461  10.953  10.543   3.763 -0.8499  0.1329 -0.3622
  686MOL0     C90462  11.111  10.563   3.792  0.1145 -1.1813  0.7977
  686MOL0     C90463  11.173  10.690   3.721 -0.0322  0.0256 -0.2897
  686MOL0    Cl90464  11.151  10.681   3.544  0.0627  0.0820 -0.3578
  686MOL0     C90465  10.429   9.962   3.933 -0.1255 -0.4550 -0.8340
  686MOL0     C90466  10.311   9.886   3.912 -0.5266  0.1572  0.5669
  686MOL0     O90467   9.973   9.945   3.972 -0.5813  0.1363 -0.2847
  686MOL0     C90468   9.758   9.803   3.939  0.6625  1.1629 -0.2278
  686MOL0     C90469   9.648   9.737   3.891 -0.5318  0.4049  0.0380
  686MOL0     N90470   9.117   9.253   3.917  0.7990 -0.2401 -0.3658
  686MOL0     N90471   9.037   9.180   3.978  0.6058  0.5555 -0.4986
  686MOL0     C90472   8.051   8.523   3.534  1.1412  0.2103 -0.3481
  686MOL0     C90473   7.932   8.455   3.518 -0.3201 -0.8395 -0.6751
  686MOL0     C90474   7.515   8.364   3.368  0.7130  0.1637 -0.4419
  686MOL0     C90475   7.474   8.294   3.253  0.0465  0.1831  0.2585
  686MOL0     C90476   7.354   8.222   3.251 -0.8712 -0.0454  1.1324
  686MOL0     C90477   7.269   8.207   3.364  0.6505  0.1811  0.9854
  686MOL0     O90478   7.165   8.117   3.353 -0.6588  0.7555  0.2123
  686MOL0     C90479   7.109   8.060   3.471  0.3432 -0.3773 -0.3984
  686MOL0     C90480   7.208   7.984   3.554 -0.4102  0.0480  0.3323
  686MOL0     C90481   7.263   7.852   3.488 -0.0053 -0.5868 -0.5273
  686MOL0     C90482   7.167   7.762   3.416  0.1362  0.0324 -0.3274
  686MOL0     C90483   7.240   7.638   3.383 -0.3894  0.1815 -0.6640
  686MOL0     C90484   7.304   7.534   3.366  0.2544  0.8354 -0.3383
  686MOL0     C90485   7.304   8.288   3.477  1.1752  0.8548 -1.3682
  686MOL0     C90486   7.427   8.363   3.476 -0.4117  0.3273  0.5046
  686MOL0     H90487   7.731   8.729   3.509  1.2584  1.7046 -1.0187
  686MOL0     H90488   7.966   8.841   3.540  1.2328 -0.9485  1.1824
  686MOL0     H90489   8.170   8.723   3.779 -1.8298  3.8497  1.2372
  686MOL0     H90490   8.164   8.877   3.688 -0.7427  1.7557  1.1352
  686MOL0     H90491   8.392   8.871   3.641  2.1238 -2.8149 -0.3976
  686MOL0     H90492   8.416   8.718   3.735 -0.4736 -0.3676  3.0452
  686MOL0     H90493   8.417   8.790   3.930  0.3434  1.0282  0.6606
  686MOL0     H90494   8.275   8.874   3.917 -0.4436  0.3878  1.1828
  686MOL0     H90495   8.540   8.994   3.815  0.9367 -2.5966  0.3879
  686MOL0     H90496   8.385   9.065   3.846  0.8547 -0.3236 -1.5753
  686MOL0     H90497   8.591   8.930   4.043  1.3226  0.6391 -3.0455
  686MOL0     H90498   8.413   8.984   4.082  0.1698 -2.5085 -0.3937
  686MOL0     H90499   8.571   9.138   4.164 -0.9901  3.4415  0.9597
  686MOL0     H90500   8.455   9.211   4.077 -2.6060 -1.8122 -0.6868
  686MOL0     H90501   8.618   9.218   3.881 -0.1423  2.6455 -0.2254
  686MOL0     H90502   8.668   9.326   3.998 -0.7483  0.2033 -1.9504
  686MOL0     H90503   8.781   9.057   3.928  4.5462 -2.2080  1.4113
  686MOL0     H90504   8.818   9.117   4.088  3.4620  0.1372 -0.6396
  686MOL0     H90505   8.832   9.333   3.782 -0.8034  0.4130  3.1297
  686MOL0     H90506   9.037   9.547   3.771 -0.0779  0.6738  4.7628
  686MOL0     H90507   9.122   9.444   3.653 -0.7072  1.9007 -1.3390
  686MOL0     H90508   9.235   9.527   3.924 -1.0389 -1.2020 -0.6768
  686MOL0     H90509   9.258   9.620   3.778 -0.1762  1.1451  1.2312
  686MOL0     H90510   9.344   9.324   3.810  2.2870 -1.6574 -1.4833
  686MOL0     H90511   9.397   9.425   3.667 -1.1867  2.6315 -0.9925
  686MOL0     H90512   9.548   9.372   3.872  1.3714  0.0921 -0.5383
  686MOL0     H90513   9.471   9.520   3.950 -0.7083 -0.2558 -0.9217
  686MOL0     H90514   9.815   9.458   3.763  0.0976  1.2613  0.0491
  686MOL0     H90515  10.005   9.578   3.845 -1.7874 -0.8575 -2.9869
  686MOL0     H90516  10.199   9.871   4.225 -2.2279 -1.2886 -2.4353
  686MOL0     H90517  10.366  10.047   4.262  0.1087 -2.9757  1.8100
  686MOL0     H90518  10.684   9.978   4.028  0.1426  0.2661  0.7859
  686MOL0     H90519  10.748  10.113   4.109 -1.4975 -3.5784  2.3703
  686MOL0     H90520  10.663  10.092   3.824 -4.1335  1.0586  0.4842
  686MOL0     H90521  10.811  10.126   3.883 -2.5315 -1.5028 -2.6379
  686MOL0     H90522  10.679  10.352   4.000 -2.0221  3.5498 -0.7542
  686MOL0     H90523  10.568  10.309   3.862  0.0421  1.9609 -1.6659
  686MOL0     H90524  10.777  10.331   3.706 -2.0743 -0.6679 -0.0320
  686MOL0     H90525  10.702  10.478   3.776  1.2409  0.9655 -2.0450
  686MOL0     H90526  10.952  10.360   3.891 -1.2530 -0.8569  1.0792
  686MOL0     H90527  10.866  10.493   3.956 -0.2030 -2.4407  1.1508
  686MOL0     H90528  10.903  10.640   3.764  1.3008  1.3075 -1.0616
  686MOL0     H90529  10.946  10.522   3.656 -0.0093  1.0419 -0.6108
  686MOL0     H90530  11.130  10.558   3.899  1.7080 -0.5757  0.5748
  686MOL0     H90531  11.158  10.468   3.766  1.4518 -0.6841  1.3085
  686MOL0     H90532  11.282  10.693   3.735 -0.0934 -1.3320  0.7295
  686MOL0     H90533  11.134  10.780   3.767 -0.0764 -0.7361  1.2197
  686MOL0     H90534  10.489   9.984   3.845  0.8094 -0.4919 -0.2195
  686MOL0     H90535  10.291   9.852   3.811 -3.3138  2.1961  0.3060
  686MOL0     H90536   9.753   9.899   3.990 -4.4383  0.4492  1.2232
  686MOL0     H90537   9.548   9.779   3.903 -0.1462  2.3885 -2.6430
  686MOL0     H90538   8.137   8.461   3.557 -1.3493 -2.9379  1.4045
  686MOL0     H90539   7.936   8.348   3.507  1.3851 -0.9170  0.3003
  686MOL0     H90540   7.532   8.304   3.162 -1.8318  0.0460 -0.9858
  686MOL0     H90541   7.337   8.170   3.157  3.0720 -1.5971  1.1137
  686MOL0     H90542   7.028   7.991   3.442  0.8891 -1.1537 -0.0990
  686MOL0     H90543   7.057   8.144   3.518 -1.0946 -2.9373  3.0345
  686MOL0     H90544   7.296   8.044   3.579  1.4379 -1.7300 -1.5135
  686MOL0     H90545   7.154   7.972   3.649 -1.9646  3.2518 -0.0306
  686MOL0     H90546   7.313   7.804   3.573  1.9522  1.5098 -0.4000
  686MOL0     H90547   7.334   7.876   3.409 -1.3337 -2.0423 -2.2454
  686MOL0     H90548   7.080   7.745   3.481  0.7287  0.8204  0.7075
  686MOL0     H90549   7.149   7.816   3.323  2.7933 -1.7810 -2.0175
  686MOL0     H90550   7.368   7.449   3.356 -0.4779  0.0524  1.2030
  686MOL0     H90551   7.246   8.281   3.568  0.8860  1.8214 -1.4738
  686MOL0     H90552   7.448   8.413   3.570 -0.8057 -0.8552  1.2406
  687MOL0     O90553   8.262   2.319   3.941 -0.0091 -0.3438 -0.1745
  687MOL0     C90554   8.195   2.300   4.037  0.0809 -0.6111 -0.5849
  687MOL0     O90555   8.060   2.279   4.043 -0.4794 -0.7311  0.3832
  687MOL0     C90556   7.984   2.321   3.937 -0.4715 -0.3995 -0.0511
  687MOL0     C90557   7.890   2.225   3.895 -0.2543 -0.1362  0.2842
  687MOL0     C90558   7.807   2.247   3.789  0.5175 -0.1934  0.0041
  687MOL0     C90559   7.806   2.366   3.732  0.4146 -1.8193 -0.7409
  687MOL0     O90560   7.719   2.375   3.620 -0.7000 -0.3350 -0.8659
  687MOL0     C90561   7.714   2.500   3.543  0.0532 -0.3615 -0.4014
  687MOL0     C90562   7.659   2.455   3.413 -0.5958 -0.5687  0.6520
  687MOL0     C90563   7.596   2.565   3.329  0.1634  0.3486  0.4375
  687MOL0     C90564   7.696   2.678   3.309  0.3497 -0.2164 -0.2638
  687MOL0     C90565   7.628   2.779   3.210  0.1231 -0.6005  0.2241
  687MOL0     C90566   7.733   2.884   3.160 -0.0368  0.4548  0.6962
  687MOL0     C90567   7.663   3.014   3.128  0.1350  1.4006  0.0859
  687MOL0     C90568   7.572   3.014   3.009 -0.7368  1.0637  0.1822
  687MOL0     N90569   7.511   3.138   3.016  0.1267 -0.4003  0.9924
  687MOL0     C90570   7.523   3.244   2.920 -1.1850 -0.0690  0.8373
  687MOL0     C90571   7.409   3.311   2.913  0.6384  0.3273  0.1380
  687MOL0     C90572   7.361   3.432   2.834 -0.0667  0.3481  0.2820
  687MOL0     C90573   7.264   3.382   2.727 -0.0837  0.3843  0.3345
  687MOL0     C90574   7.219   3.507   2.659 -0.1533 -1.2569  1.1140
  687MOL0     C90575   7.115   3.505   2.546  0.2608  0.3397 -0.4555
  687MOL0     O90576   7.131   3.629   2.480 -0.0024  0.7389  0.4214
  687MOL0     C90577   7.105   3.658   2.354 -0.0974  0.1455 -0.7460
  687MOL0     C90578   7.007   3.585   2.278 -0.7804 -0.0781 -0.9688
  687MOL0     C90579   6.963   3.639   2.154 -0.8085 -0.8666 -1.0284
  687MOL0     C90580   7.014   3.767   2.102  0.6614  0.3384 -0.6135
  687MOL0     C90581   6.958   3.822   1.974 -0.8257  0.0570  0.6041
  687MOL0     O90582   6.979   3.959   1.943  0.0215  0.6960 -0.4791
  687MOL0     C90583   6.900   4.012   1.842  1.0981  0.3723  0.0667
  687MOL0     C90584   6.797   3.963   1.758  0.9053  0.0040  0.1342
  687MOL0     C90585   6.710   4.051   1.682  0.0341 -0.0603 -1.3545
  687MOL0     C90586   6.742   4.190   1.681  0.1062  0.5229 -0.4140
  687MOL0     O90587   6.669   4.275   1.599 -0.6890 -0.0413  0.5659
  687MOL0     C90588   6.661   4.416   1.627  0.7620 -0.0202  0.0775
  687MOL0     C90589   6.570   4.496   1.532 -0.3720 -0.0860 -0.1888
  687MOL0     C90590   6.550   4.644   1.572  0.0289 -0.4068  0.0909
  687MOL0     C90591   6.690   4.722   1.556 -0.4201  0.1015 -0.4421
  687MOL0     C90592   6.670   4.874   1.545  0.7410 -0.1116  0.3447
  687MOL0     C90593   6.798   4.949   1.526 -0.6620  0.5528 -0.3810
  687MOL0     C90594   6.788   5.054   1.418  0.5187  0.6744  0.2800
  687MOL0     C90595   6.918   5.137   1.416 -0.6522 -0.9208 -0.3988
  687MOL0    Cl90596   6.924   5.223   1.558 -0.4816  0.2214  0.6838
  687MOL0     C90597   6.843   4.242   1.754 -0.9279 -0.5364 -0.7542
  687MOL0     C90598   6.918   4.148   1.832 -0.4338 -0.2853 -1.2725
  687MOL0     O90599   6.887   3.745   1.910  0.0123  0.3739 -0.6669
  687MOL0     C90600   7.105   3.835   2.182  0.3083  0.0572  0.1206
  687MOL0     C90601   7.148   3.782   2.309 -0.0579 -0.3005 -0.1091
  687MOL0     N90602   7.321   3.258   3.007  0.0977 -0.1081  0.6201
  687MOL0     N90603   7.375   3.154   3.066 -0.2383 -0.2255  0.8546
  687MOL0     C90604   7.879   2.481   3.783  0.4012 -0.0591  0.3019
  687MOL0     C90605   7.977   2.454   3.872  0.3000  0.6376  0.8806
  687MOL0     C90606   8.267   2.292   4.161 -0.4444  0.3459 -0.1589
  687MOL0     C90607   8.197   2.291   4.280 -0.5612 -0.3708  0.2147
  687MOL0     C90608   8.266   2.279   4.402 -0.7659 -0.3653 -0.4447
  687MOL0     C90609   8.405   2.261   4.401  0.0806  0.4576 -0.5699
  687MOL0     O90610   8.488   2.245   4.505  0.3970  0.0269 -0.2633
  687MOL0     C90611   8.424   2.231   4.636 -0.0806 -0.3164 -0.2798
  687MOL0     C90612   8.527   2.220   4.752  0.6272 -0.7326 -0.4001
  687MOL0     C90613   8.592   2.355   4.786 -0.2726 -0.3437 -0.8809
  687MOL0     C90614   8.682   2.346   4.908  0.2270  0.0909  0.4418
  687MOL0     C90615   8.803   2.267   4.883  0.1091 -0.1041 -0.5013
  687MOL0     C90616   8.900   2.192   4.870  0.5087 -0.4475  0.7730
  687MOL0     C90617   8.469   2.269   4.278  0.8792  0.2598 -1.3235
  687MOL0     C90618   8.403   2.294   4.166  0.3658  1.6739 -0.4497
  687MOL0     H90619   7.893   2.131   3.948  1.1305  0.0989  0.6567
  687MOL0     H90620   7.746   2.165   3.752  2.5096 -1.5958 -0.3539
  687MOL0     H90621   7.813   2.545   3.531 -1.1121  2.1437 -1.1114
  687MOL0     H90622   7.647   2.576   3.584 -2.0277 -2.5593  0.5182
  687MOL0     H90623   7.587   2.373   3.411 -1.0980 -0.1446 -1.6234
  687MOL0     H90624   7.749   2.423   3.361 -0.7001  3.6048 -2.6270
  687MOL0     H90625   7.511   2.614   3.379  2.1913  1.8082  2.7312
  687MOL0     H90626   7.555   2.515   3.241  0.4924  0.0107  0.4719
  687MOL0     H90627   7.732   2.717   3.404  0.1035 -0.1627 -0.1918
  687MOL0     H90628   7.792   2.645   3.266  0.3900 -2.1530  1.1646
  687MOL0     H90629   7.543   2.831   3.256 -2.3349 -0.1348 -4.3317
  687MOL0     H90630   7.590   2.716   3.130 -2.6781  1.2479 -0.0680
  687MOL0     H90631   7.769   2.839   3.067 -0.4417 -2.2724  1.7414
  687MOL0     H90632   7.818   2.882   3.228  1.3494  1.3010 -0.9431
  687MOL0     H90633   7.618   3.044   3.223 -0.0063  0.9273  0.1757
  687MOL0     H90634   7.744   3.087   3.123  1.0348  0.5885  1.6755
  687MOL0     H90635   7.491   2.941   3.014 -2.8150  3.0141 -2.2838
  687MOL0     H90636   7.637   2.998   2.923  0.4887 -0.1637  1.2876
  687MOL0     H90637   7.607   3.269   2.855 -0.2591 -2.1861  1.1390
  687MOL0     H90638   7.448   3.470   2.779 -0.3401 -2.5961 -2.5016
  687MOL0     H90639   7.322   3.498   2.912  0.2195 -0.3790  1.0509
  687MOL0     H90640   7.183   3.316   2.759 -1.5199  1.1612 -1.5025
  687MOL0     H90641   7.316   3.330   2.646  0.1905  0.1562  0.6510
  687MOL0     H90642   7.195   3.579   2.738  1.0409  0.2285  0.1807
  687MOL0     H90643   7.310   3.547   2.615 -1.2036  1.1067  0.9455
  687MOL0     H90644   7.023   3.506   2.604  0.4705 -4.1821  0.3152
  687MOL0     H90645   7.104   3.415   2.484 -3.4079 -0.0793  0.5585
  687MOL0     H90646   6.971   3.493   2.322  2.2893 -0.1243  1.7979
  687MOL0     H90647   6.891   3.583   2.095 -1.8164  0.3828 -1.0066
  687MOL0     H90648   6.764   3.860   1.755 -2.3823  0.9080  0.3373
  687MOL0     H90649   6.617   4.019   1.636 -3.1001  2.2773  2.6787
  687MOL0     H90650   6.761   4.461   1.618 -0.3267  2.7258  0.5368
  687MOL0     H90651   6.630   4.430   1.731 -0.6074  0.9886 -0.4345
  687MOL0     H90652   6.467   4.460   1.528 -0.2232 -0.4722 -0.6240
  687MOL0     H90653   6.612   4.507   1.432 -1.7633  2.0955 -0.5900
  687MOL0     H90654   6.510   4.639   1.674 -3.1438  1.9673 -0.8763
  687MOL0     H90655   6.477   4.694   1.508  2.0759  0.3704 -1.7607
  687MOL0     H90656   6.759   4.695   1.636 -1.9086  0.7153  1.0998
  687MOL0     H90657   6.731   4.693   1.458  2.0122  0.5719  0.3561
  687MOL0     H90658   6.623   4.917   1.635  0.9509 -1.9025  1.3438
  687MOL0     H90659   6.590   4.900   1.474 -0.3345 -1.0174  1.1883
  687MOL0     H90660   6.869   4.868   1.506 -0.5467  0.1159  1.5193
  687MOL0     H90661   6.830   4.998   1.619 -1.3469 -1.2638  0.8727
  687MOL0     H90662   6.776   5.009   1.319 -2.0518  1.3467  0.2164
  687MOL0     H90663   6.704   5.122   1.432  0.1308  0.0104  1.3354
  687MOL0     H90664   6.930   5.205   1.331  0.8187  0.2445  0.6861
  687MOL0     H90665   7.008   5.076   1.425 -0.9054 -1.5988 -2.1199
  687MOL0     H90666   6.885   4.342   1.755  2.1800 -1.6897 -2.1551
  687MOL0     H90667   6.988   4.194   1.901 -0.9818 -1.5937  0.2241
  687MOL0     H90668   7.139   3.936   2.160 -2.5147  0.3828 -3.7530
  687MOL0     H90669   7.196   3.843   2.385 -1.5462 -0.5120  1.0401
  687MOL0     H90670   7.850   2.578   3.744 -2.9387 -0.7124  0.8861
  687MOL0     H90671   8.035   2.534   3.918  1.0230 -1.5961  4.2643
  687MOL0     H90672   8.089   2.296   4.282 -0.5505  2.8439 -0.5724
  687MOL0     H90673   8.213   2.290   4.495  3.4007  1.7540  1.9971
  687MOL0     H90674   8.360   2.142   4.631 -0.4724  0.0276 -2.6596
  687MOL0     H90675   8.360   2.320   4.645 -0.6470 -0.5724 -1.5743
  687MOL0     H90676   8.471   2.183   4.839  0.6453  0.2283  0.0342
  687MOL0     H90677   8.605   2.151   4.719  1.2198 -0.2334 -0.0644
  687MOL0     H90678   8.524   2.438   4.804  1.0775  0.7683 -0.7841
  687MOL0     H90679   8.659   2.379   4.703  0.3157 -2.4789 -1.0971
  687MOL0     H90680   8.712   2.445   4.943 -1.0314  0.5138  0.3916
  687MOL0     H90681   8.624   2.298   4.989 -0.8290 -1.1903 -1.0130
  687MOL0     H90682   8.985   2.131   4.846  0.6087  0.3591 -1.0332
  687MOL0     H90683   8.578   2.269   4.279  0.9595 -2.5328 -0.4207
  687MOL0     H90684   8.466   2.299   4.078 -2.0212  2.1394 -2.2411
  688MOL0     O90685   8.688   9.558   6.806 -0.4708  0.2467  1.0009
  688MOL0     C90686   8.634   9.622   6.899 -0.6929 -0.6187 -0.6725
  688MOL0     O90687   8.529   9.703   6.892 -0.6320  0.0197 -0.3723
  688MOL0     C90688   8.472   9.728   6.772 -0.5643  0.6418 -0.5887
  688MOL0     C90689   8.546   9.788   6.673  0.4110  0.1040 -0.2864
  688MOL0     C90690   8.488   9.840   6.553  0.2556  1.3120 -0.3507
  688MOL0     C90691   8.345   9.854   6.536 -0.2652 -0.2259  0.5642
  688MOL0     O90692   8.291   9.906   6.419 -0.2674  0.5778 -0.8282
  688MOL0     C90693   8.148   9.890   6.401  0.1452 -0.5899 -0.1953
  688MOL0     C90694   8.107   9.938   6.264  0.5110 -0.0735 -0.1338
  688MOL0     C90695   7.953   9.997   6.254 -0.7945 -0.1343  0.2318
  688MOL0     C90696   7.922  10.051   6.120  0.7344 -0.4662  1.3242
  688MOL0     C90697   7.791  10.120   6.129  0.1118  0.9131  0.6217
  688MOL0     C90698   7.730  10.165   5.992  0.2819 -0.8742 -0.1214
  688MOL0     C90699   7.610  10.258   6.003 -1.2788 -0.7478  0.4795
  688MOL0     C90700   7.650  10.405   5.994  0.7174 -0.5436 -0.0460
  688MOL0     N90701   7.677  10.446   5.856  0.8301 -0.4414  0.2762
  688MOL0     C90702   7.796  10.436   5.805  0.2704  0.6027  1.1204
  688MOL0     C90703   7.782  10.436   5.675  0.3832  0.6442  0.1970
  688MOL0     C90704   7.890  10.425   5.571  0.0982  0.1661  0.7820
  688MOL0     C90705   7.864  10.299   5.473  0.2312  0.2853 -0.4016
  688MOL0     C90706   7.995  10.274   5.391  1.0235 -0.6323 -0.8546
  688MOL0     C90707   8.049  10.393   5.320 -0.1533 -0.6853  1.1733
  688MOL0     O90708   7.952  10.443   5.225 -0.4861  0.5609 -0.5942
  688MOL0     C90709   7.962  10.394   5.100 -0.0077 -0.2199 -0.7671
  688MOL0     C90710   8.070  10.404   5.004  0.9227 -0.8215 -0.0415
  688MOL0     C90711   8.065  10.349   4.879  0.8097 -0.6207 -0.9712
  688MOL0     C90712   7.952  10.290   4.836 -0.1095  0.1495  0.6098
  688MOL0     C90713   7.943  10.234   4.694 -0.5782 -0.1112 -0.3527
  688MOL0     O90714   7.816  10.196   4.662 -0.3623  0.8039 -0.2873
  688MOL0     C90715   7.782  10.156   4.536 -0.4954  0.7499 -0.4699
  688MOL0     C90716   7.661  10.102   4.524 -0.2005 -0.1470  0.1718
  688MOL0     C90717   7.599  10.072   4.402 -0.0262  0.1284  0.4807
  688MOL0     C90718   7.666  10.088   4.283 -0.0557  0.3712  0.7501
  688MOL0     O90719   7.597  10.075   4.170  0.4713 -0.3591  0.4928
  688MOL0     C90720   7.658  10.002   4.060  0.4553 -1.1192  0.4462
  688MOL0     C90721   7.548   9.931   3.980 -0.8045  0.5399  0.5688
  688MOL0     C90722   7.542   9.784   4.032 -0.2475 -0.0073 -0.5515
  688MOL0     C90723   7.448   9.704   3.948  0.5359 -0.7259 -0.3090
  688MOL0     C90724   7.459   9.556   3.987 -0.4467 -0.3374 -0.5628
  688MOL0     C90725   7.356   9.467   3.918  0.4803 -0.0697 -0.3496
  688MOL0     C90726   7.357   9.320   3.968  0.1125 -0.1149  0.4436
  688MOL0     C90727   7.417   9.231   3.854 -0.7624 -1.2316 -0.0487
  688MOL0    Cl90728   7.416   9.059   3.896 -0.3903  0.0540 -0.1470
  688MOL0     C90729   7.799  10.118   4.288  0.0394  0.1795  0.1055
  688MOL0     C90730   7.856  10.159   4.412 -1.0133  0.4135  0.9843
  688MOL0     O90731   8.045  10.240   4.621 -0.1448 -0.3661  0.3988
  688MOL0     C90732   7.848  10.278   4.922 -0.6035 -0.4473 -0.0704
  688MOL0     C90733   7.848  10.327   5.049  0.0938  0.0851 -0.3844
  688MOL0     N90734   7.648  10.453   5.642  0.2911  0.7508  0.3462
  688MOL0     N90735   7.587  10.453   5.751 -0.0978  0.5997 -0.2710
  688MOL0     C90736   8.268   9.800   6.646  0.3630  1.3558  0.2488
  688MOL0     C90737   8.328   9.740   6.761  0.1439  0.1179  0.0631
  688MOL0     C90738   8.679   9.596   7.033 -1.2857 -0.1780  0.2021
  688MOL0     C90739   8.800   9.516   7.062  0.9748  0.4905 -0.4553
  688MOL0     C90740   8.834   9.484   7.186 -0.0669  0.7847  0.1535
  688MOL0     C90741   8.754   9.517   7.296 -0.1704  0.3569 -0.1993
  688MOL0     O90742   8.793   9.498   7.422  0.7840 -0.0093 -0.4325
  688MOL0     C90743   8.715   9.435   7.523  0.1936  0.0193  0.8927
  688MOL0     C90744   8.779   9.456   7.657  0.6273  0.5592 -0.5557
  688MOL0     C90745   8.923   9.422   7.657  0.2924 -0.6149  0.0115
  688MOL0     C90746   9.001   9.443   7.794  0.2053 -0.3806 -0.0543
  688MOL0     C90747   8.962   9.350   7.897 -1.1770  0.3790 -1.0384
  688MOL0     C90748   8.928   9.256   7.966  0.2773 -0.1321  1.3124
  688MOL0     C90749   8.647   9.594   7.273 -0.1547 -0.0355  0.2479
  688MOL0     C90750   8.609   9.642   7.148  0.1832 -0.3933  0.1647
  688MOL0     H90751   8.654   9.794   6.678  0.3597 -0.1418  2.8351
  688MOL0     H90752   8.558   9.872   6.476 -0.9587  4.4411 -0.2702
  688MOL0     H90753   8.092   9.939   6.482 -1.2755 -2.0110 -0.2454
  688MOL0     H90754   8.118   9.784   6.403 -0.9840 -0.4082 -3.3093
  688MOL0     H90755   8.126   9.856   6.194 -1.4807 -2.5347  2.0040
  688MOL0     H90756   8.168  10.023   6.231 -1.7350  0.1386 -4.3927
  688MOL0     H90757   7.956  10.080   6.325  2.2833  0.0000  0.0649
  688MOL0     H90758   7.879   9.918   6.275  0.2868 -0.4938  3.0428
  688MOL0     H90759   7.989  10.127   6.080 -1.5241  1.8738  1.6902
  688MOL0     H90760   7.913   9.965   6.053 -0.3016  1.3886 -1.1185
  688MOL0     H90761   7.820  10.205   6.192  1.7695  0.7378  0.1372
  688MOL0     H90762   7.705  10.073   6.177  0.5892 -0.5151  0.1146
  688MOL0     H90763   7.688  10.074   5.949 -4.5792  0.5142  1.0654
  688MOL0     H90764   7.813  10.207   5.934  1.0592  1.3538  2.3681
  688MOL0     H90765   7.555  10.241   5.910  1.0438 -1.9834 -0.7555
  688MOL0     H90766   7.556  10.233   6.095  1.2559 -0.3350  2.1757
  688MOL0     H90767   7.740  10.418   6.055  0.4920 -1.0173  0.4001
  688MOL0     H90768   7.568  10.468   6.031  1.3411 -0.2557  0.8686
  688MOL0     H90769   7.886  10.415   5.862  2.2982 -1.3036 -2.4027
  688MOL0     H90770   7.986  10.411   5.622  1.5991  2.7089 -1.0733
  688MOL0     H90771   7.890  10.510   5.503 -2.5562 -1.9628 -2.1781
  688MOL0     H90772   7.780  10.329   5.409  1.2986  0.6135 -1.6959
  688MOL0     H90773   7.848  10.208   5.531  1.5678  1.0401  1.2526
  688MOL0     H90774   8.072  10.247   5.464  0.1128  0.7483  0.7048
  688MOL0     H90775   7.998  10.186   5.326 -0.2261 -1.3908  0.0625
  688MOL0     H90776   8.143  10.372   5.267 -0.7114 -0.5000  0.0606
  688MOL0     H90777   8.074  10.470   5.394  2.7327  1.8935 -2.0959
  688MOL0     H90778   8.160  10.448   5.048 -0.7412 -0.7523  3.7356
  688MOL0     H90779   8.152  10.355   4.814  1.3022  2.3490 -0.1695
  688MOL0     H90780   7.598  10.060   4.602 -2.5264  1.0131 -0.9857
  688MOL0     H90781   7.496  10.037   4.391  0.0258  0.6661 -2.8438
  688MOL0     H90782   7.738   9.935   4.093  0.1154 -1.1294  1.2448
  688MOL0     H90783   7.716  10.069   3.994  1.7806 -1.4955  1.1925
  688MOL0     H90784   7.569   9.925   3.873  1.1098 -1.6169  0.9998
  688MOL0     H90785   7.454   9.986   3.994 -2.2785 -2.2885  2.9077
  688MOL0     H90786   7.519   9.790   4.139 -2.8256  2.8510 -1.1399
  688MOL0     H90787   7.638   9.731   4.032 -0.5323 -0.7223  2.0861
  688MOL0     H90788   7.347   9.742   3.963  0.6836 -1.3454  3.0840
  688MOL0     H90789   7.469   9.719   3.842 -3.4872 -0.3530 -1.1911
  688MOL0     H90790   7.432   9.547   4.093 -0.2151  2.7839 -0.1483
  688MOL0     H90791   7.563   9.529   3.965 -0.1427 -1.5915  2.0111
  688MOL0     H90792   7.375   9.467   3.810 -1.9296  0.5804 -0.8273
  688MOL0     H90793   7.253   9.502   3.930  0.5663  0.0211  0.1485
  688MOL0     H90794   7.413   9.310   4.061 -3.1242 -0.0106  2.5945
  688MOL0     H90795   7.255   9.284   3.986 -0.4895  0.6864 -1.2318
  688MOL0     H90796   7.518   9.268   3.832 -1.4706  2.3288  1.9028
  688MOL0     H90797   7.352   9.234   3.766  0.5400 -2.6901 -1.1068
  688MOL0     H90798   7.847  10.135   4.192 -2.3608  2.6520 -0.7770
  688MOL0     H90799   7.959  10.191   4.397 -1.3415  1.0204 -0.1018
  688MOL0     H90800   7.756  10.226   4.897  0.0424 -1.8790  0.3734
  688MOL0     H90801   7.759  10.316   5.111  1.1486 -3.2698  0.7678
  688MOL0     H90802   8.160   9.800   6.634  0.2818  0.0219  0.8230
  688MOL0     H90803   8.273   9.708   6.849 -0.3026 -3.0664 -1.2303
  688MOL0     H90804   8.856   9.478   6.977 -0.0756 -0.0161 -0.9400
  688MOL0     H90805   8.931   9.435   7.196 -0.5959  0.1596  3.4551
  688MOL0     H90806   8.714   9.328   7.498 -1.0668  0.0996  0.5398
  688MOL0     H90807   8.613   9.472   7.537  0.8161  1.2642  2.4814
  688MOL0     H90808   8.764   9.558   7.693  1.2360  0.1744  0.8703
  688MOL0     H90809   8.729   9.384   7.723  0.2555 -0.3897 -1.8302
  688MOL0     H90810   8.977   9.477   7.580 -1.8239 -0.2969 -1.3104
  688MOL0     H90811   8.925   9.315   7.636  0.3312 -0.3097 -1.6679
  688MOL0     H90812   9.109   9.438   7.780  0.1997 -2.2287  0.3022
  688MOL0     H90813   8.983   9.547   7.821  3.2923  0.6257 -1.4090
  688MOL0     H90814   8.894   9.184   8.038 -2.9312  1.6220  1.7187
  688MOL0     H90815   8.588   9.617   7.361 -0.4647 -1.7617  0.5338
  688MOL0     H90816   8.517   9.698   7.137  0.3226 -0.0422  0.7456
  689MOL0     O90817   3.799   4.916   7.451  0.6364  0.4432  0.0733
  689MOL0     C90818   3.722   4.955   7.360 -0.7680  0.4287 -0.3508
  689MOL0     O90819   3.715   4.895   7.238 -0.2999  0.3986 -0.3756
  689MOL0     C90820   3.809   4.797   7.202 -0.0174 -0.1367 -0.0429
  689MOL0     C90821   3.914   4.825   7.106  0.3643  0.6485  0.0874
  689MOL0     C90822   4.004   4.733   7.075 -0.2360 -0.6297  0.3274
  689MOL0     C90823   3.993   4.604   7.139 -0.2188 -0.9243 -0.2451
  689MOL0     O90824   4.104   4.518   7.134  0.3370 -0.3156  0.3744
  689MOL0     C90825   4.099   4.381   7.166  0.2008 -0.4518  0.3130
  689MOL0     C90826   4.141   4.304   7.028  0.8020  0.7105 -0.2973
  689MOL0     C90827   4.162   4.159   7.066 -0.4239 -0.5282 -0.2105
  689MOL0     C90828   4.293   4.144   7.132 -0.9323 -0.1029 -0.2035
  689MOL0     C90829   4.304   4.003   7.170 -1.2396  0.6042  0.8901
  689MOL0     C90830   4.452   3.944   7.185 -0.6094 -0.8429  0.4462
  689MOL0     C90831   4.423   3.795   7.230 -0.9206  0.4903  0.0230
  689MOL0     C90832   4.548   3.704   7.262 -1.4196 -0.5041 -0.0329
  689MOL0     N90833   4.652   3.707   7.156 -0.0156 -0.1698 -0.0261
  689MOL0     C90834   4.772   3.780   7.167 -0.2731  0.4822  0.1965
  689MOL0     C90835   4.853   3.727   7.068  0.0330  0.2310  0.0630
  689MOL0     C90836   4.999   3.763   7.048 -0.3253  0.6104 -0.1035
  689MOL0     C90837   5.087   3.707   7.159 -0.2419 -0.0079  0.5692
  689MOL0     C90838   5.077   3.553   7.185 -0.9894 -0.3334  1.3727
  689MOL0     C90839   5.117   3.455   7.076 -0.0797 -0.0411 -0.2094
  689MOL0     O90840   5.161   3.332   7.143 -0.3871  0.9629  0.1640
  689MOL0     C90841   5.078   3.222   7.144  0.7834  0.2070  0.2672
  689MOL0     C90842   5.010   3.177   7.034  0.8716  0.0201  0.1354
  689MOL0     C90843   4.926   3.069   7.032  0.3368  0.5287 -0.0864
  689MOL0     C90844   4.925   2.989   7.152 -0.0451  0.5231 -0.1174
  689MOL0     C90845   4.823   2.876   7.164  0.2289 -0.6819  0.4044
  689MOL0     O90846   4.832   2.771   7.255  0.5346 -0.6802 -1.1351
  689MOL0     C90847   4.734   2.674   7.256 -0.4159  0.4175  0.2326
  689MOL0     C90848   4.656   2.663   7.377  0.1890  0.0758  0.7552
  689MOL0     C90849   4.568   2.555   7.388  0.5315 -0.4891 -0.4388
  689MOL0     C90850   4.564   2.458   7.287  0.1405  0.2911  0.2567
  689MOL0     O90851   4.493   2.336   7.309  0.2049  0.2993  0.3410
  689MOL0     C90852   4.534   2.256   7.417 -0.1497  0.0929  0.3853
  689MOL0     C90853   4.407   2.253   7.504 -0.0620  0.6911  0.4678
  689MOL0     C90854   4.416   2.147   7.613  0.5281 -0.4401 -0.5568
  689MOL0     C90855   4.291   2.140   7.698  0.4086 -0.9964 -0.0425
  689MOL0     C90856   4.182   2.057   7.636  0.0892  0.5829  0.6392
  689MOL0     C90857   4.042   2.048   7.716  0.1945 -0.9114 -1.4430
  689MOL0     C90858   3.943   1.952   7.650  0.9013  0.8779  0.6277
  689MOL0     C90859   3.816   1.957   7.735 -0.0206 -0.2810 -0.9505
  689MOL0    Cl90860   3.681   1.904   7.625  0.1106 -0.1233 -0.1063
  689MOL0     C90861   4.632   2.471   7.164  0.3594  0.3576  1.1177
  689MOL0     C90862   4.720   2.575   7.154 -0.0531 -0.5024 -0.4756
  689MOL0     O90863   4.738   2.888   7.083  0.4996 -0.9496  0.6298
  689MOL0     C90864   5.000   3.017   7.264  0.3004 -0.1236  0.0403
  689MOL0     C90865   5.071   3.143   7.260 -0.0241  0.2655 -0.0524
  689MOL0     N90866   4.775   3.642   6.991  0.5982 -0.8396  0.1986
  689MOL0     N90867   4.669   3.628   7.046  0.3227 -0.4303 -0.7493
  689MOL0     C90868   3.889   4.578   7.230 -0.8337  1.1002  0.9485
  689MOL0     C90869   3.786   4.668   7.261 -1.0285  0.2872  0.3473
  689MOL0     C90870   3.657   5.078   7.384 -0.4538 -0.0366 -0.3485
  689MOL0     C90871   3.572   5.137   7.297 -0.5819  0.3275  0.1696
  689MOL0     C90872   3.510   5.257   7.319 -0.0733  0.5176  0.2788
  689MOL0     C90873   3.503   5.310   7.444  0.3570 -0.5445 -0.4260
  689MOL0     O90874   3.439   5.432   7.467 -0.0591  0.4050  0.4600
  689MOL0     C90875   3.317   5.433   7.543 -0.4252 -0.3024  0.4797
  689MOL0     C90876   3.213   5.516   7.470 -0.2211  0.4749  0.5019
  689MOL0     C90877   3.256   5.651   7.415 -0.1029  0.1466 -0.3939
  689MOL0     C90878   3.270   5.755   7.532 -0.3972  0.7204 -0.5774
  689MOL0     C90879   3.137   5.804   7.567  0.0191 -0.5123 -0.2854
  689MOL0     C90880   3.022   5.833   7.602 -0.1514 -0.0964 -0.0321
  689MOL0     C90881   3.577   5.246   7.538 -0.7349 -0.4986 -0.6300
  689MOL0     C90882   3.660   5.138   7.513 -0.4311 -1.1597 -0.9238
  689MOL0     H90883   3.918   4.922   7.059 -2.2392  0.3500 -0.8913
  689MOL0     H90884   4.096   4.757   7.023 -0.1814 -2.7253 -0.6384
  689MOL0     H90885   3.999   4.345   7.193  1.3643 -2.4889  2.2782
  689MOL0     H90886   4.165   4.352   7.248  2.4709  0.2859 -1.1760
  689MOL0     H90887   4.227   4.348   6.978  1.3634 -0.5053 -0.4430
  689MOL0     H90888   4.063   4.314   6.952  1.0328  0.1059 -0.6246
  689MOL0     H90889   4.167   4.095   6.977 -0.5011  0.7239 -1.1438
  689MOL0     H90890   4.076   4.122   7.123 -0.2942 -1.5441 -0.6575
  689MOL0     H90891   4.376   4.166   7.064 -0.4653  1.0716  0.7132
  689MOL0     H90892   4.313   4.209   7.218 -0.2355  0.4987 -0.8022
  689MOL0     H90893   4.258   3.937   7.096 -0.7942 -1.0477  2.0212
  689MOL0     H90894   4.240   3.988   7.258 -0.9862 -0.3341  0.9255
  689MOL0     H90895   4.513   3.994   7.261 -0.1068 -0.9848  0.1406
  689MOL0     H90896   4.504   3.951   7.089 -1.8837 -0.9470 -0.2707
  689MOL0     H90897   4.374   3.803   7.328  2.0987  0.0463  1.6770
  689MOL0     H90898   4.355   3.748   7.159 -0.3198  1.1542 -1.0116
  689MOL0     H90899   4.522   3.601   7.288  1.0400 -1.7261 -1.9750
  689MOL0     H90900   4.591   3.762   7.344 -1.8355  0.7461 -0.6671
  689MOL0     H90901   4.791   3.857   7.241  3.3108 -0.2901  0.2493
  689MOL0     H90902   5.021   3.869   7.036  1.0809  0.3796  0.2755
  689MOL0     H90903   5.041   3.704   6.966  0.6586 -0.1043  0.8875
  689MOL0     H90904   5.066   3.761   7.252 -1.8840 -0.7459  0.6583
  689MOL0     H90905   5.185   3.746   7.129 -0.2606  0.1309  0.6892
  689MOL0     H90906   5.134   3.535   7.277  0.9710  1.0479  0.4870
  689MOL0     H90907   4.976   3.539   7.226 -1.5001  0.7425  0.5252
  689MOL0     H90908   5.209   3.493   7.031 -0.2294  0.9601  0.2995
  689MOL0     H90909   5.036   3.440   7.005  0.6522  0.0236 -1.0759
  689MOL0     H90910   5.030   3.239   6.947 -3.3046 -1.8742 -2.4787
  689MOL0     H90911   4.879   3.040   6.939 -3.8828  2.5472  1.1762
  689MOL0     H90912   4.673   2.730   7.461 -1.0400  1.3895 -0.0087
  689MOL0     H90913   4.500   2.550   7.472 -0.0997 -1.6518 -0.9880
  689MOL0     H90914   4.616   2.304   7.472  0.2319  1.9138 -1.6243
  689MOL0     H90915   4.568   2.155   7.390 -1.9155 -1.3216  3.0433
  689MOL0     H90916   4.319   2.235   7.441  0.2847 -0.7370  0.3638
  689MOL0     H90917   4.399   2.343   7.565 -1.0762  0.6042  0.4841
  689MOL0     H90918   4.500   2.177   7.678  0.5907 -1.7063 -0.0335
  689MOL0     H90919   4.430   2.046   7.574 -0.8264 -0.9789  0.2952
  689MOL0     H90920   4.306   2.105   7.800  2.5671  3.6981  1.5508
  689MOL0     H90921   4.256   2.243   7.708  3.7811  0.6243 -2.7792
  689MOL0     H90922   4.222   1.956   7.621  1.0852  1.0570  0.0110
  689MOL0     H90923   4.163   2.098   7.537  1.3291 -0.1986  0.0575
  689MOL0     H90924   4.017   2.154   7.720  2.0654 -0.4382 -1.4286
  689MOL0     H90925   4.051   2.009   7.818  0.5695  2.0860 -0.2209
  689MOL0     H90926   3.922   1.981   7.547 -0.7031 -1.5432  0.2069
  689MOL0     H90927   3.970   1.846   7.651  0.9855  0.8834 -0.2072
  689MOL0     H90928   3.804   2.062   7.764 -0.7497 -0.0366 -2.0586
  689MOL0     H90929   3.829   1.890   7.820 -2.3704  0.8359  0.3844
  689MOL0     H90930   4.616   2.404   7.081 -1.2926  2.1230 -0.0651
  689MOL0     H90931   4.784   2.584   7.067  1.7637 -4.1568  0.3224
  689MOL0     H90932   5.001   2.964   7.358 -0.5745 -0.6586 -0.2462
  689MOL0     H90933   5.135   3.171   7.343 -1.5007 -1.8563  1.9264
  689MOL0     H90934   3.877   4.481   7.276 -0.4655 -0.4453 -1.9975
  689MOL0     H90935   3.691   4.665   7.314 -1.6739 -2.2969 -0.8244
  689MOL0     H90936   3.572   5.097   7.196  2.6463 -0.4437  0.3674
  689MOL0     H90937   3.456   5.304   7.238 -0.4315 -0.7764 -0.2569
  689MOL0     H90938   3.322   5.478   7.643 -3.1927  0.4374  0.3597
  689MOL0     H90939   3.262   5.339   7.546 -4.3189  1.7799  1.1830
  689MOL0     H90940   3.203   5.464   7.374  0.8533 -0.2534  0.7682
  689MOL0     H90941   3.116   5.516   7.521 -0.0646  3.6113  0.9876
  689MOL0     H90942   3.187   5.694   7.342  0.3659  0.3551 -0.7222
  689MOL0     H90943   3.347   5.641   7.354 -0.6542 -4.9239 -0.8537
  689MOL0     H90944   3.298   5.693   7.618 -3.4198  1.1607  0.8411
  689MOL0     H90945   3.331   5.843   7.511 -2.3228  1.9681 -1.2302
  689MOL0     H90946   2.920   5.856   7.626 -0.0431  1.4959 -0.9448
  689MOL0     H90947   3.568   5.294   7.635 -0.6495  1.5629 -1.5923
  689MOL0     H90948   3.722   5.108   7.597 -0.4664  1.5805  0.1894
  690MOL0     O90949  10.645   0.032  10.026  0.0764 -0.7740 -0.4672
  690MOL0     C90950  10.748   0.084  10.041  0.6689 -0.0132  0.3057
  690MOL0     O90951  10.777   0.193  10.115 -0.4311 -0.4065 -1.1765
  690MOL0     C90952  10.676   0.290  10.142 -0.0625  0.8034  0.1697
  690MOL0     C90953  10.675   0.357  10.264 -0.1178  0.2354  0.2638
  690MOL0     C90954  10.588   0.463  10.282  0.0586 -0.1532  0.4397
  690MOL0     C90955  10.476   0.492  10.204 -0.2030  0.3288 -0.7398
  690MOL0     O90956  10.379   0.591  10.203 -0.5244  0.6631 -0.1985
  690MOL0     C90957  10.330   0.657  10.322  0.6740 -0.2284 -0.5730
  690MOL0     C90958  10.255   0.779  10.274 -0.2161 -0.4919  0.0318
  690MOL0     C90959  10.116   0.746  10.214 -0.7906 -0.4941  0.1586
  690MOL0     C90960  10.038   0.867  10.181 -0.2931 -0.1870 -0.7330
  690MOL0     C90961   9.955   0.854  10.057  0.3077  0.1050 -0.3631
  690MOL0     C90962   9.832   0.946  10.070 -0.2798 -0.6424 -0.9182
  690MOL0     C90963   9.725   0.937   9.963  0.1482 -0.2545  0.3938
  690MOL0     C90964   9.630   1.067   9.975  0.1156  0.2600 -0.0992
  690MOL0     N90965   9.517   1.056   9.876 -0.5297 -0.0231 -0.1335
  690MOL0     C90966   9.515   1.103   9.750 -0.8149 -0.0099 -0.8936
  690MOL0     C90967   9.388   1.097   9.711 -0.0446  1.3683 -0.2589
  690MOL0     C90968   9.340   1.107   9.563  0.4530  0.0557 -0.3326
  690MOL0     C90969   9.304   1.264   9.532 -1.4629  0.0921 -0.3833
  690MOL0     C90970   9.199   1.334   9.628 -0.1972 -0.4514  0.3968
  690MOL0     C90971   9.182   1.484   9.584 -0.4270 -0.1672 -0.2091
  690MOL0     O90972   9.063   1.519   9.654 -0.9056  0.3783 -0.4131
  690MOL0     C90973   8.941   1.501   9.600  0.3078 -0.3316 -0.2892
  690MOL0     C90974   8.837   1.455   9.678 -0.5167  0.1450  0.2099
  690MOL0     C90975   8.696   1.444   9.650 -0.1507  0.3766 -0.0581
  690MOL0     C90976   8.665   1.488   9.517 -0.1012 -0.3458 -0.2429
  690MOL0     C90977   8.528   1.478   9.466  0.1566  0.1722 -0.4445
  690MOL0     O90978   8.522   1.475   9.325 -0.3504 -0.1799  0.0297
  690MOL0     C90979   8.400   1.439   9.273  0.1730  0.1838  0.7007
  690MOL0     C90980   8.312   1.340   9.324  1.0887  0.1675 -0.0600
  690MOL0     C90981   8.189   1.314   9.257  0.8136 -0.8122 -0.1887
  690MOL0     C90982   8.150   1.375   9.141  1.3031 -0.8549 -0.3611
  690MOL0     O90983   8.029   1.361   9.097  0.0190  0.3582  0.5892
  690MOL0     C90984   7.985   1.371   8.955  0.6547 -0.5912  0.1198
  690MOL0     C90985   7.960   1.234   8.897  0.5523 -0.8734 -0.0580
  690MOL0     C90986   7.962   1.221   8.745  0.7927  0.5235  0.6843
  690MOL0     C90987   7.859   1.324   8.680  0.6218  0.2832  0.2572
  690MOL0     C90988   7.835   1.288   8.536 -0.5346  0.1429  0.7433
  690MOL0     C90989   7.730   1.374   8.464  1.1614 -0.9691 -1.1607
  690MOL0     C90990   7.747   1.520   8.483  0.6152 -0.6344 -0.7994
  690MOL0     C90991   7.649   1.595   8.396 -1.2615 -0.2677  0.3044
  690MOL0    Cl90992   7.674   1.776   8.412 -0.6606  0.2601  0.1531
  690MOL0     C90993   8.242   1.456   9.078 -1.3142 -0.0182  0.4918
  690MOL0     C90994   8.366   1.481   9.139  0.6683  0.4684 -0.6702
  690MOL0     O90995   8.436   1.481   9.544 -0.4512  0.2511 -0.2448
  690MOL0     C90996   8.770   1.541   9.430  0.2836 -0.0494 -0.5015
  690MOL0     C90997   8.901   1.545   9.473 -0.3973 -0.1953  0.3723
  690MOL0     N90998   9.313   1.029   9.812 -0.1536  0.3186  0.3541
  690MOL0     N90999   9.390   1.018   9.914 -1.1622  0.1746 -0.0457
  690MOL0     C91000  10.473   0.411  10.086 -0.1635 -0.5694  1.0976
  690MOL0     C91001  10.571   0.313  10.058 -0.9180 -0.1407  0.6227
  690MOL0     C91002  10.866   0.009   9.970  0.2074 -0.6080 -0.1155
  690MOL0     C91003  10.861  -0.088   9.869  0.0932  0.9217 -0.0701
  690MOL0     C91004  10.975  -0.154   9.818  0.3143 -1.0739 -0.1462
  690MOL0     C91005  11.100  -0.127   9.876  0.1702  0.2867 -0.3841
  690MOL0     O91006  11.220  -0.189   9.837  0.1637 -0.3579  0.3424
  690MOL0     C91007  11.226  -0.257   9.712  0.1136 -0.2502  1.0727
  690MOL0     C91008  11.359  -0.332   9.698  0.6929 -0.6980 -0.1914
  690MOL0     C91009  11.424  -0.321   9.565 -1.1359  0.3582 -0.7382
  690MOL0     C91010  11.362  -0.431   9.477 -0.3776  0.1321 -0.6147
  690MOL0     C91011  11.433  -0.422   9.350  0.0037  0.0531 -0.3302
  690MOL0     C91012  11.482  -0.435   9.241 -0.4486  0.8342  0.1439
  690MOL0     C91013  11.103  -0.025   9.972 -0.6414 -0.9355  0.7475
  690MOL0     C91014  10.996   0.048  10.012  0.3341  1.0317  0.1667
  690MOL0     H91015  10.756   0.347  10.336  1.7173  1.7635 -1.4374
  690MOL0     H91016  10.613   0.527  10.366  1.7641  0.1567 -0.2549
  690MOL0     H91017  10.412   0.697  10.382 -1.9232  0.4554  2.8407
  690MOL0     H91018  10.261   0.593  10.377 -3.9019  3.7794 -0.9004
  690MOL0     H91019  10.309   0.832  10.195  1.2037  0.9876  1.8775
  690MOL0     H91020  10.245   0.853  10.355  1.2223 -1.4383  1.1222
  690MOL0     H91021  10.072   0.686  10.294 -0.4599  1.7046  2.0879
  690MOL0     H91022  10.123   0.690  10.120  0.0982  0.0811 -0.1304
  690MOL0     H91023   9.984   0.893  10.273  0.4672  2.7976 -1.0456
  690MOL0     H91024  10.099   0.955  10.162 -2.1871  0.6393 -3.5361
  690MOL0     H91025   9.928   0.750  10.039 -0.4671  0.5094 -1.6713
  690MOL0     H91026  10.014   0.891   9.972 -1.8441  4.8300 -0.1147
  690MOL0     H91027   9.871   1.048  10.067 -1.4559 -0.1891 -2.1617
  690MOL0     H91028   9.796   0.917  10.169  2.0127 -0.9733 -0.1083
  690MOL0     H91029   9.763   0.933   9.861 -1.6747 -3.0927 -0.2992
  690MOL0     H91030   9.684   0.836   9.980  2.5008 -1.1271  1.3585
  690MOL0     H91031   9.691   1.157   9.961  0.3001 -0.2956 -3.9067
  690MOL0     H91032   9.586   1.074  10.075  1.3781  1.3882  0.4156
  690MOL0     H91033   9.604   1.141   9.701  0.9649 -1.7900  0.7715
  690MOL0     H91034   9.248   1.048   9.553  0.6969 -0.6646  1.3450
  690MOL0     H91035   9.407   1.065   9.488 -0.1478 -2.0991  0.2876
  690MOL0     H91036   9.260   1.274   9.432 -2.2604  2.6759  0.1435
  690MOL0     H91037   9.395   1.324   9.540 -1.5671  0.0017  2.1646
  690MOL0     H91038   9.096   1.297   9.628 -1.6740  3.1999 -0.8909
  690MOL0     H91039   9.256   1.343   9.721  0.4359 -0.4734  0.0155
  690MOL0     H91040   9.160   1.502   9.478  0.3165  0.8345 -0.2004
  690MOL0     H91041   9.267   1.546   9.611  0.8786  0.7822 -5.4300
  690MOL0     H91042   8.883   1.422   9.771  2.7542  0.2324 -1.2705
  690MOL0     H91043   8.624   1.401   9.719 -3.2628  4.4471 -0.4065
  690MOL0     H91044   8.330   1.291   9.419 -1.4100  1.0811  0.9537
  690MOL0     H91045   8.114   1.248   9.300 -1.8843  1.8368 -0.5592
  690MOL0     H91046   8.049   1.431   8.890 -0.1612  1.5777  1.2295
  690MOL0     H91047   7.887   1.418   8.960 -0.6786 -3.0501 -1.0266
  690MOL0     H91048   7.862   1.204   8.936 -0.2691  1.1176 -0.4479
  690MOL0     H91049   8.032   1.157   8.928  0.1918 -1.0416  0.3679
  690MOL0     H91050   7.918   1.123   8.728  0.4500  0.8436 -0.3244
  690MOL0     H91051   8.059   1.231   8.696  1.8557  1.0405  2.7750
  690MOL0     H91052   7.765   1.344   8.731 -0.2389  0.7014 -1.4140
  690MOL0     H91053   7.904   1.424   8.688 -0.2995  0.8617 -1.3011
  690MOL0     H91054   7.800   1.184   8.532  0.2752 -0.1384  0.7302
  690MOL0     H91055   7.939   1.286   8.502  1.0988  0.3954  5.0872
  690MOL0     H91056   7.633   1.349   8.507  0.5877  2.3016 -0.2320
  690MOL0     H91057   7.741   1.357   8.356 -1.1475  0.9895 -1.8138
  690MOL0     H91058   7.716   1.555   8.582 -2.3511 -1.6467 -1.2993
  690MOL0     H91059   7.853   1.540   8.462  1.3211 -2.0754  0.9889
  690MOL0     H91060   7.547   1.561   8.416 -0.3998 -3.6919 -0.4042
  690MOL0     H91061   7.664   1.565   8.292 -1.3456  2.0731 -0.4237
  690MOL0     H91062   8.223   1.517   8.990 -4.0014 -0.0476  0.9453
  690MOL0     H91063   8.423   1.558   9.088 -0.3866  2.5863  1.2041
  690MOL0     H91064   8.753   1.578   9.330  0.1383 -2.1414 -1.2819
  690MOL0     H91065   8.976   1.570   9.398 -0.0496 -0.9812  0.4466
  690MOL0     H91066  10.405   0.432  10.004  3.2014  2.7653 -1.2028
  690MOL0     H91067  10.551   0.263   9.964 -2.0029 -2.8190  2.1466
  690MOL0     H91068  10.770  -0.122   9.820  1.1537  0.5614 -1.8809
  690MOL0     H91069  10.970  -0.226   9.737  2.0333  0.2365 -1.4826
  690MOL0     H91070  11.219  -0.187   9.628  2.4511  0.4940  1.4364
  690MOL0     H91071  11.142  -0.327   9.702 -1.4191  1.6257  0.0878
  690MOL0     H91072  11.429  -0.298   9.774 -1.6431  0.2462  1.6803
  690MOL0     H91073  11.332  -0.431   9.734 -4.4229  0.0795 -1.0354
  690MOL0     H91074  11.533  -0.328   9.577 -1.3789  0.0891  2.2306
  690MOL0     H91075  11.405  -0.222   9.523  2.5510  2.2994  1.5328
  690MOL0     H91076  11.380  -0.531   9.519 -0.4694  0.7115  0.8612
  690MOL0     H91077  11.254  -0.428   9.458 -0.7121  0.3774  1.1265
  690MOL0     H91078  11.506  -0.447   9.137  0.9570 -0.3946  0.5912
  690MOL0     H91079  11.197   0.002  10.018 -0.7220  2.1083 -0.6725
  690MOL0     H91080  11.016   0.141  10.064  1.4359  0.6300  0.4854
  691MOL0     O91081   0.783   7.698   1.338  0.3743  0.3310  0.0976
  691MOL0     C91082   0.779   7.597   1.410  0.7108  0.3222 -0.2456
  691MOL0     O91083   0.683   7.495   1.403 -0.3932  0.1666  0.3795
  691MOL0     C91084   0.598   7.471   1.294  0.5324  0.9768 -0.1907
  691MOL0     C91085   0.648   7.486   1.164 -0.0066 -0.5333  0.1586
  691MOL0     C91086   0.568   7.458   1.058  0.2725 -0.0424  0.0116
  691MOL0     C91087   0.439   7.404   1.071 -0.0021  0.6479 -0.8150
  691MOL0     O91088   0.356   7.366   0.982 -0.3294  0.0852  0.1380
  691MOL0     C91089   0.368   7.421   0.853 -0.6135 -0.5546 -0.3590
  691MOL0     C91090   0.243   7.397   0.768  0.9034  0.4588  0.4184
  691MOL0     C91091   0.250   7.481   0.643  1.0465 -1.4120 -0.0231
  691MOL0     C91092   0.326   7.413   0.534 -0.4131  1.4582 -0.1535
  691MOL0     C91093   0.315   7.495   0.409  0.4211  0.3499  0.0306
  691MOL0     C91094   0.376   7.417   0.292 -1.0492  0.1405  0.1666
  691MOL0     C91095   0.383   7.502   0.166  0.0874 -0.1458  0.7892
  691MOL0     C91096   0.419   7.431   0.038 -0.7142 -0.4917 -0.5105
  691MOL0     N91097   0.336   7.312  -0.001 -0.1585  0.6172  0.5487
  691MOL0     C91098   0.242   7.306  -0.092  0.1040 -0.1820  0.4840
  691MOL0     C91099   0.195   7.180  -0.088 -0.4453  0.0641 -0.7527
  691MOL0     C91100   0.090   7.123  -0.180  0.1100  0.1127 -0.0015
  691MOL0     C91101   0.129   7.104  -0.332 -1.1601 -0.0894  0.9502
  691MOL0     C91102   0.140   7.225  -0.418 -0.5307 -0.0494  0.1147
  691MOL0     C91103   0.011   7.263  -0.495 -0.1935  0.0397  0.2629
  691MOL0     O91104  -0.095   7.311  -0.407  0.2357 -0.1456  0.3636
  691MOL0     C91105  -0.075   7.414  -0.326  0.5878  0.4924 -0.4592
  691MOL0     C91106   0.009   7.520  -0.361  0.0015  0.5174  0.6959
  691MOL0     C91107   0.030   7.623  -0.267  0.3877 -0.3633 -0.2166
  691MOL0     C91108  -0.019   7.624  -0.145 -0.1633  0.1325 -0.4996
  691MOL0     C91109   0.004   7.727  -0.046  0.0160 -0.9881 -0.6929
  691MOL0     O91110  -0.080   7.741   0.059 -0.0630 -0.0219 -0.4840
  691MOL0     C91111  -0.089   7.854   0.135 -0.0954 -0.9438  0.4061
  691MOL0     C91112  -0.113   7.829   0.271 -0.0216  0.4132  0.0561
  691MOL0     C91113  -0.113   7.941   0.357 -0.2062  0.2306 -0.8884
  691MOL0     C91114  -0.092   8.069   0.313 -0.1641 -0.5788 -0.7011
  691MOL0     O91115  -0.089   8.161   0.414 -0.5024 -0.2728  0.4854
  691MOL0     C91116   0.008   8.270   0.405 -0.4430 -0.2233  0.3843
  691MOL0     C91117   0.021   8.336   0.534 -0.0048 -0.5060  1.0959
  691MOL0     C91118   0.157   8.412   0.526 -0.3672 -0.1541 -0.5485
  691MOL0     C91119   0.187   8.496   0.643  0.1304 -0.4507 -0.3195
  691MOL0     C91120   0.190   8.421   0.780  0.7771 -0.9184 -0.4966
  691MOL0     C91121   0.252   8.523   0.883 -0.1574  0.1123 -0.4952
  691MOL0     C91122   0.259   8.456   1.019  0.2122 -1.0065  0.7964
  691MOL0     C91123   0.315   8.540   1.139  0.3707 -0.2558  0.0217
  691MOL0    Cl91124   0.253   8.453   1.279 -0.0172  0.0198 -0.2773
  691MOL0     C91125  -0.095   8.097   0.177  0.1345 -0.0289  0.0907
  691MOL0     C91126  -0.087   7.989   0.092 -0.2967  0.7114 -0.1925
  691MOL0     O91127   0.097   7.801  -0.065 -0.6517 -0.6743  0.7016
  691MOL0     C91128  -0.111   7.527  -0.102 -0.2882  0.6514  0.1484
  691MOL0     C91129  -0.133   7.423  -0.194  1.2621  0.6021  1.0310
  691MOL0     N91130   0.273   7.114  -0.001  0.1000  0.3265  0.2711
  691MOL0     N91131   0.359   7.189   0.048  0.0321  0.3308 -1.5634
  691MOL0     C91132   0.402   7.387   1.207  0.2422  0.0491  0.1477
  691MOL0     C91133   0.476   7.406   1.316  0.4263  0.4394 -0.7591
  691MOL0     C91134   0.884   7.584   1.512  0.5347 -0.3153  0.5965
  691MOL0     C91135   1.002   7.660   1.495  0.2661 -1.2722  0.3844
  691MOL0     C91136   1.100   7.656   1.595 -0.3629 -0.0019 -0.6215
  691MOL0     C91137   1.075   7.585   1.705 -0.1424  0.1854  0.2113
  691MOL0     O91138   1.164   7.586   1.811  0.1013  0.1401 -0.4810
  691MOL0     C91139   1.270   7.683   1.832  0.2410  1.0216  1.3843
  691MOL0     C91140   1.215   7.817   1.870 -0.5174 -0.3892 -0.1213
  691MOL0     C91141   1.318   7.930   1.833 -0.2403  0.1913 -0.4677
  691MOL0     C91142   1.446   7.931   1.921 -1.2594  0.6104 -0.2180
  691MOL0     C91143   1.531   7.802   1.949  1.2373 -0.5493  0.4315
  691MOL0     C91144   1.601   7.710   1.959  0.6970  0.8426 -0.2854
  691MOL0     C91145   0.957   7.515   1.722  0.8251  0.3607  1.0848
  691MOL0     C91146   0.866   7.503   1.624  0.1293  0.2118 -0.2541
  691MOL0     H91147   0.745   7.532   1.145 -0.3686 -0.1263 -0.7200
  691MOL0     H91148   0.600   7.477   0.956  1.8175  3.2485  0.9826
  691MOL0     H91149   0.447   7.375   0.793  0.4838 -4.0566  3.3367
  691MOL0     H91150   0.382   7.529   0.863  0.2107 -0.8409  2.4921
  691MOL0     H91151   0.154   7.417   0.829 -0.6962  1.8946 -2.1866
  691MOL0     H91152   0.244   7.292   0.737  1.3912  1.5031 -3.6717
  691MOL0     H91153   0.292   7.581   0.660 -2.2138 -0.0466  0.6214
  691MOL0     H91154   0.147   7.494   0.611  0.9222  3.1851  1.4752
  691MOL0     H91155   0.430   7.393   0.565 -0.1642  2.0909 -0.5810
  691MOL0     H91156   0.279   7.314   0.523  3.0117 -0.4192  0.5955
  691MOL0     H91157   0.367   7.590   0.424  1.8011 -0.8022  3.4638
  691MOL0     H91158   0.212   7.526   0.387  0.5659 -0.1907 -1.4977
  691MOL0     H91159   0.316   7.328   0.269 -1.8063  1.1442 -2.0409
  691MOL0     H91160   0.480   7.393   0.315 -1.5247  0.4949  2.9774
  691MOL0     H91161   0.282   7.538   0.145 -0.1276 -1.9215 -1.7226
  691MOL0     H91162   0.449   7.589   0.173 -0.5943  0.8357 -2.8459
  691MOL0     H91163   0.523   7.399   0.048 -0.9886 -1.1935  0.3049
  691MOL0     H91164   0.413   7.509  -0.037 -2.1675 -0.2393 -0.1695
  691MOL0     H91165   0.198   7.391  -0.142  1.1696  1.5722  2.3855
  691MOL0     H91166   0.000   7.185  -0.181  0.1809  0.2036 -0.6042
  691MOL0     H91167   0.048   7.033  -0.134  1.6251 -0.6972 -0.1211
  691MOL0     H91168   0.059   7.033  -0.377  0.6449 -1.6479  0.4982
  691MOL0     H91169   0.226   7.055  -0.329 -0.3934  1.3019  0.0774
  691MOL0     H91170   0.159   7.317  -0.362  2.5498  0.3536 -1.3854
  691MOL0     H91171   0.224   7.209  -0.487 -0.5330 -1.3331  0.3889
  691MOL0     H91172  -0.030   7.177  -0.549  0.7146 -0.0285 -0.3465
  691MOL0     H91173   0.033   7.330  -0.579  0.2723  1.3045  1.3647
  691MOL0     H91174   0.053   7.532  -0.460  1.2842  2.8728  1.4570
  691MOL0     H91175   0.069   7.718  -0.305 -2.5147  0.3419 -1.6782
  691MOL0     H91176  -0.128   7.727   0.305 -4.3764  1.1179  0.9112
  691MOL0     H91177  -0.125   7.930   0.464 -2.3401  1.0610 -0.9841
  691MOL0     H91178  -0.024   8.333   0.321 -1.5941 -1.5994 -0.2653
  691MOL0     H91179   0.107   8.228   0.387  0.5909  1.7457  1.2268
  691MOL0     H91180   0.018   8.264   0.616  0.8791 -0.3300  1.2912
  691MOL0     H91181  -0.057   8.410   0.550  0.8780  1.4345 -2.4887
  691MOL0     H91182   0.154   8.481   0.441 -0.9299 -0.5700 -0.8780
  691MOL0     H91183   0.246   8.349   0.519  1.5193  1.8109  2.8228
  691MOL0     H91184   0.282   8.548   0.627 -0.5772  1.0514  0.1966
  691MOL0     H91185   0.123   8.583   0.663  0.1182 -1.2766  4.5685
  691MOL0     H91186   0.256   8.335   0.766  1.5828 -0.4965  0.5619
  691MOL0     H91187   0.094   8.388   0.821  0.5171 -0.9004 -1.0814
  691MOL0     H91188   0.191   8.614   0.880 -1.3101 -0.6230  0.0430
  691MOL0     H91189   0.348   8.551   0.838  0.3717  0.6794  0.9088
  691MOL0     H91190   0.153   8.449   1.044  0.6156 -0.2912  2.8840
  691MOL0     H91191   0.308   8.358   1.017 -0.0660 -1.1409  0.3395
  691MOL0     H91192   0.273   8.640   1.129  3.0426  0.8059 -1.4824
  691MOL0     H91193   0.423   8.558   1.132  0.2815  0.2613 -0.0488
  691MOL0     H91194  -0.090   8.198   0.139 -2.2789 -0.1348 -0.6395
  691MOL0     H91195  -0.082   8.005  -0.015  1.7405 -1.3641 -0.5093
  691MOL0     H91196  -0.151   7.514  -0.002  0.9876 -0.0949  0.5782
  691MOL0     H91197  -0.207   7.348  -0.168 -0.2857  2.2246  1.5035
  691MOL0     H91198   0.302   7.346   1.216 -0.3589  1.4465  0.1161
  691MOL0     H91199   0.431   7.393   1.414 -0.3976  1.8926 -0.9142
  691MOL0     H91200   1.018   7.719   1.405  3.9359 -3.9225 -0.9306
  691MOL0     H91201   1.188   7.718   1.586  0.6811 -1.3136  0.2125
  691MOL0     H91202   1.328   7.682   1.739 -2.8079  2.0250 -0.6953
  691MOL0     H91203   1.319   7.632   1.915 -3.9945 -3.4530  1.6122
  691MOL0     H91204   1.113   7.844   1.842 -0.4960 -0.2468 -0.0643
  691MOL0     H91205   1.201   7.822   1.979 -3.0580  0.6660 -0.4329
  691MOL0     H91206   1.270   8.026   1.853  1.3947  0.6703  1.4629
  691MOL0     H91207   1.345   7.919   1.727 -1.2118  1.0373 -0.8218
  691MOL0     H91208   1.518   7.998   1.874  1.4178 -2.2789 -0.5824
  691MOL0     H91209   1.406   7.961   2.018 -1.7407  3.6484 -1.2543
  691MOL0     H91210   1.659   7.625   1.989  0.3102  0.5822 -0.2701
  691MOL0     H91211   0.937   7.457   1.811 -0.5614  0.2742  0.7287
  691MOL0     H91212   0.779   7.440   1.641  0.0193  0.4743  0.1788
  692MOL0     O91213   5.072   0.023   8.989 -1.1220 -0.2348 -0.2937
  692MOL0     C91214   5.157   0.114   8.957 -0.4786  0.7541 -0.7249
  692MOL0     O91215   5.165   0.239   9.011  0.0245  0.0237 -0.0914
  692MOL0     C91216   5.073   0.294   9.111  0.2010  0.1400 -0.2488
  692MOL0     C91217   5.114   0.414   9.169 -0.8235  0.6123  0.7304
  692MOL0     C91218   5.038   0.476   9.270  1.1550 -0.2729  0.4725
  692MOL0     C91219   4.933   0.412   9.324  0.8930 -0.7290 -0.6878
  692MOL0     O91220   4.848   0.458   9.420 -0.2262  0.4582  0.6435
  692MOL0     C91221   4.860   0.598   9.460 -0.6720  0.3766  1.0024
  692MOL0     C91222   4.731   0.656   9.520  0.6226 -0.6112 -0.0158
  692MOL0     C91223   4.759   0.791   9.604 -0.3852 -1.1703 -1.0378
  692MOL0     C91224   4.651   0.832   9.695 -0.3505 -0.3678  0.8464
  692MOL0     C91225   4.688   0.945   9.799  0.0152  0.1325 -0.3438
  692MOL0     C91226   4.755   1.064   9.736  0.6975 -0.5637 -0.0634
  692MOL0     C91227   4.666   1.138   9.622  0.2107 -0.4572 -0.5815
  692MOL0     C91228   4.748   1.261   9.582  0.6984  0.4251 -0.0328
  692MOL0     N91229   4.803   1.353   9.689 -0.1074  0.4475  0.1954
  692MOL0     C91230   4.926   1.339   9.744 -0.8160 -0.7756  0.4563
  692MOL0     C91231   4.932   1.406   9.858 -0.4897 -0.3323 -0.5379
  692MOL0     C91232   5.044   1.450   9.946 -0.2035  0.5206 -0.3975
  692MOL0     C91233   5.011   1.599   9.992 -0.9425 -0.8676  0.7344
  692MOL0     C91234   5.153   1.675  10.014  0.3930 -0.0916 -0.6570
  692MOL0     C91235   5.112   1.801  10.090 -0.2984  0.1220 -0.9903
  692MOL0     O91236   5.070   1.772  10.229 -0.5580 -0.0145  0.3388
  692MOL0     C91237   5.059   1.885  10.312 -0.1200  0.0738 -0.7086
  692MOL0     C91238   5.042   1.859  10.451  0.6603 -0.5027 -0.5113
  692MOL0     C91239   5.024   1.963  10.544 -0.4403 -0.8461 -0.3710
  692MOL0     C91240   5.033   2.093  10.505 -0.3217  0.3148 -0.2194
  692MOL0     C91241   5.005   2.202  10.610 -0.0188  0.1981 -0.1838
  692MOL0     O91242   4.925   2.176  10.725 -0.5124 -0.5426 -0.3771
  692MOL0     C91243   4.892   2.285  10.803 -0.3593 -0.4928  0.7794
  692MOL0     C91244   4.755   2.311  10.802  0.6128 -0.4217  0.0950
  692MOL0     C91245   4.703   2.420  10.873 -0.3708  0.2714 -0.2766
  692MOL0     C91246   4.793   2.495  10.952  0.2179  1.2883  0.3706
  692MOL0     O91247   4.737   2.595  11.028  0.0171  0.4093 -0.3081
  692MOL0     C91248   4.790   2.622  11.157  0.5022 -0.0383  0.0355
  692MOL0     C91249   4.677   2.628  11.265 -0.9430 -0.9078  0.7971
  692MOL0     C91250   4.596   2.504  11.270  0.7242 -0.8911  0.2733
  692MOL0     C91251   4.673   2.377  11.321  0.0928 -0.2156 -0.2884
  692MOL0     C91252   4.578   2.272  11.394  0.1406  0.3476 -1.0638
  692MOL0     C91253   4.488   2.195  11.297 -0.0442 -0.5373  0.4733
  692MOL0     C91254   4.388   2.111  11.371  0.0723 -0.3009  0.6378
  692MOL0     C91255   4.291   2.035  11.275 -0.8287  0.1469  0.5464
  692MOL0    Cl91256   4.206   1.913  11.372 -0.2559  0.1111  0.0987
  692MOL0     C91257   4.934   2.465  10.961  0.3587  0.4793  0.5744
  692MOL0     C91258   4.984   2.370  10.873  0.2418 -0.3578 -0.2619
  692MOL0     O91259   5.063   2.307  10.588 -0.3716  0.1855 -0.0406
  692MOL0     C91260   5.054   2.114  10.373 -1.1289 -0.2953  0.3685
  692MOL0     C91261   5.067   2.015  10.276 -0.7310 -0.5395  0.2796
  692MOL0     N91262   4.806   1.454   9.874  0.9083  0.0483 -0.8045
  692MOL0     N91263   4.725   1.430   9.771  0.1678 -0.2341 -0.0523
  692MOL0     C91264   4.897   0.291   9.280 -0.4369  0.1473 -0.0605
  692MOL0     C91265   4.961   0.229   9.170 -0.6097 -0.2241  1.0337
  692MOL0     C91266   5.263   0.082   8.853  0.5160  0.0737  0.5185
  692MOL0     C91267   5.344   0.190   8.802 -0.5094 -0.2841 -0.1870
  692MOL0     C91268   5.460   0.158   8.730 -0.5962 -0.2008  0.1364
  692MOL0     C91269   5.495   0.033   8.708  0.3603 -0.6164  0.6026
  692MOL0     O91270   5.605  -0.002   8.630 -0.6120 -0.0496  0.2387
  692MOL0     C91271   5.712  -0.020   8.715 -0.0268  0.4596 -0.1290
  692MOL0     C91272   5.816  -0.110   8.643  0.5802 -0.7010 -0.1853
  692MOL0     C91273   5.883  -0.027   8.540  0.5653 -0.0068  0.6865
  692MOL0     C91274   5.980   0.077   8.591  0.1030 -0.2757 -0.2014
  692MOL0     C91275   6.065   0.116   8.485  0.8720 -0.3393  0.0116
  692MOL0     C91276   6.142   0.167   8.407 -0.4179 -0.1242  0.1792
  692MOL0     C91277   5.418  -0.071   8.771  0.6314 -0.4262  0.5073
  692MOL0     C91278   5.300  -0.047   8.841 -0.5731  0.4650 -0.3184
  692MOL0     H91279   5.201   0.467   9.131 -0.3790 -0.8524 -0.3562
  692MOL0     H91280   5.061   0.581   9.288 -0.9952  0.1197  1.3371
  692MOL0     H91281   4.886   0.652   9.368 -0.3278 -1.4579 -0.0282
  692MOL0     H91282   4.951   0.610   9.519 -0.1542 -1.2532  0.6012
  692MOL0     H91283   4.694   0.571   9.579 -0.9835  0.6132  0.8170
  692MOL0     H91284   4.656   0.678   9.444  1.1123  1.4077  0.0410
  692MOL0     H91285   4.777   0.879   9.541 -0.0617  1.0512  1.9293
  692MOL0     H91286   4.852   0.774   9.660  1.5141  4.0743 -2.0210
  692MOL0     H91287   4.560   0.848   9.637  0.0243 -1.3617 -0.0314
  692MOL0     H91288   4.631   0.746   9.761 -2.0158 -0.2550  0.5429
  692MOL0     H91289   4.758   0.901   9.872 -0.8454  0.1860  0.5372
  692MOL0     H91290   4.596   0.975   9.850  0.1154  0.4131 -0.3291
  692MOL0     H91291   4.849   1.031   9.691  1.4011  0.3190  0.7128
  692MOL0     H91292   4.772   1.131   9.820  5.6219 -1.0996 -0.2980
  692MOL0     H91293   4.643   1.071   9.539  0.1971 -0.9942 -0.1542
  692MOL0     H91294   4.573   1.170   9.672  0.2650  1.1377 -1.4303
  692MOL0     H91295   4.675   1.318   9.525 -0.6117 -0.7754  0.4012
  692MOL0     H91296   4.835   1.242   9.518  0.4637  2.7877 -1.1816
  692MOL0     H91297   5.011   1.286   9.702  0.2601 -0.3009  1.9858
  692MOL0     H91298   5.140   1.445   9.894 -1.0733  3.3165 -2.5659
  692MOL0     H91299   5.038   1.380  10.030  1.1464 -1.1957 -1.6532
  692MOL0     H91300   4.934   1.597  10.069 -4.0154 -0.3611 -2.0907
  692MOL0     H91301   4.966   1.637   9.899 -2.9933 -5.7449 -0.5915
  692MOL0     H91302   5.219   1.601  10.060  1.5178  0.8030 -0.7981
  692MOL0     H91303   5.194   1.694   9.914 -3.6943  2.7335 -2.0549
  692MOL0     H91304   5.025   1.845  10.040 -1.5726  3.0374  3.2395
  692MOL0     H91305   5.197   1.871  10.084 -1.5183  1.6179 -1.5256
  692MOL0     H91306   5.051   1.759  10.491  1.8858  0.4117  1.7081
  692MOL0     H91307   4.991   1.942  10.645 -0.9254  0.7927 -0.1662
  692MOL0     H91308   4.677   2.267  10.741  1.2078  0.3480 -1.2642
  692MOL0     H91309   4.597   2.440  10.863 -0.3314  0.4108 -0.4269
  692MOL0     H91310   4.841   2.718  11.147 -2.2196  1.7820  1.9907
  692MOL0     H91311   4.851   2.536  11.188 -0.7064 -0.8383  0.3124
  692MOL0     H91312   4.607   2.710  11.249  0.6169  0.1971 -0.7319
  692MOL0     H91313   4.716   2.660  11.362 -1.9892  2.2568  0.2634
  692MOL0     H91314   4.537   2.487  11.180  1.7743 -1.2624 -0.3732
  692MOL0     H91315   4.516   2.516  11.344 -0.8728 -3.1743 -0.9787
  692MOL0     H91316   4.735   2.336  11.241 -1.9811 -1.2180 -1.4707
  692MOL0     H91317   4.731   2.411  11.407 -0.9108  0.3004  0.2111
  692MOL0     H91318   4.517   2.320  11.471  2.3792 -1.2195  1.9099
  692MOL0     H91319   4.637   2.202  11.454  0.3105 -0.5628 -2.2431
  692MOL0     H91320   4.554   2.134  11.235 -1.0221 -1.1176 -0.0260
  692MOL0     H91321   4.434   2.278  11.250  1.9126  2.3549  3.0260
  692MOL0     H91322   4.455   2.043  11.424 -0.2529  0.4117  1.9953
  692MOL0     H91323   4.325   2.176  11.432 -2.2241  1.0219 -2.8080
  692MOL0     H91324   4.341   1.974  11.199  2.8171 -0.9683  3.5657
  692MOL0     H91325   4.221   2.106  11.231 -0.1285  1.7303  1.8977
  692MOL0     H91326   5.006   2.532  11.005  0.8825  1.4615 -1.6081
  692MOL0     H91327   5.089   2.345  10.873 -0.1921 -2.5236  1.6216
  692MOL0     H91328   5.074   2.215  10.337 -0.5365 -0.9233 -1.1186
  692MOL0     H91329   5.098   2.060  10.182 -1.4773  1.7385  1.0519
  692MOL0     H91330   4.823   0.236   9.337 -1.2985 -1.4269 -2.5274
  692MOL0     H91331   4.919   0.137   9.131 -1.0990  0.0258  0.9649
  692MOL0     H91332   5.310   0.293   8.807  1.7660  0.4426  2.1144
  692MOL0     H91333   5.520   0.225   8.670  2.1204 -2.1246  0.5434
  692MOL0     H91334   5.675  -0.074   8.802  1.4816  0.9340  0.8386
  692MOL0     H91335   5.748   0.079   8.746 -1.4412  1.4324 -1.4350
  692MOL0     H91336   5.886  -0.167   8.704 -0.8133 -2.8911 -0.5418
  692MOL0     H91337   5.767  -0.188   8.584  1.9138 -2.5288  1.0127
  692MOL0     H91338   5.806   0.015   8.476  2.1252 -1.0382 -2.0515
  692MOL0     H91339   5.928  -0.098   8.469 -2.2779 -1.5390  0.2950
  692MOL0     H91340   5.912   0.157   8.619 -0.2438  0.3528 -2.6494
  692MOL0     H91341   6.053   0.045   8.667 -1.2638 -2.3567  0.3401
  692MOL0     H91342   6.203   0.218   8.336 -0.9691 -0.5534 -0.6171
  692MOL0     H91343   5.443  -0.174   8.748 -1.5129 -0.3108 -3.3702
  692MOL0     H91344   5.246  -0.128   8.889  0.8233 -0.2248  0.1474
  693MOL0     O91345   2.219   5.549  10.047  1.2905 -0.2951  0.3702
  693MOL0     C91346   2.272   5.554  10.158  0.5811  0.9336 -1.0988
  693MOL0     O91347   2.260   5.457  10.255 -0.5180  0.1734  0.4681
  693MOL0     C91348   2.184   5.338  10.221 -0.7655  0.4695 -0.7465
  693MOL0     C91349   2.205   5.263  10.106 -0.0483 -0.5797  0.0336
  693MOL0     C91350   2.140   5.148  10.078  0.0431  0.1638  0.1850
  693MOL0     C91351   2.067   5.083  10.183  0.7753  0.2204  0.2007
  693MOL0     O91352   2.015   4.964  10.155  0.0863 -0.8266 -0.1442
  693MOL0     C91353   1.982   4.878  10.265 -0.0862 -0.5935  0.7635
  693MOL0     C91354   1.843   4.914  10.329  0.3541 -0.9031 -0.6333
  693MOL0     C91355   1.724   4.861  10.249 -0.1982 -0.6805  0.7593
  693MOL0     C91356   1.586   4.869  10.325 -0.5622  0.3605  0.1997
  693MOL0     C91357   1.560   4.744  10.408  0.0997  0.3955 -0.0736
  693MOL0     C91358   1.412   4.700  10.433 -0.1967  1.5291 -0.3350
  693MOL0     C91359   1.326   4.817  10.473 -0.0774 -0.1890 -0.1860
  693MOL0     C91360   1.179   4.773  10.509 -0.7638  0.2407  0.1696
  693MOL0     N91361   1.187   4.667  10.611  0.2557 -0.3502 -0.0445
  693MOL0     C91362   1.223   4.690  10.742 -0.5298  0.3925 -0.7618
  693MOL0     C91363   1.231   4.565  10.799 -0.9715 -0.1629  0.4393
  693MOL0     C91364   1.261   4.520  10.937  0.3077  0.4162  0.7291
  693MOL0     C91365   1.146   4.520  11.038  0.5064 -0.1910 -0.3073
  693MOL0     C91366   1.186   4.476  11.179  0.0089 -0.7124 -0.1743
  693MOL0     C91367   1.311   4.535  11.226 -0.2060  0.6712  0.8156
  693MOL0     O91368   1.310   4.535  11.362 -0.2087  0.0837 -0.3063
  693MOL0     C91369   1.361   4.424  11.434  0.0228  0.0501  0.5576
  693MOL0     C91370   1.379   4.290  11.383  0.7090  0.2673  0.3476
  693MOL0     C91371   1.447   4.191  11.466  0.5781 -0.7660  0.8469
  693MOL0     C91372   1.501   4.222  11.600 -0.3343  0.9453  0.4907
  693MOL0     C91373   1.570   4.126  11.686 -0.4722  0.0524  0.0520
  693MOL0     O91374   1.604   4.000  11.619 -1.1606 -0.4394 -0.0434
  693MOL0     C91375   1.697   3.916  11.676  0.2852  0.4562 -0.3759
  693MOL0     C91376   1.721   3.894  11.814  0.0871  0.0285  0.2083
  693MOL0     C91377   1.819   3.798  11.855 -0.0048  0.0010 -0.4226
  693MOL0     C91378   1.894   3.722  11.773  0.1320 -0.1466  0.6081
  693MOL0     O91379   1.970   3.618  11.825  0.1614 -0.0556 -0.4085
  693MOL0     C91380   2.116   3.633  11.816  0.3292  0.2788  0.0233
  693MOL0     C91381   2.207   3.518  11.858  0.1036  0.2863 -0.0788
  693MOL0     C91382   2.212   3.496  12.015  0.3901  0.2957  0.3078
  693MOL0     C91383   2.276   3.605  12.105  0.1832  0.2048 -0.6087
  693MOL0     C91384   2.344   3.536  12.222 -0.2004 -0.1951  0.0987
  693MOL0     C91385   2.475   3.472  12.179  0.8385  0.8063 -0.2122
  693MOL0     C91386   2.575   3.555  12.102 -0.5206  0.8952  0.3250
  693MOL0     C91387   2.601   3.700  12.151  0.4455  0.1196 -0.0429
  693MOL0    Cl91388   2.731   3.776  12.054 -0.2218 -0.1939  0.6717
  693MOL0     C91389   1.865   3.737  11.636  0.3188  0.1331  0.7850
  693MOL0     C91390   1.763   3.823  11.590 -0.4029  0.3102  0.6347
  693MOL0     O91391   1.602   4.158  11.801 -0.2120  0.0500 -0.7660
  693MOL0     C91392   1.473   4.355  11.644  0.5227  0.3355  0.2022
  693MOL0     C91393   1.402   4.455  11.564  0.0447 -0.2208  0.1879
  693MOL0     N91394   1.184   4.472  10.695  0.1845 -0.2125  0.4885
  693MOL0     N91395   1.177   4.536  10.585 -0.0209  0.4274 -0.2330
  693MOL0     C91396   2.061   5.147  10.301  0.6811  0.5856  1.2119
  693MOL0     C91397   2.116   5.272  10.322  0.2052 -0.6370 -1.2631
  693MOL0     C91398   2.356   5.664  10.191 -0.2656 -0.1594  0.2101
  693MOL0     C91399   2.356   5.786  10.115 -0.6085  0.8269  0.9681
  693MOL0     C91400   2.431   5.892  10.146 -0.5176 -0.5651 -0.0991
  693MOL0     C91401   2.496   5.893  10.273 -0.2019 -0.1175  0.2094
  693MOL0     O91402   2.563   5.997  10.320  0.3845  0.3201 -0.4477
  693MOL0     C91403   2.605   6.115  10.243  0.4023 -0.4765  1.0035
  693MOL0     C91404   2.679   6.216  10.336  0.9278 -0.5058  0.4189
  693MOL0     C91405   2.689   6.357  10.278  0.0366 -0.7065  0.0015
  693MOL0     C91406   2.676   6.468  10.385  0.0918  0.3199 -1.3724
  693MOL0     C91407   2.540   6.470  10.440 -0.0431 -0.0264 -0.6614
  693MOL0     C91408   2.435   6.480  10.496  0.9473 -0.8857  0.0666
  693MOL0     C91409   2.499   5.787  10.352  0.8545  0.0078 -0.0248
  693MOL0     C91410   2.431   5.673  10.316  0.6278 -0.0019 -0.4544
  693MOL0     H91411   2.283   5.302  10.042 -2.4675  1.4556 -1.8768
  693MOL0     H91412   2.143   5.102   9.980 -2.0037  1.1652 -0.3951
  693MOL0     H91413   2.062   4.892  10.338  2.1107  4.2927 -2.1010
  693MOL0     H91414   1.985   4.779  10.218 -1.4059 -0.2130 -0.1901
  693MOL0     H91415   1.835   5.023  10.343 -1.9440 -1.2494  1.5795
  693MOL0     H91416   1.837   4.870  10.429  1.3835 -1.3314 -0.7499
  693MOL0     H91417   1.737   4.756  10.220 -0.5163 -0.2254 -1.1390
  693MOL0     H91418   1.721   4.914  10.154 -0.8251 -3.2209 -0.7080
  693MOL0     H91419   1.590   4.952  10.396 -1.7492  0.7357 -0.1391
  693MOL0     H91420   1.503   4.897  10.260  1.0176  2.1626 -1.1201
  693MOL0     H91421   1.622   4.750  10.498  0.4498  4.8639 -0.3907
  693MOL0     H91422   1.593   4.654  10.356  1.3961 -0.3907  1.9906
  693MOL0     H91423   1.410   4.616  10.504  1.2027 -0.5101 -2.5793
  693MOL0     H91424   1.376   4.668  10.335  0.4257 -0.5081  0.0488
  693MOL0     H91425   1.369   4.857  10.565 -3.8124  0.5410  1.4225
  693MOL0     H91426   1.338   4.896  10.399  4.8698 -1.1652 -0.7738
  693MOL0     H91427   1.138   4.737  10.415  0.0034  3.4550 -1.5441
  693MOL0     H91428   1.129   4.859  10.556  4.8703  2.3640  3.1810
  693MOL0     H91429   1.240   4.779  10.803  2.5317 -2.1499  2.6029
  693MOL0     H91430   1.333   4.585  10.987  0.3089 -0.5729  2.0579
  693MOL0     H91431   1.300   4.418  10.933 -0.3404  0.1212  1.7933
  693MOL0     H91432   1.062   4.455  11.010  0.8658 -0.4741 -0.7613
  693MOL0     H91433   1.116   4.625  11.033  0.1496 -0.3380 -1.9640
  693MOL0     H91434   1.110   4.508  11.251  2.1850  0.4038  1.7674
  693MOL0     H91435   1.196   4.368  11.198  0.3350 -0.5106  0.8883
  693MOL0     H91436   1.312   4.638  11.187 -0.0778  1.1197  1.9721
  693MOL0     H91437   1.388   4.476  11.177 -1.7682  0.8170 -2.0213
  693MOL0     H91438   1.345   4.242  11.292  1.7999 -2.6778  1.3610
  693MOL0     H91439   1.451   4.093  11.418  0.0095 -2.6184  4.2578
  693MOL0     H91440   1.664   3.939  11.895  0.8696 -0.8243  1.2699
  693MOL0     H91441   1.830   3.788  11.962  3.4782  1.9540 -0.4429
  693MOL0     H91442   2.128   3.726  11.873 -1.7727  1.4540 -1.3492
  693MOL0     H91443   2.134   3.653  11.710 -1.0157  1.1541 -0.0516
  693MOL0     H91444   2.303   3.544  11.812 -0.0247  1.7797  0.4306
  693MOL0     H91445   2.171   3.428  11.807 -1.3436  0.3700  0.7239
  693MOL0     H91446   2.260   3.401  12.040  4.3128  1.6413 -1.3643
  693MOL0     H91447   2.107   3.483  12.040  0.2499 -0.1605 -0.4657
  693MOL0     H91448   2.343   3.666  12.043 -1.5911  0.8886 -1.9431
  693MOL0     H91449   2.193   3.668  12.138  0.2496  0.0191 -0.0834
  693MOL0     H91450   2.279   3.458  12.263 -0.6486 -1.3491 -2.6356
  693MOL0     H91451   2.366   3.610  12.300  0.2834 -2.0750  1.8379
  693MOL0     H91452   2.452   3.390  12.110  1.4085 -0.3651  0.9472
  693MOL0     H91453   2.510   3.423  12.270  1.2258 -1.8724 -1.7107
  693MOL0     H91454   2.671   3.504  12.098  0.0245  1.8501  0.9479
  693MOL0     H91455   2.539   3.555  11.999 -1.2884  1.9786  0.5710
  693MOL0     H91456   2.645   3.703  12.251  2.0089  4.2561 -0.6519
  693MOL0     H91457   2.509   3.759  12.141 -0.5404 -1.1710  0.9920
  693MOL0     H91458   1.913   3.681  11.557  2.2569  1.3731  1.0150
  693MOL0     H91459   1.742   3.835  11.484 -1.5850  4.8554  1.1800
  693MOL0     H91460   1.496   4.386  11.745  0.2451 -1.6077  0.9056
  693MOL0     H91461   1.379   4.550  11.611 -1.2151 -0.1052 -0.6260
  693MOL0     H91462   2.015   5.109  10.391  0.3049  0.8725  1.1420
  693MOL0     H91463   2.126   5.323  10.417  0.9880  2.8538 -3.0348
  693MOL0     H91464   2.299   5.783  10.023 -0.1402  2.2424  0.6065
  693MOL0     H91465   2.432   5.973  10.075 -0.8405  0.5758  1.1676
  693MOL0     H91466   2.515   6.156  10.196  1.5035  0.4668 -0.3674
  693MOL0     H91467   2.671   6.087  10.161  1.5755 -0.2577  1.8430
  693MOL0     H91468   2.629   6.211  10.433  2.4090 -1.3017  1.1881
  693MOL0     H91469   2.780   6.175  10.350  1.2637 -1.6315 -3.8747
  693MOL0     H91470   2.612   6.370  10.201  0.5383 -3.1656 -1.0217
  693MOL0     H91471   2.787   6.373  10.231  0.0449  1.5304  0.7084
  693MOL0     H91472   2.743   6.440  10.467 -1.9303  1.3641  0.7662
  693MOL0     H91473   2.704   6.568  10.351 -3.4896  2.2547  0.6598
  693MOL0     H91474   2.342   6.492  10.548  0.5816  1.7851 -1.0380
  693MOL0     H91475   2.558   5.787  10.442  3.9870  2.3494 -1.8810
  693MOL0     H91476   2.442   5.587  10.381  1.9852  1.8363  1.9264
  694MOL0     O91477   8.083   8.390   4.301  0.0070  0.0771  0.7032
  694MOL0     C91478   8.051   8.491   4.231  0.0400  0.8614 -0.7007
  694MOL0     O91479   8.143   8.575   4.164  0.4759  0.4142 -0.3675
  694MOL0     C91480   8.272   8.537   4.158 -0.3416  0.6128 -0.1414
  694MOL0     C91481   8.315   8.518   4.031 -0.1967  0.4789  0.3587
  694MOL0     C91482   8.444   8.466   4.009  0.5632  0.2511  0.3022
  694MOL0     C91483   8.538   8.454   4.119  0.5526  0.8221  0.0057
  694MOL0     O91484   8.657   8.399   4.086 -0.0367  0.4556 -0.8111
  694MOL0     C91485   8.728   8.330   4.199  0.0109  0.2003  0.4375
  694MOL0     C91486   8.860   8.275   4.154 -0.9342 -0.1049 -1.0189
  694MOL0     C91487   8.907   8.155   4.245  0.0376  0.0535  0.3018
  694MOL0     C91488   8.912   8.198   4.393 -1.0376 -0.3244 -0.3414
  694MOL0     C91489   9.001   8.321   4.410  0.2671  0.5598 -0.8446
  694MOL0     C91490   9.147   8.303   4.369  0.7222 -0.0598 -0.0592
  694MOL0     C91491   9.247   8.405   4.411 -0.5269 -0.3035 -0.5046
  694MOL0     C91492   9.386   8.371   4.362 -0.2641  0.8265 -0.7784
  694MOL0     N91493   9.428   8.230   4.357 -0.0523 -0.4712 -0.8853
  694MOL0     C91494   9.477   8.160   4.461 -0.4442  0.5626 -0.5146
  694MOL0     C91495   9.476   8.023   4.422 -0.0101  0.3902  0.6726
  694MOL0     C91496   9.509   7.896   4.495 -0.0728 -0.0232  0.5351
  694MOL0     C91497   9.398   7.825   4.581 -0.9531  0.0964 -0.3261
  694MOL0     C91498   9.443   7.679   4.612  0.1619  0.4366  1.2168
  694MOL0     C91499   9.577   7.663   4.700 -0.6245  0.0500 -0.4248
  694MOL0     O91500   9.543   7.703   4.832  0.4655  0.4732 -0.9315
  694MOL0     C91501   9.625   7.671   4.936  0.1767 -0.2236  0.3055
  694MOL0     C91502   9.750   7.604   4.933 -0.2416  0.3959 -0.7956
  694MOL0     C91503   9.823   7.569   5.048 -0.0470 -0.3076  1.0397
  694MOL0     C91504   9.776   7.603   5.172 -1.2798 -0.2203  0.3045
  694MOL0     C91505   9.849   7.551   5.291 -0.3116  0.5224  0.1598
  694MOL0     O91506   9.971   7.473   5.267  0.2916  1.1329 -0.1017
  694MOL0     C91507  10.033   7.414   5.377 -0.3359  0.0297  0.4608
  694MOL0     C91508  10.025   7.457   5.516  0.8389  0.3364  0.4249
  694MOL0     C91509  10.096   7.393   5.616  0.2542  1.0308  0.1154
  694MOL0     C91510  10.179   7.287   5.577  0.1963  1.5722 -0.6291
  694MOL0     O91511  10.235   7.220   5.677 -0.1670 -0.0466  1.0266
  694MOL0     C91512  10.296   7.097   5.653  0.5838 -0.3753 -0.6440
  694MOL0     C91513  10.388   7.068   5.772 -0.5025  0.0265  0.0129
  694MOL0     C91514  10.410   6.918   5.807  1.2626  1.0364  0.1275
  694MOL0     C91515  10.460   6.917   5.951  0.1298 -0.4893  0.6219
  694MOL0     C91516  10.532   6.787   5.982  0.6817 -0.5474  0.8590
  694MOL0     C91517  10.558   6.774   6.130  0.1981  0.4219  0.1295
  694MOL0     C91518  10.607   6.634   6.151 -0.4843  0.5809  0.1037
  694MOL0     C91519  10.646   6.606   6.303 -0.7174  0.0034  0.1300
  694MOL0    Cl91520  10.653   6.431   6.336 -0.0487  0.1481 -0.3234
  694MOL0     C91521  10.181   7.246   5.440 -0.3876  0.5289  0.2088
  694MOL0     C91522  10.118   7.315   5.333  0.1117  0.2880 -0.5366
  694MOL0     O91523   9.784   7.564   5.393  0.0902 -0.0115 -0.1358
  694MOL0     C91524   9.656   7.675   5.183 -0.4443 -1.0800  0.6807
  694MOL0     C91525   9.586   7.708   5.061  0.0457  0.4171  0.3563
  694MOL0     N91526   9.427   8.026   4.289  0.6680 -0.1025 -0.4472
  694MOL0     N91527   9.403   8.153   4.251 -0.3124  0.9037  0.3563
  694MOL0     C91528   8.497   8.487   4.247 -0.2075  0.4382 -0.0883
  694MOL0     C91529   8.365   8.530   4.268  0.0779  1.3447 -0.2626
  694MOL0     C91530   7.910   8.522   4.222  0.2300 -0.8266 -0.5347
  694MOL0     C91531   7.870   8.602   4.118  0.2259 -0.7733  0.8799
  694MOL0     C91532   7.732   8.628   4.091  0.0884  0.3213  0.7043
  694MOL0     C91533   7.634   8.560   4.164 -0.3047 -0.2269 -0.7852
  694MOL0     O91534   7.505   8.574   4.124 -0.1543  0.1350  0.1054
  694MOL0     C91535   7.410   8.472   4.158 -0.1467 -0.4517  0.3295
  694MOL0     C91536   7.271   8.505   4.108 -0.5424 -0.8546 -0.1145
  694MOL0     C91537   7.252   8.529   3.961 -0.3892  0.8645 -0.4567
  694MOL0     C91538   7.283   8.398   3.869 -0.3261  0.3157 -0.2146
  694MOL0     C91539   7.429   8.362   3.865 -1.1947 -0.3169  0.4541
  694MOL0     C91540   7.544   8.332   3.848 -0.1261  0.4710 -0.3627
  694MOL0     C91541   7.674   8.479   4.274 -1.4056  0.2970  0.2965
  694MOL0     C91542   7.807   8.464   4.307  0.2344  0.1766  0.0186
  694MOL0     H91543   8.246   8.529   3.947 -2.0871  0.1764  1.8035
  694MOL0     H91544   8.468   8.432   3.909  2.1073 -2.7892  1.5487
  694MOL0     H91545   8.658   8.251   4.229 -0.9974  1.8822  2.8677
  694MOL0     H91546   8.742   8.399   4.283  0.6717 -0.9807  1.3308
  694MOL0     H91547   8.924   8.363   4.149  0.0925 -0.8999 -2.5862
  694MOL0     H91548   8.847   8.231   4.054 -2.0465  1.5978 -1.6819
  694MOL0     H91549   9.006   8.118   4.220  0.3383  0.2841  1.1213
  694MOL0     H91550   8.837   8.073   4.225  0.3666 -0.4116  1.0406
  694MOL0     H91551   8.816   8.233   4.432  0.6266  0.1558  3.8394
  694MOL0     H91552   8.947   8.116   4.455  1.4229 -0.6610 -2.0450
  694MOL0     H91553   9.005   8.360   4.512 -0.6355  0.6963 -0.8446
  694MOL0     H91554   8.963   8.412   4.362 -0.4168  1.6242  1.5468
  694MOL0     H91555   9.155   8.279   4.263 -3.5608  1.1627 -0.8663
  694MOL0     H91556   9.181   8.207   4.409  1.8704  1.1081  1.9070
  694MOL0     H91557   9.222   8.508   4.385 -0.2401 -0.2424 -0.5429
  694MOL0     H91558   9.231   8.401   4.519  0.7399  1.3045 -0.2136
  694MOL0     H91559   9.460   8.413   4.431 -0.2280  0.9956 -0.9219
  694MOL0     H91560   9.393   8.412   4.261  1.4114 -0.8985 -1.4348
  694MOL0     H91561   9.504   8.205   4.556 -1.7050  0.5049 -0.1105
  694MOL0     H91562   9.600   7.907   4.554  1.3451  1.9027 -1.8658
  694MOL0     H91563   9.534   7.831   4.412 -1.4021  1.9458 -1.5386
  694MOL0     H91564   9.299   7.826   4.534 -1.9510 -2.6820  1.4610
  694MOL0     H91565   9.409   7.883   4.673  2.4127 -1.0781  0.1528
  694MOL0     H91566   9.360   7.634   4.667 -0.7753  1.8045  0.9596
  694MOL0     H91567   9.448   7.617   4.523 -2.1559  0.5070  0.9996
  694MOL0     H91568   9.656   7.736   4.681 -0.7604  1.0473  2.4802
  694MOL0     H91569   9.624   7.564   4.701  3.4009  1.7983 -0.4311
  694MOL0     H91570   9.796   7.568   4.842 -2.4178  1.3735 -2.3464
  694MOL0     H91571   9.911   7.507   5.038  0.1995  0.1519  0.2649
  694MOL0     H91572   9.961   7.539   5.546 -1.4167 -2.3812  3.7794
  694MOL0     H91573  10.080   7.417   5.720 -2.3782 -2.9126  0.8511
  694MOL0     H91574  10.361   7.086   5.566  1.7368  1.4136 -0.0529
  694MOL0     H91575  10.220   7.020   5.636  1.6290 -0.6276 -5.6947
  694MOL0     H91576  10.342   7.120   5.857  2.6512  0.7812  1.4277
  694MOL0     H91577  10.485   7.119   5.765  1.1798 -2.5439  2.1591
  694MOL0     H91578  10.481   6.879   5.734 -0.7824  0.1833 -1.5229
  694MOL0     H91579  10.310   6.875   5.815  1.9938 -0.6731  0.5139
  694MOL0     H91580  10.530   7.001   5.959 -1.5681  0.8086  2.8269
  694MOL0     H91581  10.386   6.920   6.030  0.8967  3.5073  1.4461
  694MOL0     H91582  10.625   6.774   5.926 -0.4192 -0.7807 -1.0062
  694MOL0     H91583  10.476   6.701   5.944  1.7242  0.1908 -2.7321
  694MOL0     H91584  10.462   6.780   6.181  0.5945 -0.5836  1.0290
  694MOL0     H91585  10.631   6.845   6.171  1.5165 -0.8591  0.0894
  694MOL0     H91586  10.534   6.564   6.111 -1.2758  0.2636  1.9846
  694MOL0     H91587  10.700   6.612   6.098 -0.1842 -1.0726  1.2206
  694MOL0     H91588  10.586   6.658   6.378  1.1830  2.2954  0.2091
  694MOL0     H91589  10.745   6.653   6.314 -1.0619  0.6424  0.5450
  694MOL0     H91590  10.245   7.164   5.411  0.5281  1.1765  0.3320
  694MOL0     H91591  10.149   7.303   5.230  4.9686 -0.5533  0.7650
  694MOL0     H91592   9.629   7.708   5.282 -1.3458 -1.3404  0.5336
  694MOL0     H91593   9.500   7.773   5.075 -2.2241 -1.8493 -1.9663
  694MOL0     H91594   8.566   8.494   4.331  0.3436 -2.9027 -0.1369
  694MOL0     H91595   8.322   8.538   4.368 -2.1968 -2.8207 -0.7062
  694MOL0     H91596   7.947   8.633   4.048 -0.7356 -2.0676 -0.8119
  694MOL0     H91597   7.712   8.687   4.002 -0.0741 -3.3219 -1.8984
  694MOL0     H91598   7.415   8.457   4.266  0.5206  1.9894  0.6963
  694MOL0     H91599   7.429   8.372   4.118 -3.1198 -1.0527  0.1482
  694MOL0     H91600   7.192   8.437   4.139 -0.9091 -0.4003 -0.0484
  694MOL0     H91601   7.255   8.602   4.156  2.1758  0.3152 -1.3076
  694MOL0     H91602   7.307   8.617   3.926 -0.7682  1.2254 -0.1536
  694MOL0     H91603   7.145   8.545   3.946 -1.0966 -2.4079  0.4515
  694MOL0     H91604   7.228   8.315   3.914 -0.9612  1.1208  0.5212
  694MOL0     H91605   7.238   8.420   3.771  1.0494 -2.7904 -1.6912
  694MOL0     H91606   7.641   8.297   3.818 -1.0897 -1.0153 -1.9407
  694MOL0     H91607   7.609   8.427   4.344  0.7427  0.7952  2.7931
  694MOL0     H91608   7.838   8.404   4.392  1.3372 -1.1777 -1.2940
  695MOL0     O91609   6.512   5.563   7.907 -0.4830 -1.3739 -0.1319
  695MOL0     C91610   6.610   5.500   7.944 -0.9631 -0.4301  0.1658
  695MOL0     O91611   6.644   5.378   7.893  0.2065 -0.2963  0.1431
  695MOL0     C91612   6.590   5.314   7.785 -0.9871  0.4904 -0.1153
  695MOL0     C91613   6.546   5.373   7.672 -0.3304 -0.1232 -0.3407
  695MOL0     C91614   6.480   5.292   7.585 -0.5476  0.9668  0.3013
  695MOL0     C91615   6.491   5.151   7.593 -0.7919 -0.4448  0.0143
  695MOL0     O91616   6.452   5.074   7.483 -0.4460 -0.5644  0.3192
  695MOL0     C91617   6.391   4.945   7.503 -0.7417 -0.7995 -0.5543
  695MOL0     C91618   6.345   4.905   7.364 -0.6764  0.3466 -0.8641
  695MOL0     C91619   6.289   4.759   7.359  0.1215  1.0336  0.1826
  695MOL0     C91620   6.232   4.741   7.216  0.2047 -0.5522  0.6860
  695MOL0     C91621   6.153   4.612   7.184  1.0457 -0.4563 -0.0891
  695MOL0     C91622   6.252   4.486   7.194 -0.1484  0.3544  1.1159
  695MOL0     C91623   6.177   4.353   7.174  0.1761  0.1301 -0.6760
  695MOL0     C91624   6.098   4.323   7.299 -0.5632  1.6528 -1.1684
  695MOL0     N91625   6.038   4.184   7.301 -0.3458 -0.2714 -0.0666
  695MOL0     C91626   5.944   4.136   7.214 -0.4426  0.9643  0.0241
  695MOL0     C91627   5.947   3.999   7.226 -0.2731 -0.2118  0.5867
  695MOL0     C91628   5.869   3.896   7.153  0.0921 -0.0021 -0.2356
  695MOL0     C91629   5.953   3.804   7.063  0.0721 -1.1533 -0.5674
  695MOL0     C91630   6.037   3.696   7.134 -0.3412 -0.3736 -1.0910
  695MOL0     C91631   5.966   3.589   7.215 -1.2750  0.1416  0.7864
  695MOL0     O91632   6.068   3.518   7.279 -0.7587 -0.3406 -0.4721
  695MOL0     C91633   6.046   3.421   7.371  0.4034  0.0004 -0.1748
  695MOL0     C91634   6.161   3.344   7.416 -0.9079  0.6804  0.3905
  695MOL0     C91635   6.146   3.251   7.518 -0.6073 -0.0125  0.0239
  695MOL0     C91636   6.027   3.229   7.582  0.7644 -0.6042 -0.7857
  695MOL0     C91637   6.027   3.127   7.679  0.4960  0.0347 -0.1734
  695MOL0     O91638   6.139   3.059   7.698  0.6721  0.7470  0.2687
  695MOL0     C91639   6.172   2.962   7.782  0.9725 -0.5392 -1.3340
  695MOL0     C91640   6.296   2.912   7.781  1.1461 -0.6428 -0.0341
  695MOL0     C91641   6.337   2.810   7.868 -0.2286  0.1277 -0.1756
  695MOL0     C91642   6.244   2.754   7.960 -0.3697  0.6476 -0.2537
  695MOL0     O91643   6.277   2.633   8.024  0.1592  0.1589 -0.5377
  695MOL0     C91644   6.282   2.517   7.941  0.2695 -0.1909 -0.5202
  695MOL0     C91645   6.319   2.407   8.037  0.3163  1.2208  0.7617
  695MOL0     C91646   6.381   2.290   7.954 -0.6221 -1.1400 -0.1578
  695MOL0     C91647   6.414   2.158   8.025  1.0521  0.1497 -0.3203
  695MOL0     C91648   6.517   2.182   8.135  0.4815  1.2874  0.8580
  695MOL0     C91649   6.536   2.056   8.227  0.3136  0.2550  0.7969
  695MOL0     C91650   6.659   2.065   8.318  0.9413  0.2258  0.2731
  695MOL0     C91651   6.680   1.957   8.426  0.1519  0.2322 -0.4858
  695MOL0    Cl91652   6.573   1.951   8.554 -0.1118 -0.0470 -0.4715
  695MOL0     C91653   6.117   2.808   7.970  0.1529  0.4463 -0.4384
  695MOL0     C91654   6.089   2.912   7.883  0.7280  0.2037  0.0636
  695MOL0     O91655   5.923   3.106   7.735  0.5710  0.4651 -1.1386
  695MOL0     C91656   5.916   3.300   7.540 -0.4731 -0.0911 -0.2271
  695MOL0     C91657   5.926   3.398   7.437  0.1135  0.2837  0.8405
  695MOL0     N91658   6.032   3.971   7.328 -0.3398  0.3351  0.0572
  695MOL0     N91659   6.091   4.077   7.366  0.3129  0.8865  0.5157
  695MOL0     C91660   6.569   5.091   7.690  0.5251 -0.8395  0.2256
  695MOL0     C91661   6.602   5.176   7.796 -0.3750  0.0137  0.1515
  695MOL0     C91662   6.688   5.538   8.062  0.0381  0.1673 -0.0268
  695MOL0     C91663   6.803   5.468   8.102  0.6447  0.0282  1.1995
  695MOL0     C91664   6.872   5.507   8.212  0.0236  0.7461 -0.3030
  695MOL0     C91665   6.829   5.617   8.280 -0.6388  0.3069  0.1202
  695MOL0     O91666   6.903   5.656   8.394 -0.4574  0.0991  0.0312
  695MOL0     C91667   6.907   5.560   8.494 -0.0884  0.8471 -0.3349
  695MOL0     C91668   6.910   5.613   8.641 -0.4238 -1.1911 -0.2899
  695MOL0     C91669   7.039   5.701   8.658 -1.2540  0.8228  0.4646
  695MOL0     C91670   7.085   5.728   8.804 -0.3939  0.2592  0.0804
  695MOL0     C91671   7.217   5.787   8.791  0.8324 -0.6680 -0.6958
  695MOL0     C91672   7.332   5.829   8.795  0.6104  0.1351 -0.6583
  695MOL0     C91673   6.729   5.701   8.232  0.8262 -1.1242 -0.3775
  695MOL0     C91674   6.651   5.660   8.132 -0.1207 -0.0578  0.8785
  695MOL0     H91675   6.556   5.480   7.654  0.1799 -0.2548 -0.8729
  695MOL0     H91676   6.433   5.337   7.498 -3.0295 -1.3431  0.3281
  695MOL0     H91677   6.314   4.950   7.581 -0.0554  3.6414  0.1152
  695MOL0     H91678   6.459   4.868   7.541 -2.8820 -1.0008  3.5122
  695MOL0     H91679   6.437   4.902   7.306  0.1061 -1.4714  0.4137
  695MOL0     H91680   6.282   4.985   7.323 -0.8489 -0.1532 -1.6070
  695MOL0     H91681   6.212   4.727   7.429  1.3414 -0.0434  1.0832
  695MOL0     H91682   6.370   4.685   7.363  1.8736  2.4231 -3.7310
  695MOL0     H91683   6.171   4.829   7.190 -1.1404 -1.3541  1.0407
  695MOL0     H91684   6.312   4.757   7.143 -0.9393 -2.8732 -1.2105
  695MOL0     H91685   6.112   4.623   7.083 -1.7292 -1.6986  0.7776
  695MOL0     H91686   6.069   4.599   7.253 -0.3852  3.3278 -0.8871
  695MOL0     H91687   6.288   4.471   7.296  2.7815  3.1579  0.6542
  695MOL0     H91688   6.338   4.498   7.129 -1.0989  1.3573 -0.0134
  695MOL0     H91689   6.101   4.371   7.098  0.8114 -1.1815 -1.6558
  695MOL0     H91690   6.256   4.280   7.157  1.8982  1.8247 -0.3199
  695MOL0     H91691   6.009   4.387   7.304 -0.5054  1.6120  1.6887
  695MOL0     H91692   6.162   4.325   7.387 -0.8286  0.9574 -0.9559
  695MOL0     H91693   5.886   4.196   7.144  0.9688 -0.2943 -2.3796
  695MOL0     H91694   5.788   3.942   7.094  1.2274  2.9456  0.3208
  695MOL0     H91695   5.815   3.833   7.225 -1.6037  0.8207 -0.7239
  695MOL0     H91696   6.015   3.869   7.000 -1.2241  0.8295  0.0991
  695MOL0     H91697   5.882   3.755   6.996 -1.9078 -0.0142  0.6022
  695MOL0     H91698   6.104   3.657   7.057  1.2916  0.8047 -0.3454
  695MOL0     H91699   6.109   3.734   7.208 -1.1945 -1.9891  0.6576
  695MOL0     H91700   5.893   3.532   7.156 -2.2016  2.1837 -0.1369
  695MOL0     H91701   5.901   3.641   7.286 -2.4128  1.5599 -1.2097
  695MOL0     H91702   6.257   3.370   7.374 -1.4737  0.5035 -1.0616
  695MOL0     H91703   6.241   3.210   7.553  0.4166  2.5787  0.5128
  695MOL0     H91704   6.365   2.944   7.703 -1.8902  0.1664 -2.5754
  695MOL0     H91705   6.436   2.763   7.864  0.4924  1.6573 -2.7192
  695MOL0     H91706   6.365   2.532   7.871  0.1579  0.0615 -0.6011
  695MOL0     H91707   6.193   2.494   7.882  0.9492  1.4076 -2.2723
  695MOL0     H91708   6.237   2.379   8.103  0.6767  2.6954  1.9081
  695MOL0     H91709   6.396   2.434   8.110  0.6299  1.5753  0.3130
  695MOL0     H91710   6.469   2.321   7.896 -0.9427 -1.7779 -1.0155
  695MOL0     H91711   6.307   2.257   7.881 -0.4152 -2.3470  0.1481
  695MOL0     H91712   6.322   2.110   8.060  1.3822  1.0172  1.8920
  695MOL0     H91713   6.445   2.085   7.950 -2.4397  1.2945 -3.1679
  695MOL0     H91714   6.489   2.262   8.204  0.8321 -0.3044  2.9492
  695MOL0     H91715   6.605   2.211   8.078 -0.2207 -1.0650 -1.6468
  695MOL0     H91716   6.559   1.977   8.155 -1.9908  1.3646 -1.2867
  695MOL0     H91717   6.445   2.038   8.284 -0.1538  1.2085  0.3830
  695MOL0     H91718   6.754   2.066   8.265  1.0765  1.3284  0.5112
  695MOL0     H91719   6.655   2.164   8.364 -0.8060 -0.0314  0.7522
  695MOL0     H91720   6.785   1.968   8.451  0.2133  0.5511 -0.8743
  695MOL0     H91721   6.675   1.859   8.378  0.2886  0.6053 -1.2730
  695MOL0     H91722   6.045   2.761   8.036  0.0937  2.3255  0.9356
  695MOL0     H91723   5.987   2.938   7.908 -0.1231 -3.1032  0.5075
  695MOL0     H91724   5.816   3.283   7.579 -0.1800  1.4333  1.2974
  695MOL0     H91725   5.829   3.439   7.410 -0.2694 -1.4641 -0.6176
  695MOL0     H91726   6.591   4.988   7.714  1.7662 -0.2234  1.9605
  695MOL0     H91727   6.650   5.145   7.888 -2.1257  0.6369  1.3228
  695MOL0     H91728   6.848   5.386   8.047  1.7922 -1.2290  3.8330
  695MOL0     H91729   6.957   5.445   8.238 -1.3472 -0.3667  1.7872
  695MOL0     H91730   7.004   5.512   8.476 -0.8101 -0.1882 -1.5533
  695MOL0     H91731   6.838   5.476   8.498  0.5301  0.2851 -1.2177
  695MOL0     H91732   6.825   5.682   8.649  2.1960  3.4483 -5.6492
  695MOL0     H91733   6.916   5.533   8.716  3.9187 -1.3769 -0.5863
  695MOL0     H91734   7.035   5.793   8.598  1.6784  0.8288  0.1359
  695MOL0     H91735   7.123   5.646   8.614 -1.6662 -1.0275  1.8696
  695MOL0     H91736   7.017   5.796   8.857  1.2559  1.8679  0.2399
  695MOL0     H91737   7.089   5.628   8.849  2.9961 -1.0956 -2.7401
  695MOL0     H91738   7.428   5.874   8.785  0.1245  0.9269 -2.2141
  695MOL0     H91739   6.707   5.784   8.298  2.5901 -2.3125  1.8182
  695MOL0     H91740   6.556   5.708   8.112  0.2340 -0.0340 -0.9598
  696MOL0     O91741   6.992   2.881   9.333 -0.0982 -0.1134 -0.0972
  696MOL0     C91742   7.034   2.844   9.438 -0.0976 -0.1907  0.4667
  696MOL0     O91743   7.121   2.743   9.458  0.0463 -0.0606 -0.3405
  696MOL0     C91744   7.196   2.672   9.363  0.3739 -1.2304  0.4198
  696MOL0     C91745   7.220   2.718   9.238 -1.2761  0.5042  0.2542
  696MOL0     C91746   7.304   2.654   9.148 -0.2757  0.1130  0.8076
  696MOL0     C91747   7.369   2.538   9.183  0.6254 -0.8866  0.0779
  696MOL0     O91748   7.444   2.476   9.085  0.0555 -0.6948  0.1723
  696MOL0     C91749   7.554   2.559   9.026  0.2529  0.8463 -0.6954
  696MOL0     C91750   7.698   2.549   9.085 -0.0971 -0.1545  1.8229
  696MOL0     C91751   7.702   2.600   9.227 -0.3318  0.5304 -0.2884
  696MOL0     C91752   7.670   2.752   9.225  0.3755  0.4143  0.2073
  696MOL0     C91753   7.691   2.818   9.358  0.5653  0.5218  0.2396
  696MOL0     C91754   7.644   2.968   9.358 -0.1124 -0.4004 -0.8902
  696MOL0     C91755   7.615   3.036   9.497 -0.3925 -0.6220 -0.1037
  696MOL0     C91756   7.723   3.027   9.600 -0.3334 -0.3620 -0.5663
  696MOL0     N91757   7.694   3.118   9.708 -0.5730 -0.2224 -0.1399
  696MOL0     C91758   7.662   3.085   9.838 -0.2300  0.9833  1.4854
  696MOL0     C91759   7.680   3.198   9.914  0.1996  0.9624  0.1199
  696MOL0     C91760   7.651   3.179  10.064 -0.3540 -0.5187  0.6828
  696MOL0     C91761   7.543   3.287  10.097  0.1644  0.3157  0.0452
  696MOL0     C91762   7.480   3.277  10.238  0.6741 -0.1018 -0.7484
  696MOL0     C91763   7.363   3.374  10.268 -1.5458  0.8492 -0.6164
  696MOL0     O91764   7.275   3.364  10.163 -1.0023  0.8116 -0.3705
  696MOL0     C91765   7.171   3.453  10.172  0.1995 -0.1160 -0.0151
  696MOL0     C91766   7.079   3.433  10.076  0.7477  0.4916 -0.0773
  696MOL0     C91767   6.961   3.496  10.066  0.0777 -0.2490 -0.3720
  696MOL0     C91768   6.926   3.593  10.156  0.6427  0.2490  0.5665
  696MOL0     C91769   6.787   3.654  10.157  0.6870 -0.4313 -0.0950
  696MOL0     O91770   6.755   3.755  10.237 -0.9489  0.1631 -0.0780
  696MOL0     C91771   6.620   3.786  10.259  0.6999 -0.3724  0.5595
  696MOL0     C91772   6.570   3.885  10.177  0.6594  1.1582  0.0413
  696MOL0     C91773   6.439   3.930  10.195 -0.1417 -0.9741 -0.5618
  696MOL0     C91774   6.361   3.883  10.300  1.1768 -0.6649  0.7448
  696MOL0     O91775   6.242   3.957  10.323 -0.3889  0.8248  0.3013
  696MOL0     C91776   6.163   3.922  10.436 -0.5604  0.2925  0.0841
  696MOL0     C91777   6.033   3.996  10.430  0.6510  0.0051 -1.1292
  696MOL0     C91778   5.921   3.939  10.530  0.1127 -0.9214 -0.0441
  696MOL0     C91779   5.944   3.938  10.683 -0.2981  0.5870  0.7343
  696MOL0     C91780   5.830   3.890  10.744  0.3147 -0.2790 -0.4739
  696MOL0     C91781   5.828   3.887  10.899  0.4211  0.3117  0.2885
  696MOL0     C91782   5.922   3.778  10.943  0.5399 -0.1479 -1.1895
  696MOL0     C91783   6.004   3.829  11.062 -0.9649  0.7432  0.1393
  696MOL0    Cl91784   6.104   3.699  11.104 -0.1962 -0.2361 -0.2290
  696MOL0     C91785   6.422   3.789  10.388 -0.8519 -0.2423  0.7800
  696MOL0     C91786   6.544   3.730  10.362 -0.5543 -0.0895 -0.8304
  696MOL0     O91787   6.709   3.610  10.071 -0.3335 -0.4721 -0.8112
  696MOL0     C91788   7.018   3.621  10.257  0.1095 -0.2415 -1.0171
  696MOL0     C91789   7.143   3.556  10.274 -0.1914  0.2222  0.1030
  696MOL0     N91790   7.730   3.290   9.831  0.4471  0.3310 -0.8297
  696MOL0     N91791   7.749   3.244   9.711 -0.3683  0.5023  0.6607
  696MOL0     C91792   7.341   2.483   9.307 -0.1121  0.4733  0.6460
  696MOL0     C91793   7.265   2.545   9.399  0.3559  0.4010  0.5193
  696MOL0     C91794   6.982   2.910   9.559  0.7292 -0.5805 -0.6917
  696MOL0     C91795   6.864   2.999   9.553  0.3938  0.7680 -1.0799
  696MOL0     C91796   6.809   3.062   9.666  0.1363  0.2364  0.2845
  696MOL0     C91797   6.873   3.030   9.793  0.1493 -0.0977 -0.2224
  696MOL0     O91798   6.827   3.076   9.914 -0.2813  0.2711 -0.0275
  696MOL0     C91799   6.681   3.108   9.926 -0.1665  0.2512 -0.0034
  696MOL0     C91800   6.648   3.106  10.080 -0.6217  0.6635 -0.2714
  696MOL0     C91801   6.719   3.225  10.136  0.1427  0.3708  0.1139
  696MOL0     C91802   6.740   3.219  10.292  0.0794  0.1686 -0.0792
  696MOL0     C91803   6.658   3.316  10.367  1.1195 -0.4940  0.3875
  696MOL0     C91804   6.589   3.388  10.446  0.4320  0.5573  0.1218
  696MOL0     C91805   6.976   2.943   9.804  0.3956 -0.5606  1.2190
  696MOL0     C91806   7.033   2.894   9.691 -0.1528  0.6028  0.0421
  696MOL0     H91807   7.172   2.812   9.211 -2.8011  0.0683  1.3058
  696MOL0     H91808   7.313   2.705   9.053 -0.0972  1.2165  1.3926
  696MOL0     H91809   7.524   2.664   9.016  2.4869  1.5094 -1.0107
  696MOL0     H91810   7.561   2.528   8.922  0.8126  3.8146 -1.6317
  696MOL0     H91811   7.777   2.592   9.023 -0.9382  1.8834  2.0864
  696MOL0     H91812   7.724   2.443   9.096 -1.6167 -0.5055  2.3207
  696MOL0     H91813   7.800   2.582   9.273 -0.0378  1.2109 -0.6293
  696MOL0     H91814   7.632   2.550   9.294 -0.1754 -0.4773 -0.8631
  696MOL0     H91815   7.718   2.806   9.143  3.4534  0.6318  1.9852
  696MOL0     H91816   7.567   2.775   9.196  0.9776  2.5846 -0.3891
  696MOL0     H91817   7.794   2.803   9.393 -0.0464 -3.1165  0.8860
  696MOL0     H91818   7.632   2.762   9.430  0.1255  0.4461 -0.1735
  696MOL0     H91819   7.558   2.968   9.290 -1.7006 -0.9692  1.0170
  696MOL0     H91820   7.727   3.024   9.314  0.0285  1.7397  1.8556
  696MOL0     H91821   7.603   3.143   9.478  0.2630 -0.5581 -0.1806
  696MOL0     H91822   7.531   2.992   9.552  2.9093 -1.8257  4.6300
  696MOL0     H91823   7.812   3.061   9.546 -0.0039 -0.8553 -0.3413
  696MOL0     H91824   7.742   2.924   9.632 -0.5144 -0.0015  0.7597
  696MOL0     H91825   7.629   2.986   9.868 -1.6809  0.0917 -2.4369
  696MOL0     H91826   7.740   3.198  10.124 -0.2894  0.1744  0.3746
  696MOL0     H91827   7.618   3.076  10.081 -2.0869 -0.0558  0.3104
  696MOL0     H91828   7.473   3.281  10.013 -0.1748  2.0438  0.1651
  696MOL0     H91829   7.586   3.387  10.083  0.1863  0.1222 -1.4115
  696MOL0     H91830   7.425   3.182  10.246 -0.8639  0.8663  1.0563
  696MOL0     H91831   7.567   3.280  10.305 -0.7685  1.2880  1.1778
  696MOL0     H91832   7.404   3.475  10.276 -0.9396  0.6630 -1.2677
  696MOL0     H91833   7.335   3.356  10.373  0.1891  0.8348 -0.1365
  696MOL0     H91834   7.085   3.364   9.992 -0.5745 -0.4266  0.5579
  696MOL0     H91835   6.889   3.472   9.988 -0.5183 -0.1711  0.1435
  696MOL0     H91836   6.624   3.919  10.089 -0.0230 -0.8098 -1.2007
  696MOL0     H91837   6.401   4.006  10.127 -2.4110 -0.6378  0.9668
  696MOL0     H91838   6.205   3.934  10.537 -0.3724 -1.6562  0.2692
  696MOL0     H91839   6.155   3.814  10.425  1.1733  0.3018 -1.8364
  696MOL0     H91840   5.992   3.978  10.330 -2.3484  2.8848 -0.5500
  696MOL0     H91841   6.042   4.103  10.447  1.0647 -0.2556  0.4730
  696MOL0     H91842   5.891   3.843  10.488  2.4383 -0.5797 -2.7972
  696MOL0     H91843   5.836   4.007  10.519 -1.0789 -1.4597  4.0765
  696MOL0     H91844   6.024   3.864  10.683  0.5855  1.4030 -1.8653
  696MOL0     H91845   5.973   4.031  10.734  1.4089 -1.1391  3.1350
  696MOL0     H91846   5.811   3.791  10.703 -3.7142  0.5254 -0.8819
  696MOL0     H91847   5.744   3.953  10.720 -0.0197 -0.6164 -0.1695
  696MOL0     H91848   5.729   3.857  10.932 -0.9680  1.6966 -2.3459
  696MOL0     H91849   5.855   3.985  10.939 -0.7534  0.4645  0.7444
  696MOL0     H91850   5.857   3.698  10.981  0.3982  1.9481  3.6813
  696MOL0     H91851   6.000   3.757  10.869  0.2849 -0.4012 -1.3922
  696MOL0     H91852   5.951   3.874  11.146 -1.2343 -0.4567  0.6183
  696MOL0     H91853   6.068   3.909  11.024  0.8609 -1.1072 -0.8309
  696MOL0     H91854   6.378   3.757  10.482 -0.5655 -0.1136  0.9603
  696MOL0     H91855   6.588   3.669  10.439 -0.9678  1.9895  1.1723
  696MOL0     H91856   6.997   3.706  10.321  1.5350  0.5790 -1.5687
  696MOL0     H91857   7.214   3.574  10.354  0.9449 -1.0157 -0.5745
  696MOL0     H91858   7.394   2.389   9.308  1.8251  1.4770 -0.6904
  696MOL0     H91859   7.250   2.515   9.502  1.9684  0.4103  0.7851
  696MOL0     H91860   6.810   3.019   9.461 -0.0988  2.4346 -0.4576
  696MOL0     H91861   6.725   3.130   9.663  0.2917  0.6098  2.4620
  696MOL0     H91862   6.610   3.045   9.870 -0.5625  2.4412 -2.1403
  696MOL0     H91863   6.653   3.203   9.880 -1.9748 -0.7130 -1.0252
  696MOL0     H91864   6.540   3.115  10.094 -0.9217 -2.0098 -0.3866
  696MOL0     H91865   6.682   3.008  10.117 -4.9310 -1.2189 -0.6988
  696MOL0     H91866   6.646   3.304  10.113  1.3738  1.3701 -0.4250
  696MOL0     H91867   6.817   3.225  10.089  0.2366 -2.4839  0.1314
  696MOL0     H91868   6.721   3.114  10.316  2.2402 -0.6052 -1.4802
  696MOL0     H91869   6.848   3.229  10.307 -0.4241  1.0925  4.3463
  696MOL0     H91870   6.522   3.447  10.505  1.8599 -2.0078  4.7522
  696MOL0     H91871   7.022   2.934   9.902  1.2658  1.2703  1.0157
  696MOL0     H91872   7.125   2.840   9.710 -0.7146 -1.0787 -1.6466
  697MOL0     O91873   8.364   6.449   1.450  0.1816 -0.2366  0.2198
  697MOL0     C91874   8.399   6.537   1.529  0.7927  0.4914  0.4402
  697MOL0     O91875   8.347   6.666   1.532 -0.6533  0.3307 -0.0052
  697MOL0     C91876   8.255   6.700   1.438 -0.3240  0.5516  0.7286
  697MOL0     C91877   8.303   6.745   1.313 -0.7561  0.0476 -0.4466
  697MOL0     C91878   8.221   6.760   1.202  0.0997 -1.2030  0.4832
  697MOL0     C91879   8.082   6.756   1.215  0.6749  0.3926 -0.6100
  697MOL0     O91880   7.997   6.785   1.111  0.7624  0.4033  0.2972
  697MOL0     C91881   7.861   6.810   1.140 -0.5452 -0.4223  0.8028
  697MOL0     C91882   7.788   6.837   0.996 -0.0391  0.4008 -0.4888
  697MOL0     C91883   7.661   6.913   1.003 -0.3959 -0.3888 -0.7904
  697MOL0     C91884   7.539   6.855   1.086  0.9422  0.7594  0.5583
  697MOL0     C91885   7.493   6.705   1.048 -0.0381 -0.3313  0.4819
  697MOL0     C91886   7.446   6.712   0.899 -0.1093 -0.3163 -0.4299
  697MOL0     C91887   7.379   6.581   0.844 -0.0921 -0.1852  0.0784
  697MOL0     C91888   7.290   6.642   0.727  0.4626  0.4530  0.3145
  697MOL0     N91889   7.356   6.695   0.611  0.6349 -0.3282 -0.3317
  697MOL0     C91890   7.333   6.637   0.482 -0.0969  0.2043 -0.5188
  697MOL0     C91891   7.400   6.715   0.393  0.4760  0.7752 -0.5307
  697MOL0     C91892   7.402   6.695   0.256 -0.6867  0.4066 -0.0129
  697MOL0     C91893   7.500   6.575   0.234 -0.3141  1.0677  0.6321
  697MOL0     C91894   7.524   6.563   0.075  0.4899  0.8314 -0.0196
  697MOL0     C91895   7.656   6.497   0.045  0.2395 -0.9502  0.3209
  697MOL0     O91896   7.690   6.389   0.137 -0.1994 -0.1681 -0.5163
  697MOL0     C91897   7.812   6.332   0.116 -0.0798  0.2939 -0.3571
  697MOL0     C91898   7.858   6.246   0.215  0.2772 -1.0535 -0.6383
  697MOL0     C91899   7.979   6.182   0.225  0.1354  0.0859 -0.2532
  697MOL0     C91900   8.066   6.199   0.121  0.2008  0.5209  0.3965
  697MOL0     C91901   8.194   6.132   0.126 -0.3780  0.2543  0.2176
  697MOL0     O91902   8.265   6.117   0.255  0.4481  0.4499 -0.8393
  697MOL0     C91903   8.398   6.071   0.256  0.4328  0.7397  0.5193
  697MOL0     C91904   8.437   5.970   0.338  0.4007 -0.0092 -0.0579
  697MOL0     C91905   8.571   5.927   0.360  0.2220 -0.7097  0.2404
  697MOL0     C91906   8.671   5.994   0.294 -0.1900 -0.1556 -0.5155
  697MOL0     O91907   8.800   5.961   0.306  0.0447 -0.2736  0.3360
  697MOL0     C91908   8.859   5.976   0.433  0.6461  0.0220  0.5741
  697MOL0     C91909   8.919   6.118   0.437  0.0684  0.9372  0.0930
  697MOL0     C91910   8.984   6.152   0.567  0.2446 -0.2590 -1.1059
  697MOL0     C91911   9.056   6.288   0.551  0.1702  0.0726  1.0293
  697MOL0     C91912   9.110   6.324   0.695 -0.2793  0.3827  0.3120
  697MOL0     C91913   9.171   6.469   0.696 -0.0816  0.5088  0.3302
  697MOL0     C91914   9.200   6.493   0.843  0.7462  0.2009  0.0733
  697MOL0     C91915   9.254   6.640   0.849  0.1886  0.4974  0.0706
  697MOL0    Cl91916   9.424   6.634   0.793  0.2390  0.2006 -0.2896
  697MOL0     C91917   8.634   6.095   0.205 -0.9983 -0.4888 -0.0937
  697MOL0     C91918   8.499   6.133   0.193 -0.3467  0.0817  0.6768
  697MOL0     O91919   8.240   6.103   0.016 -0.0253  0.3136 -0.6542
  697MOL0     C91920   8.028   6.284   0.012  0.0031 -0.2678  0.2828
  697MOL0     C91921   7.909   6.349   0.013  0.7145 -0.6075 -0.4290
  697MOL0     N91922   7.451   6.821   0.461 -0.1253  0.3877  0.5416
  697MOL0     N91923   7.424   6.807   0.586  0.2644 -0.1579  0.4795
  697MOL0     C91924   8.035   6.712   1.339  0.0324 -0.7617  0.9247
  697MOL0     C91925   8.125   6.688   1.447  0.2630 -0.1928 -0.6772
  697MOL0     C91926   8.493   6.491   1.627 -0.1076  0.5933 -0.2000
  697MOL0     C91927   8.520   6.362   1.670  0.0800  0.0627 -0.7061
  697MOL0     C91928   8.616   6.333   1.765 -0.8146  0.3803 -0.3920
  697MOL0     C91929   8.684   6.433   1.838 -0.0726 -0.1505 -0.5859
  697MOL0     O91930   8.749   6.403   1.957  0.3235 -0.1856  0.3338
  697MOL0     C91931   8.832   6.497   2.024 -0.1300  0.9110 -0.8165
  697MOL0     C91932   8.857   6.464   2.174  0.2765  0.1057  0.6231
  697MOL0     C91933   8.926   6.324   2.197 -0.5047  0.1662  0.2447
  697MOL0     C91934   8.983   6.305   2.344  0.3295 -0.5366 -0.2734
  697MOL0     C91935   9.104   6.380   2.374  0.7821  0.2986  0.6471
  697MOL0     C91936   9.212   6.434   2.368  0.8355  0.2768 -0.8088
  697MOL0     C91937   8.675   6.563   1.785 -1.5433 -0.1749 -0.5046
  697MOL0     C91938   8.588   6.591   1.681  0.0456 -0.3160 -0.6837
  697MOL0     H91939   8.409   6.764   1.307 -0.8147  0.9979  1.0264
  697MOL0     H91940   8.254   6.799   1.106  0.3153 -3.7026 -0.5251
  697MOL0     H91941   7.858   6.908   1.189  0.7588  0.5561 -0.9453
  697MOL0     H91942   7.824   6.724   1.195  1.3426  1.1465  4.9540
  697MOL0     H91943   7.777   6.737   0.952 -1.6079  0.5647 -0.5546
  697MOL0     H91944   7.853   6.894   0.930 -1.3031  1.0132 -1.2477
  697MOL0     H91945   7.618   6.938   0.905  0.7254  2.6992 -0.6086
  697MOL0     H91946   7.683   7.006   1.057 -1.9975 -0.0941 -0.5772
  697MOL0     H91947   7.559   6.862   1.194 -0.8369 -1.3444  1.0792
  697MOL0     H91948   7.452   6.916   1.061  2.5314  1.9872 -2.5589
  697MOL0     H91949   7.400   6.677   1.099  0.0472 -0.3662  0.6186
  697MOL0     H91950   7.575   6.634   1.062 -0.5219 -1.2124 -0.9751
  697MOL0     H91951   7.514   6.751   0.822 -1.2546  0.3848 -1.1215
  697MOL0     H91952   7.370   6.789   0.915 -0.2212 -0.1113 -1.8235
  697MOL0     H91953   7.443   6.495   0.821 -2.0877 -1.9540  0.8148
  697MOL0     H91954   7.315   6.543   0.925  0.1717 -0.2028  0.2810
  697MOL0     H91955   7.233   6.718   0.780 -1.4550 -1.1099  0.6315
  697MOL0     H91956   7.216   6.569   0.693  1.5290 -0.0072 -1.1295
  697MOL0     H91957   7.286   6.542   0.462  1.3809 -0.5079 -0.7834
  697MOL0     H91958   7.449   6.779   0.204  0.2457  0.2902  0.6311
  697MOL0     H91959   7.305   6.671   0.211  0.5346 -1.1272 -1.9918
  697MOL0     H91960   7.455   6.488   0.282 -1.3445  0.9981 -0.4232
  697MOL0     H91961   7.596   6.584   0.285  0.3017 -0.7976 -0.1188
  697MOL0     H91962   7.440   6.502   0.040 -0.3078  1.2471  1.0943
  697MOL0     H91963   7.511   6.658   0.022  1.1466  1.3284  0.7062
  697MOL0     H91964   7.729   6.578   0.056  2.0474 -2.0969 -2.1856
  697MOL0     H91965   7.659   6.454  -0.056  2.3700  0.9524 -0.5220
  697MOL0     H91966   7.798   6.219   0.301  2.9576 -1.6667  1.1817
  697MOL0     H91967   7.999   6.131   0.319 -4.1668 -2.9401 -0.6881
  697MOL0     H91968   8.350   5.919   0.380 -1.1978  2.2553 -0.4413
  697MOL0     H91969   8.588   5.834   0.414  1.7799 -2.3351 -2.8007
  697MOL0     H91970   8.926   5.890   0.439  1.5683  0.7436  0.6953
  697MOL0     H91971   8.775   5.965   0.503 -0.5515  2.3410 -0.4037
  697MOL0     H91972   8.842   6.195   0.423  0.1705  1.0819  0.3139
  697MOL0     H91973   8.982   6.131   0.348 -1.0948  2.2117 -0.5861
  697MOL0     H91974   9.065   6.083   0.591  2.6535  1.5842 -3.3704
  697MOL0     H91975   8.903   6.164   0.640 -0.2758  0.2923 -1.7549
  697MOL0     H91976   9.127   6.292   0.468  0.8875  0.8740  1.6739
  697MOL0     H91977   8.981   6.361   0.518  0.3285  0.0672  0.6558
  697MOL0     H91978   9.184   6.246   0.715 -1.5280 -1.4835 -1.8771
  697MOL0     H91979   9.039   6.312   0.776  2.2132 -0.7522  2.4722
  697MOL0     H91980   9.098   6.542   0.660  0.5192  0.5256 -0.8903
  697MOL0     H91981   9.266   6.473   0.643  0.7417  1.0296  1.7801
  697MOL0     H91982   9.113   6.477   0.907  0.9942 -1.0989  0.1153
  697MOL0     H91983   9.282   6.429   0.877  3.8064  2.0944 -3.0367
  697MOL0     H91984   9.248   6.663   0.955 -2.1560  0.5056 -0.0201
  697MOL0     H91985   9.190   6.700   0.783 -0.6506 -1.7371 -1.2542
  697MOL0     H91986   8.699   6.158   0.146 -0.6623  0.0535  0.8354
  697MOL0     H91987   8.495   6.206   0.112  1.3204 -1.9122 -1.3360
  697MOL0     H91988   8.099   6.293  -0.069  0.4493 -3.3698  0.2147
  697MOL0     H91989   7.888   6.422  -0.065 -0.8618  0.3847  0.8652
  697MOL0     H91990   7.930   6.709   1.368  0.0236 -1.8828  0.8215
  697MOL0     H91991   8.089   6.667   1.547 -2.8543  2.7218 -0.9881
  697MOL0     H91992   8.454   6.280   1.640  3.0560 -3.0606  0.5727
  697MOL0     H91993   8.642   6.232   1.794 -0.2990  0.5041 -0.4114
  697MOL0     H91994   8.777   6.592   2.028  0.0277  1.3014 -4.5210
  697MOL0     H91995   8.925   6.513   1.969  2.2810  0.6321  2.7776
  697MOL0     H91996   8.922   6.542   2.215  3.0124  1.6302 -5.4420
  697MOL0     H91997   8.758   6.467   2.221 -1.8775  0.0505 -3.4300
  697MOL0     H91998   9.012   6.314   2.129 -1.0802 -1.6717 -0.2625
  697MOL0     H91999   8.853   6.247   2.170 -1.6368  1.0863  0.6228
  697MOL0     H92000   8.910   6.328   2.422 -0.0129  0.1878 -0.7972
  697MOL0     H92001   8.997   6.196   2.347  1.7990 -0.4534  4.1938
  697MOL0     H92002   9.306   6.484   2.378  1.8274 -1.5084 -0.8777
  697MOL0     H92003   8.734   6.644   1.827  0.0481 -0.8316 -1.4031
  697MOL0     H92004   8.576   6.697   1.662  2.1358  0.1045  0.0300
  698MOL0     O92005   9.990  10.851   5.311 -0.2599 -0.1378 -0.8610
  698MOL0     C92006   9.903  10.907   5.243  0.3588  0.1442  0.0655
  698MOL0     O92007   9.925  11.005   5.148  0.2717 -0.4123 -0.3220
  698MOL0     C92008  10.050  11.057   5.108  0.8382 -0.4859  0.2875
  698MOL0     C92009  10.157  11.054   5.192 -0.7389 -0.4008  0.2925
  698MOL0     C92010  10.273  11.129   5.166  0.4426  1.1379  0.4991
  698MOL0     C92011  10.267  11.213   5.055 -0.3389  0.4928 -0.0950
  698MOL0     O92012  10.390  11.263   5.020  0.0184 -0.8030 -0.4957
  698MOL0     C92013  10.397  11.409   5.023 -0.2517  1.0573  0.5186
  698MOL0     C92014  10.516  11.458   5.117 -0.0164 -0.1613  0.4117
  698MOL0     C92015  10.636  11.369   5.116 -0.5641  0.1814 -0.2477
  698MOL0     C92016  10.755  11.441   5.180 -0.6253  0.3583 -0.3636
  698MOL0     C92017  10.887  11.355   5.182 -1.1875  0.8598  0.5221
  698MOL0     C92018  11.015  11.407   5.247 -0.8677  0.1550  0.1690
  698MOL0     C92019  11.140  11.326   5.195  0.1825 -0.6124  0.2359
  698MOL0     C92020  11.276  11.380   5.241 -0.0684 -0.0055 -0.6474
  698MOL0     N92021  11.312  11.519   5.204  0.7065  0.5601  0.1203
  698MOL0     C92022  11.441  11.546   5.166 -0.0266  0.5573  0.7875
  698MOL0     C92023  11.424  11.661   5.100  0.2704 -0.0310  0.3832
  698MOL0     C92024  11.516  11.750   5.026 -0.6810 -0.7103 -0.3430
  698MOL0     C92025  11.620  11.675   4.967 -1.1699  0.4607  0.2559
  698MOL0     C92026  11.707  11.769   4.881 -0.0087 -0.3038 -0.0739
  698MOL0     C92027  11.799  11.683   4.799 -0.0705  0.4740  0.2877
  698MOL0     O92028  11.853  11.765   4.700  0.0449 -0.0366 -0.1063
  698MOL0     C92029  11.903  11.695   4.592 -0.6635 -0.4200 -0.6226
  698MOL0     C92030  12.025  11.629   4.599  0.9897  0.8895 -0.1851
  698MOL0     C92031  12.067  11.540   4.501 -0.4811  0.5619 -0.5838
  698MOL0     C92032  12.002  11.540   4.377 -0.2504 -1.0120 -0.7434
  698MOL0     C92033  12.061  11.456   4.268 -0.1477 -0.8568  0.6621
  698MOL0     O92034  11.986  11.449   4.152 -0.8058 -0.4831  0.2898
  698MOL0     C92035  12.033  11.427   4.024  0.3531 -0.1017  0.1087
  698MOL0     C92036  12.135  11.498   3.965 -0.4377  0.1940 -0.6750
  698MOL0     C92037  12.164  11.480   3.832 -0.0456 -0.1428 -0.1988
  698MOL0     C92038  12.103  11.388   3.747  0.2494 -0.5326 -0.3551
  698MOL0     O92039  12.133  11.376   3.616 -1.0856  0.7732 -0.4711
  698MOL0     C92040  12.232  11.278   3.619 -0.7288 -0.2754  0.3612
  698MOL0     C92041  12.290  11.281   3.474 -0.1471 -0.0588  0.1121
  698MOL0     C92042  12.404  11.196   3.437 -0.7206  0.0544  0.3309
  698MOL0     C92043  12.526  11.249   3.511  0.2682  0.5027 -0.7520
  698MOL0     C92044  12.629  11.148   3.540  0.3011  0.4673 -0.8763
  698MOL0     C92045  12.756  11.200   3.616  0.2532  0.7729 -0.2279
  698MOL0     C92046  12.746  11.211   3.771 -0.1080 -0.4271  1.1767
  698MOL0     C92047  12.876  11.269   3.824 -0.1110 -0.4128 -0.7118
  698MOL0    Cl92048  13.019  11.162   3.775 -0.4426 -0.1316  0.0601
  698MOL0     C92049  11.996  11.313   3.804  0.7268 -0.2138 -0.4756
  698MOL0     C92050  11.959  11.326   3.942 -0.3462 -0.7140 -0.3378
  698MOL0     O92051  12.171  11.414   4.279 -0.5648 -0.8881  0.4301
  698MOL0     C92052  11.879  11.607   4.362  0.1280 -0.0184 -0.6444
  698MOL0     C92053  11.825  11.679   4.476  0.4064  0.9367 -0.7397
  698MOL0     N92054  11.294  11.707   5.093 -0.5901 -0.3866 -0.3028
  698MOL0     N92055  11.227  11.610   5.144  0.1730  0.0442  1.2562
  698MOL0     C92056  10.151  11.224   4.974  0.7613 -0.3394 -0.3410
  698MOL0     C92057  10.050  11.140   4.996  1.4743  0.0309  1.5061
  698MOL0     C92058   9.761  10.850   5.254 -0.2276  0.1060  0.4791
  698MOL0     C92059   9.642  10.932   5.261 -0.1738 -0.2695  0.7620
  698MOL0     C92060   9.519  10.868   5.292 -0.2905 -0.0495 -0.3535
  698MOL0     C92061   9.504  10.736   5.324 -0.8772 -0.8911  0.1590
  698MOL0     O92062   9.393  10.687   5.382  0.8204  0.1266  0.3365
  698MOL0     C92063   9.299  10.762   5.467 -0.3629  0.1415  1.1409
  698MOL0     C92064   9.205  10.670   5.546  0.7077 -0.2938 -0.8088
  698MOL0     C92065   9.286  10.572   5.640  0.1612 -0.4306  0.1762
  698MOL0     C92066   9.217  10.508   5.759 -1.0018 -0.4278  0.0007
  698MOL0     C92067   9.110  10.418   5.723 -0.2834 -0.0299  0.2299
  698MOL0     C92068   9.011  10.358   5.696 -0.2718 -0.2258  0.3443
  698MOL0     C92069   9.613  10.653   5.307 -0.6689  0.3505  0.4577
  698MOL0     C92070   9.743  10.708   5.274  0.2596  0.7115 -0.0841
  698MOL0     H92071  10.156  11.010   5.291 -2.1212 -0.7816  0.1278
  698MOL0     H92072  10.365  11.119   5.223  1.6837 -1.2730 -1.7137
  698MOL0     H92073  10.306  11.452   5.065  1.0462  4.7450 -0.1012
  698MOL0     H92074  10.414  11.447   4.922  0.5671  0.0103  0.2457
  698MOL0     H92075  10.484  11.483   5.219 -0.4738  1.2100 -0.0412
  698MOL0     H92076  10.531  11.556   5.071  2.0831 -0.8040 -0.3789
  698MOL0     H92077  10.665  11.336   5.016  1.9007  1.8061 -0.1519
  698MOL0     H92078  10.607  11.282   5.177 -0.5978 -1.5419 -2.5708
  698MOL0     H92079  10.772  11.527   5.114  0.0627 -0.0093 -0.6760
  698MOL0     H92080  10.727  11.463   5.284 -1.3027 -0.7287 -0.3120
  698MOL0     H92081  10.909  11.324   5.080  2.1307 -3.0421  2.1400
  698MOL0     H92082  10.866  11.258   5.227  2.1000 -0.1191  0.2422
  698MOL0     H92083  11.008  11.393   5.355 -0.9752  2.2250  0.4847
  698MOL0     H92084  11.009  11.513   5.217 -2.6308 -0.3966 -1.6802
  698MOL0     H92085  11.129  11.226   5.238 -1.0344 -0.4116  0.4494
  698MOL0     H92086  11.136  11.317   5.086 -0.3938 -1.7435  0.3362
  698MOL0     H92087  11.360  11.313   5.223 -1.0939 -1.5666  0.1648
  698MOL0     H92088  11.268  11.367   5.349  1.3101  0.7279 -0.4426
  698MOL0     H92089  11.530  11.485   5.174 -0.0776  0.0654 -1.6706
  698MOL0     H92090  11.566  11.822   5.092 -2.1607  0.5240 -0.5201
  698MOL0     H92091  11.471  11.819   4.955 -2.8970 -0.1629  1.4907
  698MOL0     H92092  11.576  11.597   4.906  1.6784 -0.6891 -0.4947
  698MOL0     H92093  11.689  11.619   5.031  0.8348  2.3473 -0.1123
  698MOL0     H92094  11.644  11.832   4.816  0.8386  2.3190  1.4859
  698MOL0     H92095  11.768  11.841   4.936 -0.7359 -1.7761  2.8150
  698MOL0     H92096  11.745  11.598   4.756  0.1503  0.8856 -0.8639
  698MOL0     H92097  11.876  11.644   4.865  1.0224  1.4402 -0.3824
  698MOL0     H92098  12.074  11.630   4.696 -1.3524 -1.1685  1.1113
  698MOL0     H92099  12.154  11.475   4.511 -0.8467  0.1764  0.1563
  698MOL0     H92100  12.209  11.551   4.023  0.4925  1.3440 -2.8120
  698MOL0     H92101  12.252  11.537   3.804  1.7155 -1.9438  1.2611
  698MOL0     H92102  12.190  11.181   3.646 -3.3425  0.1762 -1.6589
  698MOL0     H92103  12.308  11.298   3.695 -1.2949 -0.5537  1.0143
  698MOL0     H92104  12.317  11.378   3.432  0.3969 -1.5344 -3.3233
  698MOL0     H92105  12.204  11.244   3.417  2.0954 -2.9061 -1.7270
  698MOL0     H92106  12.420  11.205   3.329  1.6771 -0.9897  0.5275
  698MOL0     H92107  12.384  11.090   3.460 -2.4469  0.5051  1.0568
  698MOL0     H92108  12.577  11.317   3.443  1.9112 -0.4098 -0.4827
  698MOL0     H92109  12.490  11.307   3.597 -3.4053 -0.4941 -1.4250
  698MOL0     H92110  12.671  11.105   3.449 -2.1109  2.7036 -3.1901
  698MOL0     H92111  12.587  11.057   3.584 -1.0391  0.5553 -1.9222
  698MOL0     H92112  12.787  11.298   3.577 -0.9176  1.2782  0.0589
  698MOL0     H92113  12.828  11.121   3.594 -2.1438 -1.2240 -1.4299
  698MOL0     H92114  12.661  11.272   3.804 -0.1652  0.7002 -0.8800
  698MOL0     H92115  12.737  11.111   3.814 -1.3570  0.2513  2.6132
  698MOL0     H92116  12.875  11.266   3.933  0.8754 -2.3245 -0.7049
  698MOL0     H92117  12.877  11.373   3.792  0.5978 -0.0677  0.3933
  698MOL0     H92118  11.944  11.245   3.737  0.9533  2.0279 -3.0688
  698MOL0     H92119  11.872  11.275   3.983 -0.7983 -1.6287 -2.2843
  698MOL0     H92120  11.821  11.593   4.271 -0.0668  0.0511 -0.5328
  698MOL0     H92121  11.734  11.738   4.463 -1.6938 -2.4255 -3.3076
  698MOL0     H92122  10.148  11.272   4.877  1.2005 -0.3862 -0.3804
  698MOL0     H92123   9.964  11.143   4.929 -0.3190  0.8344  3.6996
  698MOL0     H92124   9.654  11.038   5.239 -0.6254 -0.9550 -3.8243
  698MOL0     H92125   9.427  10.926   5.297  0.3139  1.0546 -1.5915
  698MOL0     H92126   9.238  10.819   5.396  0.0346  1.0993  1.5432
  698MOL0     H92127   9.352  10.836   5.528  1.8786 -0.5959  0.1932
  698MOL0     H92128   9.147  10.738   5.609  4.2922  0.8126  1.6148
  698MOL0     H92129   9.141  10.613   5.479 -0.2030 -0.1354 -0.1029
  698MOL0     H92130   9.376  10.622   5.676  0.1922  1.8225 -2.6436
  698MOL0     H92131   9.320  10.495   5.570 -0.7709 -0.0351 -0.7399
  698MOL0     H92132   9.292  10.446   5.810 -0.7942  0.0512  0.2914
  698MOL0     H92133   9.180  10.585   5.828  0.8942 -0.5360  1.2119
  698MOL0     H92134   8.914  10.313   5.684  1.1399 -3.1942 -1.0485
  698MOL0     H92135   9.606  10.546   5.318 -2.6359  0.6478  3.3777
  698MOL0     H92136   9.825  10.637   5.281 -0.4737 -0.4289 -2.0914
  699MOL0     O92137   9.379   8.596   1.975  0.5415  0.7913 -0.0837
  699MOL0     C92138   9.280   8.653   1.934  0.3873 -0.3325  0.0701
  699MOL0     O92139   9.159   8.650   2.001  0.4101  0.1719 -0.6809
  699MOL0     C92140   9.133   8.583   2.115 -0.7439 -0.4207  0.2313
  699MOL0     C92141   9.199   8.462   2.159  0.3463  0.9779  0.3601
  699MOL0     C92142   9.158   8.400   2.280 -0.2692 -0.6998 -0.3249
  699MOL0     C92143   9.056   8.456   2.361 -0.3572  1.1431  0.1368
  699MOL0     O92144   9.028   8.399   2.473  0.8415  0.1594 -0.4753
  699MOL0     C92145   8.897   8.341   2.494  1.4136  0.3032  0.4540
  699MOL0     C92146   8.916   8.190   2.497 -0.3569 -0.4381  0.5472
  699MOL0     C92147   9.020   8.154   2.604 -0.8863  0.9576 -0.3838
  699MOL0     C92148   9.025   8.000   2.633  0.5315 -0.4266  0.3719
  699MOL0     C92149   8.964   7.976   2.773 -0.0665 -0.2673  0.2535
  699MOL0     C92150   9.003   7.841   2.830  0.8097 -0.1726  0.6571
  699MOL0     C92151   8.940   7.834   2.965  0.0111 -0.8669 -0.2714
  699MOL0     C92152   8.946   7.697   3.015 -0.2341 -0.6933  0.1056
  699MOL0     N92153   9.073   7.657   3.066 -0.4746 -0.0811  0.0940
  699MOL0     C92154   9.105   7.592   3.189 -0.2033 -0.1406 -0.0948
  699MOL0     C92155   9.241   7.574   3.200  0.4072  0.0267 -0.4190
  699MOL0     C92156   9.325   7.522   3.311  0.1197  0.1464  0.1142
  699MOL0     C92157   9.277   7.545   3.448  0.0490 -0.2253  0.1588
  699MOL0     C92158   9.386   7.576   3.544 -0.3411 -0.2355  0.1514
  699MOL0     C92159   9.344   7.546   3.685 -0.2402 -0.8514 -1.8826
  699MOL0     O92160   9.305   7.414   3.717  0.2282  0.2267  0.1282
  699MOL0     C92161   9.252   7.373   3.841 -0.7670  0.4532 -0.0459
  699MOL0     C92162   9.239   7.240   3.863  0.4987  0.3963  1.8648
  699MOL0     C92163   9.202   7.194   3.992 -0.3006 -0.4570 -1.0571
  699MOL0     C92164   9.176   7.285   4.103  0.3154  0.4242 -0.1463
  699MOL0     C92165   9.156   7.232   4.238 -0.0025  0.1730  0.4684
  699MOL0     O92166   9.137   7.322   4.336  0.1497  0.4954 -0.2067
  699MOL0     C92167   9.121   7.274   4.463  0.8349 -0.3546  0.5986
  699MOL0     C92168   9.018   7.184   4.495 -0.4248  0.1412 -0.1292
  699MOL0     C92169   8.998   7.144   4.629 -0.6731 -0.2460 -0.2316
  699MOL0     C92170   9.081   7.209   4.727 -0.4553  0.1427 -0.6421
  699MOL0     O92171   9.067   7.191   4.865 -0.0035  0.4485  0.9967
  699MOL0     C92172   9.098   7.053   4.901  0.3734 -0.9450  0.1077
  699MOL0     C92173   9.243   7.051   4.935  0.4506 -0.0392  0.4012
  699MOL0     C92174   9.289   6.938   5.020 -0.5416  0.1422 -0.0915
  699MOL0     C92175   9.436   6.937   5.054 -0.2715  0.4943  0.7009
  699MOL0     C92176   9.488   6.797   5.081 -1.1413 -0.1182  0.5146
  699MOL0     C92177   9.642   6.797   5.117 -0.7379 -0.3458  0.0227
  699MOL0     C92178   9.704   6.666   5.059 -0.3006  0.4684 -1.0074
  699MOL0     C92179   9.685   6.537   5.142  0.3568  0.3207  0.1735
  699MOL0    Cl92180   9.512   6.494   5.158  0.5346 -0.4609 -0.0215
  699MOL0     C92181   9.177   7.304   4.690 -0.4414 -0.6294  0.1400
  699MOL0     C92182   9.207   7.334   4.561  0.4230  0.5126  0.3918
  699MOL0     O92183   9.144   7.110   4.248  0.5622  1.0617 -0.0504
  699MOL0     C92184   9.207   7.424   4.076  0.0199 -0.5361 -0.0381
  699MOL0     C92185   9.237   7.461   3.947 -0.1497 -0.1067 -0.8046
  699MOL0     N92186   9.290   7.637   3.085 -0.4433 -0.0082 -0.2229
  699MOL0     N92187   9.192   7.690   3.015  1.1045 -0.2049  0.6443
  699MOL0     C92188   8.998   8.582   2.319  0.4621  0.5176  0.6639
  699MOL0     C92189   9.031   8.643   2.196 -0.6904 -0.3160 -1.1345
  699MOL0     C92190   9.303   8.734   1.815  1.0162 -0.7693  0.1632
  699MOL0     C92191   9.227   8.850   1.801  0.1207 -0.0249 -0.4775
  699MOL0     C92192   9.241   8.926   1.676  0.2998 -1.3256 -0.3008
  699MOL0     C92193   9.322   8.894   1.576 -0.6366 -0.2718 -0.4133
  699MOL0     O92194   9.335   8.972   1.463 -0.3006  0.2765  0.4894
  699MOL0     C92195   9.299   8.916   1.341 -0.3092  0.8109  0.2806
  699MOL0     C92196   9.408   8.854   1.246 -0.1666  0.2065  0.6457
  699MOL0     C92197   9.537   8.947   1.255 -0.3665  0.3688  0.5852
  699MOL0     C92198   9.659   8.914   1.167  0.9547  0.1748 -0.0388
  699MOL0     C92199   9.659   8.994   1.036 -0.0633  0.6738  0.4686
  699MOL0     C92200   9.672   9.070   0.943 -0.7753  0.0853  0.7726
  699MOL0     C92201   9.402   8.785   1.593 -0.9274 -0.3643 -0.1467
  699MOL0     C92202   9.391   8.704   1.707  0.3028 -0.4589  0.2731
  699MOL0     H92203   9.278   8.411   2.105 -0.6561 -2.2333  1.6934
  699MOL0     H92204   9.196   8.305   2.316 -0.1239 -1.1973 -1.7117
  699MOL0     H92205   8.825   8.361   2.414 -0.8219 -0.1024  2.2816
  699MOL0     H92206   8.857   8.366   2.592  0.5167  0.2749  0.1047
  699MOL0     H92207   8.946   8.164   2.395  1.1630 -2.7273  1.5069
  699MOL0     H92208   8.821   8.138   2.516 -0.0820 -2.3194 -2.5615
  699MOL0     H92209   9.012   8.211   2.697 -0.4283 -0.2885  0.4573
  699MOL0     H92210   9.116   8.187   2.564  1.8640  1.5504  5.5523
  699MOL0     H92211   8.965   7.934   2.569 -2.3623 -2.1242  4.3956
  699MOL0     H92212   9.130   7.969   2.633  1.2835  1.8671 -0.4491
  699MOL0     H92213   8.857   7.986   2.753  0.3287  2.1905 -1.0171
  699MOL0     H92214   8.981   8.058   2.843  0.7035 -0.7301  0.6183
  699MOL0     H92215   9.112   7.832   2.831  0.8232  0.0653  1.1012
  699MOL0     H92216   8.961   7.772   2.755  3.2156  0.1859 -1.1503
  699MOL0     H92217   8.998   7.905   3.024 -4.3842  2.4695  0.5373
  699MOL0     H92218   8.836   7.867   2.959  0.1868 -0.1575  0.4186
  699MOL0     H92219   8.914   7.622   2.942 -1.8846  0.1571 -0.0970
  699MOL0     H92220   8.870   7.694   3.094 -1.3106  1.2883 -0.7613
  699MOL0     H92221   9.030   7.564   3.263  1.7922 -1.9683  1.3960
  699MOL0     H92222   9.425   7.560   3.288 -0.5107  1.6998 -0.1807
  699MOL0     H92223   9.332   7.415   3.287 -2.8440  0.0210 -0.5344
  699MOL0     H92224   9.229   7.452   3.479  4.3593 -3.1423 -0.9795
  699MOL0     H92225   9.203   7.626   3.449 -2.2136 -1.9630 -3.7116
  699MOL0     H92226   9.482   7.523   3.531  0.3422  0.4389  2.1762
  699MOL0     H92227   9.412   7.682   3.538 -1.7222  0.0891 -0.5320
  699MOL0     H92228   9.261   7.615   3.704  2.9575  3.0430 -0.7798
  699MOL0     H92229   9.425   7.574   3.752 -1.6140 -1.1636 -0.0069
  699MOL0     H92230   9.251   7.164   3.786 -4.5143  1.0079  0.0963
  699MOL0     H92231   9.207   7.088   4.013  2.1149 -0.1734  0.1159
  699MOL0     H92232   8.960   7.131   4.420 -0.9284 -0.9790  1.0120
  699MOL0     H92233   8.931   7.067   4.666 -0.2919 -1.1943 -1.4546
  699MOL0     H92234   9.081   6.982   4.820  0.0929 -3.0451  1.9234
  699MOL0     H92235   9.045   7.021   4.991  0.8743  0.5411  0.9687
  699MOL0     H92236   9.259   7.140   4.996 -1.8520 -0.1307  1.2454
  699MOL0     H92237   9.304   7.053   4.844  2.4259 -3.2385  1.5040
  699MOL0     H92238   9.271   6.841   4.974  0.6465 -0.2579  0.2383
  699MOL0     H92239   9.230   6.943   5.112  0.9820  0.2687  0.9187
  699MOL0     H92240   9.496   6.971   4.969  1.0094 -1.6633  0.6933
  699MOL0     H92241   9.464   6.996   5.142 -0.4653  1.0432  0.4013
  699MOL0     H92242   9.460   6.734   4.996 -1.1978  2.5370 -1.5882
  699MOL0     H92243   9.432   6.757   5.166  0.8571 -0.7190  1.6001
  699MOL0     H92244   9.655   6.823   5.222 -1.2040 -0.3822  0.0916
  699MOL0     H92245   9.698   6.872   5.059 -0.1820 -2.8276 -2.9552
  699MOL0     H92246   9.680   6.646   4.955  4.2920  1.0354 -2.4166
  699MOL0     H92247   9.813   6.674   5.052 -0.2942 -0.6949 -2.7001
  699MOL0     H92248   9.714   6.555   5.246  0.2577 -1.2819  0.4965
  699MOL0     H92249   9.744   6.452   5.108 -1.2888 -1.8264  2.3981
  699MOL0     H92250   9.228   7.366   4.763  0.5148 -4.0150  2.6185
  699MOL0     H92251   9.290   7.399   4.535 -1.7486  2.9225 -1.0164
  699MOL0     H92252   9.194   7.490   4.161  2.1494 -0.4816  0.2791
  699MOL0     H92253   9.256   7.568   3.938  2.6130 -0.4270  0.2707
  699MOL0     H92254   8.931   8.634   2.387 -0.2377  0.8605 -0.2508
  699MOL0     H92255   8.994   8.743   2.176  0.9833  0.4562 -0.5649
  699MOL0     H92256   9.178   8.900   1.883 -4.0222 -1.7971 -1.6165
  699MOL0     H92257   9.179   9.011   1.654  0.6775 -1.0038 -0.1337
  699MOL0     H92258   9.245   8.988   1.280 -0.1514 -0.6978 -1.7550
  699MOL0     H92259   9.226   8.837   1.363  2.2803 -2.4183 -1.7688
  699MOL0     H92260   9.415   8.746   1.260  0.7689 -0.1180 -1.7390
  699MOL0     H92261   9.372   8.839   1.143 -2.1453 -0.6830  1.4118
  699MOL0     H92262   9.567   8.942   1.360  1.7673 -1.7089 -0.0568
  699MOL0     H92263   9.511   9.053   1.241 -1.0905  0.0822 -0.3402
  699MOL0     H92264   9.748   8.952   1.217  1.8805 -0.5038 -1.0864
  699MOL0     H92265   9.680   8.807   1.156 -2.5267 -1.0413  3.2977
  699MOL0     H92266   9.675   9.143   0.865 -1.2571 -0.3205  0.3599
  699MOL0     H92267   9.480   8.760   1.522 -0.4032 -1.1237  0.6608
  699MOL0     H92268   9.452   8.615   1.698  1.6752  0.6207 -1.8390
  700MOL0     O92269   4.026   1.547  10.200  0.1860 -0.1251 -0.0648
  700MOL0     C92270   3.932   1.474  10.237 -0.2936 -0.8504  0.2198
  700MOL0     O92271   3.804   1.514  10.255 -0.3949 -0.1677 -0.1760
  700MOL0     C92272   3.772   1.650  10.248  0.0114  0.2877  0.3975
  700MOL0     C92273   3.646   1.676  10.204  0.0756 -0.8631 -0.5444
  700MOL0     C92274   3.594   1.808  10.193  0.7421 -0.8734 -0.4763
  700MOL0     C92275   3.673   1.914  10.241 -0.5117 -0.0132 -0.0944
  700MOL0     O92276   3.616   2.038  10.234  0.5526  0.8031 -0.0598
  700MOL0     C92277   3.672   2.138  10.317  0.1943  0.8355 -0.0478
  700MOL0     C92278   3.601   2.273  10.288 -0.4437 -0.6918 -0.2656
  700MOL0     C92279   3.670   2.389  10.362 -0.8857  0.0386  0.0292
  700MOL0     C92280   3.622   2.533  10.315 -0.3157 -0.2511 -0.8773
  700MOL0     C92281   3.494   2.564  10.382 -0.4343  0.1761 -0.2518
  700MOL0     C92282   3.428   2.698  10.332 -0.8268  1.3410  0.3108
  700MOL0     C92283   3.468   2.820  10.416 -0.6130  1.1641 -0.8144
  700MOL0     C92284   3.432   2.823  10.566 -0.2943  0.0553 -0.0161
  700MOL0     N92285   3.285   2.807  10.571 -0.0325  0.3791  0.2031
  700MOL0     C92286   3.199   2.919  10.579  1.2064 -0.0767 -0.7092
  700MOL0     C92287   3.073   2.861  10.589 -0.8346  0.7980  0.5912
  700MOL0     C92288   2.943   2.922  10.615 -0.0563 -0.6810  0.7970
  700MOL0     C92289   2.962   3.076  10.643  0.7541  0.7690  0.5193
  700MOL0     C92290   2.815   3.135  10.671 -0.1291  0.0616  0.5816
  700MOL0     C92291   2.701   3.105  10.569 -0.0755  0.7920  0.4097
  700MOL0     O92292   2.759   3.177  10.458 -0.3470  0.4498 -0.2458
  700MOL0     C92293   2.716   3.144  10.330  0.2843  0.6336  0.5351
  700MOL0     C92294   2.599   3.058  10.303 -0.6160  0.0932 -0.4874
  700MOL0     C92295   2.588   3.014  10.171  0.4374  0.7891  0.9614
  700MOL0     C92296   2.678   3.053  10.068  0.5674 -0.5046 -0.8655
  700MOL0     C92297   2.661   2.988   9.939 -0.2307 -0.4318 -0.2988
  700MOL0     O92298   2.618   2.860   9.942  0.5130  0.4679 -0.5084
  700MOL0     C92299   2.585   2.804   9.821 -0.3167  0.2149 -0.2818
  700MOL0     C92300   2.679   2.788   9.718  0.5576  0.6383  0.5471
  700MOL0     C92301   2.641   2.715   9.599  0.9764  0.8539 -0.3617
  700MOL0     C92302   2.514   2.673   9.582  0.0399 -0.2196  0.0918
  700MOL0     O92303   2.476   2.595   9.477 -0.4015 -0.1021 -0.2096
  700MOL0     C92304   2.495   2.652   9.340 -0.5218 -0.3899 -0.6073
  700MOL0     C92305   2.424   2.561   9.244 -0.0467  0.3472 -0.6132
  700MOL0     C92306   2.440   2.610   9.096 -0.6739 -0.3455  0.1707
  700MOL0     C92307   2.367   2.743   9.075 -0.3214 -0.3244  0.0251
  700MOL0     C92308   2.228   2.761   9.130  0.3606 -0.2987  0.8267
  700MOL0     C92309   2.150   2.885   9.073 -0.8601  0.2568  0.3227
  700MOL0     C92310   2.007   2.883   9.126 -0.4829 -0.7073 -0.3324
  700MOL0     C92311   1.924   2.995   9.080 -0.8448 -0.5521 -0.6056
  700MOL0    Cl92312   1.873   2.980   8.906 -0.3423  0.1469  0.0630
  700MOL0     C92313   2.414   2.702   9.680  0.5022  0.0308  0.3390
  700MOL0     C92314   2.456   2.756   9.809  0.2499 -0.0033  0.1491
  700MOL0     O92315   2.701   3.054   9.839  0.5303  0.0390  0.4433
  700MOL0     C92316   2.777   3.140  10.099 -0.2592 -0.3184  0.4564
  700MOL0     C92317   2.798   3.188  10.225  0.1527  1.1614  0.8320
  700MOL0     N92318   3.094   2.723  10.613 -0.3330  0.3996  0.3237
  700MOL0     N92319   3.219   2.693  10.597 -0.3224 -1.0569  1.0541
  700MOL0     C92320   3.805   1.884  10.298  0.5536  0.0564 -0.2853
  700MOL0     C92321   3.852   1.752  10.294 -0.9527 -0.0625  0.2677
  700MOL0     C92322   3.953   1.329  10.231  0.3433 -1.5197 -0.0006
  700MOL0     C92323   4.075   1.271  10.198  0.0119 -0.1752 -0.6852
  700MOL0     C92324   4.097   1.134  10.185 -0.2463 -0.2531 -0.0406
  700MOL0     C92325   3.990   1.043  10.205  0.2928 -0.4421  0.1124
  700MOL0     O92326   4.024   0.921  10.169 -0.5036  0.2845 -0.7075
  700MOL0     C92327   3.964   0.818  10.238  0.5088  0.1966  0.9494
  700MOL0     C92328   3.992   0.812  10.385  0.0547  0.0410  0.2529
  700MOL0     C92329   3.942   0.689  10.451  0.0932  0.1610 -0.3378
  700MOL0     C92330   3.980   0.699  10.602 -0.1091  1.1828 -0.3198
  700MOL0     C92331   3.869   0.759  10.677  0.7696 -0.3371 -0.5039
  700MOL0     C92332   3.785   0.812  10.753 -0.9224  0.7070  0.4116
  700MOL0     C92333   3.867   1.096  10.260 -0.2319  0.3182  0.5430
  700MOL0     C92334   3.857   1.239  10.276  0.5284 -0.0424 -0.6798
  700MOL0     H92335   3.583   1.590  10.185 -1.4204 -0.0707  0.5707
  700MOL0     H92336   3.495   1.830  10.154  1.6521  0.6367 -2.1112
  700MOL0     H92337   3.780   2.141  10.305  0.2140  1.6713  0.3062
  700MOL0     H92338   3.655   2.107  10.421 -0.4926  1.0970 -0.0746
  700MOL0     H92339   3.495   2.258  10.311 -0.2555 -0.7983  0.5621
  700MOL0     H92340   3.595   2.296  10.181  2.6096 -1.6685 -0.7424
  700MOL0     H92341   3.778   2.378  10.352 -0.9096 -1.1718  0.8828
  700MOL0     H92342   3.659   2.371  10.470  0.3901  2.7075  0.6801
  700MOL0     H92343   3.697   2.607  10.341  1.5092 -1.6013 -2.0426
  700MOL0     H92344   3.606   2.517  10.208 -6.1164  0.2467 -0.4502
  700MOL0     H92345   3.496   2.567  10.492  1.2426  0.3466 -0.2636
  700MOL0     H92346   3.434   2.478  10.352  1.8559 -1.6338 -0.0053
  700MOL0     H92347   3.321   2.684  10.348 -0.5188 -1.4213  0.4993
  700MOL0     H92348   3.444   2.699  10.224 -6.2150 -5.5103 -1.2179
  700MOL0     H92349   3.577   2.826  10.410  0.0632 -5.3422 -2.7132
  700MOL0     H92350   3.426   2.908  10.366  0.9366  1.8200 -1.0125
  700MOL0     H92351   3.466   2.909  10.624  1.3174 -2.2042  2.6328
  700MOL0     H92352   3.480   2.736  10.610  0.4002  1.1174  1.3906
  700MOL0     H92353   3.228   3.024  10.584 -2.4618  1.0919 -1.0177
  700MOL0     H92354   2.888   2.876  10.698 -0.6663  3.2759  2.8491
  700MOL0     H92355   2.885   2.903  10.525 -0.1027 -0.7395  0.8388
  700MOL0     H92356   3.012   3.107  10.551  0.8969 -0.9254 -0.0021
  700MOL0     H92357   3.023   3.098  10.731 -1.1017  0.5348  1.9177
  700MOL0     H92358   2.785   3.096  10.769  1.4070 -1.3112  0.5588
  700MOL0     H92359   2.832   3.242  10.684  0.3601  0.0357  0.1807
  700MOL0     H92360   2.613   3.151  10.616  1.5716  2.2603  2.2254
  700MOL0     H92361   2.680   2.999  10.553  1.2557  0.8194 -2.0776
  700MOL0     H92362   2.518   3.017  10.362 -2.6847 -1.0502 -3.8271
  700MOL0     H92363   2.506   2.952  10.135  1.5932  0.8968 -2.1496
  700MOL0     H92364   2.783   2.816   9.730  2.8146 -6.0402  0.5969
  700MOL0     H92365   2.717   2.697   9.525  0.8534  0.6009 -0.4265
  700MOL0     H92366   2.602   2.656   9.317 -0.5090 -1.5626 -0.8226
  700MOL0     H92367   2.455   2.753   9.334  0.2829  0.1803  2.2239
  700MOL0     H92368   2.321   2.549   9.278 -0.1989 -1.8481 -1.6318
  700MOL0     H92369   2.468   2.460   9.250 -2.1623 -0.6538 -0.9885
  700MOL0     H92370   2.387   2.553   9.019 -0.4223  1.5260 -1.4542
  700MOL0     H92371   2.544   2.615   9.062 -1.4111  2.3033 -1.9888
  700MOL0     H92372   2.424   2.831   9.107  0.5968 -0.9774  0.2381
  700MOL0     H92373   2.362   2.752   8.966  2.0325 -2.3490 -0.3391
  700MOL0     H92374   2.230   2.757   9.240 -0.5114  0.5089  0.8846
  700MOL0     H92375   2.174   2.667   9.115 -1.1645  0.5494  0.7815
  700MOL0     H92376   2.151   2.890   8.964  0.8860  0.7900  0.3427
  700MOL0     H92377   2.210   2.967   9.112  3.0585 -1.9852 -0.5044
  700MOL0     H92378   1.969   2.783   9.101 -0.8668 -1.0138  1.3587
  700MOL0     H92379   2.025   2.894   9.233 -0.8412 -1.2212 -0.2138
  700MOL0     H92380   1.970   3.093   9.088  0.0247 -1.0642  1.1331
  700MOL0     H92381   1.840   2.998   9.151 -1.2558  0.8320 -1.1249
  700MOL0     H92382   2.308   2.682   9.669  0.3939  1.6492 -2.3605
  700MOL0     H92383   2.380   2.782   9.882  0.9697  1.7881  0.3226
  700MOL0     H92384   2.850   3.170  10.025  2.1555 -2.5681  1.7787
  700MOL0     H92385   2.886   3.247  10.249  0.9623  0.5945 -0.6421
  700MOL0     H92386   3.861   1.967  10.339 -1.4915  0.2738  2.3536
  700MOL0     H92387   3.951   1.734  10.334 -0.4289  0.3964 -0.7562
  700MOL0     H92388   4.156   1.335  10.167  1.2024 -2.2364 -2.0737
  700MOL0     H92389   4.195   1.096  10.158  0.3109  2.6391 -2.6405
  700MOL0     H92390   4.013   0.727  10.202 -3.0057 -2.2059  1.6509
  700MOL0     H92391   3.856   0.821  10.222  0.4726  4.5633  0.7731
  700MOL0     H92392   4.100   0.830  10.381 -0.2477  1.5943 -1.8621
  700MOL0     H92393   3.944   0.897  10.433  0.8869  1.5741 -1.5430
  700MOL0     H92394   3.998   0.604  10.410  0.7013  0.9124 -1.0951
  700MOL0     H92395   3.833   0.685  10.443  0.1228 -0.2015 -0.5768
  700MOL0     H92396   4.010   0.604  10.646 -0.4507  1.7672  1.2329
  700MOL0     H92397   4.074   0.755  10.613  1.2696 -1.3040  1.4838
  700MOL0     H92398   3.713   0.866  10.811  0.9341  1.3558  2.2249
  700MOL0     H92399   3.780   1.033  10.273 -0.9341  0.4101 -2.8157
  700MOL0     H92400   3.765   1.277  10.319  1.1133  4.0357 -2.5127
  701MOL0     O92401   3.092   9.935   7.944  1.4490 -0.3203 -0.8953
  701MOL0     C92402   3.062   9.939   8.065 -0.4552  0.5008  0.1238
  701MOL0     O92403   3.126   9.863   8.157 -0.2986  0.2917 -1.0443
  701MOL0     C92404   3.224   9.767   8.134 -0.5995 -0.6600 -0.2202
  701MOL0     C92405   3.288   9.730   8.244  0.6863  0.2310  0.5339
  701MOL0     C92406   3.379   9.623   8.238 -0.8178  0.2817 -0.2280
  701MOL0     C92407   3.424   9.563   8.119  0.2159 -0.6304  0.1000
  701MOL0     O92408   3.521   9.469   8.127  0.2095 -0.1769  0.2480
  701MOL0     C92409   3.574   9.414   7.998  1.5253 -0.4532 -0.1871
  701MOL0     C92410   3.708   9.357   8.008  1.2722  1.0300 -0.3427
  701MOL0     C92411   3.756   9.277   7.886 -0.2346  0.5256 -0.7620
  701MOL0     C92412   3.867   9.174   7.907  0.2887  0.4473 -0.1845
  701MOL0     C92413   3.821   9.060   7.995 -0.1895 -0.0934  0.8340
  701MOL0     C92414   3.697   8.984   7.947  0.0822  0.1519 -0.0223
  701MOL0     C92415   3.651   8.882   8.053  0.1321 -0.2840  1.2176
  701MOL0     C92416   3.595   8.955   8.176  0.5217  0.6208  0.3068
  701MOL0     N92417   3.463   9.006   8.139 -0.0594  0.5433 -0.2832
  701MOL0     C92418   3.400   9.122   8.191 -0.7153  1.4455 -0.9838
  701MOL0     C92419   3.285   9.131   8.122 -0.3010 -0.5141 -0.1474
  701MOL0     C92420   3.178   9.237   8.152 -0.3223 -0.2658  0.1746
  701MOL0     C92421   3.091   9.288   8.035 -0.3235  0.5816  0.1823
  701MOL0     C92422   2.986   9.389   8.070 -0.5973 -0.2632 -0.2994
  701MOL0     C92423   2.910   9.449   7.955 -0.4993  0.1373  0.1683
  701MOL0     O92424   2.852   9.577   7.986  0.1138 -0.1802 -0.0951
  701MOL0     C92425   2.728   9.590   8.058 -0.3815  0.4049 -0.2972
  701MOL0     C92426   2.681   9.715   8.079  0.0163 -0.3934  0.4467
  701MOL0     C92427   2.570   9.746   8.158 -0.1576 -0.2405 -0.0205
  701MOL0     C92428   2.498   9.639   8.211 -0.1349 -0.4891 -0.1300
  701MOL0     C92429   2.370   9.669   8.278 -1.0082  0.1723  0.4566
  701MOL0     O92430   2.336   9.800   8.288  0.4605 -0.3968  0.0141
  701MOL0     C92431   2.219   9.845   8.337 -0.2440 -0.6079  0.2215
  701MOL0     C92432   2.127   9.802   8.440 -0.1643 -0.3349 -0.0070
  701MOL0     C92433   2.006   9.873   8.454  0.4149 -0.8487  0.0199
  701MOL0     C92434   1.974   9.994   8.390 -0.0334 -1.0561  0.5294
  701MOL0     O92435   1.855  10.063   8.407  0.3811  0.3653 -0.9506
  701MOL0     C92436   1.832  10.120   8.544 -0.5387 -0.3224  0.7056
  701MOL0     C92437   1.924  10.234   8.581 -0.2507 -0.1222  0.7453
  701MOL0     C92438   1.880  10.370   8.526  0.2248 -0.1154  0.3010
  701MOL0     C92439   1.996  10.470   8.529  0.3599 -0.6030  0.2433
  701MOL0     C92440   1.974  10.585   8.429  0.0649  1.0081 -0.9262
  701MOL0     C92441   1.828  10.643   8.448 -0.7469  0.2032  0.7424
  701MOL0     C92442   1.820  10.781   8.389 -0.2965 -0.1608  0.1309
  701MOL0     C92443   1.865  10.816   8.240  0.1834  0.6192 -0.5753
  701MOL0    Cl92444   1.776  10.735   8.114  0.4936 -0.4793 -0.5521
  701MOL0     C92445   2.069  10.037   8.288  0.1545  0.1606  0.3249
  701MOL0     C92446   2.191   9.966   8.270 -0.2885  0.5503 -0.7728
  701MOL0     O92447   2.308   9.568   8.311  0.0983  0.0422 -0.0734
  701MOL0     C92448   2.537   9.507   8.192  0.7333  0.2290  0.0375
  701MOL0     C92449   2.650   9.483   8.109 -0.1182 -0.7134 -0.4881
  701MOL0     N92450   3.277   9.014   8.049  0.1087 -0.3460  0.1227
  701MOL0     N92451   3.381   8.938   8.062  0.2850  0.3759 -0.6993
  701MOL0     C92452   3.375   9.620   7.999 -0.5211 -0.1171  0.8541
  701MOL0     C92453   3.273   9.712   8.005 -0.9239  0.4209  0.1208
  701MOL0     C92454   2.960  10.034   8.112 -0.2497 -0.6318 -0.7398
  701MOL0     C92455   2.889  10.022   8.240 -0.2219 -0.4465  0.1717
  701MOL0     C92456   2.787  10.114   8.269 -0.3356 -0.0349  1.1568
  701MOL0     C92457   2.740  10.213   8.186 -0.0912  0.5702  0.2678
  701MOL0     O92458   2.653  10.307   8.227 -0.1931 -0.3810 -0.2577
  701MOL0     C92459   2.536  10.305   8.148  0.1092 -0.1680 -0.0065
  701MOL0     C92460   2.433  10.210   8.215 -0.4994 -0.2991 -0.2799
  701MOL0     C92461   2.426  10.249   8.366 -0.4902 -0.0696 -0.0980
  701MOL0     C92462   2.303  10.336   8.407  0.0615 -0.3822  0.3225
  701MOL0     C92463   2.269  10.443   8.313  0.6113  0.5000  0.1188
  701MOL0     C92464   2.237  10.522   8.221 -0.4111 -0.3457  1.0719
  701MOL0     C92465   2.810  10.232   8.065 -1.0962 -0.4847 -0.6552
  701MOL0     C92466   2.915  10.141   8.035  0.7380  0.3450  0.8200
  701MOL0     H92467   3.266   9.774   8.341  0.8348  1.7465 -0.0906
  701MOL0     H92468   3.411   9.566   8.324 -2.3104 -1.2227 -0.6244
  701MOL0     H92469   3.577   9.496   7.926 -1.5547  1.1691  1.3319
  701MOL0     H92470   3.500   9.341   7.963  1.0651 -0.1191  0.0733
  701MOL0     H92471   3.696   9.293   8.096  0.3520  1.8421  0.1470
  701MOL0     H92472   3.786   9.429   8.033  0.8741  1.6880 -0.9465
  701MOL0     H92473   3.796   9.338   7.804 -1.4956  1.4763 -0.6950
  701MOL0     H92474   3.672   9.232   7.833 -1.4077  3.4883 -1.6058
  701MOL0     H92475   3.898   9.123   7.815  0.3106 -1.4646  0.8388
  701MOL0     H92476   3.950   9.233   7.948  0.1279 -0.7127  1.9478
  701MOL0     H92477   3.810   9.102   8.095 -0.7538 -0.8707  1.1013
  701MOL0     H92478   3.903   8.988   8.002 -1.7049 -2.2988 -1.9072
  701MOL0     H92479   3.730   8.918   7.866  1.2296  2.1567 -1.2550
  701MOL0     H92480   3.607   9.038   7.915  1.0241  2.0939  0.4957
  701MOL0     H92481   3.588   8.799   8.020 -0.9440  1.2563 -0.8476
  701MOL0     H92482   3.748   8.843   8.086 -0.0027 -1.3653  0.3723
  701MOL0     H92483   3.662   9.031   8.218  2.7175  0.2680 -2.2698
  701MOL0     H92484   3.579   8.893   8.265 -4.5007  0.9774 -0.0599
  701MOL0     H92485   3.438   9.194   8.264  1.7507 -0.2567 -0.4659
  701MOL0     H92486   3.227   9.324   8.198 -0.0373 -0.6585  0.6173
  701MOL0     H92487   3.119   9.191   8.232 -2.0132 -0.0654 -0.8969
  701MOL0     H92488   3.031   9.204   7.999  1.5376 -2.9040  4.3561
  701MOL0     H92489   3.163   9.320   7.959 -0.3204  3.6058  1.3156
  701MOL0     H92490   2.918   9.350   8.146 -0.0442  2.3661  1.6750
  701MOL0     H92491   3.026   9.482   8.112  0.2581 -0.2535 -1.1070
  701MOL0     H92492   2.833   9.379   7.922  0.0376  0.4209 -1.8108
  701MOL0     H92493   2.986   9.459   7.877 -0.3416  1.5649  0.4871
  701MOL0     H92494   2.730   9.807   8.047 -4.3469  1.5311 -1.6152
  701MOL0     H92495   2.545   9.851   8.158 -0.4834 -0.3017 -0.8340
  701MOL0     H92496   2.137   9.708   8.493 -1.0194 -0.5280 -0.1637
  701MOL0     H92497   1.947   9.848   8.542  2.3167 -1.2372  1.2639
  701MOL0     H92498   1.856  10.047   8.622 -0.8698  0.3495  1.4636
  701MOL0     H92499   1.726  10.148   8.543 -0.8326 -1.1836 -2.3698
  701MOL0     H92500   2.024  10.206   8.546 -1.1396 -0.2633 -1.8571
  701MOL0     H92501   1.917  10.235   8.690  1.6336  2.2663  0.9256
  701MOL0     H92502   1.780  10.399   8.560 -1.0977 -2.2482 -1.4671
  701MOL0     H92503   1.859  10.344   8.422  3.7702  0.9296 -0.8042
  701MOL0     H92504   2.001  10.523   8.624  1.4229  0.3315 -0.3111
  701MOL0     H92505   2.093  10.425   8.503 -0.0870 -1.9888  0.8421
  701MOL0     H92506   1.979  10.548   8.326  2.0801 -3.9678  0.6475
  701MOL0     H92507   2.051  10.659   8.451  4.2825 -2.0879 -3.8460
  701MOL0     H92508   1.795  10.643   8.552  0.4106  0.1944  1.1252
  701MOL0     H92509   1.758  10.592   8.381 -1.4111 -1.1506  2.3962
  701MOL0     H92510   1.712  10.796   8.397 -0.5922 -1.7819 -0.2953
  701MOL0     H92511   1.873  10.853   8.452 -0.6868 -0.0036  0.2813
  701MOL0     H92512   1.971  10.799   8.219 -0.2683 -2.5659 -0.8990
  701MOL0     H92513   1.844  10.923   8.229 -2.6474  0.4580  1.7823
  701MOL0     H92514   2.035  10.120   8.228 -0.6733  0.6395  1.4296
  701MOL0     H92515   2.262  10.004   8.197 -0.5754 -4.0057 -3.8945
  701MOL0     H92516   2.479   9.417   8.210  1.0334  0.2316  1.0213
  701MOL0     H92517   2.673   9.380   8.083 -1.9114 -1.4805  0.7239
  701MOL0     H92518   3.398   9.593   7.897 -0.8394  1.2191  0.4034
  701MOL0     H92519   3.235   9.734   7.905 -1.9395 -1.6593 -0.0083
  701MOL0     H92520   2.903   9.933   8.300 -1.3526 -0.6453  0.1749
  701MOL0     H92521   2.740  10.093   8.364  2.6974 -2.1350  2.3475
  701MOL0     H92522   2.549  10.281   8.042 -0.1149 -0.3863  0.0156
  701MOL0     H92523   2.502  10.409   8.154  0.3385 -0.1395  1.1281
  701MOL0     H92524   2.336  10.205   8.165 -1.1344 -2.1967  1.0118
  701MOL0     H92525   2.472  10.107   8.213 -2.7701 -1.2228 -0.5675
  701MOL0     H92526   2.506  10.312   8.407 -0.6768 -0.8033  1.4772
  701MOL0     H92527   2.435  10.158   8.426  1.4752  1.0813  1.4688
  701MOL0     H92528   2.225  10.262   8.424  0.8857 -0.7570  2.7252
  701MOL0     H92529   2.326  10.383   8.503  0.9578 -1.9180  0.8909
  701MOL0     H92530   2.216  10.602   8.153 -6.6658 -0.5698  2.1779
  701MOL0     H92531   2.784  10.321   8.008 -2.9044  1.9148  3.4089
  701MOL0     H92532   2.963  10.165   7.940 -0.5439 -1.4224 -0.3303
  702MOL0     O92533   8.134   3.193   2.730 -0.8333 -0.7259 -0.2713
  702MOL0     C92534   8.011   3.187   2.698  0.4675 -0.4442  0.1624
  702MOL0     O92535   7.932   3.286   2.661  0.1960  0.3568  0.2383
  702MOL0     C92536   7.980   3.413   2.642  0.6675 -0.4852 -0.6675
  702MOL0     C92537   7.888   3.518   2.649  0.1399 -0.0749 -0.4473
  702MOL0     C92538   7.922   3.653   2.615  0.6584 -0.3173 -0.3284
  702MOL0     C92539   8.057   3.682   2.561  0.2458  0.7291 -0.1054
  702MOL0     O92540   8.085   3.810   2.513  0.2728 -0.2902 -0.1965
  702MOL0     C92541   8.173   3.804   2.408 -1.0717 -0.0100 -0.3764
  702MOL0     C92542   8.138   3.933   2.326 -0.1943  0.1308  0.2659
  702MOL0     C92543   8.243   3.976   2.223  0.5802  0.3934  0.4227
  702MOL0     C92544   8.371   4.025   2.284 -0.0725 -0.0785 -0.1570
  702MOL0     C92545   8.462   4.073   2.163 -0.1635 -0.2890 -0.5891
  702MOL0     C92546   8.588   4.130   2.239  0.9314 -0.5946  0.3939
  702MOL0     C92547   8.700   4.172   2.137 -0.1949 -1.3396 -0.6755
  702MOL0     C92548   8.824   4.219   2.200 -0.4214 -0.4075  0.5205
  702MOL0     N92549   8.921   4.265   2.096  0.3017  0.1863  0.1207
  702MOL0     C92550   8.911   4.392   2.059 -0.0013 -0.1820 -0.6118
  702MOL0     C92551   8.988   4.410   1.954  0.8656  0.3357  0.2859
  702MOL0     C92552   9.003   4.550   1.893 -0.0798  1.8911  0.9252
  702MOL0     C92553   9.081   4.543   1.761  0.4344  0.0234 -0.6548
  702MOL0     C92554   9.226   4.557   1.779  0.6029  1.0365  0.0541
  702MOL0     C92555   9.291   4.553   1.642  0.4698  0.0661 -0.0030
  702MOL0     O92556   9.431   4.600   1.628  1.0169  0.6276  0.0455
  702MOL0     C92557   9.522   4.507   1.663 -0.2983  0.6856 -0.1250
  702MOL0     C92558   9.507   4.390   1.742  0.1967  0.3963 -1.2943
  702MOL0     C92559   9.616   4.312   1.789  0.4359 -1.0939 -0.6846
  702MOL0     C92560   9.743   4.353   1.766 -0.7791  0.3961  0.0448
  702MOL0     C92561   9.861   4.274   1.815  0.9120 -0.2833  0.2531
  702MOL0     O92562   9.980   4.330   1.813 -0.5821  0.3622  0.4813
  702MOL0     C92563  10.086   4.271   1.876  0.7059 -0.6598  0.3628
  702MOL0     C92564  10.163   4.175   1.807 -0.1556 -0.7983 -0.5341
  702MOL0     C92565  10.266   4.105   1.877  0.2202  0.6918  0.8539
  702MOL0     C92566  10.282   4.129   2.010 -0.3115 -0.3338  0.3144
  702MOL0     O92567  10.378   4.050   2.073  1.0055  0.8329  0.1489
  702MOL0     C92568  10.364   4.036   2.214 -0.2386  0.3792  0.2027
  702MOL0     C92569  10.499   3.964   2.263  0.8998  0.2744  0.9541
  702MOL0     C92570  10.527   3.815   2.217  0.0973  0.1160  0.0990
  702MOL0     C92571  10.403   3.725   2.213  1.1736 -1.1666  1.8919
  702MOL0     C92572  10.451   3.598   2.128 -0.0697 -0.3567 -0.6804
  702MOL0     C92573  10.342   3.487   2.150  0.3059  0.5238  0.7553
  702MOL0     C92574  10.218   3.517   2.069  0.1356  0.4787  0.0658
  702MOL0     C92575  10.098   3.427   2.126  0.1479  0.7220 -0.7623
  702MOL0    Cl92576  10.065   3.479   2.303 -0.0256  0.1617  0.2138
  702MOL0     C92577  10.224   4.243   2.073  0.7748  0.5866  0.3019
  702MOL0     C92578  10.125   4.313   2.003  0.4955 -0.3289 -0.8802
  702MOL0     O92579   9.844   4.163   1.851 -0.0502 -0.0572 -0.2026
  702MOL0     C92580   9.762   4.481   1.698  0.2013 -0.2139  0.0083
  702MOL0     C92581   9.652   4.541   1.634  0.9531  0.7454 -0.6607
  702MOL0     N92582   9.044   4.286   1.925 -0.4414 -0.1422  0.0560
  702MOL0     N92583   9.001   4.200   2.012 -0.1691  0.4842  0.3713
  702MOL0     C92584   8.134   3.568   2.545 -1.0158 -0.4402  0.6392
  702MOL0     C92585   8.101   3.442   2.590  0.3797  0.9660  0.0865
  702MOL0     C92586   7.958   3.044   2.714 -0.0573  0.6009  0.0996
  702MOL0     C92587   7.830   3.008   2.668 -0.0657 -0.2381  0.0994
  702MOL0     C92588   7.766   2.884   2.694  0.4082  0.0913  0.5476
  702MOL0     C92589   7.826   2.792   2.776  0.0955  0.3613 -0.3185
  702MOL0     O92590   7.763   2.673   2.796 -0.0811  0.5765  0.1823
  702MOL0     C92591   7.803   2.591   2.907  0.1656  0.2061 -0.1144
  702MOL0     C92592   7.709   2.479   2.907  0.9823  0.4764  0.6987
  702MOL0     C92593   7.720   2.359   3.012  0.6180 -0.2625 -1.1983
  702MOL0     C92594   7.864   2.304   3.016 -0.3233 -0.1667  0.2564
  702MOL0     C92595   7.896   2.215   3.131 -0.4814  0.3222 -0.3152
  702MOL0     C92596   7.939   2.152   3.234  0.0662  0.5780  0.2310
  702MOL0     C92597   7.957   2.825   2.820 -0.1777  0.1230 -0.6322
  702MOL0     C92598   8.024   2.947   2.789 -0.5699  0.3863  0.4769
  702MOL0     H92599   7.785   3.491   2.669  0.4951 -0.0229  1.6941
  702MOL0     H92600   7.844   3.727   2.606 -1.0545 -2.0577 -0.3332
  702MOL0     H92601   8.173   3.713   2.348 -2.3249  0.2268 -0.7605
  702MOL0     H92602   8.274   3.820   2.447  0.1848  0.5667 -3.5607
  702MOL0     H92603   8.121   4.020   2.391 -1.9700  1.1843 -1.4848
  702MOL0     H92604   8.038   3.911   2.287  0.0308 -0.4247 -0.0090
  702MOL0     H92605   8.204   4.061   2.167 -3.4516 -1.3445  0.2324
  702MOL0     H92606   8.250   3.894   2.150 -3.6714  0.5458 -0.4118
  702MOL0     H92607   8.363   4.110   2.352 -0.4056 -0.9944  0.9667
  702MOL0     H92608   8.415   3.940   2.337  0.1970  0.7670  0.9961
  702MOL0     H92609   8.404   4.156   2.123  0.8308  1.2871  1.0618
  702MOL0     H92610   8.476   3.995   2.088 -2.2999 -0.4192 -0.8871
  702MOL0     H92611   8.634   4.054   2.304  1.6146 -0.0404  0.5756
  702MOL0     H92612   8.563   4.212   2.308  0.5104 -0.6486  0.3022
  702MOL0     H92613   8.707   4.089   2.067 -4.2258  0.4184 -3.5648
  702MOL0     H92614   8.671   4.259   2.077  0.9960 -1.1852 -1.0553
  702MOL0     H92615   8.860   4.135   2.261 -1.9311 -0.6419  1.1162
  702MOL0     H92616   8.805   4.302   2.269 -0.6410 -2.1046  2.6073
  702MOL0     H92617   8.848   4.470   2.103 -0.4574 -0.7038 -0.3271
  702MOL0     H92618   9.046   4.618   1.968  2.8569  0.4965  0.6414
  702MOL0     H92619   8.903   4.588   1.872  1.0112  5.0986  0.9654
  702MOL0     H92620   9.040   4.614   1.688  3.3376  0.3835 -2.1202
  702MOL0     H92621   9.059   4.444   1.721 -0.4935 -1.0461  2.2743
  702MOL0     H92622   9.254   4.655   1.817  2.1204  1.0672 -1.0360
  702MOL0     H92623   9.253   4.479   1.851 -5.3140 -2.0819 -0.4993
  702MOL0     H92624   9.239   4.609   1.563 -1.7144 -1.8709 -0.0446
  702MOL0     H92625   9.290   4.449   1.608 -0.8084  0.3421 -0.8610
  702MOL0     H92626   9.408   4.358   1.775  1.8266 -3.4668  0.4958
  702MOL0     H92627   9.595   4.240   1.868 -3.6196 -0.2954 -0.8131
  702MOL0     H92628  10.135   4.152   1.704 -1.3425  0.1780 -0.4533
  702MOL0     H92629  10.321   4.027   1.825  0.5449  0.6400  1.2643
  702MOL0     H92630  10.279   3.972   2.241  0.8711 -0.9995  0.5616
  702MOL0     H92631  10.357   4.129   2.271 -0.2049 -0.3829  1.5101
  702MOL0     H92632  10.490   3.968   2.372 -0.6090  3.2906  0.8263
  702MOL0     H92633  10.573   4.035   2.224 -0.3298  0.4022 -1.3146
  702MOL0     H92634  10.608   3.768   2.274 -1.7381 -2.6197  0.6091
  702MOL0     H92635  10.558   3.815   2.112 -0.4709 -3.3158 -0.1690
  702MOL0     H92636  10.388   3.701   2.319 -1.2049  0.8777  2.1011
  702MOL0     H92637  10.322   3.778   2.163  2.4655 -1.8433 -1.1417
  702MOL0     H92638  10.553   3.568   2.149  1.1275  0.1224 -4.9529
  702MOL0     H92639  10.449   3.629   2.023 -1.0083 -2.2795 -1.2761
  702MOL0     H92640  10.324   3.476   2.258  0.2662 -2.9943  0.5115
  702MOL0     H92641  10.383   3.389   2.125  0.8213  0.4584  1.8188
  702MOL0     H92642  10.182   3.620   2.069 -0.4907  0.2685 -0.5734
  702MOL0     H92643  10.245   3.495   1.965 -1.1723  0.8344 -0.3634
  702MOL0     H92644  10.117   3.319   2.123  0.6852  0.7280  1.0060
  702MOL0     H92645  10.012   3.441   2.060 -0.3176 -2.3505 -0.9627
  702MOL0     H92646  10.253   4.271   2.174  2.3496 -1.2806  0.4332
  702MOL0     H92647  10.088   4.400   2.056  0.8361 -1.4222  1.2502
  702MOL0     H92648   9.858   4.532   1.699  0.6297 -1.0110  1.3611
  702MOL0     H92649   9.657   4.636   1.582 -0.3211  1.2639  0.1180
  702MOL0     H92650   8.230   3.567   2.494 -1.4313 -2.1556 -0.1950
  702MOL0     H92651   8.177   3.369   2.567 -1.0993 -1.1730  1.6309
  702MOL0     H92652   7.786   3.078   2.597  2.1248  0.7845 -0.3285
  702MOL0     H92653   7.669   2.863   2.649  1.6446 -1.9803 -1.3651
  702MOL0     H92654   7.791   2.630   3.009 -1.5383  0.3778 -0.3490
  702MOL0     H92655   7.908   2.560   2.901  0.7651  2.0549  0.1692
  702MOL0     H92656   7.607   2.515   2.925  0.1556 -1.5377  0.3052
  702MOL0     H92657   7.707   2.438   2.806 -1.9793  1.7360  0.1311
  702MOL0     H92658   7.657   2.274   2.984  1.6559 -1.7938  0.8576
  702MOL0     H92659   7.691   2.384   3.115  2.0146 -2.4363 -0.2140
  702MOL0     H92660   7.886   2.256   2.920  1.8472  2.7878 -0.8537
  702MOL0     H92661   7.942   2.379   3.032 -1.0483 -0.0390  4.1223
  702MOL0     H92662   7.994   2.126   3.322 -1.3496 -2.1126  0.4126
  702MOL0     H92663   8.013   2.762   2.888  0.3334  1.3012  0.0643
  702MOL0     H92664   8.115   2.970   2.843 -1.1499  2.7206  0.5737
  703MOL0     O92665   8.700   0.751   3.576 -0.0959  0.1294 -0.0122
  703MOL0     C92666   8.599   0.691   3.630  0.3129 -0.4410 -0.5269
  703MOL0     O92667   8.551   0.565   3.588  0.0905  0.1911  0.0205
  703MOL0     C92668   8.641   0.487   3.517 -0.1165 -0.0955 -0.6741
  703MOL0     C92669   8.598   0.412   3.414 -0.0385  0.1186 -0.9386
  703MOL0     C92670   8.672   0.325   3.348  0.1874 -0.0105 -0.5635
  703MOL0     C92671   8.801   0.296   3.399  0.1812 -0.3191 -0.0406
  703MOL0     O92672   8.872   0.194   3.346 -0.5554  0.1555  0.0334
  703MOL0     C92673   8.875   0.191   3.202  0.3172 -0.1597 -0.3825
  703MOL0     C92674   9.002   0.127   3.159 -0.5447  0.3715  0.0896
  703MOL0     C92675   8.997   0.095   3.001  0.5374 -0.5727  0.6730
  703MOL0     C92676   9.130   0.027   2.958 -0.2717 -0.8547  0.2980
  703MOL0     C92677   9.137  -0.123   2.994  0.1419  0.0952  0.5052
  703MOL0     C92678   9.064  -0.213   2.885  0.0176  1.0781 -1.0622
  703MOL0     C92679   8.923  -0.261   2.923  0.4754 -0.1281  0.8673
  703MOL0     C92680   8.914  -0.370   3.034  0.4535 -1.0023 -0.1535
  703MOL0     N92681   9.006  -0.474   3.011 -0.5001 -0.0349 -0.1678
  703MOL0     C92682   8.994  -0.575   2.913  0.7123 -0.2709 -0.5294
  703MOL0     C92683   9.116  -0.635   2.907 -0.0064  0.8541  0.6832
  703MOL0     C92684   9.148  -0.763   2.824 -0.7889  0.2971 -0.7160
  703MOL0     C92685   9.125  -0.884   2.913  0.1707  0.2865  0.7280
  703MOL0     C92686   9.209  -1.010   2.874  0.0498 -0.4093 -0.9291
  703MOL0     C92687   9.167  -1.122   2.969  0.3819 -0.0583 -0.2717
  703MOL0     O92688   9.254  -1.229   2.957 -0.2466  0.2720 -0.6842
  703MOL0     C92689   9.217  -1.346   2.898 -0.9160 -0.1991  0.2350
  703MOL0     C92690   9.299  -1.458   2.916  0.4203  1.2636 -0.0986
  703MOL0     C92691   9.264  -1.580   2.867 -0.5635  0.5236  0.5209
  703MOL0     C92692   9.155  -1.603   2.781  0.1327 -0.7709  0.3635
  703MOL0     C92693   9.123  -1.736   2.728 -0.8837  0.7636  0.0113
  703MOL0     O92694   9.172  -1.842   2.801 -0.4290 -0.3899  0.7246
  703MOL0     C92695   9.141  -1.973   2.761  0.2902  0.1979 -0.1061
  703MOL0     C92696   9.090  -2.063   2.857 -1.0336 -0.9303  0.3757
  703MOL0     C92697   9.060  -2.199   2.820  0.3802 -0.6641  0.2378
  703MOL0     C92698   9.071  -2.245   2.682  0.7948 -0.3213 -0.2831
  703MOL0     O92699   9.039  -2.365   2.630 -0.9319  0.4613 -0.0648
  703MOL0     C92700   8.989  -2.454   2.732 -1.3736 -1.2404  0.9155
  703MOL0     C92701   8.947  -2.588   2.665 -0.8117  0.5433 -0.0869
  703MOL0     C92702   8.811  -2.599   2.601  0.2675  0.0923 -0.6666
  703MOL0     C92703   8.696  -2.555   2.682 -0.2812  0.0976 -0.1778
  703MOL0     C92704   8.573  -2.561   2.603 -0.1734 -0.2064  0.1367
  703MOL0     C92705   8.547  -2.443   2.522  0.3294  0.8054 -0.2717
  703MOL0     C92706   8.501  -2.318   2.596 -0.1498  0.1250 -0.2833
  703MOL0     C92707   8.525  -2.186   2.514 -0.0129  0.9938  0.6844
  703MOL0    Cl92708   8.490  -2.204   2.344 -0.3580 -0.3962 -0.1581
  703MOL0     C92709   9.113  -2.143   2.592  0.7658 -0.3276 -0.5412
  703MOL0     C92710   9.139  -2.014   2.626  0.4699 -0.7397 -0.5403
  703MOL0     O92711   9.047  -1.743   2.631 -0.2586  0.3321  0.5349
  703MOL0     C92712   9.078  -1.483   2.754  0.0868  0.1486 -0.7883
  703MOL0     C92713   9.105  -1.360   2.811 -0.7821 -0.0543  0.1480
  703MOL0     N92714   9.203  -0.568   2.989  0.6885 -0.6889 -0.5989
  703MOL0     N92715   9.134  -0.476   3.060  0.3671  0.2225  0.1488
  703MOL0     C92716   8.851   0.369   3.509 -0.0072 -0.0117  0.8037
  703MOL0     C92717   8.774   0.467   3.571  0.2865  1.2359  0.2805
  703MOL0     C92718   8.498   0.770   3.724 -0.5329  1.1868  0.8748
  703MOL0     C92719   8.390   0.700   3.785 -0.0686 -0.4685 -0.3889
  703MOL0     C92720   8.279   0.763   3.834  0.4160 -0.9775  0.3678
  703MOL0     C92721   8.273   0.906   3.821  1.0282 -0.3723 -0.2650
  703MOL0     O92722   8.165   0.965   3.876 -0.5051  0.0740  0.3422
  703MOL0     C92723   8.105   1.071   3.799 -0.0574 -0.2487  0.4252
  703MOL0     C92724   7.956   1.059   3.790 -0.0417 -1.1402  0.3414
  703MOL0     C92725   7.891   1.159   3.695  0.7406 -0.4909 -0.9218
  703MOL0     C92726   7.740   1.153   3.712  0.6199 -0.4299 -0.8596
  703MOL0     C92727   7.683   1.016   3.681 -0.4404 -0.2592  1.9010
  703MOL0     C92728   7.655   0.906   3.647  0.0806 -0.2361 -0.7449
  703MOL0     C92729   8.377   0.978   3.762  0.8757  0.0189  1.1158
  703MOL0     C92730   8.487   0.911   3.712 -0.5868 -0.0019  0.3216
  703MOL0     H92731   8.493   0.417   3.386 -0.6298  2.6459  1.2672
  703MOL0     H92732   8.615   0.267   3.277 -2.2416 -0.9792  1.9852
  703MOL0     H92733   8.871   0.289   3.154 -1.3540  0.4919  0.9786
  703MOL0     H92734   8.781   0.147   3.169 -0.8108  2.0625 -0.2614
  703MOL0     H92735   9.004   0.029   3.209  0.8396 -0.7964 -2.1053
  703MOL0     H92736   9.093   0.177   3.194  0.7406 -0.4220 -1.9167
  703MOL0     H92737   8.971   0.189   2.952 -0.3514 -0.3524  1.5402
  703MOL0     H92738   8.907   0.036   2.986  0.9378 -1.0304 -0.0092
  703MOL0     H92739   9.147   0.041   2.851  1.1917 -2.6006  0.2606
  703MOL0     H92740   9.205   0.081   3.017 -2.0431  2.3996 -0.1606
  703MOL0     H92741   9.079  -0.132   3.086 -0.5524  1.2216  0.2002
  703MOL0     H92742   9.243  -0.148   2.991  0.3133  0.6142  1.5412
  703MOL0     H92743   9.128  -0.298   2.860 -2.5507 -1.4708  0.3718
  703MOL0     H92744   9.039  -0.150   2.799  0.4672  4.6238  1.1875
  703MOL0     H92745   8.861  -0.174   2.947 -0.4400 -0.7718  0.8970
  703MOL0     H92746   8.874  -0.298   2.832 -0.4597  1.9096  0.4893
  703MOL0     H92747   8.810  -0.403   3.042 -0.2502  1.3506  1.5663
  703MOL0     H92748   8.930  -0.331   3.135  0.3565  2.1969 -1.2492
  703MOL0     H92749   8.899  -0.604   2.870 -0.1370 -1.4787  1.9371
  703MOL0     H92750   9.250  -0.754   2.786  0.1095 -2.8670  0.6137
  703MOL0     H92751   9.081  -0.779   2.739 -0.6217  3.2409 -1.5157
  703MOL0     H92752   9.019  -0.900   2.895 -0.1324 -2.3047  3.8729
  703MOL0     H92753   9.144  -0.862   3.018 -0.6013 -2.0864  1.4292
  703MOL0     H92754   9.207  -1.046   2.771  2.1498 -1.8736 -0.5161
  703MOL0     H92755   9.311  -0.980   2.902 -1.3856  1.4320  3.0546
  703MOL0     H92756   9.063  -1.152   2.953 -0.7232  1.2075  3.4483
  703MOL0     H92757   9.160  -1.084   3.071  3.9093 -1.9050  0.8419
  703MOL0     H92758   9.395  -1.460   2.967 -0.6727 -0.3002  2.0567
  703MOL0     H92759   9.334  -1.662   2.880 -0.2278  0.0926 -3.0770
  703MOL0     H92760   9.069  -2.025   2.957 -2.2185  3.2128 -1.2264
  703MOL0     H92761   9.012  -2.252   2.902 -1.2595  1.4454  0.7317
  703MOL0     H92762   8.909  -2.407   2.791 -1.5793 -0.1877 -0.1596
  703MOL0     H92763   9.073  -2.471   2.799 -2.6881  0.8284  3.2396
  703MOL0     H92764   8.943  -2.653   2.752 -0.7310  4.0462  2.7966
  703MOL0     H92765   9.024  -2.619   2.594 -0.5987  2.1422 -0.6117
  703MOL0     H92766   8.804  -2.708   2.592 -0.1902  0.1287 -0.8044
  703MOL0     H92767   8.808  -2.550   2.504  0.3287  2.8773  0.6445
  703MOL0     H92768   8.694  -2.627   2.765 -0.1918  3.1570  2.6651
  703MOL0     H92769   8.714  -2.456   2.723  0.7872 -0.3073  0.3810
  703MOL0     H92770   8.494  -2.557   2.679  1.4747 -0.4269  1.9535
  703MOL0     H92771   8.579  -2.654   2.546 -1.6432 -1.3495  1.7470
  703MOL0     H92772   8.478  -2.455   2.437  2.1373  1.3368 -1.8913
  703MOL0     H92773   8.640  -2.420   2.469  1.8675 -0.5403  1.7148
  703MOL0     H92774   8.395  -2.337   2.618  0.0540 -1.1292 -0.2974
  703MOL0     H92775   8.552  -2.303   2.692 -2.2114 -0.8817  1.0566
  703MOL0     H92776   8.633  -2.167   2.516  0.5218 -1.7524  2.6399
  703MOL0     H92777   8.456  -2.110   2.552 -0.7954  1.3837 -1.3505
  703MOL0     H92778   9.123  -2.176   2.489 -0.2528 -0.7631 -0.5135
  703MOL0     H92779   9.189  -1.964   2.543  1.3327 -1.2648 -0.3452
  703MOL0     H92780   8.996  -1.500   2.684  1.2392  0.0423 -2.1735
  703MOL0     H92781   9.042  -1.273   2.799 -1.7001 -0.3487  2.4883
  703MOL0     H92782   8.937   0.332   3.564  0.3626 -1.4908 -0.6971
  703MOL0     H92783   8.803   0.518   3.662  2.8107 -0.2055  0.3612
  703MOL0     H92784   8.397   0.592   3.778 -1.3184 -0.5816 -0.1983
  703MOL0     H92785   8.196   0.707   3.876 -0.0321 -1.2801 -0.8644
  703MOL0     H92786   8.140   1.066   3.695 -0.4724  0.7344  0.2336
  703MOL0     H92787   8.137   1.169   3.836  1.5222 -1.4835  2.5522
  703MOL0     H92788   7.949   0.955   3.756  0.6502 -0.7925 -0.9569
  703MOL0     H92789   7.923   1.073   3.893 -0.2712  0.2832  0.0919
  703MOL0     H92790   7.919   1.123   3.596  1.6204 -5.2895  0.8303
  703MOL0     H92791   7.925   1.263   3.702 -1.2220  0.4549 -3.7277
  703MOL0     H92792   7.717   1.177   3.816 -0.8179  0.0639 -1.2597
  703MOL0     H92793   7.704   1.240   3.657  1.3695  1.2629  1.1782
  703MOL0     H92794   7.617   0.812   3.613  1.2315 -0.4211 -1.5542
  703MOL0     H92795   8.366   1.085   3.742 -0.8180 -0.1165  1.1940
  703MOL0     H92796   8.541   0.977   3.644 -2.3473  1.4431  0.2297
  704MOL0     O92797   9.909   5.041   1.697 -0.5701  0.1203  0.7653
  704MOL0     C92798   9.844   4.941   1.691  0.1933 -0.2913  0.3230
  704MOL0     O92799   9.889   4.821   1.675 -0.7473  0.3931  0.1806
  704MOL0     C92800  10.023   4.791   1.678 -0.2720 -0.2346 -0.0464
  704MOL0     C92801  10.103   4.854   1.587 -0.3804  0.4534 -0.3207
  704MOL0     C92802  10.242   4.836   1.590 -0.3844  0.4072  0.5016
  704MOL0     C92803  10.304   4.755   1.684 -0.3489  0.5664  0.2963
  704MOL0     O92804  10.440   4.742   1.683 -0.9302  0.0619 -0.3809
  704MOL0     C92805  10.510   4.867   1.706 -0.4903 -1.1851  0.5379
  704MOL0     C92806  10.664   4.819   1.736 -0.1980 -0.1786 -0.2211
  704MOL0     C92807  10.730   4.771   1.609  0.4170 -0.1328  0.0114
  704MOL0     C92808  10.880   4.752   1.613 -0.2154 -0.0657 -0.2410
  704MOL0     C92809  10.974   4.867   1.587 -0.3034 -0.6769  0.4694
  704MOL0     C92810  11.126   4.819   1.607 -0.5733  0.0004  0.1530
  704MOL0     C92811  11.231   4.932   1.604  0.2166 -0.4491  0.0724
  704MOL0     C92812  11.230   5.020   1.725 -0.0808  0.2694  0.1050
  704MOL0     N92813  11.331   5.134   1.717  0.1450  1.3701  0.3111
  704MOL0     C92814  11.457   5.131   1.761  0.0598 -0.3214  0.1168
  704MOL0     C92815  11.501   5.256   1.742 -0.2135 -0.9700 -1.0773
  704MOL0     C92816  11.621   5.311   1.815 -0.6236 -0.5848 -0.4530
  704MOL0     C92817  11.689   5.413   1.724 -0.0787  0.2210 -0.2730
  704MOL0     C92818  11.841   5.416   1.759  0.7282 -0.4468  0.5283
  704MOL0     C92819  11.917   5.470   1.633  0.5112  0.2140 -0.6326
  704MOL0     O92820  12.062   5.474   1.641 -0.8538  0.3110 -0.0712
  704MOL0     C92821  12.134   5.543   1.726 -0.1503 -0.1286 -0.4002
  704MOL0     C92822  12.095   5.653   1.807 -0.2176 -0.3308  0.2202
  704MOL0     C92823  12.181   5.701   1.908 -0.4534  0.8155 -0.2305
  704MOL0     C92824  12.313   5.659   1.920  0.1431 -0.7434 -0.8076
  704MOL0     C92825  12.391   5.715   2.037  0.1853  0.5089 -0.0064
  704MOL0     O92826  12.308   5.759   2.144 -0.3128  0.6909  0.4584
  704MOL0     C92827  12.353   5.807   2.261 -0.6081 -0.0226  0.1443
  704MOL0     C92828  12.484   5.825   2.297  0.2715 -0.2851 -0.0487
  704MOL0     C92829  12.514   5.867   2.425 -0.1925 -0.0931  0.5842
  704MOL0     C92830  12.414   5.895   2.512  1.2527 -0.8216 -0.3516
  704MOL0     O92831  12.430   5.954   2.642  0.3678 -0.2875  0.5386
  704MOL0     C92832  12.553   6.000   2.689  0.5079 -0.5887  0.4648
  704MOL0     C92833  12.591   6.143   2.654  0.4729  0.9413 -1.1479
  704MOL0     C92834  12.475   6.237   2.692  0.3181  1.2759  0.1304
  704MOL0     C92835  12.507   6.391   2.729 -0.6272  0.2319 -0.1292
  704MOL0     C92836  12.432   6.488   2.650  0.0433 -0.5523  0.7389
  704MOL0     C92837  12.484   6.628   2.663  0.1586 -0.2509 -0.8614
  704MOL0     C92838  12.449   6.685   2.810  0.2253  0.5690  0.1383
  704MOL0     C92839  12.472   6.837   2.821 -0.5139  0.3295 -0.7357
  704MOL0    Cl92840  12.416   6.924   2.679  0.4000  0.0853 -0.0165
  704MOL0     C92841  12.282   5.868   2.478  0.5961 -0.4382 -0.1239
  704MOL0     C92842  12.253   5.831   2.348  0.5881 -0.0238 -0.8224
  704MOL0     O92843  12.512   5.700   2.039  0.0661 -0.6807  0.6371
  704MOL0     C92844  12.358   5.561   1.827  0.5601  0.6592  0.1070
  704MOL0     C92845  12.272   5.503   1.739  0.4893 -0.8869 -0.4352
  704MOL0     N92846  11.404   5.328   1.664 -0.1638 -0.8510 -0.3525
  704MOL0     N92847  11.300   5.255   1.671 -0.4203  1.0051  0.4078
  704MOL0     C92848  10.219   4.680   1.763  0.0161 -0.5890  0.2482
  704MOL0     C92849  10.082   4.692   1.764 -0.0876 -0.0830  0.3796
  704MOL0     C92850   9.703   4.965   1.730 -0.1398  0.7863  0.2812
  704MOL0     C92851   9.622   4.858   1.766  0.5684  0.8161  0.2242
  704MOL0     C92852   9.491   4.878   1.810  1.2127 -0.2636 -0.1350
  704MOL0     C92853   9.435   5.004   1.814 -0.0176 -0.1011  0.2116
  704MOL0     O92854   9.306   5.014   1.852 -0.1623 -0.6867 -0.8390
  704MOL0     C92855   9.277   5.112   1.962  0.0143  0.2212 -0.0978
  704MOL0     C92856   9.190   5.216   1.894 -0.5237 -0.0743 -0.5313
  704MOL0     C92857   9.051   5.145   1.870 -0.4575  0.1661  0.3064
  704MOL0     C92858   8.963   5.255   1.828  0.0571 -0.8842  0.3165
  704MOL0     C92859   8.936   5.362   1.922  0.9359 -0.6913  0.3307
  704MOL0     C92860   8.920   5.460   1.998 -0.3451 -0.0960 -0.1156
  704MOL0     C92861   9.517   5.118   1.792  0.8090 -0.1330  0.0138
  704MOL0     C92862   9.653   5.105   1.749 -0.2329 -0.0994  1.1684
  704MOL0     H92863  10.064   4.929   1.519 -1.4030  1.8969  1.7345
  704MOL0     H92864  10.303   4.897   1.524  0.2230  0.1138  0.7873
  704MOL0     H92865  10.471   4.913   1.798  0.9677  4.6816 -1.2924
  704MOL0     H92866  10.495   4.943   1.628 -3.5861 -1.4511  0.7305
  704MOL0     H92867  10.679   4.748   1.817  1.6200  0.7584  0.3190
  704MOL0     H92868  10.713   4.908   1.777  2.7137 -1.8894  0.2736
  704MOL0     H92869  10.712   4.834   1.521  2.0700  0.9270  0.3807
  704MOL0     H92870  10.687   4.672   1.594 -1.1462 -0.0358  2.9689
  704MOL0     H92871  10.896   4.708   1.711 -2.7316 -2.0722 -0.6297
  704MOL0     H92872  10.906   4.679   1.535 -3.0056  1.5194 -2.8617
  704MOL0     H92873  10.954   4.952   1.653  1.1312  0.7246 -0.8283
  704MOL0     H92874  10.970   4.896   1.482  1.0489 -3.1483 -0.3338
  704MOL0     H92875  11.148   4.769   1.512 -1.8836  3.4841 -2.1653
  704MOL0     H92876  11.139   4.756   1.696 -0.7176 -0.4012 -0.1075
  704MOL0     H92877  11.330   4.884   1.612 -0.0774 -0.9611  0.7966
  704MOL0     H92878  11.216   4.982   1.508 -3.6633 -0.1455  0.6759
  704MOL0     H92879  11.262   4.952   1.804  3.9377  1.7409 -0.0507
  704MOL0     H92880  11.131   5.061   1.748 -0.0392 -0.5424  1.8978
  704MOL0     H92881  11.513   5.058   1.819  2.2393  1.0326 -0.1536
  704MOL0     H92882  11.692   5.230   1.831  0.4816  0.2206 -1.1297
  704MOL0     H92883  11.594   5.356   1.911 -1.6914  2.8012 -2.1671
  704MOL0     H92884  11.651   5.516   1.721  2.3403  1.1811 -0.5957
  704MOL0     H92885  11.673   5.383   1.620 -2.4140  1.3507 -0.3206
  704MOL0     H92886  11.842   5.485   1.844  1.4083 -1.3199  1.2421
  704MOL0     H92887  11.881   5.317   1.784 -3.7858 -2.8358 -0.6592
  704MOL0     H92888  11.891   5.573   1.604 -0.1958 -0.5807 -3.0667
  704MOL0     H92889  11.873   5.416   1.549  0.4162  1.3618 -1.3463
  704MOL0     H92890  11.990   5.678   1.795 -0.2554 -0.9148 -0.7199
  704MOL0     H92891  12.143   5.773   1.980  5.7249  1.9432  2.5151
  704MOL0     H92892  12.566   5.832   2.227  0.5834 -0.3796  0.3054
  704MOL0     H92893  12.618   5.886   2.452  0.4838 -1.4369 -0.9271
  704MOL0     H92894  12.636   5.934   2.659  0.2151 -1.2587  1.0909
  704MOL0     H92895  12.548   5.984   2.797 -2.3964 -1.8405  0.2453
  704MOL0     H92896  12.625   6.152   2.551  1.4466 -0.1799 -0.9477
  704MOL0     H92897  12.668   6.163   2.728 -0.1190 -0.8807  0.0553
  704MOL0     H92898  12.418   6.198   2.777 -1.5800 -0.7561 -1.9326
  704MOL0     H92899  12.407   6.242   2.606  1.1451  2.5038 -0.4750
  704MOL0     H92900  12.500   6.415   2.836 -3.0485 -0.2504 -0.1197
  704MOL0     H92901  12.611   6.411   2.700 -0.5990  0.5124  0.1556
  704MOL0     H92902  12.331   6.488   2.692 -0.4613  2.3896 -0.2718
  704MOL0     H92903  12.424   6.449   2.548  1.4071 -0.2251  0.4876
  704MOL0     H92904  12.427   6.685   2.590 -1.3920  0.6571  0.9647
  704MOL0     H92905  12.592   6.637   2.645  0.2685 -2.3128 -1.4654
  704MOL0     H92906  12.344   6.660   2.822  0.1296  0.4406 -0.8230
  704MOL0     H92907  12.513   6.625   2.876  0.5203 -1.5360 -1.9233
  704MOL0     H92908  12.579   6.856   2.834 -0.4870  0.1797 -0.7450
  704MOL0     H92909  12.425   6.885   2.907 -1.0494 -1.4138 -0.0198
  704MOL0     H92910  12.207   5.877   2.556  2.1463  2.2088  1.2037
  704MOL0     H92911  12.152   5.809   2.313  1.7916 -2.8532 -2.9517
  704MOL0     H92912  12.460   5.524   1.822  0.2712  0.0744 -2.0128
  704MOL0     H92913  12.304   5.412   1.689 -0.3270  0.0338 -2.7938
  704MOL0     H92914  10.261   4.620   1.843 -1.0436 -0.6333  0.7817
  704MOL0     H92915  10.022   4.638   1.837 -0.4200  0.2095  0.3231
  704MOL0     H92916   9.659   4.757   1.755 -0.6318  0.5138 -1.2578
  704MOL0     H92917   9.436   4.786   1.826  0.5403 -0.2018 -1.8727
  704MOL0     H92918   9.372   5.156   1.995 -0.0311  0.9421 -0.9068
  704MOL0     H92919   9.229   5.067   2.049  0.6613  1.3681  0.8836
  704MOL0     H92920   9.183   5.301   1.962 -2.4912  2.3451 -3.4776
  704MOL0     H92921   9.243   5.257   1.807 -3.1664  1.7789 -1.3830
  704MOL0     H92922   9.013   5.107   1.965  0.9776 -0.5394  0.6200
  704MOL0     H92923   9.043   5.058   1.804  0.3867 -0.1351  0.5999
  704MOL0     H92924   8.998   5.290   1.731 -0.0167 -2.1997 -0.2061
  704MOL0     H92925   8.867   5.206   1.809  1.5319 -2.9276 -2.7325
  704MOL0     H92926   8.910   5.542   2.065 -0.3909 -0.0125 -0.2246
  704MOL0     H92927   9.477   5.215   1.820  0.5420 -0.3673  0.4499
  704MOL0     H92928   9.713   5.190   1.721 -1.4192  0.0600 -1.1158
  705MOL0     O92929   0.205   0.748   8.522  0.1431  0.3810 -0.8197
  705MOL0     C92930   0.265   0.665   8.590 -0.8390 -1.2462 -0.1657
  705MOL0     O92931   0.214   0.609   8.702  0.1385 -0.1585 -0.1377
  705MOL0     C92932   0.076   0.619   8.718 -0.4738 -0.3220  1.0064
  705MOL0     C92933  -0.016   0.536   8.655  0.1104 -0.1898 -0.1063
  705MOL0     C92934  -0.157   0.562   8.674  0.0430 -0.5207 -0.5467
  705MOL0     C92935  -0.200   0.681   8.738  0.0224  0.2465  0.4184
  705MOL0     O92936  -0.334   0.718   8.741 -0.0564 -0.0500  0.5770
  705MOL0     C92937  -0.435   0.618   8.749  0.4644  0.7474 -1.0003
  705MOL0     C92938  -0.507   0.599   8.623  0.1111 -0.2303  0.6162
  705MOL0     C92939  -0.530   0.447   8.603 -1.0341  0.1952  0.9631
  705MOL0     C92940  -0.593   0.427   8.466  0.6742  0.3656  0.5697
  705MOL0     C92941  -0.616   0.286   8.425 -0.1189  1.3474  0.1463
  705MOL0     C92942  -0.687   0.274   8.292  0.0753 -0.9108  0.3028
  705MOL0     C92943  -0.633   0.152   8.206 -0.3834  0.3209 -0.1089
  705MOL0     C92944  -0.651   0.154   8.055  0.0241  0.3869  0.3664
  705MOL0     N92945  -0.615   0.278   7.989  0.4924 -0.6073  0.7539
  705MOL0     C92946  -0.510   0.308   7.912  0.1085 -0.8345  0.0921
  705MOL0     C92947  -0.527   0.434   7.873 -0.5485 -0.3320 -0.0134
  705MOL0     C92948  -0.429   0.505   7.781  0.4304 -1.2370 -0.1628
  705MOL0     C92949  -0.424   0.440   7.639  0.1598 -0.1698 -0.0123
  705MOL0     C92950  -0.558   0.432   7.560 -0.6796 -0.3054  0.4009
  705MOL0     C92951  -0.664   0.538   7.572  0.0416  0.5438 -0.4115
  705MOL0     O92952  -0.587   0.655   7.548  0.2447 -0.3292  0.3968
  705MOL0     C92953  -0.638   0.780   7.565  0.4171 -0.1447 -0.0322
  705MOL0     C92954  -0.552   0.887   7.549 -0.6665 -0.8215  0.3369
  705MOL0     C92955  -0.597   1.016   7.554 -1.2977  1.6873  0.5405
  705MOL0     C92956  -0.729   1.050   7.587  0.7595 -0.4754 -0.3629
  705MOL0     C92957  -0.768   1.192   7.607 -0.8751 -0.1265 -0.2770
  705MOL0     O92958  -0.889   1.214   7.676 -0.3662 -1.0946  0.1955
  705MOL0     C92959  -0.955   1.337   7.673 -0.6334  0.9083 -0.4788
  705MOL0     C92960  -1.045   1.351   7.777  0.6020  0.4840 -0.1273
  705MOL0     C92961  -1.123   1.456   7.797  0.0069 -0.5317 -0.2796
  705MOL0     C92962  -1.108   1.555   7.703 -0.1377  0.5664  0.0222
  705MOL0     O92963  -1.185   1.661   7.733 -0.1748 -0.1580  0.8857
  705MOL0     C92964  -1.215   1.755   7.632 -0.0984 -0.3634 -0.1167
  705MOL0     C92965  -1.315   1.700   7.520  0.2630  1.4200 -0.6899
  705MOL0     C92966  -1.293   1.739   7.376  0.4773  0.0798 -1.0074
  705MOL0     C92967  -1.315   1.888   7.347  0.0713 -0.5281 -0.2300
  705MOL0     C92968  -1.442   1.934   7.406  0.6968  0.1242  0.6855
  705MOL0     C92969  -1.575   1.869   7.369 -0.0780 -0.1621 -0.4399
  705MOL0     C92970  -1.673   1.898   7.484 -0.0292 -0.2499 -0.0220
  705MOL0     C92971  -1.748   2.037   7.469  0.1564  0.4046 -0.0971
  705MOL0    Cl92972  -1.836   2.028   7.317  0.2317  0.3570 -0.3702
  705MOL0     C92973  -1.018   1.555   7.596 -0.7058  0.1358 -0.7834
  705MOL0     C92974  -0.943   1.441   7.585 -0.7968  0.4389 -0.6281
  705MOL0     O92975  -0.693   1.284   7.556  0.5022 -0.3518 -0.0348
  705MOL0     C92976  -0.814   0.947   7.634 -0.3030  0.9343  0.3493
  705MOL0     C92977  -0.771   0.816   7.613  0.2012  0.0434 -0.0295
  705MOL0     N92978  -0.645   0.485   7.928 -0.3120 -0.2936 -0.0468
  705MOL0     N92979  -0.699   0.395   7.999 -0.7738 -0.1591 -0.3542
  705MOL0     C92980  -0.098   0.760   8.799  0.3045  0.5915  0.1879
  705MOL0     C92981   0.031   0.732   8.795 -0.4395 -0.1099  0.4567
  705MOL0     C92982   0.404   0.635   8.554  0.5492  0.1434  0.5038
  705MOL0     C92983   0.470   0.531   8.623 -0.3901  0.4279  0.1293
  705MOL0     C92984   0.593   0.490   8.592 -0.4340 -0.3423  0.3678
  705MOL0     C92985   0.679   0.556   8.501  1.5385  0.7513 -0.6526
  705MOL0     O92986   0.800   0.506   8.465 -0.1236  0.0741 -0.8957
  705MOL0     C92987   0.816   0.456   8.327 -0.4865 -0.3058  0.4746
  705MOL0     C92988   0.934   0.365   8.315 -1.1343 -0.5011 -0.1166
  705MOL0     C92989   0.953   0.333   8.164  0.6905  0.0943 -0.2184
  705MOL0     C92990   1.093   0.275   8.135 -0.4769 -0.2986  0.2865
  705MOL0     C92991   1.109   0.156   8.214 -1.3220  0.3674 -0.2344
  705MOL0     C92992   1.112   0.067   8.292 -0.1430  0.2232  0.1002
  705MOL0     C92993   0.617   0.666   8.435 -0.6965  0.7709 -0.1626
  705MOL0     C92994   0.484   0.710   8.465 -0.0915 -0.4557 -0.4057
  705MOL0     H92995   0.019   0.452   8.596 -2.9345  0.4218 -3.0681
  705MOL0     H92996  -0.235   0.500   8.632 -3.4015  3.7979 -1.1686
  705MOL0     H92997  -0.495   0.657   8.831 -1.6931 -0.6027 -1.8631
  705MOL0     H92998  -0.393   0.527   8.795 -1.9142  0.2127  0.2506
  705MOL0     H92999  -0.457   0.648   8.539 -4.9413  3.1963 -0.8439
  705MOL0     H93000  -0.602   0.653   8.623 -0.4820 -0.8966 -3.8088
  705MOL0     H93001  -0.598   0.400   8.675 -4.8131  0.5974 -2.0609
  705MOL0     H93002  -0.435   0.392   8.603 -0.7013  0.7591  1.2450
  705MOL0     H93003  -0.690   0.478   8.475  1.8489  2.4265  3.2766
  705MOL0     H93004  -0.542   0.481   8.386 -1.3957  0.2584 -0.9102
  705MOL0     H93005  -0.684   0.244   8.499 -3.3767  0.7591 -2.8980
  705MOL0     H93006  -0.517   0.240   8.416 -0.0476  1.6497 -0.7254
  705MOL0     H93007  -0.661   0.362   8.233  1.6657 -0.5261  1.5361
  705MOL0     H93008  -0.796   0.267   8.299  0.1534 -0.4194  3.7723
  705MOL0     H93009  -0.529   0.121   8.214 -0.2457 -0.6775 -3.8319
  705MOL0     H93010  -0.696   0.070   8.244  0.4238  0.5677  1.8849
  705MOL0     H93011  -0.757   0.148   8.029  0.1223  1.4614 -0.3599
  705MOL0     H93012  -0.598   0.067   8.015  3.3047  0.8166  3.2865
  705MOL0     H93013  -0.421   0.255   7.883  0.4947  0.3882 -1.0874
  705MOL0     H93014  -0.328   0.489   7.819  0.5982 -0.4891 -0.2946
  705MOL0     H93015  -0.448   0.612   7.777 -0.8376 -1.3941  0.8952
  705MOL0     H93016  -0.391   0.336   7.648 -0.9639 -0.6660 -1.2136
  705MOL0     H93017  -0.341   0.494   7.592  1.3992  1.0193  3.2753
  705MOL0     H93018  -0.533   0.434   7.454 -3.8805  3.3516 -0.5114
  705MOL0     H93019  -0.600   0.333   7.581  2.8631 -2.5769 -2.0248
  705MOL0     H93020  -0.710   0.533   7.671 -0.0407  0.3865 -0.4564
  705MOL0     H93021  -0.746   0.518   7.503 -0.4360 -3.7537  1.0504
  705MOL0     H93022  -0.453   0.853   7.519 -1.8259 -3.8052 -0.4252
  705MOL0     H93023  -0.512   1.083   7.549 -0.8486  1.2310  1.6151
  705MOL0     H93024  -1.062   1.265   7.842  0.3150  2.3394  2.4354
  705MOL0     H93025  -1.189   1.461   7.883  1.1378 -1.1712  0.6603
  705MOL0     H93026  -1.127   1.808   7.596  0.2670 -0.1856  0.9967
  705MOL0     H93027  -1.265   1.834   7.688  1.3471  0.7788 -0.4040
  705MOL0     H93028  -1.414   1.724   7.562  0.1679  0.8655 -0.5894
  705MOL0     H93029  -1.317   1.591   7.526 -0.3866  1.5133  1.8472
  705MOL0     H93030  -1.359   1.669   7.323  2.5329 -2.0160 -0.9869
  705MOL0     H93031  -1.198   1.695   7.344 -0.4956 -2.0127 -1.2335
  705MOL0     H93032  -1.243   1.954   7.396  1.8143 -2.5632  0.0775
  705MOL0     H93033  -1.316   1.901   7.238  1.4206  1.2161 -0.0661
  705MOL0     H93034  -1.463   2.035   7.370 -2.2958 -1.3047 -2.0903
  705MOL0     H93035  -1.431   1.938   7.515 -1.8168 -0.0499  1.0028
  705MOL0     H93036  -1.570   1.760   7.365 -0.8681 -0.1956 -3.9190
  705MOL0     H93037  -1.611   1.895   7.269  0.6911 -0.9921 -0.9552
  705MOL0     H93038  -1.744   1.814   7.486 -1.0131  0.4258 -2.7114
  705MOL0     H93039  -1.621   1.879   7.578 -2.6767  1.0744  1.8579
  705MOL0     H93040  -1.678   2.121   7.477 -0.4867  0.8265  1.8621
  705MOL0     H93041  -1.811   2.051   7.558 -0.5170 -2.4772 -0.0063
  705MOL0     H93042  -0.988   1.633   7.528  2.4825  0.6619  1.0468
  705MOL0     H93043  -0.877   1.435   7.500  2.2534  1.4358  1.4945
  705MOL0     H93044  -0.908   0.965   7.686 -1.2050 -2.8531  0.2879
  705MOL0     H93045  -0.839   0.733   7.631 -0.6133  0.6552 -0.2381
  705MOL0     H93046  -0.124   0.845   8.861 -3.9973 -1.1330  1.0766
  705MOL0     H93047   0.110   0.790   8.843  0.3872 -0.6780 -0.1770
  705MOL0     H93048   0.407   0.474   8.690 -2.1452  1.6770 -0.3696
  705MOL0     H93049   0.644   0.414   8.651 -0.7132 -0.1995  0.8024
  705MOL0     H93050   0.825   0.544   8.264  2.0829 -2.1154 -1.9245
  705MOL0     H93051   0.723   0.409   8.294 -0.9521  2.2732 -2.3055
  705MOL0     H93052   1.022   0.422   8.346 -1.1780 -1.1062  1.1918
  705MOL0     H93053   0.932   0.276   8.378 -0.8848  0.3186  1.0818
  705MOL0     H93054   0.922   0.422   8.109 -1.7045  0.1161  1.0197
  705MOL0     H93055   0.880   0.259   8.130 -0.0428  0.1412  1.1854
  705MOL0     H93056   1.121   0.258   8.031  0.6519 -4.1843  1.0562
  705MOL0     H93057   1.166   0.348   8.172 -0.3545 -1.4106  2.4552
  705MOL0     H93058   1.117  -0.010   8.366 -1.6498 -2.4769 -2.3744
  705MOL0     H93059   0.692   0.708   8.369  0.5233 -0.7586  0.2102
  705MOL0     H93060   0.447   0.804   8.424  2.0705 -0.2780 -2.1997
  706MOL0     O93061   8.721   8.856   7.621 -0.0731  0.6107  0.4672
  706MOL0     C93062   8.641   8.765   7.612  0.3330  0.4534  0.9615
  706MOL0     O93063   8.663   8.646   7.542  0.2783 -0.0646  0.1679
  706MOL0     C93064   8.779   8.638   7.462 -0.8531 -0.6099  0.7974
  706MOL0     C93065   8.794   8.709   7.342 -0.1204 -0.2316 -0.1038
  706MOL0     C93066   8.905   8.686   7.264 -0.5737  1.1636 -0.2108
  706MOL0     C93067   9.015   8.599   7.296  0.0556 -0.2486 -0.2083
  706MOL0     O93068   9.114   8.566   7.204 -0.5384  0.0157 -0.9922
  706MOL0     C93069   9.140   8.646   7.088 -0.1457 -0.1880 -0.2204
  706MOL0     C93070   9.255   8.605   7.007  0.2104 -0.0952 -0.0485
  706MOL0     C93071   9.255   8.695   6.878  0.1623  0.3028 -0.2013
  706MOL0     C93072   9.387   8.680   6.800  1.3266 -1.0175  0.0070
  706MOL0     C93073   9.364   8.737   6.659 -0.1737 -0.1869  0.0572
  706MOL0     C93074   9.284   8.643   6.566 -0.5801  0.1963 -0.4578
  706MOL0     C93075   9.261   8.706   6.439 -0.8359  0.2797  0.4830
  706MOL0     C93076   9.139   8.807   6.428  0.1672  0.0847  0.5885
  706MOL0     N93077   9.160   8.907   6.319  0.2373  0.5075 -0.6176
  706MOL0     C93078   9.083   9.024   6.323  1.0745  0.3092 -0.1055
  706MOL0     C93079   9.119   9.082   6.206  0.1129  0.9086  0.4172
  706MOL0     C93080   9.066   9.215   6.168  0.7460  0.8249  0.6678
  706MOL0     C93081   8.959   9.211   6.060  0.0822  0.4776  0.0267
  706MOL0     C93082   8.847   9.303   6.078  1.2488 -0.5915  0.6503
  706MOL0     C93083   8.750   9.311   5.957  0.8795  0.1601 -0.0155
  706MOL0     O93084   8.691   9.443   5.945 -0.8141  0.3207  0.1130
  706MOL0     C93085   8.579   9.456   5.873  1.1524  0.1063  0.2916
  706MOL0     C93086   8.533   9.578   5.877 -0.8221  0.3623 -0.1856
  706MOL0     C93087   8.425   9.623   5.799  0.1207  0.4835 -0.2655
  706MOL0     C93088   8.374   9.543   5.698 -0.0204 -0.4944 -0.6942
  706MOL0     C93089   8.278   9.588   5.598 -0.4366  0.2558  0.0882
  706MOL0     O93090   8.243   9.722   5.605  0.2431 -0.6844  0.1974
  706MOL0     C93091   8.150   9.754   5.511  0.3655 -0.0968 -0.9270
  706MOL0     C93092   8.032   9.688   5.478  0.5877 -0.2944  0.3136
  706MOL0     C93093   7.952   9.728   5.370  0.7517 -0.5575  0.1406
  706MOL0     C93094   7.988   9.831   5.294  1.0543 -0.3728 -0.7646
  706MOL0     O93095   7.901   9.868   5.197  0.2618  0.0054  0.4225
  706MOL0     C93096   7.806   9.969   5.227 -0.6618  0.0988  0.2223
  706MOL0     C93097   7.675   9.936   5.150 -0.0392 -0.9181 -0.1668
  706MOL0     C93098   7.636   9.789   5.130  0.2459 -0.7409 -0.9323
  706MOL0     C93099   7.513   9.776   5.041 -0.3198 -0.1362  0.2236
  706MOL0     C93100   7.464   9.634   5.045 -0.1133  0.3152  0.0303
  706MOL0     C93101   7.357   9.609   4.935  0.4523 -0.2127 -0.7108
  706MOL0     C93102   7.294   9.473   4.950  0.3218  1.1312  1.0241
  706MOL0     C93103   7.155   9.468   4.892  0.0122 -0.1365  0.5960
  706MOL0    Cl93104   7.166   9.548   4.727  0.6123 -0.2225  0.2567
  706MOL0     C93105   8.101   9.900   5.323 -0.5237  1.0571 -0.5555
  706MOL0     C93106   8.183   9.859   5.430 -0.1733 -0.2133 -0.4175
  706MOL0     O93107   8.239   9.502   5.518 -0.7967 -0.8216 -0.2169
  706MOL0     C93108   8.419   9.403   5.700 -0.5971  0.1508 -0.2114
  706MOL0     C93109   8.523   9.358   5.781  0.3822 -0.8309  0.6173
  706MOL0     N93110   9.219   9.007   6.134 -0.0081 -0.7243 -0.1336
  706MOL0     N93111   9.242   8.903   6.211 -0.0280 -1.2755  0.8948
  706MOL0     C93112   8.995   8.528   7.416  0.2674  0.3530  0.8561
  706MOL0     C93113   8.883   8.553   7.501 -0.4632 -0.3569 -0.2358
  706MOL0     C93114   8.518   8.774   7.690 -0.1180  0.5410  0.8869
  706MOL0     C93115   8.477   8.904   7.734  0.0255  0.3957  0.3637
  706MOL0     C93116   8.359   8.904   7.814 -0.0137  0.5355  0.4591
  706MOL0     C93117   8.280   8.792   7.826  1.0162  0.4365  0.4377
  706MOL0     O93118   8.150   8.797   7.876 -0.0383  0.1955 -0.4560
  706MOL0     C93119   8.054   8.843   7.782  0.4010  0.2454  0.4037
  706MOL0     C93120   7.919   8.769   7.785 -0.1927 -0.0863 -0.0083
  706MOL0     C93121   7.940   8.618   7.787  0.7626  0.1043  0.6337
  706MOL0     C93122   7.808   8.573   7.856  0.7290  0.2118  0.3318
  706MOL0     C93123   7.810   8.437   7.901  0.3590 -0.2767 -0.1580
  706MOL0     C93124   7.815   8.326   7.954 -0.3712  0.0983 -0.4249
  706MOL0     C93125   8.315   8.669   7.778 -0.1456 -0.7885 -0.3050
  706MOL0     C93126   8.442   8.654   7.712 -0.5154 -0.5192 -0.0865
  706MOL0     H93127   8.717   8.782   7.320 -0.1141 -0.6648 -1.6774
  706MOL0     H93128   8.905   8.747   7.174 -3.5969 -0.6090 -1.5797
  706MOL0     H93129   9.165   8.743   7.131  3.8985 -1.1437 -0.0473
  706MOL0     H93130   9.051   8.656   7.026  1.0091  2.5374 -1.5755
  706MOL0     H93131   9.236   8.501   6.980 -0.1403 -0.1885  0.5545
  706MOL0     H93132   9.344   8.617   7.069  0.4589 -1.9270 -0.0139
  706MOL0     H93133   9.230   8.797   6.908 -1.3376  0.0409 -0.4598
  706MOL0     H93134   9.175   8.653   6.816 -0.1256  1.8928 -0.9426
  706MOL0     H93135   9.472   8.732   6.845  2.8908 -1.8971 -1.8109
  706MOL0     H93136   9.411   8.574   6.801  2.8922 -0.7638  3.4758
  706MOL0     H93137   9.467   8.744   6.623 -0.5452  0.3523 -0.9141
  706MOL0     H93138   9.321   8.836   6.652 -0.6750 -0.2219  1.9632
  706MOL0     H93139   9.183   8.630   6.607 -0.0357 -0.9941  0.5637
  706MOL0     H93140   9.330   8.545   6.552 -0.6868  0.4061 -2.6031
  706MOL0     H93141   9.344   8.776   6.423  0.5477 -1.2008  0.8152
  706MOL0     H93142   9.259   8.630   6.360 -2.6040  0.2513  0.5223
  706MOL0     H93143   9.135   8.865   6.521 -0.4595 -0.0670  0.6631
  706MOL0     H93144   9.044   8.757   6.407 -0.4838  1.6632 -0.3945
  706MOL0     H93145   9.015   9.065   6.397  2.2073  3.0274 -0.4444
  706MOL0     H93146   9.159   9.256   6.125  1.2728 -1.7942 -0.9375
  706MOL0     H93147   9.040   9.286   6.246 -0.9590  3.7295 -2.2790
  706MOL0     H93148   8.915   9.111   6.068  0.9528  0.1695  1.1916
  706MOL0     H93149   8.999   9.215   5.959  0.3513  0.4062  0.1312
  706MOL0     H93150   8.782   9.284   6.163 -0.5423  0.9102 -0.3171
  706MOL0     H93151   8.896   9.401   6.086  1.1991 -0.4690 -0.3276
  706MOL0     H93152   8.672   9.236   5.975 -1.1628  1.9446 -1.0789
  706MOL0     H93153   8.809   9.290   5.868 -0.5009  2.8629 -1.7035
  706MOL0     H93154   8.596   9.634   5.946  0.0220 -1.1727  0.3358
  706MOL0     H93155   8.379   9.718   5.826 -0.4101  0.1750 -0.0610
  706MOL0     H93156   7.989   9.603   5.528 -1.5086  0.2853 -0.3858
  706MOL0     H93157   7.865   9.666   5.352 -2.2905  3.4330 -0.1774
  706MOL0     H93158   7.853  10.067   5.215  0.2185 -0.1873  1.1924
  706MOL0     H93159   7.787   9.957   5.333  0.8140 -0.2804  0.4727
  706MOL0     H93160   7.685   9.970   5.046 -3.3548 -0.4914 -0.4777
  706MOL0     H93161   7.587   9.998   5.171  0.4300 -0.1382 -0.4313
  706MOL0     H93162   7.633   9.740   5.227  2.5950 -0.9594 -0.9252
  706MOL0     H93163   7.724   9.730   5.104 -0.3948 -2.0584 -0.1924
  706MOL0     H93164   7.435   9.846   5.072  0.1511 -0.0395  1.2671
  706MOL0     H93165   7.532   9.803   4.937 -1.8209 -1.6565 -0.4911
  706MOL0     H93166   7.431   9.614   5.148  1.7427 -2.4519  0.2065
  706MOL0     H93167   7.552   9.569   5.037 -0.9111 -0.9075  0.7788
  706MOL0     H93168   7.402   9.624   4.836 -0.6853  1.8877 -0.9665
  706MOL0     H93169   7.284   9.690   4.930  1.0796  0.3877 -0.4391
  706MOL0     H93170   7.355   9.388   4.916 -0.8578  0.7012 -0.1096
  706MOL0     H93171   7.292   9.446   5.056 -1.1653  0.0083  0.7378
  706MOL0     H93172   7.091   9.534   4.952  0.8994 -0.1539  1.5895
  706MOL0     H93173   7.116   9.366   4.884 -2.3101  0.6597  0.9350
  706MOL0     H93174   8.144   9.981   5.265 -0.4306  1.0269 -0.5305
  706MOL0     H93175   8.278   9.905   5.457 -1.3463  3.9219 -2.5530
  706MOL0     H93176   8.375   9.325   5.637 -3.8997  1.1852  0.5905
  706MOL0     H93177   8.555   9.255   5.781  0.5155 -0.8183 -1.1254
  706MOL0     H93178   9.063   8.452   7.452 -1.1068 -1.3701  0.0006
  706MOL0     H93179   8.884   8.512   7.601 -2.6860 -0.3623 -0.1766
  706MOL0     H93180   8.537   8.994   7.730 -2.6124  2.2239 -1.1080
  706MOL0     H93181   8.324   8.986   7.877  1.4565 -0.2755  2.4417
  706MOL0     H93182   8.103   8.828   7.685  2.0830 -1.4130  1.4344
  706MOL0     H93183   8.034   8.948   7.805 -0.6017  0.3676 -0.9324
  706MOL0     H93184   7.863   8.805   7.872 -3.7376 -2.7703 -0.9687
  706MOL0     H93185   7.869   8.810   7.697  1.1977  0.5547 -0.5293
  706MOL0     H93186   8.026   8.593   7.850  0.7171 -0.9746  0.3024
  706MOL0     H93187   7.951   8.577   7.686  1.7994  0.7913  0.4515
  706MOL0     H93188   7.792   8.632   7.947 -0.6904 -0.4668  0.5507
  706MOL0     H93189   7.724   8.580   7.787  2.0722 -2.7178 -1.7621
  706MOL0     H93190   7.824   8.226   7.990  1.2691  0.9594  1.7865
  706MOL0     H93191   8.244   8.588   7.786 -0.4243 -0.5033  0.1334
  706MOL0     H93192   8.481   8.554   7.696 -0.8883 -0.8565  0.9885
  707MOL0     O93193   3.870  10.427   0.026  0.3371  0.0583  0.4101
  707MOL0     C93194   3.853  10.321   0.082  0.3572  0.5479 -0.7359
  707MOL0     O93195   3.758  10.227   0.045  0.1615  0.5905 -0.9012
  707MOL0     C93196   3.672  10.253  -0.068  0.0892 -0.4742 -0.7847
  707MOL0     C93197   3.569  10.346  -0.049  0.2171 -0.1991 -0.1004
  707MOL0     C93198   3.470  10.364  -0.144 -0.4307 -0.0882  0.6092
  707MOL0     C93199   3.467  10.285  -0.259  0.0005  0.9730 -0.7863
  707MOL0     O93200   3.371  10.294  -0.355 -0.7229 -0.0778 -1.0766
  707MOL0     C93201   3.302  10.415  -0.378  0.4575 -0.6474 -0.0602
  707MOL0     C93202   3.239  10.430  -0.523 -0.0202  0.4358  0.8597
  707MOL0     C93203   3.184  10.565  -0.573  0.1352 -0.1147  0.1023
  707MOL0     C93204   3.306  10.662  -0.623 -0.5394  1.2918  0.0230
  707MOL0     C93205   3.250  10.796  -0.657  0.1938 -0.8653  0.3339
  707MOL0     C93206   3.223  10.884  -0.531  1.3184 -0.8830 -0.0085
  707MOL0     C93207   3.137  11.012  -0.579 -0.3307  0.1152 -0.6363
  707MOL0     C93208   2.990  10.978  -0.589 -0.6651  0.9230  1.4666
  707MOL0     N93209   2.906  11.095  -0.595 -0.2282  0.3179  0.7980
  707MOL0     C93210   2.866  11.180  -0.488 -1.2571 -0.5857  0.1832
  707MOL0     C93211   2.771  11.265  -0.531  0.7018 -0.6113 -0.0764
  707MOL0     C93212   2.702  11.380  -0.460  0.1038 -0.3287  0.3893
  707MOL0     C93213   2.706  11.525  -0.530  0.4867 -0.1470  0.5046
  707MOL0     C93214   2.577  11.581  -0.598  0.0657  0.5205  0.1088
  707MOL0     C93215   2.532  11.490  -0.715 -0.3868 -0.6210 -0.6191
  707MOL0     O93216   2.394  11.521  -0.745 -0.4035  0.1057 -0.4829
  707MOL0     C93217   2.331  11.479  -0.857 -0.4618 -0.1523  0.2229
  707MOL0     C93218   2.195  11.454  -0.853 -0.3242  0.5030 -1.3155
  707MOL0     C93219   2.129  11.419  -0.977  0.6217  0.3442  0.0644
  707MOL0     C93220   2.202  11.391  -1.100 -0.2787  0.4384 -0.9067
  707MOL0     C93221   2.132  11.356  -1.232  0.6240 -0.0028  0.3819
  707MOL0     O93222   1.997  11.388  -1.231 -0.5472  0.0212  0.0144
  707MOL0     C93223   1.929  11.408  -1.344  0.8757  1.4511 -0.7045
  707MOL0     C93224   1.792  11.388  -1.337 -0.0812  0.1465  0.3587
  707MOL0     C93225   1.717  11.436  -1.453  0.3400 -0.5555 -0.1925
  707MOL0     C93226   1.772  11.477  -1.575 -0.2545 -0.5170  0.6032
  707MOL0     O93227   1.685  11.530  -1.676  0.7188 -0.0526  0.2434
  707MOL0     C93228   1.751  11.611  -1.772 -0.1511 -0.8899 -0.6066
  707MOL0     C93229   1.649  11.693  -1.849 -0.1167  0.0207  0.2897
  707MOL0     C93230   1.563  11.775  -1.751  0.2422 -0.1996 -0.3354
  707MOL0     C93231   1.480  11.872  -1.843 -0.1453  0.2382  0.6173
  707MOL0     C93232   1.391  11.955  -1.753 -0.1832  0.6395  0.8295
  707MOL0     C93233   1.449  12.084  -1.714 -0.1645  0.0746 -0.6938
  707MOL0     C93234   1.463  12.189  -1.822 -0.2788 -0.0094  0.1155
  707MOL0     C93235   1.496  12.319  -1.769  0.5223 -1.7586  1.1455
  707MOL0    Cl93236   1.519  12.428  -1.894 -0.2438 -0.7666  0.1617
  707MOL0     C93237   1.913  11.485  -1.568  0.5295 -0.2130 -0.0046
  707MOL0     C93238   1.988  11.467  -1.458 -0.5760  1.2362 -0.1727
  707MOL0     O93239   2.192  11.302  -1.323  0.1343 -0.5265  0.1890
  707MOL0     C93240   2.349  11.391  -1.088 -0.2951  0.6168 -0.5086
  707MOL0     C93241   2.402  11.451  -0.974 -0.8553 -0.5256  0.5218
  707MOL0     N93242   2.761  11.240  -0.669  0.0408  1.4663  0.9372
  707MOL0     N93243   2.829  11.129  -0.707 -0.1284  0.5091 -0.1145
  707MOL0     C93244   3.571  10.196  -0.286  0.0981 -0.6077  0.6416
  707MOL0     C93245   3.672  10.181  -0.187  0.4464  0.7420  1.0262
  707MOL0     C93246   3.940  10.278   0.189 -0.0058  0.4826 -0.1168
  707MOL0     C93247   3.888  10.227   0.310  0.3920  0.3307  0.2221
  707MOL0     C93248   3.983  10.179   0.403  0.2582  0.0376  0.4039
  707MOL0     C93249   4.122  10.198   0.393 -0.5085 -0.7310 -0.6151
  707MOL0     O93250   4.220  10.161   0.487  0.6327 -0.1498 -0.7421
  707MOL0     C93251   4.177  10.091   0.605  0.0080  0.3340  0.2866
  707MOL0     C93252   4.163   9.936   0.587  0.1955  0.0947  0.1689
  707MOL0     C93253   4.078   9.880   0.698  0.2813  0.3737  0.5242
  707MOL0     C93254   4.036   9.732   0.670  0.4808 -0.2116 -0.8697
  707MOL0     C93255   4.154   9.645   0.647  0.1510 -0.8809 -1.1358
  707MOL0     C93256   4.252   9.579   0.632 -0.1131 -0.7760 -0.8025
  707MOL0     C93257   4.160  10.244   0.269 -0.6952 -0.3212  0.0707
  707MOL0     C93258   4.075  10.278   0.166 -0.2098 -0.5285 -0.4601
  707MOL0     H93259   3.556  10.404   0.041 -4.3837 -0.4629 -0.3423
  707MOL0     H93260   3.395  10.440  -0.123  0.6545  1.0549  0.4802
  707MOL0     H93261   3.372  10.497  -0.359 -1.2546  0.7919  0.1813
  707MOL0     H93262   3.223  10.422  -0.304  0.9227  0.9141  0.3153
  707MOL0     H93263   3.157  10.358  -0.532 -1.7610  2.3402  0.9049
  707MOL0     H93264   3.307  10.398  -0.604 -0.7245  1.6864 -0.2630
  707MOL0     H93265   3.139  10.613  -0.485 -1.9514 -2.5781  0.4907
  707MOL0     H93266   3.105  10.554  -0.649  0.9143  0.5163 -0.8247
  707MOL0     H93267   3.391  10.679  -0.556 -0.4734 -0.4767  0.4307
  707MOL0     H93268   3.340  10.614  -0.716 -0.5622  2.0026 -0.3579
  707MOL0     H93269   3.165  10.787  -0.725  1.4407  2.7241 -2.0373
  707MOL0     H93270   3.321  10.842  -0.727  1.4937 -1.2853  1.3539
  707MOL0     H93271   3.321  10.914  -0.490  1.4062 -1.2256  0.0317
  707MOL0     H93272   3.157  10.832  -0.461 -0.3969 -0.8814 -1.5554
  707MOL0     H93273   3.160  11.087  -0.503 -1.6394  0.2271 -0.3346
  707MOL0     H93274   3.169  11.037  -0.681 -0.0757 -2.1990 -1.1812
  707MOL0     H93275   2.963  10.905  -0.513  1.3034 -1.8242 -0.2618
  707MOL0     H93276   2.977  10.934  -0.688  1.8270  2.5189  0.3313
  707MOL0     H93277   2.906  11.178  -0.387  0.1691 -0.4887 -0.3601
  707MOL0     H93278   2.750  11.377  -0.362  3.0528 -0.5539 -0.9695
  707MOL0     H93279   2.595  11.357  -0.447 -0.4152  1.7806  0.2037
  707MOL0     H93280   2.787  11.517  -0.604  1.2715 -4.1343  1.5369
  707MOL0     H93281   2.728  11.594  -0.449 -0.1530 -1.3711  1.7593
  707MOL0     H93282   2.501  11.578  -0.519  0.8816  2.0943  0.9940
  707MOL0     H93283   2.583  11.680  -0.643 -2.1590  0.0731 -1.3590
  707MOL0     H93284   2.526  11.387  -0.679 -3.8365  0.1377  1.4511
  707MOL0     H93285   2.593  11.501  -0.805 -0.7124  0.0115 -0.7693
  707MOL0     H93286   2.144  11.479  -0.761  1.2937 -1.0702  0.0881
  707MOL0     H93287   2.022  11.406  -0.979  0.6017  0.4353  0.4398
  707MOL0     H93288   1.743  11.349  -1.248 -2.5059 -2.1906 -1.8163
  707MOL0     H93289   1.609  11.434  -1.455  0.2086  2.4464 -0.9475
  707MOL0     H93290   1.809  11.557  -1.846  2.8474  2.9166 -1.3742
  707MOL0     H93291   1.813  11.695  -1.737 -3.0759  1.7973 -1.3459
  707MOL0     H93292   1.589  11.619  -1.903 -0.6112  1.8275 -1.7973
  707MOL0     H93293   1.707  11.750  -1.923 -0.0148 -0.9811 -0.4244
  707MOL0     H93294   1.633  11.827  -1.683  0.9743 -1.1966 -0.3036
  707MOL0     H93295   1.504  11.704  -1.692 -0.3289 -0.8737 -1.6980
  707MOL0     H93296   1.552  11.934  -1.897 -0.5486 -0.4698 -0.7820
  707MOL0     H93297   1.418  11.812  -1.910  0.9320  2.4191 -2.5594
  707MOL0     H93298   1.375  11.894  -1.664  0.1940 -0.3942  0.2058
  707MOL0     H93299   1.290  11.964  -1.795 -1.5758 -0.6402  3.6810
  707MOL0     H93300   1.543  12.078  -1.658 -1.5186 -1.8783  1.5750
  707MOL0     H93301   1.389  12.119  -1.629 -1.7523 -2.1656 -0.8179
  707MOL0     H93302   1.536  12.165  -1.899 -0.8823 -3.1703  0.3797
  707MOL0     H93303   1.369  12.204  -1.876 -0.3396 -2.4616 -0.6160
  707MOL0     H93304   1.581  12.323  -1.700  1.1128  1.5736  0.3912
  707MOL0     H93305   1.419  12.369  -1.709 -1.7914 -0.2456 -2.7089
  707MOL0     H93306   1.962  11.506  -1.663 -0.8782  2.4226 -0.2538
  707MOL0     H93307   2.097  11.470  -1.463 -0.4711 -1.1114 -0.1370
  707MOL0     H93308   2.421  11.369  -1.166  0.7287 -3.0092  1.2587
  707MOL0     H93309   2.510  11.464  -0.982 -1.1298  3.2020  1.2746
  707MOL0     H93310   3.573  10.145  -0.382 -0.5892  0.9748 -0.2571
  707MOL0     H93311   3.750  10.111  -0.218 -1.4249 -1.6382  1.3680
  707MOL0     H93312   3.783  10.197   0.312  0.8325 -1.9817 -2.9292
  707MOL0     H93313   3.956  10.108   0.481  1.2237  0.2594  0.9500
  707MOL0     H93314   4.085  10.136   0.643 -0.2971 -0.0632  0.0293
  707MOL0     H93315   4.251  10.114   0.682  0.2800  4.9911 -1.0600
  707MOL0     H93316   4.116   9.926   0.489  1.5741  1.0232 -0.6301
  707MOL0     H93317   4.261   9.887   0.584 -0.9323 -2.2631 -2.9437
  707MOL0     H93318   3.985   9.936   0.706 -0.5041 -0.8222  0.0956
  707MOL0     H93319   4.128   9.879   0.795  1.1673 -2.0903  0.1035
  707MOL0     H93320   3.982   9.701   0.760  1.7461 -0.4765 -0.1697
  707MOL0     H93321   3.968   9.734   0.585 -1.0935 -1.9232  0.2573
  707MOL0     H93322   4.352   9.540   0.628  1.0525  1.4743  2.2495
  707MOL0     H93323   4.263  10.268   0.242 -0.1732  0.2587  2.3345
  707MOL0     H93324   4.114  10.329   0.078 -0.4824  3.0914  1.3760
  708MOL0     O93325   5.632   4.665   2.429 -0.0045 -0.0960 -0.5744
  708MOL0     C93326   5.676   4.778   2.450 -1.3849 -0.5294 -0.6845
  708MOL0     O93327   5.683   4.846   2.576  0.3649  0.9178  0.3759
  708MOL0     C93328   5.650   4.784   2.697  0.2347 -0.4177 -0.1426
  708MOL0     C93329   5.599   4.857   2.803 -0.4298  0.4963  0.0650
  708MOL0     C93330   5.556   4.799   2.916 -0.1727  0.1577  0.3179
  708MOL0     C93331   5.579   4.668   2.944 -1.0641  0.0159 -1.1609
  708MOL0     O93332   5.534   4.609   3.062  0.2357 -0.2270  0.4971
  708MOL0     C93333   5.614   4.585   3.176  0.1810  0.3352 -0.4065
  708MOL0     C93334   5.543   4.471   3.251  0.6046 -0.3316  0.4383
  708MOL0     C93335   5.422   4.529   3.326  0.8876 -0.5662  0.0403
  708MOL0     C93336   5.370   4.440   3.447 -0.0215 -0.5763  0.2223
  708MOL0     C93337   5.281   4.516   3.548  0.5138  0.2494 -0.4379
  708MOL0     C93338   5.149   4.577   3.499 -0.0808  0.3004  0.7301
  708MOL0     C93339   5.087   4.653   3.619  0.2119  0.4883 -0.5171
  708MOL0     C93340   4.973   4.749   3.581  0.1610  0.0286 -0.6614
  708MOL0     N93341   4.848   4.680   3.573  0.3615  0.1219 -0.7615
  708MOL0     C93342   4.766   4.688   3.466  0.5723  0.2058 -0.3831
  708MOL0     C93343   4.657   4.625   3.493  0.0789  0.0258 -0.0133
  708MOL0     C93344   4.545   4.622   3.396 -0.3645 -0.0596  0.7400
  708MOL0     C93345   4.400   4.607   3.446  0.0171 -0.6882  0.4263
  708MOL0     C93346   4.288   4.578   3.350 -0.5406  0.1319  0.2371
  708MOL0     C93347   4.256   4.682   3.241 -0.9778 -0.6728 -0.1894
  708MOL0     O93348   4.370   4.700   3.154 -0.3085 -0.6290 -0.0689
  708MOL0     C93349   4.383   4.613   3.045  0.8950  0.2080  0.6309
  708MOL0     C93350   4.511   4.577   3.011 -0.7751  0.0295 -0.8840
  708MOL0     C93351   4.539   4.472   2.928 -0.0766  0.7964 -0.3326
  708MOL0     C93352   4.435   4.404   2.862 -0.1675  0.1917 -0.8538
  708MOL0     C93353   4.462   4.293   2.770  0.0032  0.4015  0.7893
  708MOL0     O93354   4.360   4.249   2.683 -0.2961 -0.9626  0.4277
  708MOL0     C93355   4.378   4.132   2.622 -0.5355 -0.5125  0.2340
  708MOL0     C93356   4.389   4.011   2.700  0.3957 -0.8411 -0.1229
  708MOL0     C93357   4.411   3.891   2.630  1.1664  0.4294  1.0029
  708MOL0     C93358   4.432   3.892   2.488 -0.3024 -0.3205 -0.5298
  708MOL0     O93359   4.447   3.766   2.432  0.0480 -0.7463 -0.2511
  708MOL0     C93360   4.428   3.752   2.295 -0.2739  0.3762  0.2055
  708MOL0     C93361   4.470   3.617   2.242 -0.2021 -0.0137  0.1199
  708MOL0     C93362   4.607   3.573   2.298 -0.7301  0.6860 -0.1629
  708MOL0     C93363   4.639   3.426   2.272  0.2965  0.0910  1.7318
  708MOL0     C93364   4.730   3.359   2.374 -0.3291  0.0433  0.3219
  708MOL0     C93365   4.870   3.417   2.381 -0.4029  0.2152 -0.2616
  708MOL0     C93366   4.964   3.318   2.454  0.7746 -0.6424  0.5096
  708MOL0     C93367   4.972   3.189   2.374 -0.2606 -0.4503  0.1454
  708MOL0    Cl93368   5.101   3.079   2.443 -0.0480  0.3181  0.3396
  708MOL0     C93369   4.420   4.009   2.418  0.7016 -0.9345  0.0594
  708MOL0     C93370   4.385   4.125   2.481 -0.2527 -0.1361  0.2558
  708MOL0     O93371   4.576   4.246   2.773 -0.3162  0.3583 -0.6624
  708MOL0     C93372   4.304   4.450   2.880  0.1488  0.5499 -0.4013
  708MOL0     C93373   4.279   4.553   2.975  0.8181  0.2302 -0.7483
  708MOL0     N93374   4.665   4.573   3.624 -0.1454 -0.5231  0.9138
  708MOL0     N93375   4.781   4.602   3.661 -0.0343 -0.7215  0.4170
  708MOL0     C93376   5.648   4.595   2.846  0.1706  0.5754  0.3015
  708MOL0     C93377   5.671   4.650   2.717  0.0226 -0.0318  0.8338
  708MOL0     C93378   5.727   4.866   2.339  0.0262 -0.0000  0.3707
  708MOL0     C93379   5.748   5.012   2.346 -0.6478 -0.1060  0.3316
  708MOL0     C93380   5.803   5.080   2.237  0.1416 -0.1865 -0.6254
  708MOL0     C93381   5.848   5.019   2.118 -0.5398  0.2843  0.5450
  708MOL0     O93382   5.896   5.091   2.010  0.3243  0.0946 -0.5848
  708MOL0     C93383   5.904   5.236   2.013  0.1433  0.8148 -0.4769
  708MOL0     C93384   5.951   5.298   1.884 -0.2428  0.2056 -0.4032
  708MOL0     C93385   5.950   5.455   1.880  0.2317 -0.1496 -0.4267
  708MOL0     C93386   6.008   5.506   1.747  0.2383  0.2704  0.2003
  708MOL0     C93387   6.026   5.647   1.765 -0.0292 -0.4855 -0.4736
  708MOL0     C93388   6.032   5.759   1.800  0.8917  0.8844  0.3705
  708MOL0     C93389   5.817   4.881   2.112  0.6636 -0.2923 -0.0344
  708MOL0     C93390   5.758   4.804   2.213  0.7688 -0.8296  0.1519
  708MOL0     H93391   5.561   4.956   2.779  0.5927  0.3409 -2.5663
  708MOL0     H93392   5.507   4.868   2.985  0.7507  1.5617 -0.3787
  708MOL0     H93393   5.636   4.680   3.225  0.5958  0.0867 -0.1033
  708MOL0     H93394   5.712   4.543   3.150 -0.4568 -2.5283  1.3649
  708MOL0     H93395   5.612   4.439   3.330 -2.6354 -0.7958  3.3437
  708MOL0     H93396   5.502   4.399   3.179 -3.0709  1.9281 -0.0062
  708MOL0     H93397   5.340   4.546   3.256  0.6897 -1.7491 -0.0316
  708MOL0     H93398   5.452   4.628   3.362 -0.3079  0.1371 -0.8417
  708MOL0     H93399   5.306   4.359   3.414 -0.8613 -2.1376  4.9058
  708MOL0     H93400   5.455   4.392   3.497  0.3208 -1.8751 -1.5130
  708MOL0     H93401   5.338   4.602   3.586 -0.4651  1.0022 -0.6239
  708MOL0     H93402   5.264   4.458   3.639  2.6732  1.5364  0.8744
  708MOL0     H93403   5.074   4.500   3.481 -2.0293  2.5454 -1.6014
  708MOL0     H93404   5.150   4.641   3.410 -1.2799 -4.8534 -3.5165
  708MOL0     H93405   5.039   4.586   3.692 -0.0174  1.9711  0.7598
  708MOL0     H93406   5.164   4.705   3.677 -1.4629  1.2237  1.1737
  708MOL0     H93407   5.005   4.797   3.487  1.1163  2.2456  0.7231
  708MOL0     H93408   4.946   4.821   3.658 -1.7568 -2.8200  1.5347
  708MOL0     H93409   4.783   4.745   3.375  1.1931  1.0749  0.2658
  708MOL0     H93410   4.578   4.557   3.314 -0.3203  0.2427  0.5192
  708MOL0     H93411   4.542   4.717   3.342 -0.9030 -0.4027  0.1389
  708MOL0     H93412   4.373   4.696   3.503 -3.6645 -1.1216 -0.4199
  708MOL0     H93413   4.415   4.524   3.516 -1.5707 -1.2934  0.0936
  708MOL0     H93414   4.305   4.479   3.305  1.5272  1.2037 -1.5149
  708MOL0     H93415   4.197   4.560   3.408  0.6180  0.3023  2.1911
  708MOL0     H93416   4.238   4.780   3.286  4.6818  0.1620  1.0738
  708MOL0     H93417   4.165   4.673   3.182  0.4733  1.7474 -3.1031
  708MOL0     H93418   4.601   4.608   3.065  1.4933 -3.8086 -2.0896
  708MOL0     H93419   4.637   4.426   2.919  0.1652  0.4473  2.9977
  708MOL0     H93420   4.376   4.008   2.808  2.1470 -0.2278  0.1503
  708MOL0     H93421   4.424   3.791   2.670 -1.2984 -0.0938  0.6876
  708MOL0     H93422   4.498   3.814   2.240 -0.0690  2.0476  2.2275
  708MOL0     H93423   4.324   3.775   2.269 -0.8875 -0.3327  1.8570
  708MOL0     H93424   4.486   3.609   2.134  0.1923  1.4782  0.0474
  708MOL0     H93425   4.394   3.548   2.278  1.2479 -1.4325  0.5685
  708MOL0     H93426   4.616   3.593   2.405 -0.2734  0.9609 -0.2519
  708MOL0     H93427   4.685   3.629   2.246  0.9168  1.2491  2.7054
  708MOL0     H93428   4.546   3.370   2.284  1.6813 -3.4225 -1.9031
  708MOL0     H93429   4.675   3.419   2.169  0.0844  1.6129  1.5239
  708MOL0     H93430   4.733   3.255   2.338  2.8458  0.3681 -0.7177
  708MOL0     H93431   4.690   3.366   2.475 -1.6778  4.4469 -0.3354
  708MOL0     H93432   4.862   3.515   2.429 -0.8848  2.3913 -4.2898
  708MOL0     H93433   4.911   3.439   2.282  0.5676 -0.1811  0.0423
  708MOL0     H93434   5.060   3.369   2.469  0.9329 -0.7406 -0.1168
  708MOL0     H93435   4.923   3.313   2.555 -0.8046  1.6783  0.0738
  708MOL0     H93436   4.994   3.228   2.274 -1.7045  0.2499  0.0888
  708MOL0     H93437   4.890   3.117   2.376 -2.0260  1.4826  0.5558
  708MOL0     H93438   4.426   4.014   2.309  1.6341 -0.7017  0.1098
  708MOL0     H93439   4.381   4.217   2.424  1.1387  0.1031  0.4947
  708MOL0     H93440   4.222   4.404   2.826 -0.6166  0.0010  1.1588
  708MOL0     H93441   4.173   4.571   2.992  1.1381  0.9881  0.5682
  708MOL0     H93442   5.675   4.490   2.853  0.0616  0.4812 -0.5141
  708MOL0     H93443   5.706   4.578   2.644 -4.8690 -1.5332 -0.4094
  708MOL0     H93444   5.733   5.061   2.441 -0.8005 -1.5341  1.0677
  708MOL0     H93445   5.816   5.186   2.256 -0.4760 -0.6554  3.2941
  708MOL0     H93446   5.969   5.260   2.098  0.7167 -0.2878 -0.5858
  708MOL0     H93447   5.805   5.278   2.036 -1.3828 -0.9342 -3.2603
  708MOL0     H93448   6.051   5.262   1.857 -0.9272 -0.1884 -2.5933
  708MOL0     H93449   5.877   5.269   1.809 -1.7051  0.6700  0.8208
  708MOL0     H93450   6.021   5.485   1.957  0.5354 -0.6450 -0.5039
  708MOL0     H93451   5.852   5.497   1.902  1.7873  2.3630  2.3311
  708MOL0     H93452   6.102   5.456   1.722  0.3277  0.1833  0.7162
  708MOL0     H93453   5.932   5.491   1.670 -0.3296 -1.3358  1.0254
  708MOL0     H93454   6.043   5.862   1.830  0.1728  0.7175  1.2584
  708MOL0     H93455   5.864   4.831   2.028  2.9685  0.9513  0.4460
  708MOL0     H93456   5.760   4.697   2.200  3.2724 -0.8868  0.5248
  709MOL0     O93457   9.775   9.669   6.848  0.1235 -0.7432  0.0708
  709MOL0     C93458   9.769   9.569   6.915  0.5842  0.0217 -0.1968
  709MOL0     O93459   9.737   9.448   6.861 -0.2012  0.1771  0.0979
  709MOL0     C93460   9.699   9.435   6.730  0.3145  0.3105  0.2315
  709MOL0     C93461   9.765   9.490   6.618 -0.0063  0.1109  0.3068
  709MOL0     C93462   9.730   9.462   6.486  0.2941 -0.9032  0.1719
  709MOL0     C93463   9.607   9.396   6.454 -0.0159  0.3142 -0.1342
  709MOL0     O93464   9.563   9.407   6.319 -0.1374  0.1840 -0.5030
  709MOL0     C93465   9.507   9.281   6.283  0.2620  0.7573  0.2563
  709MOL0     C93466   9.490   9.273   6.131 -0.0128 -0.0789  0.1713
  709MOL0     C93467   9.631   9.278   6.057  0.3247 -0.0990  0.7998
  709MOL0     C93468   9.626   9.211   5.926 -0.1076  0.3309  0.6244
  709MOL0     C93469   9.750   9.152   5.878 -0.8939 -0.0116  0.5524
  709MOL0     C93470   9.825   9.248   5.799  0.2630 -0.7591 -0.3256
  709MOL0     C93471   9.974   9.214   5.793  0.4627  0.2215 -0.0620
  709MOL0     C93472  10.052   9.323   5.730 -0.1564  0.2023  0.1017
  709MOL0     N93473  10.190   9.271   5.678 -0.3106 -0.1082 -1.4821
  709MOL0     C93474  10.288   9.218   5.756  0.0937 -0.3816 -0.5229
  709MOL0     C93475  10.374   9.159   5.668  0.4960 -0.1234 -0.3110
  709MOL0     C93476  10.481   9.067   5.719 -0.4026 -0.0397 -0.9746
  709MOL0     C93477  10.431   8.930   5.731 -0.6635  0.8606  0.0344
  709MOL0     C93478  10.451   8.857   5.866  0.1778  1.3429 -0.3515
  709MOL0     C93479  10.387   8.922   5.999 -0.7865  0.2856 -0.8599
  709MOL0     O93480  10.449   9.048   6.041  0.5280  0.2272  0.5268
  709MOL0     C93481  10.467   9.065   6.180  0.0056 -0.0033 -0.5909
  709MOL0     C93482  10.397   9.008   6.282 -0.4232  0.3589  0.5229
  709MOL0     C93483  10.425   9.034   6.419  0.4001 -0.0227  1.3851
  709MOL0     C93484  10.521   9.122   6.449 -0.7349 -0.5551  0.8694
  709MOL0     C93485  10.539   9.175   6.584 -0.7279 -0.6970  0.1716
  709MOL0     O93486  10.631   9.278   6.597  0.3973  0.8817  0.2011
  709MOL0     C93487  10.667   9.309   6.726 -0.6158 -1.3376 -0.7217
  709MOL0     C93488  10.701   9.222   6.825  0.5730 -0.0886  0.5844
  709MOL0     C93489  10.739   9.257   6.956  0.2647  0.6680 -0.3386
  709MOL0     C93490  10.727   9.393   6.997  1.0757 -0.2782 -0.2680
  709MOL0     O93491  10.751   9.442   7.126  0.2317  0.1105  0.6702
  709MOL0     C93492  10.707   9.362   7.231  0.7981  1.0553  0.6200
  709MOL0     C93493  10.674   9.447   7.343 -0.4690 -0.8116 -0.2310
  709MOL0     C93494  10.649   9.363   7.469 -0.1896  0.3882  0.6310
  709MOL0     C93495  10.636   9.445   7.598 -0.3172  0.4762  0.2750
  709MOL0     C93496  10.762   9.511   7.648 -0.1228 -0.1716 -0.0840
  709MOL0     C93497  10.750   9.590   7.770  0.4407 -0.1455 -0.2598
  709MOL0     C93498  10.882   9.657   7.820  0.3342  0.3174  0.6156
  709MOL0     C93499  10.889   9.745   7.944  0.3120 -0.6640 -0.4348
  709MOL0    Cl93500  10.756   9.860   7.956  0.0980  0.1555  0.7456
  709MOL0     C93501  10.709   9.483   6.891  0.4159  0.1678 -0.3409
  709MOL0     C93502  10.676   9.448   6.763  0.6241 -0.3632 -0.3752
  709MOL0     O93503  10.478   9.123   6.679 -0.4424 -0.5845 -0.7526
  709MOL0     C93504  10.597   9.185   6.345 -0.3334 -0.1370 -1.2557
  709MOL0     C93505  10.571   9.151   6.216  0.5577  1.3661  0.0232
  709MOL0     N93506  10.325   9.174   5.542 -1.0810 -0.0983  0.4666
  709MOL0     N93507  10.218   9.246   5.545 -0.2653  0.2153  0.4881
  709MOL0     C93508   9.538   9.345   6.560  0.2180 -0.6869 -0.7337
  709MOL0     C93509   9.592   9.349   6.697  0.2409 -0.4254  0.5236
  709MOL0     C93510   9.774   9.585   7.064 -0.2499  0.1208  0.4078
  709MOL0     C93511   9.851   9.689   7.132 -0.1074  1.0009 -0.3278
  709MOL0     C93512   9.846   9.707   7.275  1.0372 -0.6522  0.4083
  709MOL0     C93513   9.763   9.627   7.353 -0.9469 -0.1502 -0.0069
  709MOL0     O93514   9.740   9.658   7.487  0.5158 -0.1100  0.1404
  709MOL0     C93515   9.845   9.698   7.574  0.4573 -0.8570 -0.3382
  709MOL0     C93516   9.797   9.835   7.648 -0.1803 -0.3353 -0.1717
  709MOL0     C93517   9.694   9.800   7.765 -0.1528 -0.0741  1.0293
  709MOL0     C93518   9.747   9.717   7.893  0.1474 -0.2300 -0.3852
  709MOL0     C93519   9.849   9.792   7.952 -0.6533 -0.3167  0.5833
  709MOL0     C93520   9.925   9.868   8.003  0.1070 -1.2072  0.1494
  709MOL0     C93521   9.702   9.516   7.289  0.1464  0.6628  0.2741
  709MOL0     C93522   9.716   9.491   7.145 -0.4245  0.3518  0.7309
  709MOL0     H93523   9.855   9.539   6.654  0.6875  0.0082 -1.2173
  709MOL0     H93524   9.778   9.518   6.406  0.6842 -0.8680  0.4283
  709MOL0     H93525   9.404   9.259   6.311 -0.4598  2.3005 -1.0485
  709MOL0     H93526   9.563   9.196   6.325 -0.3242 -0.3455 -1.1443
  709MOL0     H93527   9.430   9.353   6.087 -1.7132 -1.8185 -0.8271
  709MOL0     H93528   9.431   9.182   6.117 -0.9280 -0.4367  4.8132
  709MOL0     H93529   9.699   9.226   6.126 -3.4236 -4.4799  1.7042
  709MOL0     H93530   9.659   9.381   6.035  0.8817 -0.5520 -0.7246
  709MOL0     H93531   9.571   9.117   5.931  0.5867 -0.2705 -1.7660
  709MOL0     H93532   9.586   9.261   5.837  2.0589 -1.7392 -1.6712
  709MOL0     H93533   9.733   9.070   5.807  0.4651  0.5441 -0.4609
  709MOL0     H93534   9.812   9.113   5.959  1.3424  1.1382 -0.4977
  709MOL0     H93535   9.809   9.347   5.843 -2.3877 -2.1923  2.2764
  709MOL0     H93536   9.792   9.253   5.695  1.3143 -0.8230 -0.6763
  709MOL0     H93537  10.007   9.214   5.898 -1.6414 -1.6933  0.6716
  709MOL0     H93538   9.986   9.119   5.742  1.9695 -1.3143  2.8601
  709MOL0     H93539  10.059   9.405   5.802 -2.5892  2.1404 -1.6860
  709MOL0     H93540  10.003   9.360   5.639  0.1357 -2.1075 -1.0612
  709MOL0     H93541  10.294   9.225   5.864 -3.0186 -0.1761 -0.2566
  709MOL0     H93542  10.521   9.114   5.810  0.0835 -0.0869 -1.1622
  709MOL0     H93543  10.556   9.074   5.640  0.7155  0.5689  0.1018
  709MOL0     H93544  10.487   8.875   5.655  0.5395  2.8722 -0.6070
  709MOL0     H93545  10.327   8.931   5.697 -0.1201  0.1616 -1.7998
  709MOL0     H93546  10.404   8.760   5.850  0.7702  1.1445 -0.9354
  709MOL0     H93547  10.558   8.840   5.877  0.5109  2.6769 -1.1826
  709MOL0     H93548  10.395   8.848   6.080 -0.1880 -2.5939 -3.3480
  709MOL0     H93549  10.283   8.949   5.980 -1.8079 -0.4145  2.8527
  709MOL0     H93550  10.307   8.953   6.255  0.8349 -1.8382  0.5312
  709MOL0     H93551  10.356   9.000   6.496 -1.2087 -1.0680 -0.4190
  709MOL0     H93552  10.698   9.115   6.803 -0.0818 -0.1138  0.7914
  709MOL0     H93553  10.779   9.179   7.020  1.3496 -0.4049 -2.2527
  709MOL0     H93554  10.796   9.306   7.259 -0.9132 -1.2309  1.8254
  709MOL0     H93555  10.623   9.298   7.201  1.2952  1.0433 -0.8084
  709MOL0     H93556  10.587   9.509   7.320  1.8107  3.1309  0.7831
  709MOL0     H93557  10.750   9.525   7.358 -2.1268  0.4287  2.6032
  709MOL0     H93558  10.744   9.309   7.480 -0.3855  0.3070  2.3003
  709MOL0     H93559  10.564   9.297   7.452  1.6056 -2.2960  1.4919
  709MOL0     H93560  10.551   9.514   7.590 -0.1409  0.6277 -0.4391
  709MOL0     H93561  10.609   9.368   7.670  1.0042 -0.1672  0.1082
  709MOL0     H93562  10.811   9.586   7.584 -3.4056  1.8518 -0.4522
  709MOL0     H93563  10.824   9.422   7.664 -2.7740 -1.8451  1.6994
  709MOL0     H93564  10.717   9.529   7.855  1.2350  0.3215  0.4040
  709MOL0     H93565  10.679   9.672   7.756 -0.4300 -0.6809  0.8152
  709MOL0     H93566  10.952   9.573   7.828 -0.7592 -0.4569  2.6420
  709MOL0     H93567  10.906   9.722   7.735  1.7585  0.2054  0.9025
  709MOL0     H93568  10.982   9.802   7.941  1.1397 -1.6202  3.0096
  709MOL0     H93569  10.892   9.674   8.027  0.0416 -0.9123 -0.6357
  709MOL0     H93570  10.694   9.588   6.913 -0.8933  1.0064 -4.4315
  709MOL0     H93571  10.655   9.525   6.690 -0.5385 -2.6317 -2.5706
  709MOL0     H93572  10.668   9.266   6.364  0.8001 -1.0495 -1.5036
  709MOL0     H93573  10.617   9.202   6.132 -1.7608  0.8536 -1.6668
  709MOL0     H93574   9.445   9.293   6.537 -0.2226 -0.6077  0.7183
  709MOL0     H93575   9.536   9.296   6.774  0.6122  0.4691  1.4174
  709MOL0     H93576   9.907   9.765   7.079 -1.7655  1.0211 -2.1242
  709MOL0     H93577   9.889   9.801   7.308  1.0321 -0.5998  0.2685
  709MOL0     H93578   9.932   9.735   7.519  0.2765 -0.9587 -0.6930
  709MOL0     H93579   9.862   9.607   7.633  0.5871 -1.6793 -1.5910
  709MOL0     H93580   9.888   9.886   7.681  0.6336 -1.4839 -0.5683
  709MOL0     H93581   9.744   9.893   7.571 -1.7115 -2.6947 -1.0055
  709MOL0     H93582   9.623   9.729   7.720 -1.0679  1.1109  0.5555
  709MOL0     H93583   9.630   9.885   7.790 -2.9286 -2.1528  1.5169
  709MOL0     H93584   9.665   9.694   7.963 -0.7588 -0.8865 -1.6210
  709MOL0     H93585   9.788   9.620   7.864 -0.7588 -1.0569  0.9737
  709MOL0     H93586  10.002   9.931   8.044 -1.2610 -1.4833  3.4131
  709MOL0     H93587   9.643   9.462   7.363  2.3523  2.1967  3.3701
  709MOL0     H93588   9.662   9.414   7.092 -2.2219  1.6147  0.6308
  710MOL0     O93589  10.924   1.418   2.590 -0.9691 -0.0901 -0.0598
  710MOL0     C93590  10.931   1.373   2.700  0.7454  0.0958 -0.1427
  710MOL0     O93591  10.927   1.449   2.809  0.7608  0.0785  1.1144
  710MOL0     C93592  10.972   1.583   2.814 -0.7745 -0.4898  0.1025
  710MOL0     C93593  10.916   1.651   2.918  0.0212 -0.3329  0.3022
  710MOL0     C93594  10.933   1.782   2.956  0.9190  0.3261 -0.7705
  710MOL0     C93595  11.018   1.852   2.878  0.1541 -1.4796  0.0716
  710MOL0     O93596  11.052   1.975   2.914 -0.3442 -0.2438 -0.4460
  710MOL0     C93597  11.077   2.071   2.810  0.9324 -0.7610  0.2079
  710MOL0     C93598  11.121   2.206   2.870  0.0113  0.3633 -1.4324
  710MOL0     C93599  11.037   2.251   2.980  0.2373  0.2116  0.3570
  710MOL0     C93600  11.074   2.380   3.039  0.0027  0.5391 -0.3022
  710MOL0     C93601  11.090   2.498   2.949  0.7413  0.3286 -0.4522
  710MOL0     C93602  11.105   2.625   3.029  0.3849  0.3435 -0.6816
  710MOL0     C93603  11.159   2.739   2.930 -0.5957  0.1853 -0.8779
  710MOL0     C93604  11.210   2.860   3.016  0.1752 -0.2128 -0.5617
  710MOL0     N93605  11.247   2.953   2.910 -0.0719 -1.0129 -0.3375
  710MOL0     C93606  11.176   3.009   2.805  0.3086 -0.0014 -0.3254
  710MOL0     C93607  11.265   3.063   2.722 -0.8814  0.0474  1.1487
  710MOL0     C93608  11.229   3.136   2.588  0.2460 -0.6443 -0.6751
  710MOL0     C93609  11.351   3.233   2.537  0.0798  0.3860  0.5311
  710MOL0     C93610  11.320   3.354   2.448  0.2136  1.0434 -1.2515
  710MOL0     C93611  11.255   3.308   2.317  1.0519  0.4602 -0.5042
  710MOL0     O93612  11.126   3.247   2.342 -0.3253  0.1200  0.2759
  710MOL0     C93613  11.062   3.187   2.227  0.8760 -0.5357  0.0893
  710MOL0     C93614  10.949   3.107   2.247 -0.5011 -0.8164 -0.2481
  710MOL0     C93615  10.874   3.044   2.146 -0.4985 -0.1523  0.0738
  710MOL0     C93616  10.912   3.067   2.012 -0.1407 -0.0139  0.4345
  710MOL0     C93617  10.848   3.004   1.895 -1.4090  0.3021 -0.4069
  710MOL0     O93618  10.836   3.072   1.786  0.4141  0.8487  0.4710
  710MOL0     C93619  10.775   3.016   1.673 -0.2276 -0.9767  0.1615
  710MOL0     C93620  10.865   3.005   1.566  0.3157  1.0027 -0.1972
  710MOL0     C93621  10.798   2.960   1.452  0.1550 -0.7704  0.4365
  710MOL0     C93622  10.658   2.916   1.442  0.0075 -1.2903 -0.7267
  710MOL0     O93623  10.613   2.890   1.321 -0.1203  0.6691  0.6386
  710MOL0     C93624  10.487   2.819   1.317  0.5658  1.1903  0.3994
  710MOL0     C93625  10.451   2.780   1.168  0.2394 -0.1463  0.3094
  710MOL0     C93626  10.300   2.735   1.145 -1.3085 -0.3657 -0.0921
  710MOL0     C93627  10.208   2.858   1.149  0.3453 -0.3489 -1.0395
  710MOL0     C93628  10.209   2.939   1.016 -1.2214  0.2600 -1.2245
  710MOL0     C93629  10.143   3.072   1.024 -0.0650 -0.6344 -0.3422
  710MOL0     C93630   9.984   3.067   1.017 -1.3520  0.6334  0.5943
  710MOL0     C93631   9.919   3.001   0.899  0.8640  0.4521  0.6557
  710MOL0    Cl93632   9.971   3.091   0.764  0.2897  0.0313 -0.2579
  710MOL0     C93633  10.581   2.941   1.557  0.0942 -0.3279 -0.6408
  710MOL0     C93634  10.637   2.991   1.670 -0.2226 -0.1073  0.0295
  710MOL0     O93635  10.814   2.890   1.917  0.1291  0.3398  0.8409
  710MOL0     C93636  11.020   3.154   1.989 -0.0667 -0.7529  0.5899
  710MOL0     C93637  11.106   3.204   2.092 -0.3173 -0.2356 -0.0190
  710MOL0     N93638  11.387   3.046   2.780 -0.7018 -0.1357  0.8865
  710MOL0     N93639  11.382   2.990   2.900  0.5219 -0.1666  0.7713
  710MOL0     C93640  11.080   1.787   2.768 -0.3085  0.8898  1.0659
  710MOL0     C93641  11.055   1.661   2.730  0.2347  1.1743  0.3390
  710MOL0     C93642  10.933   1.226   2.717  0.2734 -0.1433 -0.5497
  710MOL0     C93643  10.962   1.163   2.850  0.1731 -0.2791  0.4155
  710MOL0     C93644  10.983   1.025   2.863 -0.9624 -0.1320  0.1880
  710MOL0     C93645  10.967   0.936   2.745  0.6765  0.1856  0.2823
  710MOL0     O93646  10.990   0.799   2.771 -0.0294  0.0266  0.1687
  710MOL0     C93647  11.032   0.711   2.666  0.2274 -0.1167  0.5182
  710MOL0     C93648  11.025   0.572   2.726 -0.2684  0.0308  0.2030
  710MOL0     C93649  10.881   0.538   2.759 -0.0310 -0.6920  0.5074
  710MOL0     C93650  10.849   0.399   2.811 -0.1968  0.8161 -0.4139
  710MOL0     C93651  10.714   0.392   2.869  0.6875  0.5513  0.8670
  710MOL0     C93652  10.598   0.401   2.911 -1.5870  0.1796  0.1305
  710MOL0     C93653  10.936   0.997   2.626 -0.0576  0.2013  0.3332
  710MOL0     C93654  10.931   1.136   2.609 -0.3323 -0.1439  0.1891
  710MOL0     H93655  10.849   1.599   2.986 -0.7852  0.0191 -0.1944
  710MOL0     H93656  10.886   1.823   3.045 -5.7304 -3.1238 -2.0650
  710MOL0     H93657  10.980   2.091   2.764  0.6143  1.3450  1.6889
  710MOL0     H93658  11.145   2.036   2.731 -2.7407 -4.0107 -1.9160
  710MOL0     H93659  11.123   2.284   2.794  0.2889 -1.3689 -3.2858
  710MOL0     H93660  11.219   2.195   2.917 -0.7748  4.5411  1.7391
  710MOL0     H93661  11.031   2.179   3.062 -2.7111  0.3300  0.3372
  710MOL0     H93662  10.934   2.258   2.946  0.3589  4.2581  0.3164
  710MOL0     H93663  11.001   2.405   3.116  1.2265 -0.3088  1.1729
  710MOL0     H93664  11.172   2.365   3.085  0.9052  3.3207 -1.1253
  710MOL0     H93665  11.012   2.494   2.872 -1.9704  0.4692  2.0994
  710MOL0     H93666  11.181   2.483   2.890  1.0259 -0.8205  0.2560
  710MOL0     H93667  11.170   2.616   3.117 -1.4824  1.5278  0.9025
  710MOL0     H93668  11.013   2.666   3.072  0.5563 -1.2361  1.2975
  710MOL0     H93669  11.245   2.695   2.879  0.8706  0.7701  0.9530
  710MOL0     H93670  11.080   2.770   2.862 -2.3403 -0.2383  0.8531
  710MOL0     H93671  11.287   2.824   3.085 -1.3203 -1.1338  0.6971
  710MOL0     H93672  11.118   2.893   3.066  1.0073  0.7504  0.3819
  710MOL0     H93673  11.068   3.018   2.811  0.1939 -1.7950  2.6921
  710MOL0     H93674  11.141   3.199   2.598  1.4983  1.1508 -0.4433
  710MOL0     H93675  11.223   3.065   2.505  0.3557 -0.7295 -0.6109
  710MOL0     H93676  11.419   3.161   2.490  0.5395 -2.8261  5.3520
  710MOL0     H93677  11.401   3.282   2.621  0.7537 -0.3522  0.5656
  710MOL0     H93678  11.254   3.420   2.504  3.6363  3.3250  0.4790
  710MOL0     H93679  11.413   3.409   2.429  0.8696  0.6712  0.5826
  710MOL0     H93680  11.321   3.232   2.276  3.8393  2.6167 -0.2813
  710MOL0     H93681  11.229   3.391   2.251 -3.8413  0.0464  0.4718
  710MOL0     H93682  10.909   3.088   2.346 -1.1924 -3.2504 -0.9259
  710MOL0     H93683  10.802   2.970   2.178 -2.4408  2.0577  1.1463
  710MOL0     H93684  10.970   3.031   1.560  0.9915 -0.2049  3.4778
  710MOL0     H93685  10.854   2.964   1.359 -0.9192  1.7658 -0.1860
  710MOL0     H93686  10.413   2.890   1.355  2.3941  3.7657 -0.5503
  710MOL0     H93687  10.495   2.732   1.382 -0.5731 -1.2424 -2.4589
  710MOL0     H93688  10.528   2.712   1.130  2.8909  3.5579 -1.6021
  710MOL0     H93689  10.464   2.872   1.110  1.7078 -0.2103  0.4998
  710MOL0     H93690  10.272   2.675   1.232 -1.7771  2.8040  2.1184
  710MOL0     H93691  10.290   2.674   1.054 -1.0813  1.6999 -1.5911
  710MOL0     H93692  10.107   2.819   1.163  0.4344  0.5594  3.5988
  710MOL0     H93693  10.240   2.928   1.227 -1.3269  0.7632 -1.2922
  710MOL0     H93694  10.175   2.868   0.940  2.0826 -1.5431 -1.1851
  710MOL0     H93695  10.312   2.975   1.004 -0.7111 -0.7595 -0.0897
  710MOL0     H93696  10.184   3.143   0.951 -1.6488  2.4474  1.5841
  710MOL0     H93697  10.169   3.117   1.120  1.6491  0.8522 -1.4257
  710MOL0     H93698   9.942   3.033   1.112 -1.6155  2.4964  1.1948
  710MOL0     H93699   9.955   3.171   0.997 -1.6907  0.3438 -0.4655
  710MOL0     H93700   9.810   3.007   0.911  0.6475  3.3251 -1.7535
  710MOL0     H93701   9.958   2.899   0.903 -1.1863 -0.3552  2.0841
  710MOL0     H93702  10.473   2.934   1.561  0.2095 -2.1871  2.2093
  710MOL0     H93703  10.573   3.010   1.755  0.1230  0.5240  0.1531
  710MOL0     H93704  11.064   3.171   1.891  6.0532 -2.6402  2.5908
  710MOL0     H93705  11.194   3.263   2.071  0.1328 -0.7817  0.3234
  710MOL0     H93706  11.156   1.833   2.707 -2.3396  0.7593 -1.7707
  710MOL0     H93707  11.102   1.626   2.639 -1.3562 -0.6238  0.1571
  710MOL0     H93708  10.967   1.227   2.937  2.0133  0.9075 -0.5140
  710MOL0     H93709  11.015   0.973   2.952 -1.3078  0.3155  0.5789
  710MOL0     H93710  11.134   0.720   2.628  0.3366 -2.0948  0.2209
  710MOL0     H93711  10.971   0.715   2.576  1.7747 -1.1049 -0.6390
  710MOL0     H93712  11.059   0.510   2.643 -1.8151 -0.6908  0.0819
  710MOL0     H93713  11.096   0.556   2.809  1.0285 -4.0803 -1.4154
  710MOL0     H93714  10.825   0.551   2.666 -1.4478  1.4565  1.5829
  710MOL0     H93715  10.844   0.618   2.823 -0.1031  1.3989 -2.0069
  710MOL0     H93716  10.871   0.318   2.740  3.2099  1.7019 -0.5701
  710MOL0     H93717  10.923   0.388   2.892  0.6722 -0.9619 -1.3765
  710MOL0     H93718  10.498   0.392   2.947 -2.0952 -0.8202 -1.4172
  710MOL0     H93719  10.924   0.937   2.537  2.0815 -0.1672  0.2420
  710MOL0     H93720  10.916   1.170   2.507  3.6768 -0.7760 -0.7862
  711MOL0     O93721  10.708   7.384   8.163 -0.2751  0.0131  0.2140
  711MOL0     C93722  10.724   7.450   8.271  0.3833  0.2817 -0.0441
  711MOL0     O93723  10.840   7.486   8.325 -0.3214 -0.0338 -0.7301
  711MOL0     C93724  10.959   7.506   8.257 -0.8974  0.5653 -0.0147
  711MOL0     C93725  10.961   7.537   8.128 -0.6895  0.6892 -0.6578
  711MOL0     C93726  11.077   7.572   8.066  0.4267  0.5504 -0.2065
  711MOL0     C93727  11.194   7.582   8.140  0.2721 -0.6499 -0.3129
  711MOL0     O93728  11.321   7.600   8.079  0.8443 -0.8362 -1.4553
  711MOL0     C93729  11.332   7.620   7.942  0.0362  0.2950 -0.0257
  711MOL0     C93730  11.476   7.614   7.885  0.1454  0.3453  0.0199
  711MOL0     C93731  11.470   7.616   7.731  0.7238 -0.2545  0.0043
  711MOL0     C93732  11.616   7.597   7.687 -1.0293 -0.3453 -0.0816
  711MOL0     C93733  11.630   7.575   7.535 -0.9658 -1.4051 -0.5429
  711MOL0     C93734  11.595   7.693   7.437 -0.0718 -0.8375 -0.0743
  711MOL0     C93735  11.709   7.795   7.453 -0.2600  0.3742 -0.6923
  711MOL0     C93736  11.693   7.912   7.353 -0.1856 -0.1932 -0.5510
  711MOL0     N93737  11.649   8.037   7.418  0.1861 -1.2808 -0.0479
  711MOL0     C93738  11.724   8.121   7.495  0.4493  0.9261  0.0337
  711MOL0     C93739  11.653   8.235   7.511 -0.5016 -0.3914  0.2046
  711MOL0     C93740  11.683   8.367   7.582  0.2898  0.2059  0.6093
  711MOL0     C93741  11.787   8.351   7.706  0.5984 -0.1129  0.1120
  711MOL0     C93742  11.822   8.479   7.778  0.1673 -0.2298  0.7471
  711MOL0     C93743  11.945   8.457   7.868  0.0246 -0.0673 -0.0987
  711MOL0     O93744  11.978   8.576   7.951 -0.2653  0.0531 -0.5676
  711MOL0     C93745  12.100   8.616   7.930  0.1211 -0.3824  0.1855
  711MOL0     C93746  12.196   8.576   8.023  0.5476 -0.1221  0.6885
  711MOL0     C93747  12.327   8.611   8.005 -0.2992  1.2578  0.3596
  711MOL0     C93748  12.379   8.676   7.887  0.2885  0.5238 -0.9478
  711MOL0     C93749  12.524   8.681   7.856 -0.5991  0.0499  0.0917
  711MOL0     O93750  12.605   8.609   7.931 -0.6106 -0.3858 -0.1395
  711MOL0     C93751  12.740   8.650   7.927  0.6354  0.2117  0.8633
  711MOL0     C93752  12.817   8.650   7.813  0.1355  0.1541 -0.3074
  711MOL0     C93753  12.956   8.687   7.814  0.2101  0.2436  0.2132
  711MOL0     C93754  13.018   8.731   7.928 -0.1020  0.3069  0.1946
  711MOL0     O93755  13.151   8.769   7.923 -0.5433 -0.9927  0.5095
  711MOL0     C93756  13.244   8.656   7.921  0.6106 -0.3883  0.0618
  711MOL0     C93757  13.380   8.690   7.864  0.7793 -0.1095  0.8135
  711MOL0     C93758  13.477   8.776   7.937  0.5169  0.3705  0.0099
  711MOL0     C93759  13.606   8.810   7.849  0.0834 -0.3288  0.1755
  711MOL0     C93760  13.679   8.691   7.789  0.1438 -0.0954 -0.2858
  711MOL0     C93761  13.793   8.742   7.689  0.1962  0.0569 -0.3874
  711MOL0     C93762  13.880   8.628   7.625 -0.7262  0.3280 -0.5415
  711MOL0     C93763  14.006   8.601   7.711  0.5284  0.0037  0.1135
  711MOL0    Cl93764  13.976   8.571   7.880  0.0938  0.6474 -0.1249
  711MOL0     C93765  12.952   8.738   8.048  0.3406 -0.2107  0.7278
  711MOL0     C93766  12.813   8.694   8.046  0.5658 -0.6426  0.1629
  711MOL0     O93767  12.560   8.745   7.758  0.1307  0.1055  0.2588
  711MOL0     C93768  12.281   8.721   7.806 -0.2280  0.4231 -0.8150
  711MOL0     C93769  12.145   8.700   7.828  0.2544  0.1987 -0.6110
  711MOL0     N93770  11.536   8.208   7.443 -1.3761 -0.3905  0.0061
  711MOL0     N93771  11.536   8.098   7.386 -0.0965 -0.0611  0.4303
  711MOL0     C93772  11.197   7.558   8.275 -0.0866 -0.4990  0.4872
  711MOL0     C93773  11.071   7.538   8.334  0.1884  0.2518  0.0921
  711MOL0     C93774  10.594   7.476   8.341  0.0156 -0.8748 -0.3419
  711MOL0     C93775  10.468   7.434   8.291 -0.3378  0.0304  0.4320
  711MOL0     C93776  10.350   7.483   8.345  0.0998  0.1049  0.0334
  711MOL0     C93777  10.347   7.563   8.462 -0.4251  0.4143  0.5833
  711MOL0     O93778  10.228   7.608   8.511 -0.0978 -0.3456 -0.4530
  711MOL0     C93779  10.144   7.510   8.557  0.3568  0.9422 -0.9626
  711MOL0     C93780  10.182   7.451   8.694 -0.1057 -0.0492  1.5085
  711MOL0     C93781  10.159   7.557   8.808  0.4718 -0.0410  1.2290
  711MOL0     C93782  10.264   7.531   8.922  0.1673 -0.4801 -0.2249
  711MOL0     C93783  10.404   7.570   8.879  0.6352 -0.6773  0.3246
  711MOL0     C93784  10.522   7.596   8.863  0.2229  0.8023 -0.4496
  711MOL0     C93785  10.470   7.610   8.509  0.4874  0.0961  0.7584
  711MOL0     C93786  10.593   7.566   8.446  0.1655 -0.4932  0.2224
  711MOL0     H93787  10.875   7.527   8.062  0.7549  1.8804 -2.8362
  711MOL0     H93788  11.076   7.585   7.958  0.0632  0.8979 -0.1647
  711MOL0     H93789  11.305   7.724   7.925 -0.8457 -0.0022 -0.4868
  711MOL0     H93790  11.263   7.555   7.888 -1.6973  1.9414  0.1150
  711MOL0     H93791  11.520   7.523   7.926  0.3402  0.9093  1.1010
  711MOL0     H93792  11.538   7.692   7.928  1.0578 -0.4218  0.1299
  711MOL0     H93793  11.417   7.702   7.689 -2.9751 -3.0716 -1.6454
  711MOL0     H93794  11.418   7.523   7.706  1.2841 -0.5157 -0.2178
  711MOL0     H93795  11.679   7.683   7.713  1.4906  0.1653 -6.1871
  711MOL0     H93796  11.664   7.512   7.737 -0.3573  1.1104  1.9011
  711MOL0     H93797  11.574   7.489   7.498 -3.0086 -0.1892 -0.4472
  711MOL0     H93798  11.734   7.543   7.519 -0.2532  1.0318 -1.3879
  711MOL0     H93799  11.500   7.741   7.461 -0.6923 -1.4670 -1.1932
  711MOL0     H93800  11.593   7.645   7.339 -1.3121 -2.5384  0.7291
  711MOL0     H93801  11.705   7.841   7.553  0.9038 -0.7387 -0.1065
  711MOL0     H93802  11.806   7.750   7.432 -0.4093 -1.7181  2.3398
  711MOL0     H93803  11.621   7.888   7.275  1.3735 -1.9684 -1.5340
  711MOL0     H93804  11.788   7.937   7.303 -0.6382  0.9357 -0.8836
  711MOL0     H93805  11.822   8.101   7.538  1.6044  5.2045 -0.1285
  711MOL0     H93806  11.586   8.398   7.622 -0.7493  0.5514 -2.0208
  711MOL0     H93807  11.698   8.440   7.502 -2.2205 -0.7445 -0.8198
  711MOL0     H93808  11.879   8.309   7.665  0.9680  3.3718 -3.2013
  711MOL0     H93809  11.740   8.282   7.776  1.3107  1.3242  2.1020
  711MOL0     H93810  11.853   8.553   7.704  0.4304 -1.5549 -0.5097
  711MOL0     H93811  11.738   8.504   7.843  0.9265 -0.5208  1.8637
  711MOL0     H93812  12.026   8.435   7.798  0.4911 -1.0134  0.7165
  711MOL0     H93813  11.931   8.369   7.932  0.7412 -0.7213 -0.8250
  711MOL0     H93814  12.177   8.519   8.114  0.4635 -1.6360 -0.2378
  711MOL0     H93815  12.391   8.574   8.085 -1.3785 -1.6021  0.0093
  711MOL0     H93816  12.773   8.620   7.719 -2.0277 -3.7745  1.6884
  711MOL0     H93817  13.007   8.673   7.720 -2.1771  3.5269 -1.7929
  711MOL0     H93818  13.201   8.571   7.868  0.3695 -0.0502 -0.3009
  711MOL0     H93819  13.244   8.635   8.028  1.5640 -2.0176 -0.2291
  711MOL0     H93820  13.363   8.744   7.770  2.6152 -0.5751  0.1667
  711MOL0     H93821  13.426   8.596   7.832  0.4428  0.2260 -0.7387
  711MOL0     H93822  13.501   8.734   8.035  2.8502  2.2942  0.3258
  711MOL0     H93823  13.418   8.864   7.964 -2.9190 -2.0509  1.1339
  711MOL0     H93824  13.580   8.888   7.776 -2.2354 -0.6774  0.5634
  711MOL0     H93825  13.674   8.870   7.910 -2.1080  4.3674 -1.5680
  711MOL0     H93826  13.609   8.623   7.740 -0.6738  0.8742 -0.4872
  711MOL0     H93827  13.717   8.639   7.878 -1.2321 -1.2341 -0.3191
  711MOL0     H93828  13.862   8.820   7.723  0.0788  1.2360 -2.6640
  711MOL0     H93829  13.734   8.790   7.611 -1.6215 -0.1933  0.7675
  711MOL0     H93830  13.822   8.536   7.616  1.1035 -0.7876 -1.6487
  711MOL0     H93831  13.906   8.649   7.521 -1.2450 -1.4126 -1.0506
  711MOL0     H93832  14.055   8.698   7.714 -0.6808  0.6207  0.4401
  711MOL0     H93833  14.074   8.532   7.659 -1.1457 -2.3259  0.8576
  711MOL0     H93834  12.994   8.792   8.132 -2.2511 -0.1421  2.1005
  711MOL0     H93835  12.749   8.720   8.130  0.5809 -1.2101  0.3551
  711MOL0     H93836  12.306   8.774   7.714  0.9490 -1.9938 -1.9660
  711MOL0     H93837  12.068   8.748   7.767 -0.4205  0.2099  0.2264
  711MOL0     H93838  11.287   7.566   8.336  0.6293 -2.2029 -0.2541
  711MOL0     H93839  11.055   7.543   8.441 -0.9012  3.6376 -0.0957
  711MOL0     H93840  10.470   7.367   8.205 -0.2998 -0.7394  1.0256
  711MOL0     H93841  10.259   7.464   8.290  0.3478 -1.6395  0.1661
  711MOL0     H93842  10.145   7.428   8.485  0.3992  1.0112 -1.0405
  711MOL0     H93843  10.041   7.546   8.563  0.4272  0.9291  1.5479
  711MOL0     H93844  10.126   7.358   8.709  0.1804 -1.2412 -3.3273
  711MOL0     H93845  10.289   7.426   8.696 -0.1180 -0.0911  1.6866
  711MOL0     H93846  10.060   7.549   8.853 -0.8425 -0.4628 -1.4829
  711MOL0     H93847  10.169   7.660   8.772  3.4347 -0.9179 -0.9461
  711MOL0     H93848  10.248   7.591   9.012  2.1675  0.2877 -0.3109
  711MOL0     H93849  10.249   7.426   8.950 -0.1449 -0.3051  0.2798
  711MOL0     H93850  10.622   7.619   8.832 -0.3425  2.7697 -0.9196
  711MOL0     H93851  10.477   7.674   8.596  2.9617  0.8130  0.1135
  711MOL0     H93852  10.687   7.597   8.490 -0.0712  0.1059  0.3203
  712MOL0     O93853   0.688   9.832   1.334  0.1716  0.7024 -0.6645
  712MOL0     C93854   0.766   9.752   1.394 -0.2804 -1.0073  0.2437
  712MOL0     O93855   0.843   9.792   1.501 -0.3747  0.5216 -0.1997
  712MOL0     C93856   0.857   9.926   1.545 -0.0626  0.7067 -0.7935
  712MOL0     C93857   0.862   9.974   1.673  0.1712  0.4375 -0.1104
  712MOL0     C93858   0.895  10.105   1.714 -0.9035 -0.3317  0.4577
  712MOL0     C93859   0.915  10.194   1.620  0.3585 -0.8510  0.0534
  712MOL0     O93860   0.943  10.321   1.658  0.3422 -0.3413 -0.9391
  712MOL0     C93861   0.839  10.399   1.716 -0.7436  0.4136 -0.0138
  712MOL0     C93862   0.887  10.444   1.850 -0.1197 -0.2202  0.6406
  712MOL0     C93863   0.772  10.476   1.944  0.1644  0.1114 -0.5497
  712MOL0     C93864   0.711  10.353   2.006 -0.1602 -0.2119  1.0696
  712MOL0     C93865   0.603  10.405   2.111  0.1073  0.6238  0.2933
  712MOL0     C93866   0.551  10.293   2.199  0.4134  0.8627  0.3838
  712MOL0     C93867   0.445  10.334   2.303 -0.6632 -1.2678 -0.1846
  712MOL0     C93868   0.515  10.405   2.425 -0.0046  0.5489  0.2427
  712MOL0     N93869   0.418  10.406   2.536  0.4027 -0.8262 -1.1149
  712MOL0     C93870   0.307  10.491   2.554  0.3780 -0.9104 -0.7626
  712MOL0     C93871   0.242  10.451   2.661 -1.3480 -0.0816 -0.3725
  712MOL0     C93872   0.111  10.510   2.712 -0.5461  0.1686  0.4349
  712MOL0     C93873   0.004  10.404   2.671  0.3522  0.1318 -0.5643
  712MOL0     C93874  -0.136  10.466   2.689  0.1410 -0.6394 -0.0234
  712MOL0     C93875  -0.235  10.370   2.637 -1.2800  0.8202  0.0185
  712MOL0     O93876  -0.372  10.428   2.642 -0.2832  0.5552 -0.1835
  712MOL0     C93877  -0.406  10.522   2.555  0.3761  0.0410  0.2415
  712MOL0     C93878  -0.535  10.572   2.563 -0.5386 -0.0589 -0.7067
  712MOL0     C93879  -0.592  10.662   2.471  0.2680  0.4186 -0.1728
  712MOL0     C93880  -0.513  10.721   2.370  0.0786 -0.0934 -0.4984
  712MOL0     C93881  -0.571  10.819   2.282  0.7093 -0.3139  0.0008
  712MOL0     O93882  -0.686  10.883   2.320  0.0358  0.0542 -0.4606
  712MOL0     C93883  -0.762  10.944   2.234 -0.6766  0.0282  1.0598
  712MOL0     C93884  -0.853  10.876   2.149  0.0915  0.0745 -0.1064
  712MOL0     C93885  -0.927  10.941   2.052 -0.3125  0.0460  0.2540
  712MOL0     C93886  -0.914  11.078   2.037  0.1218 -0.1838  0.0540
  712MOL0     O93887  -0.987  11.158   1.950  0.5467 -0.9160 -0.2054
  712MOL0     C93888  -0.978  11.120   1.811 -0.0921  0.9332  0.1440
  712MOL0     C93889  -1.061  11.221   1.715  0.1143 -0.3165 -0.2048
  712MOL0     C93890  -1.196  11.260   1.777  0.3775  0.4987 -0.5227
  712MOL0     C93891  -1.298  11.299   1.671 -0.0543  0.0596  0.0597
  712MOL0     C93892  -1.445  11.308   1.722  0.5647 -0.7160 -0.5235
  712MOL0     C93893  -1.453  11.379   1.862 -0.0218 -0.5803  0.7817
  712MOL0     C93894  -1.595  11.439   1.892 -0.1392  0.4907 -0.4435
  712MOL0     C93895  -1.655  11.532   1.789 -0.4571  0.1900 -0.2432
  712MOL0    Cl93896  -1.534  11.642   1.716 -0.3739 -0.2980  0.6357
  712MOL0     C93897  -0.825  11.140   2.124  0.3723 -0.3156  0.0454
  712MOL0     C93898  -0.749  11.079   2.228 -0.0693 -0.4930 -0.2266
  712MOL0     O93899  -0.521  10.829   2.174 -0.4433 -0.5727 -1.0959
  712MOL0     C93900  -0.381  10.670   2.353  0.3179 -0.3029  0.1789
  712MOL0     C93901  -0.323  10.578   2.441 -0.4947 -0.2791 -0.6582
  712MOL0     N93902   0.312  10.355   2.718 -0.1622 -0.3689 -0.2312
  712MOL0     N93903   0.414  10.317   2.638  0.0972 -0.0802  0.3628
  712MOL0     C93904   0.926  10.157   1.483 -0.2111  0.3808 -0.0425
  712MOL0     C93905   0.899  10.022   1.449 -0.2004  0.6415 -1.0742
  712MOL0     C93906   0.764   9.612   1.350 -0.7067 -0.1326 -1.4639
  712MOL0     C93907   0.868   9.518   1.373  0.4924  1.1899  0.3022
  712MOL0     C93908   0.883   9.392   1.316  0.5616  0.9621 -0.0519
  712MOL0     C93909   0.778   9.346   1.229  0.2894  0.6027 -0.1179
  712MOL0     O93910   0.773   9.233   1.152  0.5177 -0.3461 -0.0103
  712MOL0     C93911   0.792   9.113   1.221 -0.1566 -0.0242  1.0314
  712MOL0     C93912   0.791   9.002   1.106  1.1515 -0.5958 -0.2407
  712MOL0     C93913   0.652   8.981   1.046  0.5092  0.5902 -0.0199
  712MOL0     C93914   0.614   8.834   1.018 -0.7963  0.0704  0.0276
  712MOL0     C93915   0.501   8.828   0.926 -0.3080  0.1987 -0.8271
  712MOL0     C93916   0.413   8.814   0.850  0.1905  0.6126 -0.0851
  712MOL0     C93917   0.673   9.436   1.205 -0.0530 -0.3797  0.6637
  712MOL0     C93918   0.665   9.568   1.262 -0.2415  0.0466  0.2743
  712MOL0     H93919   0.837   9.901   1.750  2.1776  2.5405  2.7873
  712MOL0     H93920   0.905  10.125   1.821  0.3083 -1.0973  0.5069
  712MOL0     H93921   0.747  10.340   1.731  0.5535 -1.9283 -0.7325
  712MOL0     H93922   0.806  10.482   1.653 -1.2677 -1.5867 -2.5380
  712MOL0     H93923   0.939  10.534   1.818 -2.3465  0.6538 -0.7110
  712MOL0     H93924   0.954  10.372   1.899  1.0046 -0.3533 -1.0093
  712MOL0     H93925   0.698  10.544   1.902 -0.4891 -0.2185  0.0488
  712MOL0     H93926   0.819  10.544   2.016  1.7936 -0.6778 -0.8106
  712MOL0     H93927   0.659  10.292   1.931 -0.8855  0.4784  1.0001
  712MOL0     H93928   0.798  10.300   2.045  1.1684  2.6998  2.3982
  712MOL0     H93929   0.525  10.455   2.053  0.1476  0.0780 -0.2441
  712MOL0     H93930   0.635  10.491   2.169  0.3425  0.8400 -0.1506
  712MOL0     H93931   0.633  10.254   2.260  2.3246  1.6022 -1.5699
  712MOL0     H93932   0.514  10.213   2.134 -1.6430  0.1152  2.3540
  712MOL0     H93933   0.363  10.396   2.263 -0.7184  0.3662  2.2514
  712MOL0     H93934   0.399  10.247   2.350  0.5194  0.2190  4.1597
  712MOL0     H93935   0.537  10.508   2.396 -0.1155 -0.3385 -3.6235
  712MOL0     H93936   0.602  10.352   2.465 -1.1997  0.1292  2.4425
  712MOL0     H93937   0.274  10.581   2.503 -3.1079 -0.2735  2.1652
  712MOL0     H93938   0.093  10.605   2.660  0.6459  0.9630  1.4369
  712MOL0     H93939   0.121  10.522   2.820  1.3526  2.6747  0.0832
  712MOL0     H93940   0.015  10.321   2.741  2.1967 -1.9559 -3.1142
  712MOL0     H93941   0.024  10.379   2.567 -1.8705  0.4768 -1.1255
  712MOL0     H93942  -0.151  10.480   2.796  2.9035 -0.2792  0.4060
  712MOL0     H93943  -0.155  10.561   2.639 -1.9677  1.2126  3.8377
  712MOL0     H93944  -0.240  10.289   2.710 -1.1449  1.2134  0.4616
  712MOL0     H93945  -0.200  10.343   2.537  0.1891  0.1985  0.6748
  712MOL0     H93946  -0.590  10.520   2.641  1.4468  0.1810  0.9476
  712MOL0     H93947  -0.691  10.705   2.483  0.1339  0.4517 -1.2377
  712MOL0     H93948  -0.861  10.771   2.172 -1.5346  0.5208  1.6523
  712MOL0     H93949  -0.974  10.884   1.972  0.6499 -0.3990 -0.0096
  712MOL0     H93950  -1.038  11.029   1.799 -2.7856  1.7269  5.0494
  712MOL0     H93951  -0.880  11.114   1.763 -1.0778  2.0209 -2.1883
  712MOL0     H93952  -1.062  11.180   1.613 -1.0571 -0.3450 -0.2021
  712MOL0     H93953  -0.997  11.309   1.714  0.9413 -0.8288  2.3339
  712MOL0     H93954  -1.175  11.339   1.850 -1.0490 -2.3378  3.2789
  712MOL0     H93955  -1.230  11.179   1.842  0.5702  0.5056 -0.4117
  712MOL0     H93956  -1.271  11.395   1.625  2.0837 -1.5078 -2.2394
  712MOL0     H93957  -1.294  11.229   1.587  1.2751 -0.3859  0.4683
  712MOL0     H93958  -1.487  11.207   1.728 -1.6818  0.2278  0.9546
  712MOL0     H93959  -1.511  11.364   1.654 -0.4853  1.9427  2.4286
  712MOL0     H93960  -1.379  11.459   1.850  0.8088 -1.3559  0.6132
  712MOL0     H93961  -1.434  11.301   1.935  1.7774 -1.3142 -0.4092
  712MOL0     H93962  -1.659  11.353   1.916  1.6876 -0.2526  2.2050
  712MOL0     H93963  -1.581  11.496   1.984 -0.1841 -3.7319  2.4856
  712MOL0     H93964  -1.728  11.589   1.846 -1.6762  1.4615 -2.8955
  712MOL0     H93965  -1.700  11.475   1.706 -1.3987  0.8859 -0.2216
  712MOL0     H93966  -0.821  11.246   2.102  3.8160 -0.1217  0.9874
  712MOL0     H93967  -0.689  11.141   2.294 -1.2619  2.3257 -1.5897
  712MOL0     H93968  -0.317  10.702   2.271  0.2593  1.5747  0.8078
  712MOL0     H93969  -0.224  10.538   2.420 -0.2434  0.8970 -1.8333
  712MOL0     H93970   0.968  10.237   1.423  0.3287  0.5808  0.5810
  712MOL0     H93971   0.917   9.996   1.345  0.4503  0.9045 -1.0351
  712MOL0     H93972   0.957   9.534   1.433  2.5356 -3.1890 -1.1089
  712MOL0     H93973   0.980   9.347   1.335 -0.0439  0.0095  0.8807
  712MOL0     H93974   0.716   9.074   1.290 -2.0813  0.5438 -0.6899
  712MOL0     H93975   0.884   9.110   1.279 -1.2448  0.4915  2.8711
  712MOL0     H93976   0.854   9.030   1.021  0.3845  1.1310 -0.2772
  712MOL0     H93977   0.823   8.911   1.157  0.0506 -1.1652 -0.5432
  712MOL0     H93978   0.653   9.024   0.946 -1.5662 -1.1451 -0.8696
  712MOL0     H93979   0.574   9.024   1.110 -0.0359  0.5605 -0.6579
  712MOL0     H93980   0.697   8.790   0.963 -0.4483  0.1712  0.4649
  712MOL0     H93981   0.588   8.788   1.114 -3.6506 -2.2257 -1.6949
  712MOL0     H93982   0.325   8.789   0.794 -0.9603  0.7233  1.5979
  712MOL0     H93983   0.585   9.395   1.157 -0.7236 -0.2830  1.7800
  712MOL0     H93984   0.580   9.632   1.240 -0.4631 -0.1462  0.5616
  713MOL0     O93985   5.242   7.361   5.556  0.2379  0.1162  0.3495
  713MOL0     C93986   5.165   7.446   5.588 -0.3826 -0.4649  0.0680
  713MOL0     O93987   5.126   7.470   5.720 -0.0303 -0.8673  0.4014
  713MOL0     C93988   5.154   7.378   5.817 -0.3722 -0.2683 -0.7762
  713MOL0     C93989   5.229   7.415   5.933  0.8637  0.0857  0.9221
  713MOL0     C93990   5.246   7.328   6.041 -0.8588  0.6998  0.0962
  713MOL0     C93991   5.215   7.190   6.022  0.7845 -0.3613  0.2342
  713MOL0     O93992   5.242   7.102   6.120  0.4549  0.3369 -0.3505
  713MOL0     C93993   5.355   7.008   6.111  0.0288  0.4143 -0.9393
  713MOL0     C93994   5.303   6.875   6.056 -0.1828  0.0042 -0.0840
  713MOL0     C93995   5.406   6.767   6.062  0.3188  0.2157  1.4262
  713MOL0     C93996   5.351   6.646   5.983 -1.4545  0.1902 -0.3107
  713MOL0     C93997   5.448   6.523   5.968 -0.0678 -0.1342  0.6332
  713MOL0     C93998   5.579   6.548   5.896 -0.0580  0.2807  0.0361
  713MOL0     C93999   5.684   6.438   5.908 -0.3845 -0.4595  0.1090
  713MOL0     C94000   5.817   6.474   5.825  0.8619  0.5494 -0.6410
  713MOL0     N94001   5.913   6.378   5.827 -0.1618 -0.3091 -0.0181
  713MOL0     C94002   5.904   6.239   5.796  0.2222 -1.1318  0.8258
  713MOL0     C94003   6.031   6.198   5.823 -0.4237 -0.1227 -0.4277
  713MOL0     C94004   6.082   6.062   5.826  0.1194  0.1832  0.7888
  713MOL0     C94005   6.114   6.020   5.972  1.0388  0.2173  0.6422
  713MOL0     C94006   6.090   5.872   6.006 -1.2425  0.0700 -0.4191
  713MOL0     C94007   6.086   5.831   6.153 -0.3578  0.2928 -0.1516
  713MOL0     O94008   6.184   5.907   6.230  0.8216 -0.1404  0.1777
  713MOL0     C94009   6.180   5.896   6.366  0.2052 -0.0091  0.1970
  713MOL0     C94010   6.094   5.812   6.431  0.4360 -0.7229  0.1007
  713MOL0     C94011   6.097   5.803   6.570  0.1917  0.8685 -0.2883
  713MOL0     C94012   6.183   5.881   6.653 -0.5679 -0.5028  0.1649
  713MOL0     C94013   6.197   5.864   6.791  0.1875  0.4906 -0.2503
  713MOL0     O94014   6.296   5.941   6.842 -0.1181  0.3544 -0.6886
  713MOL0     C94015   6.302   5.976   6.977  0.6001 -0.1070 -0.1724
  713MOL0     C94016   6.395   6.080   7.011  0.5128  0.0290 -0.3786
  713MOL0     C94017   6.391   6.140   7.136 -0.8859  0.0937  0.0070
  713MOL0     C94018   6.304   6.096   7.235 -0.4671  0.0413  0.1775
  713MOL0     O94019   6.306   6.157   7.361 -0.1028  0.1459  0.5493
  713MOL0     C94020   6.196   6.191   7.444 -0.8606  0.7108 -0.5284
  713MOL0     C94021   6.259   6.232   7.583 -0.7818 -0.0078  0.6620
  713MOL0     C94022   6.351   6.357   7.560  0.3939 -0.3945  0.4657
  713MOL0     C94023   6.431   6.395   7.685  0.0036  0.1938  0.2333
  713MOL0     C94024   6.520   6.520   7.682  0.3691 -0.0258 -1.4335
  713MOL0     C94025   6.635   6.511   7.575 -0.6484  0.3284 -0.4284
  713MOL0     C94026   6.737   6.615   7.592 -0.3447  0.7208 -0.0868
  713MOL0     C94027   6.840   6.590   7.712  0.0668  0.2550  0.0469
  713MOL0    Cl94028   6.800   6.703   7.845 -0.1401 -0.4166 -0.2409
  713MOL0     C94029   6.216   5.995   7.202  1.2085 -0.7914  0.9907
  713MOL0     C94030   6.215   5.934   7.077 -0.7989  1.1590 -0.5154
  713MOL0     O94031   6.122   5.783   6.842 -0.3838 -0.2628 -0.3665
  713MOL0     C94032   6.268   5.979   6.580  0.1792  0.8009 -0.9368
  713MOL0     C94033   6.258   5.982   6.442 -0.3972 -0.2954 -0.3390
  713MOL0     N94034   6.108   6.301   5.855 -0.3988 -0.4698 -0.1777
  713MOL0     N94035   6.042   6.405   5.858  0.3213 -0.2743  0.6978
  713MOL0     C94036   5.156   7.158   5.907  1.0488 -0.6448  0.2707
  713MOL0     C94037   5.118   7.247   5.804  0.2433 -0.6217  1.3231
  713MOL0     C94038   5.121   7.542   5.483  0.0483  0.4868 -0.0223
  713MOL0     C94039   5.074   7.673   5.524 -0.6413  0.2751 -0.3848
  713MOL0     C94040   5.051   7.768   5.425  0.1524 -0.5932 -0.1682
  713MOL0     C94041   5.063   7.741   5.291  0.4936 -0.4561  0.3436
  713MOL0     O94042   5.047   7.832   5.188  0.5817 -0.2777 -0.4907
  713MOL0     C94043   5.045   7.969   5.233 -0.1440 -0.2331  0.5673
  713MOL0     C94044   5.095   8.048   5.102  0.4241 -0.6005  0.0537
  713MOL0     C94045   4.990   8.041   4.991 -0.9326  0.5992 -0.2082
  713MOL0     C94046   4.995   8.165   4.896 -0.6261  0.3727  0.7020
  713MOL0     C94047   4.952   8.122   4.763  0.9982  0.1903  0.4953
  713MOL0     C94048   4.899   8.079   4.659 -1.1954 -0.9505 -0.2333
  713MOL0     C94049   5.074   7.601   5.254  0.6272  0.0901 -0.0566
  713MOL0     C94050   5.112   7.512   5.348 -0.0662 -0.6419 -0.0414
  713MOL0     H94051   5.260   7.518   5.951  0.7045 -0.1603  2.8896
  713MOL0     H94052   5.298   7.374   6.126  2.0559  1.7458 -2.0848
  713MOL0     H94053   5.394   6.996   6.212 -1.1122 -0.5982 -0.6074
  713MOL0     H94054   5.439   7.047   6.052  1.3397  1.2544  1.3470
  713MOL0     H94055   5.255   6.894   5.959 -3.4181 -3.1658  0.6519
  713MOL0     H94056   5.220   6.852   6.123 -3.2362 -0.1635 -3.5853
  713MOL0     H94057   5.422   6.752   6.169  1.2263  1.0996  1.4240
  713MOL0     H94058   5.495   6.813   6.018 -0.9338  2.0749  0.7088
  713MOL0     H94059   5.255   6.622   6.029 -1.9446  0.6798 -1.0616
  713MOL0     H94060   5.337   6.673   5.878  2.4432 -3.8835 -2.2171
  713MOL0     H94061   5.378   6.460   5.912 -3.6071  2.7850  1.3496
  713MOL0     H94062   5.469   6.472   6.062  1.9124 -2.6942 -1.0913
  713MOL0     H94063   5.622   6.633   5.949 -1.4466  1.4390 -0.6121
  713MOL0     H94064   5.570   6.577   5.791 -0.5233  0.6502  0.1740
  713MOL0     H94065   5.719   6.439   6.011  4.1740  3.1728 -1.1555
  713MOL0     H94066   5.645   6.342   5.872 -0.5589 -0.2847 -0.1720
  713MOL0     H94067   5.858   6.565   5.870  2.6532 -1.4030  1.9940
  713MOL0     H94068   5.788   6.499   5.722  1.1927 -2.1061 -1.4830
  713MOL0     H94069   5.820   6.176   5.767  1.5919 -2.6673  0.0846
  713MOL0     H94070   6.174   6.053   5.767 -0.8898 -2.1297 -0.5693
  713MOL0     H94071   6.016   5.995   5.771  0.2585  1.6680 -1.3110
  713MOL0     H94072   6.054   6.081   6.040  1.3671  0.4877  0.6873
  713MOL0     H94073   6.218   6.046   5.995  1.2160 -0.4026  0.5820
  713MOL0     H94074   5.996   5.828   5.969 -1.3277 -0.5131  0.4783
  713MOL0     H94075   6.183   5.824   5.973  0.5135  1.2134  2.5154
  713MOL0     H94076   6.082   5.723   6.167 -1.3587  0.5252  1.7146
  713MOL0     H94077   5.987   5.868   6.182 -0.7738 -0.3331 -0.7451
  713MOL0     H94078   6.018   5.754   6.379  2.2865 -1.6332 -1.7227
  713MOL0     H94079   6.030   5.740   6.628  0.3366  1.6242  0.7144
  713MOL0     H94080   6.465   6.131   6.946 -0.2553  3.2139  1.0889
  713MOL0     H94081   6.462   6.220   7.155 -1.6919  0.6863  0.5523
  713MOL0     H94082   6.140   6.100   7.466  2.3212 -1.6653 -1.4418
  713MOL0     H94083   6.142   6.277   7.403 -0.3915  2.1480  1.6873
  713MOL0     H94084   6.303   6.146   7.633 -0.7077 -0.1856  0.2909
  713MOL0     H94085   6.185   6.254   7.661  3.4219 -2.6129  6.0259
  713MOL0     H94086   6.304   6.445   7.516 -0.4768 -1.4882 -0.8410
  713MOL0     H94087   6.418   6.325   7.480 -0.2942 -1.2180  0.2005
  713MOL0     H94088   6.360   6.416   7.765 -0.2538 -0.1041  0.0871
  713MOL0     H94089   6.493   6.309   7.714  0.6126  0.6845  0.4093
  713MOL0     H94090   6.560   6.521   7.784  2.5174 -1.5647 -2.1862
  713MOL0     H94091   6.450   6.602   7.663  0.6144  1.1427  2.0216
  713MOL0     H94092   6.588   6.519   7.476 -1.8001 -1.7607 -0.1094
  713MOL0     H94093   6.689   6.416   7.579  0.5384  1.0197  0.5327
  713MOL0     H94094   6.805   6.624   7.507  2.0689 -0.9160  1.5751
  713MOL0     H94095   6.690   6.711   7.617 -2.0862 -0.0434 -0.2336
  713MOL0     H94096   6.938   6.586   7.664  0.0259 -0.2647  0.0032
  713MOL0     H94097   6.831   6.496   7.768  1.4759 -0.0454 -0.1958
  713MOL0     H94098   6.162   5.947   7.283  1.1885 -2.0004  0.2940
  713MOL0     H94099   6.153   5.850   7.050  0.4955 -1.4187  3.4867
  713MOL0     H94100   6.320   6.060   6.630 -0.6865 -0.3228  2.0010
  713MOL0     H94101   6.312   6.048   6.373 -1.7976  1.6608  0.3519
  713MOL0     H94102   5.124   7.057   5.882 -0.4777 -0.3669  1.0108
  713MOL0     H94103   5.076   7.215   5.709 -2.9948  0.1043  2.3710
  713MOL0     H94104   5.074   7.696   5.630  0.5295 -0.8138 -0.1163
  713MOL0     H94105   5.002   7.857   5.463 -2.0916 -2.5552  1.8632
  713MOL0     H94106   5.121   7.987   5.309 -1.3439  1.2094  1.4724
  713MOL0     H94107   4.948   8.008   5.266 -0.0532  2.5788 -2.0436
  713MOL0     H94108   5.117   8.154   5.121  2.7769 -0.3692 -3.1735
  713MOL0     H94109   5.190   8.010   5.062  1.4604  1.5548  0.2887
  713MOL0     H94110   4.889   8.024   5.029 -0.4431 -1.5967  0.1972
  713MOL0     H94111   5.017   7.952   4.934  1.3238  2.4470 -2.2772
  713MOL0     H94112   4.952   8.262   4.923 -0.2179  0.9220 -0.5377
  713MOL0     H94113   5.101   8.183   4.873 -0.5810 -1.1851 -0.4765
  713MOL0     H94114   4.853   8.029   4.576 -0.9178 -3.7661  1.1791
  713MOL0     H94115   5.066   7.564   5.152 -1.2790 -0.1861  0.1613
  713MOL0     H94116   5.133   7.408   5.327  0.8245 -0.5175  0.1765
  714MOL0     O94117   9.417   6.286  10.401 -0.4622 -0.3504  0.1786
  714MOL0     C94118   9.489   6.252  10.498 -0.4634 -0.2816  0.6343
  714MOL0     O94119   9.446   6.183  10.605  0.2639  0.4780  0.6167
  714MOL0     C94120   9.313   6.161  10.625  0.2031 -0.2144 -0.4150
  714MOL0     C94121   9.259   6.034  10.628 -0.2550  0.9763  0.5105
  714MOL0     C94122   9.119   6.006  10.655 -0.4084  0.0023  0.6468
  714MOL0     C94123   9.028   6.109  10.685 -0.6028  0.5753 -0.3142
  714MOL0     O94124   8.899   6.088  10.735 -0.7138  0.5989  0.0258
  714MOL0     C94125   8.800   6.145  10.659  0.9071  0.8741 -0.2034
  714MOL0     C94126   8.669   6.122  10.738 -0.0299 -0.3485 -0.8818
  714MOL0     C94127   8.618   5.971  10.723  0.0357 -0.9330 -0.0777
  714MOL0     C94128   8.479   5.948  10.779 -0.5651 -0.3832 -0.2536
  714MOL0     C94129   8.391   5.854  10.699  0.5112 -0.0856 -0.7016
  714MOL0     C94130   8.274   5.800  10.778 -0.0542  0.4125 -0.0563
  714MOL0     C94131   8.167   5.896  10.817 -0.8235 -1.0681  0.2865
  714MOL0     C94132   8.078   5.944  10.702 -0.4568  0.8844  0.2375
  714MOL0     N94133   8.091   6.084  10.661  0.2924  0.0763 -0.4391
  714MOL0     C94134   8.199   6.146  10.606  0.1009  0.3738  0.7307
  714MOL0     C94135   8.152   6.263  10.557  0.0825  0.3265 -0.1278
  714MOL0     C94136   8.240   6.360  10.484 -0.0417 -0.4110 -0.8180
  714MOL0     C94137   8.361   6.405  10.568 -1.0989 -0.2557  0.1174
  714MOL0     C94138   8.435   6.504  10.483 -0.4138  0.2854 -0.7372
  714MOL0     C94139   8.548   6.572  10.558 -1.1530  0.2586 -0.4738
  714MOL0     O94140   8.671   6.492  10.542  0.2188  0.4942  0.1216
  714MOL0     C94141   8.790   6.553  10.555 -0.9641 -1.1938 -0.8924
  714MOL0     C94142   8.907   6.484  10.507 -0.9562 -0.1241  0.4638
  714MOL0     C94143   9.030   6.537  10.536  0.6369  0.1456 -0.3189
  714MOL0     C94144   9.063   6.649  10.625  0.5042 -0.2282 -0.3072
  714MOL0     C94145   9.206   6.689  10.640 -0.2178 -0.7200 -0.8701
  714MOL0     O94146   9.299   6.606  10.593  0.6922  0.2389  0.3544
  714MOL0     C94147   9.426   6.647  10.591  0.0070  0.1671  0.1404
  714MOL0     C94148   9.514   6.558  10.650  0.1575 -1.2981  0.8047
  714MOL0     C94149   9.650   6.597  10.648  0.3117  0.0171 -0.4371
  714MOL0     C94150   9.707   6.688  10.565  0.4860 -0.3267 -0.0746
  714MOL0     O94151   9.840   6.727  10.564  0.6320 -0.1919 -0.2387
  714MOL0     C94152   9.902   6.748  10.432  0.1901  0.2700 -0.1052
  714MOL0     C94153  10.061   6.740  10.432 -0.1199 -0.4267  0.8006
  714MOL0     C94154  10.116   6.832  10.532  0.3580 -0.2987 -0.3697
  714MOL0     C94155  10.265   6.858  10.508 -0.9065  0.1907  0.3000
  714MOL0     C94156  10.337   6.970  10.600  0.1428  0.6342 -0.0397
  714MOL0     C94157  10.270   7.107  10.585  0.1710 -0.4582 -0.0899
  714MOL0     C94158  10.366   7.224  10.604 -0.1446  0.4113 -0.2875
  714MOL0     C94159  10.483   7.239  10.503 -0.1282  0.3319  1.0380
  714MOL0    Cl94160  10.420   7.339  10.364 -0.2872 -0.2848  0.0363
  714MOL0     C94161   9.616   6.762  10.492 -0.1127 -0.2580  0.9072
  714MOL0     C94162   9.475   6.749  10.501  0.2370  0.7092 -0.1793
  714MOL0     O94163   9.234   6.798  10.692  0.0254  0.3502 -0.4392
  714MOL0     C94164   8.947   6.704  10.684 -0.4272 -0.3680  0.2061
  714MOL0     C94165   8.814   6.653  10.651 -0.5055  0.7214 -0.0961
  714MOL0     N94166   8.016   6.279  10.588 -0.7339  0.1799 -0.4272
  714MOL0     N94167   7.979   6.162  10.652  0.4706 -0.1686  0.4099
  714MOL0     C94168   9.086   6.237  10.693 -0.2984 -0.0490 -0.1938
  714MOL0     C94169   9.227   6.259  10.671  0.0989 -0.4422  0.5091
  714MOL0     C94170   9.631   6.275  10.485 -0.3793 -0.1820  0.5857
  714MOL0     C94171   9.668   6.358  10.373 -0.6039  0.3540 -0.9935
  714MOL0     C94172   9.805   6.377  10.350  0.1708 -0.1927  0.1293
  714MOL0     C94173   9.904   6.330  10.434 -0.4968 -0.1287  0.2073
  714MOL0     O94174  10.041   6.372  10.419  0.6692  0.2838 -0.5758
  714MOL0     C94175  10.146   6.277  10.459 -0.9084  0.7552 -1.1563
  714MOL0     C94176  10.281   6.302  10.396  0.8472 -1.2392  1.3071
  714MOL0     C94177  10.329   6.456  10.411 -0.0049  0.0969 -0.4183
  714MOL0     C94178  10.469   6.474  10.353  0.2971  0.6480 -0.0697
  714MOL0     C94179  10.478   6.487  10.202  0.2748  0.4211 -0.7446
  714MOL0     C94180  10.479   6.495  10.082  0.3317  0.3473 -0.3503
  714MOL0     C94181   9.862   6.249  10.541 -0.0893 -0.1870 -0.0575
  714MOL0     C94182   9.730   6.208  10.557  0.1302 -0.1047 -0.2530
  714MOL0     H94183   9.330   5.955  10.609  1.4837  2.9887 -2.0046
  714MOL0     H94184   9.089   5.902  10.654  0.9872 -0.4141  0.1349
  714MOL0     H94185   8.785   6.088  10.567  2.9232  1.3208 -0.8322
  714MOL0     H94186   8.806   6.252  10.640 -4.0746  1.5723  0.6653
  714MOL0     H94187   8.594   6.185  10.688  0.0606 -2.5773 -4.1583
  714MOL0     H94188   8.681   6.142  10.845 -2.6086 -1.1426 -0.3641
  714MOL0     H94189   8.690   5.908  10.776 -0.7112 -2.2337 -0.5628
  714MOL0     H94190   8.623   5.949  10.616 -0.3670  0.7080 -0.4553
  714MOL0     H94191   8.499   5.909  10.879  1.6404  0.6039 -0.2609
  714MOL0     H94192   8.426   6.043  10.786  2.9072  1.6309  1.0363
  714MOL0     H94193   8.455   5.772  10.666  2.4305  1.1415 -0.2041
  714MOL0     H94194   8.347   5.906  10.614 -0.9242  2.3809  1.4049
  714MOL0     H94195   8.305   5.745  10.867 -0.8138 -1.5640 -0.9662
  714MOL0     H94196   8.231   5.724  10.712 -0.9522 -0.7148  1.7656
  714MOL0     H94197   8.113   5.834  10.889 -0.7539 -0.9405  0.4504
  714MOL0     H94198   8.211   5.990  10.852 -3.3582 -0.6772  2.8166
  714MOL0     H94199   7.976   5.928  10.740 -0.3822  1.9012  0.9143
  714MOL0     H94200   8.069   5.880  10.614  1.3765 -1.7716  1.8456
  714MOL0     H94201   8.306   6.128  10.600  0.5628  2.7091  1.0367
  714MOL0     H94202   8.184   6.453  10.467 -0.4725  0.2568  3.2677
  714MOL0     H94203   8.269   6.308  10.393 -2.0119  0.1990 -1.8480
  714MOL0     H94204   8.417   6.313  10.590  0.4655  0.4659 -0.7061
  714MOL0     H94205   8.319   6.449  10.659 -1.2891  1.7318 -0.8997
  714MOL0     H94206   8.471   6.449  10.395 -3.6812 -0.2022 -1.9015
  714MOL0     H94207   8.375   6.587  10.446 -1.4581  0.6231  1.5288
  714MOL0     H94208   8.528   6.592  10.663 -1.8443 -3.3948  0.2277
  714MOL0     H94209   8.555   6.672  10.515  1.2176  0.4352  0.2251
  714MOL0     H94210   8.908   6.387  10.457  1.3677 -0.6685  1.4348
  714MOL0     H94211   9.119   6.481  10.508  0.1156 -1.3968  1.0031
  714MOL0     H94212   9.473   6.489  10.723 -1.4930 -1.1161  0.0945
  714MOL0     H94213   9.736   6.546  10.691  0.4852  0.4145 -0.3065
  714MOL0     H94214   9.877   6.849  10.397  1.5577  1.7256  2.7707
  714MOL0     H94215   9.861   6.674  10.363 -1.8299  2.0523 -0.9500
  714MOL0     H94216  10.100   6.761  10.332 -2.9283  1.5932 -0.0081
  714MOL0     H94217  10.083   6.637  10.459 -1.1321 -0.8227  0.1846
  714MOL0     H94218  10.094   6.795  10.632 -2.1997  0.8375 -0.4361
  714MOL0     H94219  10.058   6.923  10.517 -1.1895 -1.4094 -1.4486
  714MOL0     H94220  10.312   6.759  10.519 -0.0793  0.6269  0.8006
  714MOL0     H94221  10.279   6.880  10.402  2.5391 -1.9170  0.1678
  714MOL0     H94222  10.439   6.970  10.562 -0.2986 -1.9429 -1.4504
  714MOL0     H94223  10.342   6.939  10.705  1.2920  1.0738  0.0423
  714MOL0     H94224  10.187   7.112  10.657 -2.7599 -2.2286 -3.0586
  714MOL0     H94225  10.220   7.128  10.490  0.5587  1.4300  0.0940
  714MOL0     H94226  10.305   7.314  10.610  0.4037  0.7492  0.4424
  714MOL0     H94227  10.407   7.219  10.705  1.6649  3.1566 -0.7511
  714MOL0     H94228  10.512   7.139  10.468 -1.8129  0.0579  0.3096
  714MOL0     H94229  10.579   7.276  10.540  0.6093 -2.2317  1.9599
  714MOL0     H94230   9.664   6.841  10.434 -3.2145  1.5473  0.5666
  714MOL0     H94231   9.415   6.796  10.423 -1.9205 -0.5786  0.6150
  714MOL0     H94232   8.961   6.795  10.741  0.6498  0.3061 -1.0873
  714MOL0     H94233   8.729   6.704  10.696 -1.2002 -0.2019 -0.3502
  714MOL0     H94234   9.023   6.322  10.716 -2.0930 -1.6823  1.2533
  714MOL0     H94235   9.271   6.357  10.691  0.2161 -0.3746 -0.0677
  714MOL0     H94236   9.592   6.415  10.319 -1.9818 -0.1337  0.3545
  714MOL0     H94237   9.833   6.452  10.277 -1.5178  1.1699  0.8109
  714MOL0     H94238  10.108   6.178  10.434  0.2415  0.1760 -0.6537
  714MOL0     H94239  10.160   6.288  10.567 -1.0255 -1.2841 -0.9010
  714MOL0     H94240  10.354   6.227  10.430  1.7013 -1.3516 -0.6728
  714MOL0     H94241  10.262   6.280  10.291 -0.6333  4.7609 -0.0532
  714MOL0     H94242  10.324   6.474  10.519 -1.7474  1.7436 -0.7117
  714MOL0     H94243  10.260   6.528  10.366 -0.5092 -0.1759 -0.0868
  714MOL0     H94244  10.523   6.559  10.395  0.7251  0.6953 -0.6949
  714MOL0     H94245  10.518   6.381  10.382 -0.7596  0.5721  1.6236
  714MOL0     H94246  10.483   6.483   9.976 -2.4208 -0.0173 -0.4751
  714MOL0     H94247   9.934   6.198  10.604 -0.3835 -1.7984 -0.9628
  714MOL0     H94248   9.722   6.132  10.634 -1.9800 -0.8816 -1.1874
  715MOL0     O94249   6.087   3.271   3.546  0.0673 -0.1018 -0.9423
  715MOL0     C94250   6.081   3.392   3.520 -0.4940  0.8680 -0.1505
  715MOL0     O94251   6.053   3.443   3.394  0.3118  0.2064  0.5651
  715MOL0     C94252   6.036   3.378   3.271  0.6264  0.2136  0.5994
  715MOL0     C94253   6.042   3.455   3.151 -0.2726  0.8375  0.2507
  715MOL0     C94254   6.019   3.402   3.022  0.5621  0.7120  0.1977
  715MOL0     C94255   5.962   3.269   3.005 -0.4638  0.1001 -0.0808
  715MOL0     O94256   5.934   3.213   2.888  0.9579 -0.7075  0.1747
  715MOL0     C94257   5.828   3.271   2.802  0.0648 -0.2482 -0.6965
  715MOL0     C94258   5.884   3.347   2.683  0.0042  0.2075 -0.2646
  715MOL0     C94259   5.978   3.269   2.591 -0.8679  0.1139  0.9391
  715MOL0     C94260   5.922   3.140   2.547  0.2069 -0.1312  0.5383
  715MOL0     C94261   6.002   3.079   2.432  0.8755  1.4213 -0.9464
  715MOL0     C94262   6.151   3.056   2.471 -0.7444 -0.8967  0.0442
  715MOL0     C94263   6.229   3.000   2.359  0.7191 -0.3166 -1.0768
  715MOL0     C94264   6.233   3.078   2.225 -0.0091 -0.5145  0.8376
  715MOL0     N94265   6.341   3.022   2.144  0.2273 -0.1603 -0.0982
  715MOL0     C94266   6.443   3.102   2.101  0.3335  0.4876  0.0968
  715MOL0     C94267   6.495   3.038   1.999  0.3461 -0.2634 -0.0955
  715MOL0     C94268   6.602   3.100   1.912 -0.0417  0.1459 -1.3137
  715MOL0     C94269   6.750   3.057   1.952 -0.0144 -0.8041  0.7248
  715MOL0     C94270   6.849   3.087   1.846 -0.3411  0.9101  0.1187
  715MOL0     C94271   6.857   3.227   1.810 -0.2714 -1.4787 -0.5341
  715MOL0     O94272   6.960   3.245   1.724  0.0494  0.3109 -0.2043
  715MOL0     C94273   7.032   3.354   1.717  0.7793 -1.1657  0.1386
  715MOL0     C94274   7.066   3.406   1.597 -0.2359  0.3987  0.1222
  715MOL0     C94275   7.155   3.512   1.583  0.4782  0.6788  0.7075
  715MOL0     C94276   7.211   3.570   1.699 -0.5011 -0.4639  0.5446
  715MOL0     C94277   7.272   3.703   1.694  0.3744  0.1233  0.2168
  715MOL0     O94278   7.295   3.774   1.810 -0.1462 -0.2184 -0.9285
  715MOL0     C94279   7.311   3.916   1.818 -0.3091  0.3702 -0.2752
  715MOL0     C94280   7.285   4.000   1.717  0.2261 -0.3828  0.0381
  715MOL0     C94281   7.293   4.142   1.730  0.2751  0.5925 -0.7488
  715MOL0     C94282   7.330   4.204   1.857  0.2963 -0.0719  0.0309
  715MOL0     O94283   7.339   4.336   1.866  0.0743  0.6868  0.2048
  715MOL0     C94284   7.329   4.411   1.987 -0.8761 -0.4772  0.9997
  715MOL0     C94285   7.319   4.564   1.946  1.2635 -0.6553  0.1543
  715MOL0     C94286   7.272   4.648   2.066 -0.2462 -0.0572  0.1961
  715MOL0     C94287   7.280   4.802   2.050  0.5253  0.2298 -0.4831
  715MOL0     C94288   7.249   4.863   2.192 -0.4811  0.6416 -0.0859
  715MOL0     C94289   7.095   4.859   2.217  0.8827 -0.0805  0.6147
  715MOL0     C94290   7.077   4.953   2.340  0.6164 -0.2700 -0.1680
  715MOL0     C94291   6.947   4.930   2.424 -0.0658 -0.0677  0.0269
  715MOL0    Cl94292   6.802   4.941   2.315 -0.0126  0.3867  0.0408
  715MOL0     C94293   7.350   4.114   1.967  0.6806 -0.3801 -1.1600
  715MOL0     C94294   7.345   3.971   1.945  0.3802  0.0107  0.4138
  715MOL0     O94295   7.325   3.734   1.586 -0.1454  0.1903  0.2040
  715MOL0     C94296   7.179   3.509   1.825 -0.0903  0.2990  0.1538
  715MOL0     C94297   7.095   3.393   1.838  0.1294 -0.3311 -0.6461
  715MOL0     N94298   6.429   2.916   1.986  0.0926 -0.1988 -0.1040
  715MOL0     N94299   6.339   2.905   2.074 -0.4350  0.6868  1.2007
  715MOL0     C94300   5.955   3.187   3.121 -0.5394  0.2210 -1.0860
  715MOL0     C94301   6.001   3.238   3.249 -0.2130 -0.9477 -0.3036
  715MOL0     C94302   6.084   3.482   3.631  0.7984  0.0002 -0.1515
  715MOL0     C94303   6.138   3.607   3.617 -0.2207  0.4406  1.2455
  715MOL0     C94304   6.160   3.686   3.720  0.3798  0.0816  0.7417
  715MOL0     C94305   6.108   3.663   3.847 -0.2988  0.6991 -0.2066
  715MOL0     O94306   6.102   3.757   3.949 -0.3340  0.0643  0.3339
  715MOL0     C94307   6.169   3.886   3.934  0.3886  0.5870 -0.2417
  715MOL0     C94308   6.184   3.925   4.080  0.0540 -0.2974  0.2055
  715MOL0     C94309   6.263   4.060   4.106  0.5418 -0.2413  0.0165
  715MOL0     C94310   6.246   4.109   4.249 -0.0749 -0.3022 -0.1220
  715MOL0     C94311   6.332   4.222   4.259  0.2071 -0.1090  0.4767
  715MOL0     C94312   6.407   4.322   4.267  0.2221 -0.2539  0.3843
  715MOL0     C94313   6.055   3.537   3.865  0.6185  0.5055 -0.8053
  715MOL0     C94314   6.044   3.443   3.756 -0.2929  0.3353  0.6025
  715MOL0     H94315   6.071   3.560   3.155  1.0077  0.4683  1.8876
  715MOL0     H94316   6.035   3.460   2.932 -2.5712 -3.0910 -3.2464
  715MOL0     H94317   5.756   3.319   2.869  0.2668 -1.3807  0.3734
  715MOL0     H94318   5.783   3.182   2.755  2.7965 -0.7819 -2.5598
  715MOL0     H94319   5.929   3.440   2.720 -0.4426  0.3964 -0.1810
  715MOL0     H94320   5.795   3.377   2.627 -0.8931  1.0843  1.5511
  715MOL0     H94321   6.072   3.251   2.645 -1.1020  0.3686  1.4352
  715MOL0     H94322   6.007   3.330   2.506 -0.1162  0.4844  1.4460
  715MOL0     H94323   5.909   3.072   2.631 -2.2212  0.2354  0.5270
  715MOL0     H94324   5.819   3.165   2.519  1.5056  5.2386 -0.6462
  715MOL0     H94325   6.014   3.165   2.365  2.2176  1.3470 -0.8270
  715MOL0     H94326   5.948   2.990   2.398  2.4290 -0.8353  2.0517
  715MOL0     H94327   6.160   2.985   2.554 -0.1243  0.1395  0.8868
  715MOL0     H94328   6.203   3.149   2.494 -1.3316 -0.2761 -1.0797
  715MOL0     H94329   6.335   3.005   2.387  0.5766  0.9939 -0.6929
  715MOL0     H94330   6.198   2.898   2.336 -1.0041 -0.3695  1.1243
  715MOL0     H94331   6.251   3.184   2.248  0.7970 -0.4750  0.0768
  715MOL0     H94332   6.140   3.089   2.168  1.7182 -1.4266 -2.3957
  715MOL0     H94333   6.457   3.208   2.123  0.4963  1.6873 -4.6006
  715MOL0     H94334   6.584   3.208   1.919 -1.0336 -0.1165  2.3355
  715MOL0     H94335   6.590   3.071   1.807 -1.2208 -3.1000 -0.4301
  715MOL0     H94336   6.748   2.949   1.968  0.7054 -0.5815  2.5322
  715MOL0     H94337   6.774   3.108   2.046  1.5701  1.9802 -1.0587
  715MOL0     H94338   6.948   3.049   1.874 -0.8575 -2.2555 -1.9582
  715MOL0     H94339   6.839   3.026   1.756 -0.9382 -0.3438  1.0060
  715MOL0     H94340   6.871   3.273   1.909  1.0972 -4.0928  0.5873
  715MOL0     H94341   6.764   3.269   1.770 -0.5063 -0.3970  1.0349
  715MOL0     H94342   7.024   3.356   1.510  0.6581  2.8753 -1.8346
  715MOL0     H94343   7.181   3.566   1.492 -2.5228 -0.7352 -1.1383
  715MOL0     H94344   7.238   3.975   1.623 -1.6665  2.3556  0.1543
  715MOL0     H94345   7.276   4.198   1.639  0.6543 -2.6173 -2.9686
  715MOL0     H94346   7.416   4.397   2.052  0.4319 -1.7690 -0.9538
  715MOL0     H94347   7.248   4.379   2.054 -1.1822 -0.9129  0.4273
  715MOL0     H94348   7.251   4.569   1.861  0.2028 -2.3312  0.8446
  715MOL0     H94349   7.420   4.587   1.910  1.4134  0.1388  1.0395
  715MOL0     H94350   7.321   4.605   2.154  0.5118  0.7376  0.1659
  715MOL0     H94351   7.164   4.631   2.078 -0.3350  1.3650  1.7952
  715MOL0     H94352   7.377   4.827   2.007 -0.1569  2.6119 -0.8074
  715MOL0     H94353   7.204   4.830   1.976 -3.0496 -4.9783  0.6938
  715MOL0     H94354   7.279   4.967   2.207  0.5434  0.2493  0.7178
  715MOL0     H94355   7.302   4.808   2.271  2.0654  2.7819 -0.1599
  715MOL0     H94356   7.058   4.757   2.230  0.2295 -0.1553 -1.4825
  715MOL0     H94357   7.038   4.896   2.132  0.1963 -0.7569  0.7698
  715MOL0     H94358   7.158   4.937   2.410 -0.3455 -4.2446  0.2814
  715MOL0     H94359   7.081   5.059   2.311 -2.5862 -0.5429 -2.2294
  715MOL0     H94360   6.953   4.998   2.510  0.0821  1.1342 -0.8945
  715MOL0     H94361   6.944   4.829   2.465  1.4010  0.3213  1.1864
  715MOL0     H94362   7.375   4.150   2.066 -0.0175 -0.0077 -1.1150
  715MOL0     H94363   7.363   3.900   2.026  1.4958  2.3587  2.3702
  715MOL0     H94364   7.207   3.562   1.915 -2.5685  0.4215  0.9108
  715MOL0     H94365   7.065   3.354   1.935  1.2590 -3.8555 -1.5730
  715MOL0     H94366   5.942   3.080   3.105  0.8729 -0.1301 -0.1231
  715MOL0     H94367   6.003   3.168   3.332  2.4366 -2.6645 -1.6718
  715MOL0     H94368   6.174   3.638   3.519  1.6997 -3.3241  0.5555
  715MOL0     H94369   6.189   3.786   3.689 -0.8100  0.1203 -0.3458
  715MOL0     H94370   6.101   3.946   3.873 -1.3765 -1.6814 -0.6457
  715MOL0     H94371   6.271   3.880   3.893 -0.1462  1.0213 -1.6765
  715MOL0     H94372   6.080   3.946   4.107  0.1787  1.4314 -0.5396
  715MOL0     H94373   6.206   3.849   4.155 -2.5587 -0.2405  1.1558
  715MOL0     H94374   6.212   4.134   4.044  1.9582 -0.0382 -0.9307
  715MOL0     H94375   6.366   4.049   4.074  0.2210 -0.3314 -1.0141
  715MOL0     H94376   6.142   4.131   4.277 -1.0203 -0.9830 -2.8358
  715MOL0     H94377   6.278   4.026   4.313  0.2175  0.5622  0.8883
  715MOL0     H94378   6.486   4.393   4.283 -0.0108  0.4389 -1.3735
  715MOL0     H94379   6.016   3.518   3.965 -0.1081  2.4380 -0.6693
  715MOL0     H94380   5.995   3.347   3.768  0.4748 -0.4145 -1.8339
  716MOL0     O94381  11.296   1.601  10.454  0.0906 -0.9311 -0.1961
  716MOL0     C94382  11.359   1.691  10.515 -0.2650  0.9360  0.1433
  716MOL0     O94383  11.421   1.669  10.642  0.2449 -0.7481 -0.5108
  716MOL0     C94384  11.392   1.568  10.730 -0.2234 -0.5323  0.5043
  716MOL0     C94385  11.508   1.513  10.798  0.2845 -0.3778  0.7139
  716MOL0     C94386  11.495   1.425  10.898 -0.8186  0.3050 -0.6230
  716MOL0     C94387  11.366   1.374  10.930  0.6502  0.7926 -1.0729
  716MOL0     O94388  11.359   1.292  11.040 -0.6029 -0.2039 -0.2792
  716MOL0     C94389  11.234   1.250  11.099 -0.2819  0.7789 -0.1627
  716MOL0     C94390  11.276   1.226  11.239  0.3785  0.5349  0.0930
  716MOL0     C94391  11.327   1.079  11.252 -0.7391 -0.4324 -0.0359
  716MOL0     C94392  11.444   1.039  11.150 -0.5636  0.4205 -0.4641
  716MOL0     C94393  11.501   0.909  11.184 -0.7810 -0.4639 -0.0015
  716MOL0     C94394  11.605   0.867  11.074  0.8450 -0.5150  0.3182
  716MOL0     C94395  11.679   0.736  11.106  0.3216 -0.4715 -1.0699
  716MOL0     C94396  11.697   0.646  10.980  0.2760  0.2272  0.2650
  716MOL0     N94397  11.712   0.500  11.003 -0.1058 -0.1222 -0.9556
  716MOL0     C94398  11.677   0.426  11.109 -0.9757  0.7518 -0.4065
  716MOL0     C94399  11.754   0.305  11.105 -0.2720  0.0514 -0.0243
  716MOL0     C94400  11.743   0.190  11.211 -0.2426  0.4846 -0.4289
  716MOL0     C94401  11.725   0.233  11.360  0.1078  0.3825 -0.3745
  716MOL0     C94402  11.829   0.334  11.404 -0.7684 -0.0634 -0.8259
  716MOL0     C94403  11.825   0.389  11.546  0.2233  0.3962  0.8790
  716MOL0     O94404  11.691   0.452  11.554 -0.2601  0.4296  0.2001
  716MOL0     C94405  11.685   0.582  11.562 -0.0676 -0.6621  1.0035
  716MOL0     C94406  11.551   0.627  11.564 -0.3285 -0.2371 -0.4027
  716MOL0     C94407  11.530   0.765  11.579 -0.0557 -0.4236  0.3474
  716MOL0     C94408  11.635   0.853  11.575  1.8091 -0.2945  0.3563
  716MOL0     C94409  11.596   0.990  11.577 -0.0153 -0.4464  0.0875
  716MOL0     O94410  11.503   1.037  11.659  0.0764  0.1389 -0.2117
  716MOL0     C94411  11.466   1.170  11.669  0.3462 -0.8858 -0.0750
  716MOL0     C94412  11.429   1.210  11.801  0.1571  0.6000 -0.7242
  716MOL0     C94413  11.394   1.345  11.831 -0.5199  0.0369 -0.5314
  716MOL0     C94414  11.383   1.440  11.731 -0.7171 -1.7825  0.9530
  716MOL0     O94415  11.332   1.570  11.768 -0.0360 -0.3359  0.2974
  716MOL0     C94416  11.298   1.655  11.657  0.3060 -0.3601 -0.0539
  716MOL0     C94417  11.230   1.789  11.705  0.2689 -0.1453  0.4615
  716MOL0     C94418  11.215   1.906  11.600 -0.7209 -1.0538  0.8543
  716MOL0     C94419  11.343   1.940  11.527 -0.3909  0.2542  0.0939
  716MOL0     C94420  11.352   2.083  11.458 -1.3663  1.0581 -0.2425
  716MOL0     C94421  11.462   2.087  11.342  0.8749 -0.2757 -0.6268
  716MOL0     C94422  11.487   2.232  11.311  0.4514 -0.2933 -0.0362
  716MOL0     C94423  11.360   2.312  11.271 -0.5063  0.3373  0.2918
  716MOL0    Cl94424  11.293   2.224  11.124  0.8061 -0.1887  0.0864
  716MOL0     C94425  11.392   1.396  11.599  0.8377  0.1301  0.2081
  716MOL0     C94426  11.441   1.260  11.569  0.4850  0.5333 -0.1428
  716MOL0     O94427  11.672   1.069  11.516 -0.2079  0.1210  0.3602
  716MOL0     C94428  11.760   0.811  11.583  0.5898  0.2931 -1.2705
  716MOL0     C94429  11.794   0.678  11.573  0.0681 -0.7377  0.5155
  716MOL0     N94430  11.838   0.315  10.999  0.1559  0.3477  0.7215
  716MOL0     N94431  11.813   0.430  10.937 -0.4978 -0.4605 -0.7591
  716MOL0     C94432  11.256   1.417  10.860 -0.5321  0.5754 -0.0783
  716MOL0     C94433  11.264   1.522  10.766  1.0891  0.0631  0.7660
  716MOL0     C94434  11.371   1.822  10.451 -0.0051 -0.7254 -0.1917
  716MOL0     C94435  11.283   1.863  10.349 -0.1439  0.7443  1.0017
  716MOL0     C94436  11.287   1.988  10.286  0.4275 -0.2473  0.0247
  716MOL0     C94437  11.389   2.074  10.321 -0.4596 -1.1595  1.0548
  716MOL0     O94438  11.403   2.202  10.249 -0.2495  0.4335 -0.1607
  716MOL0     C94439  11.523   2.276  10.244 -0.1900 -0.6584  0.1555
  716MOL0     C94440  11.497   2.396  10.340  0.0426 -0.1438  0.5114
  716MOL0     C94441  11.613   2.504  10.336 -0.0215  0.6715 -0.0667
  716MOL0     C94442  11.756   2.442  10.353  1.2199 -0.8968  0.7965
  716MOL0     C94443  11.771   2.360  10.473  0.9253 -0.2999 -0.5673
  716MOL0     C94444  11.781   2.295  10.574  0.1289  1.1288 -0.4923
  716MOL0     C94445  11.471   2.038  10.434  0.1118 -0.3846  0.7010
  716MOL0     C94446  11.457   1.919  10.505 -0.0507  0.6110 -0.7191
  716MOL0     H94447  11.607   1.551  10.772 -0.9453  2.5402 -0.0765
  716MOL0     H94448  11.572   1.381  10.961 -3.9609 -3.2265  1.1226
  716MOL0     H94449  11.195   1.168  11.037 -2.0540  1.9184 -0.6319
  716MOL0     H94450  11.152   1.322  11.089 -0.9058 -0.2697 -5.3811
  716MOL0     H94451  11.194   1.236  11.310  0.4374  1.1978  0.0780
  716MOL0     H94452  11.358   1.287  11.277 -0.5727  1.7636  0.2180
  716MOL0     H94453  11.250   1.001  11.245  3.4073 -4.8810 -1.5398
  716MOL0     H94454  11.358   1.068  11.356 -2.4865  1.4568  0.7377
  716MOL0     H94455  11.407   1.031  11.047  0.8387  1.4909 -1.0902
  716MOL0     H94456  11.527   1.110  11.146 -0.3616  0.2071 -0.0672
  716MOL0     H94457  11.423   0.836  11.206  2.0542 -3.1820  1.8743
  716MOL0     H94458  11.554   0.911  11.280  2.2340 -0.7244 -1.5385
  716MOL0     H94459  11.683   0.943  11.068  0.6948  0.0984  3.8038
  716MOL0     H94460  11.544   0.867  10.984 -0.2720  1.5620  1.0022
  716MOL0     H94461  11.777   0.754  11.151 -0.3738  1.8017 -0.3726
  716MOL0     H94462  11.614   0.685  11.178  2.7151 -2.7474 -0.3476
  716MOL0     H94463  11.785   0.665  10.917  0.9903 -0.9437  0.8706
  716MOL0     H94464  11.613   0.667  10.914  1.5052 -1.0532 -1.8452
  716MOL0     H94465  11.613   0.459  11.191 -2.2347 -2.9847  0.3345
  716MOL0     H94466  11.835   0.131  11.202  1.2094  2.8223 -2.4919
  716MOL0     H94467  11.656   0.125  11.202 -0.1655  0.2506  0.4283
  716MOL0     H94468  11.732   0.138  11.415  0.2164  1.8883  2.3477
  716MOL0     H94469  11.625   0.275  11.372 -1.3827 -1.8726 -3.3249
  716MOL0     H94470  11.925   0.283  11.397 -0.2771  0.6470  0.3684
  716MOL0     H94471  11.832   0.420  11.337 -0.8404  0.4916 -0.1384
  716MOL0     H94472  11.911   0.452  11.567  1.6015 -0.8047 -0.8652
  716MOL0     H94473  11.824   0.312  11.624 -1.6862 -0.5689 -0.0254
  716MOL0     H94474  11.472   0.552  11.568  2.2342 -3.2615 -1.8156
  716MOL0     H94475  11.425   0.794  11.576  0.8967  3.6483  0.1945
  716MOL0     H94476  11.429   1.118  11.858 -0.4066 -0.1925 -1.9508
  716MOL0     H94477  11.371   1.378  11.932  3.9978  0.8115  0.4473
  716MOL0     H94478  11.238   1.604  11.582  2.0628 -4.7124  1.1698
  716MOL0     H94479  11.392   1.682  11.607  0.4271 -2.1760 -0.8736
  716MOL0     H94480  11.294   1.825  11.786 -0.1031  0.5326  0.4684
  716MOL0     H94481  11.130   1.758  11.735 -0.6726 -0.1794 -2.4046
  716MOL0     H94482  11.172   1.997  11.645 -1.2782 -1.0634  0.3507
  716MOL0     H94483  11.151   1.862  11.523 -0.3967 -0.7614  0.4127
  716MOL0     H94484  11.417   1.934  11.607  0.8263 -1.5193 -1.1036
  716MOL0     H94485  11.371   1.864  11.454 -2.0255  1.2312 -1.6338
  716MOL0     H94486  11.392   2.153  11.532  1.8167 -0.5811 -0.2227
  716MOL0     H94487  11.253   2.102  11.415 -1.0870  0.2060 -1.3162
  716MOL0     H94488  11.423   2.031  11.256  1.2035  0.9082 -1.5683
  716MOL0     H94489  11.558   2.042  11.370  2.1783  2.1325 -0.9821
  716MOL0     H94490  11.543   2.277  11.394 -1.0552  2.6419 -0.4661
  716MOL0     H94491  11.545   2.231  11.218  0.8945  2.9758  0.0628
  716MOL0     H94492  11.394   2.412  11.242  1.6484 -0.3488  0.2743
  716MOL0     H94493  11.286   2.316  11.352 -1.4665 -3.8050 -0.1723
  716MOL0     H94494  11.380   1.454  11.508 -0.3932  0.1755  0.3870
  716MOL0     H94495  11.467   1.234  11.467 -0.3868 -1.0698  0.0038
  716MOL0     H94496  11.836   0.888  11.595 -0.2160  1.2897 -2.3709
  716MOL0     H94497  11.902   0.666  11.575  0.2097  0.4052  1.1836
  716MOL0     H94498  11.157   1.376  10.873 -0.1898  0.0074  0.8547
  716MOL0     H94499  11.171   1.548  10.715  1.6532 -0.3289 -0.5062
  716MOL0     H94500  11.203   1.801  10.308  0.2402  1.2299 -0.5560
  716MOL0     H94501  11.223   2.008  10.200  0.3041  0.2676  0.2287
  716MOL0     H94502  11.551   2.312  10.144 -3.4742 -1.4406 -1.1908
  716MOL0     H94503  11.615   2.220  10.264  0.5609  0.4873 -0.0447
  716MOL0     H94504  11.406   2.442  10.301 -1.1814 -3.0965 -0.3625
  716MOL0     H94505  11.481   2.352  10.439  2.1942 -0.3644  0.8173
  716MOL0     H94506  11.592   2.565  10.424 -0.2815  0.8694 -0.2658
  716MOL0     H94507  11.600   2.549  10.237 -1.1554 -0.7732 -0.6209
  716MOL0     H94508  11.773   2.382  10.263  1.1872  0.6016 -0.2470
  716MOL0     H94509  11.821   2.530  10.363 -1.3942  1.2767 -0.3644
  716MOL0     H94510  11.782   2.221  10.651 -2.1204  1.0775 -0.4520
  716MOL0     H94511  11.555   2.094  10.475  1.4044 -1.1504 -0.7804
  716MOL0     H94512  11.528   1.902  10.586  2.7635 -0.9917 -3.3257
  717MOL0     O94513   9.694   8.016   7.059 -0.1693  0.6036 -0.0206
  717MOL0     C94514   9.814   8.029   7.075  0.0132  0.4731  0.7058
  717MOL0     O94515   9.887   7.994   7.182  0.0379 -0.4470  0.2731
  717MOL0     C94516   9.827   7.968   7.303  1.2939  0.1073 -0.4845
  717MOL0     C94517   9.719   8.040   7.341  0.1342 -0.5405 -0.4581
  717MOL0     C94518   9.641   7.999   7.451  0.2807  0.7278  0.1268
  717MOL0     C94519   9.688   7.895   7.529  0.9828  0.9778  0.1353
  717MOL0     O94520   9.625   7.857   7.651  0.2206  0.4502  0.1776
  717MOL0     C94521   9.481   7.851   7.644  0.2277 -0.2613 -0.5468
  717MOL0     C94522   9.420   7.776   7.766 -0.3084 -0.4504  1.1073
  717MOL0     C94523   9.270   7.775   7.771  0.6450 -0.2269  0.1565
  717MOL0     C94524   9.217   7.914   7.800  0.1932 -0.3755 -0.2463
  717MOL0     C94525   9.066   7.927   7.769  0.0560 -1.3196 -0.2107
  717MOL0     C94526   9.019   8.071   7.747  0.1916  0.8746  0.0021
  717MOL0     C94527   8.871   8.090   7.724 -0.6146 -0.4863 -0.3046
  717MOL0     C94528   8.826   8.229   7.684  0.6035 -0.2780  0.1675
  717MOL0     N94529   8.682   8.235   7.646 -0.0974 -0.7474  0.1335
  717MOL0     C94530   8.626   8.315   7.549 -0.6753 -0.7351 -0.2149
  717MOL0     C94531   8.492   8.310   7.572 -0.0692  0.2610 -1.3131
  717MOL0     C94532   8.402   8.382   7.486 -0.5280 -0.2770  0.0323
  717MOL0     C94533   8.364   8.288   7.364 -0.1028 -0.2612  0.4181
  717MOL0     C94534   8.364   8.358   7.231  0.2088 -0.6068 -0.5914
  717MOL0     C94535   8.297   8.276   7.118  0.3230  0.2646 -0.6675
  717MOL0     O94536   8.271   8.361   7.005 -0.6397 -0.1093 -0.0607
  717MOL0     C94537   8.183   8.462   7.027  0.2352  0.1275  0.2503
  717MOL0     C94538   8.225   8.587   6.985  0.7090 -0.2432 -0.4564
  717MOL0     C94539   8.149   8.700   7.001 -1.4065 -1.9454  0.6695
  717MOL0     C94540   8.017   8.693   7.052  0.1643  0.7215 -0.6766
  717MOL0     C94541   7.929   8.812   7.037 -0.0623  1.1746  0.5118
  717MOL0     O94542   7.986   8.931   6.999 -0.2311  0.2164 -0.2268
  717MOL0     C94543   7.905   9.042   6.976  0.0917 -0.8792 -0.2045
  717MOL0     C94544   7.902   9.159   7.062  0.9701 -0.6810  1.0593
  717MOL0     C94545   7.838   9.272   7.024  0.5297 -0.8144  0.2141
  717MOL0     C94546   7.758   9.275   6.903 -0.0135 -0.9862  0.7514
  717MOL0     O94547   7.685   9.387   6.868  0.2138 -0.1349  0.2494
  717MOL0     C94548   7.660   9.400   6.729  0.8346  0.2790  0.5968
  717MOL0     C94549   7.594   9.534   6.696  0.2815  0.0412 -0.1043
  717MOL0     C94550   7.450   9.538   6.754 -0.9397  1.0530 -0.4135
  717MOL0     C94551   7.373   9.667   6.703 -0.0920  1.0934  0.5974
  717MOL0     C94552   7.241   9.678   6.773 -0.0823 -0.1709  0.0677
  717MOL0     C94553   7.157   9.781   6.698  0.7545 -0.5094  0.9575
  717MOL0     C94554   7.202   9.924   6.692 -0.3307 -0.2336 -0.1626
  717MOL0     C94555   7.264   9.959   6.559 -0.3972 -0.0788  1.0571
  717MOL0    Cl94556   7.141   9.938   6.428  0.0171  0.0647  0.1681
  717MOL0     C94557   7.756   9.158   6.828 -0.3440  0.0573  0.5805
  717MOL0     C94558   7.826   9.033   6.864  0.8129 -0.8089  0.0964
  717MOL0     O94559   7.812   8.797   7.075  0.2081  0.8417  0.6407
  717MOL0     C94560   7.973   8.563   7.107  0.0729  0.3967 -0.6894
  717MOL0     C94561   8.062   8.443   7.098  1.1076 -0.8988 -0.6083
  717MOL0     N94562   8.471   8.233   7.691  0.4457  0.2459  0.3964
  717MOL0     N94563   8.588   8.197   7.729  0.4774  0.9683 -0.8808
  717MOL0     C94564   9.804   7.827   7.490  0.4432  0.3544 -0.9870
  717MOL0     C94565   9.880   7.864   7.378 -0.6742  0.5836  0.6633
  717MOL0     C94566   9.887   8.079   6.957 -0.2974 -0.1061  0.1974
  717MOL0     C94567   9.809   8.127   6.842  0.3788 -0.0413 -0.5833
  717MOL0     C94568   9.873   8.170   6.726  0.9835  0.5192  0.2274
  717MOL0     C94569  10.017   8.166   6.724  0.6133  0.0110  0.1502
  717MOL0     O94570  10.106   8.221   6.634 -0.3402 -0.2753  0.2892
  717MOL0     C94571  10.041   8.285   6.522 -0.0728 -0.1348  0.9378
  717MOL0     C94572   9.978   8.423   6.559 -0.1240  0.0677  1.0220
  717MOL0     C94573  10.070   8.517   6.629 -0.2531 -0.6160 -0.6649
  717MOL0     C94574  10.032   8.655   6.576  0.4859 -0.0855  0.4862
  717MOL0     C94575  10.112   8.761   6.624 -0.7604  0.7288  1.1006
  717MOL0     C94576  10.172   8.851   6.677 -0.1878 -0.3929 -0.7430
  717MOL0     C94577  10.092   8.111   6.831  0.5335 -0.0207  0.4143
  717MOL0     C94578  10.020   8.071   6.951 -0.5735 -0.6832 -0.5426
  717MOL0     H94579   9.674   8.114   7.276 -2.1189 -2.9765 -1.8691
  717MOL0     H94580   9.546   8.050   7.468 -0.4338 -0.2383 -0.7760
  717MOL0     H94581   9.452   7.799   7.552  0.3818 -0.9342 -0.2234
  717MOL0     H94582   9.447   7.955   7.652 -4.6727 -1.6209 -0.6677
  717MOL0     H94583   9.449   7.834   7.854 -2.5795  0.1536  1.5193
  717MOL0     H94584   9.463   7.675   7.766  3.2642  0.8325 -1.9627
  717MOL0     H94585   9.223   7.717   7.851  0.7108 -0.2303  0.1928
  717MOL0     H94586   9.231   7.745   7.673  2.0242 -3.7608  0.5586
  717MOL0     H94587   9.231   7.937   7.906  1.4877 -3.8172  0.4566
  717MOL0     H94588   9.270   7.995   7.749 -0.7756  1.6531  1.8088
  717MOL0     H94589   9.011   7.873   7.846 -1.2056  1.1844  0.7460
  717MOL0     H94590   9.044   7.875   7.676 -2.6172 -1.5553  0.4898
  717MOL0     H94591   9.072   8.107   7.659  1.6502 -2.3958 -0.6169
  717MOL0     H94592   9.033   8.133   7.836 -2.0239 -0.3283  1.2986
  717MOL0     H94593   8.828   8.032   7.641 -1.2715 -0.8390  0.2729
  717MOL0     H94594   8.827   8.063   7.820 -0.7349  2.6851  0.6464
  717MOL0     H94595   8.868   8.272   7.593  0.3275 -0.9151 -0.2723
  717MOL0     H94596   8.836   8.294   7.771  1.3777 -1.3235  0.8877
  717MOL0     H94597   8.670   8.357   7.460 -2.1672 -2.4488 -1.8439
  717MOL0     H94598   8.450   8.474   7.454  0.1638 -0.5905  0.1380
  717MOL0     H94599   8.314   8.399   7.549  1.3062 -2.0274  3.3537
  717MOL0     H94600   8.261   8.253   7.361 -0.0751 -0.4956 -4.2702
  717MOL0     H94601   8.425   8.198   7.370  1.4648  0.8325  1.9411
  717MOL0     H94602   8.312   8.451   7.255 -3.0026 -2.9688  2.8581
  717MOL0     H94603   8.463   8.394   7.202  0.3174  0.3325  0.8212
  717MOL0     H94604   8.205   8.227   7.149 -1.7570  2.1396 -3.4612
  717MOL0     H94605   8.381   8.210   7.094  1.1530  1.4085 -1.0041
  717MOL0     H94606   8.313   8.599   6.922 -1.0592  3.6667 -2.5536
  717MOL0     H94607   8.191   8.793   6.964  0.1466 -1.4235  3.5208
  717MOL0     H94608   7.950   9.183   7.157  1.0377  2.6935  0.3009
  717MOL0     H94609   7.844   9.357   7.092 -3.3316 -1.1378  1.1591
  717MOL0     H94610   7.585   9.331   6.689 -1.2805  2.6275  0.3024
  717MOL0     H94611   7.754   9.393   6.673  0.5927 -1.0806  0.3344
  717MOL0     H94612   7.593   9.535   6.587 -3.2794 -3.6006 -0.3546
  717MOL0     H94613   7.654   9.613   6.743  0.6420  0.5155 -1.3234
  717MOL0     H94614   7.461   9.527   6.863 -1.3435 -0.7934 -0.5313
  717MOL0     H94615   7.400   9.445   6.728 -0.4347  1.0854 -1.5339
  717MOL0     H94616   7.426   9.756   6.738  0.6197  0.6663  0.6143
  717MOL0     H94617   7.365   9.659   6.594  1.4548 -3.7819  0.5936
  717MOL0     H94618   7.246   9.696   6.881  1.3104  0.6838 -0.1220
  717MOL0     H94619   7.194   9.581   6.755  0.6290 -0.2077 -1.7441
  717MOL0     H94620   7.057   9.786   6.742 -1.4026  2.0722 -3.5842
  717MOL0     H94621   7.134   9.748   6.597 -0.6435  1.2417  0.6610
  717MOL0     H94622   7.121   9.997   6.706 -0.9060 -0.7676 -0.6026
  717MOL0     H94623   7.280   9.930   6.768 -0.7845  1.1944  0.2276
  717MOL0     H94624   7.358   9.909   6.535 -1.1615 -1.4416  0.8228
  717MOL0     H94625   7.267  10.068   6.567  3.1065 -0.0101  0.5220
  717MOL0     H94626   7.684   9.138   6.749  1.3886  0.1996 -1.1024
  717MOL0     H94627   7.799   8.943   6.810 -0.9396 -0.3560  0.1383
  717MOL0     H94628   7.873   8.546   7.145  0.1050  1.1269 -0.2753
  717MOL0     H94629   8.022   8.348   7.131 -1.6916  0.0194 -1.0477
  717MOL0     H94630   9.832   7.739   7.546 -2.6714  0.9640  1.8386
  717MOL0     H94631   9.976   7.816   7.359  0.4364  2.2860  1.6684
  717MOL0     H94632   9.701   8.120   6.849  0.2539  1.7693 -0.2689
  717MOL0     H94633   9.817   8.210   6.642 -1.6700 -2.3695  0.4432
  717MOL0     H94634   9.963   8.221   6.478 -0.7742  1.4435 -0.2160
  717MOL0     H94635  10.118   8.306   6.447 -0.3186 -2.0399  0.0680
  717MOL0     H94636   9.935   8.463   6.466  1.3672  2.2973  1.2260
  717MOL0     H94637   9.895   8.416   6.630 -1.6522  1.9580 -0.4685
  717MOL0     H94638  10.171   8.491   6.596  1.7638  1.3820  3.2565
  717MOL0     H94639  10.073   8.509   6.738 -0.5571 -1.3032 -0.7016
  717MOL0     H94640  10.047   8.658   6.468  1.0953  2.6995  0.5517
  717MOL0     H94641   9.926   8.674   6.598  0.4016  0.2768 -0.2034
  717MOL0     H94642  10.203   8.945   6.718 -1.2734 -0.3950  0.1171
  717MOL0     H94643  10.197   8.138   6.832  0.3839  0.6311 -0.4619
  717MOL0     H94644  10.081   8.041   7.036 -0.1708  0.4108 -0.4322
  718MOL0     O94645  10.143   8.284   9.920  0.7279  0.1015 -0.2863
  718MOL0     C94646  10.131   8.407   9.905 -0.1311  0.1761  0.2874
  718MOL0     O94647  10.148   8.508  10.002  0.3683 -0.9992 -0.7032
  718MOL0     C94648  10.166   8.459  10.137  0.1215  0.1249 -0.6944
  718MOL0     C94649  10.290   8.489  10.202  0.1679  0.7651  0.9737
  718MOL0     C94650  10.292   8.487  10.343  0.5335  0.4668  0.3647
  718MOL0     C94651  10.174   8.464  10.408 -0.5479  0.2911 -0.3508
  718MOL0     O94652  10.180   8.468  10.547  0.0391  0.0119  0.8334
  718MOL0     C94653  10.108   8.369  10.625 -0.7373 -0.2171  0.1833
  718MOL0     C94654  10.205   8.256  10.652  0.1760 -0.4009 -0.4694
  718MOL0     C94655  10.136   8.125  10.701 -0.3634 -0.1487  0.3467
  718MOL0     C94656  10.234   8.027  10.779 -0.0807 -1.0177  0.8245
  718MOL0     C94657  10.166   7.912  10.843 -0.7462 -0.1696 -0.1310
  718MOL0     C94658  10.257   7.842  10.954 -0.5152 -0.3814 -0.2344
  718MOL0     C94659  10.194   7.716  11.024  0.0417  0.4325  0.1425
  718MOL0     C94660  10.223   7.578  10.946  0.6710  0.5323  0.7588
  718MOL0     N94661  10.359   7.533  10.977 -0.5953  0.3411 -0.2128
  718MOL0     C94662  10.463   7.563  10.895  0.0646  0.6450 -0.4276
  718MOL0     C94663  10.566   7.566  10.981  0.0817 -0.6966  0.6432
  718MOL0     C94664  10.708   7.591  10.923  0.4308 -0.5558  0.3135
  718MOL0     C94665  10.777   7.730  10.959  0.7012  0.2319  0.4071
  718MOL0     C94666  10.688   7.840  10.922  0.7538  0.4063  0.5759
  718MOL0     C94667  10.750   7.973  10.883  0.5317  0.6835 -0.6951
  718MOL0     O94668  10.652   8.076  10.886  0.0877  0.3037  0.3664
  718MOL0     C94669  10.687   8.214  10.880  1.1347  0.1259  0.5242
  718MOL0     C94670  10.819   8.254  10.899 -0.8551 -0.1787  0.8005
  718MOL0     C94671  10.862   8.388  10.909  0.1555  0.8994  0.0829
  718MOL0     C94672  10.761   8.487  10.907 -0.5144 -0.1934 -0.0733
  718MOL0     C94673  10.799   8.627  10.908  0.1702  0.4795  0.7289
  718MOL0     O94674  10.713   8.714  10.851 -0.3397  0.4295 -0.2817
  718MOL0     C94675  10.736   8.844  10.884  0.7454 -0.1284  0.0046
  718MOL0     C94676  10.817   8.921  10.809 -0.6660 -0.1402  0.4128
  718MOL0     C94677  10.835   9.058  10.838  0.3478  0.6040  0.6372
  718MOL0     C94678  10.785   9.112  10.952 -0.3070 -0.0577  0.3874
  718MOL0     O94679  10.822   9.243  10.975 -0.1588  0.4464 -0.3902
  718MOL0     C94680  10.796   9.299  11.104 -0.5179 -0.0660  0.1120
  718MOL0     C94681  10.923   9.378  11.131  0.4166  0.0946 -0.6868
  718MOL0     C94682  10.915   9.455  11.264 -0.2237 -0.2712 -0.2872
  718MOL0     C94683  10.833   9.582  11.264 -0.3814 -0.8046  0.4085
  718MOL0     C94684  10.838   9.649  11.408 -0.6685 -0.0117  0.2616
  718MOL0     C94685  10.957   9.751  11.415 -0.3129 -0.7880  0.6913
  718MOL0     C94686  11.012   9.779  11.556  0.1733 -0.6404  0.3386
  718MOL0     C94687  11.087   9.661  11.622  0.8003  0.0008  0.4556
  718MOL0    Cl94688  11.254   9.650  11.564 -0.5255  0.4549  0.0838
  718MOL0     C94689  10.698   9.031  11.033  0.2251 -0.6148  0.3142
  718MOL0     C94690  10.684   8.901  10.995  0.9743 -0.3068  0.5652
  718MOL0     O94691  10.908   8.649  10.955  0.0696  0.1267 -0.6502
  718MOL0     C94692  10.624   8.448  10.895 -0.1438  0.5059 -0.8683
  718MOL0     C94693  10.589   8.313  10.882 -0.5690  0.7410  0.1471
  718MOL0     N94694  10.532   7.534  11.111  0.0405  0.5682  0.4957
  718MOL0     N94695  10.408   7.510  11.109  0.5452  0.0423  0.3351
  718MOL0     C94696  10.059   8.424  10.343 -0.3165 -0.0651 -0.7766
  718MOL0     C94697  10.054   8.421  10.210  0.5718 -0.6433 -0.3733
  718MOL0     C94698  10.103   8.466   9.768  0.0058  0.9362 -0.2491
  718MOL0     C94699  10.072   8.603   9.750  0.6878 -0.0450  0.4491
  718MOL0     C94700  10.043   8.656   9.629  0.3187 -0.4302 -0.4324
  718MOL0     C94701  10.049   8.570   9.518 -0.6707  0.0403  0.1452
  718MOL0     O94702  10.039   8.627   9.399  0.3964  0.1194  0.3684
  718MOL0     C94703   9.928   8.568   9.332 -0.1981  0.2639 -0.0230
  718MOL0     C94704   9.869   8.659   9.212 -0.3862  0.1513 -0.0701
  718MOL0     C94705   9.864   8.812   9.249  0.2395 -0.6061  1.2886
  718MOL0     C94706   9.764   8.844   9.345 -1.3292  0.1959 -0.1752
  718MOL0     C94707   9.791   8.963   9.414  0.4705  0.0879 -0.1059
  718MOL0     C94708   9.812   9.062   9.484 -0.2365  0.3514  0.1038
  718MOL0     C94709  10.088   8.440   9.534  0.1355 -0.4634  1.0607
  718MOL0     C94710  10.111   8.383   9.654  0.0364 -0.6247 -0.1676
  718MOL0     H94711  10.364   8.526  10.131 -0.4352  0.4203  0.1435
  718MOL0     H94712  10.383   8.510  10.397  2.2373 -1.5632 -1.4677
  718MOL0     H94713  10.024   8.327  10.569  1.0975 -1.4182 -1.7928
  718MOL0     H94714  10.081   8.429  10.713 -1.1169 -0.8444  0.5039
  718MOL0     H94715  10.279   8.290  10.725  1.8156 -0.7007 -1.8998
  718MOL0     H94716  10.268   8.225  10.568  1.5596 -4.1765  1.7159
  718MOL0     H94717  10.085   8.069  10.623 -2.7699  0.3311  1.5081
  718MOL0     H94718  10.056   8.153  10.769 -1.1784 -3.0673  0.7274
  718MOL0     H94719  10.321   8.016  10.714 -1.3900 -0.1634 -1.1783
  718MOL0     H94720  10.273   8.086  10.863  1.4520  0.3112 -0.7349
  718MOL0     H94721  10.141   7.839  10.765 -2.3805 -0.5460  0.6983
  718MOL0     H94722  10.075   7.960  10.881  0.7779  3.8637 -1.0354
  718MOL0     H94723  10.297   7.911  11.030 -1.8345  0.3265 -0.1614
  718MOL0     H94724  10.346   7.799  10.907  1.5005  0.0233  2.9069
  718MOL0     H94725  10.248   7.710  11.119  0.0699  1.4379  0.1920
  718MOL0     H94726  10.086   7.722  11.037 -0.0073 -1.2375  0.8414
  718MOL0     H94727  10.197   7.596  10.842 -2.0814  0.2344  1.3177
  718MOL0     H94728  10.147   7.507  10.981 -1.7577  2.1363 -0.8919
  718MOL0     H94729  10.465   7.592  10.791  1.4132 -0.4896 -0.7444
  718MOL0     H94730  10.715   7.577  10.815  0.5359  0.8159  0.1235
  718MOL0     H94731  10.758   7.509  10.975  1.9122 -0.9071 -1.5636
  718MOL0     H94732  10.869   7.730  10.901  1.2753 -0.9658  1.2632
  718MOL0     H94733  10.796   7.727  11.067 -2.5614 -0.7796  1.0879
  718MOL0     H94734  10.619   7.812  10.842 -0.3949 -1.3197  2.0711
  718MOL0     H94735  10.620   7.862  11.005 -2.5129  1.6766 -2.1865
  718MOL0     H94736  10.806   7.959  10.790 -1.0095  1.0127 -1.6917
  718MOL0     H94737  10.821   7.996  10.964 -2.6452  3.5488  1.5720
  718MOL0     H94738  10.891   8.174  10.889 -0.6011  0.1089  0.2821
  718MOL0     H94739  10.967   8.412  10.918  0.1358  0.6550  1.0656
  718MOL0     H94740  10.849   8.886  10.711 -1.2028 -0.4634  0.3454
  718MOL0     H94741  10.894   9.118  10.768 -0.9032  0.3780 -0.6616
  718MOL0     H94742  10.790   9.218  11.177 -1.2725  0.0052  0.1443
  718MOL0     H94743  10.700   9.352  11.093 -3.4118 -4.7150  0.0513
  718MOL0     H94744  10.953   9.445  11.050 -0.0383  2.4506  0.9699
  718MOL0     H94745  11.011   9.314  11.141  0.8849  0.9283  1.0507
  718MOL0     H94746  11.015   9.495  11.287 -1.8101  2.0291  3.5803
  718MOL0     H94747  10.874   9.381  11.333 -0.6339  0.6470  0.4717
  718MOL0     H94748  10.872   9.652  11.189 -0.7436 -3.0167 -1.9651
  718MOL0     H94749  10.733   9.570  11.223  0.2563  2.3345 -2.5328
  718MOL0     H94750  10.847   9.569  11.482 -0.1296  0.0141  0.2244
  718MOL0     H94751  10.741   9.697  11.426  0.9754  3.6775  0.1733
  718MOL0     H94752  10.921   9.844  11.369 -1.2450 -0.5377  1.8830
  718MOL0     H94753  11.034   9.702  11.354  1.0797  1.7983  0.2249
  718MOL0     H94754  11.082   9.863  11.553 -0.7458  0.4978  4.1706
  718MOL0     H94755  10.934   9.817  11.623  3.2219  4.0233  1.7505
  718MOL0     H94756  11.035   9.569  11.593 -0.7874  1.3621 -1.2539
  718MOL0     H94757  11.095   9.660  11.731  2.1785 -4.1303  0.4973
  718MOL0     H94758  10.642   9.071  11.117 -1.5141 -2.1703 -0.0457
  718MOL0     H94759  10.616   8.837  11.051  2.0978 -0.3436  1.9484
  718MOL0     H94760  10.541   8.517  10.887  0.3043  1.1269 -0.2793
  718MOL0     H94761  10.483   8.294  10.893 -0.3890  0.5014  1.8558
  718MOL0     H94762   9.964   8.405  10.393 -1.5562 -1.6856 -3.4901
  718MOL0     H94763   9.957   8.401  10.165  1.6179  0.5174 -3.4212
  718MOL0     H94764  10.072   8.672   9.834 -0.9399 -2.8903  2.9911
  718MOL0     H94765  10.033   8.761   9.606 -1.5787 -1.3752 -4.9501
  718MOL0     H94766   9.851   8.543   9.406  0.1825  0.6495  0.5060
  718MOL0     H94767   9.950   8.480   9.271 -3.5542  1.0196 -2.6367
  718MOL0     H94768   9.920   8.637   9.118  0.8413 -2.9660  1.1789
  718MOL0     H94769   9.767   8.622   9.194  0.8537 -3.1418 -1.1209
  718MOL0     H94770   9.841   8.870   9.159  0.4213 -1.6245  0.5617
  718MOL0     H94771   9.961   8.844   9.287 -1.0121 -0.0388  4.2748
  718MOL0     H94772   9.661   8.823   9.313 -0.9876 -2.2670  0.1528
  718MOL0     H94773   9.779   8.760   9.414  2.2377 -1.6535 -2.8742
  718MOL0     H94774   9.839   9.148   9.543  0.1506 -0.4934  1.1834
  718MOL0     H94775  10.098   8.383   9.442 -1.0520 -3.4352  2.6499
  718MOL0     H94776  10.121   8.276   9.664  1.1056 -0.3832  2.1544
  719MOL0     O94777   6.471   5.658   8.973  0.4442  0.6293 -0.5621
  719MOL0     C94778   6.526   5.691   8.874 -0.3344 -0.6695 -1.0386
  719MOL0     O94779   6.626   5.621   8.811 -0.2266  0.3177 -0.5451
  719MOL0     C94780   6.644   5.485   8.848  0.9296 -0.3854 -0.3854
  719MOL0     C94781   6.676   5.434   8.971 -0.4013 -0.3063 -0.9375
  719MOL0     C94782   6.700   5.299   8.990  0.9588 -0.7032 -0.1690
  719MOL0     C94783   6.702   5.208   8.886  0.2006  0.8812  0.4340
  719MOL0     O94784   6.717   5.073   8.895 -0.4349 -0.0406 -0.3749
  719MOL0     C94785   6.735   5.024   9.030 -0.4350 -0.4484  0.1334
  719MOL0     C94786   6.771   4.876   9.023  0.3108 -0.1140  0.3019
  719MOL0     C94787   6.836   4.807   9.154  0.3518 -0.4633 -0.1302
  719MOL0     C94788   6.740   4.814   9.271  0.5145 -0.3827 -1.0886
  719MOL0     C94789   6.798   4.703   9.374 -0.0776  0.4964 -0.0112
  719MOL0     C94790   6.732   4.736   9.510 -0.6519 -0.2433 -0.6358
  719MOL0     C94791   6.580   4.753   9.505  0.2338 -0.9769 -0.1927
  719MOL0     C94792   6.502   4.686   9.618  0.2710  0.0869  0.6566
  719MOL0     N94793   6.408   4.784   9.674  0.4067  0.5406 -0.3370
  719MOL0     C94794   6.287   4.809   9.618 -1.0818  0.3394 -0.2330
  719MOL0     C94795   6.206   4.873   9.707 -0.8886 -0.5494  0.2192
  719MOL0     C94796   6.069   4.910   9.673  0.3628 -0.5854  0.5761
  719MOL0     C94797   6.066   5.060   9.631  0.2826 -0.1565 -0.8010
  719MOL0     C94798   6.140   5.102   9.505 -0.2131 -0.0347 -0.0501
  719MOL0     C94799   6.094   5.235   9.458  0.8438  0.0964  0.6979
  719MOL0     O94800   5.959   5.215   9.398  0.1004  0.8616 -0.3121
  719MOL0     C94801   5.872   5.322   9.366 -0.2168 -0.1565 -0.0881
  719MOL0     C94802   5.738   5.298   9.342  0.1155  0.1377  0.1544
  719MOL0     C94803   5.635   5.394   9.320  0.2359 -0.4683  0.0281
  719MOL0     C94804   5.669   5.524   9.303 -0.8304 -0.3388  0.2265
  719MOL0     C94805   5.570   5.629   9.274  0.1535 -0.4794 -0.4713
  719MOL0     O94806   5.444   5.589   9.247  0.0510 -0.0712 -0.3549
  719MOL0     C94807   5.348   5.688   9.238  0.5313  0.1058  0.1372
  719MOL0     C94808   5.266   5.687   9.125 -0.0905  0.0748  0.6040
  719MOL0     C94809   5.154   5.767   9.116 -0.6214  0.0440 -0.3830
  719MOL0     C94810   5.117   5.866   9.214 -0.0276  0.4289  0.0350
  719MOL0     O94811   5.017   5.962   9.201 -0.0694 -0.1297  0.1390
  719MOL0     C94812   4.881   5.926   9.208 -0.2145  0.8476  0.4197
  719MOL0     C94813   4.809   5.986   9.090 -0.0228 -0.1996 -0.1339
  719MOL0     C94814   4.844   5.891   8.971 -0.0349  0.0048  0.6129
  719MOL0     C94815   4.790   5.942   8.833  0.1370 -0.2356  0.0353
  719MOL0     C94816   4.640   5.950   8.818  0.3213  0.1464  0.3748
  719MOL0     C94817   4.606   6.026   8.682  0.4296 -0.4450  0.3289
  719MOL0     C94818   4.458   6.068   8.678 -0.0857 -0.2216 -0.4087
  719MOL0     C94819   4.409   6.172   8.572  0.5846 -0.4159 -0.1648
  719MOL0    Cl94820   4.444   6.104   8.414  0.2117 -0.6209  0.1684
  719MOL0     C94821   5.207   5.881   9.321 -0.3588  0.3685  0.7545
  719MOL0     C94822   5.326   5.800   9.328  1.4466  0.0647 -0.6806
  719MOL0     O94823   5.606   5.741   9.282  0.5197 -0.9235 -0.2821
  719MOL0     C94824   5.807   5.552   9.341 -0.0121 -0.5821  0.5421
  719MOL0     C94825   5.907   5.457   9.369  0.0795  0.1575  0.3755
  719MOL0     N94826   6.281   4.892   9.822 -0.3084  1.3698  0.0736
  719MOL0     N94827   6.398   4.843   9.796 -0.9451  0.4783  1.2568
  719MOL0     C94828   6.671   5.259   8.764 -0.1035  0.8817  0.1689
  719MOL0     C94829   6.640   5.394   8.748  0.5465 -0.2434  0.4003
  719MOL0     C94830   6.470   5.812   8.810  0.4266  0.3130  0.8105
  719MOL0     C94831   6.347   5.874   8.852 -0.5718  0.0940 -0.2090
  719MOL0     C94832   6.305   5.991   8.785 -0.2306  0.3559 -0.8241
  719MOL0     C94833   6.365   6.026   8.661 -0.5189 -0.6008 -1.1532
  719MOL0     O94834   6.312   6.125   8.590  0.1596  0.2982  0.5251
  719MOL0     C94835   6.323   6.107   8.447  0.1940  0.8145  1.0004
  719MOL0     C94836   6.263   6.227   8.379  0.4523 -0.5418 -0.4540
  719MOL0     C94837   6.129   6.208   8.309 -0.4207 -0.6712  0.3112
  719MOL0     C94838   6.157   6.124   8.185 -0.8657  0.7853  0.4782
  719MOL0     C94839   6.122   6.207   8.073  0.0151 -0.0219  0.4492
  719MOL0     C94840   6.100   6.291   7.984  0.0728 -0.1363  0.7394
  719MOL0     C94841   6.489   5.970   8.634  0.4531  0.1396 -0.5743
  719MOL0     C94842   6.540   5.861   8.697  0.5733 -1.2262 -0.8003
  719MOL0     H94843   6.694   5.508   9.048 -0.1531 -1.3234  0.0180
  719MOL0     H94844   6.736   5.267   9.087  3.1159 -1.1346 -1.0702
  719MOL0     H94845   6.645   5.041   9.089 -0.6670 -0.2897 -0.2571
  719MOL0     H94846   6.817   5.074   9.083 -0.7394 -1.5680  1.7165
  719MOL0     H94847   6.843   4.853   8.944  0.2032 -0.8900  0.4161
  719MOL0     H94848   6.681   4.820   8.998  0.1238  0.3450 -0.0651
  719MOL0     H94849   6.922   4.870   9.179  0.3349  0.0117 -1.2035
  719MOL0     H94850   6.859   4.704   9.126 -1.3312 -1.3054  1.3449
  719MOL0     H94851   6.723   4.908   9.323  0.6697 -1.0080  0.1393
  719MOL0     H94852   6.643   4.776   9.238 -0.0636 -1.9945  2.0966
  719MOL0     H94853   6.907   4.699   9.366 -0.2345  0.1768 -3.1968
  719MOL0     H94854   6.756   4.606   9.347 -0.7845 -0.3089  3.4637
  719MOL0     H94855   6.781   4.816   9.566 -3.2633  0.9395  0.0987
  719MOL0     H94856   6.745   4.645   9.569  0.2537 -0.2668 -0.8594
  719MOL0     H94857   6.570   4.861   9.521  1.0234 -0.9288  0.0465
  719MOL0     H94858   6.542   4.713   9.411 -0.9060  1.3682 -0.8073
  719MOL0     H94859   6.564   4.652   9.701  1.4896  1.0380  0.1623
  719MOL0     H94860   6.474   4.590   9.574  1.5636  1.1671 -2.8373
  719MOL0     H94861   6.258   4.772   9.520 -1.0914  0.0186 -0.1111
  719MOL0     H94862   6.006   4.896   9.762  0.2519 -4.0636  0.0681
  719MOL0     H94863   6.043   4.839   9.595 -0.2173 -0.1309  0.3464
  719MOL0     H94864   6.105   5.103   9.724 -1.3538 -0.8831  0.2463
  719MOL0     H94865   5.961   5.088   9.621  0.2694  0.8618  1.5758
  719MOL0     H94866   6.250   5.098   9.509 -0.2699 -0.6457  1.5346
  719MOL0     H94867   6.114   5.035   9.423  1.3264  0.7423 -1.2322
  719MOL0     H94868   6.159   5.274   9.379 -1.1292 -1.7717 -2.0445
  719MOL0     H94869   6.092   5.305   9.543 -2.2097  2.0376 -0.8142
  719MOL0     H94870   5.713   5.193   9.335 -3.5786  0.8322  0.7187
  719MOL0     H94871   5.536   5.363   9.290  0.7150 -0.5346 -1.5774
  719MOL0     H94872   5.274   5.607   9.051  2.1730 -1.2878  2.1875
  719MOL0     H94873   5.090   5.748   9.029  0.0233 -3.4890 -0.2087
  719MOL0     H94874   4.840   5.935   9.309  1.2112  2.1388  0.9314
  719MOL0     H94875   4.868   5.819   9.194 -2.6743  1.1957 -0.3783
  719MOL0     H94876   4.836   6.093   9.087  2.1362 -0.6208  1.6534
  719MOL0     H94877   4.702   5.996   9.109 -0.3040  0.8249 -1.9897
  719MOL0     H94878   4.801   5.791   8.979 -0.5547  0.3213  1.9111
  719MOL0     H94879   4.953   5.888   8.956 -0.2651 -1.9576 -1.2849
  719MOL0     H94880   4.838   6.039   8.815 -1.0165  0.1155 -1.3766
  719MOL0     H94881   4.832   5.890   8.746 -3.9427  2.1238 -3.7277
  719MOL0     H94882   4.597   6.006   8.902  1.6206  0.3540  0.9313
  719MOL0     H94883   4.596   5.850   8.810 -0.4874  0.5632 -0.5296
  719MOL0     H94884   4.641   5.966   8.597  0.7203  0.3551 -0.1313
  719MOL0     H94885   4.649   6.127   8.677 -3.6228  1.5749  1.9195
  719MOL0     H94886   4.395   5.979   8.680  1.9463 -1.8889 -3.2406
  719MOL0     H94887   4.446   6.119   8.774 -0.8231  0.1467 -0.6845
  719MOL0     H94888   4.444   6.275   8.578 -0.3661 -0.1008  0.1601
  719MOL0     H94889   4.301   6.176   8.590  0.2419 -4.4247 -0.3682
  719MOL0     H94890   5.200   5.959   9.396 -1.2288  0.9943  0.0409
  719MOL0     H94891   5.396   5.817   9.408  2.4830  1.4305 -1.8208
  719MOL0     H94892   5.837   5.656   9.331 -1.2497 -0.0078  2.2482
  719MOL0     H94893   6.009   5.488   9.386  1.3318 -1.2405 -3.5464
  719MOL0     H94894   6.680   5.179   8.690  0.8905  1.2380 -0.1077
  719MOL0     H94895   6.616   5.426   8.647 -3.6035 -0.8950  1.0273
  719MOL0     H94896   6.301   5.831   8.941 -0.0345  1.7988  0.9501
  719MOL0     H94897   6.226   6.058   8.815 -0.7746 -0.5854 -0.0746
  719MOL0     H94898   6.273   6.016   8.414  0.0255 -0.2278  3.8636
  719MOL0     H94899   6.422   6.099   8.402 -1.2211 -1.5188 -2.0570
  719MOL0     H94900   6.244   6.295   8.463 -3.5859 -2.3241  0.3286
  719MOL0     H94901   6.325   6.274   8.302 -0.0013  0.7336 -0.0654
  719MOL0     H94902   6.082   6.302   8.280  0.9979 -0.3726 -1.2066
  719MOL0     H94903   6.060   6.150   8.372 -0.6510 -2.3099 -1.3553
  719MOL0     H94904   6.259   6.091   8.164 -1.9062 -1.3666 -1.7104
  719MOL0     H94905   6.100   6.031   8.180 -1.3661  1.1488 -1.5144
  719MOL0     H94906   6.089   6.353   7.897  5.1570 -0.5688 -0.5801
  719MOL0     H94907   6.545   5.998   8.546 -2.4756  1.8454 -2.0464
  719MOL0     H94908   6.634   5.818   8.662  1.4789 -1.1305  1.3680
  720MOL0     O94909   9.386   0.120   3.232 -0.6622  0.2579 -0.1379
  720MOL0     C94910   9.367   0.035   3.313  0.0032 -0.3256  0.2625
  720MOL0     O94911   9.375  -0.096   3.286  0.4799  0.3010  1.0364
  720MOL0     C94912   9.469  -0.135   3.194  1.1830  0.7660 -0.1531
  720MOL0     C94913   9.583  -0.068   3.159 -0.5239  0.5467 -0.0096
  720MOL0     C94914   9.670  -0.111   3.055 -1.4095 -0.1494 -1.1783
  720MOL0     C94915   9.636  -0.222   2.983  0.3154 -0.5258  0.1520
  720MOL0     O94916   9.716  -0.280   2.882 -0.0923  0.4829 -0.0707
  720MOL0     C94917   9.798  -0.190   2.804 -1.1185 -1.2008  0.0946
  720MOL0     C94918   9.912  -0.260   2.732 -1.2300  0.0190 -0.0837
  720MOL0     C94919   9.852  -0.367   2.641 -0.3480  0.7644  1.1768
  720MOL0     C94920   9.965  -0.410   2.547 -0.4492 -0.3484  0.5396
  720MOL0     C94921   9.926  -0.541   2.466 -0.4741  0.9249 -0.2650
  720MOL0     C94922  10.046  -0.631   2.449 -0.5360  0.0812  0.3497
  720MOL0     C94923  10.160  -0.579   2.353 -1.1244  0.0828  0.1244
  720MOL0     C94924  10.303  -0.624   2.405 -0.5038 -0.3803  1.4860
  720MOL0     N94925  10.328  -0.766   2.378  0.3380 -0.4228  0.3353
  720MOL0     C94926  10.298  -0.862   2.460 -0.2077 -0.0024  0.7300
  720MOL0     C94927  10.335  -0.973   2.393 -0.3673 -0.4588 -0.5709
  720MOL0     C94928  10.307  -1.114   2.449  0.3594 -0.0019 -0.4971
  720MOL0     C94929  10.249  -1.208   2.344 -0.8954  0.3490  0.5851
  720MOL0     C94930  10.101  -1.174   2.308  0.2380 -0.4053 -0.3599
  720MOL0     C94931  10.058  -1.283   2.214 -0.5568  0.4697  0.1266
  720MOL0     O94932  10.062  -1.408   2.268 -0.2677  0.1615  0.0826
  720MOL0     C94933  10.083  -1.510   2.188  0.5667  0.2937 -0.7164
  720MOL0     C94934  10.196  -1.591   2.211  0.5259 -0.0299 -0.5728
  720MOL0     C94935  10.217  -1.699   2.122  0.0598  0.0072 -0.2624
  720MOL0     C94936  10.130  -1.734   2.017 -0.3546  0.6468  0.2915
  720MOL0     C94937  10.152  -1.863   1.936 -0.0404 -0.6865  0.4287
  720MOL0     O94938  10.043  -1.936   1.902 -0.5753  0.0168  0.0913
  720MOL0     C94939  10.048  -2.059   1.826  0.2782  0.7140  0.0536
  720MOL0     C94940  10.153  -2.136   1.782  0.2031 -0.0194  0.2382
  720MOL0     C94941  10.123  -2.247   1.701  0.0594 -0.2552  0.4574
  720MOL0     C94942  10.001  -2.277   1.651  0.0927  0.3150  0.6624
  720MOL0     O94943   9.976  -2.386   1.573  0.7311 -0.4083 -0.7189
  720MOL0     C94944   9.948  -2.506   1.660 -0.5739  0.0300  0.2211
  720MOL0     C94945   9.972  -2.635   1.591  0.3958 -1.0990  0.4597
  720MOL0     C94946   9.957  -2.750   1.683 -0.9544  0.4667 -0.1913
  720MOL0     C94947   9.801  -2.793   1.682 -0.1375  0.3980 -0.4944
  720MOL0     C94948   9.796  -2.930   1.765  0.3411 -0.2419  0.9303
  720MOL0     C94949   9.776  -3.044   1.666 -0.1595 -0.4200 -0.1666
  720MOL0     C94950   9.775  -3.186   1.729 -0.8053 -0.0346 -0.3848
  720MOL0     C94951   9.785  -3.295   1.628  0.4479  0.6005  0.5966
  720MOL0    Cl94952   9.633  -3.314   1.511  0.2390 -0.0547 -0.7034
  720MOL0     C94953   9.900  -2.194   1.691 -0.3408 -0.4824  0.2579
  720MOL0     C94954   9.923  -2.090   1.772 -0.0091 -0.0307 -0.2413
  720MOL0     O94955  10.266  -1.892   1.916 -0.3482  0.5886  0.2402
  720MOL0     C94956  10.027  -1.642   1.986  0.6542  0.0486 -0.4909
  720MOL0     C94957   9.999  -1.534   2.076 -0.6395 -0.3770  0.3818
  720MOL0     N94958  10.409  -0.935   2.276  0.5863 -0.2633 -0.1182
  720MOL0     N94959  10.399  -0.805   2.270  1.3030 -0.4051  1.0763
  720MOL0     C94960   9.530  -0.303   3.029  0.0191  0.0352 -0.2123
  720MOL0     C94961   9.451  -0.266   3.136  0.5654 -0.5266 -0.0261
  720MOL0     C94962   9.298   0.065   3.441 -0.4737 -0.5221  1.5511
  720MOL0     C94963   9.283   0.196   3.483  0.0218  0.2226 -0.1874
  720MOL0     C94964   9.217   0.226   3.600  0.0231  0.0640 -0.3043
  720MOL0     C94965   9.142   0.142   3.674  0.0518 -0.0325 -0.7426
  720MOL0     O94966   9.076   0.200   3.788 -0.0629  0.4870  1.0629
  720MOL0     C94967   9.033   0.101   3.894  0.1366 -0.9257 -0.2458
  720MOL0     C94968   8.905   0.032   3.869  0.3232  0.6973 -0.3894
  720MOL0     C94969   8.786   0.112   3.824 -1.5325 -0.3089 -0.5146
  720MOL0     C94970   8.711   0.198   3.933 -0.5134 -0.5654  0.0684
  720MOL0     C94971   8.796   0.306   3.981 -0.7353 -0.5453  0.2551
  720MOL0     C94972   8.859   0.400   4.013  0.2596 -0.4269 -0.0848
  720MOL0     C94973   9.151   0.006   3.633  0.3248 -0.0595 -0.7714
  720MOL0     C94974   9.225  -0.029   3.517 -0.3514  1.1054 -0.8992
  720MOL0     H94975   9.600   0.035   3.187 -0.4463  1.0692 -1.8466
  720MOL0     H94976   9.754  -0.044   3.039 -3.0682  2.3465 -0.0254
  720MOL0     H94977   9.842  -0.111   2.865 -0.2693  0.0188 -1.9949
  720MOL0     H94978   9.743  -0.136   2.727 -0.3826 -0.8746 -0.2104
  720MOL0     H94979   9.986  -0.290   2.806 -0.1668  0.8776 -0.7788
  720MOL0     H94980   9.960  -0.189   2.665  3.0855 -1.5021  1.1015
  720MOL0     H94981   9.767  -0.330   2.583  2.3377  3.7607 -1.1953
  720MOL0     H94982   9.823  -0.450   2.706  1.5531 -0.7421  0.1722
  720MOL0     H94983   9.974  -0.326   2.477 -2.8293 -0.0974  0.4586
  720MOL0     H94984  10.063  -0.416   2.595 -0.2983  3.1814  0.8734
  720MOL0     H94985   9.871  -0.523   2.373 -0.6004 -1.2786 -0.6866
  720MOL0     H94986   9.856  -0.589   2.535 -0.5593 -0.3244 -1.1808
  720MOL0     H94987  10.016  -0.731   2.418 -0.0669  0.6938 -2.3405
  720MOL0     H94988  10.082  -0.630   2.552  1.6673 -0.7712 -0.3587
  720MOL0     H94989  10.149  -0.624   2.254 -1.4947 -2.2813  1.1868
  720MOL0     H94990  10.157  -0.469   2.348 -2.2882  0.0612  0.0847
  720MOL0     H94991  10.309  -0.610   2.514  0.4875 -7.4630  2.8223
  720MOL0     H94992  10.379  -0.559   2.361  0.0911 -1.2016  1.2684
  720MOL0     H94993  10.253  -0.861   2.559  3.3152 -0.4875  2.4762
  720MOL0     H94994  10.231  -1.109   2.528 -1.2235 -0.3964 -1.9362
  720MOL0     H94995  10.406  -1.141   2.486  0.5664 -0.6827 -1.5147
  720MOL0     H94996  10.264  -1.312   2.373 -1.9024 -0.3636 -1.2499
  720MOL0     H94997  10.302  -1.205   2.249 -1.7599 -2.2466 -0.0636
  720MOL0     H94998  10.029  -1.173   2.390 -0.8037 -0.1449 -1.2610
  720MOL0     H94999  10.101  -1.075   2.260 -1.1982  1.7605  3.6527
  720MOL0     H95000  10.109  -1.272   2.118  0.3063  0.2660  0.5512
  720MOL0     H95001   9.952  -1.266   2.192 -1.7875 -2.5013  2.9790
  720MOL0     H95002  10.257  -1.562   2.296 -2.2396  2.6253  0.7025
  720MOL0     H95003  10.305  -1.759   2.141 -0.0336 -0.5351 -1.4687
  720MOL0     H95004  10.254  -2.114   1.815  1.1338 -2.9724 -0.3421
  720MOL0     H95005  10.210  -2.304   1.670  2.1800  3.0828 -0.2155
  720MOL0     H95006   9.846  -2.494   1.697 -0.3147 -0.1811  1.0357
  720MOL0     H95007  10.008  -2.510   1.751 -1.3852 -1.3798  0.7171
  720MOL0     H95008  10.075  -2.627   1.553  0.6879  3.0582  1.6038
  720MOL0     H95009   9.897  -2.631   1.513  0.0362  1.1057  0.8524
  720MOL0     H95010   9.998  -2.737   1.784  2.0486  0.4627 -1.3055
  720MOL0     H95011  10.013  -2.832   1.637 -1.2560  1.7827 -3.1213
  720MOL0     H95012   9.740  -2.721   1.737  1.5076  0.1764  1.7846
  720MOL0     H95013   9.771  -2.804   1.578 -0.1747  0.6552 -0.5092
  720MOL0     H95014   9.709  -2.930   1.831  1.3322  0.5337  2.2971
  720MOL0     H95015   9.887  -2.955   1.820  1.2422  0.3926 -0.2275
  720MOL0     H95016   9.856  -3.031   1.591  0.3676  0.1670  0.4863
  720MOL0     H95017   9.672  -3.028   1.636 -1.4175 -2.5081  2.6219
  720MOL0     H95018   9.846  -3.199   1.811  0.2071  1.1192 -1.0434
  720MOL0     H95019   9.675  -3.191   1.774 -0.6493  0.9599  0.1009
  720MOL0     H95020   9.793  -3.384   1.691 -2.1006  1.0031  1.6196
  720MOL0     H95021   9.871  -3.281   1.562 -0.9265  0.9717 -1.2100
  720MOL0     H95022   9.802  -2.222   1.654 -0.5269  4.5042 -4.1783
  720MOL0     H95023   9.841  -2.023   1.800 -0.0545  0.3397 -1.2126
  720MOL0     H95024   9.968  -1.663   1.897  0.4136  1.7077 -0.7652
  720MOL0     H95025   9.909  -1.473   2.065  0.2457  1.1100  1.1218
  720MOL0     H95026   9.517  -0.401   2.984 -0.6159 -1.5602  3.1260
  720MOL0     H95027   9.372  -0.336   3.160 -0.6331 -0.5200 -3.3187
  720MOL0     H95028   9.346   0.267   3.429 -0.0472 -1.5664 -2.8415
  720MOL0     H95029   9.221   0.333   3.620 -0.0890  0.6498 -2.9931
  720MOL0     H95030   9.028   0.145   3.994  1.5177  1.0632 -1.0022
  720MOL0     H95031   9.113   0.026   3.907  3.0527  2.2288  1.6348
  720MOL0     H95032   8.921  -0.035   3.784 -0.1566 -2.1086  1.5839
  720MOL0     H95033   8.872  -0.037   3.947 -1.8505  1.9230 -0.1597
  720MOL0     H95034   8.720   0.046   3.767  0.0809 -0.4109 -2.3911
  720MOL0     H95035   8.820   0.176   3.742 -0.9383 -2.8023 -2.3245
  720MOL0     H95036   8.625   0.247   3.887  1.1771  2.9531  0.3138
  720MOL0     H95037   8.680   0.137   4.017  0.2176  1.1862  1.6928
  720MOL0     H95038   8.921   0.483   4.042  0.0297 -0.4505  0.4771
  720MOL0     H95039   9.109  -0.080   3.685  2.4024 -0.1473  0.9113
  720MOL0     H95040   9.234  -0.132   3.483 -2.3463  0.5173  0.1674
  721MOL0     O95041   7.839   3.351   8.897 -0.0001 -0.2470 -0.4841
  721MOL0     C95042   7.835   3.408   9.001 -0.1499 -0.6052 -1.1747
  721MOL0     O95043   7.744   3.398   9.098 -0.6829 -0.4481  0.2091
  721MOL0     C95044   7.629   3.319   9.072 -1.4011  1.2870  1.5072
  721MOL0     C95045   7.563   3.268   8.946 -0.7609 -0.3597 -0.1537
  721MOL0     C95046   7.447   3.195   8.940 -0.5811  0.5970 -0.2303
  721MOL0     C95047   7.375   3.168   9.052  0.3323  0.6358 -0.4235
  721MOL0     O95048   7.249   3.105   9.039 -0.4233  0.2865 -0.1983
  721MOL0     C95049   7.154   3.101   9.140  0.3638 -0.7838  0.3057
  721MOL0     C95050   7.077   3.240   9.159 -0.2302 -0.1705 -0.4272
  721MOL0     C95051   7.019   3.246   9.302  0.2989 -0.2000 -0.3190
  721MOL0     C95052   6.983   3.392   9.341  0.3933  0.4023 -1.5809
  721MOL0     C95053   6.887   3.398   9.462 -0.1452  0.7711 -1.4104
  721MOL0     C95054   6.826   3.533   9.475 -0.2984 -0.8965 -0.0773
  721MOL0     C95055   6.808   3.578   9.627 -0.6129 -0.5629  0.0515
  721MOL0     C95056   6.740   3.474   9.717  0.5419  0.0227  0.6077
  721MOL0     N95057   6.595   3.450   9.711  0.6795  0.1401  0.7310
  721MOL0     C95058   6.514   3.486   9.824 -0.3053  0.3553  0.5431
  721MOL0     C95059   6.397   3.424   9.792 -0.1685  0.0364 -0.0044
  721MOL0     C95060   6.270   3.421   9.880 -0.7642 -0.9713  0.3032
  721MOL0     C95061   6.283   3.323   9.990  0.5587  0.5779 -1.3449
  721MOL0     C95062   6.273   3.379  10.139  0.4438  0.1355 -0.2662
  721MOL0     C95063   6.146   3.454  10.174  0.4313 -0.4063  0.3712
  721MOL0     O95064   6.049   3.451  10.069 -0.7754  0.3674  0.5270
  721MOL0     C95065   5.940   3.524  10.091 -0.2176  0.4483  0.0383
  721MOL0     C95066   5.854   3.533   9.988  0.8006  0.9130 -0.7925
  721MOL0     C95067   5.729   3.591  10.001  0.2508  0.0928 -0.4595
  721MOL0     C95068   5.694   3.665  10.114  1.0067  0.1710  0.4379
  721MOL0     C95069   5.566   3.730  10.122  0.2510 -0.7902  1.3419
  721MOL0     O95070   5.481   3.700  10.021  0.9393  0.5206  0.1736
  721MOL0     C95071   5.359   3.761  10.031  0.1215  0.5538 -0.3043
  721MOL0     C95072   5.319   3.843   9.932 -0.4951 -0.0849 -0.4228
  721MOL0     C95073   5.185   3.889   9.925 -1.0478 -0.1962  0.2671
  721MOL0     C95074   5.089   3.828  10.008 -0.1730  0.0899 -0.1437
  721MOL0     O95075   4.950   3.845   9.991  0.1019  0.4454  0.3093
  721MOL0     C95076   4.885   3.967  10.035  0.5440 -1.3051  0.3889
  721MOL0     C95077   4.778   3.982   9.932 -1.0945 -0.5582  0.9420
  721MOL0     C95078   4.690   4.098   9.980  1.1082 -1.0394 -0.4686
  721MOL0     C95079   4.554   4.097   9.901 -0.7933 -0.1551 -0.6886
  721MOL0     C95080   4.511   4.241   9.859 -0.3525  0.5834  0.0430
  721MOL0     C95081   4.361   4.251   9.823  0.9367 -0.4465  0.3713
  721MOL0     C95082   4.332   4.176   9.687  0.1670 -0.2108  0.8985
  721MOL0     C95083   4.271   4.038   9.712 -0.3294 -0.3070 -1.7347
  721MOL0    Cl95084   4.271   3.968   9.554  0.0180  0.7309 -0.5191
  721MOL0     C95085   5.128   3.739  10.109 -0.5264  0.6079  0.4651
  721MOL0     C95086   5.266   3.719  10.126 -0.4568  0.9965 -0.8336
  721MOL0     O95087   5.539   3.804  10.215 -0.5725  0.6033  0.2223
  721MOL0     C95088   5.781   3.661  10.226  0.2961  0.2474 -0.2046
  721MOL0     C95089   5.904   3.592  10.215  0.3484 -0.5650 -0.7350
  721MOL0     N95090   6.401   3.359   9.664  0.0113 -0.1628  0.3946
  721MOL0     N95091   6.520   3.376   9.617  0.5483  0.5490 -0.5722
  721MOL0     C95092   7.431   3.226   9.176  0.9897  0.5318  0.3611
  721MOL0     C95093   7.557   3.289   9.181  0.4635 -0.8151 -0.0709
  721MOL0     C95094   7.947   3.500   9.037 -0.8681  0.6597  0.6527
  721MOL0     C95095   8.054   3.509   8.953  0.4263  0.8007  0.0895
  721MOL0     C95096   8.163   3.587   8.986 -0.0965 -0.7405  0.3359
  721MOL0     C95097   8.177   3.660   9.104  1.4907 -0.5027  0.8830
  721MOL0     O95098   8.287   3.744   9.124 -0.2414 -0.1476  0.4451
  721MOL0     C95099   8.283   3.870   9.186 -0.5322 -0.6273 -0.0835
  721MOL0     C95100   8.181   3.965   9.124 -0.0399  0.3633 -0.3936
  721MOL0     C95101   8.121   4.061   9.229 -0.6384  0.4298  0.6800
  721MOL0     C95102   8.129   4.206   9.189  1.0675  0.3429  0.0761
  721MOL0     C95103   8.040   4.218   9.072  0.4008 -0.8739 -0.2567
  721MOL0     C95104   7.972   4.228   8.975  0.4028  0.4831 -0.6350
  721MOL0     C95105   8.068   3.647   9.195 -1.1396 -0.3455 -0.1392
  721MOL0     C95106   7.952   3.573   9.158 -0.5681 -0.6730 -1.3218
  721MOL0     H95107   7.620   3.284   8.855  2.1543 -3.7994  0.8734
  721MOL0     H95108   7.401   3.164   8.847 -0.0485 -1.2171  0.0787
  721MOL0     H95109   7.203   3.069   9.233  1.0588 -0.5039  0.0420
  721MOL0     H95110   7.074   3.032   9.111 -0.9651  1.4410 -1.6342
  721MOL0     H95111   6.985   3.239   9.101 -0.6191  1.4206  0.1116
  721MOL0     H95112   7.146   3.319   9.130 -0.9486 -0.2618 -2.5039
  721MOL0     H95113   7.081   3.203   9.382 -1.6733  0.4538  1.6716
  721MOL0     H95114   6.932   3.181   9.315  1.0619 -0.7065  3.4563
  721MOL0     H95115   7.068   3.458   9.364 -0.6141  1.2540 -0.1198
  721MOL0     H95116   6.928   3.429   9.254 -0.5787  1.8699 -0.3980
  721MOL0     H95117   6.939   3.362   9.550 -1.0913 -0.0013 -1.1454
  721MOL0     H95118   6.807   3.327   9.438 -1.0017  0.8901  0.8484
  721MOL0     H95119   6.730   3.545   9.424 -0.6629 -0.7194  0.6392
  721MOL0     H95120   6.897   3.599   9.424  0.2596 -1.7159 -0.3839
  721MOL0     H95121   6.908   3.598   9.667  0.1068 -2.7750 -0.4834
  721MOL0     H95122   6.745   3.667   9.630 -1.0402 -0.7083 -2.2439
  721MOL0     H95123   6.753   3.490   9.824 -0.8831 -1.1375  0.9826
  721MOL0     H95124   6.782   3.375   9.698  1.6880  0.8862 -1.7189
  721MOL0     H95125   6.545   3.541   9.912  3.9413  0.1148 -0.6173
  721MOL0     H95126   6.173   3.398   9.838 -1.4108  0.4044  0.9627
  721MOL0     H95127   6.258   3.524   9.917 -0.9440 -0.7490 -0.3702
  721MOL0     H95128   6.383   3.280   9.989 -0.2631 -1.5504 -0.0190
  721MOL0     H95129   6.212   3.243   9.967 -0.7242 -0.5593  4.9222
  721MOL0     H95130   6.283   3.291  10.203 -0.9024  1.6934  2.2102
  721MOL0     H95131   6.353   3.449  10.167 -0.5001 -0.0622  3.4241
  721MOL0     H95132   6.173   3.557  10.201 -1.0851  0.7991 -2.2794
  721MOL0     H95133   6.098   3.412  10.262 -0.4429  0.9479  0.5744
  721MOL0     H95134   5.869   3.471   9.900  0.0878  1.3932 -1.2662
  721MOL0     H95135   5.663   3.575   9.917  1.6020  0.5407 -1.6500
  721MOL0     H95136   5.398   3.877   9.866  1.2043  0.2152  1.6906
  721MOL0     H95137   5.160   3.956   9.844 -1.3914 -2.0721 -1.2519
  721MOL0     H95138   4.945   4.057  10.019 -1.5149  0.2049  0.6800
  721MOL0     H95139   4.852   3.943  10.137  1.4178 -0.9337  0.7641
  721MOL0     H95140   4.711   3.896   9.931 -1.9407  0.0923  1.2124
  721MOL0     H95141   4.826   4.000   9.835  1.5126  1.3717  2.4712
  721MOL0     H95142   4.742   4.194   9.969  0.8948 -0.3936  3.0269
  721MOL0     H95143   4.652   4.099  10.083  2.7521 -2.2875  0.1944
  721MOL0     H95144   4.566   4.036   9.812 -0.5353 -2.5090  0.8850
  721MOL0     H95145   4.481   4.063   9.975 -1.7737  0.8802 -1.1412
  721MOL0     H95146   4.573   4.263   9.772  1.7671  0.4869  1.4453
  721MOL0     H95147   4.520   4.317   9.938 -3.3607  1.0673  0.0544
  721MOL0     H95148   4.339   4.355   9.797 -0.3946 -0.7089  0.3751
  721MOL0     H95149   4.280   4.222   9.890 -0.5805 -0.4171 -1.3574
  721MOL0     H95150   4.258   4.240   9.639 -1.8102 -0.9877  2.7296
  721MOL0     H95151   4.412   4.175   9.612  1.5620  2.3055  2.2300
  721MOL0     H95152   4.170   4.045   9.755  0.9528 -0.8658  1.7135
  721MOL0     H95153   4.332   3.989   9.788 -0.4503  0.6906 -0.9699
  721MOL0     H95154   5.052   3.686  10.165 -0.7883  1.1844  0.6706
  721MOL0     H95155   5.308   3.647  10.196 -1.4882 -0.6287 -1.8388
  721MOL0     H95156   5.767   3.709  10.322 -0.5652 -1.4519  0.5616
  721MOL0     H95157   5.960   3.576  10.307 -0.3164 -1.2271 -0.4367
  721MOL0     H95158   7.373   3.224   9.268  0.4133  0.3456 -0.0064
  721MOL0     H95159   7.599   3.329   9.273  1.7447 -0.6459 -0.7082
  721MOL0     H95160   8.060   3.449   8.863 -0.6718  0.7197  0.0571
  721MOL0     H95161   8.242   3.602   8.913 -0.4418  3.8706  0.6452
  721MOL0     H95162   8.386   3.901   9.168  0.7318 -3.7034  1.1079
  721MOL0     H95163   8.272   3.863   9.295 -4.3801  0.7986 -0.2343
  721MOL0     H95164   8.213   4.021   9.036  0.6620  1.0589  0.2865
  721MOL0     H95165   8.097   3.905   9.089 -0.5200  0.3195  0.7752
  721MOL0     H95166   8.176   4.048   9.322  1.9241  0.4007 -0.7546
  721MOL0     H95167   8.020   4.022   9.245 -0.3506  0.6490  3.4317
  721MOL0     H95168   8.082   4.266   9.268  0.3470  0.9898 -0.8205
  721MOL0     H95169   8.227   4.248   9.165  0.0481  2.7387 -0.2036
  721MOL0     H95170   7.913   4.230   8.885 -2.4514  0.6630  1.1281
  721MOL0     H95171   8.087   3.687   9.295  2.0388 -0.7903 -0.4486
  721MOL0     H95172   7.872   3.553   9.228 -0.1548  0.3821 -0.5165
  722MOL0     O95173   9.323  11.213   3.941  0.4567 -0.5357  0.0614
  722MOL0     C95174   9.393  11.268   3.853  0.6420  0.6001  0.5393
  722MOL0     O95175   9.412  11.401   3.838 -0.3444  0.0399  0.2822
  722MOL0     C95176   9.389  11.487   3.936  0.2122 -0.3342 -0.0040
  722MOL0     C95177   9.398  11.458   4.072 -0.7400 -0.1280 -1.0930
  722MOL0     C95178   9.349  11.546   4.172  0.7700 -0.3110 -0.5668
  722MOL0     C95179   9.324  11.671   4.142 -0.1487 -0.5102 -0.9538
  722MOL0     O95180   9.286  11.751   4.249 -0.1765 -0.2270  0.2175
  722MOL0     C95181   9.158  11.809   4.229  0.2042 -0.4006 -0.1340
  722MOL0     C95182   9.090  11.853   4.365  0.4323  0.5801 -1.6770
  722MOL0     C95183   9.100  11.729   4.461 -0.1237  0.2989  0.5775
  722MOL0     C95184   8.993  11.746   4.575 -1.3948  0.1852 -0.5840
  722MOL0     C95185   9.063  11.789   4.712  0.2804  0.3281 -0.2735
  722MOL0     C95186   8.966  11.777   4.822  0.0110 -0.1066  0.3886
  722MOL0     C95187   9.024  11.821   4.956  0.1534  0.1951  0.4960
  722MOL0     C95188   9.139  11.912   4.958  0.7023 -0.0377 -0.3956
  722MOL0     N95189   9.175  11.922   5.101 -0.2963 -0.0781 -0.2824
  722MOL0     C95190   9.107  12.007   5.181 -0.1767 -0.0876  0.0460
  722MOL0     C95191   9.192  12.019   5.286  0.2060  0.4960 -0.2549
  722MOL0     C95192   9.173  12.120   5.395  0.6885  0.5940 -0.1207
  722MOL0     C95193   9.074  12.063   5.509  0.0203  0.2983 -0.2756
  722MOL0     C95194   9.116  11.922   5.572 -0.7576 -1.4573 -0.0542
  722MOL0     C95195   9.239  11.935   5.659 -1.5472 -0.0782  0.2632
  722MOL0     O95196   9.290  11.806   5.642  0.8953  0.1284 -0.0847
  722MOL0     C95197   9.413  11.783   5.692  1.0959  0.3954  0.6981
  722MOL0     C95198   9.452  11.653   5.707 -0.1439 -0.1405  0.4048
  722MOL0     C95199   9.576  11.619   5.770  1.3811 -0.7261  0.5130
  722MOL0     C95200   9.669  11.720   5.794 -0.5096 -0.0499  0.3149
  722MOL0     C95201   9.798  11.692   5.838  0.5569 -0.1239  0.0887
  722MOL0     O95202   9.836  11.561   5.809 -0.4836 -0.2510 -0.2612
  722MOL0     C95203   9.970  11.535   5.836 -0.2705 -0.2985 -0.7728
  722MOL0     C95204  10.126  11.671   5.886 -0.0154 -0.1185 -0.0763
  722MOL0     C95205  10.319  11.598   5.913 -0.0214  0.1469 -0.4008
  722MOL0     C95206  10.361  11.386   5.903  0.0965 -0.0410  0.9606
  722MOL0     O95207  10.486  11.337   5.916 -0.7621  0.8272  0.0777
  722MOL0     C95208  10.471  11.198   5.894  0.3102 -0.6149 -0.8457
  722MOL0     C95209  10.609  11.131   5.947  0.0257  0.0636 -0.3138
  722MOL0     C95210  10.607  11.087   6.089  0.6477  0.6875 -0.1526
  722MOL0     C95211  10.717  10.981   6.114  0.0744  1.1513  0.1467
  722MOL0     C95212  10.769  10.992   6.255 -0.3169  0.0591 -0.6616
  722MOL0     C95213  10.902  10.913   6.266  0.1998  0.0823 -1.0219
  722MOL0     C95214  10.961  10.935   6.400  0.2877 -0.8228 -0.8908
  722MOL0     C95215  11.118  10.900   6.417 -0.0710 -1.3304  0.0809
  722MOL0    Cl95216  11.184  11.053   6.330 -0.5008  0.1866  0.3985
  722MOL0     C95217  10.201  11.255   5.855  0.2720 -1.0453  1.0033
  722MOL0     C95218  10.011  11.330   5.827  0.7349  0.3554  0.6201
  722MOL0     O95219   9.865  11.782   5.890 -0.1797 -0.5419 -0.3533
  722MOL0     C95220   9.627  11.852   5.774  1.1879  0.0998 -0.3751
  722MOL0     C95221   9.501  11.877   5.724  0.5868 -0.1131 -0.4619
  722MOL0     N95222   9.289  11.921   5.279  0.1298 -0.3853  0.7664
  722MOL0     N95223   9.285  11.868   5.158 -0.3535 -0.1226 -0.0387
  722MOL0     C95224   9.346  11.719   4.010 -0.1513  1.4757  0.0559
  722MOL0     C95225   9.369  11.617   3.907  0.3550 -0.0810  0.1668
  722MOL0     C95226   9.424  11.186   3.729 -0.3706  0.8858  0.1151
  722MOL0     C95227   9.392  11.046   3.718 -0.0924 -0.0607  0.0765
  722MOL0     C95228   9.448  10.968   3.618  0.0051  0.0917 -0.3680
  722MOL0     C95229   9.545  11.019   3.531 -0.0141  0.2580  0.0513
  722MOL0     O95230   9.611  10.945   3.431 -0.0367 -0.3579  0.1949
  722MOL0     C95231   9.569  10.811   3.413 -0.4838  0.8388 -0.0243
  722MOL0     C95232   9.626  10.755   3.280 -0.2728  0.3942 -0.6557
  722MOL0     C95233   9.519  10.693   3.182  0.1036  0.9282  0.5701
  722MOL0     C95234   9.403  10.603   3.253 -0.4204  0.0455 -0.7953
  722MOL0     C95235   9.461  10.521   3.358 -0.4783 -0.4200  0.6699
  722MOL0     C95236   9.534  10.453   3.428 -0.2573  0.4190  0.6000
  722MOL0     C95237   9.579  11.156   3.551  0.9554  0.6344 -0.6034
  722MOL0     C95238   9.510  11.240   3.635  0.8855 -0.3276 -0.0298
  722MOL0     H95239   9.443  11.363   4.097  1.4893  1.9594  4.2916
  722MOL0     H95240   9.340  11.510   4.274 -0.6687  1.4883  0.0007
  722MOL0     H95241   9.104  11.738   4.166  1.1945  1.8228 -3.7788
  722MOL0     H95242   9.159  11.901   4.170 -1.5332  1.4481  2.5302
  722MOL0     H95243   8.986  11.871   4.335  0.0210 -1.1403 -1.4106
  722MOL0     H95244   9.135  11.948   4.397 -0.8203  0.9614 -0.9920
  722MOL0     H95245   9.205  11.727   4.490  0.0652 -0.6956 -0.1198
  722MOL0     H95246   9.082  11.651   4.387  2.6638  3.3854 -3.8844
  722MOL0     H95247   8.919  11.822   4.548 -0.7065  0.7714 -0.8422
  722MOL0     H95248   8.940  11.651   4.589  0.0487 -0.9633 -2.3357
  722MOL0     H95249   9.101  11.890   4.696 -0.9461  0.6602 -1.2736
  722MOL0     H95250   9.145  11.723   4.742 -1.4313 -0.7027  2.5723
  722MOL0     H95251   8.939  11.674   4.847  0.3336 -0.3295 -0.1743
  722MOL0     H95252   8.886  11.845   4.791  0.9038  0.5991 -0.4262
  722MOL0     H95253   8.941  11.865   5.012 -0.9178  0.3113 -1.1166
  722MOL0     H95254   9.052  11.729   5.007 -1.6177 -0.6366  0.0507
  722MOL0     H95255   9.109  12.010   4.921  0.2502 -0.2955 -0.7324
  722MOL0     H95256   9.224  11.889   4.892  2.3914  1.0673  1.2930
  722MOL0     H95257   9.025  12.075   5.163  0.1637  0.8421  1.7306
  722MOL0     H95258   9.133  12.210   5.349 -1.1463 -0.4727 -0.7283
  722MOL0     H95259   9.268  12.137   5.446 -0.1185  1.5240  1.1156
  722MOL0     H95260   8.978  12.053   5.457  0.6123  0.1293 -1.3860
  722MOL0     H95261   9.077  12.121   5.601 -0.4373  2.5101 -1.5631
  722MOL0     H95262   9.025  11.882   5.618 -2.6934  1.4133 -1.0716
  722MOL0     H95263   9.143  11.858   5.488 -1.0809 -0.3465 -1.0273
  722MOL0     H95264   9.210  11.955   5.762 -0.0803 -0.4109  0.7738
  722MOL0     H95265   9.308  12.014   5.626 -0.5814  0.6655  3.6773
  722MOL0     H95266   9.388  11.573   5.671  2.1278 -1.3608 -1.1483
  722MOL0     H95267   9.601  11.519   5.804  2.2270  0.2882  3.1157
  722MOL0     H95268  10.115  11.779   5.882 -4.0709 -0.3757  0.1251
  722MOL0     H95269  10.400  11.665   5.940 -0.9972  1.9524 -1.6996
  722MOL0     H95270  10.443  11.191   5.788 -1.1868  0.6532 -0.5677
  722MOL0     H95271  10.394  11.155   5.958 -0.0602  2.0970  0.6727
  722MOL0     H95272  10.687  11.206   5.933 -1.2115  0.8852 -3.8154
  722MOL0     H95273  10.637  11.044   5.888  2.3518  1.1893 -0.9931
  722MOL0     H95274  10.505  11.060   6.119  0.1751  1.2438 -1.2184
  722MOL0     H95275  10.634  11.177   6.146  0.5576  0.9589 -0.5384
  722MOL0     H95276  10.690  10.878   6.090  1.6893  0.7169  0.0926
  722MOL0     H95277  10.795  11.002   6.040  2.4548 -0.9112  1.8878
  722MOL0     H95278  10.705  10.955   6.336 -1.1243  1.2665 -0.7276
  722MOL0     H95279  10.791  11.097   6.275 -1.3862  0.7369 -2.8303
  722MOL0     H95280  10.972  10.957   6.194  0.8568 -2.5427 -2.1239
  722MOL0     H95281  10.877  10.809   6.244  1.0874 -0.9743  2.3963
  722MOL0     H95282  10.953  11.041   6.427 -1.5526 -0.6728 -1.8378
  722MOL0     H95283  10.898  10.883   6.473 -1.4093  0.0365 -1.6833
  722MOL0     H95284  11.157  10.812   6.365  3.3688  0.1998 -0.1843
  722MOL0     H95285  11.162  10.894   6.517 -0.8893 -0.6900  0.4913
  722MOL0     H95286  10.211  11.147   5.858  1.2635 -1.3109 -3.7398
  722MOL0     H95287   9.927  11.267   5.800  2.5315 -1.0636 -2.1930
  722MOL0     H95288   9.690  11.940   5.781 -1.4503  1.9987  0.8668
  722MOL0     H95289   9.481  11.984   5.715  0.3616  0.3106  3.2276
  722MOL0     H95290   9.341  11.828   4.004  3.2305  2.0992  3.9180
  722MOL0     H95291   9.390  11.651   3.806 -0.2764 -0.1777  0.0007
  722MOL0     H95292   9.320  11.012   3.792 -1.2521  1.3654 -0.3601
  722MOL0     H95293   9.416  10.864   3.612  3.4501 -1.0635 -0.8752
  722MOL0     H95294   9.460  10.806   3.411 -0.4500 -1.5991 -2.6061
  722MOL0     H95295   9.593  10.751   3.502 -4.0809  2.1690  2.0819
  722MOL0     H95296   9.665  10.834   3.215  2.4637  0.7778  1.2974
  722MOL0     H95297   9.701  10.678   3.301  2.6400  3.0132 -0.7290
  722MOL0     H95298   9.562  10.624   3.109 -0.2326 -1.1667  2.2538
  722MOL0     H95299   9.467  10.767   3.121  1.7976  2.7992  1.2735
  722MOL0     H95300   9.331  10.668   3.304  0.9821  0.7024  0.4703
  722MOL0     H95301   9.365  10.527   3.184 -2.6563  1.4043 -1.1573
  722MOL0     H95302   9.594  10.405   3.502  0.9611 -0.4282 -0.8697
  722MOL0     H95303   9.662  11.193   3.492  1.5991 -0.4125 -0.3782
  722MOL0     H95304   9.563  11.335   3.636  0.1106  0.2013 -2.5247
  723MOL0     O95305   1.615  10.639   2.726  0.2733  0.7030 -1.0650
  723MOL0     C95306   1.720  10.594   2.771  0.7520 -0.1744 -0.3770
  723MOL0     O95307   1.756  10.607   2.897  0.8344 -0.8376 -0.4499
  723MOL0     C95308   1.688  10.670   2.997 -0.2648 -0.7468  0.3449
  723MOL0     C95309   1.730  10.655   3.131 -0.4320  0.4704 -0.3349
  723MOL0     C95310   1.651  10.703   3.235  0.4523 -0.2219 -0.7686
  723MOL0     C95311   1.544  10.792   3.207 -0.0243  0.6260 -0.1079
  723MOL0     O95312   1.477  10.877   3.294 -0.6135  0.1039 -0.4366
  723MOL0     C95313   1.516  10.888   3.431  0.3277  0.3441  0.1595
  723MOL0     C95314   1.637  10.991   3.446  0.0453  0.6588 -0.2408
  723MOL0     C95315   1.629  11.105   3.348 -0.0682  0.4200 -0.1789
  723MOL0     C95316   1.694  11.232   3.390  1.1731  0.0691  0.5771
  723MOL0     C95317   1.649  11.358   3.317 -0.7747  0.1273  0.2556
  723MOL0     C95318   1.705  11.479   3.395 -0.4080 -0.7566 -0.5773
  723MOL0     C95319   1.686  11.608   3.301  0.3834 -0.4091 -1.3267
  723MOL0     C95320   1.785  11.719   3.320  0.4329 -0.2838 -0.4190
  723MOL0     N95321   1.786  11.822   3.215 -0.8875 -0.0969  0.4114
  723MOL0     C95322   1.675  11.898   3.192 -0.0307 -0.8530 -1.0232
  723MOL0     C95323   1.700  11.971   3.076 -1.1062 -0.2588  1.4994
  723MOL0     C95324   1.634  12.077   2.989 -0.4392  0.6781  0.8271
  723MOL0     C95325   1.671  12.213   3.041  0.7609 -0.5912 -0.3586
  723MOL0     C95326   1.628  12.234   3.190 -0.4173 -0.4197  0.8693
  723MOL0     C95327   1.683  12.374   3.232  0.0462  0.7882 -0.2576
  723MOL0     O95328   1.596  12.478   3.162 -0.3791 -0.2812 -0.8072
  723MOL0     C95329   1.648  12.552   3.065 -0.3943  0.4201 -0.2090
  723MOL0     C95330   1.772  12.536   3.001  0.1675  1.4526 -0.5558
  723MOL0     C95331   1.808  12.635   2.910  0.4157 -0.3809  0.1585
  723MOL0     C95332   1.726  12.742   2.874  0.6072  0.0442  0.2794
  723MOL0     C95333   1.764  12.838   2.772 -0.1985 -0.2393 -0.2537
  723MOL0     O95334   1.886  12.827   2.709 -0.1242 -0.4491 -0.0396
  723MOL0     C95335   1.900  12.897   2.588  0.6298  0.3793 -0.8050
  723MOL0     C95336   1.803  12.898   2.481 -0.2508  0.8186 -0.5720
  723MOL0     C95337   1.836  12.955   2.361  0.4335 -0.1624  0.4117
  723MOL0     C95338   1.968  13.004   2.339  0.1119 -0.4401  0.6346
  723MOL0     O95339   1.988  13.042   2.209  0.2573 -0.3718 -0.4558
  723MOL0     C95340   2.122  13.085   2.166 -0.3078 -0.3886 -0.6558
  723MOL0     C95341   2.091  13.127   2.020  0.4226 -0.5326 -0.2349
  723MOL0     C95342   2.060  13.003   1.927 -0.3353  0.5965 -0.2762
  723MOL0     C95343   2.194  12.920   1.905 -0.8231  0.0451 -1.0756
  723MOL0     C95344   2.185  12.823   1.784  0.2459  0.0010  0.9942
  723MOL0     C95345   2.303  12.722   1.788  0.2186  0.5683 -0.0635
  723MOL0     C95346   2.443  12.780   1.756  0.7278 -0.6903 -0.3231
  723MOL0     C95347   2.558  12.676   1.759 -0.3612  0.6329  0.6523
  723MOL0    Cl95348   2.706  12.778   1.774 -0.1302  0.6788  0.1070
  723MOL0     C95349   2.062  12.989   2.437 -0.4995  0.4765 -0.6879
  723MOL0     C95350   2.023  12.944   2.561  1.1279 -0.2044 -0.3577
  723MOL0     O95351   1.695  12.928   2.756  1.1645 -0.2826  0.3651
  723MOL0     C95352   1.604  12.756   2.947 -0.2414  0.1185  0.3845
  723MOL0     C95353   1.569  12.656   3.039  0.1425  0.7039  1.3179
  723MOL0     N95354   1.837  11.943   3.044  0.6124 -0.7836 -0.0789
  723MOL0     N95355   1.878  11.847   3.119  0.2743 -0.5185  0.3612
  723MOL0     C95356   1.508  10.824   3.070 -0.2727 -0.6745 -0.0406
  723MOL0     C95357   1.580  10.755   2.973 -0.7394 -0.2774  0.2864
  723MOL0     C95358   1.801  10.520   2.682  0.4646 -1.3349 -0.4958
  723MOL0     C95359   1.754  10.477   2.557  0.5048  0.3916 -0.4565
  723MOL0     C95360   1.836  10.387   2.479 -0.0844 -0.4281 -0.5264
  723MOL0     C95361   1.971  10.365   2.517 -0.4749  0.5135 -0.4006
  723MOL0     O95362   2.054  10.278   2.450  0.1155  0.1331  0.4140
  723MOL0     C95363   2.101  10.309   2.320 -0.6991 -0.4125 -0.6024
  723MOL0     C95364   2.077  10.189   2.223 -0.6380  0.6765  0.0491
  723MOL0     C95365   1.926  10.173   2.199 -1.2820 -0.3075  0.7236
  723MOL0     C95366   1.870  10.051   2.128  0.6858 -0.0481 -0.4235
  723MOL0     C95367   1.925  10.045   1.999  0.5622 -1.0779  0.3837
  723MOL0     C95368   1.958  10.046   1.880  0.5607  0.1477 -0.2551
  723MOL0     C95369   2.024  10.439   2.631  0.2458  0.2313  0.0574
  723MOL0     C95370   1.936  10.502   2.717 -0.7954  0.7606  0.4704
  723MOL0     H95371   1.802  10.575   3.144 -2.2373 -1.6607 -2.5424
  723MOL0     H95372   1.663  10.662   3.335  1.1581 -0.3004 -0.8773
  723MOL0     H95373   1.544  10.790   3.471  2.1928 -0.1086 -2.0380
  723MOL0     H95374   1.429  10.924   3.487  0.9319  1.3720  0.4734
  723MOL0     H95375   1.726  10.928   3.434 -0.0070  0.8866 -2.1667
  723MOL0     H95376   1.625  11.025   3.549 -1.5000 -1.0117  0.1878
  723MOL0     H95377   1.526  11.131   3.323 -0.1040  2.4859  1.7651
  723MOL0     H95378   1.666  11.071   3.251 -0.7924 -0.7547 -0.0734
  723MOL0     H95379   1.686  11.242   3.498  0.4395 -3.9237  1.0599
  723MOL0     H95380   1.803  11.225   3.376  1.0361  0.6636 -1.0007
  723MOL0     H95381   1.540  11.366   3.323 -0.6897  0.4259  1.7645
  723MOL0     H95382   1.681  11.364   3.213  0.5466 -2.6418  0.4091
  723MOL0     H95383   1.810  11.464   3.422 -0.4215  2.0111  1.3898
  723MOL0     H95384   1.656  11.500   3.490  1.9691  0.3489  0.5028
  723MOL0     H95385   1.693  11.581   3.196  0.5281 -0.3503 -1.3326
  723MOL0     H95386   1.588  11.649   3.323 -0.1057  0.1010 -4.0935
  723MOL0     H95387   1.886  11.678   3.329  0.6183 -0.4191 -2.5173
  723MOL0     H95388   1.758  11.763   3.416  0.9503 -1.7315  0.4192
  723MOL0     H95389   1.582  11.890   3.246 -0.6804  5.1153 -0.5704
  723MOL0     H95390   1.524  12.071   2.987 -0.4024 -1.7852  2.0411
  723MOL0     H95391   1.668  12.070   2.885  1.4597  1.8690  1.3367
  723MOL0     H95392   1.657  12.300   2.975  2.9186  0.2408  0.1925
  723MOL0     H95393   1.780  12.220   3.048  0.7595 -0.6979 -0.2414
  723MOL0     H95394   1.518  12.234   3.189 -0.5362 -0.9846 -3.2462
  723MOL0     H95395   1.667  12.170   3.269  0.5189  1.9559  2.4199
  723MOL0     H95396   1.791  12.383   3.215  0.2963  2.8005  1.9105
  723MOL0     H95397   1.671  12.382   3.340  0.9710  1.6472 -0.2005
  723MOL0     H95398   1.840  12.456   3.029 -0.7167 -0.2637 -2.9289
  723MOL0     H95399   1.901  12.621   2.855  1.6008 -1.4534  2.2553
  723MOL0     H95400   1.701  12.858   2.485  1.1137 -3.1868 -0.9254
  723MOL0     H95401   1.760  12.961   2.283 -1.1948  0.3178  1.9471
  723MOL0     H95402   2.195  13.003   2.162 -0.8171 -1.1172  2.3424
  723MOL0     H95403   2.162  13.168   2.225 -0.4113 -1.8711  1.6219
  723MOL0     H95404   2.191  13.162   1.991  0.4383  0.3488  0.8326
  723MOL0     H95405   2.028  13.216   2.010  2.6477  1.3165  1.1433
  723MOL0     H95406   2.029  13.042   1.830 -1.0353  1.2090  0.1887
  723MOL0     H95407   1.982  12.936   1.965  1.3291 -2.3799 -1.7459
  723MOL0     H95408   2.267  13.000   1.888  1.1568 -1.9654 -2.5652
  723MOL0     H95409   2.238  12.868   1.990  1.1756  0.4531 -1.8071
  723MOL0     H95410   2.187  12.890   1.698 -0.2660 -0.3102  0.7314
  723MOL0     H95411   2.091  12.769   1.799 -2.3840  3.3596 -1.5324
  723MOL0     H95412   2.271  12.646   1.717 -0.1155  0.7263 -0.0800
  723MOL0     H95413   2.313  12.685   1.891  0.9992 -0.1986 -0.3962
  723MOL0     H95414   2.450  12.852   1.673  0.6175  0.3736  0.5741
  723MOL0     H95415   2.455  12.848   1.841  0.0943 -1.4497  0.3835
  723MOL0     H95416   2.564  12.625   1.662  1.1154 -2.0372  2.0220
  723MOL0     H95417   2.533  12.601   1.835 -2.1398 -3.1972 -3.2569
  723MOL0     H95418   2.165  13.019   2.419 -0.1267  2.2337  3.2832
  723MOL0     H95419   2.092  12.923   2.642 -1.6625  0.7635  2.4473
  723MOL0     H95420   1.541  12.842   2.926  0.3993  0.1465 -1.6069
  723MOL0     H95421   1.489  12.673   3.111  2.2428  1.9749  3.4696
  723MOL0     H95422   1.422  10.888   3.054  0.5047  0.4981  0.3446
  723MOL0     H95423   1.563  10.788   2.871 -0.2683 -1.2720 -0.1260
  723MOL0     H95424   1.655  10.508   2.523  0.8022  1.2612 -0.5472
  723MOL0     H95425   1.805  10.361   2.379  1.5338 -1.9804 -0.6759
  723MOL0     H95426   2.209  10.327   2.322 -0.4379 -1.8884 -0.1931
  723MOL0     H95427   2.050  10.401   2.291 -0.7423  0.1309  1.0882
  723MOL0     H95428   2.132  10.213   2.132  2.4775 -0.2289  1.5677
  723MOL0     H95429   2.101  10.090   2.262 -0.0108  1.1333  0.8390
  723MOL0     H95430   1.888  10.252   2.134  0.9027 -1.9164 -2.8364
  723MOL0     H95431   1.888  10.161   2.301  1.4783 -0.0898  1.8613
  723MOL0     H95432   1.882   9.967   2.196 -2.5974  0.0491  0.4310
  723MOL0     H95433   1.761  10.064   2.125  0.8773  1.8778 -0.6379
  723MOL0     H95434   1.983  10.051   1.776  0.4112  0.1498 -0.2899
  723MOL0     H95435   2.128  10.435   2.661  0.6873  2.4403 -0.9797
  723MOL0     H95436   1.984  10.550   2.802  0.8218 -1.9224  1.2059
  724MOL0     O95437   1.676   0.449   5.236 -1.1302 -0.0865 -0.2313
  724MOL0     C95438   1.702   0.384   5.134  0.1200 -0.1883 -0.0043
  724MOL0     O95439   1.696   0.431   5.007 -0.5367  0.5411  0.4687
  724MOL0     C95440   1.645   0.550   4.981  0.1541 -0.2438 -0.8364
  724MOL0     C95441   1.692   0.654   5.062  0.3086 -0.2278 -1.0503
  724MOL0     C95442   1.662   0.794   5.044  0.7496 -0.3583 -0.7681
  724MOL0     C95443   1.569   0.831   4.941  0.0727  0.3497 -0.1989
  724MOL0     O95444   1.532   0.965   4.949  0.1671  0.2626  0.5522
  724MOL0     C95445   1.440   1.008   4.848 -0.3834  0.3335 -0.3452
  724MOL0     C95446   1.400   1.149   4.883 -0.0273 -0.6574 -0.4197
  724MOL0     C95447   1.265   1.182   4.822 -1.7094  0.2898  0.7285
  724MOL0     C95448   1.200   1.289   4.904  0.0573 -0.8910 -1.0106
  724MOL0     C95449   1.062   1.307   4.850 -0.3137  0.7962  0.1160
  724MOL0     C95450   1.003   1.428   4.924  0.5752  0.1661 -0.1398
  724MOL0     C95451   0.844   1.420   4.932 -0.2870  0.8616  0.3193
  724MOL0     C95452   0.794   1.439   4.792 -0.0279 -0.3880  0.3432
  724MOL0     N95453   0.650   1.457   4.789  0.1915 -0.7196  0.5100
  724MOL0     C95454   0.578   1.572   4.842 -0.6463 -0.5521  0.7611
  724MOL0     C95455   0.452   1.539   4.838  0.8646 -0.2331  0.2324
  724MOL0     C95456   0.335   1.623   4.884 -0.5546 -0.6126 -0.2655
  724MOL0     C95457   0.348   1.771   4.826 -0.3281 -0.1445  0.2527
  724MOL0     C95458   0.247   1.868   4.878  0.2456  0.0058  0.4691
  724MOL0     C95459   0.272   1.997   4.789 -0.2777 -0.2246 -0.0417
  724MOL0     O95460   0.165   2.093   4.813  0.3056  0.7222 -0.8605
  724MOL0     C95461   0.148   2.192   4.727 -0.4439  0.3499  0.7312
  724MOL0     C95462   0.038   2.265   4.764 -1.0527  0.1563  0.2265
  724MOL0     C95463  -0.001   2.384   4.704 -1.2620 -0.9779 -0.0853
  724MOL0     C95464   0.079   2.437   4.595 -0.9563  0.3398 -0.9864
  724MOL0     C95465   0.061   2.566   4.529 -0.2750 -0.9969 -0.0784
  724MOL0     O95466  -0.033   2.641   4.583  0.1460 -0.2586  0.1775
  724MOL0     C95467  -0.033   2.776   4.546  0.2636  0.8954  0.2298
  724MOL0     C95468  -0.044   2.830   4.423  0.9319  0.1000 -0.6298
  724MOL0     C95469  -0.066   2.972   4.418 -1.1054 -0.1059 -0.4367
  724MOL0     C95470  -0.086   3.052   4.528 -0.7092 -0.7481 -0.6301
  724MOL0     O95471  -0.089   3.188   4.506  0.4494  0.1597 -0.4857
  724MOL0     C95472  -0.189   3.258   4.578  0.4512  0.0445 -0.1033
  724MOL0     C95473  -0.178   3.409   4.548 -1.3933  0.1027  0.8385
  724MOL0     C95474  -0.206   3.434   4.401  0.0221 -0.5780  0.0832
  724MOL0     C95475  -0.132   3.566   4.349  0.6301  1.0020  0.3198
  724MOL0     C95476  -0.123   3.564   4.196 -0.6548 -0.0957 -0.1839
  724MOL0     C95477  -0.253   3.556   4.110  0.0507 -0.1660  0.4986
  724MOL0     C95478  -0.244   3.605   3.966  0.1653  0.6536  0.6287
  724MOL0     C95479  -0.378   3.640   3.890  0.1945 -1.3936 -0.3040
  724MOL0    Cl95480  -0.453   3.484   3.842 -0.0368  0.2821 -0.2372
  724MOL0     C95481  -0.074   2.989   4.657  0.5230 -0.6569 -0.2835
  724MOL0     C95482  -0.044   2.850   4.660  0.5380 -0.2085  0.1237
  724MOL0     O95483   0.141   2.598   4.445 -0.4116 -0.4407  0.0125
  724MOL0     C95484   0.193   2.355   4.556  0.9963 -0.2581 -1.7535
  724MOL0     C95485   0.229   2.232   4.615  0.4674 -0.2505  0.2047
  724MOL0     N95486   0.447   1.412   4.775 -0.4074  0.1719  0.0374
  724MOL0     N95487   0.562   1.368   4.744  0.3503 -0.4762 -0.1067
  724MOL0     C95488   1.517   0.725   4.865 -0.5496  0.2091  0.0795
  724MOL0     C95489   1.561   0.586   4.875 -0.4074 -0.0287 -0.0965
  724MOL0     C95490   1.732   0.242   5.154  1.2197  0.7030  0.5244
  724MOL0     C95491   1.737   0.181   5.280  0.4139  0.1619 -0.1956
  724MOL0     C95492   1.780   0.044   5.298 -0.5817 -0.2397 -0.0886
  724MOL0     C95493   1.794  -0.041   5.186 -0.8084  0.2721  0.0393
  724MOL0     O95494   1.814  -0.176   5.187 -0.4390  0.0921  0.2949
  724MOL0     C95495   1.838  -0.231   5.319 -0.4483  0.7055  0.3332
  724MOL0     C95496   1.981  -0.211   5.386  0.8158 -1.3051 -0.3959
  724MOL0     C95497   2.078  -0.260   5.287 -0.5405  0.9629  1.0243
  724MOL0     C95498   2.213  -0.252   5.354 -0.5452 -0.7589 -0.0421
  724MOL0     C95499   2.280  -0.119   5.372  0.3893 -0.2562  0.2833
  724MOL0     C95500   2.332  -0.011   5.393 -1.0190 -0.2311 -0.0105
  724MOL0     C95501   1.798   0.021   5.064  0.9905 -0.7640  0.1684
  724MOL0     C95502   1.768   0.158   5.045 -0.3038 -0.0045  0.7191
  724MOL0     H95503   1.762   0.649   5.145  2.0426  0.2108 -2.4194
  724MOL0     H95504   1.711   0.865   5.110  1.3337  1.9747 -3.4901
  724MOL0     H95505   1.359   0.934   4.844 -0.3501  0.3455 -2.3214
  724MOL0     H95506   1.484   1.017   4.748 -3.2037  5.0904 -1.4843
  724MOL0     H95507   1.481   1.218   4.858  0.1027 -1.1391 -1.3527
  724MOL0     H95508   1.391   1.163   4.991  0.3507  1.8447 -0.6717
  724MOL0     H95509   1.199   1.095   4.829  0.4339 -1.5208  0.0477
  724MOL0     H95510   1.283   1.206   4.716  0.9132  2.3320  1.5316
  724MOL0     H95511   1.190   1.257   5.009  2.6441 -2.8446 -1.2758
  724MOL0     H95512   1.258   1.381   4.894  0.9276 -1.1726  0.9197
  724MOL0     H95513   1.005   1.214   4.853  1.9744 -0.7718 -1.2574
  724MOL0     H95514   1.079   1.328   4.744  0.0242  0.0034  0.0057
  724MOL0     H95515   1.033   1.515   4.864 -2.6049  0.1693 -1.9513
  724MOL0     H95516   1.038   1.432   5.027 -0.1129 -0.3309  0.1116
  724MOL0     H95517   0.806   1.328   4.978  2.6166 -0.6770 -0.1522
  724MOL0     H95518   0.801   1.491   5.004 -3.4705 -1.5820  1.0630
  724MOL0     H95519   0.817   1.351   4.731 -0.1810 -3.2972  4.0935
  724MOL0     H95520   0.854   1.524   4.759 -1.0425  0.0728 -0.3402
  724MOL0     H95521   0.600   1.667   4.888  0.3255 -0.6229  0.4606
  724MOL0     H95522   0.338   1.623   4.993  4.3544  0.9638 -0.1877
  724MOL0     H95523   0.240   1.575   4.856 -0.6821 -0.9905  0.7803
  724MOL0     H95524   0.354   1.763   4.717  2.9507 -3.3563  0.4618
  724MOL0     H95525   0.444   1.815   4.858 -0.1632  0.1943 -0.6592
  724MOL0     H95526   0.148   1.825   4.863  0.3328 -0.3399  0.8651
  724MOL0     H95527   0.273   1.896   4.980  2.3313  1.0512 -0.2940
  724MOL0     H95528   0.286   1.956   4.688 -1.3128 -0.8318  0.0416
  724MOL0     H95529   0.369   2.043   4.810  0.0896 -0.9864 -0.0641
  724MOL0     H95530  -0.008   2.225   4.854  0.0937 -1.7445  0.0133
  724MOL0     H95531  -0.085   2.444   4.738 -0.1386  0.9317 -0.5121
  724MOL0     H95532  -0.032   2.782   4.327 -3.4830 -1.2851 -0.7072
  724MOL0     H95533  -0.064   3.017   4.319 -2.5050 -1.3354 -1.0653
  724MOL0     H95534  -0.163   3.231   4.681  0.1141 -0.7061 -0.2072
  724MOL0     H95535  -0.283   3.216   4.542  0.1498  0.7386 -0.1275
  724MOL0     H95536  -0.075   3.426   4.580 -0.8303 -0.9962 -0.2796
  724MOL0     H95537  -0.245   3.467   4.611 -3.0495  1.9395 -2.3238
  724MOL0     H95538  -0.313   3.445   4.382  0.0110 -0.8818 -0.0326
  724MOL0     H95539  -0.174   3.348   4.342 -1.8231  0.5520 -2.7699
  724MOL0     H95540  -0.203   3.649   4.358 -1.7340 -0.6769 -1.3944
  724MOL0     H95541  -0.037   3.585   4.399  1.0531  1.8967 -0.7810
  724MOL0     H95542  -0.056   3.480   4.172  3.4125  2.7413  0.2199
  724MOL0     H95543  -0.060   3.649   4.167  0.4731 -1.0290 -0.5887
  724MOL0     H95544  -0.328   3.624   4.152  1.1361  2.2579 -1.2624
  724MOL0     H95545  -0.299   3.458   4.095 -1.2278  0.1673  1.9442
  724MOL0     H95546  -0.180   3.693   3.957 -3.4094  3.6750  2.4195
  724MOL0     H95547  -0.209   3.526   3.898  1.6144  0.5082  1.4929
  724MOL0     H95548  -0.349   3.702   3.804  3.8879 -4.0529 -1.2217
  724MOL0     H95549  -0.447   3.692   3.957  2.5011 -0.3605  1.4106
  724MOL0     H95550  -0.074   3.051   4.746 -0.8742  0.2440 -0.8925
  724MOL0     H95551  -0.023   2.793   4.750  0.2389 -3.0355 -1.5037
  724MOL0     H95552   0.251   2.392   4.472  1.5262 -0.2414 -1.3873
  724MOL0     H95553   0.313   2.179   4.570 -0.3555 -0.7385 -0.7931
  724MOL0     H95554   1.435   0.731   4.794 -0.4747 -0.4613 -0.0708
  724MOL0     H95555   1.508   0.514   4.814 -1.0611 -0.6885  1.2022
  724MOL0     H95556   1.715   0.239   5.368 -1.5951 -3.6241  2.0819
  724MOL0     H95557   1.783   0.010   5.401  0.3668  0.3880  0.1013
  724MOL0     H95558   1.826  -0.338   5.302 -0.7966  1.1790 -3.0741
  724MOL0     H95559   1.754  -0.198   5.381 -1.1194  0.7507 -0.5825
  724MOL0     H95560   1.988  -0.105   5.410 -2.0481 -1.2106  0.4128
  724MOL0     H95561   1.985  -0.265   5.481 -1.7592 -1.3208 -0.2231
  724MOL0     H95562   2.073  -0.198   5.197  2.4800 -0.3476 -0.1814
  724MOL0     H95563   2.054  -0.361   5.251 -0.6114  1.8178 -1.5050
  724MOL0     H95564   2.221  -0.303   5.450  1.2280 -0.6362 -0.0880
  724MOL0     H95565   2.286  -0.313   5.299  0.2914 -0.6753  0.9453
  724MOL0     H95566   2.355   0.092   5.380  1.1273 -0.8330 -1.6003
  724MOL0     H95567   1.836  -0.029   4.976  0.5405 -0.9195  0.0555
  724MOL0     H95568   1.791   0.196   4.946 -0.0463 -0.4542  0.6045
  725MOL0     O95569   2.207   0.921   9.508  0.1826  0.0640 -1.2559
  725MOL0     C95570   2.128   1.014   9.483  0.1167 -0.5834 -1.0360
  725MOL0     O95571   2.135   1.098   9.370 -0.6061  0.9761 -1.1863
  725MOL0     C95572   2.230   1.058   9.275  0.5694  0.4761 -1.1871
  725MOL0     C95573   2.200   0.957   9.188 -0.4898  0.1169 -0.4472
  725MOL0     C95574   2.269   0.952   9.062  0.4476 -0.1257 -1.0794
  725MOL0     C95575   2.385   1.027   9.048  0.5145 -0.7691  0.3961
  725MOL0     O95576   2.466   1.006   8.940  0.0598  0.4456 -0.2310
  725MOL0     C95577   2.502   0.869   8.929  0.6287  0.5051 -0.2100
  725MOL0     C95578   2.633   0.857   8.852 -0.6423 -0.7811  0.3523
  725MOL0     C95579   2.627   0.891   8.699  0.3950 -1.0607 -0.2782
  725MOL0     C95580   2.596   0.761   8.617 -0.1263 -0.6984 -0.0513
  725MOL0     C95581   2.628   0.776   8.466 -0.0030 -0.6487 -0.2128
  725MOL0     C95582   2.539   0.882   8.385  0.7782  0.0374  0.1971
  725MOL0     C95583   2.392   0.841   8.360 -2.1544  1.1339  0.5740
  725MOL0     C95584   2.400   0.719   8.259  0.8473 -0.0073 -0.0943
  725MOL0     N95585   2.264   0.706   8.208  0.0994  0.1277  0.0708
  725MOL0     C95586   2.224   0.767   8.094 -0.4194 -0.1149 -0.0854
  725MOL0     C95587   2.086   0.747   8.092 -1.1845 -0.6734  0.2400
  725MOL0     C95588   1.988   0.804   7.987  0.2872 -0.0792  0.4812
  725MOL0     C95589   1.858   0.839   8.067  0.1148 -0.8378  0.4893
  725MOL0     C95590   1.765   0.721   8.063  0.1014  1.0369  1.3202
  725MOL0     C95591   1.647   0.723   8.167  0.9582 -0.0339 -0.3610
  725MOL0     O95592   1.573   0.595   8.159  0.4418 -0.1306  0.4874
  725MOL0     C95593   1.631   0.483   8.215 -0.0430 -0.5155 -0.5306
  725MOL0     C95594   1.555   0.368   8.205  0.4591 -0.4671 -0.0568
  725MOL0     C95595   1.604   0.249   8.245  0.4085 -0.5881  0.1914
  725MOL0     C95596   1.729   0.234   8.300 -0.2981 -0.1712  0.2262
  725MOL0     C95597   1.777   0.108   8.344  1.0311  0.4959 -0.0105
  725MOL0     O95598   1.911   0.083   8.333  0.0139 -0.6757 -0.8552
  725MOL0     C95599   1.953  -0.042   8.366  0.3599 -0.2820 -0.3437
  725MOL0     C95600   1.923  -0.105   8.484 -0.0966 -0.3288  0.2671
  725MOL0     C95601   1.958  -0.245   8.492 -0.9860 -0.7960 -0.7596
  725MOL0     C95602   2.039  -0.307   8.396  0.4258  0.8411 -0.0055
  725MOL0     O95603   2.083  -0.441   8.408 -0.1087 -0.6328  1.0971
  725MOL0     C95604   2.152  -0.476   8.529 -0.6096 -0.0860 -0.4485
  725MOL0     C95605   2.279  -0.545   8.488 -0.7348  0.3216  0.3780
  725MOL0     C95606   2.354  -0.605   8.610 -0.3496  0.3545  0.5400
  725MOL0     C95607   2.463  -0.702   8.571  0.0951  0.8788  0.4759
  725MOL0     C95608   2.500  -0.800   8.684  0.5441  0.2914  0.9653
  725MOL0     C95609   2.598  -0.914   8.639 -0.0771 -0.4332 -0.4627
  725MOL0     C95610   2.635  -1.005   8.765 -0.3128 -0.3129  0.0016
  725MOL0     C95611   2.729  -1.113   8.713  0.4077 -0.0118  0.8500
  725MOL0    Cl95612   2.832  -1.063   8.574 -0.2275 -0.2069 -0.0370
  725MOL0     C95613   2.080  -0.227   8.287 -0.4718  0.0688 -1.0095
  725MOL0     C95614   2.034  -0.104   8.268  1.2229  0.2549  0.2273
  725MOL0     O95615   1.695   0.023   8.387  0.0646 -0.2658  0.4085
  725MOL0     C95616   1.805   0.347   8.309  0.1396 -0.1025 -0.4342
  725MOL0     C95617   1.750   0.469   8.284  0.5560  0.4955  0.4429
  725MOL0     N95618   2.065   0.664   8.198  0.0627  0.6202  0.6180
  725MOL0     N95619   2.164   0.653   8.278  0.1060  0.3447  0.2101
  725MOL0     C95620   2.420   1.120   9.145 -0.1678  0.3577  0.1205
  725MOL0     C95621   2.341   1.136   9.256 -0.0233 -0.0350  1.0860
  725MOL0     C95622   2.037   1.058   9.592  0.2388 -0.3139 -1.4547
  725MOL0     C95623   1.969   1.182   9.596  0.3385 -0.1779  0.4408
  725MOL0     C95624   1.872   1.207   9.684 -0.4305  0.3316  0.8272
  725MOL0     C95625   1.823   1.108   9.775  0.1019  0.0287  1.1861
  725MOL0     O95626   1.726   1.133   9.871  0.2524  0.1861 -1.0350
  725MOL0     C95627   1.644   1.242   9.841  0.5600 -0.3419 -0.2039
  725MOL0     C95628   1.494   1.224   9.877  0.4400 -0.1407 -0.0386
  725MOL0     C95629   1.396   1.333   9.831  0.3890  0.0844  0.0281
  725MOL0     C95630   1.339   1.306   9.696  0.6654  0.0759  0.0060
  725MOL0     C95631   1.219   1.382   9.671 -0.1631  0.2314 -0.0253
  725MOL0     C95632   1.111   1.412   9.641  0.1575 -0.5257 -0.2166
  725MOL0     C95633   1.892   0.989   9.783  0.3437  0.2276 -0.6898
  725MOL0     C95634   1.991   0.958   9.687 -0.4122  0.2727  0.9756
  725MOL0     H95635   2.126   0.879   9.204 -1.3832  1.2988  1.6173
  725MOL0     H95636   2.241   0.882   8.984  0.0265 -1.6783  0.4004
  725MOL0     H95637   2.421   0.815   8.880 -0.2368  0.4887  1.1696
  725MOL0     H95638   2.510   0.824   9.029 -1.2314  2.3045  0.8136
  725MOL0     H95639   2.681   0.760   8.864 -0.3877 -0.5287  1.4905
  725MOL0     H95640   2.704   0.933   8.886  0.9981 -0.4366 -3.4045
  725MOL0     H95641   2.720   0.933   8.660  0.6013 -2.0979 -0.9387
  725MOL0     H95642   2.554   0.967   8.672  2.4295  0.9231 -0.4835
  725MOL0     H95643   2.664   0.682   8.649  1.2420  0.0624 -0.9728
  725MOL0     H95644   2.491   0.736   8.634  0.0323 -0.0879  2.1723
  725MOL0     H95645   2.634   0.678   8.418 -3.2983 -0.3920 -1.3873
  725MOL0     H95646   2.727   0.823   8.465 -0.5990  0.7599  1.1538
  725MOL0     H95647   2.580   0.896   8.285 -0.3448  0.4448 -0.2168
  725MOL0     H95648   2.550   0.971   8.448 -0.0251 -2.0337  3.5269
  725MOL0     H95649   2.347   0.803   8.452 -2.0793  0.4445  0.3339
  725MOL0     H95650   2.327   0.923   8.328 -3.9156 -0.7105 -0.8195
  725MOL0     H95651   2.421   0.629   8.318  1.2401  1.3616  1.9320
  725MOL0     H95652   2.464   0.736   8.172 -0.4044 -1.4938 -1.3739
  725MOL0     H95653   2.286   0.807   8.015 -1.1112  0.7277 -0.2169
  725MOL0     H95654   1.974   0.736   7.902 -1.7109  0.5074  0.3035
  725MOL0     H95655   2.013   0.900   7.941 -0.9134  0.9499  1.9124
  725MOL0     H95656   1.798   0.920   8.026 -1.3799 -2.8894 -1.6613
  725MOL0     H95657   1.873   0.865   8.172  0.5132  0.2722  0.1632
  725MOL0     H95658   1.728   0.702   7.962  0.4881  1.3381  1.1226
  725MOL0     H95659   1.809   0.621   8.071 -1.4412 -0.3174 -3.5171
  725MOL0     H95660   1.583   0.801   8.127  1.8959  1.1502  0.3639
  725MOL0     H95661   1.675   0.746   8.271  3.3791  0.0316 -0.9640
  725MOL0     H95662   1.452   0.375   8.172 -0.0554  2.7261  1.7368
  725MOL0     H95663   1.527   0.174   8.232 -0.9284  0.9358 -1.0594
  725MOL0     H95664   1.871  -0.055   8.565  0.9605 -1.6298  1.8238
  725MOL0     H95665   1.937  -0.303   8.581  0.3364 -0.4580 -0.1958
  725MOL0     H95666   2.097  -0.545   8.594  2.4552 -1.3832  0.9860
  725MOL0     H95667   2.158  -0.391   8.597 -2.3647 -0.6761  0.4972
  725MOL0     H95668   2.347  -0.471   8.445 -0.0878  0.6443  1.8943
  725MOL0     H95669   2.246  -0.627   8.423 -2.0201  0.0474  1.3373
  725MOL0     H95670   2.275  -0.650   8.672 -1.0845  1.5213  0.4789
  725MOL0     H95671   2.395  -0.531   8.679 -0.6019 -1.5279  2.8333
  725MOL0     H95672   2.417  -0.766   8.495 -1.8726  1.2126  1.3063
  725MOL0     H95673   2.550  -0.648   8.532 -1.0786  1.4998 -1.4253
  725MOL0     H95674   2.411  -0.853   8.719 -0.9297  0.9933 -1.5013
  725MOL0     H95675   2.541  -0.741   8.767  0.9096  1.6741 -0.1787
  725MOL0     H95676   2.691  -0.869   8.603  1.1300 -2.0185  0.5308
  725MOL0     H95677   2.559  -0.972   8.554  1.9947 -1.8010 -0.5571
  725MOL0     H95678   2.688  -0.952   8.844 -1.3691  0.9475 -0.1011
  725MOL0     H95679   2.545  -1.053   8.805  0.5159 -2.8192 -0.9390
  725MOL0     H95680   2.667  -1.196   8.677  1.9741 -2.3052  3.1057
  725MOL0     H95681   2.789  -1.155   8.793 -0.0023 -0.8179  0.7402
  725MOL0     H95682   2.140  -0.275   8.210 -0.3920 -0.6732 -0.4976
  725MOL0     H95683   2.052  -0.063   8.169 -0.6680 -3.3963 -1.8534
  725MOL0     H95684   1.900   0.340   8.360 -1.4563  0.7051  2.9091
  725MOL0     H95685   1.818   0.552   8.302  2.1553 -0.8674  0.8294
  725MOL0     H95686   2.513   1.174   9.129  0.4642 -0.1019  1.9387
  725MOL0     H95687   2.356   1.203   9.341  0.1564 -0.1952  1.1814
  725MOL0     H95688   2.007   1.263   9.535 -0.2690  0.6640  1.1719
  725MOL0     H95689   1.832   1.308   9.678 -0.7111  0.1464 -1.0451
  725MOL0     H95690   1.637   1.259   9.733 -0.9116 -1.7500 -0.3722
  725MOL0     H95691   1.685   1.338   9.873 -3.4474  2.5999 -2.8183
  725MOL0     H95692   1.455   1.130   9.835  0.9989 -1.9928  3.2596
  725MOL0     H95693   1.494   1.216   9.986  1.0888 -2.7651 -0.1697
  725MOL0     H95694   1.451   1.425   9.852 -1.5581  0.7682  2.7382
  725MOL0     H95695   1.315   1.327   9.905  1.1945  0.7094  0.9831
  725MOL0     H95696   1.412   1.337   9.621  1.9693 -2.3317  0.1924
  725MOL0     H95697   1.327   1.200   9.673  3.5666  0.1359 -2.3266
  725MOL0     H95698   1.011   1.442   9.617  0.2453 -1.2060 -1.5838
  725MOL0     H95699   1.873   0.906   9.851  3.5005 -0.9474 -1.0613
  725MOL0     H95700   2.037   0.860   9.685  3.0407  1.7394  0.4075
  726MOL0     O95701   8.078   5.959   7.350 -0.3503 -0.7152  0.3503
  726MOL0     C95702   8.166   6.038   7.372 -0.1009 -0.2476 -0.1343
  726MOL0     O95703   8.248   6.044   7.481 -0.7406 -0.2071  0.1582
  726MOL0     C95704   8.216   5.967   7.586  0.1374 -0.2849 -0.6255
  726MOL0     C95705   8.170   6.037   7.699 -0.8105  1.8597 -0.8758
  726MOL0     C95706   8.132   5.968   7.816  0.9862  0.8629  0.4570
  726MOL0     C95707   8.153   5.832   7.817 -0.7789 -0.2571  1.0977
  726MOL0     O95708   8.129   5.770   7.937 -0.4670  0.1574 -0.2762
  726MOL0     C95709   8.240   5.689   7.991  0.2587 -0.8957 -0.0377
  726MOL0     C95710   8.269   5.713   8.137  0.6965 -0.3536  0.6981
  726MOL0     C95711   8.151   5.720   8.237 -0.5473  0.1445  0.5055
  726MOL0     C95712   8.095   5.583   8.279  0.3777  0.2422  0.0616
  726MOL0     C95713   8.027   5.599   8.418 -0.2371 -0.6115  0.4963
  726MOL0     C95714   7.960   5.467   8.464 -1.2415 -0.2085  0.1324
  726MOL0     C95715   7.918   5.487   8.612 -0.2330  0.3092 -0.7471
  726MOL0     C95716   7.828   5.601   8.649  0.2776 -0.1093  0.1196
  726MOL0     N95717   7.684   5.579   8.623 -0.3534  0.7471 -0.2810
  726MOL0     C95718   7.630   5.546   8.507  0.3533  0.3106 -0.6274
  726MOL0     C95719   7.503   5.512   8.531 -0.8127 -0.1802 -0.1246
  726MOL0     C95720   7.400   5.458   8.442 -0.9630  0.3391 -0.2121
  726MOL0     C95721   7.400   5.499   8.296  0.2561 -0.2890  0.8612
  726MOL0     C95722   7.262   5.492   8.230 -0.3149 -0.1414  0.4166
  726MOL0     C95723   7.268   5.540   8.083 -0.2779  0.0101 -0.2048
  726MOL0     O95724   7.152   5.487   8.011 -0.6269  0.3996  0.8800
  726MOL0     C95725   7.140   5.516   7.878  0.2944 -0.9244  0.2566
  726MOL0     C95726   7.022   5.474   7.813  0.0962  0.0108  0.5524
  726MOL0     C95727   7.010   5.507   7.678  0.7461  0.1945  0.2023
  726MOL0     C95728   7.113   5.558   7.598  0.7058 -0.1311  0.2465
  726MOL0     C95729   7.099   5.563   7.453  0.2525  0.8918 -0.2929
  726MOL0     O95730   6.975   5.514   7.395 -0.5379  0.1789  0.3766
  726MOL0     C95731   6.970   5.533   7.256 -0.3200 -0.0861  0.2606
  726MOL0     C95732   6.867   5.609   7.193 -0.3845 -0.1305  0.1545
  726MOL0     C95733   6.858   5.608   7.059  0.6238  1.1739  0.3923
  726MOL0     C95734   6.955   5.549   6.975  0.1939 -1.1124 -0.3520
  726MOL0     O95735   6.924   5.552   6.842 -0.5006 -0.2254 -0.5368
  726MOL0     C95736   6.988   5.659   6.769  0.3404 -0.4786  0.0281
  726MOL0     C95737   6.876   5.763   6.769 -0.1703  0.1338 -0.2721
  726MOL0     C95738   6.793   5.783   6.638  0.6359  0.0368 -0.0945
  726MOL0     C95739   6.872   5.790   6.502 -0.1419 -0.3202 -0.5376
  726MOL0     C95740   6.822   5.689   6.400 -0.1846  0.4376 -0.1815
  726MOL0     C95741   6.676   5.716   6.358  0.2309 -0.0096 -0.2905
  726MOL0     C95742   6.640   5.848   6.289  0.2438  0.6705 -0.5292
  726MOL0     C95743   6.501   5.853   6.230 -0.7701  0.3843 -0.0277
  726MOL0    Cl95744   6.453   6.005   6.149  0.0290  0.4418 -0.2030
  726MOL0     C95745   7.068   5.484   7.039 -0.2526 -0.0563  0.8467
  726MOL0     C95746   7.073   5.468   7.177  0.1272 -0.3839  0.2854
  726MOL0     O95747   7.185   5.626   7.386 -0.6837 -0.4191 -0.4253
  726MOL0     C95748   7.226   5.598   7.667 -0.4478 -1.1554  0.2312
  726MOL0     C95749   7.242   5.575   7.804  0.2719 -0.2053 -0.3116
  726MOL0     N95750   7.479   5.543   8.662  0.2899  0.8508 -0.0231
  726MOL0     N95751   7.585   5.580   8.717 -0.6186  0.6794 -0.4475
  726MOL0     C95752   8.205   5.763   7.704 -0.3255  1.0368  0.5454
  726MOL0     C95753   8.237   5.831   7.583  0.5378  0.1782 -0.4342
  726MOL0     C95754   8.182   6.136   7.267 -0.1657 -0.6822  0.2827
  726MOL0     C95755   8.286   6.225   7.256 -0.7929  1.2041  0.3752
  726MOL0     C95756   8.306   6.314   7.159 -0.5726  0.9519 -0.8308
  726MOL0     C95757   8.211   6.341   7.058 -0.8591 -0.7002 -0.3288
  726MOL0     O95758   8.231   6.436   6.963  0.0710 -0.5744 -0.3306
  726MOL0     C95759   8.364   6.489   6.941 -0.2454  0.1281 -0.2920
  726MOL0     C95760   8.390   6.540   6.797  0.4373 -0.0005  0.5890
  726MOL0     C95761   8.371   6.412   6.706  0.5526 -1.0814 -0.0554
  726MOL0     C95762   8.439   6.438   6.569  0.6796 -0.4206  0.2845
  726MOL0     C95763   8.366   6.541   6.496  0.5845 -0.1883  0.4309
  726MOL0     C95764   8.309   6.628   6.436 -0.6549 -0.6824  0.0394
  726MOL0     C95765   8.093   6.261   7.071  0.3635 -0.1771  0.8999
  726MOL0     C95766   8.086   6.154   7.160 -0.3411 -0.4494 -0.4614
  726MOL0     H95767   8.157   6.144   7.694  1.0857  2.0492 -3.1222
  726MOL0     H95768   8.084   6.006   7.906  2.3463 -1.2786  2.2011
  726MOL0     H95769   8.330   5.701   7.931  0.4236 -0.9682  0.1947
  726MOL0     H95770   8.201   5.587   7.985 -2.2391  0.0387 -1.1408
  726MOL0     H95771   8.305   5.816   8.130 -0.4020 -0.0150 -4.2674
  726MOL0     H95772   8.349   5.645   8.168  0.9591 -0.1914  0.3866
  726MOL0     H95773   8.081   5.789   8.189  0.8064 -0.7676 -3.0654
  726MOL0     H95774   8.193   5.773   8.324  1.0357  2.4236 -1.4975
  726MOL0     H95775   8.007   5.555   8.220  1.3008  0.1387 -1.3076
  726MOL0     H95776   8.176   5.509   8.279  0.1138 -0.0538  0.5080
  726MOL0     H95777   7.955   5.679   8.406  0.3628 -0.2642 -1.1285
  726MOL0     H95778   8.106   5.618   8.491  0.6112 -1.2357 -0.2229
  726MOL0     H95779   8.024   5.378   8.469 -0.6618  0.2810  2.7788
  726MOL0     H95780   7.880   5.448   8.391 -2.5509  4.1686  0.1360
  726MOL0     H95781   7.865   5.398   8.647  1.0330 -0.1787 -0.0137
  726MOL0     H95782   8.008   5.505   8.671 -0.0268  1.4092 -1.3562
  726MOL0     H95783   7.869   5.695   8.610 -0.8305  0.9777  1.4678
  726MOL0     H95784   7.827   5.622   8.757 -2.0199 -0.2050  0.1597
  726MOL0     H95785   7.678   5.545   8.410  5.8876  1.6755  1.6881
  726MOL0     H95786   7.306   5.496   8.482 -1.1917 -0.4383 -0.0015
  726MOL0     H95787   7.407   5.351   8.459  1.8648  0.2593 -1.3427
  726MOL0     H95788   7.475   5.442   8.240  1.0095  3.9323 -2.9062
  726MOL0     H95789   7.436   5.599   8.273  0.7634 -0.9433 -1.3546
  726MOL0     H95790   7.234   5.387   8.221 -1.2239  0.1445 -0.2132
  726MOL0     H95791   7.185   5.550   8.281  0.2992  0.1740  1.0099
  726MOL0     H95792   7.366   5.500   8.054  0.8563  2.6229 -0.3116
  726MOL0     H95793   7.275   5.649   8.072  0.3749 -0.0282 -0.2424
  726MOL0     H95794   6.948   5.423   7.873 -1.8449  0.9962 -0.9100
  726MOL0     H95795   6.919   5.464   7.637  0.3198 -0.1887  1.4794
  726MOL0     H95796   6.786   5.648   7.253 -1.7388 -0.8259 -1.1265
  726MOL0     H95797   6.773   5.643   7.003 -0.8877 -1.8866  0.5487
  726MOL0     H95798   7.024   5.634   6.669  3.7288 -2.8804  1.6692
  726MOL0     H95799   7.076   5.695   6.823  0.8665 -1.5235 -0.1093
  726MOL0     H95800   6.932   5.856   6.781  0.0273 -0.1593  1.4151
  726MOL0     H95801   6.808   5.763   6.855  3.1327  0.7113  2.5802
  726MOL0     H95802   6.723   5.867   6.644 -1.0561 -1.2346 -1.0961
  726MOL0     H95803   6.735   5.691   6.627  0.0817  0.4657 -0.8669
  726MOL0     H95804   6.877   5.888   6.454  4.4213 -0.2664 -0.4304
  726MOL0     H95805   6.979   5.771   6.515 -0.3486 -1.7490 -0.7200
  726MOL0     H95806   6.828   5.588   6.441  0.7523  0.3429 -0.5305
  726MOL0     H95807   6.889   5.696   6.314  0.2305 -1.8146 -0.0963
  726MOL0     H95808   6.620   5.713   6.452  0.9518 -3.3751  0.1462
  726MOL0     H95809   6.642   5.630   6.301  3.3318 -0.7572 -1.1517
  726MOL0     H95810   6.644   5.928   6.364  1.2532  1.1735 -1.1107
  726MOL0     H95811   6.707   5.872   6.206  0.7199 -2.2456 -1.0862
  726MOL0     H95812   6.437   5.839   6.317 -2.9503  1.5029 -1.3885
  726MOL0     H95813   6.495   5.771   6.158  0.0479  0.5570 -0.3090
  726MOL0     H95814   7.137   5.432   6.973  0.4315 -0.0680  1.5546
  726MOL0     H95815   7.165   5.430   7.220  0.4613  0.8497  0.7030
  726MOL0     H95816   7.316   5.641   7.625 -0.3289 -2.2834 -0.6937
  726MOL0     H95817   7.341   5.605   7.839  0.6231  1.0813 -2.2748
  726MOL0     H95818   8.213   5.656   7.720 -1.7541  0.5896 -1.3599
  726MOL0     H95819   8.260   5.765   7.500  2.8647 -1.6025  1.4663
  726MOL0     H95820   8.372   6.225   7.322 -0.3760 -1.2455 -0.0766
  726MOL0     H95821   8.396   6.366   7.189  0.4974 -1.1561 -0.2396
  726MOL0     H95822   8.439   6.417   6.974  0.2321  0.9853  0.5566
  726MOL0     H95823   8.363   6.576   7.008 -3.3451 -1.1926  1.5857
  726MOL0     H95824   8.315   6.617   6.774  0.6123 -0.5298 -2.1596
  726MOL0     H95825   8.494   6.565   6.778  0.3397 -0.9770 -1.4759
  726MOL0     H95826   8.267   6.383   6.690 -0.1725  1.9975 -1.5640
  726MOL0     H95827   8.419   6.326   6.754  0.5352 -1.0178  0.0769
  726MOL0     H95828   8.539   6.483   6.574  0.2197  0.5131  1.7876
  726MOL0     H95829   8.451   6.346   6.511 -0.5063  1.5811 -3.4575
  726MOL0     H95830   8.257   6.707   6.386 -2.1393 -3.2234 -2.7535
  726MOL0     H95831   8.010   6.269   7.003  0.7374  1.3494  0.5729
  726MOL0     H95832   7.998   6.089   7.157  1.4336 -2.9941 -0.6623
  727MOL0     O95833   3.418   2.419   9.637  0.1737 -0.2936  0.1536
  727MOL0     C95834   3.487   2.320   9.630 -0.1418  0.5360 -0.1738
  727MOL0     O95835   3.482   2.212   9.718 -0.2504 -0.3150  0.1147
  727MOL0     C95836   3.400   2.208   9.834 -0.6554 -0.1919  0.2671
  727MOL0     C95837   3.438   2.108   9.921 -0.5633 -0.6849  0.0259
  727MOL0     C95838   3.364   2.079  10.033  0.0501 -0.1828 -0.3870
  727MOL0     C95839   3.241   2.148  10.064  0.1162 -0.8912  0.2828
  727MOL0     O95840   3.158   2.120  10.166  0.0713  0.2873 -0.0669
  727MOL0     C95841   3.169   2.020  10.266 -0.4477 -0.0266 -0.4224
  727MOL0     C95842   3.282   2.062  10.363 -1.1592 -0.6672 -0.2341
  727MOL0     C95843   3.290   1.953  10.471 -0.3532  0.3156 -0.3220
  727MOL0     C95844   3.395   2.001  10.581 -0.1910  0.1351 -1.1343
  727MOL0     C95845   3.336   2.103  10.673 -0.1824 -1.1339  0.3656
  727MOL0     C95846   3.440   2.177  10.763 -0.1330  0.7652  0.3214
  727MOL0     C95847   3.526   2.081  10.838 -0.1089  0.0714 -0.7684
  727MOL0     C95848   3.632   2.151  10.920 -0.3320 -0.0847 -0.4350
  727MOL0     N95849   3.724   2.064  11.000 -0.4538 -0.0420  0.0353
  727MOL0     C95850   3.700   1.939  11.048  0.0278  0.1816  0.0765
  727MOL0     C95851   3.799   1.910  11.137  0.6081  0.6849 -0.1719
  727MOL0     C95852   3.792   1.778  11.214 -0.2772 -0.5259  0.0181
  727MOL0     C95853   3.854   1.663  11.129 -0.2187  0.9241 -0.6722
  727MOL0     C95854   3.909   1.538  11.215  0.1894  0.9939  0.2979
  727MOL0     C95855   3.811   1.481  11.307 -0.1646 -0.2845 -0.3580
  727MOL0     O95856   3.731   1.411  11.215  0.0734 -0.4860  0.3002
  727MOL0     C95857   3.601   1.378  11.252 -1.0994 -0.5741  0.4329
  727MOL0     C95858   3.549   1.381  11.377  0.7532  0.9217 -0.3587
  727MOL0     C95859   3.420   1.336  11.405 -0.3338  0.4147  0.1851
  727MOL0     C95860   3.334   1.280  11.308  0.0455  0.1643 -0.0270
  727MOL0     C95861   3.190   1.252  11.342 -0.1690  0.0817 -1.5907
  727MOL0     O95862   3.151   1.258  11.474 -0.1702 -0.4892  0.1959
  727MOL0     C95863   3.016   1.245  11.509 -0.4730  1.2401  0.7157
  727MOL0     C95864   2.946   1.368  11.524  0.5051  0.6224 -0.2578
  727MOL0     C95865   2.805   1.357  11.563 -1.8635 -0.1359 -0.2297
  727MOL0     C95866   2.742   1.230  11.584 -1.0662  1.1369  0.2116
  727MOL0     O95867   2.616   1.226  11.632 -0.3624 -0.2700  0.1047
  727MOL0     C95868   2.571   1.333  11.715 -0.0618  0.5423 -0.0231
  727MOL0     C95869   2.451   1.276  11.788 -0.2641  0.2813 -0.5471
  727MOL0     C95870   2.495   1.241  11.933  0.7768 -0.2975  0.5069
  727MOL0     C95871   2.380   1.173  12.006  0.7133 -0.4497  0.6987
  727MOL0     C95872   2.428   1.172  12.152 -0.3658  0.0274  0.2010
  727MOL0     C95873   2.343   1.075  12.236 -0.5193 -0.1825  1.2283
  727MOL0     C95874   2.395   1.067  12.376 -0.2917 -0.4010 -0.1966
  727MOL0     C95875   2.305   0.974  12.453 -0.1911 -0.2667 -0.8939
  727MOL0    Cl95876   2.160   1.067  12.522  0.1329 -0.0063  0.3508
  727MOL0     C95877   2.816   1.116  11.568 -0.1047 -0.1653 -0.2916
  727MOL0     C95878   2.950   1.123  11.529  0.5947  0.2863  0.8218
  727MOL0     O95879   3.112   1.234  11.250 -0.0594 -0.1441 -0.5576
  727MOL0     C95880   3.391   1.259  11.179 -0.4182 -0.7493 -0.3297
  727MOL0     C95881   3.525   1.305  11.158  0.4027 -0.1023 -0.6185
  727MOL0     N95882   3.889   2.018  11.134 -1.1515  0.1943 -0.4640
  727MOL0     N95883   3.841   2.106  11.048  0.1744  0.1332  0.2976
  727MOL0     C95884   3.204   2.240   9.971 -0.8046 -0.0853  0.4830
  727MOL0     C95885   3.285   2.275   9.856  1.2751  0.1262 -0.3311
  727MOL0     C95886   3.565   2.291   9.511 -0.0535 -0.4973  0.9736
  727MOL0     C95887   3.567   2.387   9.400  0.3097 -0.8437 -0.2140
  727MOL0     C95888   3.649   2.375   9.289 -0.0459 -0.7290 -0.5313
  727MOL0     C95889   3.749   2.273   9.287 -0.0737  0.4444 -0.9309
  727MOL0     O95890   3.832   2.271   9.179  0.1560 -0.1561 -0.6987
  727MOL0     C95891   3.945   2.184   9.178 -0.3294 -0.3280 -0.0335
  727MOL0     C95892   4.000   2.172   9.033 -0.0611 -0.7171  0.3727
  727MOL0     C95893   4.075   2.295   8.995 -0.2303 -1.3089 -0.3386
  727MOL0     C95894   4.157   2.271   8.869  0.3235 -0.2529  0.7352
  727MOL0     C95895   4.284   2.221   8.891  0.5494 -0.3520 -0.3875
  727MOL0     C95896   4.388   2.171   8.910 -0.1218  0.0272  0.0680
  727MOL0     C95897   3.753   2.179   9.391 -0.5344  0.5810 -0.3132
  727MOL0     C95898   3.647   2.175   9.490  0.3566 -1.1831 -0.2693
  727MOL0     H95899   3.528   2.050   9.905  0.8272  1.6069 -0.9866
  727MOL0     H95900   3.397   1.994  10.092  2.7324  0.2415 -1.1376
  727MOL0     H95901   3.175   1.914  10.239  2.2458 -0.3432  1.0277
  727MOL0     H95902   3.078   2.018  10.325 -0.6082 -2.8397 -0.6551
  727MOL0     H95903   3.246   2.158  10.401 -0.9390 -0.6829  0.0126
  727MOL0     H95904   3.374   2.059  10.304 -1.4924  2.4591 -1.0949
  727MOL0     H95905   3.338   1.862  10.432  1.5760  1.7258 -1.4179
  727MOL0     H95906   3.195   1.931  10.520  0.6654  1.3385  2.2954
  727MOL0     H95907   3.437   1.920  10.642  1.4651  0.9569 -1.1137
  727MOL0     H95908   3.489   2.025  10.530  0.5369  0.7330  0.4165
  727MOL0     H95909   3.260   2.059  10.738 -0.5763 -0.1287  0.6154
  727MOL0     H95910   3.283   2.183  10.621 -1.3663 -2.6539 -0.8395
  727MOL0     H95911   3.393   2.244  10.834  0.2756  0.6478  0.7081
  727MOL0     H95912   3.503   2.231  10.691  0.2519 -0.1112 -0.0205
  727MOL0     H95913   3.461   2.018  10.899 -2.1135  2.1938 -0.5840
  727MOL0     H95914   3.582   2.012  10.774  2.9470 -0.1676  1.9079
  727MOL0     H95915   3.578   2.207  10.997  2.5726  1.2464  0.8210
  727MOL0     H95916   3.682   2.236  10.873 -1.0953  0.7918  0.2916
  727MOL0     H95917   3.617   1.873  11.025  2.1205 -1.5142 -3.5458
  727MOL0     H95918   3.691   1.748  11.242  0.9667 -1.1814  4.6576
  727MOL0     H95919   3.845   1.790  11.309 -1.0257  0.0010  0.3757
  727MOL0     H95920   3.938   1.701  11.069 -2.1681  0.5936 -3.8325
  727MOL0     H95921   3.778   1.629  11.058  0.3214  0.4566 -1.0323
  727MOL0     H95922   3.941   1.456  11.150 -0.8283 -1.1046  2.2898
  727MOL0     H95923   4.004   1.572  11.256  1.2699 -1.3236 -0.1026
  727MOL0     H95924   3.762   1.558  11.367 -1.0054 -0.8545 -0.2933
  727MOL0     H95925   3.856   1.415  11.382 -2.0715 -1.0097  0.1950
  727MOL0     H95926   3.620   1.416  11.452  0.7033  0.9822 -0.3393
  727MOL0     H95927   3.392   1.335  11.510 -1.3072 -1.8637 -0.0392
  727MOL0     H95928   2.987   1.466  11.504 -2.7394  2.1087 -0.3330
  727MOL0     H95929   2.752   1.452  11.561 -0.8456  0.4970  1.1519
  727MOL0     H95930   2.534   1.412  11.649 -0.4437 -1.0081 -1.7479
  727MOL0     H95931   2.652   1.374  11.776 -1.0133  3.0275 -0.3209
  727MOL0     H95932   2.396   1.202  11.730  1.3578 -0.0778 -1.6957
  727MOL0     H95933   2.377   1.354  11.809  1.9582  2.0112  1.4102
  727MOL0     H95934   2.546   1.326  11.979 -0.2965  0.1108  0.9765
  727MOL0     H95935   2.575   1.166  11.931 -0.1746 -1.3272 -0.7895
  727MOL0     H95936   2.287   1.231  12.003 -0.3272 -1.9862  1.4359
  727MOL0     H95937   2.355   1.075  11.964 -2.1108  0.5406 -0.1632
  727MOL0     H95938   2.423   1.276  12.188  2.2125  0.4288 -0.4052
  727MOL0     H95939   2.530   1.133  12.159 -1.4002 -2.6565  2.0792
  727MOL0     H95940   2.346   0.978  12.186  3.9100 -0.5130  1.7554
  727MOL0     H95941   2.236   1.095  12.249 -1.0384 -2.7530  1.4601
  727MOL0     H95942   2.489   1.011  12.366 -1.7129 -3.1791  0.8285
  727MOL0     H95943   2.423   1.166  12.412 -0.3286 -0.3002 -0.4466
  727MOL0     H95944   2.352   0.922  12.537 -0.3166  0.7538 -0.1678
  727MOL0     H95945   2.271   0.889  12.394 -0.7761 -2.8279  2.7695
  727MOL0     H95946   2.757   1.031  11.602 -1.5273  0.9175  0.0426
  727MOL0     H95947   3.004   1.029  11.523 -1.4960 -1.0002  1.0233
  727MOL0     H95948   3.318   1.221  11.107 -3.0670  2.5207  0.3554
  727MOL0     H95949   3.551   1.275  11.057 -1.7847 -3.1928 -0.4256
  727MOL0     H95950   3.109   2.289   9.988 -1.6728 -1.7822  0.7355
  727MOL0     H95951   3.250   2.357   9.794  2.0729 -0.5910 -1.8039
  727MOL0     H95952   3.497   2.469   9.410  2.6528  0.9670  3.7595
  727MOL0     H95953   3.648   2.443   9.205  0.7830 -0.7144 -0.5305
  727MOL0     H95954   3.925   2.084   9.216  2.7545 -1.1137 -0.1955
  727MOL0     H95955   4.018   2.232   9.243 -3.5394  2.0029  2.1446
  727MOL0     H95956   4.072   2.089   9.033  2.4728  1.2981 -2.0149
  727MOL0     H95957   3.921   2.157   8.959 -0.3418  0.6545  0.3703
  727MOL0     H95958   4.133   2.342   9.075 -1.5289 -0.5409  0.2026
  727MOL0     H95959   3.991   2.362   8.975  0.4429 -0.3369  0.0043
  727MOL0     H95960   4.097   2.196   8.817  0.6549 -0.4575  0.6528
  727MOL0     H95961   4.166   2.365   8.814  0.6693 -0.1960  0.8890
  727MOL0     H95962   4.478   2.120   8.940 -0.8492 -0.9230  0.7134
  727MOL0     H95963   3.825   2.097   9.393 -1.1676  0.0259 -0.0514
  727MOL0     H95964   3.638   2.098   9.566 -2.3708  0.5954  1.3838
  728MOL0     O95965   0.964   1.472  11.069 -0.3751 -0.0659  0.3764
  728MOL0     C95966   0.915   1.459  11.180 -0.0166  1.1301 -0.4502
  728MOL0     O95967   0.946   1.342  11.255 -0.0891 -0.2187 -0.3714
  728MOL0     C95968   0.996   1.232  11.195 -0.4990 -0.4095 -0.6127
  728MOL0     C95969   1.083   1.155  11.280 -0.0163  0.1584  0.4722
  728MOL0     C95970   1.148   1.037  11.237  0.4913  0.6770  0.3150
  728MOL0     C95971   1.136   0.997  11.111 -0.1933 -0.1118  0.0940
  728MOL0     O95972   1.203   0.886  11.065  0.0486  0.4728  0.6204
  728MOL0     C95973   1.142   0.802  10.962 -1.0802 -0.3949 -0.2896
  728MOL0     C95974   1.224   0.674  10.956 -0.5427  0.1805  0.1346
  728MOL0     C95975   1.162   0.563  11.038 -0.9378  0.1265  0.6379
  728MOL0     C95976   1.034   0.499  10.974  0.3839  0.4188 -0.4067
  728MOL0     C95977   1.071   0.410  10.852 -0.1889  0.7556 -0.2372
  728MOL0     C95978   0.958   0.362  10.770  0.4979 -0.9649 -0.4978
  728MOL0     C95979   0.861   0.462  10.702 -0.9213 -0.0098  0.2438
  728MOL0     C95980   0.733   0.492  10.782 -0.2091  0.2187  0.4787
  728MOL0     N95981   0.649   0.583  10.702 -0.6055 -0.5899  0.2813
  728MOL0     C95982   0.670   0.726  10.713 -1.2114 -0.2748 -0.0643
  728MOL0     C95983   0.554   0.775  10.666  0.0569  0.5361  0.0533
  728MOL0     C95984   0.524   0.923  10.666 -0.0430  0.1179 -0.3359
  728MOL0     C95985   0.429   0.952  10.781 -0.0437  0.1151  0.5810
  728MOL0     C95986   0.378   1.097  10.805 -0.2163  0.9318 -0.2247
  728MOL0     C95987   0.345   1.174  10.674 -0.3735  1.2355  0.8857
  728MOL0     O95988   0.457   1.208  10.600 -0.3384 -1.2002  0.2041
  728MOL0     C95989   0.495   1.335  10.630 -0.8916  0.2916  0.7124
  728MOL0     C95990   0.441   1.450  10.570  0.4031  0.0519 -0.1845
  728MOL0     C95991   0.463   1.579  10.613 -0.1692  0.4571  0.3485
  728MOL0     C95992   0.561   1.603  10.718  0.0891  0.2629 -0.5493
  728MOL0     C95993   0.593   1.740  10.761 -0.7535  0.1406  0.0980
  728MOL0     O95994   0.530   1.843  10.705  0.5945 -0.1114 -0.0531
  728MOL0     C95995   0.558   1.975  10.742  0.0690 -0.4439  0.3641
  728MOL0     C95996   0.535   2.017  10.871  0.8339  0.4174  0.4112
  728MOL0     C95997   0.579   2.141  10.899  0.3774 -1.0703  0.5668
  728MOL0     C95998   0.649   2.226  10.802 -0.5320  1.2228  0.2209
  728MOL0     O95999   0.687   2.345  10.851 -0.2074  0.1806 -0.6724
  728MOL0     C96000   0.809   2.395  10.803 -0.7870  0.2811 -0.2686
  728MOL0     C96001   0.853   2.503  10.898  0.2431 -0.3668  0.5585
  728MOL0     C96002   1.005   2.528  10.873 -0.0749  0.5556 -0.6588
  728MOL0     C96003   1.031   2.600  10.741 -0.4069 -0.2785 -0.1479
  728MOL0     C96004   1.131   2.541  10.642  1.1870  0.0172  0.6303
  728MOL0     C96005   1.130   2.612  10.505 -0.3287 -0.2761  0.9728
  728MOL0     C96006   1.023   2.558  10.413 -0.6719  0.0382  0.8104
  728MOL0     C96007   1.007   2.673  10.312  0.3078  0.3430 -0.6471
  728MOL0    Cl96008   0.937   2.827  10.363  0.3723  0.1676  0.0365
  728MOL0     C96009   0.684   2.172  10.678 -0.0204  0.3496  0.6903
  728MOL0     C96010   0.636   2.049  10.651  0.0174 -0.5761 -0.5667
  728MOL0     O96011   0.688   1.753  10.843 -0.3763  0.9455 -0.0660
  728MOL0     C96012   0.628   1.495  10.778  0.0869  0.3518  0.3926
  728MOL0     C96013   0.595   1.363  10.725  0.8693 -0.5016  0.3165
  728MOL0     N96014   0.470   0.674  10.623  0.6029 -0.2488 -0.6125
  728MOL0     N96015   0.529   0.562  10.651  0.8369  0.6374  1.1218
  728MOL0     C96016   1.047   1.070  11.020 -0.0393 -0.4156 -0.0250
  728MOL0     C96017   0.986   1.189  11.064 -0.1255 -0.1500  0.3960
  728MOL0     C96018   0.833   1.575  11.232 -0.6303  0.5179  0.6199
  728MOL0     C96019   0.806   1.684  11.148  0.3752  0.6945 -0.2500
  728MOL0     C96020   0.735   1.788  11.208 -0.0245 -0.5531  0.0235
  728MOL0     C96021   0.686   1.776  11.339 -0.3549  0.4825  1.0104
  728MOL0     O96022   0.614   1.879  11.401  0.4162 -0.8479  0.5445
  728MOL0     C96023   0.647   1.935  11.533  0.9198  0.2732 -1.0314
  728MOL0     C96024   0.596   2.074  11.546  0.2603 -0.3638 -0.0650
  728MOL0     C96025   0.442   2.076  11.523  0.9730 -0.3478  0.4919
  728MOL0     C96026   0.376   2.176  11.608  0.3308 -0.3318  0.0677
  728MOL0     C96027   0.437   2.317  11.594  0.9166  0.2334  0.3720
  728MOL0     C96028   0.488   2.427  11.611  0.3042 -0.5701  0.0882
  728MOL0     C96029   0.725   1.675  11.415  0.3489 -0.1133 -0.0174
  728MOL0     C96030   0.797   1.575  11.361  0.6305  0.6122 -0.1834
  728MOL0     H96031   1.100   1.181  11.384  2.1353  2.3829 -0.3411
  728MOL0     H96032   1.215   0.972  11.292 -1.2899 -1.2360  0.3928
  728MOL0     H96033   1.140   0.856  10.867 -0.5234  3.2855  1.6208
  728MOL0     H96034   1.036   0.786  10.982 -1.3174  1.4489  0.0895
  728MOL0     H96035   1.329   0.691  10.979  0.7129 -0.4784 -4.2082
  728MOL0     H96036   1.224   0.633  10.855 -2.9684 -2.1284  0.9553
  728MOL0     H96037   1.139   0.583  11.143 -2.5203 -0.7235  0.4788
  728MOL0     H96038   1.238   0.485  11.042 -3.2979 -2.6066 -2.2465
  728MOL0     H96039   0.989   0.433  11.048  1.0812 -0.6723 -0.9328
  728MOL0     H96040   0.966   0.583  10.954  2.1649  2.4347  1.4774
  728MOL0     H96041   1.132   0.328  10.892  0.8389  1.5143 -0.1983
  728MOL0     H96042   1.130   0.478  10.789 -1.6288  0.4914 -1.9529
  728MOL0     H96043   0.903   0.296  10.836  2.3425 -0.2909  1.8575
  728MOL0     H96044   0.994   0.302  10.686  0.3899 -1.1759 -0.3934
  728MOL0     H96045   0.921   0.553  10.696  2.9969 -2.0675  3.2890
  728MOL0     H96046   0.840   0.431  10.600 -0.2914 -0.4099  0.2278
  728MOL0     H96047   0.765   0.538  10.876  0.0732 -1.0193  1.0064
  728MOL0     H96048   0.672   0.405  10.808  1.9566 -0.9314  2.0316
  728MOL0     H96049   0.752   0.780  10.762 -1.8235 -0.7161  1.5063
  728MOL0     H96050   0.473   0.952  10.574  2.0366 -1.6527 -2.1679
  728MOL0     H96051   0.611   0.989  10.675 -0.8041  1.1506 -0.3482
  728MOL0     H96052   0.480   0.921  10.872  2.9618  3.7247  0.3497
  728MOL0     H96053   0.345   0.883  10.767 -0.1695  0.2331  0.7530
  728MOL0     H96054   0.284   1.092  10.860 -0.5231  0.7209 -0.7643
  728MOL0     H96055   0.449   1.157  10.863  2.8684 -1.1824 -1.5552
  728MOL0     H96056   0.285   1.262  10.698  1.4256  2.4716  0.9991
  728MOL0     H96057   0.278   1.113  10.612 -1.1593  3.2111 -0.2924
  728MOL0     H96058   0.374   1.419  10.490 -0.4522  0.5382  0.3357
  728MOL0     H96059   0.412   1.662  10.566 -1.9861 -1.5192 -1.4101
  728MOL0     H96060   0.480   1.956  10.942  0.6909  0.6124  0.4685
  728MOL0     H96061   0.566   2.189  10.996  4.4752  4.1838 -0.9965
  728MOL0     H96062   0.804   2.440  10.704  2.3359 -1.2239 -1.2544
  728MOL0     H96063   0.879   2.310  10.806 -2.3573 -1.0331  0.3189
  728MOL0     H96064   0.845   2.477  11.004 -0.7328  1.6615  1.0203
  728MOL0     H96065   0.796   2.596  10.894 -1.3817 -1.2736  1.2824
  728MOL0     H96066   1.051   2.429  10.866 -2.4634 -0.5206 -2.7435
  728MOL0     H96067   1.045   2.582  10.959 -0.8335  0.4708 -0.2450
  728MOL0     H96068   0.938   2.608  10.684  0.6105  1.1906 -1.6700
  728MOL0     H96069   1.056   2.705  10.759 -2.0077  0.7729 -3.3549
  728MOL0     H96070   1.103   2.436  10.630 -0.5540  0.2217  2.4384
  728MOL0     H96071   1.230   2.535  10.688  1.1161 -3.1604  0.5935
  728MOL0     H96072   1.219   2.579  10.452 -2.1247  0.6436 -2.9607
  728MOL0     H96073   1.121   2.720  10.518 -0.6183 -0.1292 -0.3100
  728MOL0     H96074   1.051   2.471  10.353  0.5908  0.5021  0.7043
  728MOL0     H96075   0.929   2.536  10.464 -3.0896  1.5633 -2.5810
  728MOL0     H96076   0.948   2.645  10.224 -1.3281  4.6528 -1.2143
  728MOL0     H96077   1.110   2.687  10.278  0.9297 -0.7852  0.6795
  728MOL0     H96078   0.726   2.238  10.604 -1.5221  0.3573 -0.1878
  728MOL0     H96079   0.651   2.005  10.553 -1.3919 -0.2967 -0.9304
  728MOL0     H96080   0.714   1.516  10.842  0.5319 -0.4373  0.0690
  728MOL0     H96081   0.661   1.281  10.751  1.1944 -0.2674  0.2365
  728MOL0     H96082   1.042   1.038  10.916  3.3402  0.4923 -0.6033
  728MOL0     H96083   0.918   1.252  11.007  0.6041  0.5446  0.2772
  728MOL0     H96084   0.834   1.682  11.043  0.9338 -3.3061 -0.1429
  728MOL0     H96085   0.719   1.882  11.157  1.7982  0.6389  1.5014
  728MOL0     H96086   0.755   1.950  11.540  0.9637  1.1784 -2.8604
  728MOL0     H96087   0.610   1.866  11.609  0.9795  0.0707 -1.1829
  728MOL0     H96088   0.611   2.114  11.647 -0.7353 -1.3327  0.4839
  728MOL0     H96089   0.638   2.136  11.466 -3.1266 -0.4758 -2.1380
  728MOL0     H96090   0.397   1.977  11.519  2.4233 -0.9907 -1.9343
  728MOL0     H96091   0.434   2.115  11.421  1.8053  0.2492  0.6344
  728MOL0     H96092   0.269   2.188  11.587  0.5573 -0.1714 -1.0534
  728MOL0     H96093   0.386   2.144  11.712  1.8518  0.5812  0.2288
  728MOL0     H96094   0.535   2.522  11.626 -1.6278  0.0644  3.0911
  728MOL0     H96095   0.681   1.661  11.514 -0.6243 -1.5353 -0.6174
  728MOL0     H96096   0.812   1.489  11.425  1.2403 -0.2246 -1.4290
  729MOL0     O96097   3.213   9.530   5.804 -0.3151  0.7707 -0.2597
  729MOL0     C96098   3.183   9.428   5.742  0.3343  0.1689 -0.2890
  729MOL0     O96099   3.270   9.324   5.707  0.4895 -0.8838  0.4856
  729MOL0     C96100   3.402   9.328   5.739  0.1166  0.3262 -0.6101
  729MOL0     C96101   3.446   9.314   5.871 -0.0563 -0.1297  0.0059
  729MOL0     C96102   3.580   9.319   5.910 -0.7974 -0.0594  0.0653
  729MOL0     C96103   3.669   9.343   5.805  0.1311 -0.2612 -0.1568
  729MOL0     O96104   3.800   9.369   5.816  0.6280  0.2618  0.1016
  729MOL0     C96105   3.879   9.296   5.904  0.4251 -0.2259 -0.5878
  729MOL0     C96106   4.014   9.375   5.897  0.4203 -0.6814  0.9584
  729MOL0     C96107   4.069   9.381   6.046  0.5799 -0.4432 -0.4612
  729MOL0     C96108   4.122   9.237   6.090  0.1580  0.1786 -0.5391
  729MOL0     C96109   4.268   9.213   6.072  0.2755  0.1249  0.4073
  729MOL0     C96110   4.357   9.255   6.181  0.0140 -0.2579 -0.6707
  729MOL0     C96111   4.347   9.182   6.316  0.4655 -0.2201  0.9482
  729MOL0     C96112   4.464   9.232   6.400 -0.1875  0.1719  0.2105
  729MOL0     N96113   4.491   9.156   6.524 -0.1744 -0.0865 -0.3589
  729MOL0     C96114   4.404   9.132   6.620  0.2386 -0.3622 -0.6331
  729MOL0     C96115   4.469   9.046   6.708 -0.0415 -0.1342  0.1530
  729MOL0     C96116   4.407   8.962   6.817 -0.0142  0.4842 -0.0225
  729MOL0     C96117   4.497   8.867   6.895  0.0811  1.0076  0.0520
  729MOL0     C96118   4.430   8.779   6.995  0.4506  0.0092  0.6530
  729MOL0     C96119   4.307   8.840   7.049  0.0597 -0.2184 -0.1539
  729MOL0     O96120   4.329   8.946   7.139 -0.2697 -0.5838 -0.2692
  729MOL0     C96121   4.237   9.052   7.140 -0.4558 -0.4437 -0.6515
  729MOL0     C96122   4.096   9.024   7.133  0.0922 -0.4762  0.4393
  729MOL0     C96123   4.007   9.131   7.136  0.8224  0.4782 -0.1936
  729MOL0     C96124   4.048   9.266   7.148  0.0893  0.2515  0.7142
  729MOL0     C96125   3.954   9.384   7.139  0.7657 -0.7521 -0.2505
  729MOL0     O96126   3.987   9.509   7.196  1.1585  0.4796  0.8122
  729MOL0     C96127   3.899   9.610   7.170 -0.6044  0.5990 -0.6229
  729MOL0     C96128   3.763   9.597   7.171  0.2337 -1.1938  0.2580
  729MOL0     C96129   3.677   9.714   7.158  0.4641 -0.1817  0.7303
  729MOL0     C96130   3.737   9.832   7.122  0.0795 -0.4803  0.4646
  729MOL0     O96131   3.675   9.953   7.092  0.4723 -0.0015 -0.4789
  729MOL0     C96132   3.548   9.983   7.164  0.5078  0.4989 -0.0245
  729MOL0     C96133   3.518  10.133   7.170  0.4759  0.6092 -0.1859
  729MOL0     C96134   3.376  10.164   7.235 -0.2830  0.4368  0.5069
  729MOL0     C96135   3.377  10.138   7.387  0.5435  1.5635 -0.1295
  729MOL0     C96136   3.233  10.128   7.430  0.1785 -0.3610 -0.0848
  729MOL0     C96137   3.168  10.270   7.425  0.0081  0.3368 -0.4600
  729MOL0     C96138   3.020  10.260   7.465 -0.2373 -0.0022 -0.0211
  729MOL0     C96139   3.014  10.265   7.613  1.5228  0.0139 -0.0957
  729MOL0    Cl96140   2.843  10.299   7.675 -0.2352 -0.4055 -0.2092
  729MOL0     C96141   3.875   9.844   7.109  0.8478 -0.3993 -0.0483
  729MOL0     C96142   3.958   9.730   7.127 -0.1618 -1.2399 -0.5047
  729MOL0     O96143   3.856   9.351   7.074  0.1537 -1.1307 -0.5353
  729MOL0     C96144   4.185   9.300   7.165  0.1719 -0.2592  1.4244
  729MOL0     C96145   4.281   9.191   7.168 -0.0921  0.3039 -0.0616
  729MOL0     N96146   4.596   9.037   6.668 -0.4039 -0.8678 -0.6529
  729MOL0     N96147   4.605   9.096   6.554  0.4586  0.8548 -0.5434
  729MOL0     C96148   3.627   9.354   5.672  0.4754  0.2652  1.0813
  729MOL0     C96149   3.495   9.337   5.636  1.2104 -0.0739 -0.4139
  729MOL0     C96150   3.037   9.404   5.702 -0.0328 -0.2114 -0.3085
  729MOL0     C96151   3.004   9.318   5.601 -1.1510 -0.5479 -0.7613
  729MOL0     C96152   2.871   9.280   5.569 -0.6979 -0.2151  0.6690
  729MOL0     C96153   2.769   9.341   5.640 -0.1363  0.2477 -0.2569
  729MOL0     O96154   2.632   9.320   5.626  0.6609  0.6026  0.8966
  729MOL0     C96155   2.594   9.206   5.550  0.3921  0.5749 -0.3039
  729MOL0     C96156   2.447   9.207   5.538  0.0380  0.3185  0.2263
  729MOL0     C96157   2.377   9.201   5.682 -0.4441  0.1225 -0.1682
  729MOL0     C96158   2.407   9.069   5.759 -0.9744  0.3013 -0.1361
  729MOL0     C96159   2.304   9.031   5.862  0.3240  0.4173  0.5494
  729MOL0     C96160   2.208   9.019   5.943 -0.0477  0.4872 -0.4403
  729MOL0     C96161   2.801   9.441   5.734 -0.8916 -0.5117  0.1897
  729MOL0     C96162   2.933   9.474   5.761 -0.1716 -0.3016  0.0323
  729MOL0     H96163   3.367   9.283   5.939  0.3687  1.6556  1.4014
  729MOL0     H96164   3.621   9.285   6.005 -2.0153 -1.1832  0.2227
  729MOL0     H96165   3.899   9.197   5.861  1.6632  0.9141 -2.8436
  729MOL0     H96166   3.831   9.303   6.002  0.0790 -4.2444 -0.3236
  729MOL0     H96167   3.998   9.471   5.847 -1.2667 -1.8940 -1.0175
  729MOL0     H96168   4.080   9.312   5.836  2.3152  0.6477  1.5613
  729MOL0     H96169   3.990   9.408   6.116 -0.2839 -0.9616 -1.2084
  729MOL0     H96170   4.140   9.463   6.037 -0.5772  0.6217 -0.2533
  729MOL0     H96171   4.086   9.216   6.191 -1.0361 -1.0689 -1.1901
  729MOL0     H96172   4.073   9.166   6.023  2.0561  0.3532 -2.2435
  729MOL0     H96173   4.310   9.249   5.977  1.8313  0.5082  1.2151
  729MOL0     H96174   4.283   9.105   6.084  1.5034  0.5375  3.0663
  729MOL0     H96175   4.348   9.362   6.203 -2.0221 -1.0053  2.9297
  729MOL0     H96176   4.461   9.246   6.146 -0.4012  0.1193 -2.0553
  729MOL0     H96177   4.257   9.216   6.368  0.0994 -0.2030  0.3157
  729MOL0     H96178   4.341   9.073   6.309  3.7131 -0.3739 -1.6792
  729MOL0     H96179   4.451   9.340   6.413  1.7986  0.3582  0.9427
  729MOL0     H96180   4.559   9.240   6.347 -0.2839  2.0892  0.2741
  729MOL0     H96181   4.298   9.153   6.625  0.3387 -0.0379  0.2700
  729MOL0     H96182   4.323   8.906   6.775 -0.6114  0.7833  0.7543
  729MOL0     H96183   4.359   9.032   6.886 -3.0596 -1.8698  0.4811
  729MOL0     H96184   4.556   8.929   6.963  0.2862 -0.4164  1.2176
  729MOL0     H96185   4.569   8.802   6.845  2.3515  1.3475  2.6414
  729MOL0     H96186   4.392   8.687   6.949  0.8625 -1.6479  3.3759
  729MOL0     H96187   4.497   8.758   7.079 -0.7421 -0.9111  1.3982
  729MOL0     H96188   4.271   8.763   7.117  0.7060  0.9090  1.5498
  729MOL0     H96189   4.231   8.849   6.971 -1.0884  0.8110  1.0404
  729MOL0     H96190   4.071   8.919   7.136 -1.3217 -0.4063 -3.1335
  729MOL0     H96191   3.905   9.100   7.114  0.3919  3.1741 -2.5187
  729MOL0     H96192   3.727   9.505   7.214 -4.0708  2.5076  6.0092
  729MOL0     H96193   3.572   9.719   7.184 -0.7464  0.6065 -3.4795
  729MOL0     H96194   3.553   9.935   7.262 -1.7023  1.7977  0.7917
  729MOL0     H96195   3.462   9.939   7.112  0.3348  1.5469 -0.6451
  729MOL0     H96196   3.517  10.171   7.067 -0.6802 -6.2215 -3.2020
  729MOL0     H96197   3.585  10.195   7.230 -0.1475 -0.5319  1.7893
  729MOL0     H96198   3.299  10.102   7.188  0.4160  1.0192 -1.4827
  729MOL0     H96199   3.338  10.262   7.204 -1.4159  0.1470  0.9455
  729MOL0     H96200   3.431  10.046   7.409 -0.6932  0.8428  0.0250
  729MOL0     H96201   3.419  10.228   7.432  0.3736  1.7097 -0.2593
  729MOL0     H96202   3.233  10.091   7.533 -0.3468  0.4212  0.2102
  729MOL0     H96203   3.177  10.047   7.381 -1.2223 -2.6007  4.6099
  729MOL0     H96204   3.171  10.300   7.320  4.4307 -0.7018 -0.8152
  729MOL0     H96205   3.228  10.348   7.473  0.4079 -1.7825  2.7391
  729MOL0     H96206   2.958  10.343   7.431 -1.3222 -0.5981  0.4151
  729MOL0     H96207   2.958  10.170   7.452 -2.3809  1.0537  2.0934
  729MOL0     H96208   3.083  10.337   7.657  1.8823 -0.1851 -0.3247
  729MOL0     H96209   3.048  10.167   7.645  3.7514  1.2503  1.6001
  729MOL0     H96210   3.928   9.928   7.066  1.2176 -0.6568 -0.0968
  729MOL0     H96211   4.066   9.739   7.121 -0.1552  0.6002  1.3445
  729MOL0     H96212   4.232   9.397   7.169 -2.2566  0.9990  1.3111
  729MOL0     H96213   4.389   9.198   7.175 -0.0589 -1.0842  1.6564
  729MOL0     H96214   3.700   9.358   5.592 -0.0059  2.5356  0.6803
  729MOL0     H96215   3.471   9.332   5.530  3.8549 -0.5196 -1.0566
  729MOL0     H96216   3.083   9.266   5.548 -0.1319 -1.4366  1.5003
  729MOL0     H96217   2.847   9.204   5.496 -1.8824 -0.0324  0.8511
  729MOL0     H96218   2.631   9.119   5.606 -1.2045  0.1891  0.1788
  729MOL0     H96219   2.643   9.204   5.452  0.6036  2.5007 -0.2718
  729MOL0     H96220   2.411   9.295   5.484 -2.2231 -1.9146 -2.2259
  729MOL0     H96221   2.424   9.126   5.468  2.4553  0.5550 -0.9229
  729MOL0     H96222   2.268   9.206   5.681 -0.4588  3.8455  1.8433
  729MOL0     H96223   2.413   9.278   5.751  3.2591 -1.2518 -0.3052
  729MOL0     H96224   2.405   8.987   5.686 -4.4872  1.5156 -1.6234
  729MOL0     H96225   2.502   9.066   5.814  1.4853 -0.3201 -3.9851
  729MOL0     H96226   2.119   9.010   6.001  0.0368 -0.3387 -0.4283
  729MOL0     H96227   2.719   9.499   5.776 -0.7956 -0.6476  0.5662
  729MOL0     H96228   2.957   9.541   5.843  2.7669 -3.7665  2.3404
  730MOL0     O96229   1.179   1.351   8.230  0.2853 -0.1490  0.1343
  730MOL0     C96230   1.245   1.446   8.182  0.9410 -0.9026 -0.3045
  730MOL0     O96231   1.389   1.451   8.182 -0.0054  0.6754 -0.2722
  730MOL0     C96232   1.456   1.336   8.227 -0.2610  0.7265 -0.0334
  730MOL0     C96233   1.532   1.351   8.344 -0.0769  0.9894  0.0026
  730MOL0     C96234   1.607   1.237   8.386  0.4175  0.4431  0.6864
  730MOL0     C96235   1.601   1.112   8.314  0.1214 -0.8792 -0.5013
  730MOL0     O96236   1.661   0.998   8.357  0.5721  0.3958 -0.3412
  730MOL0     C96237   1.734   0.998   8.476  0.0591 -0.0233 -0.4759
  730MOL0     C96238   1.797   0.853   8.487  0.1619 -0.5763  0.3766
  730MOL0     C96239   1.873   0.828   8.610 -0.4720  0.6780 -0.6214
  730MOL0     C96240   1.943   0.683   8.612  0.5503  1.3868 -0.6017
  730MOL0     C96241   2.022   0.649   8.742 -0.4563 -1.1171 -0.3605
  730MOL0     C96242   2.094   0.516   8.736  0.1319  1.1936 -0.2426
  730MOL0     C96243   2.179   0.488   8.860  0.7323 -0.2382  0.1153
  730MOL0     C96244   2.100   0.505   8.979 -1.3125 -0.1224  0.3113
  730MOL0     N96245   2.167   0.485   9.106  0.3083 -0.6534  0.2703
  730MOL0     C96246   2.263   0.559   9.167 -0.1819 -0.0215  0.4309
  730MOL0     C96247   2.266   0.512   9.295 -0.1808  0.1261 -0.1728
  730MOL0     C96248   2.367   0.570   9.391 -0.2289  0.3979  0.4793
  730MOL0     C96249   2.498   0.620   9.333 -0.7242  0.2207 -0.0302
  730MOL0     C96250   2.581   0.690   9.431 -0.1586  0.9077 -0.1015
  730MOL0     C96251   2.716   0.740   9.377 -1.2279  0.3208  0.4459
  730MOL0     O96252   2.704   0.834   9.274 -0.4320 -0.3004 -0.3015
  730MOL0     C96253   2.821   0.890   9.219 -0.2462 -0.1269 -0.7942
  730MOL0     C96254   2.810   0.989   9.124  0.0622 -0.3501 -0.2036
  730MOL0     C96255   2.922   1.049   9.062  0.7058 -0.2857  0.2881
  730MOL0     C96256   3.047   1.007   9.100  0.1816 -0.8940  1.0046
  730MOL0     C96257   3.166   1.072   9.050 -0.4105 -0.2804  1.3365
  730MOL0     O96258   3.281   1.024   9.112  0.0627 -0.0676  0.7418
  730MOL0     C96259   3.407   1.035   9.058  0.3902 -1.1615  0.3124
  730MOL0     C96260   3.456   0.969   8.946  0.1151  0.7780 -0.4670
  730MOL0     C96261   3.573   0.997   8.883  0.5224 -0.5513  0.2067
  730MOL0     C96262   3.652   1.099   8.934 -0.2306  0.1703  0.5381
  730MOL0     O96263   3.768   1.152   8.886  0.5290 -0.6649 -0.0026
  730MOL0     C96264   3.820   1.097   8.769 -0.8084 -1.1755  0.0757
  730MOL0     C96265   3.944   1.184   8.745 -0.2138 -0.1879 -0.7119
  730MOL0     C96266   4.046   1.222   8.861  0.5849 -0.2560 -0.2054
  730MOL0     C96267   4.098   1.101   8.936 -0.0947 -0.5176  0.1091
  730MOL0     C96268   4.180   1.124   9.063  1.8891 -0.9325  0.3602
  730MOL0     C96269   4.109   1.219   9.161  0.2573  0.8078 -0.0350
  730MOL0     C96270   3.968   1.182   9.211 -1.1165  0.0811 -0.1285
  730MOL0     C96271   3.929   1.265   9.329  0.5483 -0.1439 -0.6345
  730MOL0    Cl96272   3.775   1.195   9.396  0.1888  0.2843  0.2016
  730MOL0     C96273   3.620   1.137   9.066  1.0737 -0.2457  0.9244
  730MOL0     C96274   3.492   1.122   9.123 -0.3161  0.4845  0.0604
  730MOL0     O96275   3.164   1.154   8.952  0.4221  0.1248 -0.4586
  730MOL0     C96276   3.063   0.905   9.199  0.3185  0.6872  0.2157
  730MOL0     C96277   2.945   0.842   9.247 -1.0878 -0.4550 -0.1819
  730MOL0     N96278   2.178   0.409   9.305 -0.6180  0.2078  0.5286
  730MOL0     N96279   2.115   0.390   9.191 -1.1248 -0.0394 -0.6540
  730MOL0     C96280   1.519   1.097   8.203 -0.5571 -0.3661 -0.3826
  730MOL0     C96281   1.453   1.215   8.159  0.6278  0.4208 -0.1880
  730MOL0     C96282   1.174   1.551   8.118  0.7305 -0.4928 -0.2576
  730MOL0     C96283   1.035   1.570   8.140  0.2174 -0.4358  0.6876
  730MOL0     C96284   0.967   1.670   8.066  0.4458 -0.5763  0.4233
  730MOL0     C96285   1.031   1.747   7.969 -0.4730  0.0129 -0.2778
  730MOL0     O96286   0.967   1.838   7.891 -0.2001 -0.2141  0.2401
  730MOL0     C96287   0.955   1.967   7.947  0.3265  0.2074  0.2491
  730MOL0     C96288   0.803   1.997   7.949 -0.6172  1.2267 -0.7623
  730MOL0     C96289   0.762   2.140   7.973  1.4061  0.6709  0.2964
  730MOL0     C96290   0.785   2.184   8.119  0.5327 -0.5371  0.7289
  730MOL0     C96291   0.676   2.151   8.207 -0.1365 -0.0523  1.1042
  730MOL0     C96292   0.589   2.124   8.281 -0.0084 -0.2387  0.5314
  730MOL0     C96293   1.170   1.740   7.965  0.5043 -0.8503 -0.6996
  730MOL0     C96294   1.244   1.646   8.043  0.3137  0.1322  0.4812
  730MOL0     H96295   1.525   1.439   8.408 -2.9668 -0.1248  1.3828
  730MOL0     H96296   1.667   1.254   8.474  0.0672  1.5882  0.7080
  730MOL0     H96297   1.679   1.009   8.570  1.9631 -1.1237  0.8295
  730MOL0     H96298   1.821   1.064   8.475 -1.0140  1.4462 -0.9216
  730MOL0     H96299   1.858   0.827   8.400  2.1454  2.8548  0.5693
  730MOL0     H96300   1.717   0.779   8.484 -1.5392  1.0971  2.0543
  730MOL0     H96301   1.804   0.820   8.695  0.0228  1.9065 -0.0716
  730MOL0     H96302   1.938   0.914   8.632 -0.5901  1.3784 -2.7788
  730MOL0     H96303   1.869   0.603   8.608  1.3077  0.6313  0.1632
  730MOL0     H96304   2.005   0.687   8.522  1.4021  1.1836 -0.0443
  730MOL0     H96305   1.956   0.649   8.829  1.6569  0.9033  1.3779
  730MOL0     H96306   2.100   0.722   8.766 -0.7119  0.0424 -2.7648
  730MOL0     H96307   2.149   0.516   8.641  1.1922 -2.7655  0.1800
  730MOL0     H96308   2.022   0.435   8.723 -0.7904  2.3125 -2.7561
  730MOL0     H96309   2.212   0.384   8.855  0.2147 -0.3731 -0.7491
  730MOL0     H96310   2.265   0.555   8.865  0.0352  0.6116  1.3772
  730MOL0     H96311   2.015   0.437   8.968 -0.7923 -0.8381  0.6262
  730MOL0     H96312   2.065   0.609   8.986  0.8664  0.7682 -0.7253
  730MOL0     H96313   2.310   0.651   9.132 -1.4596  1.0045  1.2905
  730MOL0     H96314   2.380   0.491   9.465 -2.2199 -2.2684 -1.7826
  730MOL0     H96315   2.319   0.654   9.442 -3.4606  0.3037 -2.0711
  730MOL0     H96316   2.486   0.683   9.244  0.5636  1.4344  0.6196
  730MOL0     H96317   2.552   0.527   9.315 -1.3771 -1.1538  4.0778
  730MOL0     H96318   2.526   0.782   9.456 -0.0493  0.5958  1.4171
  730MOL0     H96319   2.598   0.606   9.498 -1.9519 -0.7430 -1.5920
  730MOL0     H96320   2.781   0.654   9.358 -0.8510  0.9429 -1.2694
  730MOL0     H96321   2.772   0.774   9.464 -2.0025 -0.5667  1.3142
  730MOL0     H96322   2.709   1.027   9.111 -1.5999 -2.5311  4.1798
  730MOL0     H96323   2.909   1.134   8.995 -0.4822  0.3532  1.2746
  730MOL0     H96324   3.381   0.901   8.904  0.4616 -0.6686  1.1418
  730MOL0     H96325   3.597   0.954   8.786  0.3981 -1.1254  0.4248
  730MOL0     H96326   3.752   1.112   8.685 -1.2250 -0.7516  0.4814
  730MOL0     H96327   3.850   0.993   8.782  0.2059 -1.2091 -2.1525
  730MOL0     H96328   3.913   1.272   8.687 -1.4939 -1.3069 -1.7979
  730MOL0     H96329   4.008   1.122   8.682  2.0222  0.3667  0.8882
  730MOL0     H96330   4.006   1.303   8.922 -0.2906 -2.4386  2.2938
  730MOL0     H96331   4.142   1.235   8.809  0.9304 -1.5836  0.0637
  730MOL0     H96332   4.006   1.051   8.968 -1.2634  2.7565  2.3720
  730MOL0     H96333   4.164   1.045   8.869 -0.4107  0.5948 -1.1700
  730MOL0     H96334   4.277   1.168   9.040  1.4625 -0.4321 -0.5448
  730MOL0     H96335   4.203   1.033   9.120  2.6484  0.3159  2.1102
  730MOL0     H96336   4.108   1.324   9.131 -1.0243  0.5952 -0.7915
  730MOL0     H96337   4.185   1.203   9.239  2.9926  0.1838 -2.6402
  730MOL0     H96338   3.897   1.203   9.130  0.2702  0.9825 -1.1727
  730MOL0     H96339   3.975   1.076   9.237  4.2834  0.0910 -0.4869
  730MOL0     H96340   3.913   1.371   9.306 -0.3398 -0.5946 -2.2443
  730MOL0     H96341   4.000   1.256   9.411 -0.0150 -0.7316 -0.2043
  730MOL0     H96342   3.679   1.206   9.126 -2.2114  2.9981  0.8004
  730MOL0     H96343   3.471   1.174   9.216  0.8970  0.8072  0.1747
  730MOL0     H96344   3.159   0.865   9.231  1.1317  1.9876 -0.5426
  730MOL0     H96345   2.955   0.760   9.317 -2.6471 -0.8575 -0.3818
  730MOL0     H96346   1.514   1.000   8.156 -1.3441 -0.1504 -0.7572
  730MOL0     H96347   1.390   1.210   8.071  0.0200 -1.6171  0.3088
  730MOL0     H96348   0.979   1.499   8.200 -0.6392 -1.9638 -1.7932
  730MOL0     H96349   0.863   1.698   8.061  1.1075  2.0035 -0.7297
  730MOL0     H96350   1.006   2.039   7.884  1.1059  0.0241  0.6630
  730MOL0     H96351   1.003   1.987   8.043  4.5089  1.3511 -1.8619
  730MOL0     H96352   0.761   1.957   7.857  1.0291 -3.0566  0.1495
  730MOL0     H96353   0.743   1.937   8.018 -1.0353  3.5018  0.9877
  730MOL0     H96354   0.662   2.160   7.932  2.3850  2.5519 -1.3700
  730MOL0     H96355   0.818   2.208   7.908 -0.5403  0.6046 -1.5954
  730MOL0     H96356   0.875   2.134   8.155  0.2658 -1.6668 -0.1298
  730MOL0     H96357   0.789   2.293   8.114 -1.0772 -0.4717 -3.4516
  730MOL0     H96358   0.513   2.086   8.345 -1.2554  3.8955  1.8136
  730MOL0     H96359   1.213   1.811   7.896 -0.1571 -0.1328 -0.3820
  730MOL0     H96360   1.351   1.634   8.037  0.5901  2.5720 -0.8984
  731MOL0     O96361   2.617  11.043   0.067  0.2284  0.2900 -0.9720
  731MOL0     C96362   2.504  11.012   0.026 -0.5896  0.2959  0.6357
  731MOL0     O96363   2.403  11.095  -0.019  0.0867 -0.1898  0.3956
  731MOL0     C96364   2.431  11.235  -0.016  0.7968 -0.2138  0.0321
  731MOL0     C96365   2.538  11.289  -0.078  0.7329 -0.2188 -0.3689
  731MOL0     C96366   2.570  11.424  -0.078 -0.6703 -0.6583  0.5627
  731MOL0     C96367   2.501  11.512   0.000  0.4174  0.1664 -0.0240
  731MOL0     O96368   2.521  11.650   0.000  0.2136 -0.3379  0.1459
  731MOL0     C96369   2.564  11.698  -0.129  0.5125 -0.5269 -0.7034
  731MOL0     C96370   2.535  11.848  -0.125 -0.1391  0.9736  0.7334
  731MOL0     C96371   2.567  11.923  -0.257  1.0685 -0.0223 -0.2428
  731MOL0     C96372   2.715  11.903  -0.304 -0.7180 -0.2731  0.2421
  731MOL0     C96373   2.734  11.962  -0.440 -0.7956 -0.1305  0.4219
  731MOL0     C96374   2.877  11.960  -0.471  0.0366  0.5768  0.3617
  731MOL0     C96375   2.909  12.034  -0.602 -0.4392  0.2717  0.3504
  731MOL0     C96376   2.850  11.962  -0.731 -0.3240  0.6032 -0.8706
  731MOL0     N96377   2.907  11.827  -0.755  0.0076  0.6189 -0.2422
  731MOL0     C96378   2.841  11.732  -0.827  0.4776 -0.3608  0.8648
  731MOL0     C96379   2.937  11.630  -0.845 -0.3457 -0.1236 -1.0417
  731MOL0     C96380   2.934  11.487  -0.891 -0.0846 -0.3366 -0.4783
  731MOL0     C96381   2.987  11.473  -1.038 -0.0348 -0.5403  0.1247
  731MOL0     C96382   2.921  11.554  -1.145 -0.1832 -0.4616  0.5579
  731MOL0     C96383   2.773  11.552  -1.142  0.8898 -0.3976  0.2785
  731MOL0     O96384   2.690  11.636  -1.228 -0.2632  0.5888 -0.2833
  731MOL0     C96385   2.621  11.580  -1.335 -0.0390  0.0371 -0.5719
  731MOL0     C96386   2.655  11.466  -1.403 -1.0957  0.4473 -0.1548
  731MOL0     C96387   2.599  11.423  -1.524 -0.5395  1.6224 -0.2273
  731MOL0     C96388   2.479  11.484  -1.570 -0.7912  0.1911 -0.4094
  731MOL0     C96389   2.404  11.420  -1.677  0.6220 -0.4767  0.0229
  731MOL0     O96390   2.279  11.473  -1.691  0.1885  0.2252  0.8844
  731MOL0     C96391   2.188  11.440  -1.794 -0.1535 -1.2498 -0.2092
  731MOL0     C96392   2.133  11.310  -1.814 -0.4575 -0.1773 -0.5133
  731MOL0     C96393   2.040  11.293  -1.915  0.8975  0.2000 -0.1488
  731MOL0     C96394   1.984  11.404  -1.995  0.4607  0.1171 -0.9714
  731MOL0     O96395   1.891  11.387  -2.093  0.5312 -0.7713  0.3107
  731MOL0     C96396   1.808  11.267  -2.091 -0.1747 -0.3272  0.7160
  731MOL0     C96397   1.664  11.286  -2.152 -0.0207 -0.1188 -1.2335
  731MOL0     C96398   1.571  11.355  -2.045 -0.2854  0.1822 -1.0224
  731MOL0     C96399   1.427  11.349  -2.104  0.2863  0.3993 -0.3368
  731MOL0     C96400   1.336  11.435  -2.014 -0.1928 -1.0401  0.0178
  731MOL0     C96401   1.348  11.396  -1.871  0.1517 -0.4165 -0.2047
  731MOL0     C96402   1.230  11.457  -1.786 -0.4934 -0.1085  0.4777
  731MOL0     C96403   1.264  11.584  -1.706 -0.5709  0.3340  0.1271
  731MOL0    Cl96404   1.117  11.654  -1.614 -0.1837  0.2115 -0.2130
  731MOL0     C96405   2.039  11.531  -1.972  0.0629 -0.4002 -0.1209
  731MOL0     C96406   2.145  11.548  -1.878 -0.0735  0.7814  0.0729
  731MOL0     O96407   2.451  11.332  -1.745  0.6103 -0.1684 -0.1621
  731MOL0     C96408   2.436  11.602  -1.493  0.1381  0.2806 -0.0561
  731MOL0     C96409   2.506  11.652  -1.381  0.4775  0.3578  0.2283
  731MOL0     N96410   3.046  11.677  -0.769 -0.2765 -0.0153  0.5410
  731MOL0     N96411   3.033  11.794  -0.720  0.3713 -1.0339 -0.5110
  731MOL0     C96412   2.398  11.460   0.088 -0.8709 -1.1953 -0.2031
  731MOL0     C96413   2.373  11.327   0.080  0.2402  0.0161  0.3860
  731MOL0     C96414   2.476  10.876   0.018  1.1492 -0.7324 -0.1633
  731MOL0     C96415   2.549  10.795   0.105 -0.0016  0.4529 -0.1920
  731MOL0     C96416   2.517  10.663   0.119 -0.0210 -0.0256  0.1183
  731MOL0     C96417   2.418  10.598   0.050  0.2114  0.6020 -0.5156
  731MOL0     O96418   2.391  10.469   0.067  0.5890  0.7498 -0.0008
  731MOL0     C96419   2.509  10.394   0.058  0.7982 -0.0026 -0.0334
  731MOL0     C96420   2.481  10.242   0.051 -0.1248 -0.8210 -1.1866
  731MOL0     C96421   2.622  10.165   0.049 -0.3246  0.3531  0.5570
  731MOL0     C96422   2.607  10.014   0.057  0.4018  0.5992  0.4473
  731MOL0     C96423   2.593   9.967  -0.084 -0.3733 -0.0379  0.0103
  731MOL0     C96424   2.570   9.925  -0.196  0.2017  0.5411 -0.8504
  731MOL0     C96425   2.346  10.678  -0.037 -0.0626 -0.1733  0.2298
  731MOL0     C96426   2.368  10.817  -0.046  0.7123 -0.3861  0.4948
  731MOL0     H96427   2.589  11.220  -0.144  0.1888 -1.4890  0.4976
  731MOL0     H96428   2.652  11.454  -0.143  1.2867  0.2800  3.2999
  731MOL0     H96429   2.508  11.656  -0.213  0.0257 -0.0787 -0.6033
  731MOL0     H96430   2.672  11.683  -0.136  1.1037  1.1355  2.6056
  731MOL0     H96431   2.593  11.904  -0.052  0.8596  0.6189  0.2355
  731MOL0     H96432   2.429  11.862  -0.105 -1.2906 -0.6048 -3.3384
  731MOL0     H96433   2.538  12.029  -0.253  2.3425  0.3758 -0.9396
  731MOL0     H96434   2.501  11.890  -0.338  0.0836  5.2288 -1.9838
  731MOL0     H96435   2.777  11.968  -0.241 -1.2431 -0.4162  0.9104
  731MOL0     H96436   2.746  11.798  -0.306 -2.0963 -0.7193  1.3340
  731MOL0     H96437   2.696  12.065  -0.448  1.9992  0.8647 -1.5763
  731MOL0     H96438   2.677  11.899  -0.510  0.5000 -0.1648 -0.6348
  731MOL0     H96439   2.914  11.858  -0.484 -1.2126 -0.0516  1.5211
  731MOL0     H96440   2.932  12.004  -0.387  1.4279  2.1655 -1.3043
  731MOL0     H96441   2.859  12.131  -0.602 -1.0914  0.0508 -2.7959
  731MOL0     H96442   3.018  12.047  -0.607  0.0258 -2.5258  1.4296
  731MOL0     H96443   2.869  12.024  -0.819 -0.3836 -0.2191 -1.4691
  731MOL0     H96444   2.742  11.950  -0.717 -0.0967  1.3460  2.0694
  731MOL0     H96445   2.737  11.725  -0.858  0.8697 -0.0288 -0.6417
  731MOL0     H96446   2.831  11.455  -0.872 -0.0429  0.6412  1.7160
  731MOL0     H96447   3.005  11.428  -0.832 -1.6849 -0.5002  1.3720
  731MOL0     H96448   2.974  11.367  -1.062 -3.2220 -0.5393  1.2795
  731MOL0     H96449   3.095  11.487  -1.044 -0.0588  0.1799  1.0763
  731MOL0     H96450   2.959  11.656  -1.149 -1.0527 -0.1776 -2.0105
  731MOL0     H96451   2.945  11.514  -1.244 -2.1785  1.9888 -1.0156
  731MOL0     H96452   2.747  11.589  -1.042  1.8700  0.6377  0.1719
  731MOL0     H96453   2.725  11.456  -1.159 -1.0732  0.3800  1.0768
  731MOL0     H96454   2.744  11.410  -1.374 -2.9297 -2.2538  0.6217
  731MOL0     H96455   2.634  11.329  -1.566 -2.2963  0.2520  1.2333
  731MOL0     H96456   2.173  11.225  -1.760 -0.8364  0.1181  0.2464
  731MOL0     H96457   2.008  11.195  -1.948 -0.0863  1.3735 -2.9927
  731MOL0     H96458   1.787  11.238  -1.988 -3.5003 -1.6007 -0.1761
  731MOL0     H96459   1.860  11.187  -2.145 -0.6136  1.5829 -2.8307
  731MOL0     H96460   1.633  11.183  -2.168  1.8576 -1.1050  0.9628
  731MOL0     H96461   1.668  11.344  -2.245  1.1112  0.1889 -1.0064
  731MOL0     H96462   1.594  11.461  -2.030  0.5630  0.1053 -1.7344
  731MOL0     H96463   1.583  11.300  -1.950  0.3230 -1.5747 -2.0546
  731MOL0     H96464   1.423  11.371  -2.211  0.4881  0.0311 -0.4232
  731MOL0     H96465   1.399  11.243  -2.095  1.6889  0.0446  0.0377
  731MOL0     H96466   1.233  11.430  -2.052 -0.8275 -0.1075  1.5175
  731MOL0     H96467   1.373  11.537  -2.027  0.0222 -1.1310 -0.0823
  731MOL0     H96468   1.442  11.434  -1.829 -1.0383  2.2516  0.1859
  731MOL0     H96469   1.339  11.287  -1.863 -0.7184 -0.2759  0.9058
  731MOL0     H96470   1.151  11.490  -1.854  1.6245  0.4741 -1.8176
  731MOL0     H96471   1.183  11.381  -1.723 -1.2739  0.1885  0.2767
  731MOL0     H96472   1.317  11.657  -1.768 -0.3891 -0.0545 -0.1824
  731MOL0     H96473   1.338  11.560  -1.630  1.7873  3.8821 -0.8043
  731MOL0     H96474   2.003  11.601  -2.047  0.5091 -1.6627 -1.5840
  731MOL0     H96475   2.194  11.643  -1.862  0.4703  0.3220  1.3481
  731MOL0     H96476   2.346  11.652  -1.528 -0.8266 -1.3864 -0.0163
  731MOL0     H96477   2.479  11.744  -1.330 -1.1742  0.1617 -0.2259
  731MOL0     H96478   2.346  11.523   0.159 -0.5198 -0.9213 -0.1811
  731MOL0     H96479   2.299  11.272   0.136  1.2862 -1.2768  0.5375
  731MOL0     H96480   2.637  10.836   0.153  1.3338 -1.7718 -0.5681
  731MOL0     H96481   2.564  10.608   0.199 -0.4360  1.1372  1.1965
  731MOL0     H96482   2.571  10.399   0.149  0.6339 -1.7044  0.2125
  731MOL0     H96483   2.571  10.423  -0.027  0.7071 -0.3077 -0.2080
  731MOL0     H96484   2.418  10.203   0.130 -0.2602  0.2702 -0.7355
  731MOL0     H96485   2.432  10.228  -0.046 -0.6954 -2.0739 -0.7342
  731MOL0     H96486   2.679  10.188   0.140  2.0134 -1.4842 -0.3531
  731MOL0     H96487   2.687  10.194  -0.034  1.8325 -1.2654  1.5745
  731MOL0     H96488   2.691   9.965   0.105  1.0807 -1.9055 -2.9331
  731MOL0     H96489   2.519   9.989   0.116 -0.7128 -2.0795 -2.1017
  731MOL0     H96490   2.552   9.879  -0.292 -1.5451  1.3610 -0.9632
  731MOL0     H96491   2.268  10.635  -0.098  0.5420 -0.4657 -0.3468
  731MOL0     H96492   2.308  10.881  -0.110  1.8064  2.3669  2.0221
  732MOL0     O96493  11.239   5.779   7.647  0.3599 -0.2576  0.2208
  732MOL0     C96494  11.237   5.833   7.758  0.6327  0.2845 -0.8529
  732MOL0     O96495  11.181   5.947   7.781 -0.6295 -0.0713  0.0341
  732MOL0     C96496  11.159   6.050   7.683 -0.0806  1.0433  0.4386
  732MOL0     C96497  11.050   6.141   7.702 -0.6301  0.3882 -0.1258
  732MOL0     C96498  11.045   6.264   7.630  0.9798  0.2881  0.7738
  732MOL0     C96499  11.140   6.283   7.522 -0.0993 -0.3445 -0.6735
  732MOL0     O96500  11.138   6.385   7.429 -0.0294  0.0073 -0.0550
  732MOL0     C96501  11.009   6.378   7.354 -0.2888  0.2167 -0.1348
  732MOL0     C96502  11.011   6.482   7.247 -0.2281  0.7478 -0.0539
  732MOL0     C96503  10.871   6.508   7.188  0.1286 -0.3287 -0.1372
  732MOL0     C96504  10.867   6.659   7.142  0.1302  0.3893  0.2050
  732MOL0     C96505  10.867   6.761   7.254 -0.4208  0.0748 -1.6796
  732MOL0     C96506  10.787   6.887   7.213 -0.7731 -0.3606  0.8840
  732MOL0     C96507  10.829   6.956   7.081  1.2764 -0.2433  0.5496
  732MOL0     C96508  10.964   7.017   7.073 -0.6920  0.2445 -0.2369
  732MOL0     N96509  10.993   7.096   7.195 -0.8331 -0.0216  0.0966
  732MOL0     C96510  10.939   7.220   7.224  0.0619 -0.2755 -0.4486
  732MOL0     C96511  11.006   7.266   7.324  0.4844 -0.3838 -0.3364
  732MOL0     C96512  10.976   7.391   7.406 -0.4150 -0.9218  0.1918
  732MOL0     C96513  11.098   7.469   7.458 -0.8525  0.9473 -1.3436
  732MOL0     C96514  11.077   7.605   7.525  0.4873  0.1523  0.4950
  732MOL0     C96515  10.943   7.659   7.511  0.1299 -0.7780 -0.7151
  732MOL0     O96516  10.961   7.787   7.573  0.0844 -0.4044  0.4140
  732MOL0     C96517  10.850   7.855   7.589  0.1134  0.0546 -1.2064
  732MOL0     C96518  10.823   7.958   7.500  0.5599 -0.0045 -0.4629
  732MOL0     C96519  10.719   8.046   7.524 -0.2542  0.6076 -1.2405
  732MOL0     C96520  10.623   8.024   7.633 -0.5474 -0.8812 -0.3231
  732MOL0     C96521  10.502   8.102   7.666 -1.1318  0.0273  0.5095
  732MOL0     O96522  10.444   8.099   7.789 -0.6633  0.4555 -0.5582
  732MOL0     C96523  10.349   8.197   7.822  0.2036  0.4843 -0.1390
  732MOL0     C96524  10.379   8.325   7.788 -0.8714 -0.4486  0.2610
  732MOL0     C96525  10.289   8.427   7.816 -1.2503 -1.1435 -0.9726
  732MOL0     C96526  10.164   8.412   7.878  0.4153 -0.1969  1.1778
  732MOL0     O96527  10.066   8.495   7.903  0.2581 -0.3590  0.1178
  732MOL0     C96528  10.055   8.616   7.820 -0.1927 -0.2664 -0.0456
  732MOL0     C96529   9.925   8.687   7.856 -0.9576  0.3106 -0.5460
  732MOL0     C96530   9.812   8.602   7.796 -1.2168 -0.1592  0.4288
  732MOL0     C96531   9.709   8.692   7.729 -0.8606 -0.0978 -0.0539
  732MOL0     C96532   9.558   8.656   7.740 -0.2138  0.7242  0.7755
  732MOL0     C96533   9.481   8.694   7.611  0.1856 -0.0132 -0.2866
  732MOL0     C96534   9.495   8.601   7.490  0.9844 -1.0099 -0.2470
  732MOL0     C96535   9.383   8.628   7.385 -0.7199 -0.6910 -0.5350
  732MOL0    Cl96536   9.418   8.781   7.286  0.1131 -0.1445 -0.0459
  732MOL0     C96537  10.133   8.279   7.900  0.2993  0.3725 -0.0150
  732MOL0     C96538  10.225   8.175   7.888 -0.6095  0.0614 -0.0933
  732MOL0     O96539  10.463   8.161   7.564 -1.2234  0.4337  0.1002
  732MOL0     C96540  10.656   7.915   7.722  0.1246 -0.5245  0.0592
  732MOL0     C96541  10.769   7.834   7.704  0.1172  1.0237 -0.7215
  732MOL0     N96542  11.099   7.167   7.359  0.0719 -0.7742 -0.0857
  732MOL0     N96543  11.087   7.070   7.286 -0.2177  0.6284 -0.2486
  732MOL0     C96544  11.252   6.208   7.520 -0.4328  0.2844  0.8982
  732MOL0     C96545  11.267   6.092   7.602  0.3585 -0.1921 -0.4826
  732MOL0     C96546  11.305   5.758   7.870 -0.7470  0.6633 -0.3784
  732MOL0     C96547  11.314   5.615   7.885  0.9451  0.2140 -0.5106
  732MOL0     C96548  11.399   5.554   7.972  0.5037 -0.4863  0.0415
  732MOL0     C96549  11.474   5.629   8.063  0.2562 -0.2133 -0.1537
  732MOL0     O96550  11.541   5.570   8.172 -0.2331 -0.4075 -0.2216
  732MOL0     C96551  11.567   5.637   8.300 -0.7120  0.6603 -0.5361
  732MOL0     C96552  11.694   5.561   8.342 -0.9148  0.3644  0.1577
  732MOL0     C96553  11.709   5.578   8.496  0.3110 -0.5926  0.6715
  732MOL0     C96554  11.847   5.533   8.553 -0.5622 -0.6359  0.4185
  732MOL0     C96555  11.857   5.553   8.694  0.2114  0.0193 -0.3326
  732MOL0     C96556  11.863   5.601   8.802  1.0540  0.4011  0.6200
  732MOL0     C96557  11.479   5.769   8.049  0.1090 -0.0426 -0.3374
  732MOL0     C96558  11.398   5.833   7.947 -1.0431  0.3347  0.4960
  732MOL0     H96559  10.983   6.114   7.783 -0.7836 -0.0768 -0.4024
  732MOL0     H96560  10.963   6.330   7.656 -1.0807 -3.0028  3.5603
  732MOL0     H96561  10.930   6.389   7.429  0.1804  0.7752  0.2920
  732MOL0     H96562  11.003   6.281   7.303 -1.5088 -0.1519  0.6734
  732MOL0     H96563  11.075   6.453   7.164 -2.3325 -0.8494 -1.1983
  732MOL0     H96564  11.036   6.576   7.299 -1.8480  1.1739  0.0186
  732MOL0     H96565  10.796   6.498   7.266  1.4530  0.2532  1.2579
  732MOL0     H96566  10.864   6.446   7.097  0.2134  1.8608 -1.7059
  732MOL0     H96567  10.948   6.678   7.071  0.9276 -0.6393  0.8216
  732MOL0     H96568  10.775   6.656   7.083  0.8712 -0.5720 -0.9369
  732MOL0     H96569  10.969   6.795   7.274 -1.5588  2.8112  0.2108
  732MOL0     H96570  10.816   6.730   7.347 -1.6677  2.5054 -1.4667
  732MOL0     H96571  10.820   6.954   7.293  3.2582  0.4056 -1.1531
  732MOL0     H96572  10.681   6.858   7.210 -0.7801 -0.3217  0.7826
  732MOL0     H96573  10.809   6.888   6.997 -0.9257 -1.3971  1.8943
  732MOL0     H96574  10.755   7.034   7.058  1.9873  0.0033 -1.0402
  732MOL0     H96575  10.964   7.084   6.987  0.1336  2.0569  1.1058
  732MOL0     H96576  11.025   6.926   7.073 -3.4608 -1.8155 -3.1245
  732MOL0     H96577  10.858   7.273   7.176  0.5323  1.4187  0.5457
  732MOL0     H96578  10.905   7.351   7.479 -0.1859 -1.1028  0.3170
  732MOL0     H96579  10.920   7.466   7.349 -0.1025 -2.2029 -1.9501
  732MOL0     H96580  11.175   7.473   7.380  4.2457  0.8907  3.0898
  732MOL0     H96581  11.149   7.402   7.527  2.9483  3.4490 -1.3840
  732MOL0     H96582  11.084   7.597   7.633 -1.7365  4.9982  1.2805
  732MOL0     H96583  11.157   7.661   7.476  0.9491 -1.6557 -0.9302
  732MOL0     H96584  10.881   7.586   7.562 -0.9433  1.4415  1.3676
  732MOL0     H96585  10.931   7.680   7.404 -1.9031  2.8064  0.0429
  732MOL0     H96586  10.873   7.975   7.405 -1.5226 -0.3278 -1.6885
  732MOL0     H96587  10.715   8.137   7.466  2.8122  0.6859 -1.4892
  732MOL0     H96588  10.472   8.353   7.739 -0.6802 -0.6338  0.5115
  732MOL0     H96589  10.320   8.528   7.793 -1.6375 -0.6798  0.4665
  732MOL0     H96590  10.042   8.588   7.716  0.2768  1.6030 -0.6432
  732MOL0     H96591  10.142   8.682   7.827 -0.1872  0.1447 -2.9521
  732MOL0     H96592   9.926   8.790   7.819  2.4062  1.3144  1.9017
  732MOL0     H96593   9.917   8.699   7.964 -0.0424 -0.2054 -0.4148
  732MOL0     H96594   9.765   8.541   7.874 -0.7900 -0.6379  0.3141
  732MOL0     H96595   9.844   8.541   7.711  0.5560  2.1047 -0.6155
  732MOL0     H96596   9.711   8.792   7.773 -0.7690 -0.2586  0.3112
  732MOL0     H96597   9.733   8.702   7.623  0.7639  2.7032  0.4848
  732MOL0     H96598   9.509   8.694   7.831 -5.2088 -1.8228 -0.4729
  732MOL0     H96599   9.553   8.549   7.758  3.3078 -0.5268 -3.8764
  732MOL0     H96600   9.526   8.789   7.580  1.7026 -0.9148 -0.9333
  732MOL0     H96601   9.375   8.722   7.621  0.1341  0.6941 -2.3690
  732MOL0     H96602   9.596   8.603   7.449  0.2403  1.0370 -2.1461
  732MOL0     H96603   9.452   8.510   7.532 -3.0492  1.9841  2.9705
  732MOL0     H96604   9.290   8.619   7.442 -0.6951 -3.3814 -0.7966
  732MOL0     H96605   9.389   8.540   7.321 -0.5883 -2.1628  1.4027
  732MOL0     H96606  10.041   8.258   7.953  1.4044 -2.0420  1.1141
  732MOL0     H96607  10.211   8.075   7.927  3.6206 -2.0594 -3.2060
  732MOL0     H96608  10.584   7.899   7.802 -1.8043 -0.1344 -1.5029
  732MOL0     H96609  10.779   7.751   7.772 -0.5852  0.7464 -0.9527
  732MOL0     H96610  11.337   6.252   7.469 -0.5058 -1.1438 -0.5472
  732MOL0     H96611  11.362   6.043   7.581  0.2171 -0.5277 -0.3459
  732MOL0     H96612  11.248   5.547   7.832 -2.6217  0.0115  3.6116
  732MOL0     H96613  11.406   5.445   7.972  0.8319 -0.4701  0.7001
  732MOL0     H96614  11.494   5.607   8.376 -0.1479 -1.1814 -0.6542
  732MOL0     H96615  11.579   5.745   8.305  2.9227  0.3196  2.5746
  732MOL0     H96616  11.700   5.452   8.332  3.0907  0.3204  1.1822
  732MOL0     H96617  11.775   5.610   8.288  0.3850 -1.6549  0.1888
  732MOL0     H96618  11.621   5.526   8.536 -2.9635  3.3643 -0.7074
  732MOL0     H96619  11.688   5.683   8.518 -1.2777 -0.5180 -0.9918
  732MOL0     H96620  11.865   5.429   8.524 -1.9965 -1.1825  1.4029
  732MOL0     H96621  11.925   5.589   8.501 -2.1438 -0.2454 -1.6624
  732MOL0     H96622  11.881   5.652   8.895 -2.7880  0.0730  1.7232
  732MOL0     H96623  11.543   5.829   8.113  3.4869 -0.2671 -3.1987
  732MOL0     H96624  11.403   5.941   7.943  0.0447  0.2704 -0.0930
  733MOL0     O96625   0.686   3.574   1.317 -0.3906 -0.5755 -0.4544
  733MOL0     C96626   0.673   3.691   1.307 -1.6494  0.6255 -0.1883
  733MOL0     O96627   0.710   3.765   1.205  0.3146 -0.1614 -0.0759
  733MOL0     C96628   0.726   3.713   1.077  0.0835  0.2935 -0.0135
  733MOL0     C96629   0.618   3.635   1.020 -0.5285 -0.1215  0.1513
  733MOL0     C96630   0.632   3.591   0.890 -0.2735 -0.4914 -0.4465
  733MOL0     C96631   0.727   3.660   0.806  0.0861 -0.2697 -0.5941
  733MOL0     O96632   0.734   3.635   0.668  0.4159  0.2357  0.2129
  733MOL0     C96633   0.803   3.510   0.635  1.1593  0.3154  0.2629
  733MOL0     C96634   0.953   3.517   0.669  0.5113  0.6566  0.6469
  733MOL0     C96635   1.045   3.423   0.573  0.4624 -0.4937  0.2892
  733MOL0     C96636   1.011   3.272   0.574 -0.2997 -0.3086  1.0022
  733MOL0     C96637   1.070   3.199   0.695 -0.0947 -0.0945 -0.0573
  733MOL0     C96638   1.045   3.050   0.707  0.0150 -0.4093 -0.2538
  733MOL0     C96639   1.086   3.004   0.851  0.3993 -1.3381  0.1260
  733MOL0     C96640   1.237   2.987   0.856  1.3886  0.1252  0.2754
  733MOL0     N96641   1.286   2.935   0.985  0.3045  0.0208 -0.1940
  733MOL0     C96642   1.202   2.884   1.094 -0.5256  0.5962 -0.0499
  733MOL0     C96643   1.297   2.825   1.173 -0.2761  0.4403  0.1929
  733MOL0     C96644   1.275   2.742   1.296  0.4424  0.7283  0.3633
  733MOL0     C96645   1.261   2.822   1.429  0.1621 -0.2503 -0.5326
  733MOL0     C96646   1.130   2.775   1.506 -0.7109 -0.2982  0.2812
  733MOL0     C96647   1.150   2.641   1.570  0.1212 -0.3253 -1.7464
  733MOL0     O96648   1.044   2.628   1.667  0.6609 -0.7168  0.3408
  733MOL0     C96649   1.063   2.572   1.790 -0.8521 -1.4836  0.0813
  733MOL0     C96650   1.180   2.521   1.847 -0.2754  0.2784 -0.0429
  733MOL0     C96651   1.184   2.455   1.973 -0.1643  0.2990  0.4935
  733MOL0     C96652   1.063   2.446   2.044  0.3103  0.2190  0.1842
  733MOL0     C96653   1.054   2.408   2.186  0.2623  0.4186  0.2991
  733MOL0     O96654   1.167   2.373   2.252  0.8532 -0.5585 -0.1381
  733MOL0     C96655   1.157   2.320   2.380 -0.6400  0.3478  0.1059
  733MOL0     C96656   1.080   2.205   2.395 -0.3854 -0.0681  0.4499
  733MOL0     C96657   1.054   2.150   2.526  0.8858 -0.0468 -0.0792
  733MOL0     C96658   1.110   2.210   2.641 -0.8523 -0.4013  0.4149
  733MOL0     O96659   1.089   2.161   2.763  0.5591  0.4360  0.1774
  733MOL0     C96660   0.976   2.077   2.792  0.4755  0.4078 -1.0355
  733MOL0     C96661   0.951   2.055   2.944  0.0264 -0.4140 -0.1779
  733MOL0     C96662   1.064   1.977   3.008 -0.2074 -0.4667  0.8741
  733MOL0     C96663   1.036   1.961   3.161 -0.0055  0.1592 -0.3891
  733MOL0     C96664   1.162   1.883   3.217 -0.4238  0.2917 -0.3722
  733MOL0     C96665   1.163   1.878   3.368 -0.7019  0.0108  0.4560
  733MOL0     C96666   1.265   1.768   3.405 -0.5461  0.5579 -0.8563
  733MOL0     C96667   1.210   1.622   3.399  0.6344  0.5396 -0.2555
  733MOL0    Cl96668   1.114   1.581   3.538  0.0893 -0.2715 -0.4064
  733MOL0     C96669   1.183   2.329   2.625  0.0606 -0.3662 -0.3418
  733MOL0     C96670   1.206   2.387   2.497  0.8053 -0.6882  0.2852
  733MOL0     O96671   0.942   2.405   2.235 -0.0274 -0.0815  0.2513
  733MOL0     C96672   0.948   2.496   1.989 -0.0570 -0.9581  0.2343
  733MOL0     C96673   0.949   2.551   1.862  0.1136 -0.0475  0.1350
  733MOL0     N96674   1.421   2.847   1.118 -0.2067 -0.8575  0.4199
  733MOL0     N96675   1.415   2.918   1.006 -0.1954  0.1742 -0.6092
  733MOL0     C96676   0.820   3.747   0.863 -0.4811 -0.1726 -0.2107
  733MOL0     C96677   0.830   3.761   0.999 -0.4615  0.5816 -0.4352
  733MOL0     C96678   0.636   3.764   1.427 -0.4970 -0.3298 -0.2056
  733MOL0     C96679   0.590   3.686   1.544  0.0817  0.7909 -0.3440
  733MOL0     C96680   0.562   3.767   1.656  0.1444  0.6283  0.6807
  733MOL0     C96681   0.571   3.906   1.659  1.1486  0.9968  0.6668
  733MOL0     O96682   0.512   3.953   1.770 -0.2681 -0.2706  0.2615
  733MOL0     C96683   0.583   4.061   1.841 -0.3867 -0.6748 -0.1979
  733MOL0     C96684   0.610   4.033   1.996 -0.7440  0.4748 -0.1927
  733MOL0     C96685   0.479   4.076   2.072  0.1015 -0.2988 -0.4429
  733MOL0     C96686   0.498   4.060   2.219  0.5298 -0.3042  0.4632
  733MOL0     C96687   0.508   3.916   2.264  0.7998  0.2573  0.3449
  733MOL0     C96688   0.516   3.796   2.286 -0.5654  0.1983 -1.4178
  733MOL0     C96689   0.609   3.974   1.549 -0.4192  0.1244 -0.8113
  733MOL0     C96690   0.642   3.905   1.434  0.2609  0.1144 -0.1669
  733MOL0     H96691   0.534   3.599   1.078 -0.8930  0.5007  0.0189
  733MOL0     H96692   0.558   3.523   0.848 -0.9162 -0.6644  0.9332
  733MOL0     H96693   0.779   3.494   0.529  2.8315  0.9277 -0.2426
  733MOL0     H96694   0.759   3.426   0.690  1.9002  0.3203  0.8709
  733MOL0     H96695   0.965   3.505   0.777 -0.2950  2.4521  0.9621
  733MOL0     H96696   0.977   3.623   0.657 -0.5012  0.8098 -0.2204
  733MOL0     H96697   1.154   3.426   0.587  0.4499 -0.8923  0.4712
  733MOL0     H96698   1.026   3.448   0.468  3.5868  0.4805 -0.1431
  733MOL0     H96699   0.906   3.249   0.553  0.4466 -1.8430 -1.4876
  733MOL0     H96700   1.063   3.227   0.489 -0.5379  2.6160 -0.7965
  733MOL0     H96701   1.026   3.247   0.782  1.8082 -1.5810  1.8281
  733MOL0     H96702   1.178   3.213   0.687  0.2477 -2.2705  0.1379
  733MOL0     H96703   1.101   2.995   0.632 -1.3323 -0.4837 -1.2331
  733MOL0     H96704   0.942   3.028   0.679  0.0387 -1.5881  0.5194
  733MOL0     H96705   1.053   3.066   0.935  3.0578 -1.2154  1.1661
  733MOL0     H96706   1.034   2.912   0.877 -0.7215 -0.8647 -0.3313
  733MOL0     H96707   1.294   3.077   0.829  0.9148  0.4153  0.2171
  733MOL0     H96708   1.265   2.922   0.773 -0.6236  0.1287 -0.4566
  733MOL0     H96709   1.094   2.889   1.104 -0.6005  1.1246 -1.0558
  733MOL0     H96710   1.350   2.663   1.311 -1.5130 -1.1787  0.6965
  733MOL0     H96711   1.179   2.694   1.271  1.8914 -0.4372 -3.8662
  733MOL0     H96712   1.260   2.929   1.404  1.1071 -0.2790 -0.7462
  733MOL0     H96713   1.344   2.810   1.500 -0.1232  2.0938  0.2980
  733MOL0     H96714   1.104   2.849   1.583 -4.2872  0.8380 -1.7843
  733MOL0     H96715   1.043   2.763   1.441 -0.0034 -0.3440 -0.6861
  733MOL0     H96716   1.251   2.649   1.611 -0.7605  3.0807  0.1869
  733MOL0     H96717   1.140   2.554   1.504 -1.5568  0.3405 -2.4036
  733MOL0     H96718   1.267   2.513   1.783  0.3187 -1.9145  0.9276
  733MOL0     H96719   1.281   2.419   2.004  0.1962  0.5064 -0.3663
  733MOL0     H96720   1.050   2.162   2.300  3.1597  0.8998 -1.3149
  733MOL0     H96721   0.998   2.059   2.542 -1.5066  1.6431  1.8547
  733MOL0     H96722   0.995   1.985   2.735  1.3004  1.0016 -1.7522
  733MOL0     H96723   0.887   2.123   2.748 -0.8187  0.6647  1.6712
  733MOL0     H96724   0.858   1.997   2.953 -0.3177  0.2190  0.4757
  733MOL0     H96725   0.947   2.147   3.003  0.2084 -0.9551  0.7018
  733MOL0     H96726   1.160   2.022   2.984  1.0513 -3.2890  0.1286
  733MOL0     H96727   1.069   1.882   2.952 -0.7550 -0.4777  0.8371
  733MOL0     H96728   1.017   2.057   3.208 -1.1703 -0.2901  0.0957
  733MOL0     H96729   0.949   1.895   3.171  0.7168 -1.5145 -3.5199
  733MOL0     H96730   1.257   1.932   3.193 -0.5598  2.8942  3.4726
  733MOL0     H96731   1.145   1.780   3.184 -1.9244  0.3150  0.2326
  733MOL0     H96732   1.066   1.852   3.412  0.4570  0.7450  3.6873
  733MOL0     H96733   1.200   1.968   3.417 -0.8016 -1.0454  2.6075
  733MOL0     H96734   1.351   1.786   3.340 -1.3214  2.4819 -1.4515
  733MOL0     H96735   1.310   1.779   3.503  3.3518  1.1850 -2.5440
  733MOL0     H96736   1.292   1.550   3.410 -0.5641 -1.1744 -1.8569
  733MOL0     H96737   1.160   1.607   3.303  1.5871  1.0740 -0.8588
  733MOL0     H96738   1.236   2.362   2.713 -0.7294  1.3118 -0.4598
  733MOL0     H96739   1.265   2.477   2.480  1.6409 -1.4410 -0.9891
  733MOL0     H96740   0.849   2.478   2.030 -1.1410  3.7436  0.2709
  733MOL0     H96741   0.851   2.576   1.822 -0.4025  1.0210  1.9436
  733MOL0     H96742   0.896   3.794   0.802  0.4530 -0.7241  0.5074
  733MOL0     H96743   0.901   3.826   1.049 -2.3827  1.5398  1.1728
  733MOL0     H96744   0.584   3.578   1.532  1.4062  0.7996 -1.3753
  733MOL0     H96745   0.517   3.714   1.739  1.5261  2.2614  2.5580
  733MOL0     H96746   0.540   4.159   1.822 -1.5550 -1.1150  0.0897
  733MOL0     H96747   0.686   4.065   1.805 -1.3539 -1.3319 -3.2902
  733MOL0     H96748   0.638   3.928   2.011  0.7391  0.4731 -2.4751
  733MOL0     H96749   0.695   4.086   2.041  1.5394 -3.3816  0.5122
  733MOL0     H96750   0.400   4.008   2.041  0.2449 -0.8142  0.2736
  733MOL0     H96751   0.454   4.174   2.031  0.4796  0.6180  1.4089
  733MOL0     H96752   0.591   4.103   2.257  0.5045 -0.7530  1.0413
  733MOL0     H96753   0.416   4.110   2.271  0.3279  0.8967 -0.9154
  733MOL0     H96754   0.519   3.691   2.305 -1.8166  0.6279  1.7741
  733MOL0     H96755   0.617   4.082   1.559 -1.0892 -0.0337  4.8847
  733MOL0     H96756   0.686   3.967   1.356  0.5932 -1.3108 -1.1796
  734MOL0     O96757   5.454   7.173   7.565  0.6557  0.3296 -0.4805
  734MOL0     C96758   5.380   7.074   7.584  0.0440  0.5759  0.1393
  734MOL0     O96759   5.308   7.010   7.489  0.1732 -0.2924 -0.7069
  734MOL0     C96760   5.265   7.079   7.380 -0.0770 -0.1449  0.0859
  734MOL0     C96761   5.232   7.217   7.387  0.6283  0.6737 -0.4394
  734MOL0     C96762   5.184   7.284   7.276  0.5940  0.5629  0.9211
  734MOL0     C96763   5.158   7.205   7.160  0.7891  0.4853  0.5629
  734MOL0     O96764   5.098   7.262   7.047  0.5134 -0.1725  0.2103
  734MOL0     C96765   5.187   7.362   6.991  0.6089 -0.5040  0.2556
  734MOL0     C96766   5.146   7.399   6.853  0.3458 -0.7257  0.2711
  734MOL0     C96767   5.135   7.279   6.749  0.6714 -0.3483 -1.4538
  734MOL0     C96768   5.268   7.194   6.740  0.0647  1.3398  0.5000
  734MOL0     C96769   5.379   7.273   6.668  0.0942  0.5797  0.3040
  734MOL0     C96770   5.370   7.291   6.511  0.7114  0.4950 -0.1727
  734MOL0     C96771   5.488   7.345   6.438  0.2535 -0.4878 -0.6961
  734MOL0     C96772   5.544   7.484   6.489 -0.1776 -0.4190 -0.4702
  734MOL0     N96773   5.695   7.472   6.487  0.0775  0.4619 -0.0840
  734MOL0     C96774   5.761   7.397   6.583  0.3069 -0.4137  0.6408
  734MOL0     C96775   5.887   7.387   6.533 -0.4175  0.3310  0.2718
  734MOL0     C96776   6.007   7.297   6.577  0.3986  0.0089  0.5692
  734MOL0     C96777   6.017   7.169   6.495  0.2691  0.0247  0.8989
  734MOL0     C96778   6.115   7.073   6.563 -0.0069  0.7864  0.3535
  734MOL0     C96779   6.047   6.973   6.662  0.5113 -0.8567 -0.0765
  734MOL0     O96780   6.046   7.045   6.791 -0.3045  0.6643 -0.6315
  734MOL0     C96781   6.069   6.974   6.906 -0.1750  0.0640  0.8150
  734MOL0     C96782   6.077   7.050   7.018 -0.0295  0.3457 -0.7380
  734MOL0     C96783   6.102   6.996   7.145  0.2784 -0.3003  0.4589
  734MOL0     C96784   6.103   6.854   7.161  0.5602  0.6559 -0.5069
  734MOL0     C96785   6.103   6.791   7.295  1.6270  0.7532  1.2283
  734MOL0     O96786   6.074   6.873   7.394 -0.3755  0.1090 -0.3725
  734MOL0     C96787   6.054   6.816   7.520  0.6571  0.9153 -0.3151
  734MOL0     C96788   6.151   6.728   7.568 -0.5555  1.1238  0.2673
  734MOL0     C96789   6.146   6.676   7.698  0.1758 -0.7643  0.6109
  734MOL0     C96790   6.046   6.717   7.785  0.9037  0.6726 -0.6146
  734MOL0     O96791   6.051   6.673   7.916 -0.2955 -0.1683 -0.2225
  734MOL0     C96792   5.933   6.649   7.995 -0.2336 -0.0729  0.5156
  734MOL0     C96793   5.824   6.562   7.926  0.5925  0.7604  0.3744
  734MOL0     C96794   5.748   6.459   8.016 -0.0372 -0.5528 -0.3746
  734MOL0     C96795   5.633   6.542   8.081  0.9120  0.8766 -0.5459
  734MOL0     C96796   5.575   6.452   8.199 -0.9561  0.3996 -0.2003
  734MOL0     C96797   5.674   6.436   8.319  0.5425 -0.1685 -1.6349
  734MOL0     C96798   5.599   6.354   8.431 -0.2734 -0.3968  1.2413
  734MOL0     C96799   5.680   6.317   8.549 -0.5236 -0.5292 -0.0607
  734MOL0    Cl96800   5.569   6.236   8.665 -0.1598 -0.3230 -0.1151
  734MOL0     C96801   5.948   6.805   7.731 -0.1517 -0.7729  0.1740
  734MOL0     C96802   5.956   6.863   7.603  0.1303 -0.8821  0.6146
  734MOL0     O96803   6.121   6.666   7.297  0.3843 -0.1170 -0.3995
  734MOL0     C96804   6.082   6.776   7.049 -0.3956  0.1835  0.7022
  734MOL0     C96805   6.063   6.831   6.921 -0.1581 -1.7811  0.0019
  734MOL0     N96806   5.900   7.469   6.420  0.0168  0.4073 -0.4052
  734MOL0     N96807   5.782   7.522   6.395  0.1734  0.4292 -0.2467
  734MOL0     C96808   5.181   7.066   7.153 -0.2509  0.2977 -0.2793
  734MOL0     C96809   5.236   7.002   7.269 -0.3621  0.0218  0.6691
  734MOL0     C96810   5.390   7.009   7.721  0.4481  0.6104 -0.8007
  734MOL0     C96811   5.434   7.088   7.821  0.9110  0.1244 -0.4699
  734MOL0     C96812   5.455   7.039   7.953  0.1121 -0.8206  0.5142
  734MOL0     C96813   5.423   6.903   7.983 -0.2790 -0.0852 -0.1801
  734MOL0     O96814   5.426   6.851   8.111 -0.1536  0.3761  0.0552
  734MOL0     C96815   5.490   6.916   8.219 -0.6186  1.6675 -0.3130
  734MOL0     C96816   5.463   6.884   8.373 -0.2760  0.4737 -0.9955
  734MOL0     C96817   5.323   6.932   8.407  0.2628  0.2007 -0.7988
  734MOL0     C96818   5.289   6.890   8.553 -0.3187 -0.1628 -0.1680
  734MOL0     C96819   5.383   6.936   8.659  0.1982  0.2017  0.2791
  734MOL0     C96820   5.476   6.971   8.722  0.7131 -0.0957  0.7623
  734MOL0     C96821   5.375   6.823   7.876  0.2866  0.0158  0.2525
  734MOL0     C96822   5.356   6.877   7.747 -0.0836  0.7224 -0.1320
  734MOL0     H96823   5.232   7.280   7.476  0.2078 -0.9276  0.7452
  734MOL0     H96824   5.170   7.391   7.268  1.0283  0.5915  0.5582
  734MOL0     H96825   5.290   7.326   6.983  0.0477 -3.7280  4.1927
  734MOL0     H96826   5.206   7.454   7.046 -0.0989  1.4979 -2.5936
  734MOL0     H96827   5.207   7.477   6.807 -1.3296  1.0699  0.9537
  734MOL0     H96828   5.051   7.449   6.872  0.0802 -0.7875 -0.8374
  734MOL0     H96829   5.115   7.312   6.647 -0.6229 -1.9755 -1.7720
  734MOL0     H96830   5.054   7.215   6.785  3.8599 -2.9193  1.9964
  734MOL0     H96831   5.307   7.163   6.838 -2.3048 -1.3749  0.7142
  734MOL0     H96832   5.245   7.100   6.689 -2.3006  0.1233  3.5353
  734MOL0     H96833   5.473   7.219   6.684  0.4053  0.9783 -0.1402
  734MOL0     H96834   5.387   7.374   6.709  0.9595  1.9308 -2.8372
  734MOL0     H96835   5.290   7.363   6.491  3.3774  3.8345  0.3097
  734MOL0     H96836   5.350   7.198   6.456  2.6294  0.7250 -1.3636
  734MOL0     H96837   5.568   7.272   6.453  0.7772  0.4605  1.5446
  734MOL0     H96838   5.475   7.361   6.331  0.4949 -0.2790 -0.6947
  734MOL0     H96839   5.526   7.497   6.597  1.9870 -1.5016  0.0645
  734MOL0     H96840   5.500   7.562   6.426 -1.3887 -3.2105 -3.3183
  734MOL0     H96841   5.716   7.335   6.659 -0.8426  0.2923  0.5618
  734MOL0     H96842   5.984   7.261   6.677  0.0203 -3.6804 -0.6676
  734MOL0     H96843   6.102   7.350   6.564 -1.5832  3.4499 -1.1862
  734MOL0     H96844   6.050   7.193   6.394  0.0895  0.3074  0.9039
  734MOL0     H96845   5.918   7.123   6.481  0.0092  0.9874 -0.8155
  734MOL0     H96846   6.158   7.016   6.480  0.0363 -0.6848  1.3521
  734MOL0     H96847   6.195   7.122   6.619 -0.9402  1.7779  0.8405
  734MOL0     H96848   6.108   6.883   6.673  0.2036 -0.8134  2.6495
  734MOL0     H96849   5.947   6.947   6.625 -0.1228  1.1301  0.1066
  734MOL0     H96850   6.064   7.158   7.011  2.6780  0.9516  1.5368
  734MOL0     H96851   6.109   7.056   7.235 -1.5573 -0.3082  0.6428
  734MOL0     H96852   6.227   6.692   7.500 -2.7890  0.9249 -2.2769
  734MOL0     H96853   6.230   6.615   7.730 -0.4506 -1.4333  1.0464
  734MOL0     H96854   5.883   6.744   8.018  0.2211 -0.1522  1.9147
  734MOL0     H96855   5.960   6.604   8.091  1.2958  0.9594  0.6043
  734MOL0     H96856   5.867   6.492   7.854 -1.0925 -1.8719  1.7597
  734MOL0     H96857   5.757   6.626   7.869 -2.6145  2.0183  4.9609
  734MOL0     H96858   5.815   6.415   8.091  0.0895 -1.9442 -1.2583
  734MOL0     H96859   5.714   6.378   7.951 -0.3333 -0.0281 -0.8726
  734MOL0     H96860   5.675   6.640   8.105  0.7326  0.4633  1.6165
  734MOL0     H96861   5.549   6.558   8.014  0.7627 -2.2845 -1.3041
  734MOL0     H96862   5.549   6.349   8.171  0.2835 -0.0924  0.4321
  734MOL0     H96863   5.486   6.508   8.229  0.6314  2.4152  0.9022
  734MOL0     H96864   5.695   6.532   8.367 -2.2644  0.5372 -1.6377
  734MOL0     H96865   5.768   6.385   8.297  1.6674 -0.9255  3.6229
  734MOL0     H96866   5.515   6.421   8.454 -1.7723 -0.9393 -2.0272
  734MOL0     H96867   5.561   6.263   8.384  2.9441 -0.9370 -0.5785
  734MOL0     H96868   5.727   6.402   8.599 -0.4412 -0.6123  0.0020
  734MOL0     H96869   5.758   6.245   8.522 -0.9061 -1.5044  1.3439
  734MOL0     H96870   5.873   6.842   7.800  1.3243 -2.3735  2.8222
  734MOL0     H96871   5.891   6.941   7.565  0.3179 -1.1817 -0.3536
  734MOL0     H96872   6.080   6.667   7.059 -2.4253  0.2492  1.4200
  734MOL0     H96873   6.034   6.772   6.834  2.0188 -0.3647 -1.7931
  734MOL0     H96874   5.184   7.018   7.055  1.9072 -1.6092  0.6206
  734MOL0     H96875   5.267   6.898   7.266 -1.2126 -0.2201 -0.5968
  734MOL0     H96876   5.464   7.187   7.790  1.1414 -1.0401 -4.4449
  734MOL0     H96877   5.482   7.113   8.028  0.8969  1.7789 -2.1421
  734MOL0     H96878   5.453   7.019   8.220  0.5412  2.2190  3.7468
  734MOL0     H96879   5.597   6.911   8.200 -0.5537 -0.3157  0.4058
  734MOL0     H96880   5.474   6.775   8.382 -0.1987  0.4125 -1.8055
  734MOL0     H96881   5.542   6.933   8.431 -2.3333  1.0209  1.5624
  734MOL0     H96882   5.249   6.892   8.337 -1.3875  2.1426 -0.2840
  734MOL0     H96883   5.335   7.041   8.396  0.0204  0.2690 -0.4338
  734MOL0     H96884   5.188   6.917   8.585  0.3404 -0.3898  2.3509
  734MOL0     H96885   5.305   6.782   8.556 -0.5959 -0.1985  0.1799
  734MOL0     H96886   5.563   6.998   8.779  2.1796 -0.8846 -1.0031
  734MOL0     H96887   5.357   6.718   7.899  2.7001  0.0672  2.9784
  734MOL0     H96888   5.320   6.818   7.662 -0.3898 -1.0769  1.1877
  735MOL0     O96889   7.129   9.425  10.120  0.3922  0.2842  0.2711
  735MOL0     C96890   7.141   9.529  10.059  0.1340  0.0082  0.7978
  735MOL0     O96891   7.251   9.555   9.984  0.6146  0.1717  0.5501
  735MOL0     C96892   7.334   9.450   9.948  0.4729  0.4154 -0.4552
  735MOL0     C96893   7.461   9.444  10.006 -0.1167  0.0329  0.2544
  735MOL0     C96894   7.541   9.333   9.998 -0.4361 -0.6070  0.6525
  735MOL0     C96895   7.499   9.216   9.930  0.8276 -0.5157 -0.0574
  735MOL0     O96896   7.561   9.098   9.953 -0.3685  0.2785 -0.1918
  735MOL0     C96897   7.672   9.089  10.052 -0.0230  0.6566 -0.0192
  735MOL0     C96898   7.805   9.080   9.976  0.2105  0.3697  0.1308
  735MOL0     C96899   7.927   9.039  10.061  0.5437 -0.1973  0.8485
  735MOL0     C96900   8.049   9.002   9.971  0.4808  0.0788  0.2158
  735MOL0     C96901   8.180   9.000  10.044 -0.0747  0.4879 -0.6727
  735MOL0     C96902   8.185   8.901  10.159 -0.0976 -0.1770 -0.3292
  735MOL0     C96903   8.335   8.875  10.202  0.6119 -0.1137 -0.4660
  735MOL0     C96904   8.430   8.781  10.124 -0.2144  0.4602  0.1236
  735MOL0     N96905   8.373   8.642  10.126  0.1012  0.7800 -1.3143
  735MOL0     C96906   8.280   8.596  10.034 -1.0232 -0.0668 -0.3732
  735MOL0     C96907   8.277   8.462  10.064 -0.0770  0.4038 -0.1345
  735MOL0     C96908   8.193   8.353  10.005  0.1328 -0.4645  0.3437
  735MOL0     C96909   8.291   8.253   9.943 -0.1624  0.6153 -0.0716
  735MOL0     C96910   8.241   8.178   9.818  0.9809 -0.2116  0.6815
  735MOL0     C96911   8.088   8.140   9.812 -0.8997  0.1504  0.1040
  735MOL0     O96912   8.062   8.091   9.682 -0.3236 -0.3141 -0.5678
  735MOL0     C96913   8.042   8.179   9.579  0.7798  0.6434 -0.1569
  735MOL0     C96914   7.985   8.126   9.456 -0.2128  0.3706 -0.4131
  735MOL0     C96915   7.937   8.198   9.351  0.9365  0.3281 -1.1823
  735MOL0     C96916   7.945   8.340   9.357 -0.0701  1.2146 -0.0047
  735MOL0     C96917   7.919   8.427   9.241  0.1841 -0.8699  0.0256
  735MOL0     O96918   7.935   8.562   9.256  1.2246  0.9238 -0.6294
  735MOL0     C96919   7.931   8.639   9.149  0.1778 -0.7006 -0.1456
  735MOL0     C96920   8.035   8.651   9.058 -0.0212 -0.5728 -0.5174
  735MOL0     C96921   8.021   8.725   8.936  0.0799  0.0343 -0.3511
  735MOL0     C96922   7.900   8.792   8.912  0.2842 -0.2559 -0.2944
  735MOL0     O96923   7.894   8.854   8.790 -0.6988  0.2010  0.7659
  735MOL0     C96924   7.795   8.794   8.700 -0.2763 -0.8379 -0.1038
  735MOL0     C96925   7.852   8.772   8.569  0.5887 -0.3099 -0.3211
  735MOL0     C96926   7.738   8.774   8.462 -0.0556 -0.2143  0.2290
  735MOL0     C96927   7.653   8.649   8.467 -0.7091  0.6814  0.4392
  735MOL0     C96928   7.557   8.646   8.343 -0.5388  0.4801 -0.0454
  735MOL0     C96929   7.478   8.516   8.337  0.0510 -0.1231 -0.0459
  735MOL0     C96930   7.456   8.474   8.195 -0.4170  0.1413 -0.5974
  735MOL0     C96931   7.332   8.379   8.194  0.6629 -0.0967  0.4239
  735MOL0    Cl96932   7.259   8.352   8.031  0.2731 -0.0146 -0.0696
  735MOL0     C96933   7.794   8.785   9.003  0.7772  0.4024 -1.2060
  735MOL0     C96934   7.815   8.702   9.117  0.7157  0.5678 -0.2860
  735MOL0     O96935   7.875   8.376   9.135  0.1717 -0.0416 -0.2965
  735MOL0     C96936   7.994   8.396   9.484  0.0238  0.5947 -0.3474
  735MOL0     C96937   8.041   8.316   9.594  0.5782 -0.1704 -0.2827
  735MOL0     N96938   8.357   8.439  10.176 -0.6383  0.3068  0.8407
  735MOL0     N96939   8.400   8.546  10.222  0.0006 -0.4213 -0.2541
  735MOL0     C96940   7.374   9.220   9.866 -0.3907 -0.2288 -0.3230
  735MOL0     C96941   7.288   9.333   9.874  0.3651  0.1641  0.8810
  735MOL0     C96942   7.036   9.632  10.065 -0.0828 -0.7718 -0.2618
  735MOL0     C96943   7.049   9.757  10.013 -0.7372  0.6126  0.4387
  735MOL0     C96944   6.952   9.846  10.009 -0.2029 -0.9121  0.1951
  735MOL0     C96945   6.828   9.818  10.069 -0.4555 -0.8825 -0.6842
  735MOL0     O96946   6.726   9.913  10.037 -1.1998 -0.6738 -0.7309
  735MOL0     C96947   6.620   9.927  10.129  0.4178  0.0308  0.4026
  735MOL0     C96948   6.652   9.992  10.260  1.1007 -0.4004  0.0170
  735MOL0     C96949   6.783  10.074  10.274  0.1859 -0.0055  0.3493
  735MOL0     C96950   6.761  10.188  10.384  1.1704 -0.3725 -0.0478
  735MOL0     C96951   6.798  10.139  10.510 -0.4428  0.2041 -1.1636
  735MOL0     C96952   6.831  10.090  10.619  0.0189  0.2735 -0.4572
  735MOL0     C96953   6.804   9.689  10.117  0.1782  1.3701 -0.0168
  735MOL0     C96954   6.906   9.602  10.120 -0.6855 -0.3655 -0.2323
  735MOL0     H96955   7.488   9.529  10.068 -5.1661  0.5969  2.2560
  735MOL0     H96956   7.642   9.359  10.029 -0.8738 -0.5692  2.1368
  735MOL0     H96957   7.655   8.997  10.109 -2.4680  1.2655  0.3772
  735MOL0     H96958   7.676   9.170  10.126  1.3344 -0.6013  1.3411
  735MOL0     H96959   7.821   9.180   9.935  3.6714 -0.6211 -1.3606
  735MOL0     H96960   7.793   9.012   9.891 -2.2358  0.0981  0.6058
  735MOL0     H96961   7.894   8.958  10.127 -0.9103 -0.0545  0.3341
  735MOL0     H96962   7.946   9.129  10.121 -0.3228  0.8885 -0.4253
  735MOL0     H96963   8.028   8.905   9.925 -2.0436  2.0092 -3.1800
  735MOL0     H96964   8.050   9.080   9.895 -0.4528 -0.9040 -0.8411
  735MOL0     H96965   8.204   9.101  10.078  0.3504  0.8928 -2.0969
  735MOL0     H96966   8.252   8.965   9.969 -0.9920 -0.8508 -0.9635
  735MOL0     H96967   8.131   8.807  10.144 -2.1988  0.5766  1.8712
  735MOL0     H96968   8.125   8.948  10.238  1.9949  1.3188  0.4613
  735MOL0     H96969   8.379   8.974  10.217  0.0330 -0.1146  1.5952
  735MOL0     H96970   8.331   8.835  10.304  2.6275  2.6857  0.8348
  735MOL0     H96971   8.530   8.776  10.168 -1.3746 -0.6242  2.9019
  735MOL0     H96972   8.446   8.825  10.025 -2.4070 -0.9098 -0.9297
  735MOL0     H96973   8.225   8.658   9.964 -0.4367  0.6074 -0.2463
  735MOL0     H96974   8.124   8.396   9.931 -0.6843 -1.7035  0.3468
  735MOL0     H96975   8.123   8.301  10.070  1.9603  0.3624  3.1571
  735MOL0     H96976   8.315   8.181  10.022  2.3940 -0.2792 -1.5407
  735MOL0     H96977   8.390   8.292   9.918 -0.0740  1.1521  1.0499
  735MOL0     H96978   8.258   8.256   9.743  1.0822  0.0736  1.0019
  735MOL0     H96979   8.296   8.092   9.778  0.3634  0.4783 -1.8034
  735MOL0     H96980   8.028   8.226   9.842  0.5684  0.8092  1.3041
  735MOL0     H96981   8.063   8.056   9.878 -1.6840  0.1134 -0.2363
  735MOL0     H96982   7.985   8.017   9.450 -0.3789  0.3433  0.0405
  735MOL0     H96983   7.894   8.155   9.261  0.9022 -1.9253 -0.1588
  735MOL0     H96984   8.129   8.596   9.064  0.1753 -0.2724 -0.7481
  735MOL0     H96985   8.103   8.734   8.866 -0.0728 -1.5066 -0.7823
  735MOL0     H96986   7.705   8.855   8.708 -0.4013 -1.1501  1.0422
  735MOL0     H96987   7.771   8.696   8.743 -3.3278  0.0852  0.4818
  735MOL0     H96988   7.903   8.675   8.571 -1.5909 -1.5407 -1.0815
  735MOL0     H96989   7.912   8.855   8.533  0.2203 -0.6433 -1.7775
  735MOL0     H96990   7.782   8.789   8.363  0.6734  0.1413  0.5958
  735MOL0     H96991   7.669   8.855   8.488 -0.7044 -0.4558 -0.6734
  735MOL0     H96992   7.720   8.562   8.463  0.8432  1.5983  3.5281
  735MOL0     H96993   7.587   8.649   8.554 -0.0540 -0.4076  0.9492
  735MOL0     H96994   7.610   8.663   8.249 -3.2405 -0.5700 -1.8687
  735MOL0     H96995   7.484   8.727   8.349 -0.0896  0.9697 -0.9277
  735MOL0     H96996   7.389   8.524   8.401  0.1139 -2.5947  0.4589
  735MOL0     H96997   7.537   8.436   8.383  0.1035 -0.9685 -1.5269
  735MOL0     H96998   7.450   8.564   8.134 -0.1297  0.1645 -0.5927
  735MOL0     H96999   7.547   8.418   8.169 -1.0350 -0.9388 -0.5208
  735MOL0     H97000   7.268   8.413   8.275  0.0563 -3.4529  1.5102
  735MOL0     H97001   7.357   8.285   8.244  0.9645  0.4096  1.2547
  735MOL0     H97002   7.690   8.814   8.991  0.0451 -2.1933 -1.8054
  735MOL0     H97003   7.726   8.673   9.172  0.7258  0.2271 -0.4461
  735MOL0     H97004   8.004   8.504   9.492 -0.5128  0.9601 -3.3367
  735MOL0     H97005   8.064   8.360   9.690 -0.5675  3.6243 -1.5691
  735MOL0     H97006   7.339   9.130   9.817 -1.8228 -0.5910  1.2418
  735MOL0     H97007   7.184   9.327   9.845  0.7671 -0.0868 -0.5479
  735MOL0     H97008   7.151   9.767   9.975  0.6059  0.2190  3.6279
  735MOL0     H97009   6.965   9.945   9.967 -0.2527 -1.3425 -0.8580
  735MOL0     H97010   6.573   9.829  10.143 -0.8144  0.6826  0.9361
  735MOL0     H97011   6.548   9.992  10.079  0.4237  2.9254  3.7857
  735MOL0     H97012   6.570  10.061  10.281  1.3689 -0.2489  0.5976
  735MOL0     H97013   6.641   9.925  10.346  1.5919  1.0317  1.2400
  735MOL0     H97014   6.796  10.128  10.180  1.2393 -1.2101 -0.2310
  735MOL0     H97015   6.863  10.004  10.301 -1.6621 -2.4495 -0.2267
  735MOL0     H97016   6.820  10.275  10.354 -1.2767  1.5654  0.4218
  735MOL0     H97017   6.657  10.219  10.398  1.0083 -0.9260  0.0044
  735MOL0     H97018   6.849  10.031  10.707 -1.8471  0.9853  0.4544
  735MOL0     H97019   6.713   9.662  10.169  0.1126 -0.3155 -0.9374
  735MOL0     H97020   6.886   9.501  10.152  0.5145 -1.4477 -2.6192
  736MOL0     O97021   5.916  10.758   5.288  0.0957  0.0698 -0.0621
  736MOL0     C97022   6.017  10.726   5.344  0.2480 -0.3418  0.1370
  736MOL0     O97023   6.011  10.632   5.449  0.5062  0.5580  0.6119
  736MOL0     C97024   5.890  10.586   5.496  0.4253  0.2981  0.5271
  736MOL0     C97025   5.901  10.464   5.561  0.3944 -0.2327  0.5386
  736MOL0     C97026   5.786  10.404   5.621  0.6491 -0.3385 -0.0001
  736MOL0     C97027   5.660  10.465   5.612  0.6455  0.3811 -0.4954
  736MOL0     O97028   5.543  10.409   5.660 -0.1041  0.8366  0.3457
  736MOL0     C97029   5.548  10.352   5.795  0.1357  0.7717  0.5654
  736MOL0     C97030   5.607  10.445   5.909 -0.5809 -0.2226  0.8433
  736MOL0     C97031   5.603  10.380   6.056  0.0239 -0.2322  0.2713
  736MOL0     C97032   5.651  10.475   6.169 -0.5401 -0.4626 -0.0578
  736MOL0     C97033   5.547  10.477   6.285  0.0609 -0.1035  0.4960
  736MOL0     C97034   5.437  10.579   6.256  0.6536 -0.4532  0.7078
  736MOL0     C97035   5.300  10.544   6.304 -0.0106 -0.0660 -0.4782
  736MOL0     C97036   5.228  10.422   6.240 -0.0241 -0.2130  1.3526
  736MOL0     N97037   5.175  10.457   6.106 -0.6451 -0.1316  0.5489
  736MOL0     C97038   5.051  10.515   6.090 -0.6717 -0.5256  0.4072
  736MOL0     C97039   5.045  10.542   5.957  0.3979  0.4886 -0.8993
  736MOL0     C97040   4.940  10.632   5.896  1.1465  0.0932 -0.0451
  736MOL0     C97041   4.989  10.773   5.882 -0.3258  0.4255  0.7048
  736MOL0     C97042   4.880  10.879   5.863  0.2760 -0.3197 -0.0071
  736MOL0     C97043   4.829  10.946   5.987  0.1782  0.6937 -0.3336
  736MOL0     O97044   4.738  10.867   6.056  0.3001  0.0752  0.6329
  736MOL0     C97045   4.661  10.931   6.146  0.2869  0.9075  0.6980
  736MOL0     C97046   4.559  10.861   6.199 -0.1758  0.1538  0.1877
  736MOL0     C97047   4.470  10.921   6.285 -0.5875  0.1199 -0.2702
  736MOL0     C97048   4.483  11.057   6.325  0.0798 -0.2528 -1.1614
  736MOL0     C97049   4.389  11.124   6.423 -0.4715 -0.0535 -0.0252
  736MOL0     O97050   4.442  11.220   6.513  0.6604 -0.4389 -0.4417
  736MOL0     C97051   4.364  11.316   6.567 -0.2793 -0.2151 -0.6476
  736MOL0     C97052   4.416  11.380   6.681  0.9286  0.3576  0.4730
  736MOL0     C97053   4.350  11.484   6.739  0.2970  0.1422 -0.6768
  736MOL0     C97054   4.231  11.536   6.693  0.6537 -0.5392  0.6148
  736MOL0     O97055   4.153  11.641   6.747 -0.0862 -0.5528 -0.3760
  736MOL0     C97056   4.040  11.605   6.826 -0.1606  0.0218  0.4851
  736MOL0     C97057   3.934  11.712   6.854  1.1286  0.6542 -0.1154
  736MOL0     C97058   3.893  11.773   6.716  0.2719  0.1657 -0.6015
  736MOL0     C97059   3.802  11.893   6.733  0.0228 -0.5257 -0.0056
  736MOL0     C97060   3.718  11.926   6.613 -0.6424  0.2868 -0.3563
  736MOL0     C97061   3.596  11.828   6.605  0.3638 -0.0837 -0.2783
  736MOL0     C97062   3.505  11.865   6.491 -0.5687  0.1928  0.0604
  736MOL0     C97063   3.379  11.783   6.496  0.2296  0.5908 -0.6288
  736MOL0    Cl97064   3.239  11.893   6.480 -0.3407  0.1445 -0.2704
  736MOL0     C97065   4.178  11.483   6.565  0.0445  0.5556 -0.2928
  736MOL0     C97066   4.246  11.369   6.508  0.2723  0.5190  0.2272
  736MOL0     O97067   4.268  11.082   6.410  0.1623 -0.5176 -0.0672
  736MOL0     C97068   4.588  11.131   6.271 -0.3353  0.3865  0.3753
  736MOL0     C97069   4.679  11.067   6.185  0.5419  0.0376 -0.5761
  736MOL0     N97070   5.159  10.509   5.885 -0.1046  0.0546  0.1430
  736MOL0     N97071   5.244  10.448   5.977  0.5734  0.1521  0.2168
  736MOL0     C97072   5.645  10.589   5.561  0.2719 -0.2989  0.1470
  736MOL0     C97073   5.763  10.648   5.498  0.1410 -0.0874 -0.8662
  736MOL0     C97074   6.146  10.784   5.291  0.8428  0.1257 -0.9399
  736MOL0     C97075   6.157  10.872   5.177  0.0419  0.8193 -0.3112
  736MOL0     C97076   6.274  10.897   5.101 -0.5098  0.5698  0.0357
  736MOL0     C97077   6.385  10.838   5.142 -0.2585  0.9607  0.2044
  736MOL0     O97078   6.505  10.850   5.075 -1.2031 -0.2203  0.7277
  736MOL0     C97079   6.501  10.892   4.939  0.2900 -0.1203  0.0394
  736MOL0     C97080   6.636  10.862   4.869  0.8450  0.5889  0.3583
  736MOL0     C97081   6.667  10.723   4.831 -0.3913 -0.8680 -0.4054
  736MOL0     C97082   6.800  10.697   4.770 -0.2178  0.7329  0.5351
  736MOL0     C97083   6.828  10.551   4.760  0.4746  0.0968  0.3938
  736MOL0     C97084   6.845  10.436   4.737 -0.8216  0.3132 -0.3427
  736MOL0     C97085   6.379  10.753   5.258  0.8866 -1.1405  0.6931
  736MOL0     C97086   6.265  10.733   5.336 -1.1662 -0.2708 -0.6316
  736MOL0     H97087   6.000  10.424   5.575  1.4219  2.3428  1.1682
  736MOL0     H97088   5.792  10.307   5.670  0.4056 -0.2232  0.2577
  736MOL0     H97089   5.608  10.260   5.793  0.2556  0.7482 -3.8828
  736MOL0     H97090   5.448  10.318   5.824 -0.2472 -0.9859 -2.3885
  736MOL0     H97091   5.554  10.540   5.917 -1.6906 -0.6799 -0.6034
  736MOL0     H97092   5.714  10.459   5.889 -0.3151 -4.4301 -2.0648
  736MOL0     H97093   5.651  10.282   6.052  2.3134  0.8149 -3.8769
  736MOL0     H97094   5.499  10.359   6.081  0.0890  1.3648  2.0626
  736MOL0     H97095   5.745  10.451   6.219  0.1511 -1.0237 -1.6054
  736MOL0     H97096   5.664  10.576   6.129  0.2068 -0.6664 -0.3316
  736MOL0     H97097   5.604  10.494   6.376  1.1108  0.9145 -0.3214
  736MOL0     H97098   5.504  10.381   6.315  0.5614  0.7474  4.4798
  736MOL0     H97099   5.435  10.607   6.151 -0.4581  3.9000  1.6614
  736MOL0     H97100   5.469  10.671   6.307  0.4043 -0.7162  1.3496
  736MOL0     H97101   5.313  10.533   6.412 -0.2530 -1.1999 -0.5497
  736MOL0     H97102   5.228  10.625   6.287 -2.2828 -2.2708 -2.2263
  736MOL0     H97103   5.143  10.390   6.300 -3.1461 -1.8510 -3.4046
  736MOL0     H97104   5.293  10.335   6.227  1.1756  0.8376 -0.0658
  736MOL0     H97105   4.987  10.531   6.176 -0.0724  1.5166  0.5348
  736MOL0     H97106   4.842  10.632   5.946  0.1137 -1.6138 -1.9069
  736MOL0     H97107   4.917  10.590   5.798  0.4998 -4.5863  1.8239
  736MOL0     H97108   5.065  10.786   5.805  0.7107 -2.0328  1.1990
  736MOL0     H97109   5.046  10.802   5.971  0.3794  1.3212 -0.0201
  736MOL0     H97110   4.917  10.955   5.794  0.0929  0.8783  1.1840
  736MOL0     H97111   4.799  10.831   5.806 -0.5966 -1.7892  2.2896
  736MOL0     H97112   4.781  11.040   5.962  1.6938  1.8771  1.0014
  736MOL0     H97113   4.907  10.967   6.060 -0.9474 -2.1574  1.8709
  736MOL0     H97114   4.538  10.758   6.173  0.5125  0.4794 -1.9300
  736MOL0     H97115   4.385  10.868   6.325 -0.0522 -1.7297 -1.4435
  736MOL0     H97116   4.504  11.343   6.733  0.4226  0.4973  1.4606
  736MOL0     H97117   4.405  11.533   6.819  0.1625 -0.0301 -0.4782
  736MOL0     H97118   4.078  11.570   6.923  1.0397  0.4214  0.1781
  736MOL0     H97119   3.989  11.524   6.772  1.1646 -0.9063  0.5522
  736MOL0     H97120   3.973  11.799   6.908  2.6206  2.0282 -3.1198
  736MOL0     H97121   3.851  11.661   6.902  3.1778 -1.1331  1.7718
  736MOL0     H97122   3.845  11.692   6.659  1.6207 -1.6330  0.6985
  736MOL0     H97123   3.985  11.809   6.670  0.8199  0.2007  0.4787
  736MOL0     H97124   3.742  11.878   6.823  0.5512 -2.3438  0.0741
  736MOL0     H97125   3.873  11.974   6.755 -0.1444  0.8444 -3.7374
  736MOL0     H97126   3.783  11.908   6.527 -0.0423 -1.7848  0.4436
  736MOL0     H97127   3.686  12.030   6.612  0.4097  0.6188 -1.1319
  736MOL0     H97128   3.559  11.826   6.708  1.8677 -2.8338  0.3000
  736MOL0     H97129   3.617  11.722   6.588  0.5156  0.4200 -3.9305
  736MOL0     H97130   3.472  11.969   6.502 -5.1445 -1.0735  0.6743
  736MOL0     H97131   3.556  11.829   6.401  1.0230 -2.4222  1.8797
  736MOL0     H97132   3.377  11.725   6.589 -0.6292  1.3341 -0.1702
  736MOL0     H97133   3.362  11.718   6.410 -1.9544  4.9808 -3.9137
  736MOL0     H97134   4.085  11.517   6.519  0.9062 -0.5071 -3.0148
  736MOL0     H97135   4.200  11.336   6.415  0.2928  2.0196 -0.3426
  736MOL0     H97136   4.595  11.237   6.292  2.7927  0.7389 -1.7510
  736MOL0     H97137   4.767  11.120   6.150  2.9671 -2.8389  0.7067
  736MOL0     H97138   5.544  10.627   5.549  0.7219  1.6797  1.9958
  736MOL0     H97139   5.760  10.750   5.462 -1.4701  1.0701  2.1193
  736MOL0     H97140   6.062  10.913   5.146 -2.3176 -0.6550  4.1070
  736MOL0     H97141   6.258  10.961   5.016 -2.0821 -0.9638 -0.8816
  736MOL0     H97142   6.513  11.000   4.952  2.4424 -0.2002 -0.7539
  736MOL0     H97143   6.416  10.847   4.887 -0.0233 -0.0246  0.4651
  736MOL0     H97144   6.635  10.924   4.779  2.3315 -1.9477 -1.5133
  736MOL0     H97145   6.718  10.898   4.931  3.2992  2.6977 -3.7076
  736MOL0     H97146   6.590  10.689   4.761 -1.7846  1.5998 -0.1927
  736MOL0     H97147   6.641  10.668   4.922 -2.6514 -1.0341 -1.0878
  736MOL0     H97148   6.822  10.755   4.680 -0.6721 -0.8339 -0.6272
  736MOL0     H97149   6.866  10.739   4.847  2.1458 -1.8919  0.1139
  736MOL0     H97150   6.851  10.333   4.706 -2.9976  0.4622 -1.4956
  736MOL0     H97151   6.473  10.703   5.276  2.3729  0.2333 -2.4171
  736MOL0     H97152   6.265  10.650   5.407 -1.8587  0.9299  0.8409
  737MOL0     O97153   0.763   4.124   4.552  0.1179 -0.2265  0.2249
  737MOL0     C97154   0.758   4.002   4.579  0.4024  0.7282  0.4272
  737MOL0     O97155   0.777   3.940   4.702  0.1835  0.4805  0.0179
  737MOL0     C97156   0.775   4.027   4.805 -0.2047 -0.2555 -0.4569
  737MOL0     C97157   0.650   4.058   4.873 -0.2930  0.4772  0.3799
  737MOL0     C97158   0.646   4.164   4.961  1.4995 -1.0510 -0.5280
  737MOL0     C97159   0.753   4.244   5.000 -0.3280  0.3864  0.0480
  737MOL0     O97160   0.736   4.333   5.100 -0.7034 -0.0015 -0.7662
  737MOL0     C97161   0.777   4.464   5.078 -0.1370  0.5150 -0.4321
  737MOL0     C97162   0.691   4.551   5.168 -0.9884  0.2531 -0.2926
  737MOL0     C97163   0.729   4.691   5.115 -0.1299 -0.5709  0.4530
  737MOL0     C97164   0.639   4.799   5.189 -0.7972  0.0029  0.2664
  737MOL0     C97165   0.502   4.817   5.126  0.5619 -0.0423 -0.9199
  737MOL0     C97166   0.424   4.932   5.202 -0.4704 -0.4943 -0.7236
  737MOL0     C97167   0.496   5.069   5.180  0.0022  0.9775  0.3720
  737MOL0     C97168   0.480   5.121   5.027  0.8038 -0.3819 -0.1442
  737MOL0     N97169   0.436   5.264   5.018 -0.5920  0.0690  0.2223
  737MOL0     C97170   0.314   5.321   5.039  0.1134  1.2501 -0.1982
  737MOL0     C97171   0.332   5.447   5.009 -0.2437 -0.6023  0.4464
  737MOL0     C97172   0.230   5.553   5.023 -0.8030 -0.6732 -0.5552
  737MOL0     C97173   0.239   5.638   5.165  0.2614  0.4766  1.1604
  737MOL0     C97174   0.136   5.600   5.270  0.2274  1.3206  0.4024
  737MOL0     C97175   0.142   5.459   5.325  0.5174  0.4123  0.1945
  737MOL0     O97176   0.062   5.367   5.248  0.9405 -0.0111  0.0580
  737MOL0     C97177   0.051   5.239   5.274 -0.0447  1.2020  0.1662
  737MOL0     C97178  -0.049   5.171   5.206 -0.0451  0.0947  0.3301
  737MOL0     C97179  -0.082   5.039   5.235 -0.4599 -0.1697  0.1327
  737MOL0     C97180   0.003   4.963   5.323 -0.5254 -0.8482 -0.2552
  737MOL0     C97181  -0.023   4.825   5.374  0.1874  0.6104  0.7268
  737MOL0     O97182   0.060   4.778   5.465 -0.3860  0.5871  0.7044
  737MOL0     C97183   0.021   4.667   5.543  0.3614  0.8560  0.4952
  737MOL0     C97184   0.118   4.597   5.614  0.3740  0.1301  0.1143
  737MOL0     C97185   0.098   4.501   5.710  0.4746  0.6396 -0.4507
  737MOL0     C97186  -0.033   4.461   5.732  0.2456 -0.2694  0.5091
  737MOL0     O97187  -0.064   4.366   5.829 -0.1197  0.5049 -0.5199
  737MOL0     C97188   0.037   4.297   5.904 -0.0786  0.8005 -0.5736
  737MOL0     C97189  -0.002   4.189   5.999 -0.6745  0.8309  0.2497
  737MOL0     C97190   0.069   4.050   5.985  0.5678 -0.2493 -0.2656
  737MOL0     C97191  -0.001   3.948   6.088 -0.0039 -0.1669  0.5132
  737MOL0     C97192   0.029   3.795   6.055  0.3679  0.5976 -1.2401
  737MOL0     C97193  -0.049   3.750   5.926 -0.1921  0.2055 -0.7459
  737MOL0     C97194  -0.061   3.606   5.933  0.6977  0.2676 -0.1377
  737MOL0     C97195  -0.127   3.539   5.817  0.2635  0.7056 -0.0962
  737MOL0    Cl97196  -0.299   3.600   5.808 -0.0421  0.3640 -0.3788
  737MOL0     C97197  -0.139   4.532   5.675  0.0962  0.1037  0.6480
  737MOL0     C97198  -0.111   4.642   5.595 -0.2535  0.1962 -0.5053
  737MOL0     O97199  -0.121   4.769   5.328 -0.3019  0.1293 -0.1242
  737MOL0     C97200   0.108   5.038   5.382 -0.0907 -0.0144 -0.2239
  737MOL0     C97201   0.136   5.169   5.361 -0.3069 -0.6525  0.0194
  737MOL0     N97202   0.464   5.474   4.976 -0.3666  0.0940  0.2179
  737MOL0     N97203   0.525   5.362   4.973  0.5271 -0.4510  0.3703
  737MOL0     C97204   0.879   4.207   4.943  0.1142  0.6633 -0.5467
  737MOL0     C97205   0.898   4.095   4.854  1.3392  0.7890  0.7484
  737MOL0     C97206   0.731   3.911   4.476  0.0353  0.0660  0.3558
  737MOL0     C97207   0.713   3.770   4.490 -0.3643 -0.1703 -0.0487
  737MOL0     C97208   0.699   3.678   4.381 -0.5226  1.3416 -0.0063
  737MOL0     C97209   0.708   3.731   4.261  1.2013  1.0080 -0.2742
  737MOL0     O97210   0.681   3.644   4.159  0.6206 -0.7452  0.7525
  737MOL0     C97211   0.744   3.680   4.030  0.2308 -0.7874 -0.5677
  737MOL0     C97212   0.791   3.546   3.959  0.3295  0.0659  0.3815
  737MOL0     C97213   0.877   3.453   4.024 -0.2653  0.0482  0.1953
  737MOL0     C97214   1.015   3.511   4.069  0.0422 -0.1365  0.0550
  737MOL0     C97215   1.096   3.547   3.957 -0.2485 -0.8242 -0.3185
  737MOL0     C97216   1.142   3.594   3.856 -0.1151 -0.0718 -0.4064
  737MOL0     C97217   0.719   3.873   4.235  0.0244 -0.0995 -0.3463
  737MOL0     C97218   0.729   3.955   4.341 -0.4288 -0.4116  0.0778
  737MOL0     H97219   0.554   4.021   4.837  0.9872 -0.2866 -2.5813
  737MOL0     H97220   0.550   4.201   4.994  1.7702 -0.0768 -0.7952
  737MOL0     H97221   0.758   4.492   4.974 -2.0039  0.4776 -0.1253
  737MOL0     H97222   0.883   4.477   5.104 -0.5223  0.6887  1.1270
  737MOL0     H97223   0.707   4.533   5.274  0.7297  1.9910 -0.2100
  737MOL0     H97224   0.584   4.530   5.152 -1.6106  3.1011 -0.3529
  737MOL0     H97225   0.730   4.697   5.006  1.0798  0.2304  0.4877
  737MOL0     H97226   0.834   4.717   5.130 -1.4369  3.9329  4.1058
  737MOL0     H97227   0.628   4.773   5.295 -2.2795 -1.9529 -0.3186
  737MOL0     H97228   0.683   4.900   5.188 -3.8013  1.4478  1.0127
  737MOL0     H97229   0.444   4.725   5.133 -1.2382  1.1558  2.0116
  737MOL0     H97230   0.511   4.833   5.018 -1.4349 -0.7632 -1.2358
  737MOL0     H97231   0.424   4.913   5.309  0.5527 -2.5675 -1.0435
  737MOL0     H97232   0.321   4.927   5.165 -0.8398 -2.0772  0.4456
  737MOL0     H97233   0.444   5.141   5.243  0.0174 -0.0812  1.6405
  737MOL0     H97234   0.601   5.084   5.207 -0.1412  0.3316  1.3520
  737MOL0     H97235   0.396   5.075   4.975 -0.8722  1.2746  0.9638
  737MOL0     H97236   0.576   5.106   4.977  1.2923 -0.6293  0.8432
  737MOL0     H97237   0.216   5.297   5.079 -0.2366  2.1924 -0.4634
  737MOL0     H97238   0.129   5.519   4.996 -1.8698  1.0235  1.0294
  737MOL0     H97239   0.249   5.622   4.940 -1.2251  0.0281 -0.0773
  737MOL0     H97240   0.212   5.741   5.140 -1.4825 -0.3974 -0.8807
  737MOL0     H97241   0.341   5.638   5.205  1.6592 -1.5457 -2.0249
  737MOL0     H97242   0.149   5.664   5.357  0.4122 -2.4725  3.4351
  737MOL0     H97243   0.038   5.617   5.226  0.0220 -1.6146 -0.4670
  737MOL0     H97244   0.095   5.463   5.424 -2.4208 -2.2427 -0.9156
  737MOL0     H97245   0.247   5.429   5.333  0.1331 -1.0146  0.1667
  737MOL0     H97246  -0.096   5.217   5.120 -0.1298  0.8998  0.7994
  737MOL0     H97247  -0.166   4.981   5.200 -0.3696 -0.6487  0.7024
  737MOL0     H97248   0.210   4.635   5.569 -0.4905 -0.1523 -2.0272
  737MOL0     H97249   0.181   4.457   5.765 -1.6626  0.1441  2.6331
  737MOL0     H97250   0.093   4.359   5.975  0.3691 -3.4956  3.3174
  737MOL0     H97251   0.101   4.257   5.825  0.4741  2.7274 -1.1630
  737MOL0     H97252  -0.110   4.171   5.991 -0.3243 -0.6716 -1.5035
  737MOL0     H97253   0.006   4.224   6.103 -0.1378 -0.4777  0.6677
  737MOL0     H97254   0.175   4.052   6.009  0.5177  0.9542 -0.0772
  737MOL0     H97255   0.055   4.008   5.885 -2.8602  0.5480 -0.2699
  737MOL0     H97256   0.040   3.969   6.187  0.7509  1.6340 -0.1311
  737MOL0     H97257  -0.107   3.973   6.096 -0.6321 -1.5930 -2.1591
  737MOL0     H97258  -0.008   3.730   6.135 -0.1274 -3.4666 -4.4072
  737MOL0     H97259   0.137   3.775   6.051  0.6207  1.2117  1.1324
  737MOL0     H97260   0.010   3.779   5.839 -1.1291  1.0082 -1.1396
  737MOL0     H97261  -0.150   3.794   5.924  0.0624  0.9615  0.8836
  737MOL0     H97262   0.035   3.563   5.963 -0.8832 -0.7873  4.0253
  737MOL0     H97263  -0.136   3.581   6.009  0.6957 -0.1304 -0.2679
  737MOL0     H97264  -0.130   3.430   5.830 -3.9173  0.4818 -1.4547
  737MOL0     H97265  -0.068   3.569   5.730  0.8314  0.8000  0.3196
  737MOL0     H97266  -0.240   4.507   5.706 -0.7112  0.0444 -1.8386
  737MOL0     H97267  -0.195   4.697   5.553  2.1837  3.2885 -1.6688
  737MOL0     H97268   0.173   4.985   5.452 -1.1979  0.6519  1.3704
  737MOL0     H97269   0.225   5.211   5.407  0.9613 -0.3014 -2.5367
  737MOL0     H97270   0.965   4.255   4.988 -0.9665  1.4779  0.7570
  737MOL0     H97271   0.992   4.064   4.809 -0.4728 -1.2493 -1.9995
  737MOL0     H97272   0.702   3.725   4.588  0.9006 -2.8682 -1.0394
  737MOL0     H97273   0.686   3.571   4.389 -3.2251  1.6611  1.1042
  737MOL0     H97274   0.830   3.736   4.067 -1.1792  1.1583 -0.0150
  737MOL0     H97275   0.684   3.743   3.964 -3.6102 -2.8776  0.5791
  737MOL0     H97276   0.704   3.489   3.924 -0.0354  0.8566 -0.0477
  737MOL0     H97277   0.848   3.576   3.871  2.2598 -1.9700  0.8596
  737MOL0     H97278   0.903   3.370   3.957 -2.0788  1.2852 -2.1974
  737MOL0     H97279   0.824   3.409   4.108  1.3142 -0.5181  0.9367
  737MOL0     H97280   1.013   3.608   4.118  2.7211  1.2930 -2.3316
  737MOL0     H97281   1.067   3.447   4.141  3.2113 -1.0527 -2.7738
  737MOL0     H97282   1.188   3.651   3.777 -0.4695 -0.4396 -0.8858
  737MOL0     H97283   0.719   3.913   4.135 -1.0028 -1.1850 -0.8022
  737MOL0     H97284   0.750   4.057   4.309 -0.2768 -0.3764  0.2858
  738MOL0     O97285   6.050   9.411   0.177  0.3888 -0.2531 -0.3138
  738MOL0     C97286   6.055   9.380   0.056 -0.3190  1.8744 -0.6147
  738MOL0     O97287   6.044   9.244   0.009 -0.8847 -0.5480  0.0309
  738MOL0     C97288   6.046   9.148   0.107  0.3025  0.0872  0.6060
  738MOL0     C97289   5.933   9.138   0.183  0.6003  0.7804 -0.6487
  738MOL0     C97290   5.909   9.054   0.286 -0.0877  0.6322 -0.0101
  738MOL0     C97291   6.011   8.969   0.322  0.3179 -0.1930  0.2386
  738MOL0     O97292   5.971   8.886   0.424  0.1636 -1.1897 -0.2893
  738MOL0     C97293   6.067   8.835   0.511  0.6676 -0.0151 -0.9242
  738MOL0     C97294   6.051   8.685   0.510  0.2130 -0.4130  0.1154
  738MOL0     C97295   6.178   8.622   0.563 -0.3455 -0.2812 -0.4333
  738MOL0     C97296   6.166   8.478   0.541 -0.3504 -0.9537 -0.2502
  738MOL0     C97297   6.291   8.411   0.599  0.9378 -0.9934  0.3233
  738MOL0     C97298   6.262   8.297   0.706  0.0727 -0.4803 -0.6048
  738MOL0     C97299   6.380   8.298   0.816  0.5799  0.5535  0.0153
  738MOL0     C97300   6.381   8.426   0.907 -0.4369 -0.0889  0.6195
  738MOL0     N97301   6.479   8.417   1.010 -0.6121  0.7888  0.2119
  738MOL0     C97302   6.496   8.501   1.116 -0.0605 -0.9738 -0.7827
  738MOL0     C97303   6.574   8.434   1.209 -0.5568  1.0636 -0.4457
  738MOL0     C97304   6.616   8.503   1.341  0.1496  0.5083  0.1497
  738MOL0     C97305   6.504   8.486   1.445 -0.6242 -0.1440  0.0680
  738MOL0     C97306   6.550   8.563   1.578 -0.0689  0.1207  0.2197
  738MOL0     C97307   6.442   8.546   1.689 -0.6627  0.5479 -0.3701
  738MOL0     O97308   6.496   8.616   1.801  0.3103 -0.3042  0.0884
  738MOL0     C97309   6.445   8.586   1.924  0.4713 -0.7998  0.6035
  738MOL0     C97310   6.514   8.606   2.042 -0.1220 -0.1404  0.2854
  738MOL0     C97311   6.463   8.578   2.165 -0.4981 -0.2755  0.2113
  738MOL0     C97312   6.327   8.533   2.179  0.1312 -0.6832  0.4838
  738MOL0     C97313   6.255   8.524   2.307  0.3467  0.1072  0.1419
  738MOL0     O97314   6.131   8.490   2.308  0.0773  0.4054 -0.9817
  738MOL0     C97315   6.084   8.424   2.422  0.5285  0.0101 -1.3683
  738MOL0     C97316   6.157   8.351   2.531  0.6286  0.1192 -0.6024
  738MOL0     C97317   6.088   8.287   2.632 -0.6061 -0.6095  0.2761
  738MOL0     C97318   5.947   8.272   2.633 -0.4856 -0.5416  0.2849
  738MOL0     O97319   5.879   8.194   2.722  0.0408 -0.1308 -0.0997
  738MOL0     C97320   5.948   8.122   2.830  0.1109  0.0212 -0.0947
  738MOL0     C97321   5.842   8.054   2.934  0.0166  0.4450 -0.3928
  738MOL0     C97322   5.790   7.934   2.869 -0.0405 -0.6182  0.6052
  738MOL0     C97323   5.675   7.881   2.939  0.9929 -0.6508  0.2907
  738MOL0     C97324   5.593   7.797   2.828  0.9497 -0.3426  0.0130
  738MOL0     C97325   5.546   7.658   2.876 -0.2657 -0.0797 -0.2543
  738MOL0     C97326   5.465   7.685   3.012 -0.4613 -0.1680 -0.4120
  738MOL0     C97327   5.409   7.554   3.065 -0.7879 -0.3292  0.0110
  738MOL0    Cl97328   5.284   7.487   2.947 -0.0093 -0.0056 -0.3054
  738MOL0     C97329   5.883   8.339   2.525 -0.6142 -0.6138 -0.3476
  738MOL0     C97330   5.949   8.411   2.430  0.8535  0.1549 -0.4795
  738MOL0     O97331   6.307   8.577   2.403 -0.2791  0.4241 -0.7360
  738MOL0     C97332   6.250   8.521   2.059 -1.0467  0.4257 -0.4987
  738MOL0     C97333   6.308   8.549   1.929  0.2596 -0.6773 -0.1922
  738MOL0     N97334   6.627   8.319   1.145 -0.2411  0.1160  0.2016
  738MOL0     N97335   6.562   8.308   1.036 -0.0124  0.6311 -0.2510
  738MOL0     C97336   6.131   8.973   0.255 -0.9089 -0.4346  0.3579
  738MOL0     C97337   6.150   9.059   0.139 -1.3272  0.6503 -0.2902
  738MOL0     C97338   6.090   9.489  -0.042  0.1960 -0.2942  0.2671
  738MOL0     C97339   6.148   9.608  -0.008  0.3469 -0.8626 -0.1257
  738MOL0     C97340   6.179   9.701  -0.108 -0.2050 -0.2227  0.4185
  738MOL0     C97341   6.156   9.679  -0.243 -0.8724  0.3862  0.8858
  738MOL0     O97342   6.182   9.768  -0.342  0.0048  0.1760 -0.8773
  738MOL0     C97343   6.249   9.895  -0.303  0.8325  0.5389 -0.1905
  738MOL0     C97344   6.279   9.979  -0.430 -0.7139  0.7220 -0.0396
  738MOL0     C97345   6.162  10.057  -0.488  0.5080  0.2735 -0.8831
  738MOL0     C97346   6.214  10.182  -0.553  0.5826 -0.2033  0.4257
  738MOL0     C97347   6.296  10.142  -0.668 -0.0272 -0.2702 -0.1444
  738MOL0     C97348   6.375  10.119  -0.759 -0.7389 -0.1044  0.5220
  738MOL0     C97349   6.099   9.559  -0.282 -0.6512 -0.0683  0.8223
  738MOL0     C97350   6.067   9.461  -0.179 -0.6500 -0.1937 -0.2625
  738MOL0     H97351   5.859   9.217   0.174 -2.4787 -1.8316 -0.0347
  738MOL0     H97352   5.816   9.048   0.342 -0.9211  1.6003 -1.2324
  738MOL0     H97353   6.036   8.869   0.611  2.5523  1.3362 -0.7351
  738MOL0     H97354   6.170   8.867   0.492  0.4133  2.0823  0.7931
  738MOL0     H97355   6.032   8.651   0.408 -1.0015 -0.8149  0.4502
  738MOL0     H97356   5.964   8.665   0.574 -1.9554  4.0574 -1.0140
  738MOL0     H97357   6.195   8.653   0.667  2.5752 -0.2125 -0.8478
  738MOL0     H97358   6.265   8.651   0.503  0.8300  2.2947  2.2409
  738MOL0     H97359   6.090   8.445   0.613  0.6856 -0.3377  1.1783
  738MOL0     H97360   6.140   8.455   0.438  1.3917 -0.5535 -0.8079
  738MOL0     H97361   6.360   8.481   0.647 -1.8926  0.4802  2.4953
  738MOL0     H97362   6.343   8.366   0.514  0.1252 -2.8445  0.7581
  738MOL0     H97363   6.261   8.199   0.657 -1.0911 -1.5956  1.5309
  738MOL0     H97364   6.165   8.299   0.755  0.2252 -2.6816 -0.1157
  738MOL0     H97365   6.357   8.214   0.881 -0.1279  1.8964  1.5895
  738MOL0     H97366   6.474   8.281   0.763 -1.7123  0.1237 -4.2910
  738MOL0     H97367   6.285   8.447   0.954 -0.9922 -2.9125  0.9026
  738MOL0     H97368   6.399   8.513   0.843 -0.8180  0.8488  1.7546
  738MOL0     H97369   6.453   8.599   1.132  1.4087 -0.3706 -0.4888
  738MOL0     H97370   6.627   8.612   1.335 -0.6138  0.6792  1.5063
  738MOL0     H97371   6.705   8.450   1.375  1.1712 -0.0165 -2.9636
  738MOL0     H97372   6.485   8.380   1.466 -0.4290 -0.2336 -0.2053
  738MOL0     H97373   6.416   8.535   1.401  1.0186  3.8265  0.7443
  738MOL0     H97374   6.640   8.506   1.606 -1.4206 -2.3107 -0.0596
  738MOL0     H97375   6.562   8.667   1.547  3.1619 -0.4504 -0.8162
  738MOL0     H97376   6.436   8.441   1.720  1.5807  0.6288  0.5432
  738MOL0     H97377   6.345   8.577   1.648 -2.1801 -0.7265  1.9991
  738MOL0     H97378   6.617   8.633   2.022 -0.6764 -0.2571 -3.4407
  738MOL0     H97379   6.528   8.586   2.252  2.0315 -1.2302 -1.5014
  738MOL0     H97380   6.264   8.354   2.549  0.4500  0.1086  0.5039
  738MOL0     H97381   6.151   8.261   2.717  0.0491  1.7028  0.5717
  738MOL0     H97382   6.016   8.181   2.892  0.5225  1.3260 -1.7138
  738MOL0     H97383   6.007   8.040   2.788 -0.6122  0.1520 -1.4077
  738MOL0     H97384   5.767   8.127   2.965 -0.8641 -0.1466 -1.1022
  738MOL0     H97385   5.892   8.016   3.024 -0.5301  0.2572 -0.1680
  738MOL0     H97386   5.869   7.858   2.865 -0.6143 -1.2780  1.4926
  738MOL0     H97387   5.754   7.954   2.768 -0.0492 -0.5032  0.6314
  738MOL0     H97388   5.704   7.819   3.024  0.3524 -0.1270  0.9126
  738MOL0     H97389   5.608   7.959   2.978 -0.3975 -1.3988 -0.5250
  738MOL0     H97390   5.655   7.785   2.739 -0.0818  1.3160 -0.9667
  738MOL0     H97391   5.504   7.857   2.809  1.0221  0.4265  1.8250
  738MOL0     H97392   5.636   7.599   2.894 -0.4489  0.1340  1.5673
  738MOL0     H97393   5.483   7.617   2.796  0.0443  0.4750 -0.8006
  738MOL0     H97394   5.529   7.725   3.090 -1.5586 -1.4648  1.2152
  738MOL0     H97395   5.376   7.745   2.989 -1.1857 -1.1040 -0.0783
  738MOL0     H97396   5.357   7.584   3.156 -0.3598  1.5723 -0.3197
  738MOL0     H97397   5.489   7.482   3.081 -0.8976 -0.3355  0.5608
  738MOL0     H97398   5.776   8.355   2.537 -0.5114 -0.1797  0.0149
  738MOL0     H97399   5.902   8.466   2.349 -0.2182 -1.1761 -0.7858
  738MOL0     H97400   6.147   8.486   2.058 -0.2483 -2.1005 -1.4975
  738MOL0     H97401   6.241   8.542   1.844  2.8835 -0.6647 -2.4313
  738MOL0     H97402   6.203   8.896   0.281  0.8012  1.0649  0.2610
  738MOL0     H97403   6.248   9.057   0.091 -0.7985  3.8174  0.4446
  738MOL0     H97404   6.169   9.630   0.096  0.7370  0.3974 -0.4505
  738MOL0     H97405   6.236   9.787  -0.075  5.1023 -3.7173  1.6111
  738MOL0     H97406   6.352   9.881  -0.268  0.5559  1.4901  1.0589
  738MOL0     H97407   6.197   9.960  -0.232 -0.5696 -0.4739 -0.2465
  738MOL0     H97408   6.350  10.054  -0.394  0.9422 -0.4000 -0.8492
  738MOL0     H97409   6.331   9.907  -0.494 -2.3545 -0.2927 -0.3096
  738MOL0     H97410   6.093  10.088  -0.409  2.5909  0.7076  0.8850
  738MOL0     H97411   6.104   9.998  -0.559 -0.6719 -0.8740  0.9387
  738MOL0     H97412   6.133  10.245  -0.588  0.8654 -0.9349 -1.6750
  738MOL0     H97413   6.269  10.240  -0.478 -1.0896 -1.0141  2.3914
  738MOL0     H97414   6.455  10.086  -0.821 -1.3233  1.0660 -0.9062
  738MOL0     H97415   6.076   9.525  -0.382  0.2448  3.1014 -0.5915
  738MOL0     H97416   6.019   9.372  -0.217  1.8285 -2.1447  0.8900
  739MOL0     O97417   4.758  11.058   4.682 -0.5453 -0.3225 -0.1245
  739MOL0     C97418   4.636  11.075   4.676 -0.4712 -0.1562  1.1021
  739MOL0     O97419   4.558  11.074   4.558  0.7072 -0.2307  0.1025
  739MOL0     C97420   4.612  11.051   4.439 -0.9744 -0.1441  0.0182
  739MOL0     C97421   4.736  11.100   4.388  0.8152  0.2239 -0.2475
  739MOL0     C97422   4.778  11.061   4.266 -0.4922  0.3984  0.0011
  739MOL0     C97423   4.698  10.983   4.177 -0.2079 -0.6602 -0.0568
  739MOL0     O97424   4.735  10.972   4.048 -0.4796 -0.2551  0.0324
  739MOL0     C97425   4.653  10.919   3.948  0.4542 -0.5956 -0.1370
  739MOL0     C97426   4.700  10.988   3.827 -0.0361 -0.2363 -0.6275
  739MOL0     C97427   4.613  10.940   3.714 -1.0655  0.0654 -1.0595
  739MOL0     C97428   4.652  11.018   3.598 -0.0811 -0.1854 -0.1902
  739MOL0     C97429   4.620  10.951   3.463 -0.7439 -0.0753 -0.0646
  739MOL0     C97430   4.703  10.818   3.454 -0.4257  0.8559 -0.3184
  739MOL0     C97431   4.743  10.775   3.310 -0.3583 -0.3669  0.6109
  739MOL0     C97432   4.846  10.665   3.288 -0.4344  0.3504 -0.5990
  739MOL0     N97433   4.811  10.541   3.362  0.1045  0.8109  0.3711
  739MOL0     C97434   4.691  10.477   3.349 -0.4771 -0.2209  0.0154
  739MOL0     C97435   4.707  10.353   3.403 -0.4365 -0.0503  0.1704
  739MOL0     C97436   4.597  10.260   3.437 -0.0305  0.3925 -0.3250
  739MOL0     C97437   4.509  10.315   3.548 -0.4433  0.2681  0.1353
  739MOL0     C97438   4.435  10.194   3.617 -0.3686 -0.9304 -0.5933
  739MOL0     C97439   4.343  10.117   3.529  0.9223 -0.0317  0.3922
  739MOL0     O97440   4.228  10.068   3.602 -0.6520 -0.5138  0.0764
  739MOL0     C97441   4.134   9.986   3.550  0.7747 -0.0909 -0.2865
  739MOL0     C97442   4.036   9.950   3.643 -0.9411  1.2038 -0.3470
  739MOL0     C97443   3.933   9.854   3.607 -0.1291 -1.6831 -0.7170
  739MOL0     C97444   3.919   9.813   3.475 -0.4065 -0.4959 -0.8695
  739MOL0     C97445   3.814   9.725   3.443  0.6422 -0.4925  0.3531
  739MOL0     O97446   3.722   9.690   3.544 -0.0314 -0.0880 -0.1583
  739MOL0     C97447   3.634   9.583   3.543  0.1365 -1.2828  0.0402
  739MOL0     C97448   3.648   9.473   3.448 -0.6423 -0.2008  0.1466
  739MOL0     C97449   3.559   9.370   3.440  0.2179 -0.3708 -0.6014
  739MOL0     C97450   3.454   9.362   3.536 -0.3167 -0.5294  0.2609
  739MOL0     O97451   3.359   9.274   3.532 -0.2290  0.4079  0.9205
  739MOL0     C97452   3.320   9.206   3.644 -0.5952  0.0410 -0.6229
  739MOL0     C97453   3.389   9.071   3.638 -0.2365  0.5991  0.5045
  739MOL0     C97454   3.406   9.005   3.776  0.4514  0.4197  1.1331
  739MOL0     C97455   3.405   8.850   3.769 -0.8781  0.0143 -0.2722
  739MOL0     C97456   3.391   8.774   3.905 -0.6244 -0.6440  1.0492
  739MOL0     C97457   3.434   8.632   3.893  0.6413  0.1014 -0.3111
  739MOL0     C97458   3.460   8.562   4.027 -0.1202  1.0899  1.4544
  739MOL0     C97459   3.355   8.555   4.138  0.1588 -0.8267 -0.0892
  739MOL0    Cl97460   3.187   8.545   4.091 -0.1178  0.3060 -0.0982
  739MOL0     C97461   3.436   9.466   3.635  0.0798 -0.1886  0.7140
  739MOL0     C97462   3.527   9.578   3.638  0.4527  0.4284  0.2154
  739MOL0     O97463   3.806   9.689   3.324  0.2048  0.0563 -0.4038
  739MOL0     C97464   4.019   9.862   3.387 -0.2203  0.1728 -0.2743
  739MOL0     C97465   4.127   9.946   3.423  0.5717  0.7897  0.5879
  739MOL0     N97466   4.845  10.335   3.434  0.4511 -0.6676  0.4539
  739MOL0     N97467   4.907  10.446   3.412  0.3642 -0.5693 -0.1448
  739MOL0     C97468   4.574  10.935   4.227 -0.6243  0.1970  0.1396
  739MOL0     C97469   4.533  10.969   4.354  1.3314 -0.2275 -0.0074
  739MOL0     C97470   4.556  11.106   4.795  0.1858 -0.0126 -0.1021
  739MOL0     C97471   4.628  11.135   4.911 -0.2726 -0.3535 -0.8254
  739MOL0     C97472   4.568  11.177   5.034 -0.1347 -0.6736  0.0073
  739MOL0     C97473   4.430  11.181   5.049  0.1145  0.5761 -0.1158
  739MOL0     O97474   4.354  11.212   5.167  0.3143  0.1386  0.2386
  739MOL0     C97475   4.422  11.310   5.244 -0.4306  0.3629  0.2827
  739MOL0     C97476   4.334  11.366   5.345  0.0539  0.1651 -0.6541
  739MOL0     C97477   4.250  11.488   5.291 -0.6620  0.4610  0.2209
  739MOL0     C97478   4.333  11.622   5.307 -0.2976  0.1157 -0.3966
  739MOL0     C97479   4.248  11.740   5.304 -0.7975  0.0716 -0.5398
  739MOL0     C97480   4.168  11.832   5.295  0.1168  0.1456  0.3070
  739MOL0     C97481   4.360  11.144   4.942 -0.1440 -0.6200 -0.0114
  739MOL0     C97482   4.413  11.123   4.808 -0.0769  0.4678  0.2048
  739MOL0     H97483   4.780  11.164   4.464  0.8828  0.2028 -0.2706
  739MOL0     H97484   4.878  11.086   4.229  0.3945  0.6732  2.4200
  739MOL0     H97485   4.546  10.940   3.959  0.0559 -1.3529 -2.1706
  739MOL0     H97486   4.657  10.809   3.946  1.4757 -0.5827  0.4180
  739MOL0     H97487   4.808  10.975   3.816  0.1387  0.0605  0.5591
  739MOL0     H97488   4.677  11.094   3.844  0.2104  0.1526 -2.4866
  739MOL0     H97489   4.507  10.951   3.739 -1.1147 -2.2317  0.0808
  739MOL0     H97490   4.632  10.832   3.708  0.7470 -0.0816  3.3520
  739MOL0     H97491   4.615  11.121   3.594 -1.1753 -0.3663 -6.8045
  739MOL0     H97492   4.761  11.021   3.598 -0.0199  2.3455 -2.6635
  739MOL0     H97493   4.643  11.017   3.378  1.2739  1.4144  1.5473
  739MOL0     H97494   4.518  10.914   3.452  0.7533 -4.4609 -0.9049
  739MOL0     H97495   4.643  10.737   3.498 -2.4785  4.5307  4.7003
  739MOL0     H97496   4.795  10.820   3.512  0.2111 -0.8825 -1.2063
  739MOL0     H97497   4.658  10.747   3.248  0.2813  4.2216 -2.9488
  739MOL0     H97498   4.789  10.863   3.262  0.8868 -1.5228 -0.3961
  739MOL0     H97499   4.943  10.698   3.326  1.3528 -1.8828 -2.8752
  739MOL0     H97500   4.863  10.642   3.182  0.8724 -1.5601 -0.0198
  739MOL0     H97501   4.596  10.515   3.314 -1.7861 -1.5918  1.9412
  739MOL0     H97502   4.650  10.169   3.465  0.2416  0.5935 -0.1759
  739MOL0     H97503   4.539  10.231   3.349  1.0406  0.1256 -0.9528
  739MOL0     H97504   4.442  10.380   3.491  1.8806  1.2578 -1.6473
  739MOL0     H97505   4.567  10.379   3.616  0.3872 -0.7315  0.3960
  739MOL0     H97506   4.514  10.130   3.657  0.1846  0.1939  0.1485
  739MOL0     H97507   4.377  10.234   3.701  3.9135  2.5768  1.0771
  739MOL0     H97508   4.403  10.038   3.483  1.6679 -0.7206  2.4369
  739MOL0     H97509   4.303  10.188   3.456  0.3765 -1.6822 -0.9728
  739MOL0     H97510   4.046   9.985   3.746  0.7042  1.7923 -0.6839
  739MOL0     H97511   3.857   9.827   3.680 -1.6763  2.3654 -0.5538
  739MOL0     H97512   3.730   9.458   3.379 -0.0357 -1.6336  1.1356
  739MOL0     H97513   3.571   9.285   3.373  0.8420 -3.6704  3.2761
  739MOL0     H97514   3.214   9.192   3.667 -0.4205  0.4429  0.4652
  739MOL0     H97515   3.368   9.259   3.727 -1.5427  0.3023 -0.2299
  739MOL0     H97516   3.486   9.092   3.592  0.3051 -0.7207  1.0019
  739MOL0     H97517   3.328   9.009   3.572 -3.6849  2.5307  1.5999
  739MOL0     H97518   3.315   9.026   3.833 -1.4457  0.3305 -1.6881
  739MOL0     H97519   3.494   9.046   3.826 -1.7991  3.7360  2.7743
  739MOL0     H97520   3.334   8.814   3.693 -2.6011  2.4061  0.0865
  739MOL0     H97521   3.503   8.832   3.723  0.2093 -1.2772  2.3762
  739MOL0     H97522   3.287   8.775   3.939 -0.1454  0.4003  2.6210
  739MOL0     H97523   3.442   8.828   3.985 -0.5706  0.7065  0.1422
  739MOL0     H97524   3.527   8.628   3.835  0.0318  2.4758 -1.5991
  739MOL0     H97525   3.355   8.581   3.836 -0.2457 -0.2117  1.1574
  739MOL0     H97526   3.476   8.455   4.012 -1.2485  0.7639  2.4336
  739MOL0     H97527   3.555   8.598   4.067  0.1685  1.3936  0.5128
  739MOL0     H97528   3.349   8.652   4.188 -0.2115 -1.2633  0.7210
  739MOL0     H97529   3.370   8.479   4.215  0.2696  0.2466  0.9637
  739MOL0     H97530   3.348   9.482   3.695 -0.0447  0.2918  0.4070
  739MOL0     H97531   3.503   9.659   3.706 -2.9433  1.7614 -2.2643
  739MOL0     H97532   4.018   9.826   3.284 -2.5615 -3.2406  0.7798
  739MOL0     H97533   4.209   9.982   3.361  0.5964 -0.1279  0.0701
  739MOL0     H97534   4.521  10.859   4.169 -0.7492 -1.6752  2.5007
  739MOL0     H97535   4.439  10.931   4.392  1.2740  1.3993  1.6468
  739MOL0     H97536   4.736  11.124   4.911 -0.2810 -1.0379  1.4778
  739MOL0     H97537   4.623  11.185   5.128 -1.8886  0.1791  1.0201
  739MOL0     H97538   4.457  11.393   5.182  0.6222 -1.5827 -1.8537
  739MOL0     H97539   4.500  11.259   5.302 -2.3478  2.0837  4.8676
  739MOL0     H97540   4.264  11.292   5.385  2.6382 -2.5379 -0.7836
  739MOL0     H97541   4.400  11.392   5.428  1.8417 -3.1551 -0.8414
  739MOL0     H97542   4.171  11.496   5.367 -0.3835  0.0758  0.5503
  739MOL0     H97543   4.207  11.473   5.192  2.2193  0.8961 -1.2012
  739MOL0     H97544   4.369  11.619   5.410 -2.8022  2.1683  0.6727
  739MOL0     H97545   4.400  11.643   5.223 -4.7220  3.4633 -3.5987
  739MOL0     H97546   4.098  11.912   5.306  0.2862  0.0156  3.1171
  739MOL0     H97547   4.252  11.149   4.954 -0.6160 -2.3511 -2.5294
  739MOL0     H97548   4.343  11.116   4.726  0.5365  0.4921 -0.3324
  740MOL0     O97549   8.660   9.816   5.288 -0.4192 -0.0129  0.4160
  740MOL0     C97550   8.673   9.696   5.296 -0.4589 -0.0671 -0.0880
  740MOL0     O97551   8.617   9.604   5.215 -0.1069 -0.2653  0.2827
  740MOL0     C97552   8.509   9.648   5.134 -1.0562 -0.3311  0.6603
  740MOL0     C97553   8.382   9.677   5.181  0.2115  0.0611  0.1486
  740MOL0     C97554   8.282   9.727   5.094 -0.1462 -0.3504 -0.3483
  740MOL0     C97555   8.306   9.740   4.958 -1.0234 -0.7907 -0.0561
  740MOL0     O97556   8.219   9.782   4.867  0.1450 -0.0560  0.4396
  740MOL0     C97557   8.084   9.742   4.881  0.2823 -1.1417 -0.7783
  740MOL0     C97558   8.013   9.787   4.760  0.2056 -0.2134  0.2027
  740MOL0     C97559   7.862   9.747   4.770 -0.0649 -0.8890 -0.2687
  740MOL0     C97560   7.831   9.598   4.748 -0.0273 -0.5514  1.4213
  740MOL0     C97561   7.681   9.571   4.738  0.2636 -0.6390 -0.0587
  740MOL0     C97562   7.664   9.415   4.739 -0.5298 -0.4431 -0.6213
  740MOL0     C97563   7.711   9.350   4.614  0.2690 -0.0963  0.6009
  740MOL0     C97564   7.835   9.244   4.625 -0.2378  0.1368  0.7018
  740MOL0     N97565   7.959   9.309   4.684 -0.1392  0.0720  0.4814
  740MOL0     C97566   8.024   9.291   4.797  0.3350  0.4311 -1.1299
  740MOL0     C97567   8.138   9.363   4.800  0.3754  0.6365 -0.3406
  740MOL0     C97568   8.236   9.387   4.920  0.0979 -0.3423  0.1763
  740MOL0     C97569   8.318   9.263   4.978  0.1867  0.3958 -0.3811
  740MOL0     C97570   8.382   9.182   4.865  0.3473  0.5019  0.1163
  740MOL0     C97571   8.473   9.086   4.930 -1.0607 -1.0984  0.2113
  740MOL0     O97572   8.409   8.969   4.957  0.5020  0.5169 -0.1580
  740MOL0     C97573   8.481   8.874   5.031  0.2371 -1.0788  0.5915
  740MOL0     C97574   8.412   8.758   5.042  0.1387 -0.3320 -0.5629
  740MOL0     C97575   8.473   8.646   5.104  0.3142 -0.0877 -0.5076
  740MOL0     C97576   8.604   8.658   5.159 -0.3214 -0.1610 -1.1500
  740MOL0     C97577   8.661   8.553   5.246 -0.1058 -0.2441 -0.7489
  740MOL0     O97578   8.583   8.484   5.341 -0.1629  0.0553  0.4148
  740MOL0     C97579   8.626   8.404   5.440 -0.6475 -0.2992  1.4515
  740MOL0     C97580   8.530   8.386   5.530  0.0204 -0.1252  0.0907
  740MOL0     C97581   8.558   8.311   5.640 -0.0605 -0.7269 -0.2209
  740MOL0     C97582   8.683   8.255   5.667 -0.6652 -0.1174 -0.2891
  740MOL0     O97583   8.712   8.211   5.788 -0.4370  0.2368 -0.0868
  740MOL0     C97584   8.776   8.073   5.785  0.4058 -0.3518 -0.8705
  740MOL0     C97585   8.814   8.023   5.925 -0.2337  0.6108  0.2265
  740MOL0     C97586   8.694   7.970   6.009  0.7013  1.0872  0.0069
  740MOL0     C97587   8.749   7.937   6.148  0.4765 -0.1708 -0.7370
  740MOL0     C97588   8.641   7.876   6.227 -0.2661  0.5430  0.2593
  740MOL0     C97589   8.521   7.957   6.276  0.7964 -0.2970 -0.3821
  740MOL0     C97590   8.412   7.882   6.350  0.6037  0.5178 -0.0343
  740MOL0     C97591   8.325   7.969   6.436  0.5065 -0.7739 -0.4942
  740MOL0    Cl97592   8.193   7.857   6.503  0.1939  0.1576  0.6982
  740MOL0     C97593   8.782   8.273   5.564  0.4807 -0.3239  1.0404
  740MOL0     C97594   8.753   8.351   5.451  0.0457 -0.1620 -0.8224
  740MOL0     O97595   8.786   8.537   5.235 -0.1318 -0.2179  0.9021
  740MOL0     C97596   8.667   8.782   5.143  0.1516 -0.8771  0.6015
  740MOL0     C97597   8.612   8.884   5.071 -0.7881  0.1081  0.7356
  740MOL0     N97598   8.151   9.411   4.676  0.4230  0.3902  0.8696
  740MOL0     N97599   8.044   9.379   4.615  1.1570 -0.4436 -0.6219
  740MOL0     C97600   8.427   9.699   4.911  0.3899  0.3464  0.8230
  740MOL0     C97601   8.533   9.648   4.993 -0.1179 -0.7479 -0.0632
  740MOL0     C97602   8.749   9.641   5.410  1.3626  0.7652  0.3940
  740MOL0     C97603   8.863   9.707   5.468 -0.2330  0.3142  0.4948
  740MOL0     C97604   8.942   9.642   5.557  0.0795  0.9018  0.3718
  740MOL0     C97605   8.906   9.513   5.603 -0.1654  1.0850 -0.0466
  740MOL0     O97606   8.975   9.445   5.702 -0.5930  0.4251  0.5263
  740MOL0     C97607   9.119   9.469   5.721  0.5502  0.5514 -0.4102
  740MOL0     C97608   9.192   9.357   5.802  0.3526  0.0443  0.5735
  740MOL0     C97609   9.175   9.227   5.724 -0.4667  0.0871  0.0699
  740MOL0     C97610   9.236   9.215   5.585 -1.8069  0.6319 -0.4428
  740MOL0     C97611   9.386   9.212   5.573 -0.1050 -0.6141 -1.0455
  740MOL0     C97612   9.506   9.211   5.566 -0.5285  0.0632 -0.1684
  740MOL0     C97613   8.789   9.456   5.555  0.2188 -0.2761  0.1345
  740MOL0     C97614   8.712   9.517   5.459 -0.3781 -0.0564  0.4391
  740MOL0     H97615   8.376   9.642   5.283  4.6058 -0.3958  0.4206
  740MOL0     H97616   8.189   9.775   5.122 -1.1671 -1.9078 -0.9574
  740MOL0     H97617   8.035   9.787   4.968 -1.5943  1.7689 -3.1436
  740MOL0     H97618   8.082   9.633   4.874  0.4311 -1.0587 -2.9465
  740MOL0     H97619   8.063   9.734   4.678 -1.1350  0.9815 -1.4712
  740MOL0     H97620   8.023   9.895   4.746  0.0911  0.0609  2.0417
  740MOL0     H97621   7.809   9.798   4.690  1.5376  0.6344 -0.4202
  740MOL0     H97622   7.821   9.780   4.866  0.0461  3.8133 -1.5840
  740MOL0     H97623   7.879   9.572   4.653  0.0778  3.2933  0.2552
  740MOL0     H97624   7.883   9.546   4.829  2.4232  1.3067  1.1424
  740MOL0     H97625   7.647   9.616   4.645  2.0682  1.5446  0.2661
  740MOL0     H97626   7.634   9.622   4.823  2.4006 -0.8508  1.3261
  740MOL0     H97627   7.559   9.387   4.751  0.2277 -4.3271 -1.4815
  740MOL0     H97628   7.719   9.380   4.827  3.4059  4.6141 -0.5600
  740MOL0     H97629   7.628   9.298   4.565 -1.0397  3.0439 -0.7845
  740MOL0     H97630   7.751   9.421   4.542 -0.1724 -0.3743  0.0742
  740MOL0     H97631   7.873   9.213   4.527 -1.8285 -0.8716  0.3668
  740MOL0     H97632   7.813   9.155   4.683  1.9416 -1.0999 -0.2378
  740MOL0     H97633   7.990   9.230   4.880  1.7778  0.1486 -0.7244
  740MOL0     H97634   8.182   9.428   5.006  3.2176  2.5184  1.0108
  740MOL0     H97635   8.302   9.468   4.888 -1.2904  0.5269 -0.5827
  740MOL0     H97636   8.252   9.192   5.030  1.9279 -0.9581  0.0698
  740MOL0     H97637   8.384   9.307   5.052  1.0154 -0.7412 -0.4152
  740MOL0     H97638   8.307   9.128   4.807 -0.7398  1.0666  0.9429
  740MOL0     H97639   8.434   9.244   4.792  0.5059  2.4628  1.8168
  740MOL0     H97640   8.517   9.132   5.019  3.1448 -3.2207 -0.4935
  740MOL0     H97641   8.561   9.078   4.866  1.2855 -3.0427  3.3876
  740MOL0     H97642   8.307   8.745   5.017  0.1045  0.8950 -1.1466
  740MOL0     H97643   8.422   8.551   5.099 -0.0841  0.1831 -2.3092
  740MOL0     H97644   8.429   8.426   5.518 -0.3339  0.0130  2.9377
  740MOL0     H97645   8.482   8.299   5.716 -0.9388  3.0515 -0.3173
  740MOL0     H97646   8.871   8.063   5.732  1.1632  0.7393  0.2387
  740MOL0     H97647   8.696   8.010   5.744 -0.0622 -2.2492  2.5400
  740MOL0     H97648   8.864   8.107   5.974  2.0254  1.0187 -2.5124
  740MOL0     H97649   8.898   7.956   5.911  1.3948  2.9652 -2.2566
  740MOL0     H97650   8.653   7.882   5.959 -4.1488  2.6833  0.6801
  740MOL0     H97651   8.609   8.038   6.003 -0.5465 -0.4963 -0.9333
  740MOL0     H97652   8.829   7.864   6.136  0.1626 -0.4066 -1.4791
  740MOL0     H97653   8.788   8.027   6.196 -1.7990 -0.2314  1.4088
  740MOL0     H97654   8.674   7.823   6.317  0.9029 -4.1617 -2.6138
  740MOL0     H97655   8.602   7.795   6.166  2.8369  1.0021 -2.6235
  740MOL0     H97656   8.472   8.000   6.189  2.6282  0.4123 -1.1153
  740MOL0     H97657   8.557   8.035   6.344  1.3197 -2.6080  2.1786
  740MOL0     H97658   8.357   7.832   6.270 -1.2979  0.4154  1.2828
  740MOL0     H97659   8.455   7.803   6.412  2.2595  1.4416  0.0799
  740MOL0     H97660   8.290   8.051   6.374  2.0067 -0.7594 -1.3565
  740MOL0     H97661   8.388   8.007   6.517  1.3186 -2.5992 -0.1977
  740MOL0     H97662   8.889   8.254   5.563  0.2155 -2.2146 -1.4344
  740MOL0     H97663   8.834   8.365   5.380 -0.3615  2.7805 -0.8112
  740MOL0     H97664   8.763   8.813   5.182  1.8369 -1.3217 -2.7447
  740MOL0     H97665   8.669   8.975   5.057  0.7766 -1.1731 -2.1980
  740MOL0     H97666   8.441   9.694   4.804  0.2597 -5.1584  0.7988
  740MOL0     H97667   8.631   9.624   4.953  0.4854  2.6496 -0.9098
  740MOL0     H97668   8.894   9.808   5.441  1.4830 -0.1569  0.5910
  740MOL0     H97669   9.030   9.697   5.591 -1.1238  3.4556 -0.3746
  740MOL0     H97670   9.133   9.565   5.772 -1.1457  1.9190 -2.3270
  740MOL0     H97671   9.158   9.478   5.619  1.7986  2.3468  0.1736
  740MOL0     H97672   9.294   9.387   5.827  0.5377 -2.4965  3.4469
  740MOL0     H97673   9.136   9.357   5.896  1.8932 -0.9333  1.5340
  740MOL0     H97674   9.069   9.200   5.714  0.0080 -2.2809  0.7593
  740MOL0     H97675   9.208   9.146   5.790 -0.8547  2.7094  3.8603
  740MOL0     H97676   9.203   9.116   5.552  0.7860 -0.4942  0.0688
  740MOL0     H97677   9.202   9.288   5.511  0.5504  2.2487 -0.0598
  740MOL0     H97678   9.613   9.210   5.569 -0.4996 -1.9834  3.0503
  740MOL0     H97679   8.770   9.355   5.587 -0.3783 -0.6624 -1.3444
  740MOL0     H97680   8.632   9.459   5.414 -1.8159  1.8696  0.4208
  741MOL0     O97681   5.182  11.243  10.440  0.3751 -0.4812 -1.0562
  741MOL0     C97682   5.103  11.200  10.353  0.6361  0.1430  0.2236
  741MOL0     O97683   4.969  11.249  10.338 -0.7535  0.4709 -0.1303
  741MOL0     C97684   4.920  11.340  10.425 -0.0389 -0.1825 -0.2635
  741MOL0     C97685   4.984  11.467  10.452  0.6182  0.1603 -0.2511
  741MOL0     C97686   4.934  11.568  10.529 -0.0046  0.9580  0.1811
  741MOL0     C97687   4.796  11.552  10.568  0.5204 -0.3292  0.0836
  741MOL0     O97688   4.727  11.652  10.622  0.5260 -0.2639 -0.1849
  741MOL0     C97689   4.707  11.763  10.532 -0.1469  0.0350  0.1681
  741MOL0     C97690   4.583  11.727  10.451 -0.3629  0.1819  1.0057
  741MOL0     C97691   4.448  11.740  10.510 -0.7339  0.8150 -0.3665
  741MOL0     C97692   4.419  11.629  10.613  0.1310 -0.8732 -0.1364
  741MOL0     C97693   4.261  11.617  10.630 -0.7946  0.1801 -0.1448
  741MOL0     C97694   4.223  11.481  10.693  0.0098 -0.0150 -0.9254
  741MOL0     C97695   4.063  11.458  10.710 -1.2302 -0.9023  0.4388
  741MOL0     C97696   4.043  11.315  10.764 -0.2153  0.8632  0.3351
  741MOL0     N97697   3.906  11.289  10.786 -0.5007 -0.2351 -0.1269
  741MOL0     C97698   3.810  11.297  10.692  1.1789 -0.2834 -0.9023
  741MOL0     C97699   3.697  11.256  10.757 -0.3929  0.2535 -0.2650
  741MOL0     C97700   3.560  11.267  10.693 -0.9333  0.0266  0.7155
  741MOL0     C97701   3.457  11.324  10.796  0.4083  0.1420  1.2917
  741MOL0     C97702   3.320  11.350  10.724  0.0620 -0.8632 -0.8711
  741MOL0     C97703   3.208  11.423  10.813  0.3868 -0.6282  0.4155
  741MOL0     O97704   3.169  11.346  10.930  0.3332 -0.1524 -0.3747
  741MOL0     C97705   3.104  11.408  11.039 -0.1128  0.3712  0.9387
  741MOL0     C97706   3.071  11.543  11.044 -0.5338 -0.5504  0.5693
  741MOL0     C97707   3.016  11.582  11.167  0.0419  0.1365  0.4946
  741MOL0     C97708   3.001  11.505  11.272  0.5440  0.0395 -0.8083
  741MOL0     C97709   2.928  11.544  11.399  0.1430  0.0952 -0.3069
  741MOL0     O97710   2.864  11.445  11.468 -1.2351 -0.6651  0.4482
  741MOL0     C97711   2.788  11.467  11.579 -0.2244 -0.3154 -0.2784
  741MOL0     C97712   2.707  11.354  11.613 -0.6868  1.3001 -0.5081
  741MOL0     C97713   2.624  11.364  11.729 -0.2122  0.1029  0.4061
  741MOL0     C97714   2.614  11.482  11.810  0.6884  1.3128  0.7265
  741MOL0     O97715   2.532  11.490  11.920  1.0515 -0.0219  0.5970
  741MOL0     C97716   2.523  11.365  11.990  0.0002 -0.4023 -0.2970
  741MOL0     C97717   2.448  11.380  12.123  0.2230 -0.3360 -0.0314
  741MOL0     C97718   2.306  11.426  12.092  0.2064  0.4444 -0.0606
  741MOL0     C97719   2.253  11.490  12.224  0.5093  1.2899  0.6748
  741MOL0     C97720   2.096  11.537  12.224  0.2409  0.6963  0.2081
  741MOL0     C97721   1.990  11.416  12.220  0.6239  0.2218  0.4961
  741MOL0     C97722   1.996  11.307  12.336  0.4624  0.6624 -0.0828
  741MOL0     C97723   1.904  11.190  12.288 -0.1841 -0.5915  0.3572
  741MOL0    Cl97724   1.975  11.098  12.153  0.3306 -0.0909  0.0651
  741MOL0     C97725   2.705  11.583  11.780  0.0235  0.2536  0.7288
  741MOL0     C97726   2.789  11.575  11.663 -0.4650 -0.4282  0.2880
  741MOL0     O97727   2.934  11.665  11.432  0.6075 -0.7217  0.0075
  741MOL0     C97728   3.044  11.369  11.268  0.2315 -0.5085  1.0478
  741MOL0     C97729   3.089  11.323  11.147  0.0834 -0.0497 -0.4155
  741MOL0     N97730   3.736  11.224  10.888  0.1476  0.3432  0.4771
  741MOL0     N97731   3.857  11.244  10.901  0.5749  0.1027 -0.0798
  741MOL0     C97732   4.724  11.430  10.548  0.5264 -0.2637 -0.0488
  741MOL0     C97733   4.792  11.327  10.479 -0.0517 -0.3046 -0.1415
  741MOL0     C97734   5.156  11.106  10.245  0.0945 -0.9426  0.0328
  741MOL0     C97735   5.082  11.063  10.137 -0.0349 -0.6789 -0.8163
  741MOL0     C97736   5.133  10.979  10.035 -0.6075 -0.4300  0.8533
  741MOL0     C97737   5.264  10.933  10.064  1.1756  1.0593 -0.0859
  741MOL0     O97738   5.335  10.852   9.974  0.2885  0.6550 -0.7099
  741MOL0     C97739   5.273  10.797   9.859  0.5008  0.8115 -0.1104
  741MOL0     C97740   5.363  10.692   9.801  0.4533  0.0210  0.2122
  741MOL0     C97741   5.308  10.652   9.662  0.4201 -0.1148 -0.1353
  741MOL0     C97742   5.396  10.563   9.566  0.4062 -0.3832  0.3299
  741MOL0     C97743   5.339  10.540   9.435 -0.3845  0.0248  0.0543
  741MOL0     C97744   5.291  10.528   9.330  0.3661  0.5457 -0.1048
  741MOL0     C97745   5.336  10.969  10.176 -0.2073 -0.1187 -0.1359
  741MOL0     C97746   5.282  11.054  10.274  1.2206  0.2179 -0.2746
  741MOL0     H97747   5.087  11.482  10.421  2.2983 -2.5262  3.2220
  741MOL0     H97748   4.986  11.660  10.553 -2.6847  2.2198  1.6831
  741MOL0     H97749   4.789  11.790  10.465  1.7027  1.1515  2.7090
  741MOL0     H97750   4.692  11.855  10.589  0.3930 -0.2206  0.7342
  741MOL0     H97751   4.589  11.623  10.415 -1.9458  1.2230 -2.8227
  741MOL0     H97752   4.583  11.790  10.362 -0.7047  0.0690  0.9254
  741MOL0     H97753   4.372  11.741  10.431 -0.2776 -1.9858 -0.9268
  741MOL0     H97754   4.449  11.840  10.554 -3.0724  0.5810  0.3998
  741MOL0     H97755   4.450  11.531  10.576 -4.0204 -2.4749  0.1150
  741MOL0     H97756   4.471  11.656  10.706  1.4634 -2.7733 -0.2611
  741MOL0     H97757   4.219  11.617  10.529 -0.0810 -1.0080 -0.4495
  741MOL0     H97758   4.213  11.706  10.673  0.4285  1.1178 -0.6386
  741MOL0     H97759   4.257  11.474  10.797 -0.0468 -0.7459 -0.9480
  741MOL0     H97760   4.264  11.399  10.632 -4.5959 -2.4992 -1.1298
  741MOL0     H97761   4.015  11.533  10.772 -2.9769 -2.5890  1.2329
  741MOL0     H97762   4.017  11.454  10.610  0.3102  0.1882 -0.3521
  741MOL0     H97763   4.087  11.315  10.864 -0.0479 -0.4658  0.2813
  741MOL0     H97764   4.092  11.241  10.700  0.4588 -0.2190  2.0424
  741MOL0     H97765   3.824  11.338  10.592  0.2600 -0.9934 -1.3365
  741MOL0     H97766   3.529  11.169  10.657  2.2143 -0.1521 -1.9742
  741MOL0     H97767   3.561  11.338  10.611 -1.6789  3.2479  3.2744
  741MOL0     H97768   3.495  11.422  10.827  1.0442  1.0406 -1.9136
  741MOL0     H97769   3.430  11.265  10.884  0.9268 -1.1242  0.6180
  741MOL0     H97770   3.325  11.405  10.630 -0.2878  0.4970 -0.1181
  741MOL0     H97771   3.293  11.252  10.683  1.7939 -1.6870 -0.1378
  741MOL0     H97772   3.124  11.442  10.745  0.1161  3.4148  1.6373
  741MOL0     H97773   3.242  11.522  10.844  0.3694 -1.0792  1.9582
  741MOL0     H97774   3.088  11.605  10.957  0.1568 -0.8574  0.4768
  741MOL0     H97775   2.990  11.687  11.172  0.4451  0.3540 -1.3530
  741MOL0     H97776   2.732  11.264  11.559 -0.2916  1.3432 -0.4069
  741MOL0     H97777   2.553  11.282  11.737 -3.3965  2.7837  2.7391
  741MOL0     H97778   2.623  11.323  12.003 -0.2909 -1.5753 -1.5801
  741MOL0     H97779   2.461  11.284  11.950  0.0703 -2.8789  4.0331
  741MOL0     H97780   2.498  11.449  12.192 -4.0977  1.3328  1.7944
  741MOL0     H97781   2.446  11.280  12.167 -2.7559 -1.3232 -2.1028
  741MOL0     H97782   2.245  11.342  12.058  1.1327 -0.2004 -0.1486
  741MOL0     H97783   2.303  11.505  12.017 -1.5310  1.8471  1.3876
  741MOL0     H97784   2.259  11.424  12.312 -1.7389  2.5027  1.8358
  741MOL0     H97785   2.314  11.575  12.254  0.5745  1.0038  1.3883
  741MOL0     H97786   2.073  11.606  12.142 -1.7339 -0.1691 -0.0355
  741MOL0     H97787   2.082  11.597  12.314 -1.4891  2.8797 -1.3727
  741MOL0     H97788   2.006  11.360  12.127 -0.4639  0.1025  0.3729
  741MOL0     H97789   1.891  11.461  12.212  0.3048  0.0112  2.7359
  741MOL0     H97790   2.095  11.270  12.363  0.2987 -1.4623 -2.0803
  741MOL0     H97791   1.958  11.345  12.432  2.3460 -0.7873  1.3204
  741MOL0     H97792   1.809  11.223  12.244  0.3607  0.5854  0.0136
  741MOL0     H97793   1.881  11.129  12.375  0.5879 -0.5331  0.6086
  741MOL0     H97794   2.705  11.664  11.852 -0.2713 -1.8297  3.2385
  741MOL0     H97795   2.847  11.666  11.652 -1.6047  0.1977 -0.8385
  741MOL0     H97796   3.040  11.296  11.347  2.4982 -2.0600 -0.1691
  741MOL0     H97797   3.109  11.216  11.143 -3.1366 -0.7660 -0.4569
  741MOL0     H97798   4.626  11.421  10.595  1.1291 -0.2057  1.2609
  741MOL0     H97799   4.753  11.226  10.472  1.8896 -1.1566  0.5514
  741MOL0     H97800   4.987  11.111  10.115  0.4186  1.7295  1.8940
  741MOL0     H97801   5.079  10.951   9.946 -1.3425  0.2455  1.0722
  741MOL0     H97802   5.238  10.877   9.793  1.1167  1.9683  0.9250
  741MOL0     H97803   5.184  10.739   9.885 -0.7805  2.1180 -1.4087
  741MOL0     H97804   5.465  10.733   9.798  0.9658 -1.0560  1.6726
  741MOL0     H97805   5.380  10.609   9.871  0.2384 -0.2635 -0.0718
  741MOL0     H97806   5.280  10.738   9.601 -0.5218  0.5437  1.1943
  741MOL0     H97807   5.215  10.597   9.678  1.1291 -0.9491  1.3439
  741MOL0     H97808   5.493  10.610   9.550  0.2376 -0.2877 -0.4628
  741MOL0     H97809   5.417  10.468   9.616 -2.1666  0.1568  2.7222
  741MOL0     H97810   5.228  10.529   9.243  0.9341  0.7945 -0.5206
  741MOL0     H97811   5.438  10.934  10.188 -0.1930 -1.5429 -3.3900
  741MOL0     H97812   5.341  11.068  10.364  1.9078 -1.1209 -0.4862
  742MOL0     O97813   1.041   5.961   1.541 -0.0788 -0.1266  0.1978
  742MOL0     C97814   1.068   6.065   1.588 -0.3017 -0.2165 -0.0527
  742MOL0     O97815   1.165   6.150   1.553 -0.0116  0.1507 -0.0422
  742MOL0     C97816   1.258   6.105   1.451  0.5495  0.1004 -0.0000
  742MOL0     C97817   1.297   5.972   1.416  0.6642 -0.5683  0.2588
  742MOL0     C97818   1.386   5.948   1.310  0.1479  0.8088  0.2365
  742MOL0     C97819   1.432   6.043   1.232 -0.5155  0.5823  0.0698
  742MOL0     O97820   1.519   6.021   1.126 -1.0683 -0.6878  0.2369
  742MOL0     C97821   1.513   6.125   1.014 -0.6172  1.2866  0.1631
  742MOL0     C97822   1.474   6.030   0.897  0.4030 -0.0407 -1.0206
  742MOL0     C97823   1.423   6.123   0.773  0.8529  0.0658 -0.0913
  742MOL0     C97824   1.534   6.202   0.710 -1.1749 -0.2435  0.7112
  742MOL0     C97825   1.482   6.269   0.579 -0.5349  0.1422  0.7365
  742MOL0     C97826   1.369   6.376   0.601 -1.5464 -1.0108 -0.8958
  742MOL0     C97827   1.311   6.445   0.482 -0.2422 -0.7521  0.9808
  742MOL0     C97828   1.283   6.346   0.365  0.1811  0.0130 -0.1035
  742MOL0     N97829   1.201   6.396   0.257 -0.1584 -0.1775  0.8452
  742MOL0     C97830   1.189   6.532   0.209 -0.5587  0.4015 -0.1492
  742MOL0     C97831   1.125   6.517   0.091  0.1104  1.0085 -0.7476
  742MOL0     C97832   1.066   6.625  -0.004  0.2923 -1.1714  0.4687
  742MOL0     C97833   1.170   6.724  -0.064 -0.3267 -0.0955 -0.3835
  742MOL0     C97834   1.106   6.844  -0.140 -0.0801  0.2446  0.4005
  742MOL0     C97835   1.012   6.814  -0.263 -0.0875 -0.5407 -0.4429
  742MOL0     O97836   1.083   6.734  -0.357  0.7906  0.3774  0.0602
  742MOL0     C97837   1.006   6.719  -0.471  0.0968  0.3125  1.0887
  742MOL0     C97838   1.077   6.672  -0.581  0.4679  0.0081 -0.0018
  742MOL0     C97839   1.027   6.682  -0.717  0.2313  0.0849  0.1290
  742MOL0     C97840   0.891   6.716  -0.733 -0.0446  0.6119  0.2866
  742MOL0     C97841   0.844   6.718  -0.872 -0.0307  0.6629  0.1132
  742MOL0     O97842   0.949   6.702  -0.963  0.4710  0.5157  0.1724
  742MOL0     C97843   0.938   6.708  -1.098 -0.2833 -1.8233 -0.3485
  742MOL0     C97844   0.833   6.689  -1.185 -1.1414 -0.2088  0.4251
  742MOL0     C97845   0.838   6.713  -1.329 -0.3110  0.3258 -0.6654
  742MOL0     C97846   0.945   6.766  -1.381 -0.5784  0.5601  0.1535
  742MOL0     O97847   0.939   6.788  -1.511 -0.7685 -0.3796 -0.7068
  742MOL0     C97848   0.997   6.916  -1.559  0.4639  0.3612  0.5847
  742MOL0     C97849   0.887   7.029  -1.562  0.1298 -0.4229 -0.1898
  742MOL0     C97850   0.935   7.163  -1.625 -0.0684  0.3490 -0.5763
  742MOL0     C97851   1.079   7.200  -1.578 -0.1172  0.1439 -0.1026
  742MOL0     C97852   1.105   7.348  -1.605  0.7047  1.0081  0.5804
  742MOL0     C97853   1.152   7.373  -1.746 -0.0521 -0.3669 -0.1951
  742MOL0     C97854   1.193   7.520  -1.781 -1.0243 -0.2904  0.5441
  742MOL0     C97855   1.068   7.615  -1.796 -0.4218  0.0215 -0.0241
  742MOL0    Cl97856   1.117   7.776  -1.841  0.0530 -0.0338 -0.6297
  742MOL0     C97857   1.060   6.786  -1.297 -0.0396 -0.0716  0.3365
  742MOL0     C97858   1.062   6.747  -1.161 -0.0699  0.1025  0.9288
  742MOL0     O97859   0.729   6.742  -0.902  0.1439 -0.1092  0.0500
  742MOL0     C97860   0.814   6.738  -0.617 -0.4614  0.8132  0.3084
  742MOL0     C97861   0.873   6.754  -0.492 -0.4566 -0.9037  0.0543
  742MOL0     N97862   1.117   6.384   0.056 -0.1639  0.2780 -1.2460
  742MOL0     N97863   1.144   6.311   0.165 -0.9771 -0.3913 -0.0955
  742MOL0     C97864   1.405   6.177   1.280 -0.3241 -0.6377  0.4431
  742MOL0     C97865   1.323   6.201   1.384 -0.3823 -0.4632 -0.7538
  742MOL0     C97866   1.002   6.097   1.715 -0.9048 -0.4235 -1.0563
  742MOL0     C97867   0.953   5.998   1.796 -0.3345  0.1385 -0.1855
  742MOL0     C97868   0.889   6.032   1.920 -0.1157  0.0581  0.3231
  742MOL0     C97869   0.897   6.165   1.972  1.0601  0.1255  0.6835
  742MOL0     O97870   0.834   6.208   2.092  0.0434 -0.1017  0.6503
  742MOL0     C97871   0.769   6.110   2.169 -0.1818  0.3518 -0.0590
  742MOL0     C97872   0.689   6.160   2.286 -0.2645  0.0314 -0.3149
  742MOL0     C97873   0.784   6.244   2.374 -0.1249 -0.3563 -0.0887
  742MOL0     C97874   0.720   6.275   2.508  0.5019  0.1884 -0.2055
  742MOL0     C97875   0.588   6.350   2.487 -0.1795 -0.3425 -1.0887
  742MOL0     C97876   0.479   6.397   2.470 -0.9875 -0.7477 -0.6108
  742MOL0     C97877   0.954   6.266   1.891  0.4459  0.3314 -0.1962
  742MOL0     C97878   1.003   6.233   1.760  0.7257  0.3374 -0.3071
  742MOL0     H97879   1.258   5.887   1.471 -0.4389 -1.2575 -1.5119
  742MOL0     H97880   1.418   5.845   1.293 -3.8607 -0.4117 -1.1906
  742MOL0     H97881   1.615   6.163   1.000  0.7427 -1.9248  0.5645
  742MOL0     H97882   1.440   6.207   1.012 -2.9040 -0.6415 -1.6543
  742MOL0     H97883   1.399   5.955   0.923 -0.6303  0.5526 -2.1159
  742MOL0     H97884   1.568   5.983   0.869  1.9653  1.0535  1.9681
  742MOL0     H97885   1.341   6.187   0.806  1.1825  0.7019 -0.4768
  742MOL0     H97886   1.393   6.049   0.698  0.0336 -3.6551  3.5746
  742MOL0     H97887   1.585   6.262   0.786 -0.2475 -1.8126  1.3776
  742MOL0     H97888   1.612   6.127   0.692  1.3334  2.7034 -2.0888
  742MOL0     H97889   1.446   6.196   0.506 -1.5132 -0.7313  2.0527
  742MOL0     H97890   1.559   6.336   0.538 -2.5674  0.5559 -2.8688
  742MOL0     H97891   1.419   6.453   0.661  0.2191 -1.0558 -2.2267
  742MOL0     H97892   1.286   6.335   0.660 -1.9205  1.5703  0.4983
  742MOL0     H97893   1.223   6.501   0.515  2.5565  3.5610  1.8849
  742MOL0     H97894   1.372   6.524   0.438 -1.0015 -1.2243 -1.0332
  742MOL0     H97895   1.235   6.254   0.397 -0.8492  0.6969  0.3683
  742MOL0     H97896   1.381   6.332   0.318  0.8416 -0.1696  1.2868
  742MOL0     H97897   1.201   6.630   0.254 -3.2160  0.8884 -0.3170
  742MOL0     H97898   0.979   6.674   0.040  1.9447  0.9609  1.5354
  742MOL0     H97899   1.030   6.572  -0.093  1.9439 -2.0152  0.2614
  742MOL0     H97900   1.240   6.664  -0.123 -2.5214  0.3141 -3.6890
  742MOL0     H97901   1.212   6.776   0.023 -1.0751  3.1074 -1.7736
  742MOL0     H97902   1.046   6.895  -0.065  0.4237  0.7757  0.4460
  742MOL0     H97903   1.194   6.896  -0.178  0.8004 -1.1395  0.4857
  742MOL0     H97904   0.985   6.910  -0.308  0.4997 -1.3627 -2.6460
  742MOL0     H97905   0.921   6.770  -0.221 -0.4271 -0.0279 -0.6277
  742MOL0     H97906   1.177   6.638  -0.556 -0.2503 -2.5553 -0.3534
  742MOL0     H97907   1.097   6.660  -0.797  3.8240 -2.6674  3.5683
  742MOL0     H97908   0.733   6.654  -1.163 -1.4704 -1.3954 -2.5343
  742MOL0     H97909   0.754   6.684  -1.392 -0.9740  0.1525  0.2790
  742MOL0     H97910   1.032   6.901  -1.661  2.2261 -3.3149  1.5442
  742MOL0     H97911   1.085   6.952  -1.504  0.0643  0.3794  1.2320
  742MOL0     H97912   0.870   7.058  -1.458  0.4590 -0.9857  0.0237
  742MOL0     H97913   0.794   6.986  -1.600  0.5104 -0.4993 -1.0573
  742MOL0     H97914   0.871   7.244  -1.590  2.8236  1.1656  3.5318
  742MOL0     H97915   0.924   7.156  -1.734 -2.4198 -0.8674 -0.3382
  742MOL0     H97916   1.088   7.181  -1.471  0.2606  0.9354  0.0097
  742MOL0     H97917   1.155   7.145  -1.635  0.1869  1.1034 -0.6453
  742MOL0     H97918   1.179   7.380  -1.531 -1.2805 -2.8033  4.6489
  742MOL0     H97919   1.017   7.409  -1.583  0.8312  1.1867  0.6017
  742MOL0     H97920   1.074   7.346  -1.817 -2.0880  1.9250  1.0333
  742MOL0     H97921   1.244   7.315  -1.758  0.1698 -0.2048  0.6173
  742MOL0     H97922   1.268   7.557  -1.711 -0.5410  2.6444 -1.3421
  742MOL0     H97923   1.238   7.518  -1.881 -1.9554 -2.2800  0.1179
  742MOL0     H97924   1.010   7.621  -1.703 -1.4635  3.8092 -0.7216
  742MOL0     H97925   0.996   7.581  -1.871 -3.5656  2.3516  1.6850
  742MOL0     H97926   1.148   6.834  -1.338 -0.2352  0.5456  0.6215
  742MOL0     H97927   1.158   6.760  -1.112  1.1548 -1.0919 -1.0175
  742MOL0     H97928   0.706   6.746  -0.627 -0.5375 -0.6425 -0.2317
  742MOL0     H97929   0.813   6.800  -0.414 -0.7918  2.3036 -1.9028
  742MOL0     H97930   1.449   6.263   1.229 -0.5391 -0.1876  1.0026
  742MOL0     H97931   1.313   6.303   1.419 -0.5846 -0.8273  0.2652
  742MOL0     H97932   0.945   5.895   1.765 -0.5537 -0.1165  0.7007
  742MOL0     H97933   0.847   5.958   1.986  3.5857 -2.2584  0.3425
  742MOL0     H97934   0.847   6.038   2.197  0.5927  1.1298 -0.1412
  742MOL0     H97935   0.694   6.067   2.103  1.1019 -0.6731 -0.9063
  742MOL0     H97936   0.600   6.215   2.254 -1.3125 -0.0084  2.2460
  742MOL0     H97937   0.660   6.071   2.342  2.2788  0.1843  1.4411
  742MOL0     H97938   0.800   6.340   2.325  3.4686 -1.1333 -0.6736
  742MOL0     H97939   0.885   6.204   2.380 -0.2900 -0.7320  0.2803
  742MOL0     H97940   0.703   6.196   2.582 -1.0916  2.1741  1.6644
  742MOL0     H97941   0.784   6.346   2.562 -3.3316  4.8618 -1.1636
  742MOL0     H97942   0.375   6.423   2.458 -1.5542 -2.4110  0.4348
  742MOL0     H97943   0.957   6.371   1.918 -3.2536 -0.4331  4.4779
  742MOL0     H97944   1.043   6.314   1.700 -3.5824  1.9390 -1.4056
  743MOL0     O97945   4.009   5.475  10.884  0.8632 -0.7652  0.6802
  743MOL0     C97946   4.078   5.376  10.870 -0.5496  0.2968  0.7965
  743MOL0     O97947   4.213   5.367  10.910  0.3961 -0.0260  0.7748
  743MOL0     C97948   4.275   5.468  10.978  0.5626  0.0222  0.1733
  743MOL0     C97949   4.328   5.575  10.913 -0.2150 -0.0203 -0.4468
  743MOL0     C97950   4.405   5.668  10.981 -0.5466 -1.4132  0.1002
  743MOL0     C97951   4.426   5.671  11.111  0.2676  0.5460  0.5495
  743MOL0     O97952   4.507   5.763  11.166  0.3415 -0.3782  0.8215
  743MOL0     C97953   4.486   5.780  11.310 -0.7222  0.6936 -0.4733
  743MOL0     C97954   4.580   5.900  11.348  0.7724  0.5775 -0.8418
  743MOL0     C97955   4.535   6.026  11.289 -0.5703 -0.7702  0.6632
  743MOL0     C97956   4.602   6.151  11.345 -0.0552  0.2958 -0.2448
  743MOL0     C97957   4.512   6.270  11.354  0.4162  0.8629 -0.1462
  743MOL0     C97958   4.391   6.249  11.447 -0.4247  0.1823  0.0151
  743MOL0     C97959   4.440   6.242  11.597 -0.3081 -0.1714  0.3235
  743MOL0     C97960   4.325   6.201  11.683 -0.1570  0.7052  0.6554
  743MOL0     N97961   4.233   6.302  11.724 -0.5966 -0.7022 -0.1423
  743MOL0     C97962   4.250   6.393  11.830 -0.0452 -0.1358  0.0828
  743MOL0     C97963   4.147   6.475  11.822  0.5539  0.3028 -0.7308
  743MOL0     C97964   4.145   6.583  11.915 -0.0186  0.1989  0.3987
  743MOL0     C97965   4.253   6.684  11.897 -0.8517 -0.0167 -0.4547
  743MOL0     C97966   4.218   6.776  11.777  0.0970 -0.4894 -0.4985
  743MOL0     C97967   4.236   6.715  11.637  0.9938  0.5844 -0.5706
  743MOL0     O97968   4.362   6.663  11.617  0.9296 -0.1119  0.3403
  743MOL0     C97969   4.457   6.757  11.566  0.8172  0.4206  0.8138
  743MOL0     C97970   4.433   6.891  11.535 -0.8243 -0.0498  0.0213
  743MOL0     C97971   4.529   6.980  11.487  0.3009  0.1768 -0.0713
  743MOL0     C97972   4.657   6.928  11.448  0.5060  0.1632  0.0244
  743MOL0     C97973   4.758   7.006  11.379 -0.5589 -0.1086 -0.7082
  743MOL0     O97974   4.890   6.979  11.401 -0.2082 -0.6490  0.3865
  743MOL0     C97975   4.983   7.060  11.342 -0.3185 -0.0889 -0.1851
  743MOL0     C97976   4.989   7.200  11.368  0.1907  0.1164 -0.5499
  743MOL0     C97977   5.104   7.273  11.316 -0.3659 -0.6545 -0.1195
  743MOL0     C97978   5.204   7.218  11.236  0.8166  0.2467 -0.4758
  743MOL0     O97979   5.324   7.272  11.201 -0.5708  0.3543  0.0816
  743MOL0     C97980   5.379   7.366  11.300 -1.0074  0.2603  0.1016
  743MOL0     C97981   5.520   7.420  11.249 -0.2992  0.3444 -0.2696
  743MOL0     C97982   5.621   7.306  11.233  0.4360 -0.0168  0.2314
  743MOL0     C97983   5.765   7.354  11.198  0.3212  0.3242  0.4480
  743MOL0     C97984   5.884   7.256  11.246 -0.5727  0.6853  0.5655
  743MOL0     C97985   5.889   7.137  11.143  0.2536  0.3603  1.1147
  743MOL0     C97986   6.011   7.051  11.160 -0.1874 -0.2764  0.4720
  743MOL0     C97987   6.054   7.000  11.016  0.3775  0.0475 -0.4806
  743MOL0    Cl97988   6.151   7.129  10.948  0.0297 -0.0753 -0.9159
  743MOL0     C97989   5.188   7.081  11.208  0.6200 -0.1929  0.4063
  743MOL0     C97990   5.080   7.007  11.255 -0.0114  0.3356 -0.2487
  743MOL0     O97991   4.720   7.096  11.307 -0.3157 -0.1258 -0.4083
  743MOL0     C97992   4.680   6.795  11.470 -0.4679  0.1171 -0.2763
  743MOL0     C97993   4.587   6.707  11.534 -0.2536 -0.8240 -0.7054
  743MOL0     N97994   4.056   6.435  11.727 -0.9703  0.1465 -0.0659
  743MOL0     N97995   4.111   6.338  11.665 -0.4877 -0.1024 -0.3686
  743MOL0     C97996   4.371   5.565  11.178  0.1874  0.7550  0.2620
  743MOL0     C97997   4.299   5.462  11.112  0.8669 -0.0498 -0.2607
  743MOL0     C97998   4.021   5.265  10.790 -0.5428  0.0958 -0.7688
  743MOL0     C97999   3.882   5.274  10.742 -0.3479 -0.6835 -0.7924
  743MOL0     C98000   3.829   5.174  10.656 -0.7091  0.4244  0.0136
  743MOL0     C98001   3.906   5.059  10.626  0.1011 -0.0353  0.1913
  743MOL0     O98002   3.864   4.956  10.536 -0.8648 -0.2789 -0.2768
  743MOL0     C98003   3.730   4.951  10.485 -0.9444  0.0306 -0.3607
  743MOL0     C98004   3.726   4.807  10.422  0.4512 -0.6803 -1.7404
  743MOL0     C98005   3.597   4.810  10.339 -1.4849 -0.3922 -0.0797
  743MOL0     C98006   3.546   4.688  10.270 -0.8861  0.0296  0.4135
  743MOL0     C98007   3.646   4.608  10.199  1.1826 -0.8687 -0.3678
  743MOL0     C98008   3.710   4.524  10.144 -1.1588  0.1284  1.1160
  743MOL0     C98009   4.035   5.043  10.685  0.4564  0.7512  1.3056
  743MOL0     C98010   4.089   5.145  10.765  0.5285  0.1243  0.4103
  743MOL0     H98011   4.338   5.578  10.805 -1.4311 -2.7291 -0.7123
  743MOL0     H98012   4.446   5.743  10.914 -0.5129 -0.9812  0.5991
  743MOL0     H98013   4.530   5.705  11.376 -0.9014  1.2644  0.2998
  743MOL0     H98014   4.382   5.791  11.341 -0.4631 -2.2445  1.8736
  743MOL0     H98015   4.686   5.876  11.336  0.5429 -0.1522 -1.4983
  743MOL0     H98016   4.575   5.910  11.457  2.9889 -1.7411 -0.4292
  743MOL0     H98017   4.427   6.034  11.302 -0.3538  2.1539  1.4577
  743MOL0     H98018   4.561   6.013  11.184  1.5333 -4.0194  1.4191
  743MOL0     H98019   4.646   6.133  11.444  0.9952  2.8033 -0.1949
  743MOL0     H98020   4.691   6.174  11.286  0.3142 -1.0413 -0.2611
  743MOL0     H98021   4.471   6.288  11.255  0.4998 -0.0294 -0.3507
  743MOL0     H98022   4.569   6.360  11.376  1.6482 -0.2832  1.6518
  743MOL0     H98023   4.326   6.166  11.416  1.2736 -0.7786 -1.1781
  743MOL0     H98024   4.330   6.335  11.420  0.7204  0.5941 -1.4016
  743MOL0     H98025   4.515   6.165  11.614  1.6217  1.7720  1.2185
  743MOL0     H98026   4.485   6.336  11.632 -0.3802  0.2599 -0.7004
  743MOL0     H98027   4.359   6.158  11.778 -2.3650 -1.2808  0.6365
  743MOL0     H98028   4.272   6.126  11.624  1.1968 -1.2863  1.8435
  743MOL0     H98029   4.323   6.403  11.910 -1.0087 -0.8209  1.0859
  743MOL0     H98030   4.152   6.534  12.012 -1.7978 -1.0271 -0.0374
  743MOL0     H98031   4.053   6.640  11.901  0.7863  1.1494 -1.3579
  743MOL0     H98032   4.356   6.647  11.888 -0.5318 -0.4376  3.4626
  743MOL0     H98033   4.247   6.741  11.990  0.1321 -2.8466  1.4841
  743MOL0     H98034   4.117   6.816  11.785  0.7185  1.0011  0.2055
  743MOL0     H98035   4.285   6.863  11.778 -2.5664  1.7067 -1.4860
  743MOL0     H98036   4.201   6.780  11.556 -0.8025 -0.4834 -0.7181
  743MOL0     H98037   4.170   6.628  11.638  1.9157 -0.2245  2.6762
  743MOL0     H98038   4.342   6.943  11.563 -0.1933 -0.1403  2.4335
  743MOL0     H98039   4.506   7.085  11.472  1.7647  0.1670 -3.0644
  743MOL0     H98040   4.913   7.249  11.427  1.3318 -0.9685  1.9824
  743MOL0     H98041   5.109   7.379  11.337  4.0918  0.1245 -3.4122
  743MOL0     H98042   5.403   7.323  11.398  3.2276 -0.7248 -1.1396
  743MOL0     H98043   5.323   7.459  11.308  2.9016  2.7596  0.9427
  743MOL0     H98044   5.561   7.492  11.321  2.9929 -1.7138  0.1367
  743MOL0     H98045   5.491   7.472  11.157  0.8859 -0.9720 -1.4282
  743MOL0     H98046   5.573   7.236  11.164  0.8225  0.1591 -0.2193
  743MOL0     H98047   5.636   7.253  11.327 -2.1428  2.9986  2.5763
  743MOL0     H98048   5.780   7.369  11.091 -1.5744  1.3096  0.2915
  743MOL0     H98049   5.776   7.449  11.251  0.8270 -0.8397  2.5802
  743MOL0     H98050   5.869   7.207  11.343  0.8537 -3.3043 -1.0374
  743MOL0     H98051   5.974   7.318  11.250 -0.8777  1.0633  2.4186
  743MOL0     H98052   5.879   7.168  11.038  1.1035 -0.2238  0.8450
  743MOL0     H98053   5.804   7.072  11.162  0.9476 -0.5567  1.1626
  743MOL0     H98054   6.090   7.105  11.214  1.5612  0.5927 -2.7177
  743MOL0     H98055   5.989   6.960  11.217  3.5755 -0.5466  1.8141
  743MOL0     H98056   5.971   6.981  10.947  1.6256 -4.1292 -1.0982
  743MOL0     H98057   6.104   6.904  11.029  3.3402  1.6927  1.5686
  743MOL0     H98058   5.261   7.028  11.149 -0.2197  0.0346 -0.8823
  743MOL0     H98059   5.078   6.901  11.234  1.3527 -0.1948  1.9613
  743MOL0     H98060   4.773   6.752  11.434 -1.6735 -2.3536 -0.6667
  743MOL0     H98061   4.617   6.603  11.546  2.8161  0.2563  3.1322
  743MOL0     H98062   4.394   5.539  11.281 -4.4144  2.0947  1.9082
  743MOL0     H98063   4.271   5.373  11.166 -0.3458  0.8950  0.7112
  743MOL0     H98064   3.826   5.364  10.766  0.0906 -0.2879 -1.2365
  743MOL0     H98065   3.736   5.173  10.600 -0.5197 -4.3809 -0.6601
  743MOL0     H98066   3.713   5.032  10.414 -2.1433  0.9136  0.8768
  743MOL0     H98067   3.663   4.969  10.570  0.6827  4.6438  0.2542
  743MOL0     H98068   3.806   4.771  10.358  2.0041 -1.1998  0.3864
  743MOL0     H98069   3.718   4.746  10.512 -0.7200  2.2573  0.3248
  743MOL0     H98070   3.612   4.894  10.270  4.3461 -1.0847 -0.2256
  743MOL0     H98071   3.517   4.838  10.408 -1.8068 -2.8706  0.6278
  743MOL0     H98072   3.511   4.617  10.345 -0.0120  0.6848  1.4621
  743MOL0     H98073   3.468   4.720  10.200 -1.7100 -4.0287 -0.7716
  743MOL0     H98074   3.772   4.448  10.102  0.2475  2.8196 -2.1661
  743MOL0     H98075   4.084   4.948  10.666 -0.1491  0.0017  3.2831
  743MOL0     H98076   4.187   5.127  10.808  0.0749  2.0024  2.4255
  744MOL0     O98077   6.879   5.323   2.336 -0.1845 -0.5037 -0.6190
  744MOL0     C98078   6.771   5.366   2.347  0.3777 -0.0104 -0.7676
  744MOL0     O98079   6.718   5.408   2.461  0.2429  0.4464 -0.7219
  744MOL0     C98080   6.778   5.359   2.574 -0.2902  0.1638 -0.4321
  744MOL0     C98081   6.885   5.434   2.631 -0.7695  0.6479  0.3234
  744MOL0     C98082   6.953   5.391   2.746  0.4816  0.9186 -0.4376
  744MOL0     C98083   6.927   5.266   2.801 -0.2790  0.3049  0.3927
  744MOL0     O98084   6.990   5.235   2.915 -0.2931  0.3543  0.4827
  744MOL0     C98085   6.994   5.100   2.968 -0.7571 -0.5415  0.0735
  744MOL0     C98086   7.114   5.091   3.061 -0.7097  1.1204 -0.2893
  744MOL0     C98087   7.130   4.953   3.134  0.7287  0.1795 -0.6887
  744MOL0     C98088   7.252   4.936   3.222 -1.0570 -0.0832 -0.4082
  744MOL0     C98089   7.248   5.055   3.325 -0.6580 -0.0649 -0.5989
  744MOL0     C98090   7.307   5.007   3.455  0.7478  0.0280 -0.8233
  744MOL0     C98091   7.223   4.896   3.523  1.0535 -0.4066 -0.1863
  744MOL0     C98092   7.295   4.796   3.604  0.2437 -0.2618 -0.0890
  744MOL0     N98093   7.200   4.733   3.696  0.9355 -0.8210  0.3973
  744MOL0     C98094   7.069   4.696   3.673  0.0368  0.2798 -0.1637
  744MOL0     C98095   7.027   4.638   3.787 -0.1318 -0.4989 -0.5067
  744MOL0     C98096   6.897   4.573   3.814  0.1272  0.0085 -0.5070
  744MOL0     C98097   6.845   4.581   3.953  0.7878  0.4007 -0.4740
  744MOL0     C98098   6.695   4.546   3.948 -0.4654  0.0325  0.5704
  744MOL0     C98099   6.657   4.399   3.917 -1.4454  0.0409 -0.0509
  744MOL0     O98100   6.516   4.379   3.927 -0.2631  0.9391 -0.3374
  744MOL0     C98101   6.478   4.286   3.840  1.2855  0.1889 -0.9803
  744MOL0     C98102   6.426   4.324   3.714 -0.6136 -0.0847  1.0464
  744MOL0     C98103   6.400   4.228   3.614  0.7332 -0.8067  0.2952
  744MOL0     C98104   6.438   4.090   3.632 -0.4526 -0.0579  0.2092
  744MOL0     C98105   6.420   3.988   3.530 -0.4075  0.3240 -0.3168
  744MOL0     O98106   6.438   3.867   3.584  0.7650  0.7424 -0.4721
  744MOL0     C98107   6.498   3.758   3.533 -0.1180 -0.2360  0.5011
  744MOL0     C98108   6.575   3.742   3.417  0.2916 -0.5107 -0.0490
  744MOL0     C98109   6.618   3.609   3.381 -0.0884 -0.7326 -1.1986
  744MOL0     C98110   6.605   3.503   3.462  0.2135  0.2112 -0.1493
  744MOL0     O98111   6.643   3.378   3.423  0.3351 -0.0540 -0.2514
  744MOL0     C98112   6.763   3.332   3.491 -0.4505  0.3468  0.2495
  744MOL0     C98113   6.857   3.254   3.389  0.6318  0.2897 -0.5981
  744MOL0     C98114   6.913   3.350   3.283 -0.0006  0.2179  0.2192
  744MOL0     C98115   6.966   3.287   3.157 -0.6660 -0.6713  0.9997
  744MOL0     C98116   7.015   3.391   3.050 -0.0012 -0.4145  0.9005
  744MOL0     C98117   6.901   3.469   2.965 -0.5855 -0.0000  1.0629
  744MOL0     C98118   6.932   3.611   2.894 -0.2022 -0.5157  0.4940
  744MOL0     C98119   6.797   3.692   2.893 -0.1480  1.2543  0.4914
  744MOL0    Cl98120   6.816   3.836   2.776 -0.0405  0.0661 -0.1780
  744MOL0     C98121   6.535   3.519   3.582 -0.5708  0.2888  0.1405
  744MOL0     C98122   6.480   3.640   3.611  0.1687 -0.3103  0.8342
  744MOL0     O98123   6.414   4.016   3.408  0.1754  0.6202 -0.2601
  744MOL0     C98124   6.493   4.059   3.756 -0.2931  0.1459  0.4448
  744MOL0     C98125   6.514   4.155   3.860 -0.7449 -0.0057  1.2605
  744MOL0     N98126   7.133   4.638   3.879  0.6416 -0.2089  0.6538
  744MOL0     N98127   7.232   4.701   3.829  0.0266  0.2554  0.2391
  744MOL0     C98128   6.825   5.187   2.751  0.0891 -0.3326 -0.4655
  744MOL0     C98129   6.760   5.236   2.632 -0.2698 -0.6724 -0.2515
  744MOL0     C98130   6.687   5.380   2.229  0.4317 -0.7575  0.7003
  744MOL0     C98131   6.739   5.343   2.103 -0.1075 -0.1179  0.9071
  744MOL0     C98132   6.659   5.360   1.986 -0.8168  0.1001 -0.9589
  744MOL0     C98133   6.532   5.408   1.993  1.0189 -0.7376  0.4164
  744MOL0     O98134   6.464   5.435   1.875 -0.3806  0.4659  0.3743
  744MOL0     C98135   6.447   5.568   1.812 -0.1246 -0.4815 -0.6762
  744MOL0     C98136   6.542   5.599   1.696  0.1943 -0.1619 -1.0967
  744MOL0     C98137   6.551   5.500   1.578 -0.1407 -0.3543  0.1437
  744MOL0     C98138   6.683   5.501   1.494  0.5873  0.0829  0.3231
  744MOL0     C98139   6.673   5.418   1.375  1.4719 -0.5045  0.9098
  744MOL0     C98140   6.662   5.351   1.280 -0.1235 -0.0479  0.2461
  744MOL0     C98141   6.477   5.447   2.113  0.7520  0.2400 -0.3330
  744MOL0     C98142   6.553   5.426   2.229 -0.4181 -0.6459  0.0495
  744MOL0     H98143   6.909   5.525   2.576 -0.6649 -0.8713 -2.2921
  744MOL0     H98144   7.043   5.446   2.770  1.0689 -0.2896  0.2521
  744MOL0     H98145   7.007   5.031   2.884  1.0181 -1.4938  1.0717
  744MOL0     H98146   6.897   5.081   3.013 -0.8565  0.5502  0.3525
  744MOL0     H98147   7.087   5.159   3.142  0.2150  1.3105 -0.1262
  744MOL0     H98148   7.208   5.129   3.019  1.3803 -0.1140  2.8888
  744MOL0     H98149   7.150   4.881   3.055  2.2324  3.0129 -3.0990
  744MOL0     H98150   7.036   4.932   3.186  0.6838 -1.4359 -1.3620
  744MOL0     H98151   7.236   4.836   3.265  1.6336 -0.4744 -0.1545
  744MOL0     H98152   7.351   4.942   3.177 -0.2746 -3.4598  0.5449
  744MOL0     H98153   7.151   5.096   3.357  0.1541  2.4438 -1.1011
  744MOL0     H98154   7.307   5.141   3.290 -2.4955  1.1988 -0.7509
  744MOL0     H98155   7.328   5.089   3.525  1.5745 -1.4750  0.7705
  744MOL0     H98156   7.406   4.969   3.429  1.7551  1.0806  1.1663
  744MOL0     H98157   7.168   4.962   3.591 -0.7637 -1.2831 -0.7208
  744MOL0     H98158   7.146   4.852   3.459  2.9064 -0.8838 -2.1982
  744MOL0     H98159   7.366   4.854   3.665  0.3514 -0.3652 -0.1154
  744MOL0     H98160   7.343   4.719   3.543  1.4551  2.1164 -2.3331
  744MOL0     H98161   7.028   4.719   3.575 -0.3871  1.0832  0.1939
  744MOL0     H98162   6.911   4.471   3.778  3.7580  0.7897 -1.8071
  744MOL0     H98163   6.837   4.631   3.743 -1.5085 -2.3992 -1.2359
  744MOL0     H98164   6.849   4.678   4.003 -2.0751  0.1677  0.3368
  744MOL0     H98165   6.900   4.506   4.010 -1.6033 -0.0494  1.3843
  744MOL0     H98166   6.649   4.577   4.042 -0.3399  2.1991 -0.0471
  744MOL0     H98167   6.653   4.610   3.870  4.2907  2.6570 -0.2316
  744MOL0     H98168   6.715   4.328   3.977 -0.1138 -1.9418 -3.4137
  744MOL0     H98169   6.696   4.374   3.818  2.9342  0.2892  1.3902
  744MOL0     H98170   6.392   4.425   3.691  0.7025  0.2718  0.5766
  744MOL0     H98171   6.344   4.257   3.526 -0.1865 -1.8578  0.5155
  744MOL0     H98172   6.592   3.824   3.348  3.1585 -1.8275 -1.0699
  744MOL0     H98173   6.665   3.581   3.287 -1.4420  1.0543 -2.4798
  744MOL0     H98174   6.730   3.260   3.567  0.5497 -2.6344 -1.9732
  744MOL0     H98175   6.816   3.412   3.542 -1.5189  1.8762 -0.9566
  744MOL0     H98176   6.795   3.172   3.351 -0.5758  1.1024 -0.4381
  744MOL0     H98177   6.947   3.208   3.430  1.7604  1.6166 -1.5219
  744MOL0     H98178   6.987   3.419   3.324 -0.5796  2.0887 -1.7184
  744MOL0     H98179   6.831   3.414   3.250  0.3041  0.1462 -0.7098
  744MOL0     H98180   7.048   3.220   3.183  0.3738  0.3802  0.4953
  744MOL0     H98181   6.891   3.228   3.102 -1.3241  1.3071 -0.3626
  744MOL0     H98182   7.052   3.327   2.969 -0.7403 -0.4124  0.5518
  744MOL0     H98183   7.088   3.458   3.096 -2.1466  1.6243  1.4877
  744MOL0     H98184   6.817   3.483   3.033 -1.6789 -0.9708 -0.0549
  744MOL0     H98185   6.862   3.408   2.883  0.9664  2.2167 -1.5316
  744MOL0     H98186   7.007   3.659   2.958  1.3748 -0.7071 -1.1427
  744MOL0     H98187   6.976   3.594   2.796 -1.9839  4.1939 -1.4001
  744MOL0     H98188   6.784   3.731   2.995  1.3370 -0.2664  1.3061
  744MOL0     H98189   6.702   3.641   2.879  1.2948 -1.7847  1.0921
  744MOL0     H98190   6.512   3.440   3.653 -4.1734  1.1980  0.1818
  744MOL0     H98191   6.431   3.655   3.706  1.8176  2.6100  1.3454
  744MOL0     H98192   6.518   3.958   3.789 -0.7329 -0.4298 -0.9105
  744MOL0     H98193   6.579   4.122   3.941  4.0623 -0.3730 -2.2752
  744MOL0     H98194   6.802   5.092   2.798 -0.8682 -0.6771 -1.5806
  744MOL0     H98195   6.689   5.173   2.580 -0.5043  1.7016 -3.0925
  744MOL0     H98196   6.833   5.289   2.109  0.1125  0.3929  3.4064
  744MOL0     H98197   6.702   5.321   1.895  0.6465  1.8031 -1.0476
  744MOL0     H98198   6.455   5.638   1.896  2.1925  0.4184 -1.5495
  744MOL0     H98199   6.342   5.584   1.784 -0.9993  1.4050  3.0146
  744MOL0     H98200   6.516   5.697   1.655 -1.1122 -0.4475 -0.9907
  744MOL0     H98201   6.634   5.601   1.755  0.6829 -3.9965 -1.4701
  744MOL0     H98202   6.471   5.535   1.513 -1.3425  0.8782  2.1673
  744MOL0     H98203   6.537   5.399   1.617  1.7231 -0.2830  1.1263
  744MOL0     H98204   6.709   5.604   1.470 -2.7640  1.6078  2.5062
  744MOL0     H98205   6.772   5.470   1.550 -0.1509 -0.5719  1.1570
  744MOL0     H98206   6.685   5.302   1.188 -1.5771  0.8730 -0.6514
  744MOL0     H98207   6.379   5.491   2.097  2.0814  2.9823 -1.7236
  744MOL0     H98208   6.507   5.469   2.318  0.3578 -1.8874  1.0773
  745MOL0     O98209   4.118   2.715   1.093  0.2457  0.1214  0.4216
  745MOL0     C98210   4.226   2.761   1.048  0.3952  0.7938  0.3665
  745MOL0     O98211   4.269   2.764   0.920 -0.2576 -0.1314 -0.5579
  745MOL0     C98212   4.191   2.725   0.819 -0.7412 -0.5070  0.4624
  745MOL0     C98213   4.220   2.794   0.702 -0.1299 -0.5413 -0.3456
  745MOL0     C98214   4.148   2.763   0.584  0.2926  0.0292  0.9973
  745MOL0     C98215   4.041   2.668   0.590 -0.1678  0.1181 -0.1913
  745MOL0     O98216   3.989   2.650   0.466  0.3096 -0.3203 -0.0892
  745MOL0     C98217   3.888   2.551   0.441 -0.6828 -0.1629 -0.7781
  745MOL0     C98218   3.864   2.582   0.295  0.1608  0.5250 -0.4720
  745MOL0     C98219   3.755   2.481   0.246  0.2969 -0.4060 -0.4282
  745MOL0     C98220   3.716   2.508   0.106  0.1510 -0.7488  0.2158
  745MOL0     C98221   3.594   2.435   0.064 -0.1246 -0.7860 -1.1629
  745MOL0     C98222   3.520   2.512  -0.056  0.6881 -0.1292  0.7002
  745MOL0     C98223   3.447   2.639  -0.005  0.0200  0.0625 -0.0829
  745MOL0     C98224   3.317   2.678  -0.089 -1.4418 -0.5856 -0.0926
  745MOL0     N98225   3.229   2.778  -0.033  0.3446 -0.0399 -0.1945
  745MOL0     C98226   3.244   2.915  -0.016 -1.4020  0.5177  0.0168
  745MOL0     C98227   3.127   2.954   0.049 -0.6115 -0.1499 -0.7468
  745MOL0     C98228   3.076   3.083   0.089 -0.1432 -0.5646  0.1672
  745MOL0     C98229   3.049   3.085   0.246 -0.4702 -0.1276 -1.4631
  745MOL0     C98230   3.015   3.229   0.300  0.5907  0.8358 -0.0447
  745MOL0     C98231   2.989   3.229   0.446 -0.6151  0.0909  0.0023
  745MOL0     O98232   2.991   3.372   0.496  0.6025  0.3174 -0.1737
  745MOL0     C98233   2.936   3.390   0.627 -1.0144 -0.2626  0.1094
  745MOL0     C98234   2.963   3.518   0.667 -0.3774 -0.7583 -0.4131
  745MOL0     C98235   2.936   3.564   0.802 -0.1713 -0.4479  0.4828
  745MOL0     C98236   2.865   3.476   0.889  1.0135  1.0237  0.5233
  745MOL0     C98237   2.825   3.500   1.034 -1.3339 -0.0830 -0.3824
  745MOL0     O98238   2.726   3.426   1.088 -0.4872  0.5309 -0.2393
  745MOL0     C98239   2.654   3.479   1.192 -0.0739  1.4584  0.9745
  745MOL0     C98240   2.596   3.602   1.191  0.1447 -0.3544  0.2885
  745MOL0     C98241   2.510   3.643   1.292  0.1893  1.1236 -0.1990
  745MOL0     C98242   2.483   3.548   1.400  0.0361  0.3506 -0.0553
  745MOL0     O98243   2.394   3.591   1.494  1.0370 -0.2051  0.1429
  745MOL0     C98244   2.325   3.501   1.576  0.9491 -0.1547 -0.7717
  745MOL0     C98245   2.209   3.577   1.640  0.0425 -0.5123  0.1837
  745MOL0     C98246   2.088   3.590   1.552 -0.2831  0.5464  0.4864
  745MOL0     C98247   2.119   3.672   1.419  0.5423 -0.3803  0.8386
  745MOL0     C98248   2.002   3.756   1.361  0.4618  0.4345  0.6603
  745MOL0     C98249   2.019   3.780   1.205  0.4911 -0.1788  0.4582
  745MOL0     C98250   1.926   3.874   1.129  0.1060 -0.3331  1.2049
  745MOL0     C98251   1.781   3.819   1.113 -0.2344 -1.1562 -0.1013
  745MOL0    Cl98252   1.673   3.876   1.239  0.5989 -0.5917  0.2540
  745MOL0     C98253   2.534   3.418   1.395  0.3480 -0.0395  0.4297
  745MOL0     C98254   2.623   3.384   1.290 -0.6924 -0.8320  0.6685
  745MOL0     O98255   2.868   3.601   1.081 -0.9260  0.0424  0.7750
  745MOL0     C98256   2.828   3.345   0.838 -0.2493  0.6730  1.1985
  745MOL0     C98257   2.863   3.302   0.705 -0.3125  0.0884  0.1178
  745MOL0     N98258   3.043   2.845   0.056  0.6264  0.3797 -0.8588
  745MOL0     N98259   3.101   2.741   0.022 -0.4808 -0.4078  0.9800
  745MOL0     C98260   4.011   2.590   0.711 -0.1001  0.2656  0.8640
  745MOL0     C98261   4.084   2.630   0.827 -0.7040  0.4483 -0.2557
  745MOL0     C98262   4.319   2.808   1.159  0.8872  0.2613  1.1506
  745MOL0     C98263   4.454   2.828   1.136  0.1842  0.4049  0.9080
  745MOL0     C98264   4.553   2.862   1.223  0.4397 -0.1713  0.4844
  745MOL0     C98265   4.502   2.876   1.360  0.1903  0.0725 -0.2903
  745MOL0     O98266   4.581   2.910   1.466  0.4220  0.7731 -0.5367
  745MOL0     C98267   4.724   2.881   1.461  0.1574  0.3030  0.0230
  745MOL0     C98268   4.796   2.912   1.593 -0.3147 -0.1834 -0.2763
  745MOL0     C98269   4.743   2.843   1.728 -0.1857 -0.2267  0.2926
  745MOL0     C98270   4.845   2.817   1.829 -0.2173 -0.4282 -0.0845
  745MOL0     C98271   4.901   2.934   1.900  0.6849 -0.3702  0.2313
  745MOL0     C98272   4.952   3.035   1.950  0.3259  0.2290 -0.3786
  745MOL0     C98273   4.369   2.868   1.385 -0.3117  0.9498 -0.1852
  745MOL0     C98274   4.279   2.837   1.287 -0.7329 -0.3373 -0.4455
  745MOL0     H98275   4.291   2.874   0.720 -1.2976  0.1459  1.5216
  745MOL0     H98276   4.167   2.806   0.486  3.5247 -0.8202  1.1372
  745MOL0     H98277   3.795   2.570   0.495 -2.2245 -0.6424 -3.0947
  745MOL0     H98278   3.929   2.453   0.467 -0.0501 -0.1045 -1.5162
  745MOL0     H98279   3.956   2.563   0.240  0.6116 -0.1234  0.4799
  745MOL0     H98280   3.831   2.684   0.274  0.2892  0.4849 -0.8680
  745MOL0     H98281   3.674   2.486   0.320  0.0169 -1.0800 -0.6868
  745MOL0     H98282   3.799   2.381   0.243  0.8727 -0.1594 -0.2482
  745MOL0     H98283   3.702   2.615   0.088 -2.3223 -1.2573 -1.2642
  745MOL0     H98284   3.805   2.481   0.047  2.8792 -1.4611  4.2249
  745MOL0     H98285   3.521   2.424   0.145  0.1906  0.0338 -0.7614
  745MOL0     H98286   3.621   2.329   0.057  0.9113 -0.5799 -0.4593
  745MOL0     H98287   3.450   2.444  -0.106  2.5736 -1.7804  0.1422
  745MOL0     H98288   3.595   2.551  -0.125  0.7282  0.9270  1.3238
  745MOL0     H98289   3.410   2.640   0.098  0.7879  0.7264  0.1904
  745MOL0     H98290   3.517   2.722  -0.014 -2.4058  2.2003 -0.7131
  745MOL0     H98291   3.266   2.583  -0.110 -2.7688  0.1683 -0.4022
  745MOL0     H98292   3.351   2.712  -0.187 -2.9384 -4.1543 -2.0572
  745MOL0     H98293   3.331   2.973  -0.048 -1.3167 -0.2682 -1.2380
  745MOL0     H98294   2.986   3.096   0.028  0.4628  1.7313 -0.3481
  745MOL0     H98295   3.152   3.156   0.058  0.2954 -0.1656  2.0379
  745MOL0     H98296   3.137   3.047   0.298 -0.8147  1.2398  0.2309
  745MOL0     H98297   2.972   3.017   0.283 -1.3010  0.4851 -2.0488
  745MOL0     H98298   3.101   3.293   0.279  1.8258 -0.6565  0.2303
  745MOL0     H98299   2.934   3.282   0.250  0.8903  1.3742  0.0290
  745MOL0     H98300   3.076   3.179   0.489 -0.1263  0.0302 -1.0331
  745MOL0     H98301   2.891   3.184   0.463 -1.3236  0.4779 -2.6381
  745MOL0     H98302   3.004   3.585   0.593  1.0486 -1.0777  0.0634
  745MOL0     H98303   2.959   3.669   0.822  0.4521 -0.6037  0.6291
  745MOL0     H98304   2.627   3.660   1.104  0.5959  2.6509  2.2998
  745MOL0     H98305   2.451   3.732   1.311 -3.4720 -0.0637 -4.4472
  745MOL0     H98306   2.383   3.469   1.662 -1.1226  3.4035  2.2268
  745MOL0     H98307   2.292   3.410   1.524 -1.7339 -1.8266  3.3526
  745MOL0     H98308   2.245   3.673   1.678  1.3268 -0.0347 -2.0678
  745MOL0     H98309   2.173   3.518   1.725 -1.2214  2.0527  1.5421
  745MOL0     H98310   2.009   3.630   1.616 -1.9653 -5.9362  3.3247
  745MOL0     H98311   2.059   3.487   1.528 -3.2897  0.0939  4.9075
  745MOL0     H98312   2.204   3.739   1.432  1.1584 -0.4632 -2.0209
  745MOL0     H98313   2.151   3.600   1.342  0.3891 -1.2388  1.5567
  745MOL0     H98314   1.981   3.854   1.404 -5.7598  0.0031 -0.5194
  745MOL0     H98315   1.912   3.698   1.382 -0.6618  2.2813  1.1485
  745MOL0     H98316   2.008   3.679   1.163 -1.1379  1.3297 -3.1081
  745MOL0     H98317   2.124   3.805   1.184  0.7797 -1.2646  0.5036
  745MOL0     H98318   1.940   3.970   1.180  0.6545  0.5009 -0.4355
  745MOL0     H98319   1.972   3.874   1.030 -2.3958  1.2035 -0.0591
  745MOL0     H98320   1.775   3.710   1.110  0.5739 -1.2156 -3.3553
  745MOL0     H98321   1.731   3.844   1.019  0.3171  0.0903 -0.0834
  745MOL0     H98322   2.503   3.344   1.468  0.9654 -2.3778 -1.5181
  745MOL0     H98323   2.654   3.280   1.292 -1.6674 -1.2300 -1.7926
  745MOL0     H98324   2.786   3.271   0.905 -3.2588  1.8308  0.7311
  745MOL0     H98325   2.834   3.206   0.666  0.3725 -1.3542  2.9019
  745MOL0     H98326   3.933   2.516   0.717 -0.6736  0.9656  2.7729
  745MOL0     H98327   4.061   2.571   0.915 -3.3971 -1.3362 -2.0064
  745MOL0     H98328   4.487   2.790   1.039 -0.2608  0.8818  0.5645
  745MOL0     H98329   4.655   2.859   1.188  0.0451 -0.4288 -0.6904
  745MOL0     H98330   4.755   2.948   1.380  1.7799 -2.5136 -1.8366
  745MOL0     H98331   4.740   2.778   1.430  0.3512  0.3835 -0.1447
  745MOL0     H98332   4.902   2.889   1.575  1.0595  2.3743  3.4071
  745MOL0     H98333   4.802   3.020   1.609 -2.8283  0.0171 -0.3103
  745MOL0     H98334   4.708   2.740   1.714 -1.3959  0.0866  0.8505
  745MOL0     H98335   4.664   2.910   1.763  0.5257  1.6337 -1.4946
  745MOL0     H98336   4.794   2.761   1.908 -0.3146  0.0587  0.2043
  745MOL0     H98337   4.933   2.764   1.790  2.4826  3.7406 -0.3491
  745MOL0     H98338   4.999   3.129   1.972 -1.9606  1.0125  1.7035
  745MOL0     H98339   4.324   2.888   1.482  1.6488 -0.8784  1.2198
  745MOL0     H98340   4.181   2.830   1.333 -0.7877 -1.1981 -0.6616
  746MOL0     O98341  10.093   9.470   7.792 -0.7129 -0.3386  0.4742
  746MOL0     C98342  10.149   9.555   7.714  0.4253  0.7555 -0.3956
  746MOL0     O98343  10.182   9.530   7.584  0.4268 -0.7799  0.6363
  746MOL0     C98344  10.141   9.412   7.530  0.1939  0.0029  1.2365
  746MOL0     C98345  10.018   9.397   7.458  0.0290  0.3040 -0.1863
  746MOL0     C98346   9.972   9.275   7.411 -0.4064 -0.5908 -0.5218
  746MOL0     C98347  10.042   9.157   7.441  0.3850  0.1038  0.4341
  746MOL0     O98348   9.973   9.045   7.394 -0.4363 -0.5651 -0.0655
  746MOL0     C98349  10.008   8.915   7.448 -0.9316  0.1367 -0.0188
  746MOL0     C98350   9.946   8.795   7.369 -0.0124 -1.1751  1.0911
  746MOL0     C98351   9.977   8.812   7.222  0.0116  0.3798  0.1746
  746MOL0     C98352   9.925   8.698   7.140 -0.1760 -0.6287  1.1420
  746MOL0     C98353   9.925   8.737   6.990 -0.7859 -1.1987 -0.6926
  746MOL0     C98354   9.819   8.839   6.956 -0.4751 -0.2638 -0.0155
  746MOL0     C98355   9.810   8.871   6.804  0.0555 -0.4929  0.3828
  746MOL0     C98356   9.685   8.967   6.775 -0.1682 -0.3344  0.3984
  746MOL0     N98357   9.658   8.983   6.629 -0.5747 -0.5736  0.5723
  746MOL0     C98358   9.753   8.971   6.528 -0.4301 -0.0386  0.9660
  746MOL0     C98359   9.686   8.972   6.406  0.2683 -0.2208 -0.4509
  746MOL0     C98360   9.747   8.959   6.274 -0.1995 -0.2320 -0.0803
  746MOL0     C98361   9.651   8.913   6.163  0.1436  0.5700 -1.1619
  746MOL0     C98362   9.596   8.773   6.166 -1.1558  0.1698  0.6260
  746MOL0     C98363   9.713   8.668   6.171  0.0930 -1.2063 -0.0574
  746MOL0     O98364   9.754   8.645   6.307 -0.3308  0.5347 -0.0123
  746MOL0     C98365   9.697   8.531   6.362  0.0827 -0.0158  0.3232
  746MOL0     C98366   9.623   8.539   6.467  0.0048  1.0808 -1.2334
  746MOL0     C98367   9.574   8.424   6.535  0.3887 -0.7527  0.1033
  746MOL0     C98368   9.594   8.299   6.479 -0.4103 -0.0143  0.7454
  746MOL0     C98369   9.537   8.179   6.543  0.8086  0.1754  0.8388
  746MOL0     O98370   9.583   8.060   6.508 -0.1115 -0.4933 -0.2095
  746MOL0     C98371   9.542   7.949   6.571 -1.3800 -0.1558  0.1809
  746MOL0     C98372   9.608   7.894   6.669  0.1642 -1.0296 -1.0724
  746MOL0     C98373   9.560   7.792   6.737  0.5162  0.2044  1.4130
  746MOL0     C98374   9.432   7.730   6.713 -0.2812  0.0824 -0.7609
  746MOL0     O98375   9.387   7.632   6.798 -0.4268 -0.5128  0.1224
  746MOL0     C98376   9.293   7.536   6.743 -0.0321 -1.1327  0.6193
  746MOL0     C98377   9.153   7.580   6.776  0.7635 -0.6110  0.4099
  746MOL0     C98378   9.041   7.500   6.708 -0.1113  0.9080  0.0977
  746MOL0     C98379   9.061   7.346   6.747  0.6253 -1.0186 -0.4650
  746MOL0     C98380   8.929   7.282   6.764 -0.5470  1.1819 -0.4729
  746MOL0     C98381   8.932   7.137   6.823  0.1985 -0.0349 -0.2483
  746MOL0     C98382   9.021   7.117   6.950  0.4679  0.2685  0.3570
  746MOL0     C98383   8.986   6.997   7.038 -0.0428 -0.3255  0.0764
  746MOL0    Cl98384   9.052   7.021   7.206  0.4337  0.2961 -0.1197
  746MOL0     C98385   9.376   7.775   6.593  0.4212  0.8001 -0.3684
  746MOL0     C98386   9.427   7.883   6.531  0.2965 -1.1730  0.5663
  746MOL0     O98387   9.451   8.193   6.623  0.0522  0.3693  0.0336
  746MOL0     C98388   9.684   8.283   6.376 -0.3915 -0.4881  0.0953
  746MOL0     C98389   9.732   8.400   6.315  0.2368  0.6805  0.1914
  746MOL0     N98390   9.547   8.974   6.444 -0.5347  0.3937  0.5820
  746MOL0     N98391   9.534   8.983   6.568  0.4511  0.5482 -1.0132
  746MOL0     C98392  10.171   9.173   7.496 -0.1297  0.3289 -0.7365
  746MOL0     C98393  10.226   9.298   7.540  0.1555 -0.3788  0.4734
  746MOL0     C98394  10.195   9.693   7.770  1.2598  0.2321 -0.7170
  746MOL0     C98395  10.185   9.730   7.908 -0.3127  0.5087  0.8630
  746MOL0     C98396  10.228   9.852   7.963 -0.2942 -0.1070 -0.1853
  746MOL0     C98397  10.276   9.952   7.879 -0.4551 -0.5132  0.5689
  746MOL0     O98398  10.325  10.070   7.930  0.3190  0.3483 -0.5098
  746MOL0     C98399  10.462  10.101   7.955  0.1480 -0.0394  0.3942
  746MOL0     C98400  10.523  10.033   8.079  0.4427  0.3822  0.0668
  746MOL0     C98401  10.431  10.065   8.193  0.5781  1.0152 -1.2362
  746MOL0     C98402  10.423  10.205   8.248 -0.2631  0.1564  0.1420
  746MOL0     C98403  10.550  10.243   8.308 -0.1817 -0.0901  0.9383
  746MOL0     C98404  10.658  10.261   8.362 -0.3997 -0.3187 -0.6107
  746MOL0     C98405  10.296   9.923   7.742 -0.3613  0.6236 -0.1008
  746MOL0     C98406  10.252   9.796   7.694  0.1898 -0.4062  0.9192
  746MOL0     H98407   9.968   9.492   7.440 -0.7120 -0.2128 -0.9093
  746MOL0     H98408   9.880   9.267   7.354 -0.1464 -0.9293 -0.8960
  746MOL0     H98409   9.968   8.903   7.550 -0.2150 -4.1741 -0.0617
  746MOL0     H98410  10.116   8.902   7.446 -0.4351  3.4289 -2.7192
  746MOL0     H98411   9.837   8.799   7.383  0.0810  0.0346  1.5124
  746MOL0     H98412   9.988   8.703   7.409 -0.8703 -2.1491 -0.1354
  746MOL0     H98413  10.085   8.807   7.208  0.3083 -1.2727  2.4548
  746MOL0     H98414   9.924   8.906   7.205 -1.8607 -0.3864  1.3941
  746MOL0     H98415   9.978   8.605   7.164  2.5796  0.7778  0.8863
  746MOL0     H98416   9.823   8.664   7.157 -0.2457 -0.5044  0.9729
  746MOL0     H98417   9.908   8.652   6.922 -1.0000 -1.1288 -0.7267
  746MOL0     H98418  10.026   8.773   6.971 -0.4914  0.3592  3.0368
  746MOL0     H98419   9.852   8.931   7.006 -0.4151 -0.0455 -0.4501
  746MOL0     H98420   9.719   8.804   6.984  0.1773  0.6152  3.9466
  746MOL0     H98421   9.905   8.907   6.763  0.1455  0.0206  1.0381
  746MOL0     H98422   9.791   8.775   6.755  1.9158 -0.9200  0.3970
  746MOL0     H98423   9.708   9.069   6.807  1.4557  0.0817 -1.8442
  746MOL0     H98424   9.594   8.928   6.822 -0.8829 -2.7408 -2.6368
  746MOL0     H98425   9.859   8.984   6.541 -0.4831  0.1827  1.1665
  746MOL0     H98426   9.827   8.886   6.285 -1.8485 -2.1974 -0.4223
  746MOL0     H98427   9.791   9.057   6.256  1.0240 -0.0332  3.2504
  746MOL0     H98428   9.696   8.926   6.064  1.0534  0.4676 -0.7750
  746MOL0     H98429   9.564   8.979   6.163 -1.2756 -1.2387 -1.9240
  746MOL0     H98430   9.525   8.765   6.248 -1.5321 -1.0153  0.2062
  746MOL0     H98431   9.539   8.754   6.074  2.4141  1.0257 -1.9885
  746MOL0     H98432   9.795   8.704   6.109  1.3884 -2.6427  0.7650
  746MOL0     H98433   9.684   8.578   6.116 -0.8556 -1.0333  0.1274
  746MOL0     H98434   9.603   8.637   6.510  0.9014  1.2721 -1.2344
  746MOL0     H98435   9.529   8.446   6.631 -0.3717 -2.2224  0.1066
  746MOL0     H98436   9.702   7.938   6.701 -0.1541 -3.0878  3.6583
  746MOL0     H98437   9.617   7.746   6.818  0.1447  0.0647  1.5987
  746MOL0     H98438   9.308   7.449   6.807  0.4011 -0.3204  1.6476
  746MOL0     H98439   9.310   7.523   6.636  1.5380  1.0954  0.5090
  746MOL0     H98440   9.155   7.678   6.727  3.9269 -1.1481 -0.7321
  746MOL0     H98441   9.131   7.593   6.882  2.2674  0.8225  0.5949
  746MOL0     H98442   9.032   7.502   6.599 -3.2966 -0.9189  0.1929
  746MOL0     H98443   8.952   7.542   6.754 -0.8986  1.0881 -1.5171
  746MOL0     H98444   9.111   7.298   6.662  0.5300  1.0176 -1.7332
  746MOL0     H98445   9.118   7.340   6.840  1.2760  0.0275 -0.7776
  746MOL0     H98446   8.886   7.281   6.663  0.7220 -2.8468 -1.1396
  746MOL0     H98447   8.861   7.337   6.830  0.3656  1.4332  0.2821
  746MOL0     H98448   8.974   7.069   6.748  0.6554  0.6808 -0.6505
  746MOL0     H98449   8.826   7.130   6.850  0.1545  3.6992  1.0659
  746MOL0     H98450   9.128   7.105   6.929  0.3409  0.1016 -0.2086
  746MOL0     H98451   9.016   7.206   7.013 -3.3789  1.3186 -1.1156
  746MOL0     H98452   9.024   6.903   6.997 -0.0285 -0.1113 -0.4097
  746MOL0     H98453   8.878   6.980   7.031 -0.1753  1.1633 -3.4892
  746MOL0     H98454   9.282   7.731   6.562  0.8070  0.1443 -0.6288
  746MOL0     H98455   9.371   7.925   6.449  1.5670  0.5443  0.5115
  746MOL0     H98456   9.726   8.188   6.345 -0.5196 -0.3548 -0.4976
  746MOL0     H98457   9.793   8.397   6.225  0.9800 -1.9372  0.6875
  746MOL0     H98458  10.223   9.077   7.498  0.5616  0.7155  0.7638
  746MOL0     H98459  10.322   9.314   7.589 -1.2720  1.7431  2.8703
  746MOL0     H98460  10.149   9.652   7.974  0.0705 -0.5773 -0.1785
  746MOL0     H98461  10.224   9.871   8.070 -1.6122 -0.1182 -0.2179
  746MOL0     H98462  10.471  10.210   7.956 -0.6872  0.0713 -0.9222
  746MOL0     H98463  10.513  10.071   7.863 -4.0186 -0.2393 -2.1183
  746MOL0     H98464  10.521   9.929   8.045  0.1755  0.3072  0.3048
  746MOL0     H98465  10.627  10.062   8.090  0.6558  0.8145 -2.4831
  746MOL0     H98466  10.459   9.998   8.275 -2.4112  0.7389 -0.3320
  746MOL0     H98467  10.326  10.041   8.176  0.4814 -0.2658  0.8662
  746MOL0     H98468  10.394  10.275   8.169 -0.2580 -0.8783 -0.8014
  746MOL0     H98469  10.353  10.198   8.333 -1.0890  1.1537 -0.4291
  746MOL0     H98470  10.751  10.306   8.388 -1.3195 -0.1442  2.8964
  746MOL0     H98471  10.352   9.993   7.681  1.5218  0.4145  1.3069
  746MOL0     H98472  10.271   9.771   7.590  3.3713 -1.6430  1.7057
  747MOL0     O98473   5.536  10.699   8.985  0.0879  0.1424  0.5585
  747MOL0     C98474   5.615  10.684   8.899  0.9350  0.2603  0.5375
  747MOL0     O98475   5.702  10.579   8.897 -0.3293  0.1351 -0.6447
  747MOL0     C98476   5.715  10.502   9.004  0.0515 -0.0879  0.0763
  747MOL0     C98477   5.610  10.438   9.070 -0.7994  0.1057 -0.0117
  747MOL0     C98478   5.643  10.350   9.171 -0.6797 -0.0696 -0.1891
  747MOL0     C98479   5.772  10.335   9.214 -0.1554 -0.0070  0.6579
  747MOL0     O98480   5.794  10.260   9.323 -0.1991 -0.2726  0.9739
  747MOL0     C98481   5.817  10.344   9.432  0.5825  0.3426 -0.2610
  747MOL0     C98482   5.832  10.270   9.563 -0.0230 -0.3597 -0.3309
  747MOL0     C98483   5.968  10.215   9.593 -0.9404  0.0280  0.5751
  747MOL0     C98484   5.961  10.103   9.698 -1.2048  0.6622 -0.9048
  747MOL0     C98485   6.097  10.023   9.717  1.2228 -0.0841 -0.5020
  747MOL0     C98486   6.080   9.895   9.800 -0.0964  0.3124  0.2516
  747MOL0     C98487   6.213   9.837   9.815 -0.1064 -0.0679  0.3436
  747MOL0     C98488   6.302   9.908   9.925 -0.2965 -0.1797 -0.1325
  747MOL0     N98489   6.248   9.928  10.063 -0.0630 -1.1218 -0.2188
  747MOL0     C98490   6.238   9.818  10.144  0.8889  0.3473 -0.2212
  747MOL0     C98491   6.239   9.866  10.271 -0.3324 -0.8263 -0.0518
  747MOL0     C98492   6.234   9.791  10.405  0.5414  0.5723 -0.3842
  747MOL0     C98493   6.372   9.732  10.444  0.0168  1.5445  0.3755
  747MOL0     C98494   6.404   9.650  10.571  0.3626  0.5367 -0.5425
  747MOL0     C98495   6.284   9.571  10.635 -0.1428  0.2279  0.1723
  747MOL0     O98496   6.325   9.471  10.723 -0.6729 -0.0907  0.9631
  747MOL0     C98497   6.235   9.376  10.783 -0.6468  0.6048  1.0410
  747MOL0     C98498   6.100   9.361  10.741 -0.9761  0.2760 -1.0045
  747MOL0     C98499   6.011   9.278  10.809 -0.1977  0.4622  1.0009
  747MOL0     C98500   6.048   9.197  10.913  0.4304 -0.2378  0.4095
  747MOL0     C98501   5.942   9.120  10.987 -0.4250  0.8479 -0.4578
  747MOL0     O98502   5.811   9.142  10.950 -0.0959 -0.0785 -0.1521
  747MOL0     C98503   5.707   9.129  11.042 -0.5139  0.5490  0.7819
  747MOL0     C98504   5.576   9.121  10.988  0.9313 -1.3836 -0.1882
  747MOL0     C98505   5.458   9.127  11.068 -0.2751 -0.5024 -0.1654
  747MOL0     C98506   5.472   9.124  11.206  0.0513  0.2891 -0.2545
  747MOL0     O98507   5.354   9.113  11.280  1.0678  0.5512  0.2026
  747MOL0     C98508   5.345   9.108  11.428 -0.6460 -0.1968  0.0673
  747MOL0     C98509   5.188   9.129  11.468 -0.2061 -0.4776  0.4624
  747MOL0     C98510   5.134   9.270  11.479  0.0207  0.2338 -0.9855
  747MOL0     C98511   5.021   9.278  11.590 -0.0724 -0.6271  0.3314
  747MOL0     C98512   4.932   9.407  11.572  0.1674  0.1280  1.1728
  747MOL0     C98513   4.819   9.424  11.675  0.1761  0.7538  0.5390
  747MOL0     C98514   4.770   9.573  11.674  0.1516 -0.2784 -0.2756
  747MOL0     C98515   4.631   9.602  11.743 -0.7480  0.7761  0.0656
  747MOL0    Cl98516   4.506   9.539  11.628  0.2677  0.0943  0.3050
  747MOL0     C98517   5.603   9.105  11.252  0.4352  0.0551  0.3849
  747MOL0     C98518   5.723   9.108  11.176  0.8601 -0.1717 -0.0301
  747MOL0     O98519   5.980   9.043  11.077 -0.9878  0.5443 -0.2922
  747MOL0     C98520   6.182   9.199  10.941 -0.9598  0.6331  0.1089
  747MOL0     C98521   6.270   9.288  10.882  0.1997  0.2633 -0.9043
  747MOL0     N98522   6.244  10.004  10.261 -0.2384  1.1946 -0.5567
  747MOL0     N98523   6.252  10.038  10.140 -0.5259 -0.6233  1.2379
  747MOL0     C98524   5.872  10.402   9.145 -0.7378  0.0771 -0.6229
  747MOL0     C98525   5.848  10.479   9.039  0.1827  0.1650  0.9316
  747MOL0     C98526   5.627  10.778   8.781 -0.2836  0.5890 -0.5277
  747MOL0     C98527   5.659  10.726   8.652  1.2812  0.7852  0.4413
  747MOL0     C98528   5.667  10.813   8.541 -0.2537 -0.7888  0.4764
  747MOL0     C98529   5.636  10.953   8.553  0.0166  0.3651  0.3226
  747MOL0     O98530   5.640  11.036   8.449 -0.0499  0.4013  0.0763
  747MOL0     C98531   5.518  11.101   8.417 -0.6970  0.2649  0.5227
  747MOL0     C98532   5.557  11.189   8.301 -0.0443 -0.3168 -0.7604
  747MOL0     C98533   5.462  11.307   8.273 -1.1892 -0.3296 -0.6685
  747MOL0     C98534   5.328  11.262   8.226  0.7589  0.6404  0.4100
  747MOL0     C98535   5.276  11.378   8.144 -0.0227  0.1681 -0.1631
  747MOL0     C98536   5.254  11.475   8.079  0.7117  0.6163 -0.3779
  747MOL0     C98537   5.605  10.999   8.682  0.1444 -0.2646  0.1108
  747MOL0     C98538   5.591  10.913   8.796 -0.1610  0.6399 -0.1683
  747MOL0     H98539   5.504  10.444   9.049 -1.1040 -2.4536  0.4346
  747MOL0     H98540   5.559  10.300   9.218  0.4244  0.3145  2.3572
  747MOL0     H98541   5.726  10.403   9.445  2.0479  3.0703 -1.4239
  747MOL0     H98542   5.898  10.415   9.413  0.7383  0.4438  0.7387
  747MOL0     H98543   5.766  10.185   9.582  1.8487 -1.0136  5.1177
  747MOL0     H98544   5.804  10.335   9.647  1.3316  0.9606 -0.8728
  747MOL0     H98545   6.038  10.291   9.628 -1.6854  0.5527  0.9505
  747MOL0     H98546   6.012  10.178   9.499 -0.3526 -1.1177  1.2780
  747MOL0     H98547   5.930  10.142   9.795  1.7650  1.4032 -0.1725
  747MOL0     H98548   5.889  10.028   9.662 -3.2696  1.2984  1.5789
  747MOL0     H98549   6.158  10.086   9.783  2.4048 -1.8295  0.1695
  747MOL0     H98550   6.157  10.011   9.626  0.7666 -1.0710 -0.6829
  747MOL0     H98551   6.013   9.827   9.746  0.3905 -0.3116  0.4229
  747MOL0     H98552   6.035   9.924   9.896  0.1105  0.5127  0.2869
  747MOL0     H98553   6.201   9.729   9.831  0.9615 -0.7160 -2.6222
  747MOL0     H98554   6.249   9.842   9.712 -0.2568 -1.0217  0.2373
  747MOL0     H98555   6.341  10.002   9.884 -1.2094 -0.0211 -0.6470
  747MOL0     H98556   6.387   9.842   9.946 -0.1212  0.0430 -0.1319
  747MOL0     H98557   6.238   9.710  10.134 -0.6913  0.0738  2.0632
  747MOL0     H98558   6.155   9.717  10.415  1.5643 -0.4085  0.6778
  747MOL0     H98559   6.211   9.868  10.479  1.0555  3.5272 -3.0787
  747MOL0     H98560   6.438   9.817  10.463 -0.5663  1.4854  3.1159
  747MOL0     H98561   6.417   9.676  10.362  1.6182  0.4574  1.9216
  747MOL0     H98562   6.482   9.578  10.546 -1.5661 -1.3317 -1.5060
  747MOL0     H98563   6.442   9.715  10.651  0.7687  3.1426 -2.7223
  747MOL0     H98564   6.238   9.509  10.557  1.8904 -0.1828 -0.7758
  747MOL0     H98565   6.206   9.637  10.673 -3.3664 -2.0627 -1.9638
  747MOL0     H98566   6.056   9.432  10.671 -1.9834  5.1032  3.8202
  747MOL0     H98567   5.906   9.279  10.783  0.1319 -1.0892 -0.6684
  747MOL0     H98568   5.552   9.114  10.882 -2.8041 -0.6454  0.4445
  747MOL0     H98569   5.360   9.136  11.022 -0.7402 -2.3909  0.4053
  747MOL0     H98570   5.408   9.187  11.471  1.3819 -0.8887 -1.4873
  747MOL0     H98571   5.371   9.008  11.464 -2.8799 -0.8968 -0.0714
  747MOL0     H98572   5.182   9.088  11.569  2.9216  1.7080  1.6766
  747MOL0     H98573   5.124   9.067  11.404 -0.9995 -2.1791  2.7695
  747MOL0     H98574   5.106   9.317  11.384  4.1489  3.1403 -1.0483
  747MOL0     H98575   5.217   9.332  11.514  1.0300 -1.7056  0.2046
  747MOL0     H98576   4.959   9.189  11.576  0.3010 -0.8459  0.0558
  747MOL0     H98577   5.064   9.276  11.690  2.1107  0.1963 -0.5459
  747MOL0     H98578   4.892   9.393  11.471  2.4626 -2.2462  0.4789
  747MOL0     H98579   5.002   9.492  11.569  0.7020 -0.2465  2.4636
  747MOL0     H98580   4.841   9.390  11.777 -3.0471 -0.0445  1.0825
  747MOL0     H98581   4.733   9.361  11.651  1.0619  0.4971 -2.2489
  747MOL0     H98582   4.853   9.628  11.719  1.0059 -1.0219 -0.8856
  747MOL0     H98583   4.761   9.606  11.570 -3.0020 -1.8594 -0.6300
  747MOL0     H98584   4.613   9.707  11.770  0.3611  0.5692  1.7756
  747MOL0     H98585   4.629   9.540  11.833 -2.1633  1.1571  0.3362
  747MOL0     H98586   5.613   9.080  11.357 -1.2654 -0.5174  0.4480
  747MOL0     H98587   5.817   9.092  11.227  1.4882 -1.2144 -1.4596
  747MOL0     H98588   6.217   9.123  11.010 -0.4167 -1.9342 -2.7928
  747MOL0     H98589   6.370   9.277  10.921 -0.4150 -1.5599  0.2704
  747MOL0     H98590   5.976  10.376   9.163 -1.4628 -0.8472  3.1607
  747MOL0     H98591   5.932  10.529   8.992 -0.5720 -2.0799 -3.3214
  747MOL0     H98592   5.698  10.626   8.640  4.0953  1.8263  0.1775
  747MOL0     H98593   5.695  10.780   8.441 -3.1976  2.3982 -1.5916
  747MOL0     H98594   5.493  11.169   8.499 -2.0449 -0.1339  0.4628
  747MOL0     H98595   5.427  11.043   8.403 -0.2426 -0.1310 -0.9954
  747MOL0     H98596   5.653  11.236   8.328 -1.6746  1.2347  3.0166
  747MOL0     H98597   5.576  11.130   8.211  1.4364  0.4975 -1.0295
  747MOL0     H98598   5.515  11.383   8.215 -0.8414  2.6347  3.0635
  747MOL0     H98599   5.441  11.358   8.368  4.0950 -1.4018  1.3730
  747MOL0     H98600   5.328  11.172   8.163  2.2410  2.3678 -2.2504
  747MOL0     H98601   5.271  11.260   8.319  1.9777  1.4010  1.1966
  747MOL0     H98602   5.241  11.568   8.029 -0.5922  1.8007  2.0444
  747MOL0     H98603   5.587  11.105   8.696 -1.7847 -0.5223 -0.2381
  747MOL0     H98604   5.551  10.942   8.893  1.1419  1.2191  0.2165
  748MOL0     O98605  11.063   7.300   9.867  0.3883  0.0288  0.5109
  748MOL0     C98606  11.114   7.191   9.896 -0.4950  0.1967  0.6058
  748MOL0     O98607  11.118   7.124  10.017 -0.2353  0.3470 -0.3376
  748MOL0     C98608  11.026   7.185  10.105 -0.6148 -0.1470 -1.4155
  748MOL0     C98609  10.889   7.185  10.089  0.1952 -0.6572  0.9099
  748MOL0     C98610  10.807   7.260  10.177 -0.2560  0.9234 -0.8787
  748MOL0     C98611  10.864   7.339  10.281  0.1099  0.2255  0.5300
  748MOL0     O98612  10.786   7.390  10.382 -0.5614  0.0073  0.0224
  748MOL0     C98613  10.808   7.521  10.442  0.0846  0.1275 -0.0591
  748MOL0     C98614  10.663   7.554  10.491 -0.8990  0.5330  1.0814
  748MOL0     C98615  10.655   7.704  10.533  0.7439  0.3362  0.2228
  748MOL0     C98616  10.656   7.808  10.418 -0.1161  0.3439 -0.4522
  748MOL0     C98617  10.630   7.941  10.479 -0.6882  0.0248  0.5557
  748MOL0     C98618  10.682   8.043  10.368 -0.1607 -0.8171  0.0905
  748MOL0     C98619  10.649   8.197  10.410  0.2993 -0.5353  0.1627
  748MOL0     C98620  10.723   8.238  10.531  1.4381 -0.7989 -0.1818
  748MOL0     N98621  10.862   8.215  10.525 -0.7954 -0.7863  1.1709
  748MOL0     C98622  10.958   8.320  10.484 -1.0636  0.0388 -0.9826
  748MOL0     C98623  11.077   8.291  10.548 -0.6469 -0.3712  0.6547
  748MOL0     C98624  11.213   8.359  10.540  1.0859  0.3292  0.7783
  748MOL0     C98625  11.221   8.480  10.634 -0.6194 -0.7918  0.1445
  748MOL0     C98626  11.349   8.560  10.625  0.1368  0.0216  0.3463
  748MOL0     C98627  11.378   8.646  10.757  0.5619 -0.3910 -0.6253
  748MOL0     O98628  11.514   8.663  10.798 -0.5324 -0.0784  0.3551
  748MOL0     C98629  11.597   8.721  10.707 -0.6817  0.1100  0.0508
  748MOL0     C98630  11.559   8.817  10.613  0.5118 -0.7743  0.2937
  748MOL0     C98631  11.647   8.870  10.518 -0.9922  0.1379  0.4481
  748MOL0     C98632  11.785   8.827  10.515  1.4513 -0.0449  0.3689
  748MOL0     C98633  11.877   8.880  10.417 -0.2352 -0.8202  0.0699
  748MOL0     O98634  11.811   8.957  10.321  0.0053 -0.3501  0.5266
  748MOL0     C98635  11.877   8.993  10.205 -1.2537 -0.2835 -0.9710
  748MOL0     C98636  11.898   9.132  10.173 -0.2431 -0.2972  0.6382
  748MOL0     C98637  11.961   9.172  10.064  0.6110  0.5450  0.4733
  748MOL0     C98638  12.001   9.079   9.967  0.0735 -0.7114 -0.1296
  748MOL0     O98639  12.056   9.111   9.846 -0.0421  0.8421  0.5117
  748MOL0     C98640  12.058   9.249   9.806  0.5321 -0.1939  0.1297
  748MOL0     C98641  12.129   9.250   9.668 -0.7399  0.1463  0.0246
  748MOL0     C98642  12.108   9.380   9.596 -0.3243  0.2957  0.3174
  748MOL0     C98643  12.152   9.360   9.444 -0.4702 -0.5771  0.4484
  748MOL0     C98644  12.108   9.483   9.352  0.2965  0.3330 -0.3800
  748MOL0     C98645  12.129   9.625   9.409 -0.4427  0.0965  0.3574
  748MOL0     C98646  12.082   9.748   9.338  0.2573  0.4942 -0.3709
  748MOL0     C98647  12.092   9.873   9.427 -0.1506 -0.3154 -0.1890
  748MOL0    Cl98648  12.045   9.849   9.604 -0.5374 -0.3180  0.4996
  748MOL0     C98649  11.974   8.943   9.992 -0.8440 -0.0960 -0.6428
  748MOL0     C98650  11.926   8.898  10.115 -1.3233 -0.4798 -0.1246
  748MOL0     O98651  11.998   8.858  10.418  0.5364  0.1894 -0.1941
  748MOL0     C98652  11.830   8.736  10.612 -0.2413 -0.0886 -0.3537
  748MOL0     C98653  11.740   8.681  10.707  1.0085 -0.1105  1.1987
  748MOL0     N98654  11.055   8.173  10.619  0.1376  0.4593 -0.1178
  748MOL0     N98655  10.931   8.137  10.606  0.4362 -0.3082 -0.1140
  748MOL0     C98656  11.003   7.342  10.295 -0.2322 -0.7172  0.3016
  748MOL0     C98657  11.082   7.263  10.212  0.3141  0.3550 -0.0558
  748MOL0     C98658  11.180   7.120   9.782 -0.9394 -0.2762  0.4480
  748MOL0     C98659  11.166   7.182   9.649  0.4455 -0.2648 -0.6768
  748MOL0     C98660  11.200   7.110   9.529 -0.2505 -0.9104  0.3687
  748MOL0     C98661  11.259   6.983   9.532 -1.1367  0.3074 -0.5746
  748MOL0     O98662  11.301   6.931   9.415  0.4214  0.2240 -0.0793
  748MOL0     C98663  11.400   6.823   9.425 -0.0380  0.3920  0.2175
  748MOL0     C98664  11.339   6.708   9.341 -0.0960  0.0129 -0.5309
  748MOL0     C98665  11.435   6.607   9.291 -0.3649 -0.3426 -0.4780
  748MOL0     C98666  11.365   6.485   9.253 -0.6135 -0.2058 -0.7126
  748MOL0     C98667  11.442   6.373   9.200  0.0084 -0.3530  0.3684
  748MOL0     C98668  11.509   6.289   9.166  1.3443  0.1149  0.3022
  748MOL0     C98669  11.260   6.919   9.659 -1.0553  0.2299 -0.6916
  748MOL0     C98670  11.233   6.982   9.780 -0.4588 -0.5859 -0.1496
  748MOL0     H98671  10.858   7.126  10.004  2.0131  0.8273 -0.8890
  748MOL0     H98672  10.699   7.263  10.180 -0.2914  0.2390 -1.3050
  748MOL0     H98673  10.853   7.589  10.368  0.6686 -1.0352 -0.7946
  748MOL0     H98674  10.876   7.526  10.527 -0.5718 -0.7925  0.5320
  748MOL0     H98675  10.630   7.491  10.574 -1.9878 -1.4743 -0.7653
  748MOL0     H98676  10.605   7.523  10.404  3.1873 -0.6085 -1.5142
  748MOL0     H98677  10.733   7.720  10.608  0.8667 -1.8758  0.6272
  748MOL0     H98678  10.557   7.705  10.580  1.4370  0.5860  1.7205
  748MOL0     H98679  10.756   7.802  10.374  1.0198  0.6353  1.9388
  748MOL0     H98680  10.587   7.773  10.340 -0.2615 -0.8207  0.1827
  748MOL0     H98681  10.692   7.944  10.569 -0.9742 -1.0947  0.8012
  748MOL0     H98682  10.527   7.962  10.509 -0.8545 -0.0179  0.0265
  748MOL0     H98683  10.627   8.019  10.277 -0.3219 -1.6609  0.4049
  748MOL0     H98684  10.789   8.033  10.348  0.2215  3.5166 -1.0879
  748MOL0     H98685  10.678   8.261  10.325 -1.1211 -1.6233 -1.2036
  748MOL0     H98686  10.541   8.207  10.424  0.4075 -0.7987  1.1857
  748MOL0     H98687  10.670   8.185  10.611  1.5311 -0.6411 -0.0154
  748MOL0     H98688  10.716   8.345  10.549  2.7868 -0.5021 -1.2583
  748MOL0     H98689  10.925   8.396  10.414 -1.6726  1.5698  0.8770
  748MOL0     H98690  11.231   8.381  10.434 -4.0503  1.1093 -0.2232
  748MOL0     H98691  11.280   8.282  10.577  0.0430 -0.7721  0.4503
  748MOL0     H98692  11.202   8.446  10.736  1.2392  3.2807  2.0826
  748MOL0     H98693  11.144   8.556  10.616  1.3599  1.7498  1.7088
  748MOL0     H98694  11.429   8.487  10.612  1.4117  1.1821  1.3555
  748MOL0     H98695  11.349   8.618  10.532 -1.2032 -3.0748 -1.7393
  748MOL0     H98696  11.333   8.594  10.842  1.6346 -2.4468 -1.2490
  748MOL0     H98697  11.320   8.738  10.746 -1.9779 -2.0317 -1.8168
  748MOL0     H98698  11.454   8.845  10.605  0.3951 -1.7331 -3.1789
  748MOL0     H98699  11.614   8.936  10.438  2.2319  1.1189 -0.2381
  748MOL0     H98700  11.863   9.203  10.248  0.0375  1.7308 -1.0653
  748MOL0     H98701  11.954   9.278  10.039 -4.7807  0.3296 -0.2128
  748MOL0     H98702  12.105   9.316   9.879  0.2536  0.2985 -0.1413
  748MOL0     H98703  11.959   9.294   9.794  0.8727  0.2136 -1.2510
  748MOL0     H98704  12.089   9.172   9.603 -2.9653  0.9957  0.3029
  748MOL0     H98705  12.237   9.236   9.680 -0.8471  0.0536  0.9674
  748MOL0     H98706  12.165   9.458   9.646 -1.4273  3.0717 -2.4041
  748MOL0     H98707  12.001   9.402   9.605  0.0208  1.2541  2.7193
  748MOL0     H98708  12.261   9.347   9.443 -0.1362  1.7133  0.0222
  748MOL0     H98709  12.098   9.275   9.402 -4.4669  1.8328  0.2272
  748MOL0     H98710  12.002   9.476   9.327  0.2512 -1.3216  0.1301
  748MOL0     H98711  12.170   9.475   9.262  2.0951  1.3569  0.6861
  748MOL0     H98712  12.234   9.646   9.433 -0.1757  0.5840 -1.1146
  748MOL0     H98713  12.071   9.615   9.501  1.6976  2.9169  2.1831
  748MOL0     H98714  12.142   9.750   9.247  0.5333 -1.5980 -0.2842
  748MOL0     H98715  11.977   9.735   9.310  0.6364 -0.3112 -1.4976
  748MOL0     H98716  12.027   9.952   9.389  1.8311  1.1103 -0.7661
  748MOL0     H98717  12.193   9.914   9.430 -0.9592  2.0190 -1.6118
  748MOL0     H98718  12.001   8.868   9.918  0.5074 -0.8782  0.5973
  748MOL0     H98719  11.898   8.794  10.128  0.7293 -1.1016 -0.4355
  748MOL0     H98720  11.926   8.685  10.616 -0.7186 -0.9716  0.0894
  748MOL0     H98721  11.771   8.609  10.782  2.8263 -1.0702 -0.3823
  748MOL0     H98722  11.052   7.394  10.377  0.6707 -1.5390  0.3049
  748MOL0     H98723  11.189   7.258  10.223  0.8280  2.4756 -2.9454
  748MOL0     H98724  11.125   7.283   9.651 -1.0485 -0.8436 -1.1108
  748MOL0     H98725  11.182   7.150   9.430 -1.5244  0.3515  1.0863
  748MOL0     H98726  11.434   6.790   9.523  2.8677  2.6225  0.1056
  748MOL0     H98727  11.483   6.851   9.359 -1.1038  0.4250 -1.1638
  748MOL0     H98728  11.256   6.670   9.401  2.6387 -2.2037  2.1737
  748MOL0     H98729  11.287   6.737   9.249  2.5328 -0.0749 -2.1440
  748MOL0     H98730  11.506   6.584   9.371 -0.3585  1.3855  0.0587
  748MOL0     H98731  11.483   6.647   9.202 -0.0270  0.6363  0.1309
  748MOL0     H98732  11.308   6.452   9.340 -0.5500 -2.5197 -1.4927
  748MOL0     H98733  11.285   6.505   9.180  0.2749  3.0953 -0.9499
  748MOL0     H98734  11.583   6.222   9.127  2.3167  0.7788  0.9308
  748MOL0     H98735  11.285   6.814   9.664 -3.7634 -0.5741 -2.0783
  748MOL0     H98736  11.234   6.927   9.873 -0.3247  0.2158  0.3333
  749MOL0     O98737   7.022   4.921   6.287 -0.2649  0.0850  0.0808
  749MOL0     C98738   7.067   5.019   6.222 -0.7453 -0.6390 -1.1278
  749MOL0     O98739   7.179   5.094   6.258 -1.5400 -0.0898 -0.0155
  749MOL0     C98740   7.250   5.095   6.378 -0.1750  0.1783 -0.2049
  749MOL0     C98741   7.225   5.007   6.485 -0.3064  0.2129 -0.5364
  749MOL0     C98742   7.313   5.017   6.593  0.1456  1.7452  0.1506
  749MOL0     C98743   7.431   5.101   6.605  0.5218 -0.2755 -0.5364
  749MOL0     O98744   7.500   5.121   6.720  0.2708  0.4226 -0.5733
  749MOL0     C98745   7.588   5.014   6.736 -1.1935 -0.2158  0.0407
  749MOL0     C98746   7.663   5.063   6.865  0.3705 -0.2319 -0.0808
  749MOL0     C98747   7.579   5.010   6.987  0.0046 -0.6614 -0.0090
  749MOL0     C98748   7.638   5.053   7.121 -0.1786 -0.2280  0.7945
  749MOL0     C98749   7.614   4.962   7.240 -0.2810  0.2164  0.0605
  749MOL0     C98750   7.479   5.002   7.307 -0.7248  1.0695  0.0603
  749MOL0     C98751   7.458   4.926   7.439  0.0443 -0.7288 -0.4174
  749MOL0     C98752   7.446   4.771   7.423 -0.4685  0.5656 -0.5101
  749MOL0     N98753   7.332   4.727   7.349  0.2733  0.1554 -0.1563
  749MOL0     C98754   7.337   4.619   7.264  0.4277  0.1046  0.1120
  749MOL0     C98755   7.203   4.588   7.259  0.6563 -0.4380 -0.3079
  749MOL0     C98756   7.140   4.481   7.164 -0.3904 -1.1792  0.1547
  749MOL0     C98757   7.112   4.346   7.242  0.0163  0.4371 -0.5582
  749MOL0     C98758   7.027   4.257   7.155  0.9417  0.0456 -0.7736
  749MOL0     C98759   7.089   4.157   7.066 -0.9138 -0.4171 -0.1014
  749MOL0     O98760   6.992   4.055   7.025  0.4880 -0.3982 -0.1141
  749MOL0     C98761   6.976   3.948   7.107 -0.4580  0.2471  1.6940
  749MOL0     C98762   7.038   3.936   7.226 -0.3266 -0.1979  0.0306
  749MOL0     C98763   7.040   3.806   7.288 -0.1151  0.2650  0.7811
  749MOL0     C98764   6.969   3.692   7.244  1.0308 -0.2664  0.0702
  749MOL0     C98765   6.947   3.573   7.327 -0.5542 -0.4250  0.7683
  749MOL0     O98766   6.979   3.576   7.460  0.2956  0.1816 -0.1450
  749MOL0     C98767   6.941   3.465   7.531  0.4845  1.1284  0.3362
  749MOL0     C98768   6.844   3.487   7.636 -0.3054  0.2448 -0.2428
  749MOL0     C98769   6.820   3.380   7.721  0.4164  0.6225 -0.4284
  749MOL0     C98770   6.893   3.259   7.717  0.1897  0.3087  0.0167
  749MOL0     O98771   6.892   3.163   7.813 -0.4039  0.1198  0.0359
  749MOL0     C98772   6.803   3.167   7.925  0.0002 -0.4843 -0.7824
  749MOL0     C98773   6.842   3.046   8.015  0.3313 -0.1376 -0.5909
  749MOL0     C98774   6.757   3.046   8.141 -0.2861  0.2280 -0.7691
  749MOL0     C98775   6.607   3.081   8.120 -0.5453 -0.5085  0.7608
  749MOL0     C98776   6.528   3.060   8.248  0.5977 -1.0730  0.1099
  749MOL0     C98777   6.462   2.923   8.240 -0.3500 -0.9645 -0.3444
  749MOL0     C98778   6.373   2.896   8.364 -0.0586  0.0738  0.4738
  749MOL0     C98779   6.292   2.757   8.374 -0.8200  0.4315  0.2559
  749MOL0    Cl98780   6.432   2.653   8.408  0.0968  0.0839 -0.3928
  749MOL0     C98781   6.978   3.240   7.613  0.5154 -0.3373 -0.8634
  749MOL0     C98782   7.001   3.336   7.518 -0.7908 -0.3120 -0.4356
  749MOL0     O98783   6.923   3.475   7.256 -0.8177  0.6737  0.1352
  749MOL0     C98784   6.899   3.717   7.125 -0.3089 -0.1860  0.4882
  749MOL0     C98785   6.904   3.837   7.056 -1.0593 -0.8150  0.4789
  749MOL0     N98786   7.123   4.680   7.328 -0.2413 -0.2785  0.1573
  749MOL0     N98787   7.207   4.756   7.385  0.1392  0.0278 -1.4225
  749MOL0     C98788   7.442   5.197   6.506  1.1605  0.1647 -0.5211
  749MOL0     C98789   7.363   5.188   6.385 -0.4037  0.4136 -1.2265
  749MOL0     C98790   6.986   5.058   6.099  0.2396 -0.2917 -0.9164
  749MOL0     C98791   7.011   5.186   6.043 -0.1062  0.3302  0.0205
  749MOL0     C98792   6.944   5.215   5.927  0.2319 -0.4366  0.1399
  749MOL0     C98793   6.841   5.137   5.880 -1.3850 -0.6419  0.5295
  749MOL0     O98794   6.770   5.192   5.778  0.2846 -0.8303  0.1772
  749MOL0     C98795   6.706   5.104   5.684  0.3796 -0.5977 -0.2109
  749MOL0     C98796   6.689   5.201   5.564 -0.7374 -0.7277 -0.5111
  749MOL0     C98797   6.581   5.314   5.580 -0.3405 -0.6701 -0.6120
  749MOL0     C98798   6.563   5.410   5.457  1.0777  0.1655  0.7440
  749MOL0     C98799   6.663   5.522   5.445 -0.0708  1.0182 -0.2152
  749MOL0     C98800   6.742   5.611   5.445 -0.7923 -0.2240  0.5357
  749MOL0     C98801   6.810   5.015   5.944  0.7771 -0.1926 -0.1180
  749MOL0     C98802   6.891   4.973   6.047  0.5444 -1.3366 -0.8296
  749MOL0     H98803   7.136   4.946   6.495  0.3108 -0.8966 -1.4787
  749MOL0     H98804   7.295   4.959   6.683  3.0280 -1.0173 -0.8600
  749MOL0     H98805   7.655   5.009   6.649 -1.1430  1.1041 -0.0158
  749MOL0     H98806   7.544   4.914   6.739 -1.1484 -0.2528  4.0171
  749MOL0     H98807   7.671   5.172   6.878  1.3099 -0.5645  3.1302
  749MOL0     H98808   7.764   5.021   6.869  0.2368 -0.6830 -1.2217
  749MOL0     H98809   7.578   4.901   6.982 -0.2267 -0.7551  1.5291
  749MOL0     H98810   7.478   5.050   6.977 -0.1349 -0.9245  0.3442
  749MOL0     H98811   7.746   5.068   7.104 -0.8350  0.9952 -3.5404
  749MOL0     H98812   7.608   5.156   7.141 -1.8799  0.2002 -3.1043
  749MOL0     H98813   7.695   4.982   7.311 -0.3847  3.0666 -0.5228
  749MOL0     H98814   7.609   4.856   7.213 -1.3590 -1.1066  4.5549
  749MOL0     H98815   7.403   4.972   7.234  1.0827 -1.7983 -0.8016
  749MOL0     H98816   7.478   5.108   7.334 -1.7561  0.7436  1.3976
  749MOL0     H98817   7.544   4.943   7.505  0.9777  0.2169 -1.8058
  749MOL0     H98818   7.368   4.960   7.491  0.0161 -2.3734  0.6534
  749MOL0     H98819   7.455   4.741   7.527  1.8130  0.5612 -0.6520
  749MOL0     H98820   7.538   4.721   7.391 -0.4753 -0.1663  0.5607
  749MOL0     H98821   7.432   4.575   7.233 -0.0799 -2.1167  1.4917
  749MOL0     H98822   7.198   4.459   7.074 -0.7977 -0.7719 -0.2118
  749MOL0     H98823   7.049   4.525   7.123  1.2942  2.0337 -0.4769
  749MOL0     H98824   7.063   4.365   7.339 -1.0505 -1.2600 -0.7173
  749MOL0     H98825   7.207   4.302   7.273  0.8851  1.3429 -1.8543
  749MOL0     H98826   6.974   4.200   7.233 -0.7507  0.6160 -1.4476
  749MOL0     H98827   6.948   4.320   7.112  0.3974  0.0367  0.1781
  749MOL0     H98828   7.183   4.121   7.110 -0.8155  0.2793  0.2679
  749MOL0     H98829   7.126   4.212   6.979 -0.2012  2.3368  1.8360
  749MOL0     H98830   7.093   4.012   7.280 -1.7624 -0.9610  2.8153
  749MOL0     H98831   7.102   3.774   7.371 -1.0335 -1.2435  0.9220
  749MOL0     H98832   6.783   3.575   7.653 -0.2236 -0.2094  3.0686
  749MOL0     H98833   6.744   3.389   7.798  1.1117 -1.8257  0.6498
  749MOL0     H98834   6.705   3.149   7.881  0.5318 -4.2163 -0.6932
  749MOL0     H98835   6.803   3.258   7.986 -0.0598  0.2426 -1.8266
  749MOL0     H98836   6.949   3.059   8.037 -0.3004  1.5504  1.9937
  749MOL0     H98837   6.822   2.949   7.969  1.5774 -1.4136  1.4255
  749MOL0     H98838   6.793   3.114   8.218 -0.5848  0.5214 -0.8895
  749MOL0     H98839   6.756   2.941   8.173  0.6299  0.9645  1.8935
  749MOL0     H98840   6.594   3.183   8.083 -1.1130 -0.4007  1.2341
  749MOL0     H98841   6.572   3.019   8.036  0.2187  0.2236 -0.1168
  749MOL0     H98842   6.449   3.135   8.252  1.5809 -0.0584  1.7811
  749MOL0     H98843   6.603   3.068   8.327  0.5741 -1.1464  0.1407
  749MOL0     H98844   6.544   2.851   8.238 -0.1076 -0.6778 -1.4571
  749MOL0     H98845   6.394   2.923   8.154 -2.5354  0.8137  1.2641
  749MOL0     H98846   6.443   2.905   8.448  0.3525  0.9497  0.0596
  749MOL0     H98847   6.303   2.980   8.372 -1.5377 -1.0744  0.0397
  749MOL0     H98848   6.255   2.718   8.279  1.8038  0.5841 -0.9281
  749MOL0     H98849   6.217   2.775   8.451 -0.0632  2.3509  0.5903
  749MOL0     H98850   7.023   3.142   7.604 -0.4145 -1.1684  2.2043
  749MOL0     H98851   7.056   3.309   7.429  2.2271  2.9681  0.1926
  749MOL0     H98852   6.852   3.635   7.071  1.0628  0.1644 -1.3521
  749MOL0     H98853   6.864   3.842   6.955  1.5775  0.8610 -0.5829
  749MOL0     H98854   7.517   5.276   6.508  0.9452  0.3566  0.2239
  749MOL0     H98855   7.393   5.251   6.303  0.8080  3.0169  1.0691
  749MOL0     H98856   7.089   5.245   6.090 -1.1005  0.6327  1.3187
  749MOL0     H98857   6.957   5.310   5.876 -2.5589 -0.3825 -0.6228
  749MOL0     H98858   6.618   5.047   5.717  0.1494  0.0130  0.2582
  749MOL0     H98859   6.772   5.022   5.657  0.6173 -0.8121  0.9651
  749MOL0     H98860   6.785   5.250   5.546 -1.3756  1.5498  1.6986
  749MOL0     H98861   6.655   5.146   5.476 -1.1378 -2.0230  0.4309
  749MOL0     H98862   6.626   5.366   5.665  0.8106 -1.6919 -0.5581
  749MOL0     H98863   6.486   5.270   5.609 -0.8980  1.2584  0.6927
  749MOL0     H98864   6.573   5.349   5.367  3.1652  0.7061  0.5569
  749MOL0     H98865   6.459   5.444   5.453  1.5101  1.4682 -0.3513
  749MOL0     H98866   6.806   5.697   5.452 -1.8739  0.8478 -1.7346
  749MOL0     H98867   6.721   4.955   5.923  1.1554 -2.3384  3.5137
  749MOL0     H98868   6.874   4.877   6.093  0.8006 -0.4897  1.1365
  750MOL0     O98869  10.530  11.299   0.548 -0.6813 -0.7797 -0.5139
  750MOL0     C98870  10.563  11.243   0.643 -0.1798  0.5884 -0.6667
  750MOL0     O98871  10.639  11.136   0.648 -0.5419 -0.2523  0.0608
  750MOL0     C98872  10.691  11.084   0.527  0.2352  0.9488 -1.0928
  750MOL0     C98873  10.828  11.061   0.499 -0.0242 -0.1828 -0.2326
  750MOL0     C98874  10.870  10.998   0.378 -1.2567  0.7521 -0.7440
  750MOL0     C98875  10.773  10.943   0.296 -0.6707 -0.1282  0.2523
  750MOL0     O98876  10.814  10.872   0.179 -1.1521 -0.4293 -0.3349
  750MOL0     C98877  10.721  10.876   0.072  0.4281 -0.0305 -1.0414
  750MOL0     C98878  10.788  10.835  -0.052  0.1194  0.3094 -0.1051
  750MOL0     C98879  10.710  10.874  -0.186 -0.4622  0.0250 -0.3431
  750MOL0     C98880  10.778  10.804  -0.299 -0.4704 -0.8155  0.9580
  750MOL0     C98881  10.725  10.861  -0.438 -0.5466 -0.0446 -0.2323
  750MOL0     C98882  10.795  10.810  -0.567 -0.4753  0.2339  0.5307
  750MOL0     C98883  10.776  10.660  -0.609  0.2270  0.4597  0.3584
  750MOL0     C98884  10.880  10.624  -0.720  0.2051  0.1999 -0.0550
  750MOL0     N98885  10.859  10.660  -0.858 -0.1828 -0.1344  0.2004
  750MOL0     C98886  10.837  10.791  -0.906 -0.6520  0.0180 -0.0294
  750MOL0     C98887  10.820  10.766  -1.049  0.2027 -1.0595 -0.9868
  750MOL0     C98888  10.783  10.879  -1.140  0.7356 -1.1525  0.4764
  750MOL0     C98889  10.771  10.834  -1.289  0.5996  0.3609  0.1958
  750MOL0     C98890  10.696  10.954  -1.360 -0.2519 -0.2810  1.0730
  750MOL0     C98891  10.702  10.948  -1.512 -0.1146  0.1698  0.0993
  750MOL0     O98892  10.643  11.069  -1.561  0.5721 -0.2048  0.2269
  750MOL0     C98893  10.627  11.075  -1.696 -1.0113  0.7809  0.5060
  750MOL0     C98894  10.678  10.984  -1.800 -0.1229  0.1613  0.1761
  750MOL0     C98895  10.654  11.013  -1.943  0.3415 -0.3103 -0.9916
  750MOL0     C98896  10.575  11.123  -1.977 -0.2484 -0.1659 -0.3267
  750MOL0     C98897  10.553  11.146  -2.125 -0.5559 -0.2893 -0.2996
  750MOL0     O98898  10.603  11.046  -2.216 -0.1099 -0.1195 -0.2496
  750MOL0     C98899  10.543  11.032  -2.344 -1.3130  0.0073 -0.6398
  750MOL0     C98900  10.409  11.023  -2.355 -0.0279 -0.0138 -0.0465
  750MOL0     C98901  10.344  10.987  -2.478  0.6836  0.1533 -0.3452
  750MOL0     C98902  10.429  10.969  -2.590  0.5457  0.4083 -0.2577
  750MOL0     O98903  10.377  10.949  -2.714  0.3530  0.6804  0.2471
  750MOL0     C98904  10.234  10.935  -2.739 -0.3151  0.3063  0.4967
  750MOL0     C98905  10.192  10.959  -2.882  0.1604  0.4905 -1.1341
  750MOL0     C98906  10.058  10.927  -2.916  0.5553 -1.4269  0.4963
  750MOL0     C98907   9.954  10.976  -2.818  0.4913  0.0046 -0.0894
  750MOL0     C98908   9.802  10.964  -2.860 -0.1203 -0.7558 -0.4582
  750MOL0     C98909   9.796  11.033  -2.986  1.0486  0.0332 -0.1891
  750MOL0     C98910   9.656  11.031  -3.023  0.6295 -0.1434  0.4761
  750MOL0     C98911   9.636  11.084  -3.166 -0.3601  0.0673 -0.8055
  750MOL0    Cl98912   9.477  11.058  -3.206 -0.0312 -0.3167 -0.1181
  750MOL0     C98913  10.570  10.978  -2.580  0.3502  0.6856  0.3262
  750MOL0     C98914  10.628  11.018  -2.458 -0.3909  0.6222 -0.0461
  750MOL0     O98915  10.478  11.233  -2.158 -0.5020 -0.4482 -0.1032
  750MOL0     C98916  10.527  11.209  -1.880 -0.8949 -0.6909 -0.9580
  750MOL0     C98917  10.544  11.181  -1.738 -0.0762 -0.1128  0.0491
  750MOL0     N98918  10.823  10.631  -1.068 -0.4316 -0.2923  0.5519
  750MOL0     N98919  10.853  10.568  -0.957 -0.6965  0.0311  0.0184
  750MOL0     C98920  10.635  10.952   0.339 -0.9537 -0.3676  0.0755
  750MOL0     C98921  10.596  11.029   0.441  0.2673 -0.6085  0.1144
  750MOL0     C98922  10.518  11.281   0.780 -0.0134  0.0687  1.0102
  750MOL0     C98923  10.575  11.235   0.895  0.5825  0.0126  0.2103
  750MOL0     C98924  10.536  11.287   1.018  0.0927  0.3548 -0.4127
  750MOL0     C98925  10.428  11.371   1.030 -0.2485  0.3684 -0.2588
  750MOL0     O98926  10.371  11.403   1.153  0.3866  0.5808 -0.3860
  750MOL0     C98927  10.430  11.365   1.279  0.2470  0.2181 -0.3468
  750MOL0     C98928  10.359  11.433   1.397  1.3048  0.5108 -0.7153
  750MOL0     C98929  10.365  11.583   1.405 -0.5553  0.1941 -0.0847
  750MOL0     C98930  10.266  11.656   1.313 -0.3928  0.0820  0.2464
  750MOL0     C98931  10.123  11.649   1.359  1.1464  0.6649  0.0070
  750MOL0     C98932  10.007  11.661   1.403  0.4485 -0.6624 -0.3234
  750MOL0     C98933  10.379  11.423   0.915  0.0690 -0.3781 -0.3615
  750MOL0     C98934  10.427  11.387   0.791  0.8469  0.0256 -0.1574
  750MOL0     H98935  10.893  11.112   0.569 -1.3268  1.9553 -0.4555
  750MOL0     H98936  10.976  10.999   0.352 -0.7711  1.2814  1.1003
  750MOL0     H98937  10.697  10.981   0.052  2.7844  0.1605 -3.3591
  750MOL0     H98938  10.632  10.813   0.087 -0.1261  0.5544 -1.7804
  750MOL0     H98939  10.806  10.728  -0.063  1.5096  0.5407 -0.2706
  750MOL0     H98940  10.888  10.880  -0.051  1.0419 -1.5684  2.1022
  750MOL0     H98941  10.714  10.983  -0.193  0.1388  0.1270  1.1525
  750MOL0     H98942  10.610  10.835  -0.169  0.4721 -1.4674  2.3373
  750MOL0     H98943  10.884  10.821  -0.276  0.2410 -2.0683 -1.1568
  750MOL0     H98944  10.757  10.697  -0.286  0.1307 -1.0964 -0.2262
  750MOL0     H98945  10.751  10.967  -0.444 -0.2605  0.4114  4.6243
  750MOL0     H98946  10.616  10.854  -0.443 -0.8666  2.5310  1.0638
  750MOL0     H98947  10.900  10.836  -0.555 -0.0571 -0.0585 -2.0728
  750MOL0     H98948  10.747  10.868  -0.646  0.6849  0.7081  0.1654
  750MOL0     H98949  10.799  10.601  -0.520  3.4614 -3.0322 -2.3961
  750MOL0     H98950  10.672  10.643  -0.638  0.0244 -3.5718  2.6434
  750MOL0     H98951  10.889  10.515  -0.717 -0.9452  0.0852  3.2104
  750MOL0     H98952  10.980  10.656  -0.691  1.1694 -2.2992 -0.3450
  750MOL0     H98953  10.821  10.886  -0.856 -5.1914 -0.0871 -0.8521
  750MOL0     H98954  10.850  10.965  -1.133 -0.2782 -0.1527 -1.3577
  750MOL0     H98955  10.682  10.909  -1.112  0.0924 -4.0543  1.6407
  750MOL0     H98956  10.717  10.740  -1.295  1.4010 -0.0064 -2.6565
  750MOL0     H98957  10.865  10.817  -1.342 -1.8723 -2.5963 -3.7880
  750MOL0     H98958  10.591  10.937  -1.334 -0.2850 -0.0082  1.1196
  750MOL0     H98959  10.729  11.050  -1.320  0.2973 -1.0037  2.4179
  750MOL0     H98960  10.645  10.865  -1.555 -1.4844  1.5596 -0.9491
  750MOL0     H98961  10.805  10.938  -1.547  0.6141  4.4584  0.4045
  750MOL0     H98962  10.741  10.899  -1.778 -0.3476 -0.2676 -0.7812
  750MOL0     H98963  10.686  10.949  -2.025 -1.1149  2.3664 -3.8764
  750MOL0     H98964  10.355  11.031  -2.262 -0.1504 -1.5022  0.0296
  750MOL0     H98965  10.239  10.963  -2.473  0.7316 -0.2849 -1.2390
  750MOL0     H98966  10.195  11.014  -2.673 -0.2590  1.2732 -0.5960
  750MOL0     H98967  10.217  10.829  -2.720  0.0722  0.0211 -0.6513
  750MOL0     H98968  10.255  10.896  -2.946 -1.1722 -0.1974 -1.8152
  750MOL0     H98969  10.213  11.062  -2.911  3.9750 -0.4482 -2.3461
  750MOL0     H98970  10.048  10.819  -2.930  0.9442 -1.1649 -2.3597
  750MOL0     H98971  10.049  10.964  -3.018  3.6055 -0.3218  0.5007
  750MOL0     H98972   9.957  10.921  -2.724 -2.3950  2.4538  1.6208
  750MOL0     H98973   9.974  11.080  -2.791 -0.7061  0.2623 -0.1378
  750MOL0     H98974   9.731  11.007  -2.789 -0.0305 -1.4540  0.0589
  750MOL0     H98975   9.774  10.859  -2.873  0.2767 -0.8064 -0.9499
  750MOL0     H98976   9.859  10.997  -3.068  1.8718  0.2735  0.3253
  750MOL0     H98977   9.814  11.139  -2.968 -4.2593  1.2411 -0.3679
  750MOL0     H98978   9.605  10.935  -3.017 -2.2811  1.3605  2.0428
  750MOL0     H98979   9.600  11.092  -2.952  0.2112  1.6846 -1.3224
  750MOL0     H98980   9.701  11.029  -3.235  2.7927 -0.0737  2.0402
  750MOL0     H98981   9.647  11.189  -3.192 -0.5362  0.3996  0.3895
  750MOL0     H98982  10.638  10.965  -2.664  2.3339 -1.9168  2.1495
  750MOL0     H98983  10.736  11.020  -2.446 -0.4902  1.1234  0.9110
  750MOL0     H98984  10.470  11.299  -1.903  2.1476  1.6082 -0.1847
  750MOL0     H98985  10.497  11.244  -1.663  1.9230  0.5093  0.8413
  750MOL0     H98986  10.559  10.911   0.273 -1.3998  1.0510 -0.3112
  750MOL0     H98987  10.491  11.044   0.462  0.8521  2.4929  1.2696
  750MOL0     H98988  10.657  11.164   0.903  0.5039  0.1178  2.5209
  750MOL0     H98989  10.578  11.240   1.106  0.2387  0.1476 -0.5910
  750MOL0     H98990  10.537  11.386   1.286  0.4534 -0.9614  0.5884
  750MOL0     H98991  10.409  11.258   1.289 -1.5832  0.4415 -1.3627
  750MOL0     H98992  10.261  11.394   1.427  2.3173 -1.1041  0.6629
  750MOL0     H98993  10.414  11.397   1.483  1.0424 -0.9322 -1.1223
  750MOL0     H98994  10.467  11.616   1.381 -1.5568  2.2800 -1.7590
  750MOL0     H98995  10.345  11.614   1.508  1.6110  0.1044  0.4130
  750MOL0     H98996  10.304  11.758   1.295  2.2108 -0.6077  1.3643
  750MOL0     H98997  10.266  11.605   1.217 -1.1951  0.1366  0.2167
  750MOL0     H98998   9.912  11.682   1.446  1.5404  1.7212  1.1421
  750MOL0     H98999  10.303  11.500   0.924 -0.4579 -0.7094 -1.7104
  750MOL0     H99000  10.381  11.428   0.702  0.5987  0.4485  0.1694
  751MOL0     O99001   0.275   4.881  10.591  0.1404  0.6308  0.4352
  751MOL0     C99002   0.233   4.778  10.650 -0.0684 -0.5305 -0.5429
  751MOL0     O99003   0.224   4.651  10.592 -0.7400  0.3120 -0.1019
  751MOL0     C99004   0.232   4.639  10.460  0.2929 -0.2618 -1.0527
  751MOL0     C99005   0.349   4.605  10.388 -0.0998  0.0292 -0.1212
  751MOL0     C99006   0.349   4.599  10.250  0.7923 -0.0181  0.6207
  751MOL0     C99007   0.233   4.634  10.172 -0.9196 -0.4299  0.0801
  751MOL0     O99008   0.228   4.625  10.037 -0.3205 -0.9002  1.0614
  751MOL0     C99009   0.300   4.736   9.966  0.6359  0.0006 -0.4695
  751MOL0     C99010   0.293   4.730   9.811 -0.2563  0.2925  0.2337
  751MOL0     C99011   0.356   4.598   9.751  0.2527 -0.4882  1.2085
  751MOL0     C99012   0.243   4.484   9.757 -0.3943 -0.1316  0.4915
  751MOL0     C99013   0.277   4.371   9.655 -0.4062 -0.0885 -1.1093
  751MOL0     C99014   0.387   4.279   9.713 -0.2194 -0.2707 -0.2417
  751MOL0     C99015   0.452   4.192   9.603 -0.7062 -0.0179 -0.5480
  751MOL0     C99016   0.359   4.104   9.539  0.0086 -0.7539 -0.6523
  751MOL0     N99017   0.295   4.014   9.635 -0.0310  0.5440  0.3572
  751MOL0     C99018   0.354   3.891   9.662 -0.4391 -0.5049 -0.2331
  751MOL0     C99019   0.273   3.836   9.758  0.4391 -0.4312  0.3463
  751MOL0     C99020   0.301   3.710   9.830  0.3755  0.2525  0.4477
  751MOL0     C99021   0.277   3.593   9.737  0.1888  0.2148  0.9326
  751MOL0     C99022   0.129   3.589   9.681  0.5739  0.5807 -0.6623
  751MOL0     C99023   0.032   3.520   9.773 -0.5714  0.5077  0.2597
  751MOL0     O99024   0.080   3.387   9.792  0.1263 -0.5054 -0.1158
  751MOL0     C99025  -0.014   3.300   9.847 -0.3446  1.0466 -0.5004
  751MOL0     C99026  -0.147   3.324   9.886  0.6038 -0.7874 -0.5193
  751MOL0     C99027  -0.241   3.221   9.904  0.5375  0.1568  0.6995
  751MOL0     C99028  -0.202   3.088   9.908 -0.5957  1.6181  0.2162
  751MOL0     C99029  -0.305   2.986   9.936  0.3839  1.6181  0.5203
  751MOL0     O99030  -0.408   3.013  10.029 -0.0219 -0.1984 -0.3991
  751MOL0     C99031  -0.498   2.919  10.051  0.2034 -0.0594 -0.7702
  751MOL0     C99032  -0.523   2.863  10.177 -0.3653  0.0458 -0.1618
  751MOL0     C99033  -0.629   2.781  10.198  0.1828  0.4734 -1.3430
  751MOL0     C99034  -0.728   2.760  10.105  0.6330 -0.0099  0.3130
  751MOL0     O99035  -0.847   2.679  10.121  0.3751  0.0586  0.8493
  751MOL0     C99036  -0.914   2.687  10.253  0.2882 -0.6395  0.0666
  751MOL0     C99037  -1.050   2.755  10.228  0.1821  0.6707  0.9910
  751MOL0     C99038  -1.116   2.816  10.353 -0.2146 -0.3287  0.6011
  751MOL0     C99039  -1.247   2.891  10.333 -0.0879  0.3636 -0.4468
  751MOL0     C99040  -1.293   2.962  10.450 -0.1069  0.6233  0.5456
  751MOL0     C99041  -1.359   2.881  10.568  0.1772 -0.6839 -0.0135
  751MOL0     C99042  -1.402   2.979  10.681 -0.3288 -0.5227  0.1042
  751MOL0     C99043  -1.287   3.049  10.748  0.2008  0.9025 -0.6524
  751MOL0    Cl99044  -1.198   2.924  10.841 -0.0310  0.4594 -0.2450
  751MOL0     C99045  -0.702   2.805   9.974 -0.5057 -0.2674  0.8196
  751MOL0     C99046  -0.590   2.889   9.950  0.7642 -0.4919 -0.1024
  751MOL0     O99047  -0.285   2.880   9.878  0.1101  0.1986  0.8114
  751MOL0     C99048  -0.064   3.064   9.881 -0.3199 -0.6778 -0.2503
  751MOL0     C99049   0.027   3.159   9.848  0.0130  0.6864  0.9910
  751MOL0     N99050   0.184   3.926   9.798  0.3052  0.3136  0.5533
  751MOL0     N99051   0.185   4.029   9.712  0.1137  1.0734 -0.3606
  751MOL0     C99052   0.123   4.671  10.243  0.4508  0.2614  0.2354
  751MOL0     C99053   0.120   4.666  10.381 -0.0614  0.1525 -0.4800
  751MOL0     C99054   0.173   4.797  10.780  0.0244 -0.4831 -0.5919
  751MOL0     C99055   0.082   4.702  10.825 -0.0274  0.3801  0.3865
  751MOL0     C99056   0.019   4.707  10.950  0.6288  0.2378  0.2492
  751MOL0     C99057   0.046   4.811  11.036 -0.8758 -0.0893 -1.0288
  751MOL0     O99058  -0.011   4.835  11.160  0.8617 -0.3180 -0.0143
  751MOL0     C99059  -0.074   4.726  11.234  0.3710 -0.1864  0.5401
  751MOL0     C99060   0.026   4.627  11.291 -0.4174  0.1368 -0.4536
  751MOL0     C99061  -0.038   4.535  11.387 -0.2896  0.9254 -0.6036
  751MOL0     C99062  -0.075   4.403  11.312  0.3230  0.5109  0.1850
  751MOL0     C99063   0.037   4.309  11.306  0.6438  0.2209  0.5982
  751MOL0     C99064   0.119   4.224  11.303 -0.8332 -0.7021 -0.9281
  751MOL0     C99065   0.131   4.914  10.992 -0.4464  1.4047  0.1730
  751MOL0     C99066   0.193   4.902  10.868 -0.1325  0.5534  0.1481
  751MOL0     H99067   0.446   4.583  10.431 -0.0820 -0.5188 -0.4304
  751MOL0     H99068   0.438   4.565  10.199 -0.8964  0.6996 -3.1417
  751MOL0     H99069   0.409   4.733   9.980  0.6974 -1.4728 -1.1196
  751MOL0     H99070   0.255   4.827  10.008 -0.0900  0.4949 -2.2384
  751MOL0     H99071   0.350   4.818   9.778  0.2270 -0.0988  0.0042
  751MOL0     H99072   0.194   4.749   9.769  0.8175  0.3443 -2.4562
  751MOL0     H99073   0.453   4.585   9.799  0.6773  1.8420  1.0698
  751MOL0     H99074   0.378   4.615   9.645 -1.9801 -1.8581  0.4483
  751MOL0     H99075   0.216   4.448   9.857 -2.1944  3.3775  1.4135
  751MOL0     H99076   0.153   4.520   9.707  1.3805 -0.4114 -3.2449
  751MOL0     H99077   0.310   4.417   9.561  1.3114  2.3797  0.5571
  751MOL0     H99078   0.183   4.316   9.644 -0.7148  0.1651  0.1082
  751MOL0     H99079   0.350   4.219   9.796 -0.1184  0.0212  0.0177
  751MOL0     H99080   0.469   4.340   9.752  0.8505 -1.3304 -0.7689
  751MOL0     H99081   0.498   4.255   9.526 -2.3220  1.1963 -0.5758
  751MOL0     H99082   0.525   4.125   9.648 -2.5050 -1.7286 -0.0398
  751MOL0     H99083   0.412   4.034   9.474 -1.9137 -4.9064  1.8017
  751MOL0     H99084   0.293   4.168   9.479  1.0385  0.4013 -0.5805
  751MOL0     H99085   0.443   3.839   9.629 -0.3441 -0.1454 -0.5361
  751MOL0     H99086   0.233   3.693   9.913 -0.1332  1.4007  0.2836
  751MOL0     H99087   0.399   3.699   9.878  1.5233 -0.2846 -1.8990
  751MOL0     H99088   0.301   3.498   9.786  4.0263  0.2042 -0.6144
  751MOL0     H99089   0.337   3.610   9.647 -2.8994  2.6053 -0.8867
  751MOL0     H99090   0.094   3.689   9.655  1.1990  1.7693  2.5908
  751MOL0     H99091   0.125   3.525   9.592 -3.4764 -3.7588  2.1230
  751MOL0     H99092  -0.064   3.519   9.720 -0.2446  0.8818 -0.3466
  751MOL0     H99093   0.014   3.574   9.866 -0.5396  0.6267  0.1972
  751MOL0     H99094  -0.182   3.427   9.885  2.2367 -0.1719 -2.8947
  751MOL0     H99095  -0.345   3.251   9.916 -0.4060 -2.9469  1.4631
  751MOL0     H99096  -0.465   2.886  10.266  1.1700 -0.2452 -1.0526
  751MOL0     H99097  -0.618   2.742  10.298  0.5964  0.5181 -1.3720
  751MOL0     H99098  -0.854   2.743  10.326  2.1608  2.0628 -3.2190
  751MOL0     H99099  -0.943   2.589  10.291 -2.2801  0.3585  0.8836
  751MOL0     H99100  -1.115   2.678  10.185  0.8931 -0.7057  2.2819
  751MOL0     H99101  -1.025   2.827  10.149  1.1124  0.8961  1.4743
  751MOL0     H99102  -1.042   2.878  10.404  0.8568 -1.0516 -0.0366
  751MOL0     H99103  -1.124   2.738  10.429  0.5737 -0.5754  0.4417
  751MOL0     H99104  -1.232   2.968  10.256  0.6293 -0.0536 -0.7358
  751MOL0     H99105  -1.321   2.819  10.296  0.6310 -1.8585  2.1292
  751MOL0     H99106  -1.368   3.035  10.416 -0.3444 -1.1836 -3.2072
  751MOL0     H99107  -1.208   3.019  10.488  1.0781 -1.0672  0.4834
  751MOL0     H99108  -1.295   2.807  10.617  0.9038  1.6373  2.7906
  751MOL0     H99109  -1.454   2.833  10.541  0.0117 -1.0575  1.1618
  751MOL0     H99110  -1.460   3.047  10.618 -0.2283 -1.8501 -1.4802
  751MOL0     H99111  -1.465   2.933  10.757 -1.1828 -0.0435 -0.2950
  751MOL0     H99112  -1.317   3.130  10.814 -0.3155 -0.4139  0.7657
  751MOL0     H99113  -1.220   3.096  10.674 -1.1322  4.8366  0.3599
  751MOL0     H99114  -0.775   2.793   9.894  0.4125  1.5598 -0.3619
  751MOL0     H99115  -0.572   2.926   9.850 -1.7837 -0.6759 -0.6900
  751MOL0     H99116  -0.017   2.967   9.885 -2.2788 -1.7891 -2.3515
  751MOL0     H99117   0.122   3.126   9.806 -0.2973 -0.6099  1.2426
  751MOL0     H99118   0.036   4.701  10.185  0.9511  0.0179 -0.6722
  751MOL0     H99119   0.027   4.686  10.434  2.1230  0.0952  3.7221
  751MOL0     H99120   0.053   4.616  10.766  1.0546  1.2869 -1.5512
  751MOL0     H99121  -0.049   4.631  10.988 -5.5118  3.0649 -3.3978
  751MOL0     H99122  -0.157   4.671  11.186  0.1076  1.8739 -1.5451
  751MOL0     H99123  -0.126   4.781  11.313 -0.8780  2.1797 -1.7711
  751MOL0     H99124   0.080   4.564  11.220 -2.2726 -0.6197 -1.2470
  751MOL0     H99125   0.101   4.689  11.339 -0.4297  1.4338 -2.0366
  751MOL0     H99126  -0.122   4.586  11.435 -0.7301 -0.1262 -0.2286
  751MOL0     H99127   0.033   4.502  11.465 -2.4461 -1.6952  0.4264
  751MOL0     H99128  -0.155   4.355  11.369 -0.1781  1.3855  0.2454
  751MOL0     H99129  -0.119   4.434  11.217 -0.5548 -1.8604 -0.2340
  751MOL0     H99130   0.195   4.149  11.295 -0.0527  0.1364 -1.5269
  751MOL0     H99131   0.162   4.991  11.061  2.4121  2.2138 -1.8174
  751MOL0     H99132   0.262   4.980  10.839  2.1486 -0.9931  1.0849
  752MOL0     O99133   0.889   4.291   6.244 -0.1868 -0.7527  0.8954
  752MOL0     C99134   0.858   4.408   6.233 -0.0097  0.2181  0.6241
  752MOL0     O99135   0.734   4.451   6.267 -0.5655  0.1992 -0.2003
  752MOL0     C99136   0.640   4.363   6.335 -0.5963 -0.5264 -0.1318
  752MOL0     C99137   0.589   4.245   6.276  0.9043  0.7581  0.1613
  752MOL0     C99138   0.516   4.150   6.349 -0.3091  0.5083  1.4173
  752MOL0     C99139   0.483   4.170   6.481  0.6032  0.2804 -0.8259
  752MOL0     O99140   0.410   4.089   6.569 -0.4964 -0.6185  0.6861
  752MOL0     C99141   0.395   3.950   6.524 -0.9735 -1.0096 -0.3244
  752MOL0     C99142   0.345   3.881   6.641  0.0837  1.0547  0.3749
  752MOL0     C99143   0.206   3.913   6.685  1.0972 -1.1424  0.5603
  752MOL0     C99144   0.190   3.838   6.821  0.1013  0.8371  0.3749
  752MOL0     C99145   0.043   3.819   6.873  0.2816 -0.4042 -0.8023
  752MOL0     C99146  -0.045   3.721   6.795 -0.2325 -0.5895  0.1261
  752MOL0     C99147  -0.184   3.719   6.870 -0.9208 -0.7754  0.1539
  752MOL0     C99148  -0.259   3.580   6.855 -0.0815 -0.1426 -0.2635
  752MOL0     N99149  -0.393   3.599   6.923 -0.2472  0.2228  0.2071
  752MOL0     C99150  -0.486   3.671   6.857 -0.9064  0.1995 -0.1755
  752MOL0     C99151  -0.592   3.671   6.948 -0.1250 -0.4670  0.8142
  752MOL0     C99152  -0.732   3.742   6.911 -0.5591 -0.2242  1.0803
  752MOL0     C99153  -0.759   3.841   7.028 -0.0537 -0.1165  0.6041
  752MOL0     C99154  -0.897   3.903   7.008  0.5734 -0.3534  1.3929
  752MOL0     C99155  -0.921   4.023   7.095  0.0392  0.5856 -0.7595
  752MOL0     O99156  -0.846   4.139   7.052 -0.4011  0.3941 -0.1491
  752MOL0     C99157  -0.879   4.271   7.086 -0.3542  0.0517  0.6511
  752MOL0     C99158  -0.966   4.306   7.192 -0.2455  0.5308 -1.4689
  752MOL0     C99159  -0.994   4.444   7.211  0.1837 -0.7153 -0.3942
  752MOL0     C99160  -0.941   4.539   7.123  0.5198  0.0424  0.1519
  752MOL0     C99161  -0.955   4.678   7.153  0.2792 -0.9386 -0.3456
  752MOL0     O99162  -0.864   4.760   7.086 -0.2871 -0.0695 -0.0040
  752MOL0     C99163  -0.858   4.896   7.097 -0.0850  0.2534 -0.7211
  752MOL0     C99164  -0.972   4.980   7.122  0.0641  0.0626  0.0353
  752MOL0     C99165  -0.969   5.122   7.137  0.0254 -0.1646 -0.0942
  752MOL0     C99166  -0.842   5.186   7.140 -0.6928  0.4417 -0.3481
  752MOL0     O99167  -0.825   5.320   7.129 -0.3837  1.4065 -1.0320
  752MOL0     C99168  -0.791   5.372   7.001 -0.1461 -0.6064  0.6649
  752MOL0     C99169  -0.913   5.403   6.911  0.4971 -0.4603 -0.2093
  752MOL0     C99170  -0.987   5.528   6.964  0.0781 -0.1315 -0.5755
  752MOL0     C99171  -1.099   5.577   6.871  0.2547  0.3695  0.1216
  752MOL0     C99172  -1.152   5.712   6.907 -1.0676  0.2701 -0.9867
  752MOL0     C99173  -1.249   5.761   6.820 -0.1594  0.0553  0.6426
  752MOL0     C99174  -1.301   5.902   6.860 -0.9563  0.6799  0.0586
  752MOL0     C99175  -1.434   5.931   6.805 -0.1874 -0.1222  0.4434
  752MOL0    Cl99176  -1.478   6.104   6.769 -0.0504 -0.1186 -0.0778
  752MOL0     C99177  -0.724   5.107   7.127 -0.0187 -1.0322  0.2678
  752MOL0     C99178  -0.732   4.959   7.108  0.1408 -0.1455 -0.6378
  752MOL0     O99179  -1.031   4.721   7.246 -0.6265  0.1091  0.2351
  752MOL0     C99180  -0.860   4.502   7.018 -0.4225 -0.0644  0.1859
  752MOL0     C99181  -0.823   4.376   6.999  0.2037 -0.0396 -0.7451
  752MOL0     N99182  -0.560   3.603   7.060  0.6060  0.1484 -0.2493
  752MOL0     N99183  -0.439   3.558   7.045  0.5440  0.3668  0.5093
  752MOL0     C99184   0.531   4.293   6.539  0.0129 -0.5096  0.6309
  752MOL0     C99185   0.604   4.383   6.466  0.2490  0.1695 -0.0185
  752MOL0     C99186   0.956   4.497   6.195 -0.5820  0.1017  0.0316
  752MOL0     C99187   0.918   4.618   6.141 -0.7492 -0.0818 -1.0757
  752MOL0     C99188   1.005   4.703   6.065  1.1420 -0.7747  0.2339
  752MOL0     C99189   1.139   4.670   6.059  0.5872 -0.3412 -0.0263
  752MOL0     O99190   1.220   4.751   5.976 -0.1182  0.0728 -1.2998
  752MOL0     C99191   1.360   4.731   6.009  0.2399 -0.0855  0.3836
  752MOL0     C99192   1.456   4.840   5.978 -0.2582  0.1713  0.2801
  752MOL0     C99193   1.602   4.800   5.979  1.0196  0.8940  0.4949
  752MOL0     C99194   1.661   4.762   5.848  0.4744 -0.0855 -0.1828
  752MOL0     C99195   1.692   4.881   5.770  0.5203  0.2081  0.0121
  752MOL0     C99196   1.727   4.972   5.702 -0.6620  0.4531  0.3606
  752MOL0     C99197   1.174   4.549   6.123 -0.4576 -0.1637  0.3143
  752MOL0     C99198   1.091   4.460   6.182  0.2997 -0.6279 -0.8638
  752MOL0     H99199   0.630   4.209   6.182 -1.0672 -1.6290  0.0908
  752MOL0     H99200   0.482   4.058   6.303  0.3008 -0.3657  2.6733
  752MOL0     H99201   0.491   3.916   6.485 -0.4444 -0.0297  0.0842
  752MOL0     H99202   0.325   3.945   6.440 -1.1004  1.9628 -0.4998
  752MOL0     H99203   0.410   3.921   6.720  0.5270  2.4326 -0.6443
  752MOL0     H99204   0.334   3.773   6.626 -3.0212  0.9780  2.2649
  752MOL0     H99205   0.137   3.884   6.606  0.2647  0.5019  0.6265
  752MOL0     H99206   0.200   4.022   6.697  0.0233 -1.1800  0.4164
  752MOL0     H99207   0.233   3.738   6.831 -0.0091  0.7482 -0.0305
  752MOL0     H99208   0.242   3.905   6.890  2.9066  1.3037 -2.0311
  752MOL0     H99209  -0.002   3.919   6.872  1.6118  0.3682  2.6736
  752MOL0     H99210   0.051   3.786   6.977 -1.6820  3.1870  0.6541
  752MOL0     H99211  -0.002   3.621   6.800  0.4828 -0.2491  0.8158
  752MOL0     H99212  -0.047   3.753   6.690  0.1228 -0.8876  0.0284
  752MOL0     H99213  -0.181   3.754   6.973 -2.4258  2.1091 -0.6966
  752MOL0     H99214  -0.236   3.801   6.821  0.1237  1.2181  2.1846
  752MOL0     H99215  -0.207   3.504   6.914 -0.6112  0.6334  1.2572
  752MOL0     H99216  -0.286   3.546   6.754 -1.4796  0.8641 -0.2613
  752MOL0     H99217  -0.477   3.710   6.756  1.4967  1.6958  0.5377
  752MOL0     H99218  -0.821   3.680   6.906 -1.2577  0.7678  0.8276
  752MOL0     H99219  -0.711   3.808   6.826  1.8734  1.1465  2.6031
  752MOL0     H99220  -0.682   3.918   7.028 -0.0052 -0.1319 -0.9669
  752MOL0     H99221  -0.742   3.783   7.119 -0.4555 -0.9274  0.1709
  752MOL0     H99222  -0.917   3.928   6.903  1.5487  0.6231  1.4307
  752MOL0     H99223  -0.972   3.826   7.030 -0.0506 -0.9240 -2.0801
  752MOL0     H99224  -0.878   4.009   7.195  0.2072  2.5212 -0.5249
  752MOL0     H99225  -1.027   4.048   7.104 -0.3261 -0.9391 -0.4568
  752MOL0     H99226  -1.012   4.228   7.252 -1.1369  0.0694 -2.7161
  752MOL0     H99227  -1.059   4.476   7.291 -1.1461  0.9698 -2.0582
  752MOL0     H99228  -1.072   4.939   7.115  0.2191 -0.2196 -0.5691
  752MOL0     H99229  -1.060   5.173   7.167 -0.5578 -1.4847  0.4488
  752MOL0     H99230  -0.728   5.299   6.950  0.4849 -1.4175  2.5132
  752MOL0     H99231  -0.726   5.456   7.028 -1.6092 -0.1045  2.8774
  752MOL0     H99232  -0.983   5.319   6.912  1.2313 -1.1613 -2.6090
  752MOL0     H99233  -0.879   5.417   6.808  0.6284 -0.6046 -0.1854
  752MOL0     H99234  -0.918   5.613   6.976 -0.3267 -0.1202  2.4721
  752MOL0     H99235  -1.035   5.516   7.061 -0.3876  0.6254 -0.7037
  752MOL0     H99236  -1.068   5.579   6.766 -2.6668  0.9938 -0.8397
  752MOL0     H99237  -1.186   5.511   6.868  1.4193 -1.2852  1.1903
  752MOL0     H99238  -1.067   5.779   6.920  2.4673 -4.0762  0.9570
  752MOL0     H99239  -1.186   5.695   7.010  0.5938 -0.7718 -0.5847
  752MOL0     H99240  -1.339   5.701   6.836 -0.2853 -1.1811 -3.4618
  752MOL0     H99241  -1.217   5.760   6.715 -0.9122  0.8615  0.3944
  752MOL0     H99242  -1.312   5.908   6.969 -1.4952  0.0318  0.0461
  752MOL0     H99243  -1.225   5.978   6.836 -0.4737  0.3079  0.3805
  752MOL0     H99244  -1.513   5.905   6.877  1.2139 -2.6374  1.2145
  752MOL0     H99245  -1.446   5.863   6.721  4.2650 -1.8530  0.9093
  752MOL0     H99246  -0.629   5.158   7.144 -1.4217  1.7254  0.3412
  752MOL0     H99247  -0.642   4.900   7.097  0.3525 -0.1858  0.9643
  752MOL0     H99248  -0.826   4.580   6.950 -2.5497  2.6556  1.9889
  752MOL0     H99249  -0.765   4.357   6.909  1.2196 -0.0354 -0.1011
  752MOL0     H99250   0.506   4.301   6.644 -2.0839  0.8370  0.1017
  752MOL0     H99251   0.637   4.477   6.509  1.8071  0.0549 -0.8902
  752MOL0     H99252   0.818   4.649   6.171  0.3892  0.6568  2.5041
  752MOL0     H99253   0.976   4.796   6.018 -2.3065 -2.0521 -0.5050
  752MOL0     H99254   1.403   4.645   5.956 -0.4621 -0.5181  0.4986
  752MOL0     H99255   1.372   4.725   6.118 -1.0687 -2.2785  0.4649
  752MOL0     H99256   1.427   4.870   5.877 -0.3838 -2.1110 -0.4295
  752MOL0     H99257   1.451   4.928   6.042  1.9202  0.7728 -0.3063
  752MOL0     H99258   1.619   4.719   6.051  0.0750 -0.5996 -0.8993
  752MOL0     H99259   1.660   4.884   6.019 -0.4624  1.4805  1.5199
  752MOL0     H99260   1.754   4.704   5.855  0.8366  0.3122 -1.4457
  752MOL0     H99261   1.590   4.696   5.797 -0.4894  1.7891 -1.3651
  752MOL0     H99262   1.765   5.052   5.641  2.2045 -1.7363 -0.9803
  752MOL0     H99263   1.280   4.525   6.117 -0.6487 -1.5464  1.6140
  752MOL0     H99264   1.129   4.365   6.219  1.6699 -0.2589 -1.2539
  753MOL0     O99265   9.644   0.281   9.954  0.5523  0.1551 -0.4574
  753MOL0     C99266   9.540   0.319  10.009  0.3159 -0.1925 -0.0641
  753MOL0     O99267   9.443   0.387   9.944 -0.4727 -0.3851 -0.3228
  753MOL0     C99268   9.464   0.434   9.821 -0.5990  0.0826 -0.6582
  753MOL0     C99269   9.443   0.368   9.691 -0.3641  0.0422 -2.0885
  753MOL0     C99270   9.493   0.424   9.581  0.9296 -0.7005  0.1678
  753MOL0     C99271   9.558   0.557   9.586 -0.4148  0.0668  1.0410
  753MOL0     O99272   9.611   0.609   9.464  0.8032 -0.2257 -0.0030
  753MOL0     C99273   9.553   0.728   9.407  0.6685  0.3430  0.3662
  753MOL0     C99274   9.421   0.689   9.338 -0.3757  0.4668 -0.7012
  753MOL0     C99275   9.423   0.648   9.195  0.3108 -0.3389 -0.5444
  753MOL0     C99276   9.292   0.636   9.130 -0.0801 -0.1729  0.3325
  753MOL0     C99277   9.318   0.562   8.996  0.7510  0.1710  0.1142
  753MOL0     C99278   9.193   0.567   8.907  0.0651  0.2161 -0.2047
  753MOL0     C99279   9.197   0.487   8.781  0.1096 -0.3372 -0.1001
  753MOL0     C99280   9.322   0.476   8.695  0.0196 -0.2069  0.9471
  753MOL0     N99281   9.348   0.589   8.607  0.8184  0.2765 -0.1802
  753MOL0     C99282   9.268   0.611   8.497  0.1126 -0.2773 -0.3323
  753MOL0     C99283   9.274   0.745   8.469 -0.6754 -0.8417  0.1041
  753MOL0     C99284   9.193   0.822   8.372  0.4557  0.1791 -0.9127
  753MOL0     C99285   9.177   0.748   8.235 -0.0607 -0.1787  0.4762
  753MOL0     C99286   9.105   0.834   8.147  0.7991 -0.5299  0.4606
  753MOL0     C99287   9.075   0.759   8.013  0.4353 -0.1797 -0.2426
  753MOL0     O99288   9.066   0.856   7.910  0.0611 -0.1590 -0.0347
  753MOL0     C99289   9.052   0.810   7.780 -0.3352  0.4304  0.8484
  753MOL0     C99290   9.077   0.681   7.731  0.5134 -0.4747 -0.1083
  753MOL0     C99291   9.078   0.671   7.590 -0.1577 -0.8757 -0.7280
  753MOL0     C99292   9.046   0.778   7.499 -0.8848  1.1469  0.2509
  753MOL0     C99293   9.063   0.749   7.354 -0.6366 -0.1356 -0.0619
  753MOL0     O99294   9.050   0.857   7.276 -0.2244  0.0755 -0.2187
  753MOL0     C99295   9.033   0.839   7.139  0.5759 -0.2404 -0.2099
  753MOL0     C99296   9.139   0.839   7.049 -0.1765 -0.6853 -0.6522
  753MOL0     C99297   9.117   0.822   6.914 -0.0076 -0.3922  0.3919
  753MOL0     C99298   8.990   0.824   6.861  0.2634  0.1609  0.8610
  753MOL0     O99299   8.960   0.829   6.731 -0.5404 -0.3536  0.5711
  753MOL0     C99300   9.048   0.758   6.635  0.4660 -0.8618  0.4734
  753MOL0     C99301   9.016   0.796   6.495  0.6051  0.6994 -0.4998
  753MOL0     C99302   9.070   0.934   6.457 -0.6150 -0.8137  0.5942
  753MOL0     C99303   9.066   0.943   6.308 -0.2380  0.5550 -0.5241
  753MOL0     C99304   9.142   1.058   6.251 -0.2638  0.6299 -0.2327
  753MOL0     C99305   9.181   1.050   6.109  0.8935 -0.6734  0.3793
  753MOL0     C99306   9.067   1.104   6.014 -0.1741  0.5047 -0.9183
  753MOL0     C99307   9.083   1.069   5.874  0.3138  0.1374  0.3539
  753MOL0    Cl99308   9.095   0.891   5.857 -0.4077 -0.4008  0.2995
  753MOL0     C99309   8.888   0.826   6.955  0.1890  0.9734  0.1104
  753MOL0     C99310   8.905   0.834   7.092  0.5980  0.2736 -0.0932
  753MOL0     O99311   9.088   0.632   7.308  0.1887 -0.2999 -0.1469
  753MOL0     C99312   9.017   0.898   7.550 -0.5949 -0.6670 -0.3296
  753MOL0     C99313   9.023   0.913   7.692  1.1824  0.0247 -0.9445
  753MOL0     N99314   9.366   0.800   8.558  0.0805  0.0144  0.2481
  753MOL0     N99315   9.406   0.712   8.642 -0.2026 -1.1371  0.0631
  753MOL0     C99316   9.581   0.614   9.706  0.4197  0.3832  0.0092
  753MOL0     C99317   9.530   0.554   9.819 -0.4326 -1.4124 -0.5704
  753MOL0     C99318   9.527   0.313  10.155  0.1758 -0.4526 -0.3853
  753MOL0     C99319   9.635   0.267  10.229 -0.2256 -1.7208 -0.5261
  753MOL0     C99320   9.640   0.267  10.372 -0.5432 -0.0146 -0.5905
  753MOL0     C99321   9.534   0.312  10.448 -0.3576  0.0782  0.3504
  753MOL0     O99322   9.515   0.311  10.584  0.3786 -0.8541 -0.2630
  753MOL0     C99323   9.624   0.260  10.668  0.4321  0.5884  0.0405
  753MOL0     C99324   9.561   0.257  10.810  1.0147 -0.0743 -0.4602
  753MOL0     C99325   9.656   0.215  10.923 -0.5500  0.9316  0.4059
  753MOL0     C99326   9.626   0.283  11.052 -0.1923  0.1366 -0.8590
  753MOL0     C99327   9.702   0.206  11.158 -1.4303  0.3434  0.5117
  753MOL0     C99328   9.755   0.147  11.244 -0.4685  1.1966 -0.1768
  753MOL0     C99329   9.422   0.361  10.372  0.3392  0.3279  0.2794
  753MOL0     C99330   9.414   0.355  10.228  0.0125  0.3986 -0.1123
  753MOL0     H99331   9.401   0.268   9.700 -2.9057  1.2036  0.6409
  753MOL0     H99332   9.493   0.365   9.489  0.6693 -2.5791  1.3206
  753MOL0     H99333   9.614   0.778   9.331  1.5606 -2.5059 -0.9062
  753MOL0     H99334   9.544   0.790   9.497  2.3230  2.2101 -0.6685
  753MOL0     H99335   9.353   0.773   9.358 -0.2949 -0.3590  4.5848
  753MOL0     H99336   9.377   0.602   9.388  2.4606  0.1099  1.3955
  753MOL0     H99337   9.476   0.552   9.191  1.4799  0.3128 -3.2079
  753MOL0     H99338   9.472   0.729   9.140 -0.3611  0.1906 -0.3704
  753MOL0     H99339   9.214   0.583   9.184 -0.7729  0.4015 -0.0759
  753MOL0     H99340   9.254   0.734   9.098 -0.1115 -0.6233 -1.0693
  753MOL0     H99341   9.346   0.458   9.016  2.3659  0.8802  1.9019
  753MOL0     H99342   9.402   0.608   8.944  0.9964 -2.4787 -2.0164
  753MOL0     H99343   9.171   0.670   8.879  2.3160  1.4873  2.2005
  753MOL0     H99344   9.109   0.529   8.965  1.2262 -1.4864  0.4455
  753MOL0     H99345   9.182   0.383   8.812  0.2606 -1.1717 -2.5538
  753MOL0     H99346   9.117   0.512   8.710 -0.7409 -2.3024  0.0905
  753MOL0     H99347   9.300   0.386   8.636  1.4074  1.3081 -2.1540
  753MOL0     H99348   9.409   0.456   8.758  0.0820 -1.6421  0.4479
  753MOL0     H99349   9.200   0.539   8.452  0.6942 -1.6213  0.8407
  753MOL0     H99350   9.242   0.916   8.347  1.4706  0.3343  1.4703
  753MOL0     H99351   9.096   0.853   8.412  0.5908  0.6418 -0.9450
  753MOL0     H99352   9.121   0.656   8.256 -0.6037  0.4956  2.1556
  753MOL0     H99353   9.281   0.726   8.208  0.3170 -2.1211  3.0772
  753MOL0     H99354   9.014   0.869   8.196  1.4979 -0.7935  2.0111
  753MOL0     H99355   9.172   0.916   8.118  2.3597 -1.9293 -0.0831
  753MOL0     H99356   8.985   0.697   8.027  0.4941  0.0131  1.1616
  753MOL0     H99357   9.152   0.683   7.994 -2.0539 -2.4099 -2.2026
  753MOL0     H99358   9.083   0.595   7.797 -2.3178 -0.0119  0.9108
  753MOL0     H99359   9.107   0.574   7.550 -3.1166 -2.5976  0.9294
  753MOL0     H99360   9.239   0.822   7.087  0.0942 -2.3720 -1.9840
  753MOL0     H99361   9.204   0.823   6.849  0.8901 -0.3064  1.5753
  753MOL0     H99362   9.034   0.650   6.636  2.4370 -1.2030 -1.5268
  753MOL0     H99363   9.157   0.767   6.646  0.5773 -0.0040 -1.0955
  753MOL0     H99364   8.910   0.794   6.469  0.2356 -1.0355  0.9356
  753MOL0     H99365   9.058   0.714   6.437 -0.6531 -1.0891  1.0041
  753MOL0     H99366   9.175   0.952   6.478 -1.2833 -0.0422  3.7900
  753MOL0     H99367   9.014   1.012   6.509 -1.7283  0.3828 -2.1773
  753MOL0     H99368   9.117   0.857   6.264 -1.4216  1.0875 -3.1268
  753MOL0     H99369   8.960   0.939   6.282 -0.0915 -1.5102 -0.9572
  753MOL0     H99370   9.233   1.075   6.309  1.3695  1.9974 -3.0078
  753MOL0     H99371   9.091   1.155   6.249  1.4733  1.5605 -1.5590
  753MOL0     H99372   9.226   0.953   6.090 -1.6407 -1.5282 -1.9006
  753MOL0     H99373   9.257   1.126   6.089  0.6109 -1.0822 -2.7585
  753MOL0     H99374   8.967   1.075   6.047  0.6731 -0.2072  1.1601
  753MOL0     H99375   9.073   1.213   6.024  1.8834  0.5241 -1.8109
  753MOL0     H99376   9.164   1.111   5.813  0.3032 -1.3049 -0.7057
  753MOL0     H99377   8.997   1.101   5.815  0.4820 -1.0064 -0.5480
  753MOL0     H99378   8.784   0.837   6.928 -0.7150 -2.4134  1.7979
  753MOL0     H99379   8.821   0.848   7.159  1.5563  1.0705  0.9622
  753MOL0     H99380   8.979   0.986   7.498  2.3846 -0.4474 -2.3812
  753MOL0     H99381   9.014   1.008   7.745  0.4634  0.0074 -1.0234
  753MOL0     H99382   9.629   0.711   9.714 -1.9955  1.5743  0.8404
  753MOL0     H99383   9.547   0.600   9.916 -3.8036 -1.0089 -0.0576
  753MOL0     H99384   9.726   0.233  10.180  1.7471 -1.1552  2.4997
  753MOL0     H99385   9.731   0.233  10.422 -1.9044 -0.1036  1.9650
  753MOL0     H99386   9.700   0.339  10.668 -1.2521  2.3397 -1.5357
  753MOL0     H99387   9.664   0.160  10.649  0.4136  0.7966 -1.2224
  753MOL0     H99388   9.531   0.361  10.825 -0.4787 -0.5337 -0.1488
  753MOL0     H99389   9.480   0.184  10.799  0.2096  0.7747 -0.2154
  753MOL0     H99390   9.748   0.267  10.894  0.3791 -2.1233 -2.7834
  753MOL0     H99391   9.662   0.107  10.937  0.3724  1.2728  3.3321
  753MOL0     H99392   9.663   0.386  11.042  1.0867 -0.0154  1.5391
  753MOL0     H99393   9.522   0.288  11.085  0.0803 -2.2335  0.5974
  753MOL0     H99394   9.800   0.115  11.336  2.1432 -0.9128 -2.0248
  753MOL0     H99395   9.331   0.375  10.431 -0.4836 -3.5701  0.2167
  753MOL0     H99396   9.321   0.393  10.187  0.8908  1.3533 -1.2829
  754MOL0     O99397   1.255   7.170   9.396  0.3098 -0.2951  0.3900
  754MOL0     C99398   1.267   7.047   9.396  0.2847  0.5157 -0.1925
  754MOL0     O99399   1.243   6.959   9.286  0.0796 -0.7959 -0.2837
  754MOL0     C99400   1.218   7.007   9.164  0.0552 -0.4429  0.2836
  754MOL0     C99401   1.292   7.104   9.094  0.3053  0.0127  0.7833
  754MOL0     C99402   1.266   7.118   8.954 -0.5764 -0.2960 -1.3682
  754MOL0     C99403   1.170   7.042   8.888  0.0473 -1.1101 -0.0647
  754MOL0     O99404   1.145   7.069   8.750 -0.6448 -0.1025 -1.0760
  754MOL0     C99405   1.086   7.198   8.732 -0.5137 -0.1493 -0.0761
  754MOL0     C99406   1.165   7.274   8.613 -0.0557 -0.4255 -0.6003
  754MOL0     C99407   1.284   7.344   8.650  0.3540  0.5497 -0.3362
  754MOL0     C99408   1.349   7.406   8.528  1.0659 -0.1605 -0.2310
  754MOL0     C99409   1.417   7.536   8.578 -0.1532  0.4824 -0.0687
  754MOL0     C99410   1.321   7.656   8.594  0.0273 -0.4498 -0.1908
  754MOL0     C99411   1.321   7.721   8.448  0.4855 -1.3419  0.0268
  754MOL0     C99412   1.234   7.848   8.461  0.0611  0.6850  1.1275
  754MOL0     N99413   1.223   7.905   8.327 -0.9678 -0.5391  0.0334
  754MOL0     C99414   1.328   7.967   8.260  0.4205  0.7971 -0.1582
  754MOL0     C99415   1.278   8.001   8.139 -0.9549 -0.2407 -0.4436
  754MOL0     C99416   1.358   8.070   8.033 -0.0791  0.2102  0.1398
  754MOL0     C99417   1.357   8.221   8.040  0.6126  0.6765 -0.1120
  754MOL0     C99418   1.445   8.281   7.925  0.5403  0.2030  0.1227
  754MOL0     C99419   1.368   8.286   7.787 -0.6457  0.5324 -0.5163
  754MOL0     O99420   1.264   8.376   7.799 -0.3052  0.6538 -1.0291
  754MOL0     C99421   1.173   8.363   7.707  1.4013 -0.1534  0.2979
  754MOL0     C99422   1.200   8.408   7.573 -0.9733  0.9021  0.6719
  754MOL0     C99423   1.097   8.400   7.482  1.2060 -0.8933 -0.0546
  754MOL0     C99424   0.969   8.359   7.516  0.2018 -0.1116  0.1288
  754MOL0     C99425   0.858   8.364   7.420 -0.1232  0.6009 -0.3921
  754MOL0     O99426   0.738   8.326   7.460 -1.0619 -0.1825  0.5094
  754MOL0     C99427   0.631   8.363   7.380 -0.1356  0.4041  0.5057
  754MOL0     C99428   0.575   8.268   7.298 -0.5601 -0.4377  0.1416
  754MOL0     C99429   0.460   8.299   7.217  0.1479 -0.0809 -0.8863
  754MOL0     C99430   0.399   8.422   7.229 -1.8760 -0.4205 -0.7231
  754MOL0     O99431   0.291   8.464   7.159 -0.7314 -0.5096 -0.9301
  754MOL0     C99432   0.194   8.363   7.123  0.1291  1.0412 -0.5254
  754MOL0     C99433   0.066   8.415   7.057 -0.0329 -0.1580  0.1729
  754MOL0     C99434   0.101   8.471   6.915 -0.3705 -0.6467  0.5104
  754MOL0     C99435  -0.034   8.471   6.844  0.2604  0.1968  0.0846
  754MOL0     C99436  -0.006   8.480   6.698  0.0876 -0.6394  0.6875
  754MOL0     C99437  -0.131   8.473   6.606 -0.2513 -0.8192 -0.1974
  754MOL0     C99438  -0.094   8.535   6.471  0.5152 -0.9512 -0.4505
  754MOL0     C99439  -0.192   8.488   6.370 -1.0468 -0.0547  1.3971
  754MOL0    Cl99440  -0.183   8.305   6.340 -0.2937 -0.5174  0.2646
  754MOL0     C99441   0.456   8.526   7.316 -0.6652 -0.0901  0.0093
  754MOL0     C99442   0.566   8.487   7.401 -0.5234 -0.6926 -0.7882
  754MOL0     O99443   0.881   8.388   7.311 -0.1541  0.6898 -0.5391
  754MOL0     C99444   0.944   8.322   7.649 -0.8315  0.7031  0.5791
  754MOL0     C99445   1.046   8.312   7.743  1.0088 -1.1375  0.4549
  754MOL0     N99446   1.143   7.962   8.138  0.6014 -0.3162  0.3800
  754MOL0     N99447   1.116   7.897   8.243 -0.7729  0.1763  0.1155
  754MOL0     C99448   1.091   6.957   8.957 -0.3249  1.1026  0.4216
  754MOL0     C99449   1.108   6.946   9.095 -0.4820  0.3404  0.7068
  754MOL0     C99450   1.318   6.979   9.523 -0.3848 -0.2311  0.8003
  754MOL0     C99451   1.373   7.063   9.619  0.0536 -0.2748  1.1396
  754MOL0     C99452   1.396   7.016   9.749 -0.4654 -0.2349  0.2742
  754MOL0     C99453   1.382   6.884   9.780 -0.4247  0.3126 -0.4323
  754MOL0     O99454   1.398   6.821   9.905 -0.3236 -0.9781 -0.4508
  754MOL0     C99455   1.523   6.755   9.919  0.8166  1.1136 -0.3273
  754MOL0     C99456   1.613   6.794  10.044 -0.1207  0.5748  0.4298
  754MOL0     C99457   1.647   6.677  10.136  0.1014 -0.6344 -0.3510
  754MOL0     C99458   1.533   6.621  10.220  0.0774 -0.9888 -0.1359
  754MOL0     C99459   1.499   6.700  10.339 -0.1916 -0.1844 -0.0792
  754MOL0     C99460   1.441   6.752  10.437  0.0571 -0.4694  0.0865
  754MOL0     C99461   1.345   6.803   9.674 -0.3335  0.0672 -0.5162
  754MOL0     C99462   1.310   6.844   9.549 -0.1165  0.1453 -0.0226
  754MOL0     H99463   1.378   7.149   9.142  1.8168 -1.1936 -0.6726
  754MOL0     H99464   1.342   7.183   8.913  1.6564 -1.0283  1.2609
  754MOL0     H99465   1.096   7.264   8.819  0.3157 -0.1648 -0.1533
  754MOL0     H99466   0.979   7.187   8.709 -0.3699 -1.3822 -0.2039
  754MOL0     H99467   1.102   7.353   8.571  1.4108  0.3973 -1.3197
  754MOL0     H99468   1.193   7.207   8.532  3.7697  1.2412 -0.8461
  754MOL0     H99469   1.361   7.277   8.687  0.4452  0.6426 -0.3576
  754MOL0     H99470   1.262   7.421   8.725  3.0774  0.1948  0.9458
  754MOL0     H99471   1.427   7.343   8.484 -0.6941 -2.5229 -0.1579
  754MOL0     H99472   1.287   7.424   8.440  3.9330  0.0631 -2.3392
  754MOL0     H99473   1.501   7.567   8.516  0.0325  0.1133 -0.0031
  754MOL0     H99474   1.456   7.503   8.674 -0.9592  0.3646  0.2276
  754MOL0     H99475   1.361   7.722   8.672 -2.6571  1.6604 -0.4327
  754MOL0     H99476   1.225   7.612   8.622  0.7145 -1.1912  1.0737
  754MOL0     H99477   1.420   7.754   8.417  0.3224  1.1266  1.8864
  754MOL0     H99478   1.282   7.654   8.370 -0.5926  0.6757 -1.2784
  754MOL0     H99479   1.302   7.910   8.520  3.2084 -1.4280  0.0013
  754MOL0     H99480   1.134   7.844   8.506 -0.8909  1.8125 -0.7474
  754MOL0     H99481   1.427   7.984   8.300 -1.2513  1.3236  4.4136
  754MOL0     H99482   1.323   8.034   7.936 -1.4140  1.9044 -0.0657
  754MOL0     H99483   1.461   8.036   8.046 -0.9941 -2.2548  1.6502
  754MOL0     H99484   1.397   8.250   8.138  6.3269 -1.1022 -1.5171
  754MOL0     H99485   1.260   8.273   8.042 -0.1526 -0.6759 -0.8206
  754MOL0     H99486   1.479   8.381   7.954  5.5573 -1.2481  0.1502
  754MOL0     H99487   1.531   8.223   7.892  0.6169  0.3846  0.0009
  754MOL0     H99488   1.336   8.183   7.769 -0.2350  0.2837  0.1360
  754MOL0     H99489   1.434   8.328   7.710 -0.6967 -1.9283 -2.0164
  754MOL0     H99490   1.299   8.420   7.532 -1.6284  1.4139 -0.8133
  754MOL0     H99491   1.125   8.433   7.383  0.9614 -0.8025 -0.0944
  754MOL0     H99492   0.621   8.171   7.286 -0.9689 -0.4150 -2.0923
  754MOL0     H99493   0.410   8.227   7.153  0.1161  0.2830 -1.2748
  754MOL0     H99494   0.163   8.318   7.218  1.8830  2.2546  0.6607
  754MOL0     H99495   0.232   8.286   7.055 -0.6080  1.8683 -1.9141
  754MOL0     H99496   0.018   8.496   7.112 -1.2478 -1.5673  1.3022
  754MOL0     H99497   0.001   8.327   7.055 -0.9225  0.4513  1.3765
  754MOL0     H99498   0.171   8.405   6.864  1.5485  1.4094  0.3267
  754MOL0     H99499   0.160   8.563   6.913  0.7575 -1.3066 -3.1337
  754MOL0     H99500  -0.094   8.382   6.864  0.1531  0.5695  1.5248
  754MOL0     H99501  -0.088   8.561   6.875 -1.3008 -0.9219  0.7482
  754MOL0     H99502   0.069   8.404   6.674 -1.3440 -2.1553  0.8185
  754MOL0     H99503   0.034   8.582   6.689  0.4822 -0.6708  2.0033
  754MOL0     H99504  -0.208   8.527   6.662  0.0111 -3.4025  2.9185
  754MOL0     H99505  -0.161   8.368   6.602  1.0871 -1.5054  3.6204
  754MOL0     H99506  -0.094   8.643   6.459  0.1802 -0.5469  2.5318
  754MOL0     H99507   0.005   8.499   6.440  0.8736 -1.2769  1.0145
  754MOL0     H99508  -0.160   8.536   6.277  0.7114 -2.8065  0.4524
  754MOL0     H99509  -0.290   8.532   6.392 -0.8718  1.0528  0.1212
  754MOL0     H99510   0.415   8.625   7.330  1.3918  1.6665 -4.4059
  754MOL0     H99511   0.609   8.560   7.469  2.1393 -2.1553 -0.7401
  754MOL0     H99512   0.845   8.284   7.673  0.0017 -1.5905  0.6023
  754MOL0     H99513   1.024   8.289   7.846 -4.9187  1.3485  0.1388
  754MOL0     H99514   1.016   6.905   8.898  3.7589 -0.8646 -3.6472
  754MOL0     H99515   1.036   6.875   9.133 -2.8174  0.6939 -2.5633
  754MOL0     H99516   1.378   7.169   9.598 -2.3171 -0.2235  0.4946
  754MOL0     H99517   1.421   7.075   9.836  1.2351 -0.8919  0.2780
  754MOL0     H99518   1.589   6.768   9.833  0.3033 -1.4202 -1.1972
  754MOL0     H99519   1.510   6.646   9.912  0.8248  1.0762  0.1750
  754MOL0     H99520   1.705   6.834  10.000 -1.8693  4.3134 -0.1898
  754MOL0     H99521   1.562   6.873  10.099  2.7781  2.0602  1.2116
  754MOL0     H99522   1.735   6.706  10.195  0.6123 -4.2188  0.8712
  754MOL0     H99523   1.671   6.596  10.068  0.6089 -0.5627 -0.2627
  754MOL0     H99524   1.444   6.611  10.158 -1.3395 -1.6720  1.8967
  754MOL0     H99525   1.560   6.520  10.251  0.3267 -0.5430  1.2086
  754MOL0     H99526   1.406   6.795  10.528  0.9546  0.7903 -0.1438
  754MOL0     H99527   1.344   6.697   9.697  3.8390  0.3879  2.3148
  754MOL0     H99528   1.258   6.781   9.478  2.7118 -3.4646  0.8060
  755MOL0     O99529   0.419   3.726   6.177  0.2004 -0.1871  0.5974
  755MOL0     C99530   0.466   3.701   6.065  0.8369 -0.7308 -0.5314
  755MOL0     O99531   0.501   3.584   6.019  0.1384  0.1802 -0.5057
  755MOL0     C99532   0.483   3.474   6.096  0.0726 -0.0620 -0.1425
  755MOL0     C99533   0.362   3.407   6.066 -1.2376 -1.6873 -0.4244
  755MOL0     C99534   0.341   3.284   6.132  0.1108  0.0540 -0.8093
  755MOL0     C99535   0.417   3.239   6.239 -0.4868  0.5312 -0.1625
  755MOL0     O99536   0.391   3.116   6.289  0.3842  0.2654 -0.2476
  755MOL0     C99537   0.476   3.056   6.389  0.2762 -0.7631 -0.3592
  755MOL0     C99538   0.410   2.934   6.446  0.1804 -0.3103  0.5243
  755MOL0     C99539   0.499   2.883   6.556 -0.2172  0.7166  0.0643
  755MOL0     C99540   0.441   2.757   6.606  0.5648  0.2056 -0.7605
  755MOL0     C99541   0.490   2.716   6.743 -0.5735  0.2814 -1.3667
  755MOL0     C99542   0.478   2.841   6.843  0.3183 -0.7368  0.6883
  755MOL0     C99543   0.501   2.795   6.986  0.0167 -0.1897 -0.7830
  755MOL0     C99544   0.494   2.923   7.077 -0.9112 -0.2619 -0.3547
  755MOL0     N99545   0.529   2.891   7.221 -0.8062  0.5082 -0.6164
  755MOL0     C99546   0.498   2.775   7.285  0.2763  0.9456 -0.3133
  755MOL0     C99547   0.537   2.788   7.412 -0.2000 -0.9650  0.0050
  755MOL0     C99548   0.500   2.709   7.534 -0.6340 -0.1510  0.5357
  755MOL0     C99549   0.590   2.578   7.528 -0.3267 -0.6082 -0.5313
  755MOL0     C99550   0.573   2.500   7.663  0.1953 -0.8770  0.4224
  755MOL0     C99551   0.680   2.381   7.660 -0.3225  1.0472 -0.4072
  755MOL0     O99552   0.812   2.420   7.614  0.2541  0.5268 -0.0792
  755MOL0     C99553   0.920   2.341   7.612 -0.7526  0.9119  0.0629
  755MOL0     C99554   1.031   2.390   7.559  0.6953 -0.2352  0.0491
  755MOL0     C99555   1.155   2.323   7.568  0.4471  0.1956 -0.0382
  755MOL0     C99556   1.150   2.183   7.605 -0.6555 -0.0787  0.2364
  755MOL0     C99557   1.277   2.103   7.591  0.1778 -0.1238 -0.6328
  755MOL0     O99558   1.272   1.965   7.605  0.0198 -0.5101  0.4916
  755MOL0     C99559   1.393   1.906   7.607  0.3152 -0.8112  1.0560
  755MOL0     C99560   1.481   1.928   7.713  0.7473  0.3657  0.8727
  755MOL0     C99561   1.602   1.878   7.714 -1.0547  0.0564 -0.0406
  755MOL0     C99562   1.652   1.800   7.598  0.1185  0.0862 -0.6162
  755MOL0     O99563   1.780   1.750   7.594  0.7570  0.4533 -0.3693
  755MOL0     C99564   1.884   1.839   7.640  0.0607  0.9034  0.1612
  755MOL0     C99565   1.915   1.796   7.782  0.0727  0.5201 -0.0932
  755MOL0     C99566   1.919   1.642   7.806  0.1193 -0.2981  0.3907
  755MOL0     C99567   1.970   1.619   7.950  0.5513 -0.2420  0.2649
  755MOL0     C99568   2.009   1.485   7.977 -0.7020  1.1339  0.4498
  755MOL0     C99569   1.895   1.372   7.937  0.9238 -0.4481 -0.3874
  755MOL0     C99570   1.918   1.240   8.019 -0.5708 -0.7990 -0.1888
  755MOL0     C99571   2.058   1.193   8.071 -0.1073 -0.4202 -0.0669
  755MOL0    Cl99572   2.032   1.085   8.209  0.1696 -0.3771 -0.6459
  755MOL0     C99573   1.562   1.776   7.497 -0.7016 -0.1102 -0.6976
  755MOL0     C99574   1.428   1.821   7.499  0.5965  0.8358 -0.3870
  755MOL0     O99575   1.372   2.178   7.558 -0.4171 -0.0476 -0.5500
  755MOL0     C99576   1.027   2.125   7.648  0.5092 -0.5153  0.8834
  755MOL0     C99577   0.912   2.208   7.656 -1.2007 -0.2077  0.1749
  755MOL0     N99578   0.597   2.914   7.414  0.0919  0.5020  0.4718
  755MOL0     N99579   0.594   2.973   7.305  0.3075 -0.5516 -0.1027
  755MOL0     C99580   0.532   3.314   6.273 -0.2136 -0.1531 -0.4956
  755MOL0     C99581   0.569   3.423   6.190 -0.2691  0.0168 -1.1069
  755MOL0     C99582   0.486   3.818   5.971  0.1098  1.1260 -0.9479
  755MOL0     C99583   0.558   3.798   5.847 -0.3223 -0.1864 -0.1976
  755MOL0     C99584   0.594   3.908   5.776 -0.3592 -0.4549  0.0141
  755MOL0     C99585   0.550   4.045   5.807  0.0708  0.4342  0.8950
  755MOL0     O99586   0.578   4.150   5.720 -0.3511  0.7569 -1.0416
  755MOL0     C99587   0.516   4.276   5.731 -0.2372 -0.5646  1.3173
  755MOL0     C99588   0.543   4.354   5.602  0.5136  0.4783  1.1579
  755MOL0     C99589   0.465   4.483   5.603  1.2124 -0.2022  0.3635
  755MOL0     C99590   0.527   4.570   5.497 -0.6267 -0.0647 -0.1767
  755MOL0     C99591   0.512   4.712   5.523 -0.3436 -0.1459  0.4138
  755MOL0     C99592   0.492   4.828   5.546 -0.2355  0.0957 -0.0256
  755MOL0     C99593   0.473   4.049   5.924  0.4290 -0.5834  0.1200
  755MOL0     C99594   0.439   3.936   6.007  0.6513 -0.2438  0.7078
  755MOL0     H99595   0.293   3.438   5.988  0.8950 -2.8705 -2.9186
  755MOL0     H99596   0.247   3.230   6.121  1.3936 -2.4992 -0.1566
  755MOL0     H99597   0.506   3.119   6.472  0.5070 -1.8720  0.4259
  755MOL0     H99598   0.571   3.026   6.343  0.8800 -0.4547  0.6691
  755MOL0     H99599   0.393   2.862   6.365 -0.3260 -0.3307  0.6480
  755MOL0     H99600   0.312   2.960   6.487  0.7200  1.9845  0.5119
  755MOL0     H99601   0.517   2.963   6.629  3.4640  2.2909 -2.2726
  755MOL0     H99602   0.599   2.874   6.513 -0.8908  0.8828 -1.5939
  755MOL0     H99603   0.334   2.781   6.612  0.7303  0.7658  0.0154
  755MOL0     H99604   0.455   2.678   6.531  1.5409 -0.0908 -0.2789
  755MOL0     H99605   0.587   2.667   6.748 -1.9934 -2.6895  2.0389
  755MOL0     H99606   0.420   2.634   6.763  0.5478 -0.6286 -1.0781
  755MOL0     H99607   0.375   2.875   6.826 -0.0334 -2.6983 -1.5595
  755MOL0     H99608   0.559   2.912   6.825  0.6950 -0.1108  4.1027
  755MOL0     H99609   0.427   2.726   7.026  0.7156 -0.9562 -0.7872
  755MOL0     H99610   0.599   2.748   6.996 -0.1938 -0.3159  0.8703
  755MOL0     H99611   0.385   2.927   7.086 -1.1285 -4.1524  0.5660
  755MOL0     H99612   0.543   3.007   7.028  0.4639 -1.6176 -1.3953
  755MOL0     H99613   0.433   2.698   7.245  2.2584 -0.0425 -1.8672
  755MOL0     H99614   0.398   2.675   7.557 -0.7404  1.1823  2.2486
  755MOL0     H99615   0.522   2.769   7.622 -3.3794 -1.1168  2.0005
  755MOL0     H99616   0.695   2.606   7.513 -0.2984  0.7451  1.8367
  755MOL0     H99617   0.549   2.511   7.451 -0.3073 -1.7651  0.4311
  755MOL0     H99618   0.592   2.565   7.749 -0.1304 -2.4827  1.7587
  755MOL0     H99619   0.473   2.457   7.661  0.5469 -1.7436  0.8273
  755MOL0     H99620   0.630   2.306   7.598 -4.3877  1.4673  2.0061
  755MOL0     H99621   0.688   2.333   7.758  0.0226  3.1073  0.6373
  755MOL0     H99622   1.040   2.492   7.526 -0.9989  0.4250  1.4545
  755MOL0     H99623   1.246   2.371   7.531 -0.3925  1.3653 -0.6400
  755MOL0     H99624   1.442   1.981   7.799 -1.7690 -0.9203  0.6250
  755MOL0     H99625   1.661   1.899   7.803 -0.8432  0.3507 -0.2484
  755MOL0     H99626   1.863   1.946   7.624  1.0791  0.9122 -1.2411
  755MOL0     H99627   1.975   1.836   7.580  1.1759 -0.2856  1.8243
  755MOL0     H99628   1.838   1.833   7.851  0.9930  0.6139  0.9114
  755MOL0     H99629   2.011   1.839   7.811  0.8696 -0.8384 -0.6365
  755MOL0     H99630   2.003   1.610   7.744  1.4610  1.3241  1.2703
  755MOL0     H99631   1.828   1.583   7.794  1.8462 -3.0017 -0.1143
  755MOL0     H99632   2.048   1.692   7.973  2.1428 -1.6011 -0.5937
  755MOL0     H99633   1.881   1.643   8.008 -0.2283 -1.0406 -0.5679
  755MOL0     H99634   2.030   1.476   8.084  0.8944 -1.2608  0.0205
  755MOL0     H99635   2.109   1.461   7.938 -0.5353 -2.4436  2.6494
  755MOL0     H99636   1.909   1.351   7.831 -1.3634 -0.3010 -0.7636
  755MOL0     H99637   1.794   1.413   7.947 -0.5765 -3.7717 -0.5778
  755MOL0     H99638   1.863   1.266   8.110  0.4145  3.4059 -0.5614
  755MOL0     H99639   1.875   1.148   7.979 -1.7846 -0.5471  0.5035
  755MOL0     H99640   2.124   1.263   8.125  0.8734 -1.2338 -0.1889
  755MOL0     H99641   2.114   1.143   7.992 -0.6944 -2.2792  0.6564
  755MOL0     H99642   1.592   1.725   7.406 -3.5063 -1.2451 -1.0911
  755MOL0     H99643   1.365   1.784   7.418 -1.8724  0.9339  1.3805
  755MOL0     H99644   1.012   2.019   7.664  2.2538 -1.2957 -1.9693
  755MOL0     H99645   0.819   2.166   7.692 -1.6121  0.2660 -0.3129
  755MOL0     H99646   0.600   3.279   6.350 -0.2698  2.5107  0.9020
  755MOL0     H99647   0.666   3.469   6.205  0.1085 -0.6549 -1.4410
  755MOL0     H99648   0.609   3.706   5.820  0.6113  0.2094  0.1860
  755MOL0     H99649   0.665   3.901   5.694 -1.4412  3.2149 -1.4449
  755MOL0     H99650   0.552   4.326   5.822 -2.8184  1.0711  1.5484
  755MOL0     H99651   0.408   4.261   5.739 -0.8993 -0.6847 -4.1270
  755MOL0     H99652   0.651   4.355   5.585  0.2873 -1.9628 -1.0869
  755MOL0     H99653   0.504   4.292   5.521 -1.4334 -1.1123  3.1753
  755MOL0     H99654   0.477   4.543   5.694 -1.0092  2.0403 -0.6901
  755MOL0     H99655   0.359   4.468   5.580  0.5552  4.8815 -1.1866
  755MOL0     H99656   0.636   4.563   5.493 -0.5916  0.7487 -1.0448
  755MOL0     H99657   0.495   4.546   5.395  0.6983  0.2735 -0.6839
  755MOL0     H99658   0.480   4.931   5.573  2.6618  0.0730  1.7900
  755MOL0     H99659   0.438   4.146   5.957  4.7426  1.8017 -1.5493
  755MOL0     H99660   0.376   3.942   6.095  2.1114 -0.6466  1.8201
  756MOL0     O99661   1.896   4.802   5.237  0.2050  0.2972  0.1960
  756MOL0     C99662   1.832   4.904   5.262  0.8514  0.2047  0.5585
  756MOL0     O99663   1.699   4.914   5.277  0.6692  0.4338  0.2478
  756MOL0     C99664   1.635   4.793   5.271  0.0047 -0.0005 -0.4033
  756MOL0     C99665   1.614   4.728   5.392  0.5375  0.0362 -0.7327
  756MOL0     C99666   1.542   4.606   5.393 -0.7750 -0.0161 -0.3071
  756MOL0     C99667   1.500   4.539   5.275  0.8152  0.1413 -0.3831
  756MOL0     O99668   1.447   4.417   5.294  0.4026 -0.7949  0.4570
  756MOL0     C99669   1.369   4.361   5.181 -0.9125  0.8353 -0.6452
  756MOL0     C99670   1.295   4.237   5.244  1.1374  0.4280 -1.1131
  756MOL0     C99671   1.201   4.170   5.146  0.0271 -0.2042  0.2284
  756MOL0     C99672   1.137   4.049   5.198  0.5124  1.0876 -0.2437
  756MOL0     C99673   1.071   4.058   5.339  0.7373 -0.5971 -0.5109
  756MOL0     C99674   0.944   4.141   5.313  0.7851 -0.1328 -0.8572
  756MOL0     C99675   0.872   4.161   5.455 -0.1904  0.8031 -0.6177
  756MOL0     C99676   0.952   4.264   5.548 -0.6757  0.1825  0.3624
  756MOL0     N99677   0.979   4.198   5.677  0.3981  0.1293 -0.8010
  756MOL0     C99678   0.891   4.217   5.787  0.5449  0.9109  0.4024
  756MOL0     C99679   0.937   4.125   5.875 -0.8797 -0.2828 -1.6033
  756MOL0     C99680   0.890   4.094   6.020  0.0543  0.4211 -0.4176
  756MOL0     C99681   0.833   3.946   6.020 -0.5475  0.3335 -0.3493
  756MOL0     C99682   0.875   3.869   6.148 -0.4338 -0.4846 -0.5638
  756MOL0     C99683   0.818   3.924   6.275 -0.1744  0.0079 -0.5837
  756MOL0     O99684   0.866   3.832   6.376 -0.3820  0.1749 -0.4235
  756MOL0     C99685   0.857   3.874   6.504  0.5034 -0.0599 -0.8877
  756MOL0     C99686   0.763   3.969   6.558  0.0703  0.9854  0.9871
  756MOL0     C99687   0.760   3.994   6.691  0.6919 -0.7921  0.1477
  756MOL0     C99688   0.848   3.925   6.783 -0.5458  0.7533 -0.4980
  756MOL0     C99689   0.842   3.958   6.925  0.2102  0.3563  0.5257
  756MOL0     O99690   0.781   4.078   6.950  0.0044  0.4686  0.4128
  756MOL0     C99691   0.770   4.120   7.076  0.6847  0.0670 -0.1543
  756MOL0     C99692   0.860   4.214   7.123 -0.8786  0.8461  0.0939
  756MOL0     C99693   0.859   4.273   7.250  0.2362 -0.2283  0.1955
  756MOL0     C99694   0.773   4.219   7.351 -0.1446 -0.5545  0.6736
  756MOL0     O99695   0.779   4.270   7.482  0.4132  0.2340  0.9073
  756MOL0     C99696   0.656   4.274   7.560 -0.0288  0.4621 -0.1947
  756MOL0     C99697   0.680   4.286   7.718  1.5287 -1.0616  0.2754
  756MOL0     C99698   0.684   4.433   7.767 -0.8366  0.4436  0.4678
  756MOL0     C99699   0.812   4.512   7.705  0.4154  0.5560  0.5060
  756MOL0     C99700   0.796   4.659   7.728  0.4801 -0.4069  0.5331
  756MOL0     C99701   0.915   4.749   7.671  0.7363  0.4175 -0.1057
  756MOL0     C99702   1.049   4.725   7.750  0.0708 -0.5341  0.6734
  756MOL0     C99703   1.162   4.796   7.675 -0.0383  0.6308 -0.7327
  756MOL0    Cl99704   1.185   4.728   7.514  0.4167  0.2256  0.3385
  756MOL0     C99705   0.679   4.121   7.301  0.4131  0.4780  0.3641
  756MOL0     C99706   0.667   4.083   7.170  0.1679 -1.1202  1.2684
  756MOL0     O99707   0.896   3.879   7.006  0.0777  0.1088  0.3931
  756MOL0     C99708   0.936   3.831   6.724 -0.1583  0.1649  0.3581
  756MOL0     C99709   0.943   3.808   6.586 -0.4208  0.0761  0.3769
  756MOL0     N99710   1.059   4.069   5.823  1.0857 -0.1888  0.3158
  756MOL0     N99711   1.082   4.113   5.704  0.4996  0.8700 -0.2864
  756MOL0     C99712   1.534   4.608   5.156  0.5269  0.6645 -0.4691
  756MOL0     C99713   1.593   4.731   5.157 -1.2083 -1.1377 -0.5476
  756MOL0     C99714   1.896   5.041   5.269  0.2476 -0.0160 -0.2043
  756MOL0     C99715   2.032   5.058   5.242  0.8626  0.3322 -0.2448
  756MOL0     C99716   2.094   5.182   5.247  0.6157 -0.0183 -0.4801
  756MOL0     C99717   2.019   5.300   5.275  1.2418  0.3887 -0.7159
  756MOL0     O99718   2.080   5.417   5.293  0.0230 -0.2624 -0.1759
  756MOL0     C99719   2.192   5.411   5.380 -0.7514 -0.3209 -0.1790
  756MOL0     C99720   2.210   5.550   5.443  0.0967 -0.0435 -0.0460
  756MOL0     C99721   2.297   5.635   5.346 -0.2890 -0.5089  0.6474
  756MOL0     C99722   2.215   5.674   5.227 -0.6767 -0.9284 -0.1455
  756MOL0     C99723   2.105   5.760   5.264 -0.2562 -1.1952 -0.0128
  756MOL0     C99724   2.012   5.826   5.301 -0.1353 -0.2016 -0.4914
  756MOL0     C99725   1.880   5.279   5.293  1.2540  0.6495  0.4373
  756MOL0     C99726   1.822   5.159   5.297  0.0579  0.7045 -0.4216
  756MOL0     H99727   1.654   4.771   5.482  0.6348  0.8962 -1.1752
  756MOL0     H99728   1.508   4.568   5.489  1.2515  0.2520  0.5584
  756MOL0     H99729   1.438   4.318   5.107 -0.8164  0.4609 -0.3387
  756MOL0     H99730   1.301   4.431   5.132 -3.6010 -1.9956 -1.2198
  756MOL0     H99731   1.241   4.259   5.337  4.1313 -0.3002  0.9413
  756MOL0     H99732   1.370   4.175   5.293 -0.9650 -1.0131  0.4720
  756MOL0     H99733   1.261   4.148   5.057 -3.1463  1.5177 -2.5723
  756MOL0     H99734   1.138   4.254   5.119  1.0147  0.1864 -0.9697
  756MOL0     H99735   1.070   4.010   5.121  1.5192 -1.7913  0.1959
  756MOL0     H99736   1.216   3.973   5.199  1.2750  1.8407 -1.4178
  756MOL0     H99737   1.144   4.095   5.411  0.0704 -0.3586  0.0541
  756MOL0     H99738   1.034   3.962   5.374 -2.5322  0.9287  0.5874
  756MOL0     H99739   0.887   4.088   5.236  3.5262  0.2578 -3.3056
  756MOL0     H99740   0.983   4.235   5.274  1.6462 -0.6580 -1.2997
  756MOL0     H99741   0.767   4.189   5.441 -0.9616 -2.4874 -2.5704
  756MOL0     H99742   0.866   4.067   5.511  1.1593  0.8353 -0.3827
  756MOL0     H99743   0.901   4.360   5.563 -0.6152  0.3714 -0.5848
  756MOL0     H99744   1.047   4.282   5.497 -1.0827  0.7973 -0.1983
  756MOL0     H99745   0.800   4.275   5.797  1.3465  2.9914 -2.7483
  756MOL0     H99746   0.807   4.160   6.046  2.2159  2.9979  0.3569
  756MOL0     H99747   0.963   4.127   6.094 -0.7175 -1.1657  1.1526
  756MOL0     H99748   0.873   3.887   5.937 -1.5141  0.2910 -0.7996
  756MOL0     H99749   0.724   3.953   6.014 -0.4974  1.3730 -0.1706
  756MOL0     H99750   0.844   3.765   6.137 -0.0981 -0.3155 -3.9989
  756MOL0     H99751   0.983   3.888   6.157 -1.0534  4.3879 -0.6934
  756MOL0     H99752   0.710   3.907   6.270 -0.1818 -1.1159  1.9564
  756MOL0     H99753   0.847   4.026   6.299  0.2731  0.1320 -1.5875
  756MOL0     H99754   0.694   4.008   6.483  0.8691 -1.2118 -1.0124
  756MOL0     H99755   0.680   4.053   6.734  1.2109  2.5132 -2.9534
  756MOL0     H99756   0.942   4.248   7.061 -0.9761 -0.5762 -0.8858
  756MOL0     H99757   0.936   4.348   7.269  1.8425 -1.2500 -1.8182
  756MOL0     H99758   0.594   4.187   7.539 -0.9260  0.6028  1.6086
  756MOL0     H99759   0.595   4.359   7.530 -3.0440 -2.1278 -1.9555
  756MOL0     H99760   0.779   4.240   7.725  2.8012  1.0719 -1.8022
  756MOL0     H99761   0.589   4.243   7.759  0.5986 -0.7842 -1.4000
  756MOL0     H99762   0.696   4.446   7.875 -0.2165 -0.9936  0.5895
  756MOL0     H99763   0.589   4.483   7.745 -1.0071  0.5293  1.3467
  756MOL0     H99764   0.905   4.469   7.745 -1.1053 -0.7027  2.9163
  756MOL0     H99765   0.811   4.486   7.598 -0.2615 -2.9635  1.2458
  756MOL0     H99766   0.787   4.681   7.835 -2.5512  1.3198  0.0472
  756MOL0     H99767   0.700   4.704   7.700  0.0404 -0.4038  1.9679
  756MOL0     H99768   0.889   4.855   7.677 -2.3814 -0.0894 -2.2292
  756MOL0     H99769   0.937   4.737   7.565 -2.6333 -0.5633 -0.8127
  756MOL0     H99770   1.046   4.757   7.855  0.8498 -1.5292  1.0098
  756MOL0     H99771   1.065   4.618   7.744  0.3925 -0.3862 -1.7322
  756MOL0     H99772   1.260   4.788   7.722 -1.2552 -1.9653  1.6259
  756MOL0     H99773   1.130   4.900   7.659 -2.1521 -0.1488 -2.0556
  756MOL0     H99774   0.602   4.087   7.370  0.4822  3.0485  1.8323
  756MOL0     H99775   0.581   4.027   7.132  1.2730 -1.4494 -0.8890
  756MOL0     H99776   1.010   3.786   6.789  1.3828  5.2990  2.6561
  756MOL0     H99777   0.999   3.722   6.551  1.0391 -0.1314  2.9352
  756MOL0     H99778   1.511   4.567   5.058  5.7874 -0.3507 -1.5841
  756MOL0     H99779   1.619   4.776   5.063 -2.4076  0.6326 -0.0807
  756MOL0     H99780   2.092   4.970   5.222  2.7549  1.7115 -0.8464
  756MOL0     H99781   2.200   5.189   5.221  0.3070  1.0135 -1.5755
  756MOL0     H99782   2.271   5.381   5.311  1.4321  2.8568  0.6926
  756MOL0     H99783   2.180   5.335   5.458 -0.3394 -1.6070 -1.3208
  756MOL0     H99784   2.117   5.600   5.473  1.1602  0.3638  2.9053
  756MOL0     H99785   2.275   5.531   5.528 -0.8965  0.3732  0.8220
  756MOL0     H99786   2.377   5.578   5.299 -1.0304  0.1599 -1.5435
  756MOL0     H99787   2.329   5.729   5.393 -0.7041 -0.4169  0.7508
  756MOL0     H99788   2.282   5.727   5.158  0.4433 -2.5144 -0.3128
  756MOL0     H99789   2.192   5.582   5.172  0.4238 -1.3762  0.1327
  756MOL0     H99790   1.934   5.882   5.347 -0.6752 -0.4790 -1.0682
  756MOL0     H99791   1.829   5.375   5.300  0.1223  0.5554 -3.9034
  756MOL0     H99792   1.713   5.161   5.305  0.0936  1.1211  0.0043
  757MOL0     O99793   1.924   2.663   5.537  0.2575 -0.1156  0.2949
  757MOL0     C99794   1.895   2.613   5.428 -0.4672  0.0308 -0.3791
  757MOL0     O99795   1.970   2.605   5.314 -1.3062 -0.6029  0.1790
  757MOL0     C99796   2.048   2.713   5.281 -0.1149  0.7998 -0.1478
  757MOL0     C99797   2.089   2.825   5.355  0.3691 -1.3045 -0.0804
  757MOL0     C99798   2.164   2.929   5.302 -0.0343 -0.0769  0.3549
  757MOL0     C99799   2.208   2.913   5.168 -0.3181 -0.8217  0.0253
  757MOL0     O99800   2.279   3.013   5.106 -0.1647 -0.2574  0.0991
  757MOL0     C99801   2.334   3.134   5.173 -0.3463 -0.0795 -1.0908
  757MOL0     C99802   2.365   3.226   5.059 -0.3425  0.3624 -0.4930
  757MOL0     C99803   2.468   3.326   5.094 -0.4379 -1.0023 -0.3311
  757MOL0     C99804   2.458   3.437   4.973 -0.0659 -0.1132 -0.1775
  757MOL0     C99805   2.566   3.543   4.961  0.5076 -0.1115 -0.6027
  757MOL0     C99806   2.549   3.624   4.834  0.3794 -0.5606 -1.0697
  757MOL0     C99807   2.670   3.708   4.791 -0.3398  0.1870  0.0842
  757MOL0     C99808   2.635   3.819   4.696 -0.0775  0.1861  0.1470
  757MOL0     N99809   2.544   3.776   4.600 -0.4302  0.8167  0.9596
  757MOL0     C99810   2.577   3.663   4.516 -0.4657 -0.2751  0.0034
  757MOL0     C99811   2.461   3.613   4.471  0.2588  0.5125  0.5893
  757MOL0     C99812   2.455   3.492   4.377  0.6255 -0.9440 -0.6051
  757MOL0     C99813   2.469   3.551   4.241  0.4960 -0.1105 -0.6203
  757MOL0     C99814   2.450   3.443   4.128  0.3431 -0.4186  0.8809
  757MOL0     C99815   2.399   3.496   3.989  0.2073  0.1863  0.7477
  757MOL0     O99816   2.258   3.511   3.975 -0.2644 -0.3651  0.5226
  757MOL0     C99817   2.193   3.625   4.006 -0.4947  0.5305 -0.3410
  757MOL0     C99818   2.111   3.648   4.111  0.5627 -0.2418  0.1108
  757MOL0     C99819   2.046   3.767   4.140  0.2556  0.3220  0.5132
  757MOL0     C99820   2.053   3.870   4.043  0.2285 -0.0844 -0.6847
  757MOL0     C99821   1.966   3.986   4.047 -0.7934  0.4592  0.2564
  757MOL0     O99822   2.001   4.084   3.966 -0.2874 -0.7619 -0.2077
  757MOL0     C99823   2.021   4.216   4.003  0.8287  0.0120 -0.2193
  757MOL0     C99824   1.947   4.289   4.098 -0.5343  0.3381 -0.1520
  757MOL0     C99825   1.972   4.426   4.117 -0.8143  0.2811  0.5931
  757MOL0     C99826   2.061   4.496   4.036 -0.1773  0.0982  0.0808
  757MOL0     O99827   2.084   4.636   4.038 -0.1954 -0.3769 -0.4047
  757MOL0     C99828   1.987   4.722   4.093  0.7060 -0.0673 -1.3033
  757MOL0     C99829   2.014   4.744   4.244 -0.6191  0.6295  0.3595
  757MOL0     C99830   1.956   4.877   4.294  0.0752  0.5180  0.5332
  757MOL0     C99831   1.986   4.888   4.445  1.0526 -0.1568 -0.3068
  757MOL0     C99832   1.910   5.007   4.505  0.1524 -0.1962  0.6161
  757MOL0     C99833   1.940   5.141   4.430 -0.1144 -0.2196 -0.0399
  757MOL0     C99834   1.892   5.258   4.513  0.7990  0.1209  0.4963
  757MOL0     C99835   1.744   5.232   4.545  0.0540 -0.0092 -0.3466
  757MOL0    Cl99836   1.670   5.383   4.614 -0.0127  0.6249  0.3976
  757MOL0     C99837   2.122   4.426   3.930  0.7230  1.0141 -0.0895
  757MOL0     C99838   2.113   4.293   3.923  0.1748  1.1438  0.0377
  757MOL0     O99839   1.862   3.978   4.113 -0.0159  0.6564 -1.0281
  757MOL0     C99840   2.142   3.849   3.936  0.0989  0.3352  0.5446
  757MOL0     C99841   2.206   3.728   3.922 -0.0018  0.6436 -0.3494
  757MOL0     N99842   2.359   3.690   4.531  0.2019 -0.0850 -0.8008
  757MOL0     N99843   2.407   3.777   4.611  0.8456 -0.0024 -0.3148
  757MOL0     C99844   2.173   2.801   5.100 -0.1409 -0.4473  0.8506
  757MOL0     C99845   2.089   2.701   5.154  0.6569 -0.1751  0.5395
  757MOL0     C99846   1.756   2.552   5.409  0.1256  0.4611  0.3548
  757MOL0     C99847   1.671   2.549   5.523 -0.5178  0.7628  0.4527
  757MOL0     C99848   1.552   2.469   5.533  0.4244 -0.4551  0.1386
  757MOL0     C99849   1.518   2.401   5.419  0.6412  0.1199  0.0293
  757MOL0     O99850   1.411   2.315   5.415  0.2752 -0.7863 -0.1348
  757MOL0     C99851   1.425   2.204   5.500 -0.3379 -0.6793  0.6605
  757MOL0     C99852   1.293   2.134   5.498 -0.4581 -0.4972  0.2267
  757MOL0     C99853   1.194   2.221   5.573  0.0440  0.5009 -0.1590
  757MOL0     C99854   1.058   2.146   5.576 -1.0432  0.1669  0.1133
  757MOL0     C99855   0.990   2.166   5.446  1.1787 -0.7577 -0.0798
  757MOL0     C99856   0.931   2.186   5.350  0.8068 -1.0206  0.1736
  757MOL0     C99857   1.582   2.418   5.298  0.2103 -0.1060 -0.0748
  757MOL0     C99858   1.703   2.489   5.289 -0.1965  0.0031 -0.7183
  757MOL0     H99859   2.064   2.829   5.460 -3.8277 -0.2635 -0.9519
  757MOL0     H99860   2.205   3.006   5.367  0.7338 -3.0195  3.6510
  757MOL0     H99861   2.420   3.112   5.238 -0.8199  0.2749 -0.3402
  757MOL0     H99862   2.260   3.181   5.237  0.6691  0.8065 -0.5236
  757MOL0     H99863   2.272   3.268   5.018 -0.3479 -0.1693 -1.0323
  757MOL0     H99864   2.402   3.164   4.977  1.9029  2.5734 -1.2669
  757MOL0     H99865   2.569   3.285   5.101  0.8296  2.0700  1.8262
  757MOL0     H99866   2.443   3.377   5.188  0.3361  1.7113 -1.4723
  757MOL0     H99867   2.451   3.383   4.878  1.2665 -0.5249 -0.0673
  757MOL0     H99868   2.360   3.485   4.985  0.2461  0.5985 -0.4779
  757MOL0     H99869   2.664   3.497   4.974 -0.7708 -2.5216  1.2146
  757MOL0     H99870   2.563   3.617   5.042 -1.0001 -0.6633 -0.1278
  757MOL0     H99871   2.459   3.686   4.841 -1.8850 -3.5146 -1.8128
  757MOL0     H99872   2.508   3.560   4.755 -2.7552 -2.7153  1.9931
  757MOL0     H99873   2.703   3.757   4.883  3.1034 -0.0821 -0.8781
  757MOL0     H99874   2.749   3.649   4.744 -1.9120  0.1348 -2.7148
  757MOL0     H99875   2.726   3.851   4.644  0.6543 -1.9118  0.0417
  757MOL0     H99876   2.598   3.903   4.755  0.4656  1.5797 -1.3971
  757MOL0     H99877   2.674   3.625   4.485  0.1591 -0.4175  2.0051
  757MOL0     H99878   2.359   3.440   4.383  0.1677  0.0455  2.6627
  757MOL0     H99879   2.542   3.427   4.391 -0.8289 -2.7977  0.3849
  757MOL0     H99880   2.563   3.608   4.237  1.0908 -1.1032 -1.2639
  757MOL0     H99881   2.393   3.624   4.213  0.9230  1.4513  1.9649
  757MOL0     H99882   2.542   3.386   4.120  0.8336  0.1211  2.4416
  757MOL0     H99883   2.380   3.368   4.165  1.2460 -2.3017 -0.9793
  757MOL0     H99884   2.437   3.447   3.899 -1.3048  1.8173 -0.8665
  757MOL0     H99885   2.437   3.598   3.979  0.5031  0.0497  0.4791
  757MOL0     H99886   2.096   3.565   4.179  0.4775 -1.1207 -0.9655
  757MOL0     H99887   1.973   3.762   4.220  2.5223  0.0966  2.6773
  757MOL0     H99888   1.877   4.232   4.157  0.0848  0.3515  0.6052
  757MOL0     H99889   1.907   4.464   4.195 -2.6911  0.5924 -1.0582
  757MOL0     H99890   1.880   4.702   4.083  0.7857 -1.2642 -0.1636
  757MOL0     H99891   1.985   4.819   4.044 -1.1630 -0.1512 -1.4605
  757MOL0     H99892   2.123   4.749   4.251 -0.1532 -1.1727 -3.2720
  757MOL0     H99893   1.981   4.652   4.292 -3.4399  0.3399 -1.8746
  757MOL0     H99894   1.847   4.870   4.282 -0.1038  3.0709  0.1419
  757MOL0     H99895   1.990   4.961   4.233  0.7854 -1.1839 -1.5696
  757MOL0     H99896   1.957   4.790   4.485 -0.8105 -0.1316 -1.4496
  757MOL0     H99897   2.094   4.902   4.457  1.0346 -0.4032  0.2102
  757MOL0     H99898   1.940   5.019   4.610  1.0632  2.2706  0.1463
  757MOL0     H99899   1.803   4.984   4.502 -0.7449  3.5493 -1.0557
  757MOL0     H99900   1.897   5.148   4.330 -1.7018 -0.7128  0.5623
  757MOL0     H99901   2.048   5.156   4.426 -0.3666  1.7895 -0.2254
  757MOL0     H99902   1.947   5.256   4.608 -0.6442  1.7145  1.4193
  757MOL0     H99903   1.900   5.357   4.469 -0.5709 -0.1281 -0.3732
  757MOL0     H99904   1.733   5.146   4.612  2.5656  0.3221  0.6082
  757MOL0     H99905   1.694   5.212   4.449  3.6687  2.8408 -3.1446
  757MOL0     H99906   2.179   4.488   3.862  1.5865  0.8864  0.4934
  757MOL0     H99907   2.170   4.244   3.845  0.3193  0.8926  0.2977
  757MOL0     H99908   2.169   3.930   3.869  4.3348  0.7556  2.4087
  757MOL0     H99909   2.267   3.722   3.832 -1.2772  0.8656 -1.2590
  757MOL0     H99910   2.210   2.794   4.999  0.4526 -1.1814  1.1108
  757MOL0     H99911   2.055   2.612   5.102  0.5880 -0.5987  1.3053
  757MOL0     H99912   1.700   2.601   5.613  1.1316  1.6965 -0.5768
  757MOL0     H99913   1.496   2.460   5.625  3.2637  1.7314  2.2770
  757MOL0     H99914   1.467   2.235   5.597  2.7360 -0.4469 -0.6144
  757MOL0     H99915   1.494   2.142   5.443  0.2926 -0.2867  0.9806
  757MOL0     H99916   1.257   2.109   5.398  2.0121 -0.2617 -0.7754
  757MOL0     H99917   1.306   2.043   5.557 -2.5791  0.9889  3.3170
  757MOL0     H99918   1.179   2.324   5.539  0.6011  1.0781  1.2750
  757MOL0     H99919   1.231   2.234   5.675  4.1162 -4.0506 -0.7286
  757MOL0     H99920   1.077   2.041   5.603 -0.2795 -0.1399 -1.4550
  757MOL0     H99921   0.992   2.186   5.653 -1.8586  3.6749 -2.1562
  757MOL0     H99922   0.877   2.195   5.258  2.8678 -1.6508 -1.1662
  757MOL0     H99923   1.535   2.381   5.207 -0.4516 -1.1693  0.6798
  757MOL0     H99924   1.759   2.495   5.197 -0.6939 -3.0775 -1.3430
  758MOL0     O99925   3.521   6.452   2.830 -0.3146  0.2136 -0.4306
  758MOL0     C99926   3.567   6.444   2.948  0.5555  0.2796  0.6061
  758MOL0     O99927   3.601   6.548   3.026 -0.7974  0.5561  0.1354
  758MOL0     C99928   3.605   6.677   3.002 -0.6107 -0.4450 -0.2095
  758MOL0     C99929   3.722   6.753   3.042 -0.1705 -0.6635  0.3754
  758MOL0     C99930   3.718   6.888   3.046 -0.1042  1.0687  0.3517
  758MOL0     C99931   3.599   6.954   3.019  0.7130  0.4060  0.2680
  758MOL0     O99932   3.585   7.084   3.018 -0.0683  0.3928 -0.1822
  758MOL0     C99933   3.617   7.158   3.132  0.3859 -0.0424 -0.3131
  758MOL0     C99934   3.551   7.302   3.134  0.0263  0.3869  0.4298
  758MOL0     C99935   3.401   7.303   3.138 -0.1217  0.4946 -0.4389
  758MOL0     C99936   3.335   7.224   3.247  0.1231  0.8322 -0.6774
  758MOL0     C99937   3.188   7.237   3.242 -1.0235  0.8898 -0.7051
  758MOL0     C99938   3.097   7.151   3.333 -1.1246 -0.3218 -0.9674
  758MOL0     C99939   3.085   7.197   3.478  0.2663 -0.9978 -0.3164
  758MOL0     C99940   2.938   7.243   3.520  0.0946 -0.3641 -0.5381
  758MOL0     N99941   2.854   7.125   3.571  0.2008  0.1094  0.2155
  758MOL0     C99942   2.860   7.066   3.690 -0.3619  0.8445 -0.4367
  758MOL0     C99943   2.772   6.960   3.694 -0.4421 -0.2821  0.2401
  758MOL0     C99944   2.793   6.837   3.789 -0.0823 -0.9084  0.2891
  758MOL0     C99945   2.841   6.709   3.727  0.6564  0.1866 -0.5136
  758MOL0     C99946   2.828   6.589   3.817 -0.2316 -0.1979 -0.5235
  758MOL0     C99947   2.935   6.590   3.924  0.8530  0.0647 -0.1193
  758MOL0     O99948   2.906   6.466   3.998  0.0605 -0.7214  0.1590
  758MOL0     C99949   2.836   6.465   4.116 -1.8761  0.0965  0.5055
  758MOL0     C99950   2.878   6.372   4.216 -0.7452 -0.2240  0.1830
  758MOL0     C99951   2.817   6.364   4.335 -0.6472  0.3397 -0.3143
  758MOL0     C99952   2.708   6.439   4.369 -0.4292  0.1498  0.9730
  758MOL0     C99953   2.659   6.443   4.503  0.9108  0.3368 -0.1462
  758MOL0     O99954   2.720   6.365   4.598  0.4073 -0.4460 -0.7677
  758MOL0     C99955   2.649   6.331   4.710  0.0665  0.3516 -0.2807
  758MOL0     C99956   2.540   6.241   4.710 -0.6119 -0.0815 -1.1352
  758MOL0     C99957   2.497   6.188   4.828  0.0060 -0.7042 -1.0957
  758MOL0     C99958   2.558   6.219   4.957  0.6003  0.9171 -0.5563
  758MOL0     O99959   2.539   6.150   5.074  0.3164  0.6630  0.2884
  758MOL0     C99960   2.413   6.083   5.098 -1.0239  0.8402  0.0149
  758MOL0     C99961   2.406   6.048   5.252  0.1201  0.1462 -0.1549
  758MOL0     C99962   2.409   6.179   5.338 -0.3276 -0.1385 -0.0485
  758MOL0     C99963   2.371   6.129   5.478 -0.6915  0.7296 -0.2735
  758MOL0     C99964   2.381   6.244   5.588 -0.9507 -0.3671 -1.5177
  758MOL0     C99965   2.381   6.190   5.727  0.2310 -0.2194 -0.5916
  758MOL0     C99966   2.311   6.286   5.823 -0.0468  0.4127 -0.0487
  758MOL0     C99967   2.306   6.222   5.964 -1.0417  0.2573  0.6937
  758MOL0    Cl99968   2.471   6.248   6.042  0.7217 -0.4324  0.1412
  758MOL0     C99969   2.667   6.312   4.961 -0.7505 -0.6441 -0.0581
  758MOL0     C99970   2.700   6.371   4.834  0.9049  0.6599 -0.3577
  758MOL0     O99971   2.546   6.496   4.509 -0.0311 -0.3488 -0.8790
  758MOL0     C99972   2.665   6.543   4.270 -0.3676  1.0552  0.6141
  758MOL0     C99973   2.733   6.557   4.147 -0.5520  0.6838 -0.5037
  758MOL0     N99974   2.703   6.968   3.574 -0.5376  0.1880  0.0329
  758MOL0     N99975   2.756   7.065   3.502 -0.4794 -0.1934 -0.0211
  758MOL0     C99976   3.488   6.877   2.971 -0.4993 -0.3988  0.2291
  758MOL0     C99977   3.495   6.742   2.969  0.6707 -0.2472  0.1475
  758MOL0     C99978   3.555   6.314   3.020 -0.7046  0.1987 -0.5912
  758MOL0     C99979   3.496   6.204   2.971  0.0094 -0.4026 -0.2977
  758MOL0     C99980   3.471   6.083   3.036 -0.3331 -1.0550 -0.0362
  758MOL0     C99981   3.490   6.074   3.171 -0.7262 -0.4457  0.1893
  758MOL0     O99982   3.478   5.965   3.248 -0.6942 -0.0390 -0.7227
  758MOL0     C99983   3.429   5.834   3.209 -0.4296 -0.7633 -0.7139
  758MOL0     C99984   3.282   5.844   3.178  1.0492  0.4211  0.5144
  758MOL0     C99985   3.221   5.715   3.164  0.5026  1.0084  0.4643
  758MOL0     C99986   3.082   5.713   3.097  0.2252  0.1676 -0.0661
  758MOL0     C99987   3.010   5.581   3.073 -0.3029 -1.6665 -1.0264
  758MOL0     C99988   2.947   5.479   3.048  0.4661 -0.2286  0.5483
  758MOL0     C99989   3.558   6.182   3.232  0.5344 -0.1280  0.0236
  758MOL0     C99990   3.598   6.297   3.154  0.1619  0.2853 -1.2070
  758MOL0     H99991   3.812   6.703   3.076 -0.2300 -1.8069 -1.0498
  758MOL0     H99992   3.794   6.954   3.087  2.5537 -1.2344 -0.5742
  758MOL0     H99993   3.726   7.169   3.132  0.4172 -0.0009  2.0751
  758MOL0     H99994   3.584   7.109   3.223  0.3675 -0.0158 -0.3055
  758MOL0     H99995   3.574   7.351   3.038 -3.9807 -1.2431 -1.6015
  758MOL0     H99996   3.594   7.356   3.219  0.8907 -0.6994  0.7056
  758MOL0     H99997   3.368   7.273   3.038 -1.2874  0.7175 -0.1313
  758MOL0     H99998   3.363   7.404   3.159 -5.2190 -0.8228 -2.0703
  758MOL0     H99999   3.354   7.116   3.246  2.2790  1.1676 -0.8998
  758MOL0     H    0   3.383   7.267   3.335  0.1205  0.8539 -0.6864
  758MOL0     H    1   3.161   7.213   3.139 -1.9070 -1.3959 -0.0074
  758MOL0     H    2   3.166   7.343   3.252  0.3111  1.0956  0.3524
  758MOL0     H    3   3.116   7.044   3.331 -1.8600 -0.4648 -2.8803
  758MOL0     H    4   2.996   7.164   3.294 -1.3315  1.3011  0.0164
  758MOL0     H    5   3.125   7.116   3.538  2.2558  0.1194 -0.0389
  758MOL0     H    6   3.144   7.289   3.485 -3.7111  1.9086 -1.2694
  758MOL0     H    7   2.885   7.293   3.439  1.8022  2.4721 -0.0452
  758MOL0     H    8   2.934   7.313   3.604 -3.1283 -1.5497  0.4452
  758MOL0     H    9   2.939   7.069   3.765 -0.0800  4.1108 -0.7519
  758MOL0     H   10   2.703   6.827   3.851 -0.8143  1.6551 -0.2597
  758MOL0     H   11   2.865   6.877   3.861 -1.7533  2.4011  0.3322
  758MOL0     H   12   2.943   6.723   3.689  1.4691 -0.0267  1.4504
  758MOL0     H   13   2.784   6.687   3.637 -1.6553 -2.7975  1.4881
  758MOL0     H   14   2.731   6.596   3.865  0.1472  0.2744  0.1972
  758MOL0     H   15   2.839   6.497   3.759 -0.6475 -0.3992 -0.2835
  758MOL0     H   16   2.934   6.679   3.987  0.2640  1.9360 -2.6052
  758MOL0     H   17   3.031   6.590   3.871  0.1532 -4.0056 -1.7691
  758MOL0     H   18   2.973   6.319   4.208  0.3794  1.4370  1.7073
  758MOL0     H   19   2.875   6.319   4.415 -1.1689  1.3721  0.6641
  758MOL0     H   20   2.486   6.212   4.620  0.7529 -2.8057 -1.1507
  758MOL0     H   21   2.416   6.117   4.846 -1.5443  1.1611 -0.3569
  758MOL0     H   22   2.393   5.998   5.033 -3.9119  2.7917 -1.8681
  758MOL0     H   23   2.342   6.161   5.070 -1.9679 -0.3422 -0.9851
  758MOL0     H   24   2.483   5.974   5.275  2.1006  1.8725 -0.8826
  758MOL0     H   25   2.310   5.997   5.252  0.2773 -0.4133 -3.8709
  758MOL0     H   26   2.333   6.245   5.295 -0.2225 -0.2442 -0.3991
  758MOL0     H   27   2.507   6.226   5.342 -0.7344  1.2955 -3.5494
  758MOL0     H   28   2.269   6.090   5.470 -0.8194  1.1133 -0.5581
  758MOL0     H   29   2.448   6.057   5.505 -0.9983 -0.1067 -1.5670
  758MOL0     H   30   2.304   6.320   5.571 -0.2865  0.1529 -2.2487
  758MOL0     H   31   2.480   6.289   5.577 -0.1935 -1.8594 -1.0443
  758MOL0     H   32   2.481   6.183   5.770  0.2566 -0.5602 -0.7036
  758MOL0     H   33   2.336   6.091   5.728 -1.2559  0.4220 -0.5962
  758MOL0     H   34   2.346   6.389   5.828 -0.2960  0.4408  1.9850
  758MOL0     H   35   2.214   6.292   5.774 -0.3269 -4.6745 -0.6921
  758MOL0     H   36   2.284   6.116   5.950  0.5859  0.0011 -0.1417
  758MOL0     H   37   2.238   6.276   6.030 -0.8160  1.8950 -0.3500
  758MOL0     H   38   2.707   6.364   5.047  0.5101  0.8706 -1.4966
  758MOL0     H   39   2.778   6.445   4.847  0.4610  0.7143  2.8545
  758MOL0     H   40   2.588   6.615   4.293  0.5489  3.1019 -2.1935
  758MOL0     H   41   2.713   6.639   4.079 -0.8835  1.5960  0.6610
  758MOL0     H   42   3.402   6.934   2.938  1.4420  2.9710  0.4601
  758MOL0     H   43   3.407   6.687   2.937  0.9975 -0.5958 -0.1616
  758MOL0     H   44   3.462   6.198   2.868 -1.2259 -4.9390  0.1419
  758MOL0     H   45   3.429   6.009   2.969  0.0704  1.1249 -2.9001
  758MOL0     H   46   3.454   5.769   3.294  2.2500  1.2913  0.1736
  758MOL0     H   47   3.488   5.797   3.125  1.7659 -1.4588  1.0113
  758MOL0     H   48   3.241   5.915   3.251  0.1407  0.7571 -0.2865
  758MOL0     H   49   3.261   5.897   3.084 -0.9803 -1.0226  0.0999
  758MOL0     H   50   3.201   5.670   3.262  1.1674  1.3687  0.7726
  758MOL0     H   51   3.284   5.644   3.109 -0.0847  1.0237 -0.2423
  758MOL0     H   52   3.011   5.770   3.157 -0.0117 -0.7816  0.5602
  758MOL0     H   53   3.104   5.756   2.998  2.7061  0.8172  0.6875
  758MOL0     H   54   2.891   5.398   3.007  2.7497 -1.8338  0.4414
  758MOL0     H   55   3.588   6.180   3.336 -0.1165  0.6705  0.2368
  758MOL0     H   56   3.654   6.370   3.212  2.6576 -2.3137 -0.1041
  759MOL0     O   57  10.614   0.540   1.231  0.5690  0.0536  1.0280
  759MOL0     C   58  10.634   0.457   1.318 -0.7697 -0.1289 -0.7176
  759MOL0     O   59  10.603   0.469   1.450 -0.2087 -0.3077  0.0757
  759MOL0     C   60  10.531   0.581   1.491 -0.1852 -0.1313 -0.4949
  759MOL0     C   61  10.413   0.632   1.419 -0.3913 -0.5999 -0.3287
  759MOL0     C   62  10.360   0.751   1.461  0.0784 -0.3148 -0.8074
  759MOL0     C   63  10.399   0.813   1.583  0.0275 -0.0009 -0.6979
  759MOL0     O   64  10.334   0.929   1.623 -0.1000 -0.0895  0.0071
  759MOL0     C   65  10.290   0.931   1.762  0.3732  0.2897 -0.2602
  759MOL0     C   66  10.197   1.054   1.801  0.5623  0.7377 -0.4729
  759MOL0     C   67  10.077   1.082   1.700  0.5523 -0.3367 -0.5015
  759MOL0     C   68   9.973   1.170   1.756 -0.4917 -0.2655 -0.4589
  759MOL0     C   69   9.866   1.181   1.664 -0.2120 -0.0214  1.2293
  759MOL0     C   70   9.857   1.326   1.602 -0.1830 -1.0124 -0.2777
  759MOL0     C   71   9.957   1.359   1.506  0.5339  0.1941  0.6361
  759MOL0     C   72   9.959   1.271   1.379  0.6687  0.1619  0.6555
  759MOL0     N   73  10.027   1.329   1.269 -1.1140 -0.3723  0.2749
  759MOL0     C   74  10.160   1.374   1.274  0.3776  0.2042 -0.0991
  759MOL0     C   75  10.179   1.435   1.154  0.3100 -0.4608 -0.2069
  759MOL0     C   76  10.307   1.488   1.103 -0.2827  0.3404 -0.1918
  759MOL0     C   77  10.346   1.412   0.977  0.8139  0.0004 -0.5665
  759MOL0     C   78  10.505   1.421   0.960 -1.1938  0.3067 -0.1194
  759MOL0     C   79  10.550   1.416   0.817  0.1880  0.1662  1.0109
  759MOL0     O   80  10.686   1.464   0.806 -0.3501 -0.8249  0.0474
  759MOL0     C   81  10.796   1.382   0.821  0.5854 -0.3456  0.5791
  759MOL0     C   82  10.795   1.244   0.827  0.3650  0.1163 -0.0666
  759MOL0     C   83  10.915   1.177   0.828  0.5663 -0.6256  0.4213
  759MOL0     C   84  11.038   1.252   0.811  0.5307 -0.0205 -0.8423
  759MOL0     C   85  11.161   1.171   0.798  0.3392 -0.2679  0.4683
  759MOL0     O   86  11.163   1.039   0.825  0.5386  0.0165 -0.7334
  759MOL0     C   87  11.281   0.971   0.824  0.2803 -0.7347  0.0223
  759MOL0     C   88  11.407   1.023   0.857  0.4002  0.4240  0.0241
  759MOL0     C   89  11.522   0.945   0.861  0.0308 -0.0124  0.0334
  759MOL0     C   90  11.523   0.821   0.824 -0.4573 -0.6230 -0.1246
  759MOL0     O   91  11.641   0.744   0.810  0.5960 -0.0857  0.1579
  759MOL0     C   92  11.749   0.774   0.899 -1.1590  0.2633 -0.4579
  759MOL0     C   93  11.860   0.681   0.876  0.3071  0.3294 -0.1356
  759MOL0     C   94  11.966   0.697   0.988 -0.3048 -0.3841  0.2615
  759MOL0     C   95  12.047   0.835   0.972  0.2771  0.9661 -0.3111
  759MOL0     C   96  12.057   0.915   1.109  0.2016 -0.2685 -0.6964
  759MOL0     C   97  12.166   1.009   1.115 -0.1403 -1.3254  0.6385
  759MOL0     C   98  12.169   1.070   1.253  0.3812 -0.1686 -0.1273
  759MOL0     C   99  12.247   1.205   1.235 -0.5706 -0.1483  0.5985
  759MOL0    Cl  100  12.217   1.305   1.375 -0.0753 -0.0145  0.0973
  759MOL0     C  101  11.399   0.763   0.793  0.7963  0.4205  0.0066
  759MOL0     C  102  11.277   0.830   0.791  0.4896 -1.2059 -0.4248
  759MOL0     O  103  11.251   1.232   0.737  0.3819 -0.3274 -0.2753
  759MOL0     C  104  11.033   1.389   0.809  0.3557  0.2445  0.8264
  759MOL0     C  105  10.915   1.449   0.816  0.9144 -0.3114  0.4194
  759MOL0     N  106  10.055   1.425   1.082 -0.4452  0.3320 -0.2542
  759MOL0     N  107   9.967   1.368   1.153 -1.2292 -0.1211 -0.6307
  759MOL0     C  108  10.507   0.757   1.652 -0.2658 -0.1522  1.0699
  759MOL0     C  109  10.564   0.633   1.612  0.0677 -0.6229  0.2456
  759MOL0     C  110  10.694   0.332   1.275 -0.5580  0.5784  0.2264
  759MOL0     C  111  10.686   0.273   1.150  0.7063 -0.7022 -0.8466
  759MOL0     C  112  10.746   0.151   1.122  0.4701 -0.3085  0.7748
  759MOL0     C  113  10.812   0.079   1.221  0.3362 -0.2424 -0.0229
  759MOL0     O  114  10.838  -0.052   1.216  0.0236 -0.6446  0.0143
  759MOL0     C  115  10.902  -0.093   1.094 -0.0083 -0.0842 -0.1182
  759MOL0     C  116  11.010  -0.194   1.122 -0.5059  0.5606  0.0419
  759MOL0     C  117  11.146  -0.133   1.170 -0.4035 -0.0565  0.3164
  759MOL0     C  118  11.256  -0.235   1.204 -0.0919  0.2500  0.2431
  759MOL0     C  119  11.203  -0.336   1.301  0.2088 -0.0143 -0.3195
  759MOL0     C  120  11.193  -0.421   1.384  0.9659 -0.4727 -1.2949
  759MOL0     C  121  10.820   0.128   1.348 -0.5577  1.0328 -0.1120
  759MOL0     C  122  10.760   0.254   1.372  0.1856  0.7279 -0.1741
  759MOL0     H  123  10.368   0.581   1.334 -0.6154  1.0948 -1.2742
  759MOL0     H  124  10.283   0.795   1.398 -2.5755 -2.1702  0.9499
  759MOL0     H  125  10.373   0.944   1.833 -2.7378 -0.7121  3.9701
  759MOL0     H  126  10.237   0.845   1.804  2.5385  0.2949  2.8495
  759MOL0     H  127  10.258   1.144   1.812 -0.0976  1.1806 -0.3961
  759MOL0     H  128  10.144   1.021   1.891  1.3024  0.0237 -0.2811
  759MOL0     H  129  10.035   0.989   1.661 -1.7918 -0.6140  2.3405
  759MOL0     H  130  10.116   1.127   1.609  2.4412  1.2278  0.9759
  759MOL0     H  131   9.945   1.127   1.853 -0.9287  1.4025  0.1774
  759MOL0     H  132  10.011   1.267   1.788 -0.4845 -0.7134  0.9702
  759MOL0     H  133   9.774   1.163   1.721  0.6062  0.4315  2.7402
  759MOL0     H  134   9.868   1.103   1.588  0.6787  2.4465 -1.4726
  759MOL0     H  135   9.854   1.399   1.682 -0.7148  0.6719 -1.7733
  759MOL0     H  136   9.756   1.333   1.559 -0.9728 -1.8586  1.3367
  759MOL0     H  137   9.934   1.464   1.487  0.7183  0.0831 -0.2581
  759MOL0     H  138  10.053   1.355   1.558  1.8445  1.5136 -1.5075
  759MOL0     H  139   9.863   1.255   1.328  2.2769  1.2555 -3.0599
  759MOL0     H  140  10.002   1.171   1.382  0.9410  0.2805  0.8054
  759MOL0     H  141  10.229   1.356   1.357 -0.5065 -1.9836  0.2439
  759MOL0     H  142  10.384   1.461   1.176  0.6678  2.7992 -0.1999
  759MOL0     H  143  10.301   1.590   1.066  2.4796  0.2020 -1.3023
  759MOL0     H  144  10.300   1.460   0.890  3.5721  0.2551 -1.9985
  759MOL0     H  145  10.321   1.306   0.980 -1.3004  0.4870  1.6322
  759MOL0     H  146  10.534   1.522   0.992 -1.3633  0.4416 -0.3850
  759MOL0     H  147  10.566   1.349   1.015  1.3890  1.6438 -1.0233
  759MOL0     H  148  10.486   1.481   0.756  0.9535 -0.4534 -0.5194
  759MOL0     H  149  10.541   1.309   0.795  2.1476  0.4426 -1.5922
  759MOL0     H  150  10.702   1.189   0.825 -0.3582  1.2129 -3.4224
  759MOL0     H  151  10.911   1.069   0.839  2.2541 -0.9488 -1.4966
  759MOL0     H  152  11.418   1.128   0.882  1.2935  0.8500 -1.9476
  759MOL0     H  153  11.604   0.998   0.908 -2.0388  1.9548  1.6422
  759MOL0     H  154  11.714   0.753   1.001  1.4544 -1.5725  0.1374
  759MOL0     H  155  11.790   0.873   0.876  0.6431 -1.1245 -3.8857
  759MOL0     H  156  11.906   0.698   0.779  2.4486  0.2624  0.8034
  759MOL0     H  157  11.818   0.581   0.887  3.1529 -1.3547 -2.9180
  759MOL0     H  158  12.038   0.617   0.970  0.6051  0.4699 -0.0242
  759MOL0     H  159  11.926   0.679   1.088  2.5936 -0.9850  1.4148
  759MOL0     H  160  12.151   0.825   0.938  0.9769  1.8696  1.4720
  759MOL0     H  161  11.997   0.897   0.897  4.1640  1.5044 -2.7275
  759MOL0     H  162  12.047   0.848   1.195 -1.3869 -0.9190 -1.3587
  759MOL0     H  163  11.963   0.971   1.111  0.2402 -0.0448 -3.0893
  759MOL0     H  164  12.148   1.081   1.035  3.5530  0.9941  1.6299
  759MOL0     H  165  12.260   0.954   1.100  0.9823  1.0222 -1.6700
  759MOL0     H  166  12.069   1.107   1.275  0.5435  0.6163 -0.6344
  759MOL0     H  167  12.206   1.005   1.333 -0.9772  1.2914  1.7786
  759MOL0     H  168  12.206   1.262   1.150  0.4341 -0.1437  0.1080
  759MOL0     H  169  12.350   1.208   1.197 -0.6451  0.8097  0.4319
  759MOL0     H  170  11.404   0.656   0.777 -1.4669  0.0951  1.1798
  759MOL0     H  171  11.191   0.771   0.761  0.2352 -0.4132 -1.2809
  759MOL0     H  172  11.117   1.457   0.796  0.9720 -0.8515 -1.3929
  759MOL0     H  173  10.905   1.556   0.801 -2.2674 -0.6264 -0.5224
  759MOL0     H  174  10.542   0.807   1.742 -0.5620  2.9231 -0.4356
  759MOL0     H  175  10.640   0.581   1.670  0.9273  2.3456  2.0605
  759MOL0     H  176  10.638   0.331   1.072 -0.2458 -1.5169 -0.8802
  759MOL0     H  177  10.748   0.102   1.025 -1.2743 -1.0837  1.0872
  759MOL0     H  178  10.953  -0.006   1.052  0.1501  0.2104  0.6543
  759MOL0     H  179  10.827  -0.131   1.024  0.1179  0.0217 -0.3119
  759MOL0     H  180  10.980  -0.268   1.197  2.3100  1.4933  2.2457
  759MOL0     H  181  11.022  -0.253   1.031 -0.9801 -0.5894  0.7029
  759MOL0     H  182  11.137  -0.067   1.257  2.9686  1.0528 -0.0126
  759MOL0     H  183  11.183  -0.062   1.096 -2.2100  0.2337 -0.3532
  759MOL0     H  184  11.300  -0.294   1.123  1.2286 -3.6926  3.4916
  759MOL0     H  185  11.345  -0.187   1.245  3.8089 -7.3385  2.6598
  759MOL0     H  186  11.179  -0.504   1.451  3.0173 -0.0460 -0.2424
  759MOL0     H  187  10.862   0.072   1.431 -0.0475 -0.9810 -1.6583
  759MOL0     H  188  10.766   0.285   1.476  0.4415 -1.2444  0.4478
  760MOL0     O  189   2.378   0.853  10.935  0.3664 -0.5951 -0.2701
  760MOL0     C  190   2.447   0.851  10.835 -0.9391  0.8402 -0.2326
  760MOL0     O  191   2.439   0.759  10.733  0.0834  0.1132 -0.0152
  760MOL0     C  192   2.361   0.657  10.750  0.7410  0.0674  0.2233
  760MOL0     C  193   2.337   0.583  10.875 -1.1032  0.0631  0.1448
  760MOL0     C  194   2.248   0.478  10.878  0.6503  0.6934  0.1915
  760MOL0     C  195   2.164   0.453  10.774 -0.7022  0.0642  0.3209
  760MOL0     O  196   2.054   0.367  10.773 -1.0954 -0.1927  0.1781
  760MOL0     C  197   2.038   0.262  10.877 -1.5078  0.7585  0.0518
  760MOL0     C  198   1.912   0.179  10.832 -0.5464  1.4084 -0.3650
  760MOL0     C  199   1.870   0.072  10.943 -0.1419 -0.4966  0.1885
  760MOL0     C  200   1.751  -0.013  10.900 -0.2190  0.0082  0.1402
  760MOL0     C  201   1.703  -0.100  11.016  0.3793 -0.1489 -0.2445
  760MOL0     C  202   1.571  -0.181  10.972 -0.1492 -1.4135  0.5581
  760MOL0     C  203   1.538  -0.296  11.064 -0.2331  0.2074  0.4830
  760MOL0     C  204   1.583  -0.425  10.996  0.1520  0.0572 -0.8937
  760MOL0     N  205   1.582  -0.544  11.083 -0.0579 -0.1173 -0.6092
  760MOL0     C  206   1.492  -0.656  11.073 -0.1991  0.0333 -0.0257
  760MOL0     C  207   1.539  -0.754  11.147  0.0254  0.4900  0.0285
  760MOL0     C  208   1.483  -0.893  11.160  0.5183  0.7929  0.1690
  760MOL0     C  209   1.532  -0.973  11.284  0.6239 -0.2473 -0.2813
  760MOL0     C  210   1.466  -0.926  11.412  0.6362  0.5235 -0.0097
  760MOL0     C  211   1.544  -0.944  11.534  0.6135 -0.9555 -0.3371
  760MOL0     O  212   1.525  -1.075  11.579 -0.6197  0.0278 -0.2566
  760MOL0     C  213   1.528  -1.096  11.717  1.2619 -0.1365  0.2530
  760MOL0     C  214   1.442  -1.199  11.756 -0.5087 -0.3164 -0.0173
  760MOL0     C  215   1.443  -1.244  11.886 -0.3843  0.7670  0.1671
  760MOL0     C  216   1.527  -1.185  11.978  0.6909  0.7682 -0.5824
  760MOL0     C  217   1.523  -1.227  12.116 -1.0627  0.4932  0.2721
  760MOL0     O  218   1.411  -1.291  12.150  0.5049 -0.2739  0.1439
  760MOL0     C  219   1.404  -1.315  12.282 -0.6678  0.3137  0.6046
  760MOL0     C  220   1.319  -1.239  12.361 -0.4569  0.0792 -0.4271
  760MOL0     C  221   1.307  -1.266  12.504  0.7664 -0.4746  0.9926
  760MOL0     C  222   1.395  -1.345  12.567 -0.0776 -0.1902  0.1728
  760MOL0     O  223   1.398  -1.372  12.699  0.4350 -0.1952 -0.6734
  760MOL0     C  224   1.294  -1.345  12.794  0.3872  0.1098  0.7320
  760MOL0     C  225   1.302  -1.442  12.912 -0.0015 -0.7341 -0.5252
  760MOL0     C  226   1.318  -1.590  12.856 -0.2432 -1.2448 -0.1023
  760MOL0     C  227   1.186  -1.642  12.814 -0.1461  0.1550  0.9782
  760MOL0     C  228   1.191  -1.695  12.664 -0.5101  0.8379 -0.3786
  760MOL0     C  229   1.298  -1.806  12.642 -0.1877  0.1466 -0.1146
  760MOL0     C  230   1.280  -1.943  12.718  0.2903 -0.5643 -0.6114
  760MOL0     C  231   1.391  -2.037  12.689 -0.4981 -0.1749 -0.0500
  760MOL0    Cl  232   1.368  -2.181  12.791  0.4805 -0.3205 -0.1770
  760MOL0     C  233   1.489  -1.419  12.484 -1.0134 -0.3795 -0.5076
  760MOL0     C  234   1.490  -1.409  12.343  0.1292  0.7711 -0.0504
  760MOL0     O  235   1.606  -1.187  12.191  0.6746  0.1652 -0.3243
  760MOL0     C  236   1.616  -1.085  11.938 -0.4744 -0.6301 -1.1280
  760MOL0     C  237   1.616  -1.040  11.809 -0.5362 -0.7959 -0.7167
  760MOL0     N  238   1.657  -0.704  11.210  0.5789 -0.8558  0.6138
  760MOL0     N  239   1.684  -0.585  11.164  0.3038  0.0914 -0.6160
  760MOL0     C  240   2.189   0.530  10.655  0.1424  0.0653 -0.3273
  760MOL0     C  241   2.278   0.629  10.642 -0.1285 -0.0686 -0.3429
  760MOL0     C  242   2.572   0.935  10.840  0.6509  0.1212  0.2523
  760MOL0     C  243   2.597   1.008  10.956 -0.5202  0.0916  0.3001
  760MOL0     C  244   2.717   1.066  10.976 -0.3287 -0.0550  0.4785
  760MOL0     C  245   2.807   1.075  10.870  0.8644 -0.3744  0.1932
  760MOL0     O  246   2.926   1.135  10.880 -1.1468 -0.2305  0.2556
  760MOL0     C  247   2.936   1.256  10.960 -0.1324 -0.0769 -0.2321
  760MOL0     C  248   3.043   1.344  10.891  0.3850 -0.2425 -0.1243
  760MOL0     C  249   3.014   1.493  10.883 -1.2230 -0.5434  0.0210
  760MOL0     C  250   3.135   1.581  10.830 -0.4501 -0.6370 -0.7990
  760MOL0     C  251   3.258   1.572  10.914 -0.3769 -0.5356 -0.6742
  760MOL0     C  252   3.364   1.552  10.972  0.4711  0.7793 -0.2540
  760MOL0     C  253   2.793   0.992  10.755  0.1821  0.2242  0.0651
  760MOL0     C  254   2.671   0.923  10.739 -0.6194  0.7819 -0.5576
  760MOL0     H  255   2.386   0.625  10.962 -1.9089 -2.2114  1.7663
  760MOL0     H  256   2.242   0.427  10.974 -0.8092 -0.2856 -0.3838
  760MOL0     H  257   2.019   0.321  10.967  3.2202  0.6501  1.3889
  760MOL0     H  258   2.132   0.209  10.890 -1.9890  0.5201  3.5052
  760MOL0     H  259   1.934   0.124  10.740  2.7095  2.8428 -0.5959
  760MOL0     H  260   1.839   0.256  10.809 -1.5129  0.8063  0.5723
  760MOL0     H  261   1.835   0.126  11.032  1.7802 -2.7168  2.4428
  760MOL0     H  262   1.961   0.017  10.969  1.7059  3.0684  2.0641
  760MOL0     H  263   1.671   0.053  10.867 -0.4619  0.0478  0.7780
  760MOL0     H  264   1.780  -0.071  10.812 -1.8151  2.2505 -1.9592
  760MOL0     H  265   1.696  -0.039  11.106  2.2539 -0.4517  0.1413
  760MOL0     H  266   1.782  -0.172  11.041 -0.4220  0.4822  5.5289
  760MOL0     H  267   1.583  -0.196  10.864 -1.0420  3.6863 -0.4839
  760MOL0     H  268   1.499  -0.099  10.982  1.8397  0.3199  1.1240
  760MOL0     H  269   1.593  -0.271  11.156 -0.9678 -1.8612  1.5430
  760MOL0     H  270   1.434  -0.316  11.092 -1.1798  2.2084 -1.3157
  760MOL0     H  271   1.686  -0.409  10.962  0.8209 -0.9634  0.5462
  760MOL0     H  272   1.523  -0.438  10.906  0.2353 -2.3845 -0.6487
  760MOL0     H  273   1.414  -0.647  10.998 -0.3382  3.9842  0.3868
  760MOL0     H  274   1.517  -0.945  11.069  1.1877  0.2897  0.6975
  760MOL0     H  275   1.375  -0.888  11.143  0.5522 -0.1113 -0.3897
  760MOL0     H  276   1.639  -0.951  11.288  0.9988 -1.4339 -2.2172
  760MOL0     H  277   1.514  -1.081  11.280  0.1062 -0.3970  3.2633
  760MOL0     H  278   1.437  -0.821  11.407  1.7786  0.7916 -1.7219
  760MOL0     H  279   1.369  -0.976  11.423  2.0538 -2.7554 -1.0709
  760MOL0     H  280   1.501  -0.875  11.607  1.7111 -0.9765  0.3630
  760MOL0     H  281   1.652  -0.930  11.521  0.5071  1.4063  0.6245
  760MOL0     H  282   1.390  -1.255  11.679 -0.8887 -0.1312  0.1033
  760MOL0     H  283   1.376  -1.327  11.906 -0.8422  0.2103 -3.2017
  760MOL0     H  284   1.268  -1.152  12.323  1.9099  0.9640 -1.8228
  760MOL0     H  285   1.242  -1.206  12.567  0.2089  0.2012 -0.1961
  760MOL0     H  286   1.192  -1.342  12.755  0.5810  3.2435  0.1434
  760MOL0     H  287   1.310  -1.245  12.835  3.1562  0.1636 -0.2507
  760MOL0     H  288   1.223  -1.420  12.985  0.2643  0.0742 -0.4667
  760MOL0     H  289   1.399  -1.417  12.956 -1.0674  2.7644  0.1940
  760MOL0     H  290   1.347  -1.651  12.942  1.2362 -1.5465 -0.7926
  760MOL0     H  291   1.391  -1.593  12.775 -2.6753 -1.1544 -2.4292
  760MOL0     H  292   1.153  -1.722  12.882  1.2643 -0.8785  0.4917
  760MOL0     H  293   1.102  -1.573  12.809 -0.5943 -0.4696 -1.1605
  760MOL0     H  294   1.206  -1.606  12.601  2.3331 -0.2183 -1.3897
  760MOL0     H  295   1.096  -1.746  12.651 -0.7621  0.5265  2.2313
  760MOL0     H  296   1.398  -1.774  12.674  0.2926  0.9982 -2.2470
  760MOL0     H  297   1.312  -1.831  12.536  2.4468 -0.9188  0.4193
  760MOL0     H  298   1.259  -1.921  12.823 -2.9963 -2.9411 -0.6182
  760MOL0     H  299   1.184  -1.981  12.681 -0.0718 -1.9366  1.5942
  760MOL0     H  300   1.484  -1.983  12.709  0.1102 -0.6086 -1.6232
  760MOL0     H  301   1.372  -2.068  12.586 -1.9180  0.3199  0.0399
  760MOL0     H  302   1.562  -1.488  12.524 -0.2250  0.7574  0.0616
  760MOL0     H  303   1.558  -1.469  12.283  2.0187  3.1825 -0.4897
  760MOL0     H  304   1.674  -1.031  12.012  1.1146 -2.6865 -0.7636
  760MOL0     H  305   1.689  -0.966  11.779 -0.3720 -0.8164 -0.3747
  760MOL0     H  306   2.119   0.506  10.576 -0.9390  0.6878  0.4091
  760MOL0     H  307   2.282   0.675  10.544 -2.1879 -0.4826 -0.6621
  760MOL0     H  308   2.528   1.018  11.040 -0.6380 -0.6159  0.2933
  760MOL0     H  309   2.740   1.113  11.071 -1.9422  2.2308 -0.1673
  760MOL0     H  310   2.962   1.233  11.064 -2.1097  0.3968  0.4169
  760MOL0     H  311   2.847   1.320  10.961 -0.7167 -0.8538  1.3780
  760MOL0     H  312   3.145   1.333  10.931 -0.0285  1.1838  1.4268
  760MOL0     H  313   3.047   1.317  10.785  1.4601 -0.4223 -0.0535
  760MOL0     H  314   2.998   1.527  10.986  2.6417  1.3889  0.1672
  760MOL0     H  315   2.936   1.516  10.811 -1.8526 -2.4423  0.0274
  760MOL0     H  316   3.168   1.539  10.735 -3.6224  1.6054 -3.0949
  760MOL0     H  317   3.114   1.688  10.823  1.2768 -0.3170 -1.5897
  760MOL0     H  318   3.453   1.536  11.030  0.3446  1.0502  0.0178
  760MOL0     H  319   2.867   0.986  10.676  1.4639 -1.3575  1.2952
  760MOL0     H  320   2.657   0.856  10.656  1.1661 -0.5742  0.1692
  761MOL0     O  321   5.286  10.300   1.731 -0.6326 -0.2743 -0.3150
  761MOL0     C  322   5.234  10.384   1.663 -0.2327  0.7387  0.2782
  761MOL0     O  323   5.101  10.377   1.624 -0.1501  0.6067  0.8198
  761MOL0     C  324   5.017  10.274   1.663  0.1147  0.9966 -0.2738
  761MOL0     C  325   5.059  10.144   1.703 -0.8863 -0.5703 -0.0654
  761MOL0     C  326   4.964  10.045   1.733 -0.6611  0.5357  0.0332
  761MOL0     C  327   4.829  10.074   1.742  0.2699  0.0443  0.6224
  761MOL0     O  328   4.729   9.986   1.778  0.0503 -0.1614  0.8796
  761MOL0     C  329   4.759   9.851   1.804 -0.2041  0.1403  0.1126
  761MOL0     C  330   4.784   9.765   1.681  0.7982  0.7933 -0.7553
  761MOL0     C  331   4.747   9.618   1.695  0.1958  0.3324  0.8719
  761MOL0     C  332   4.739   9.552   1.555  0.3667 -0.6669  0.1388
  761MOL0     C  333   4.724   9.406   1.563 -0.1987  0.0700  0.0858
  761MOL0     C  334   4.842   9.328   1.631  0.8474  0.3889  0.0939
  761MOL0     C  335   4.835   9.184   1.667  0.0440 -0.0178  0.3044
  761MOL0     C  336   4.825   9.095   1.537  0.4343 -0.1290 -0.4350
  761MOL0     N  337   4.700   9.014   1.541  0.4533 -0.3704  0.1528
  761MOL0     C  338   4.601   9.006   1.444 -1.4550  0.6124  0.8318
  761MOL0     C  339   4.507   8.919   1.496  0.1712  0.1108  1.3446
  761MOL0     C  340   4.374   8.896   1.431  0.3037  0.1238 -0.9489
  761MOL0     C  341   4.372   8.845   1.285 -0.3380 -0.6951 -0.2076
  761MOL0     C  342   4.400   8.700   1.272 -0.0186 -0.7735  0.2242
  761MOL0     C  343   4.411   8.639   1.127 -0.1628  0.1131  0.0431
  761MOL0     O  344   4.525   8.697   1.059  0.1534 -0.6992  0.1432
  761MOL0     C  345   4.546   8.660   0.928  0.6837 -0.4434  0.4650
  761MOL0     C  346   4.509   8.536   0.872 -0.5186  0.1868  0.1443
  761MOL0     C  347   4.533   8.513   0.734  0.8054 -0.8504  0.2628
  761MOL0     C  348   4.594   8.614   0.648  0.6675  0.5836  0.4700
  761MOL0     C  349   4.619   8.588   0.503  0.0234 -0.0201 -0.5500
  761MOL0     O  350   4.731   8.635   0.456 -0.1005  0.6010 -0.0415
  761MOL0     C  351   4.748   8.607   0.317 -0.3470 -0.6386  0.0573
  761MOL0     C  352   4.747   8.477   0.263 -0.2125 -0.2502  0.5387
  761MOL0     C  353   4.785   8.449   0.129  0.6822 -0.5921 -0.0978
  761MOL0     C  354   4.844   8.555   0.053 -0.3752  0.4452 -0.0110
  761MOL0     O  355   4.891   8.526  -0.077 -0.3744  0.2973  0.0766
  761MOL0     C  356   4.955   8.621  -0.159 -0.7731  0.0790  0.9665
  761MOL0     C  357   4.977   8.571  -0.306  0.2221 -0.8607 -0.6742
  761MOL0     C  358   5.041   8.423  -0.312  0.0709  0.1873  0.3372
  761MOL0     C  359   4.938   8.309  -0.309  0.4141  0.9896 -0.4718
  761MOL0     C  360   5.021   8.179  -0.331 -0.5213 -0.4669 -0.6884
  761MOL0     C  361   5.143   8.146  -0.239  0.3578 -0.3403 -0.6253
  761MOL0     C  362   5.099   8.133  -0.101 -0.1950  0.3688  0.2471
  761MOL0     C  363   5.195   8.059  -0.005 -0.0011 -0.1086  0.2076
  761MOL0    Cl  364   5.173   7.878  -0.020  0.3211  0.0604  0.0990
  761MOL0     C  365   4.847   8.684   0.109  0.0113  0.5989 -0.6121
  761MOL0     C  366   4.810   8.710   0.242 -0.7208 -1.2142  0.8904
  761MOL0     O  367   4.527   8.526   0.440  0.3658  1.3029 -0.5286
  761MOL0     C  368   4.628   8.733   0.709  0.2928 -0.6164  0.3754
  761MOL0     C  369   4.604   8.757   0.847  0.0121  0.1916  0.0442
  761MOL0     N  370   4.563   8.851   1.594 -0.0011 -0.9714 -0.2438
  761MOL0     N  371   4.676   8.908   1.622  0.4785  0.1049  1.1853
  761MOL0     C  372   4.788  10.198   1.701 -0.4112  0.9811 -0.1413
  761MOL0     C  373   4.879  10.288   1.640  0.0642  0.8675  0.2754
  761MOL0     C  374   5.323  10.498   1.619  0.9838 -0.6013  0.0652
  761MOL0     C  375   5.280  10.582   1.512 -0.4168  0.3503  0.6308
  761MOL0     C  376   5.367  10.686   1.462 -0.4267  0.8579  0.1922
  761MOL0     C  377   5.498  10.694   1.511  0.1709  1.0154 -0.3173
  761MOL0     O  378   5.598  10.774   1.462  0.0260 -0.0479 -0.1760
  761MOL0     C  379   5.578  10.854   1.347  0.3100 -0.5065 -0.3720
  761MOL0     C  380   5.677  10.962   1.363 -1.0456  0.4444 -1.4356
  761MOL0     C  381   5.711  11.044   1.240  0.4223 -0.3250  0.7987
  761MOL0     C  382   5.828  11.145   1.246  0.0381 -0.3411 -0.4318
  761MOL0     C  383   5.828  11.229   1.129 -0.4768 -0.1806  0.1518
  761MOL0     C  384   5.834  11.301   1.034  0.8124 -0.8751  0.0955
  761MOL0     C  385   5.530  10.619   1.616 -0.1463  0.4340  0.0063
  761MOL0     C  386   5.446  10.519   1.675 -0.7496 -0.1673  0.2823
  761MOL0     H  387   5.165  10.122   1.705 -0.8939 -1.1006  4.0715
  761MOL0     H  388   4.989   9.940   1.748 -1.3678  0.3617  0.0504
  761MOL0     H  389   4.661   9.835   1.851 -1.8178  5.0870 -0.9664
  761MOL0     H  390   4.836   9.835   1.880 -0.5528 -0.5031  0.3421
  761MOL0     H  391   4.883   9.765   1.635  0.0428  2.2658 -2.5532
  761MOL0     H  392   4.721   9.794   1.596 -1.2277 -3.4099 -0.9488
  761MOL0     H  393   4.653   9.612   1.751 -0.1442  1.6390  0.4923
  761MOL0     H  394   4.827   9.572   1.753  0.8881  1.8128  1.1460
  761MOL0     H  395   4.653   9.608   1.517 -0.0950  1.7180  4.1318
  761MOL0     H  396   4.829   9.574   1.498  0.6223  1.6516  1.3310
  761MOL0     H  397   4.695   9.360   1.468  0.3339 -0.8330  0.3480
  761MOL0     H  398   4.636   9.397   1.629  0.1657  1.8618  0.8577
  761MOL0     H  399   4.872   9.383   1.721 -1.6310  1.7668  0.1536
  761MOL0     H  400   4.933   9.342   1.571 -0.4480  3.8587 -1.2793
  761MOL0     H  401   4.928   9.160   1.720  0.5432  1.0690 -0.0721
  761MOL0     H  402   4.742   9.174   1.724 -0.0848 -1.0401 -0.0581
  761MOL0     H  403   4.914   9.034   1.548  2.2984  2.8611  3.6497
  761MOL0     H  404   4.835   9.163   1.451  2.9058 -0.7774 -0.7385
  761MOL0     H  405   4.587   9.059   1.350  0.0453 -3.2565 -1.8384
  761MOL0     H  406   4.318   8.990   1.437 -1.1417 -0.6945 -1.1026
  761MOL0     H  407   4.309   8.829   1.488 -1.3536  0.8207 -1.9379
  761MOL0     H  408   4.438   8.899   1.216 -1.9998  0.3741 -1.0175
  761MOL0     H  409   4.279   8.882   1.242  1.0115  3.3836 -0.0783
  761MOL0     H  410   4.502   8.687   1.308  0.8950 -0.9810 -2.2943
  761MOL0     H  411   4.328   8.642   1.332 -3.1335  1.1891 -1.3533
  761MOL0     H  412   4.310   8.639   1.084  0.8139 -1.5129 -2.3981
  761MOL0     H  413   4.416   8.533   1.152  3.1834 -0.3220 -1.8775
  761MOL0     H  414   4.470   8.453   0.930 -0.0334  1.3120  2.1909
  761MOL0     H  415   4.525   8.413   0.691  0.9757 -1.7779  2.3045
  761MOL0     H  416   4.704   8.412   0.338 -1.7989  2.9276  2.5773
  761MOL0     H  417   4.778   8.348   0.091 -0.2107 -0.8938  0.8267
  761MOL0     H  418   5.052   8.641  -0.112  0.7441 -0.1293 -1.9094
  761MOL0     H  419   4.903   8.717  -0.164 -0.1765  0.4497 -5.2980
  761MOL0     H  420   5.030   8.641  -0.372  0.2362 -2.3415 -2.2952
  761MOL0     H  421   4.879   8.563  -0.354  0.7875 -0.6881 -1.8995
  761MOL0     H  422   5.112   8.422  -0.228  1.4470 -0.0198 -0.7921
  761MOL0     H  423   5.103   8.417  -0.402  2.2667 -2.7727  1.8328
  761MOL0     H  424   4.891   8.295  -0.212  0.6822 -2.0191 -0.6738
  761MOL0     H  425   4.866   8.313  -0.391  2.3291  1.5336 -2.2298
  761MOL0     H  426   5.064   8.176  -0.432 -1.1054 -5.3066 -1.0556
  761MOL0     H  427   4.961   8.088  -0.321  2.1052 -2.1085  2.2684
  761MOL0     H  428   5.209   8.232  -0.250 -1.0969  1.1653  1.6165
  761MOL0     H  429   5.208   8.066  -0.276  0.4603 -1.1965  1.2629
  761MOL0     H  430   5.102   8.239  -0.074  2.4886  0.2770  0.6230
  761MOL0     H  431   5.005   8.080  -0.086  0.4570 -1.2473 -1.0941
  761MOL0     H  432   5.153   8.080   0.093 -5.3387 -0.6763 -1.6200
  761MOL0     H  433   5.298   8.093  -0.017 -1.0438  3.2151 -0.4352
  761MOL0     H  434   4.889   8.774   0.063 -0.7957  1.1929 -0.2239
  761MOL0     H  435   4.807   8.813   0.279 -1.3369 -0.7652 -0.3393
  761MOL0     H  436   4.668   8.820   0.657 -0.5752  0.7282  1.8399
  761MOL0     H  437   4.627   8.854   0.891  1.0367  0.0605 -0.1899
  761MOL0     H  438   4.681  10.217   1.700 -1.2232 -2.8026 -0.4876
  761MOL0     H  439   4.833  10.377   1.600  0.8651  1.9157  1.5953
  761MOL0     H  440   5.191  10.551   1.458  0.3567 -2.5615  0.8770
  761MOL0     H  441   5.335  10.729   1.367  0.0181  1.7512  0.4290
  761MOL0     H  442   5.482  10.905   1.354 -0.2000 -1.0676 -2.5157
  761MOL0     H  443   5.576  10.805   1.249 -0.1166  0.3232 -0.7839
  761MOL0     H  444   5.665  11.030   1.449  0.3735 -0.5471 -0.4036
  761MOL0     H  445   5.772  10.909   1.377  0.1398  2.7391 -0.1871
  761MOL0     H  446   5.616  11.092   1.213  1.1438  0.3698 -0.6563
  761MOL0     H  447   5.730  10.981   1.152 -1.6125  1.3685 -0.9626
  761MOL0     H  448   5.809  11.210   1.332 -0.3165 -0.8933 -0.0878
  761MOL0     H  449   5.921  11.090   1.258  1.7429  1.9827 -2.1335
  761MOL0     H  450   5.826  11.360   0.945  0.3203 -1.2081 -0.0908
  761MOL0     H  451   5.629  10.607   1.658 -0.8301  0.2219  1.6280
  761MOL0     H  452   5.466  10.471   1.770 -0.3735 -0.2690  0.1544
  762MOL0     O  453   5.125  10.713   0.988  0.5834  0.4851 -0.5450
  762MOL0     C  454   5.177  10.825   1.011 -0.7570 -0.6469 -0.0625
  762MOL0     O  455   5.168  10.901   1.134 -0.1941  0.0609 -0.4321
  762MOL0     C  456   5.074  10.865   1.231 -0.8388 -0.6208  0.4296
  762MOL0     C  457   4.987  10.961   1.286  0.4702  0.7959 -0.9522
  762MOL0     C  458   4.894  10.913   1.379 -0.4057  0.6282 -0.4262
  762MOL0     C  459   4.884  10.785   1.425 -0.6201  0.1850 -0.5338
  762MOL0     O  460   4.768  10.749   1.493 -0.0223 -0.7004 -0.4999
  762MOL0     C  461   4.767  10.789   1.635  0.5136  0.5069 -0.6072
  762MOL0     C  462   4.821  10.676   1.728  0.2785 -0.0502 -0.2587
  762MOL0     C  463   4.813  10.713   1.871 -0.3782 -0.1559  0.0020
  762MOL0     C  464   4.921  10.644   1.948 -0.2223  0.7881 -0.9954
  762MOL0     C  465   4.902  10.628   2.109 -0.5153 -0.4290 -0.1280
  762MOL0     C  466   4.949  10.743   2.197 -0.3075 -0.9092 -0.1619
  762MOL0     C  467   4.881  10.879   2.177 -0.7035 -0.4666  0.1036
  762MOL0     C  468   4.729  10.881   2.201 -1.0022  0.8090  1.0953
  762MOL0     N  469   4.697  10.878   2.348  0.3482  0.6704  0.2439
  762MOL0     C  470   4.661  10.767   2.418 -0.3925 -0.9991 -0.4756
  762MOL0     C  471   4.586  10.814   2.521 -0.0028 -0.5939 -0.3023
  762MOL0     C  472   4.515  10.734   2.621 -0.1450 -0.3402  0.8766
  762MOL0     C  473   4.365  10.757   2.592 -0.6255  0.0546  1.1520
  762MOL0     C  474   4.271  10.695   2.697  0.0284  0.6383  0.7684
  762MOL0     C  475   4.289  10.751   2.837 -0.0094  0.8165 -0.2068
  762MOL0     O  476   4.249  10.886   2.820 -0.5288  0.1192 -0.2268
  762MOL0     C  477   4.285  10.982   2.908 -0.4842  0.4080 -0.5467
  762MOL0     C  478   4.351  10.968   3.030  0.3696  0.8528  0.3284
  762MOL0     C  479   4.375  11.065   3.118 -0.1232  0.8103  0.5681
  762MOL0     C  480   4.343  11.197   3.085  0.4577 -0.5517 -0.7397
  762MOL0     C  481   4.374  11.311   3.178 -0.6488  1.0372 -1.0453
  762MOL0     O  482   4.320  11.432   3.163 -0.1880 -0.7708  0.9542
  762MOL0     C  483   4.344  11.538   3.240  0.4778 -0.0147 -0.1228
  762MOL0     C  484   4.454  11.569   3.318 -0.7550 -0.9299  0.6295
  762MOL0     C  485   4.446  11.672   3.414 -0.6846  0.8211  0.7389
  762MOL0     C  486   4.335  11.750   3.428  0.6050 -0.2627 -0.2564
  762MOL0     O  487   4.334  11.844   3.528 -0.3570  0.8259  0.4275
  762MOL0     C  488   4.259  11.964   3.523 -0.8346  0.2264  0.0181
  762MOL0     C  489   4.319  12.077   3.580 -0.0762  0.9308  0.2344
  762MOL0     C  490   4.331  12.060   3.731 -0.4373  0.1769  0.0592
  762MOL0     C  491   4.401  12.181   3.796  0.5478 -0.3687 -0.2650
  762MOL0     C  492   4.543  12.206   3.759 -0.3343 -0.2128  0.8830
  762MOL0     C  493   4.571  12.342   3.692  0.4257 -0.5500  1.4181
  762MOL0     C  494   4.711  12.345   3.637 -0.6639  0.3632  0.5237
  762MOL0     C  495   4.746  12.260   3.521 -0.1683  0.1083  0.4118
  762MOL0    Cl  496   4.657  12.301   3.377 -0.0381 -0.0905  0.3029
  762MOL0     C  497   4.219  11.713   3.358  0.5742 -0.4107  0.2500
  762MOL0     C  498   4.233  11.615   3.258  0.2684  0.1507  0.2240
  762MOL0     O  499   4.455  11.286   3.272  0.3762 -0.1199 -0.1761
  762MOL0     C  500   4.285  11.231   2.961  0.0419  0.4336 -0.1730
  762MOL0     C  501   4.261  11.119   2.878  0.6907 -0.3132 -0.0664
  762MOL0     N  502   4.579  10.952   2.507  0.2258 -0.5763  0.2499
  762MOL0     N  503   4.652  10.995   2.405  0.2787  0.8318 -0.0432
  762MOL0     C  504   4.977  10.693   1.379 -0.6115 -0.3395  0.3764
  762MOL0     C  505   5.068  10.735   1.278  0.5983  0.1304 -0.5236
  762MOL0     C  506   5.269  10.868   0.903  0.4795  0.3462 -0.1236
  762MOL0     C  507   5.272  10.811   0.776  0.6790 -0.0903  0.3146
  762MOL0     C  508   5.350  10.871   0.677 -0.6514 -0.5383 -0.2398
  762MOL0     C  509   5.438  10.985   0.703  0.2507  0.3914 -0.0276
  762MOL0     O  510   5.514  11.051   0.612 -0.5850 -0.0919  0.2222
  762MOL0     C  511   5.557  10.974   0.507  0.3643  0.2907 -0.2729
  762MOL0     C  512   5.687  11.029   0.455 -0.3908  0.1705  0.1733
  762MOL0     C  513   5.752  10.945   0.343  0.5716 -0.1930  0.2342
  762MOL0     C  514   5.885  11.010   0.294  0.2333  0.0019 -0.2375
  762MOL0     C  515   6.000  10.931   0.356 -0.2332 -0.2089 -0.0461
  762MOL0     C  516   6.087  10.870   0.414  0.1667  0.1374 -0.2557
  762MOL0     C  517   5.436  11.033   0.830 -0.3851  0.5532 -0.1682
  762MOL0     C  518   5.352  10.978   0.926 -0.5522 -0.2325  0.2728
  762MOL0     H  519   4.972  11.065   1.262 -1.1988  0.8873  0.3049
  762MOL0     H  520   4.817  10.982   1.412  1.2969  1.2545  2.6446
  762MOL0     H  521   4.663  10.808   1.664  0.3515 -1.2600  0.1377
  762MOL0     H  522   4.817  10.885   1.647  0.3283  0.4881  0.4628
  762MOL0     H  523   4.926  10.654   1.705  1.0495 -3.0920  4.7069
  762MOL0     H  524   4.776  10.577   1.717 -2.3156  0.9471  0.5324
  762MOL0     H  525   4.720  10.688   1.922  0.2116  1.2369  1.9034
  762MOL0     H  526   4.830  10.821   1.869  0.0946 -0.2337 -1.8278
  762MOL0     H  527   4.921  10.542   1.910 -3.2434  0.3887 -0.1992
  762MOL0     H  528   5.022  10.679   1.927  0.4055  0.6588  1.5421
  762MOL0     H  529   4.957  10.537   2.137  1.2699  0.9446  1.0056
  762MOL0     H  530   4.796  10.610   2.127 -0.9914 -0.0055 -2.1655
  762MOL0     H  531   5.057  10.754   2.184 -0.5418  1.1045 -0.6371
  762MOL0     H  532   4.930  10.715   2.301  0.5217 -2.1401 -0.3103
  762MOL0     H  533   4.934  10.958   2.231 -0.7576  0.2246 -0.8457
  762MOL0     H  534   4.911  10.912   2.078  1.1144 -1.7952  0.1671
  762MOL0     H  535   4.686  10.796   2.146  1.4067  0.8139 -0.9827
  762MOL0     H  536   4.679  10.964   2.152 -1.0095 -1.2042 -2.7003
  762MOL0     H  537   4.674  10.667   2.378 -0.7339  0.2141 -3.9944
  762MOL0     H  538   4.540  10.771   2.721 -1.2306 -3.0129  2.2277
  762MOL0     H  539   4.553  10.632   2.616 -0.2989 -0.3504 -0.4760
  762MOL0     H  540   4.345  10.702   2.500  0.9421 -1.2731  1.5478
  762MOL0     H  541   4.333  10.860   2.577  1.1855  0.7516  1.7999
  762MOL0     H  542   4.172  10.717   2.657  0.7418  1.7617 -0.4669
  762MOL0     H  543   4.272  10.586   2.700 -2.7108  0.4122 -2.0576
  762MOL0     H  544   4.393  10.737   2.868 -0.9245 -1.2442  2.2834
  762MOL0     H  545   4.221  10.699   2.905  1.3569 -0.0555  0.5255
  762MOL0     H  546   4.387  10.874   3.071  1.4865  1.4864  0.8414
  762MOL0     H  547   4.420  11.040   3.214  0.3391 -0.2189  0.1021
  762MOL0     H  548   4.551  11.520   3.308  0.9159  2.2236  0.2619
  762MOL0     H  549   4.528  11.662   3.484  1.0794 -1.2046 -1.4598
  762MOL0     H  550   4.161  11.942   3.567 -1.8324  0.8808 -1.7701
  762MOL0     H  551   4.252  11.991   3.417  3.5166  1.4852 -0.1422
  762MOL0     H  552   4.260  12.164   3.552 -2.5450 -0.0102  2.0832
  762MOL0     H  553   4.419  12.074   3.536  0.1195 -1.0136  0.7219
  762MOL0     H  554   4.391  11.971   3.752 -2.1120 -0.7832  1.0290
  762MOL0     H  555   4.234  12.054   3.780 -0.8904  3.8286 -0.1054
  762MOL0     H  556   4.338  12.266   3.768  1.8369  0.5435 -0.4938
  762MOL0     H  557   4.399  12.178   3.905  0.0153  2.0290 -0.1525
  762MOL0     H  558   4.578  12.127   3.693 -1.0542 -0.7554  1.1494
  762MOL0     H  559   4.613  12.187   3.841  1.0411 -0.7265 -0.3727
  762MOL0     H  560   4.559  12.411   3.776 -2.9803  0.9908 -0.1414
  762MOL0     H  561   4.498  12.380   3.619 -1.1365 -2.2441  2.0255
  762MOL0     H  562   4.741  12.447   3.611  2.7121 -0.7643 -0.4858
  762MOL0     H  563   4.769  12.310   3.723  0.5910 -1.0963 -0.8701
  762MOL0     H  564   4.741  12.152   3.541  0.4956 -0.2207 -1.0677
  762MOL0     H  565   4.850  12.277   3.493 -0.2799  0.1863  0.0234
  762MOL0     H  566   4.129  11.771   3.378  0.6525 -0.4041  0.5953
  762MOL0     H  567   4.146  11.589   3.198  0.1220  3.8358 -1.4065
  762MOL0     H  568   4.260  11.333   2.933 -2.1804 -0.5324 -1.9290
  762MOL0     H  569   4.220  11.143   2.781 -0.4308 -0.4173  0.3679
  762MOL0     H  570   4.971  10.593   1.419  0.3511 -0.2917  0.6753
  762MOL0     H  571   5.133  10.655   1.243 -1.2137 -1.0233 -1.3820
  762MOL0     H  572   5.210  10.725   0.753  0.7659 -0.1736  0.4008
  762MOL0     H  573   5.341  10.822   0.581 -5.3111 -2.9425  1.1540
  762MOL0     H  574   5.479  10.985   0.431  1.5079  2.6606 -1.1827
  762MOL0     H  575   5.558  10.868   0.535 -0.7732 -0.7989 -3.7796
  762MOL0     H  576   5.655  11.127   0.420 -0.4608  0.5003  1.1467
  762MOL0     H  577   5.762  11.040   0.534  0.2886 -0.7232 -0.3155
  762MOL0     H  578   5.673  10.952   0.267 -1.6377  1.1885  2.5179
  762MOL0     H  579   5.768  10.839   0.366  1.6794  0.4314  2.6428
  762MOL0     H  580   5.894  10.996   0.186 -0.5703 -2.9765 -0.0030
  762MOL0     H  581   5.900  11.110   0.337 -2.7730 -0.0978  1.3706
  762MOL0     H  582   6.158  10.807   0.464 -2.8418 -1.7830  1.9632
  762MOL0     H  583   5.507  11.110   0.856  1.1125 -0.6994 -0.4446
  762MOL0     H  584   5.371  11.009   1.028 -5.4224 -0.4281  1.4621
  763MOL0     O  585   9.164   4.182   0.891  0.2059  0.4401 -0.0301
  763MOL0     C  586   9.165   4.152   1.014 -0.2843  0.4361 -0.0879
  763MOL0     O  587   9.065   4.179   1.112 -0.1107 -0.1494  0.4177
  763MOL0     C  588   8.931   4.178   1.070 -0.1146  0.4286 -0.7962
  763MOL0     C  589   8.864   4.051   1.068  0.0200 -0.2716  0.6549
  763MOL0     C  590   8.735   4.044   1.015  0.3262 -0.7415  0.2492
  763MOL0     C  591   8.662   4.160   0.979 -0.1194  0.2386  0.3053
  763MOL0     O  592   8.534   4.141   0.929 -0.2085  0.5665  0.0088
  763MOL0     C  593   8.434   4.232   0.973  0.5292 -0.3329 -0.2347
  763MOL0     C  594   8.304   4.162   0.938  0.5513  0.6813  0.3603
  763MOL0     C  595   8.188   4.238   0.997  1.0195  0.4327 -0.3082
  763MOL0     C  596   8.058   4.184   0.933 -0.2392 -0.4489  0.4574
  763MOL0     C  597   7.941   4.255   0.984 -0.5228 -0.4635  0.6988
  763MOL0     C  598   7.928   4.399   0.918  0.6982 -0.0091 -0.2251
  763MOL0     C  599   7.792   4.469   0.961  0.5871 -0.5917  0.1839
  763MOL0     C  600   7.792   4.607   0.903  0.3234 -0.6936  0.0256
  763MOL0     N  601   7.676   4.688   0.962  1.1470 -0.2458  0.4456
  763MOL0     C  602   7.549   4.706   0.900 -0.0366 -0.7478  0.1148
  763MOL0     C  603   7.483   4.770   0.990 -0.4462  0.1272 -1.0529
  763MOL0     C  604   7.347   4.821   0.976  0.4489  0.2136  0.5531
  763MOL0     C  605   7.354   4.979   0.951  0.5009  1.0037 -0.6577
  763MOL0     C  606   7.239   5.029   1.034 -0.4320  0.6244  0.1604
  763MOL0     C  607   7.227   5.180   1.061  0.2053  0.1658 -0.5981
  763MOL0     O  608   7.090   5.229   1.045  0.2426  0.7721 -0.3087
  763MOL0     C  609   7.065   5.335   0.971 -0.0885  0.5182  0.0541
  763MOL0     C  610   6.958   5.423   1.013  0.1656 -0.5052 -0.5407
  763MOL0     C  611   6.913   5.534   0.936  0.1247 -0.4502  0.9512
  763MOL0     C  612   6.983   5.567   0.811 -1.2643  0.0877  0.3793
  763MOL0     C  613   6.950   5.688   0.728  1.0575 -0.3073 -0.2013
  763MOL0     O  614   6.838   5.752   0.771  0.7541  0.8533 -0.3320
  763MOL0     C  615   6.734   5.794   0.692  0.4722 -0.5197  0.4525
  763MOL0     C  616   6.633   5.865   0.755  0.0251 -1.0073  0.0893
  763MOL0     C  617   6.519   5.911   0.692  0.3795  0.4737  0.0520
  763MOL0     C  618   6.488   5.880   0.563  1.1296  1.2427  0.7854
  763MOL0     O  619   6.366   5.923   0.500  0.2152  0.1073 -0.1351
  763MOL0     C  620   6.269   5.817   0.499 -0.0255 -0.0899 -0.2427
  763MOL0     C  621   6.141   5.836   0.574 -1.2939  0.1548 -0.0430
  763MOL0     C  622   6.181   5.851   0.722 -0.8123  0.1365  0.6254
  763MOL0     C  623   6.071   5.837   0.828  0.4206 -0.7097 -0.4013
  763MOL0     C  624   6.110   5.903   0.965 -0.1349  0.8212  1.0839
  763MOL0     C  625   6.141   5.789   1.068  0.0028  0.2816 -0.4078
  763MOL0     C  626   6.272   5.705   1.045 -0.2884 -0.3153 -0.4537
  763MOL0     C  627   6.348   5.665   1.167 -0.2156  0.6834 -0.1665
  763MOL0    Cl  628   6.514   5.620   1.120 -0.3267 -0.0431  0.0752
  763MOL0     C  629   6.584   5.804   0.491  0.2912 -0.4633 -0.2284
  763MOL0     C  630   6.718   5.771   0.554 -0.1723  0.0383  0.4527
  763MOL0     O  631   7.014   5.718   0.633 -0.3857  0.0506 -1.0743
  763MOL0     C  632   7.075   5.472   0.761 -0.2150  0.1868  0.0021
  763MOL0     C  633   7.123   5.370   0.841 -0.6634  0.7213 -0.6524
  763MOL0     N  634   7.568   4.786   1.106 -0.2190 -1.0283 -0.2332
  763MOL0     N  635   7.683   4.747   1.081  1.2171 -0.3381 -0.0046
  763MOL0     C  636   8.722   4.289   0.995  0.4726  0.4234 -0.6021
  763MOL0     C  637   8.862   4.294   1.041  0.2694  0.9199 -0.0497
  763MOL0     C  638   9.266   4.063   1.070  0.2419  0.3014 -0.4560
  763MOL0     C  639   9.328   3.974   0.985 -0.1373 -0.1751  0.2983
  763MOL0     C  640   9.411   3.873   1.041  0.1063  0.1935 -0.4922
  763MOL0     C  641   9.440   3.874   1.175 -0.5283 -0.0404 -0.0454
  763MOL0     O  642   9.518   3.764   1.217  0.0194 -0.1404  0.5124
  763MOL0     C  643   9.551   3.740   1.354 -0.5310 -0.2778  0.1867
  763MOL0     C  644   9.452   3.641   1.410  0.0866 -0.1353 -0.0874
  763MOL0     C  645   9.508   3.592   1.540  1.1064  0.5177  0.1936
  763MOL0     C  646   9.398   3.506   1.616  0.3347  0.2048 -0.3287
  763MOL0     C  647   9.411   3.375   1.565 -0.5141  0.3419  0.3292
  763MOL0     C  648   9.415   3.259   1.523 -0.6984  0.4554 -1.0179
  763MOL0     C  649   9.389   3.961   1.264  0.1816 -0.0689  0.3691
  763MOL0     C  650   9.289   4.060   1.212  0.0052  0.4438 -0.0751
  763MOL0     H  651   8.902   3.957   1.104 -0.2522 -1.4102 -1.8054
  763MOL0     H  652   8.679   3.952   1.001  1.0798 -1.1173 -0.3904
  763MOL0     H  653   8.435   4.333   0.932  1.0438 -0.4754 -0.5806
  763MOL0     H  654   8.440   4.238   1.083  1.2962  1.1874 -0.3375
  763MOL0     H  655   8.287   4.061   0.978  1.5089  0.3716  0.0163
  763MOL0     H  656   8.297   4.156   0.829 -1.1384 -2.7409  0.4979
  763MOL0     H  657   8.189   4.347   0.985 -1.2845  0.2944 -2.3944
  763MOL0     H  658   8.179   4.217   1.104  0.4783 -1.6931 -0.7400
  763MOL0     H  659   8.070   4.201   0.825  0.7025  0.6102  0.7170
  763MOL0     H  660   8.049   4.077   0.955 -3.5371 -0.4254 -0.2029
  763MOL0     H  661   7.922   4.257   1.092  1.4248 -6.0357  1.4904
  763MOL0     H  662   7.863   4.192   0.940 -0.4716  0.6589 -1.1135
  763MOL0     H  663   7.944   4.394   0.810  1.4823  3.1204 -0.3407
  763MOL0     H  664   8.001   4.459   0.974  0.3391 -1.3974  1.8393
  763MOL0     H  665   7.705   4.410   0.931  0.3497 -0.3038  0.3005
  763MOL0     H  666   7.781   4.492   1.067 -2.3298 -1.6047  0.1775
  763MOL0     H  667   7.776   4.613   0.795 -0.6526 -0.1558  0.1871
  763MOL0     H  668   7.878   4.656   0.948 -0.1704 -0.5964  0.8735
  763MOL0     H  669   7.500   4.690   0.805 -2.6051  3.0634  0.5628
  763MOL0     H  670   7.298   4.787   1.068 -0.9686  0.0262 -0.2376
  763MOL0     H  671   7.311   4.768   0.887  2.8347  0.4447 -0.6356
  763MOL0     H  672   7.353   5.013   0.847 -0.6235  2.4219 -0.2167
  763MOL0     H  673   7.437   5.021   1.009 -0.9862  2.9722  0.1465
  763MOL0     H  674   7.144   5.002   0.989 -1.4212  1.9695  1.3606
  763MOL0     H  675   7.239   4.989   1.136 -2.4339 -1.0934 -0.4630
  763MOL0     H  676   7.287   5.243   0.995  1.4995  3.1250  3.1008
  763MOL0     H  677   7.250   5.190   1.167 -5.8008  2.2937  0.8964
  763MOL0     H  678   6.905   5.406   1.106 -1.4854  1.5015 -1.0378
  763MOL0     H  679   6.834   5.582   0.993 -0.4247 -2.1572  1.6899
  763MOL0     H  680   6.648   5.884   0.861  0.2782  1.1640 -0.2852
  763MOL0     H  681   6.444   5.970   0.742 -0.1180 -1.3849  1.6349
  763MOL0     H  682   6.310   5.725   0.541  1.0517  1.9076  3.5378
  763MOL0     H  683   6.251   5.801   0.392 -3.6243 -1.1120  0.3864
  763MOL0     H  684   6.062   5.761   0.561 -2.1235  1.0273 -0.1543
  763MOL0     H  685   6.103   5.929   0.530 -1.0446 -0.2233 -1.0933
  763MOL0     H  686   6.243   5.940   0.738  0.0143 -0.4788  0.9222
  763MOL0     H  687   6.247   5.766   0.745  1.4146  1.4911 -0.3992
  763MOL0     H  688   5.976   5.879   0.795  1.6446  0.0640 -3.2449
  763MOL0     H  689   6.059   5.729   0.846 -1.7276 -0.3592  0.6050
  763MOL0     H  690   6.037   5.968   1.012 -0.6027 -0.4326  2.1531
  763MOL0     H  691   6.205   5.956   0.954  0.4944 -0.3769  0.5114
  763MOL0     H  692   6.059   5.717   1.067  2.1275 -2.2985 -0.2448
  763MOL0     H  693   6.144   5.834   1.168  1.3777 -1.2334  0.2852
  763MOL0     H  694   6.252   5.619   0.981 -1.1458  0.8903 -1.8713
  763MOL0     H  695   6.347   5.770   0.999  1.2917  0.1062  2.4616
  763MOL0     H  696   6.300   5.589   1.230  1.3202 -2.3178 -2.3566
  763MOL0     H  697   6.364   5.749   1.236 -3.4389  0.7183  0.7010
  763MOL0     H  698   6.571   5.778   0.386 -0.3691  1.1759 -0.5722
  763MOL0     H  699   6.801   5.728   0.500 -1.2725 -1.3197 -0.2263
  763MOL0     H  700   7.123   5.507   0.671 -0.7274  2.0729  0.4237
  763MOL0     H  701   7.193   5.301   0.793 -2.3572 -1.2328 -0.4498
  763MOL0     H  702   8.664   4.378   0.971  1.4176  1.8671  2.0824
  763MOL0     H  703   8.918   4.386   1.051  0.6786  0.9266 -2.1443
  763MOL0     H  704   9.315   3.976   0.877  1.1645  1.1256  0.1345
  763MOL0     H  705   9.466   3.814   0.969  0.0594  1.1959 -1.3665
  763MOL0     H  706   9.553   3.825   1.423 -2.6077  0.2940 -0.4048
  763MOL0     H  707   9.650   3.693   1.359  0.0262  0.9475  1.4518
  763MOL0     H  708   9.356   3.686   1.437  0.8995 -0.2552  3.6227
  763MOL0     H  709   9.448   3.558   1.339  0.9242 -0.6576  0.4605
  763MOL0     H  710   9.530   3.687   1.589 -0.5445  0.7535  0.5450
  763MOL0     H  711   9.598   3.533   1.520  1.0609  0.7989 -0.9065
  763MOL0     H  712   9.416   3.501   1.724 -0.5393 -0.5902 -0.2052
  763MOL0     H  713   9.299   3.550   1.603  1.3138  2.4426 -0.8068
  763MOL0     H  714   9.422   3.163   1.477 -1.2398  0.0624 -0.3149
  763MOL0     H  715   9.404   3.942   1.370 -0.8012  1.9091  0.9161
  763MOL0     H  716   9.241   4.129   1.282 -3.7167 -0.2355 -1.7664
  764MOL0     O  717   3.259   6.695   3.962  0.1545 -0.1824  0.3364
  764MOL0     C  718   3.234   6.792   4.035 -0.0340 -0.3067 -0.2141
  764MOL0     O  719   3.247   6.923   3.996 -1.0418 -0.4505  0.6517
  764MOL0     C  720   3.337   6.946   3.893 -0.4630 -0.6573  1.0555
  764MOL0     C  721   3.292   6.973   3.757 -0.2435 -0.2617 -0.4662
  764MOL0     C  722   3.383   7.025   3.653  0.5438  0.8343 -0.2219
  764MOL0     C  723   3.515   7.032   3.680  0.4149 -1.0384  0.6446
  764MOL0     O  724   3.581   7.080   3.569 -0.2470  0.1667  0.5632
  764MOL0     C  725   3.723   7.093   3.579 -0.7652 -0.4680 -1.5432
  764MOL0     C  726   3.771   7.154   3.447  0.3651  0.5055 -1.0695
  764MOL0     C  727   3.918   7.209   3.451  0.7013  0.4533 -0.1518
  764MOL0     C  728   3.972   7.233   3.322 -0.3046  0.7465  0.8710
  764MOL0     C  729   4.124   7.272   3.314  0.4953 -0.8270 -0.6454
  764MOL0     C  730   4.159   7.413   3.372 -0.0482 -0.4067 -0.8958
  764MOL0     C  731   4.313   7.414   3.360 -0.4076 -0.7713  0.0611
  764MOL0     C  732   4.365   7.509   3.258  0.0312 -0.2355 -0.2823
  764MOL0     N  733   4.338   7.649   3.297 -0.1740  0.1751  0.2204
  764MOL0     C  734   4.408   7.721   3.377  0.0656 -0.2046 -1.5923
  764MOL0     C  735   4.329   7.834   3.401  0.3473  0.4679 -1.3176
  764MOL0     C  736   4.347   7.953   3.480 -0.1757 -0.9927 -0.4172
  764MOL0     C  737   4.428   7.916   3.606  0.2690  0.0919  0.3587
  764MOL0     C  738   4.462   8.031   3.697  0.8974 -0.1813 -0.5730
  764MOL0     C  739   4.348   8.068   3.790  0.6144 -0.9019 -0.4634
  764MOL0     O  740   4.378   8.192   3.863 -0.7384 -0.3096  0.1651
  764MOL0     C  741   4.282   8.275   3.925 -0.3976 -0.4212 -0.5351
  764MOL0     C  742   4.328   8.348   4.037 -0.6717 -0.7031  0.0801
  764MOL0     C  743   4.251   8.444   4.111 -0.5395 -0.5832  0.5859
  764MOL0     C  744   4.120   8.448   4.070  0.9850 -0.5619  0.9660
  764MOL0     C  745   4.023   8.551   4.131  0.3283 -0.2537 -1.3149
  764MOL0     O  746   3.899   8.563   4.087  1.1823  0.4292 -0.0406
  764MOL0     C  747   3.837   8.679   4.122 -0.4757 -0.1219  0.2898
  764MOL0     C  748   3.801   8.775   4.031  0.2270 -0.1521  0.8440
  764MOL0     C  749   3.712   8.876   4.065 -0.0070 -0.1980  0.1069
  764MOL0     C  750   3.650   8.881   4.192  0.5665  0.5310  0.7963
  764MOL0     O  751   3.547   8.970   4.217  0.4566  0.4314  0.1171
  764MOL0     C  752   3.496   8.997   4.348 -0.1333 -0.6713 -0.5077
  764MOL0     C  753   3.436   9.138   4.335  0.8625  0.6128  0.8627
  764MOL0     C  754   3.300   9.130   4.273  0.3772  0.0985  0.0913
  764MOL0     C  755   3.253   9.259   4.209 -0.4227  0.0746 -0.4091
  764MOL0     C  756   3.127   9.219   4.135 -1.4340 -0.3960  0.0680
  764MOL0     C  757   3.038   9.337   4.107  0.4324 -0.2812  0.3780
  764MOL0     C  758   2.902   9.301   4.044  0.0283  0.2870 -0.0544
  764MOL0     C  759   2.801   9.324   4.155  0.1676 -0.0450 -0.3669
  764MOL0    Cl  760   2.794   9.489   4.188  0.4578 -0.1349  0.4697
  764MOL0     C  761   3.697   8.793   4.292 -0.1707 -0.2479  0.7136
  764MOL0     C  762   3.798   8.699   4.252 -1.2750  0.1979  0.5086
  764MOL0     O  763   4.069   8.613   4.228 -0.7965  0.7632 -0.4625
  764MOL0     C  764   4.073   8.374   3.959  0.1182  0.2386  0.3457
  764MOL0     C  765   4.147   8.288   3.888  0.4852  1.8871 -1.1950
  764MOL0     N  766   4.218   7.824   3.326  0.3791 -0.2861  0.2465
  764MOL0     N  767   4.224   7.713   3.270 -1.1218  0.3993 -0.2849
  764MOL0     C  768   3.562   6.998   3.802  0.1423 -0.2433  0.5758
  764MOL0     C  769   3.482   6.941   3.902 -0.6517 -0.5422 -0.1732
  764MOL0     C  770   3.158   6.763   4.156  0.0858 -0.2569 -0.6124
  764MOL0     C  771   3.157   6.639   4.218  0.0810  0.0071  0.2515
  764MOL0     C  772   3.082   6.612   4.334  0.3910 -0.6014 -0.3256
  764MOL0     C  773   3.008   6.711   4.395 -0.5872 -0.9267  0.4114
  764MOL0     O  774   2.935   6.674   4.508  0.5327  0.9249 -0.2700
  764MOL0     C  775   2.910   6.763   4.616 -0.7582 -0.2077  0.0227
  764MOL0     C  776   3.030   6.744   4.707  0.0739 -0.2623  0.9695
  764MOL0     C  777   3.038   6.844   4.818  0.4002  0.4708 -0.5451
  764MOL0     C  778   3.151   6.840   4.929  0.1047  0.4053  0.7491
  764MOL0     C  779   3.120   6.939   5.041  0.0724  0.8459 -0.0982
  764MOL0     C  780   3.082   7.005   5.132  0.3018 -0.1837 -0.3376
  764MOL0     C  781   3.000   6.839   4.331  0.3438 -0.2880  1.1491
  764MOL0     C  782   3.088   6.873   4.218  0.5486  0.6747 -0.2916
  764MOL0     H  783   3.187   6.967   3.728  0.4363  2.7200 -4.5098
  764MOL0     H  784   3.334   7.027   3.556  1.4776  1.3939 -0.6888
  764MOL0     H  785   3.777   6.997   3.582 -1.4123 -0.8452  2.0667
  764MOL0     H  786   3.757   7.146   3.668  0.0001 -2.9632 -0.2457
  764MOL0     H  787   3.704   7.239   3.432 -0.1952  0.6754  1.8182
  764MOL0     H  788   3.772   7.071   3.375 -1.8139 -0.6158  0.0844
  764MOL0     H  789   3.967   7.132   3.512  0.0013  0.7109  0.7684
  764MOL0     H  790   3.907   7.303   3.506  0.1567  0.9408 -1.0689
  764MOL0     H  791   3.964   7.140   3.263  4.2181  0.1768  0.8323
  764MOL0     H  792   3.905   7.303   3.271 -1.0929 -0.5911  0.0040
  764MOL0     H  793   4.157   7.276   3.210 -1.4480  0.1994 -1.2636
  764MOL0     H  794   4.183   7.197   3.368  1.2803  0.2884  0.0841
  764MOL0     H  795   4.125   7.413   3.476  2.0879 -1.4007 -0.1450
  764MOL0     H  796   4.100   7.488   3.320  0.6029  0.9527  0.2769
  764MOL0     H  797   4.364   7.438   3.454 -1.5547 -1.2916  0.8355
  764MOL0     H  798   4.368   7.320   3.348  2.3409  0.3300  2.5811
  764MOL0     H  799   4.317   7.489   3.162 -1.6611  2.2684 -0.0525
  764MOL0     H  800   4.473   7.493   3.257 -0.0181 -0.8624  1.4269
  764MOL0     H  801   4.500   7.694   3.429 -1.7422 -1.3213  1.2893
  764MOL0     H  802   4.251   8.001   3.501  0.2491  0.8443 -2.3071
  764MOL0     H  803   4.395   8.018   3.407 -0.7089 -0.5277 -0.3617
  764MOL0     H  804   4.523   7.874   3.572  1.0054  1.0751  1.1368
  764MOL0     H  805   4.367   7.845   3.662  0.5965 -0.7826 -0.3686
  764MOL0     H  806   4.541   8.003   3.767 -0.5504 -2.0693  0.4111
  764MOL0     H  807   4.499   8.115   3.637 -0.4063  0.3104 -0.7367
  764MOL0     H  808   4.314   7.987   3.855  1.6016 -1.0841 -0.1660
  764MOL0     H  809   4.260   8.089   3.728 -0.4056  1.2974  1.5458
  764MOL0     H  810   4.436   8.355   4.051 -0.9872 -0.8907  3.3159
  764MOL0     H  811   4.297   8.517   4.177 -2.1197 -1.3155  2.6071
  764MOL0     H  812   3.833   8.763   3.928 -1.4634 -0.0220  0.2723
  764MOL0     H  813   3.682   8.955   3.997 -2.3439 -2.3228 -1.4899
  764MOL0     H  814   3.578   9.005   4.420 -1.2354  0.3391  0.6869
  764MOL0     H  815   3.424   8.916   4.363 -0.3542 -1.0535 -3.2469
  764MOL0     H  816   3.502   9.203   4.277  0.2066  0.8642  0.3831
  764MOL0     H  817   3.445   9.156   4.443  2.0122 -1.2531  1.1244
  764MOL0     H  818   3.225   9.101   4.348 -1.4903  2.7036 -0.6331
  764MOL0     H  819   3.315   9.056   4.194  1.4705  0.8365 -0.4114
  764MOL0     H  820   3.245   9.327   4.295  0.6957  0.1521 -0.3601
  764MOL0     H  821   3.325   9.299   4.137  1.2371  0.7840  1.5487
  764MOL0     H  822   3.072   9.146   4.197  3.1373 -4.3947 -0.0158
  764MOL0     H  823   3.155   9.174   4.040 -0.2915  3.1844 -1.4550
  764MOL0     H  824   3.086   9.411   4.041  2.1939 -2.0803 -0.4568
  764MOL0     H  825   3.028   9.399   4.196 -2.1485  1.8447 -1.1965
  764MOL0     H  826   2.874   9.368   3.962 -2.1650 -2.1841 -1.4846
  764MOL0     H  827   2.897   9.201   4.000 -0.3991  0.3168 -0.0805
  764MOL0     H  828   2.820   9.282   4.255  0.0619  2.2652  0.6970
  764MOL0     H  829   2.701   9.283   4.138  0.0579  0.2698 -0.4905
  764MOL0     H  830   3.659   8.802   4.393  1.2920  0.7766  1.2073
  764MOL0     H  831   3.837   8.632   4.328 -0.9433 -0.2443 -0.0378
  764MOL0     H  832   3.969   8.388   3.930 -0.4599 -0.0706  2.1833
  764MOL0     H  833   4.106   8.217   3.817  1.0269 -0.6576  0.8510
  764MOL0     H  834   3.665   7.021   3.826 -0.1987  3.7051 -1.0061
  764MOL0     H  835   3.523   6.925   4.001 -3.3428 -1.8039  0.8458
  764MOL0     H  836   3.208   6.557   4.170 -1.1058 -1.6435  1.6576
  764MOL0     H  837   3.074   6.511   4.374 -0.2837 -0.8811 -1.1477
  764MOL0     H  838   2.814   6.737   4.662 -0.7493 -1.7509 -0.7735
  764MOL0     H  839   2.905   6.863   4.572 -1.2342  1.1131  2.8785
  764MOL0     H  840   3.029   6.638   4.736  1.9785 -0.2721  1.1718
  764MOL0     H  841   3.122   6.756   4.648  2.2462 -1.7381  3.7964
  764MOL0     H  842   2.947   6.825   4.875  0.7509  2.1147  0.6562
  764MOL0     H  843   3.042   6.945   4.774 -0.7410  0.2825 -1.1375
  764MOL0     H  844   3.151   6.743   4.979  0.6027  1.2869  2.5462
  764MOL0     H  845   3.247   6.851   4.879  0.1763 -2.7671 -0.0076
  764MOL0     H  846   3.046   7.065   5.213  0.4269  1.1075 -1.2012
  764MOL0     H  847   2.939   6.922   4.363  3.3067  3.5610 -2.1157
  764MOL0     H  848   3.092   6.971   4.172 -0.4120  0.4840 -0.8102
  765MOL0     O  849   8.239   0.902  10.060 -0.3313 -0.3310  0.4718
  765MOL0     C  850   8.278   0.988  10.134 -0.2709 -0.7532 -0.6997
  765MOL0     O  851   8.277   1.126  10.112  0.5419  0.2929  0.1780
  765MOL0     C  852   8.203   1.165  10.001  0.6613  0.7657 -0.3542
  765MOL0     C  853   8.261   1.244   9.901 -0.1574  0.4088  0.5192
  765MOL0     C  854   8.189   1.306   9.795  0.1978  0.1676 -0.3421
  765MOL0     C  855   8.047   1.302   9.803 -0.8842 -0.1343 -1.1382
  765MOL0     O  856   7.958   1.356   9.710  0.4265 -0.4107 -0.0924
  765MOL0     C  857   8.013   1.363   9.573  0.3030 -0.2832 -0.0428
  765MOL0     C  858   7.905   1.383   9.465 -0.5607  0.4864 -0.9978
  765MOL0     C  859   7.838   1.246   9.447 -0.2075 -0.0049 -0.3758
  765MOL0     C  860   7.742   1.243   9.340 -0.0025 -1.0880  0.9098
  765MOL0     C  861   7.687   1.101   9.315 -0.1086 -1.2172  0.4677
  765MOL0     C  862   7.799   1.015   9.245  0.8452  0.4532 -0.2544
  765MOL0     C  863   7.736   0.880   9.222 -0.4361 -0.9794 -0.7589
  765MOL0     C  864   7.747   0.795   9.355  0.1767 -0.4509  0.3846
  765MOL0     N  865   7.621   0.731   9.397  0.5956 -0.0766  0.3681
  765MOL0     C  866   7.587   0.713   9.533  0.2736  0.2598 -0.2714
  765MOL0     C  867   7.451   0.694   9.535 -0.1726 -0.3588 -0.8517
  765MOL0     C  868   7.372   0.665   9.658  0.8093  0.5375 -0.8816
  765MOL0     C  869   7.326   0.511   9.659 -0.4207 -1.8779  0.2157
  765MOL0     C  870   7.197   0.492   9.585 -0.7026  0.4387  0.1081
  765MOL0     C  871   7.156   0.342   9.586  1.0228  0.1830 -0.2572
  765MOL0     O  872   7.242   0.256   9.509 -0.0277 -0.5168 -0.3933
  765MOL0     C  873   7.254   0.126   9.539  0.3448  0.1422  0.7400
  765MOL0     C  874   7.154   0.054   9.595 -0.1938 -0.7492 -0.2636
  765MOL0     C  875   7.165  -0.079   9.627  0.0785  0.9980 -0.8111
  765MOL0     C  876   7.293  -0.149   9.607 -0.5674  0.7844 -0.2393
  765MOL0     C  877   7.302  -0.289   9.632  0.3996 -1.0131  0.7218
  765MOL0     O  878   7.408  -0.350   9.560  1.0145  0.8235 -1.3814
  765MOL0     C  879   7.476  -0.448   9.627 -0.0242  0.1942  0.5317
  765MOL0     C  880   7.493  -0.446   9.768  0.4966 -1.0044  0.0119
  765MOL0     C  881   7.585  -0.533   9.838  0.2217  0.0929 -0.3736
  765MOL0     C  882   7.650  -0.629   9.765 -0.6283 -0.0211 -1.5154
  765MOL0     O  883   7.737  -0.713   9.838 -0.6508  0.5247  0.3152
  765MOL0     C  884   7.767  -0.845   9.788  0.3217 -0.3071  0.1457
  765MOL0     C  885   7.901  -0.862   9.713  0.8697  0.9063 -0.0990
  765MOL0     C  886   7.928  -1.015   9.721 -0.7033 -0.0181 -0.1048
  765MOL0     C  887   8.031  -1.047   9.611  0.4703  0.8571 -0.7982
  765MOL0     C  888   8.061  -1.196   9.583  0.8639  1.1465 -0.3945
  765MOL0     C  889   8.050  -1.295   9.701  0.5676  1.5602 -0.5864
  765MOL0     C  890   8.064  -1.443   9.648  0.1917 -0.6548 -0.7784
  765MOL0     C  891   8.055  -1.549   9.759 -0.0984 -0.6713 -0.8935
  765MOL0    Cl  892   8.167  -1.496   9.886 -0.0424  0.2661  0.0319
  765MOL0     C  893   7.636  -0.635   9.633 -0.1335 -0.1159 -0.1439
  765MOL0     C  894   7.557  -0.547   9.559  0.3929 -0.2268 -1.0411
  765MOL0     O  895   7.213  -0.346   9.691 -0.6714 -0.4145  0.1761
  765MOL0     C  896   7.401  -0.075   9.559  0.3792  0.7131  0.0037
  765MOL0     C  897   7.381   0.060   9.525  0.2829 -1.4944 -0.4027
  765MOL0     N  898   7.411   0.685   9.403  0.4700 -0.7058  0.6177
  765MOL0     N  899   7.512   0.702   9.323 -0.1965 -0.4030 -0.4264
  765MOL0     C  900   7.991   1.223   9.900 -0.5097  0.5999  0.0937
  765MOL0     C  901   8.065   1.151   9.997  0.1352 -0.4779 -0.2480
  765MOL0     C  902   8.361   0.937  10.252 -0.0944  0.6547 -0.7495
  765MOL0     C  903   8.396   1.017  10.360  0.7523 -0.2292 -1.3444
  765MOL0     C  904   8.477   0.969  10.463 -0.1919  0.9168  0.4818
  765MOL0     C  905   8.513   0.831  10.469  0.1694  0.0252  0.3210
  765MOL0     O  906   8.581   0.770  10.570 -0.0531  0.0293 -0.3898
  765MOL0     C  907   8.622   0.861  10.672  0.3468 -0.0335  0.2399
  765MOL0     C  908   8.662   0.774  10.785 -0.3105  0.4162 -1.2134
  765MOL0     C  909   8.717   0.850  10.906 -0.5129 -0.2363  0.3127
  765MOL0     C  910   8.720   0.751  11.026 -0.6825  0.3093 -0.9481
  765MOL0     C  911   8.820   0.638  11.007  0.8088 -0.7653 -0.2827
  765MOL0     C  912   8.899   0.549  10.998  0.1206  0.9781  0.7304
  765MOL0     C  913   8.461   0.747  10.369  0.1712 -0.0783 -1.1278
  765MOL0     C  914   8.386   0.796  10.262 -0.7154 -0.2171 -0.1679
  765MOL0     H  915   8.368   1.257   9.900  0.1321 -1.4801 -1.6314
  765MOL0     H  916   8.232   1.385   9.734  4.2192 -1.5084  0.0246
  765MOL0     H  917   8.052   1.262   9.554  1.2063 -0.2470  1.4841
  765MOL0     H  918   8.096   1.433   9.567  0.7642 -0.6719  1.4125
  765MOL0     H  919   7.944   1.420   9.370 -0.3795  4.5731  0.5014
  765MOL0     H  920   7.831   1.451   9.506 -0.8478  0.0116 -0.7128
  765MOL0     H  921   7.799   1.208   9.543 -0.4161  0.4055 -0.2966
  765MOL0     H  922   7.919   1.179   9.415  0.3155  1.4643 -2.2408
  765MOL0     H  923   7.662   1.312   9.372  1.1787  0.1141  1.3676
  765MOL0     H  924   7.788   1.270   9.245  1.6862  0.3874  2.0730
  765MOL0     H  925   7.597   1.098   9.253  0.6269  1.9456 -0.9423
  765MOL0     H  926   7.670   1.061   9.416 -0.5699  2.4950  2.0156
  765MOL0     H  927   7.888   1.007   9.309 -0.0320 -0.3442  0.9122
  765MOL0     H  928   7.824   1.055   9.146  4.7301  0.5773  0.6147
  765MOL0     H  929   7.637   0.892   9.179 -0.4699  0.9345 -0.2351
  765MOL0     H  930   7.798   0.824   9.152  2.4132  0.7033  0.1993
  765MOL0     H  931   7.774   0.855   9.443 -0.9988 -0.2330  0.6127
  765MOL0     H  932   7.835   0.733   9.337  1.3358  1.7605 -2.3874
  765MOL0     H  933   7.664   0.730   9.608  2.1353  1.1488 -2.2546
  765MOL0     H  934   7.287   0.733   9.664  1.7564  1.6755  0.0167
  765MOL0     H  935   7.427   0.692   9.749 -0.0569 -0.8984  0.1153
  765MOL0     H  936   7.311   0.492   9.766  3.0471  2.7746  1.8902
  765MOL0     H  937   7.414   0.460   9.619  1.0146  0.4934  0.1340
  765MOL0     H  938   7.123   0.546   9.645 -0.9016  1.3247 -0.9090
  765MOL0     H  939   7.199   0.535   9.485 -0.0452  0.1101 -0.0286
  765MOL0     H  940   7.052   0.339   9.552  0.1302  0.8562  2.1792
  765MOL0     H  941   7.150   0.309   9.690 -0.8804  0.1098 -0.3648
  765MOL0     H  942   7.065   0.114   9.611 -1.3769 -2.4881 -0.0808
  765MOL0     H  943   7.078  -0.118   9.678  0.3869  1.9842  0.5329
  765MOL0     H  944   7.443  -0.364   9.819 -0.4295 -0.2425 -2.0270
  765MOL0     H  945   7.610  -0.511   9.942 -1.5838  4.9313 -0.6983
  765MOL0     H  946   7.682  -0.887   9.733 -0.9208  0.1196  1.6631
  765MOL0     H  947   7.771  -0.904   9.880 -1.2746  1.7750  1.6468
  765MOL0     H  948   7.979  -0.808   9.768  1.0614  1.9033 -1.3238
  765MOL0     H  949   7.893  -0.818   9.614 -0.9110 -0.2663 -0.5257
  765MOL0     H  950   7.836  -1.070   9.703 -0.5396 -0.5359  0.6214
  765MOL0     H  951   7.966  -1.044   9.819  0.8556 -0.4255 -0.7982
  765MOL0     H  952   8.012  -0.988   9.520  0.1045 -0.1237 -1.3719
  765MOL0     H  953   8.133  -1.016   9.634  1.2454 -0.2688 -2.4883
  765MOL0     H  954   8.162  -1.209   9.542  0.6298  0.2175 -0.7164
  765MOL0     H  955   7.991  -1.241   9.512 -0.0953  1.2579  0.4679
  765MOL0     H  956   7.950  -1.287   9.745 -0.1729  0.8348 -2.0850
  765MOL0     H  957   8.133  -1.277   9.771  0.1049  0.9406  0.1286
  765MOL0     H  958   7.993  -1.465   9.568 -1.4248  4.2595 -1.0312
  765MOL0     H  959   8.163  -1.452   9.603  0.9293 -0.0406  0.6584
  765MOL0     H  960   8.083  -1.651   9.731  0.9157 -1.0394  1.2820
  765MOL0     H  961   7.953  -1.559   9.796  0.3408  0.1049  0.5932
  765MOL0     H  962   7.682  -0.718   9.581  3.5633  0.3390  2.0109
  765MOL0     H  963   7.555  -0.561   9.451  1.1939 -0.8929 -0.9802
  765MOL0     H  964   7.497  -0.126   9.556 -0.3106 -0.8127  1.9235
  765MOL0     H  965   7.469   0.113   9.490 -0.1712  0.6507  1.4448
  765MOL0     H  966   7.885   1.211   9.885 -0.6683  0.1844  1.4490
  765MOL0     H  967   8.022   1.086  10.073  2.7238 -3.2808 -0.9767
  765MOL0     H  968   8.364   1.121  10.354  1.9651  0.7172  3.8751
  765MOL0     H  969   8.501   1.045  10.537  1.6345  1.4832 -0.6215
  765MOL0     H  970   8.538   0.923  10.706  1.8908  2.5624 -0.4309
  765MOL0     H  971   8.699   0.928  10.632 -1.1749 -0.6443 -4.3639
  765MOL0     H  972   8.568   0.722  10.804  0.2694 -1.1664 -2.4682
  765MOL0     H  973   8.733   0.701  10.744  0.2677 -0.1126  0.6308
  765MOL0     H  974   8.646   0.931  10.923  0.6299  0.2803  2.9671
  765MOL0     H  975   8.816   0.896  10.895 -1.2354  1.3617  0.3233
  765MOL0     H  976   8.763   0.803  11.112  1.5655 -0.4740 -1.5511
  765MOL0     H  977   8.620   0.713  11.050 -1.4180  1.7872 -1.5701
  765MOL0     H  978   8.960   0.461  10.989 -1.4166 -0.2358  1.6669
  765MOL0     H  979   8.486   0.642  10.377 -2.0645 -0.5316  1.9920
  765MOL0     H  980   8.353   0.723  10.189 -0.2651 -0.5666 -0.0255
  766MOL0     O  981   5.183   2.324   9.451 -0.0418 -0.3296 -0.1452
  766MOL0     C  982   5.144   2.410   9.378  0.9676  0.2032  0.4413
  766MOL0     O  983   5.125   2.402   9.237 -0.5168 -0.3642 -0.0179
  766MOL0     C  984   5.144   2.279   9.171  0.9515 -0.0267 -0.4553
  766MOL0     C  985   5.069   2.163   9.204  0.4814  0.6126 -0.2818
  766MOL0     C  986   5.091   2.049   9.138 -0.0726  0.3565  0.4438
  766MOL0     C  987   5.196   2.048   9.043  0.4984 -0.3229 -0.2399
  766MOL0     O  988   5.203   1.926   8.978 -0.7577  0.9418 -0.6364
  766MOL0     C  989   5.105   1.891   8.885 -0.4021  0.1739  0.3041
  766MOL0     C  990   5.139   1.951   8.751 -0.6088 -0.0861 -0.0418
  766MOL0     C  991   5.272   1.903   8.691  0.6083 -0.3857 -0.6389
  766MOL0     C  992   5.276   1.902   8.536 -0.6505  0.1912 -0.4701
  766MOL0     C  993   5.419   1.870   8.494 -0.3129  0.0701  0.6366
  766MOL0     C  994   5.449   1.711   8.501  0.0566 -0.3890  0.1767
  766MOL0     C  995   5.384   1.632   8.398  0.8821 -0.5386  0.2089
  766MOL0     C  996   5.446   1.490   8.390  0.0146 -0.1101  0.2129
  766MOL0     N  997   5.377   1.417   8.283 -0.6006  0.2183 -0.8053
  766MOL0     C  998   5.392   1.436   8.151  1.1918 -0.1489  0.4268
  766MOL0     C  999   5.327   1.335   8.083  0.4152 -1.0569 -0.4892
  766MOL0     C 1000   5.321   1.310   7.935  0.7720  0.1999  0.1993
  766MOL0     C 1001   5.275   1.165   7.891 -0.1192 -0.3767  0.1166
  766MOL0     C 1002   5.120   1.139   7.923  0.2453  0.2521 -0.4050
  766MOL0     C 1003   5.018   1.176   7.809 -0.0303  0.9177 -0.1868
  766MOL0     O 1004   4.956   1.059   7.758 -0.9649  0.2659 -0.4415
  766MOL0     C 1005   4.848   1.066   7.673  0.1878 -0.6699  0.4942
  766MOL0     C 1006   4.794   0.945   7.624  0.2109 -0.3927  0.6691
  766MOL0     C 1007   4.685   0.946   7.536  0.8370 -0.0775 -0.3465
  766MOL0     C 1008   4.623   1.070   7.501  0.6958  0.3093  1.5202
  766MOL0     C 1009   4.515   1.063   7.401 -0.0637 -0.6628  0.1923
  766MOL0     O 1010   4.421   1.165   7.404  0.6472 -0.6726  0.4354
  766MOL0     C 1011   4.326   1.190   7.302  0.1245 -0.1269  0.1485
  766MOL0     C 1012   4.191   1.217   7.330 -0.3937 -0.4489  0.2392
  766MOL0     C 1013   4.104   1.223   7.224  0.1617 -0.1061 -0.5810
  766MOL0     C 1014   4.152   1.225   7.089  0.1480  0.5932 -0.8679
  766MOL0     O 1015   4.076   1.218   6.979  0.6253 -0.6042 -0.8993
  766MOL0     C 1016   3.977   1.326   6.965  0.0970  0.5256 -0.8122
  766MOL0     C 1017   3.835   1.272   6.983 -0.0488 -1.1226 -0.0010
  766MOL0     C 1018   3.729   1.373   6.919 -0.1497 -0.1107 -0.0546
  766MOL0     C 1019   3.723   1.506   6.982  0.3074 -0.6260  0.7428
  766MOL0     C 1020   3.644   1.612   6.902 -0.5239  0.2747 -0.8940
  766MOL0     C 1021   3.694   1.649   6.773 -0.6293  0.1009 -0.4892
  766MOL0     C 1022   3.838   1.691   6.769 -0.3493 -0.3314 -0.2273
  766MOL0     C 1023   3.862   1.766   6.638 -0.3169 -0.1414 -0.3351
  766MOL0    Cl 1024   3.769   1.929   6.626  0.1582 -0.3425  0.4232
  766MOL0     C 1025   4.291   1.207   7.072  0.4249 -0.7750  0.3555
  766MOL0     C 1026   4.379   1.188   7.171  0.3211 -0.9995 -0.7825
  766MOL0     O 1027   4.525   0.988   7.304 -0.4605 -0.0113  0.1803
  766MOL0     C 1028   4.658   1.188   7.557  0.0362  0.2758  0.4961
  766MOL0     C 1029   4.773   1.190   7.646  0.6747  0.7210  1.1086
  766MOL0     N 1030   5.280   1.253   8.195 -0.0856 -0.3642 -0.3463
  766MOL0     N 1031   5.302   1.306   8.311 -0.1417 -0.6789  0.3671
  766MOL0     C 1032   5.271   2.154   9.016  0.4728  0.1107 -0.2651
  766MOL0     C 1033   5.240   2.280   9.067 -0.1069  0.9234 -0.6303
  766MOL0     C 1034   5.103   2.542   9.440 -0.3875 -0.4256 -0.3717
  766MOL0     C 1035   5.076   2.649   9.355  0.2772 -0.2800  0.1557
  766MOL0     C 1036   5.029   2.768   9.415  1.2438 -0.1235  0.1004
  766MOL0     C 1037   5.028   2.787   9.563 -0.3637  0.1983 -0.7896
  766MOL0     O 1038   5.003   2.906   9.618 -0.2007  0.0827 -0.3803
  766MOL0     C 1039   5.067   2.955   9.743 -0.5023 -0.0506 -0.1144
  766MOL0     C 1040   5.045   3.103   9.730  0.1068 -0.3090  0.3128
  766MOL0     C 1041   5.163   3.187   9.780  0.0548 -1.0029 -0.7431
  766MOL0     C 1042   5.134   3.338   9.762 -0.5441  0.0036 -0.7366
  766MOL0     C 1043   5.265   3.399   9.796 -0.2736  0.5018 -0.5769
  766MOL0     C 1044   5.369   3.456   9.835 -0.4342  0.2528 -0.5067
  766MOL0     C 1045   5.047   2.670   9.640 -0.9092 -0.2078 -0.6811
  766MOL0     C 1046   5.070   2.546   9.579 -0.6913  0.3323  0.8810
  766MOL0     H 1047   4.989   2.167   9.277  0.2545 -3.4582 -0.0903
  766MOL0     H 1048   5.020   1.969   9.159  0.0838 -0.4946 -1.8911
  766MOL0     H 1049   5.009   1.940   8.903 -1.3908 -0.3017 -2.9337
  766MOL0     H 1050   5.092   1.782   8.880 -2.0050  0.2668  1.4237
  766MOL0     H 1051   5.143   2.060   8.742  0.6470 -0.2358 -1.7481
  766MOL0     H 1052   5.058   1.915   8.687 -0.9495  1.7322 -0.7122
  766MOL0     H 1053   5.289   1.804   8.734 -0.3515 -0.3241 -0.1012
  766MOL0     H 1054   5.360   1.958   8.727  1.7426 -1.7180 -1.3067
  766MOL0     H 1055   5.209   1.825   8.494 -0.3296  0.5094 -1.5903
  766MOL0     H 1056   5.239   1.997   8.497 -1.9828 -0.7538 -1.6141
  766MOL0     H 1057   5.492   1.925   8.555  0.8320  0.6463 -1.1715
  766MOL0     H 1058   5.436   1.900   8.390  4.7728  3.4091  2.0192
  766MOL0     H 1059   5.418   1.664   8.595 -2.5597 -2.1864 -1.4544
  766MOL0     H 1060   5.557   1.693   8.496 -0.0064 -1.2015  1.2747
  766MOL0     H 1061   5.276   1.635   8.413  1.2777  2.6620  4.3952
  766MOL0     H 1062   5.396   1.689   8.305 -3.2162 -0.5357 -0.5206
  766MOL0     H 1063   5.424   1.442   8.486 -2.2873 -0.1434 -0.2822
  766MOL0     H 1064   5.554   1.496   8.371 -0.0595  0.2083 -0.1216
  766MOL0     H 1065   5.449   1.517   8.105 -0.4733  0.1852 -1.1709
  766MOL0     H 1066   5.422   1.341   7.905  0.5384  3.1616  2.0863
  766MOL0     H 1067   5.256   1.378   7.878  0.9148 -1.1049 -1.6191
  766MOL0     H 1068   5.333   1.103   7.960  0.4034  0.1020  0.1110
  766MOL0     H 1069   5.301   1.158   7.785  0.4378 -2.2008  0.3462
  766MOL0     H 1070   5.112   1.030   7.930 -0.2339  0.3769  2.7889
  766MOL0     H 1071   5.099   1.190   8.017  0.9048  1.2522 -0.7821
  766MOL0     H 1072   5.061   1.231   7.725  1.4089  0.2992  0.1173
  766MOL0     H 1073   4.949   1.243   7.861  1.1842 -0.3209  3.3106
  766MOL0     H 1074   4.839   0.852   7.657 -2.9449 -1.7209  1.5970
  766MOL0     H 1075   4.652   0.853   7.491  2.8467  0.4356 -3.1480
  766MOL0     H 1076   4.152   1.216   7.431  0.2922  2.8102  0.6444
  766MOL0     H 1077   4.000   1.238   7.254 -0.5736 -4.3092 -0.3488
  766MOL0     H 1078   3.982   1.359   6.860  2.3005 -1.8522 -1.5862
  766MOL0     H 1079   3.996   1.410   7.032 -1.9333  0.7156 -0.4242
  766MOL0     H 1080   3.822   1.269   7.092  0.2811  2.6191  0.2873
  766MOL0     H 1081   3.824   1.181   6.924 -3.1177 -2.5834  2.4944
  766MOL0     H 1082   3.630   1.328   6.924  0.4876 -1.6979 -0.8572
  766MOL0     H 1083   3.762   1.371   6.815  2.9412 -1.6419  0.8270
  766MOL0     H 1084   3.684   1.508   7.084 -0.3705 -0.5176  0.4879
  766MOL0     H 1085   3.824   1.547   6.997  1.4144 -3.0458  0.3501
  766MOL0     H 1086   3.636   1.704   6.960  1.3491 -1.1655  1.8720
  766MOL0     H 1087   3.547   1.564   6.885  0.2017 -1.5561 -0.2031
  766MOL0     H 1088   3.631   1.728   6.730  0.0326 -0.9064 -3.5503
  766MOL0     H 1089   3.688   1.562   6.707  0.7310 -1.0315  0.8238
  766MOL0     H 1090   3.877   1.757   6.847 -1.8662  1.2529 -0.7243
  766MOL0     H 1091   3.898   1.600   6.779 -2.0567 -1.5454 -0.5718
  766MOL0     H 1092   3.818   1.701   6.562  0.6298  1.3079 -2.2259
  766MOL0     H 1093   3.970   1.771   6.625  0.3139 -3.0166  2.4129
  766MOL0     H 1094   4.344   1.202   6.977  1.2617 -2.0352  0.8763
  766MOL0     H 1095   4.485   1.195   7.149  0.4214  0.7965  0.0538
  766MOL0     H 1096   4.599   1.277   7.542 -0.6142  0.3221  2.9587
  766MOL0     H 1097   4.790   1.281   7.703  1.9962  0.0628  1.7992
  766MOL0     H 1098   5.344   2.148   8.935  0.1819  2.0667 -0.7327
  766MOL0     H 1099   5.303   2.367   9.052 -0.6639  1.5055  0.2768
  766MOL0     H 1100   5.074   2.644   9.247 -1.5096 -0.6790  0.1709
  766MOL0     H 1101   4.998   2.856   9.359  0.4118  0.3953  1.3171
  766MOL0     H 1102   5.172   2.924   9.735 -1.0389 -1.9568 -0.4746
  766MOL0     H 1103   5.034   2.914   9.839  3.1135  1.8164  2.1356
  766MOL0     H 1104   5.009   3.134   9.631  1.5390 -2.1798 -0.8556
  766MOL0     H 1105   4.954   3.124   9.787 -1.2311 -1.5674 -1.2520
  766MOL0     H 1106   5.257   3.160   9.730 -0.1868 -3.9621  0.1655
  766MOL0     H 1107   5.169   3.164   9.887 -0.0058  2.9294  0.2468
  766MOL0     H 1108   5.095   3.376   9.667 -0.0812  0.4894 -0.7351
  766MOL0     H 1109   5.063   3.363   9.842  0.2455 -3.2300  1.1555
  766MOL0     H 1110   5.455   3.502   9.879 -0.0803 -3.2375  2.9597
  766MOL0     H 1111   5.026   2.672   9.747 -2.6175 -0.3517 -0.9896
  766MOL0     H 1112   5.102   2.475   9.654  1.2160  2.3479  2.1006
  767MOL0     O 1113   8.855   2.938   1.271 -1.1742  0.0312 -0.5189
  767MOL0     C 1114   8.974   2.941   1.226  0.4533 -0.4499  0.6030
  767MOL0     O 1115   9.077   2.973   1.297 -0.0160  0.3411 -0.0522
  767MOL0     C 1116   9.044   3.018   1.418  0.8780 -0.1304  1.0570
  767MOL0     C 1117   9.051   3.149   1.446  0.1088 -0.9523  0.4376
  767MOL0     C 1118   9.021   3.209   1.570 -0.4213  0.5959 -0.3681
  767MOL0     C 1119   8.990   3.129   1.675  1.4153  0.6524  0.6478
  767MOL0     O 1120   8.964   3.188   1.797 -0.3933 -0.1668  0.0533
  767MOL0     C 1121   9.082   3.267   1.833  0.3563 -1.1770 -0.3108
  767MOL0     C 1122   9.084   3.290   1.983  0.4872 -0.2585  0.0007
  767MOL0     C 1123   9.187   3.394   2.022 -0.6959 -0.3472  0.0453
  767MOL0     C 1124   9.151   3.538   2.005  0.4764  0.1761  0.3921
  767MOL0     C 1125   9.261   3.641   1.998  0.5050 -1.0354  0.3306
  767MOL0     C 1126   9.205   3.786   1.986 -0.2663  0.6255 -0.8652
  767MOL0     C 1127   9.313   3.885   1.946  0.0524  0.3866  0.5202
  767MOL0     C 1128   9.346   3.879   1.793 -0.0564  0.5251  1.0718
  767MOL0     N 1129   9.228   3.894   1.702  0.9916 -0.2206 -0.4013
  767MOL0     C 1130   9.125   3.980   1.727  1.3028  0.2912  0.1306
  767MOL0     C 1131   9.064   3.992   1.607 -0.6330  0.1069 -0.1765
  767MOL0     C 1132   8.962   4.081   1.570 -0.8167 -0.2799  0.0635
  767MOL0     C 1133   8.909   4.058   1.421  0.7093 -0.1310 -0.1806
  767MOL0     C 1134   8.798   4.165   1.384  1.0940 -1.1527 -0.8065
  767MOL0     C 1135   8.703   4.213   1.503 -0.4583 -0.4827  0.3757
  767MOL0     O 1136   8.617   4.104   1.545  0.3829 -1.1165  0.3092
  767MOL0     C 1137   8.530   4.043   1.461 -1.4799 -0.2920  1.2032
  767MOL0     C 1138   8.513   3.906   1.478  0.8700  0.0189 -0.6079
  767MOL0     C 1139   8.426   3.835   1.403  0.7978  0.5874  1.4162
  767MOL0     C 1140   8.352   3.890   1.300  0.1465  0.1510 -0.1033
  767MOL0     C 1141   8.254   3.809   1.226 -1.1322  0.4255  0.5453
  767MOL0     O 1142   8.202   3.701   1.295 -0.2549 -1.1760  0.7557
  767MOL0     C 1143   8.140   3.607   1.224  0.4607 -0.9536 -0.1238
  767MOL0     C 1144   8.002   3.590   1.256 -0.2923 -0.9910 -0.5015
  767MOL0     C 1145   7.931   3.493   1.177 -0.1548 -0.7064 -0.5281
  767MOL0     C 1146   7.986   3.435   1.064 -0.1400  0.1568 -0.0485
  767MOL0     O 1147   7.907   3.350   0.991  0.1965 -0.5830 -0.5572
  767MOL0     C 1148   7.958   3.269   0.883 -0.3819  0.2379 -0.6526
  767MOL0     C 1149   7.846   3.165   0.854  0.1143 -0.7915  0.3535
  767MOL0     C 1150   7.894   3.064   0.744 -1.3213 -1.0076  0.7493
  767MOL0     C 1151   7.780   2.989   0.676 -0.7126 -0.7497  0.4005
  767MOL0     C 1152   7.832   2.894   0.559 -1.0029 -0.2485 -1.0339
  767MOL0     C 1153   7.731   2.815   0.502  0.2909 -0.6473  0.9185
  767MOL0     C 1154   7.789   2.732   0.386 -0.2419 -0.1211 -0.3622
  767MOL0     C 1155   7.686   2.657   0.311  0.1638 -0.0991  0.3311
  767MOL0    Cl 1156   7.545   2.774   0.258 -0.0103 -0.5097  0.0593
  767MOL0     C 1157   8.126   3.452   1.038 -0.7520  0.1803  1.0986
  767MOL0     C 1158   8.206   3.532   1.124  0.3045  1.1086 -0.5317
  767MOL0     O 1159   8.220   3.847   1.114 -0.0462  0.3300 -0.2491
  767MOL0     C 1160   8.379   4.028   1.270  0.5025  0.7319 -0.0114
  767MOL0     C 1161   8.464   4.107   1.347 -0.7622 -0.0212 -0.9164
  767MOL0     N 1162   9.127   3.901   1.516 -0.4618 -0.6171  1.0074
  767MOL0     N 1163   9.227   3.855   1.574 -0.3778  0.6962  0.1814
  767MOL0     C 1164   8.977   2.996   1.648  0.0093 -0.5618 -0.7612
  767MOL0     C 1165   9.014   2.937   1.526 -0.3670  0.5650 -0.7229
  767MOL0     C 1166   9.001   2.906   1.078 -0.9283  0.8354 -0.1066
  767MOL0     C 1167   8.892   2.889   0.986 -0.6224 -0.0287  1.1394
  767MOL0     C 1168   8.917   2.860   0.856  0.4494  0.2789  0.3249
  767MOL0     C 1169   9.046   2.822   0.806  1.0475  0.7339  0.0409
  767MOL0     O 1170   9.053   2.794   0.674 -0.1473 -0.0983 -0.7753
  767MOL0     C 1171   9.182   2.755   0.615 -0.7804 -0.0916  0.1797
  767MOL0     C 1172   9.241   2.868   0.541 -0.0927  0.2668 -0.2394
  767MOL0     C 1173   9.184   2.913   0.401  0.2662  0.2322  0.1067
  767MOL0     C 1174   9.281   2.969   0.290 -0.1486  0.6222 -0.7395
  767MOL0     C 1175   9.364   3.058   0.366 -1.1969 -0.2887  0.9205
  767MOL0     C 1176   9.427   3.152   0.395  0.6246 -0.3874 -0.1419
  767MOL0     C 1177   9.157   2.840   0.890 -1.1622  0.5803 -0.2218
  767MOL0     C 1178   9.135   2.890   1.018  0.2344  0.0276  0.5574
  767MOL0     H 1179   9.079   3.217   1.365 -3.4710  1.2155  0.7593
  767MOL0     H 1180   9.031   3.315   1.588 -0.3338  0.2328  1.9848
  767MOL0     H 1181   9.082   3.362   1.779 -0.4570 -0.5665  0.7314
  767MOL0     H 1182   9.181   3.221   1.823  1.6433  1.0138  1.3724
  767MOL0     H 1183   9.103   3.191   2.026  2.6188  0.2980  0.4536
  767MOL0     H 1184   8.991   3.325   2.029  0.7229 -0.5270  0.6881
  767MOL0     H 1185   9.276   3.377   1.960 -0.4851 -0.2367  0.3181
  767MOL0     H 1186   9.216   3.376   2.126  1.4399 -0.7449 -0.5654
  767MOL0     H 1187   9.082   3.557   1.923  0.0185  0.9229  0.9351
  767MOL0     H 1188   9.094   3.568   2.093  1.8682 -1.0242  1.7646
  767MOL0     H 1189   9.332   3.624   1.917 -0.1763 -2.1534 -0.0499
  767MOL0     H 1190   9.323   3.648   2.088  0.8594  1.5782 -0.0275
  767MOL0     H 1191   9.166   3.817   2.083 -1.0047  0.2752 -1.0451
  767MOL0     H 1192   9.126   3.771   1.912 -2.9435 -0.4887  2.0180
  767MOL0     H 1193   9.277   3.988   1.959  0.5427  0.3810  2.1731
  767MOL0     H 1194   9.408   3.874   2.001  1.6646  4.2263 -1.1067
  767MOL0     H 1195   9.400   3.787   1.767 -0.8336 -0.2245  2.0363
  767MOL0     H 1196   9.416   3.960   1.768 -1.4442  1.0316 -1.5132
  767MOL0     H 1197   9.087   4.030   1.815 -2.7622 -2.3416  0.1583
  767MOL0     H 1198   8.992   4.185   1.589 -4.1845  0.1489  4.6602
  767MOL0     H 1199   8.878   4.052   1.633 -2.1208 -0.2535 -1.5781
  767MOL0     H 1200   8.857   3.962   1.422  0.0487  0.2138 -0.2889
  767MOL0     H 1201   8.989   4.061   1.347 -1.0460  1.4908 -2.1603
  767MOL0     H 1202   8.852   4.252   1.345  2.3560 -2.5083 -2.2225
  767MOL0     H 1203   8.739   4.124   1.301  1.6159  1.1190 -2.3958
  767MOL0     H 1204   8.634   4.295   1.486  0.1421  0.1732  1.0108
  767MOL0     H 1205   8.761   4.248   1.589 -2.5799 -0.3157  1.8237
  767MOL0     H 1206   8.560   3.848   1.556 -0.3190 -0.5771 -0.3022
  767MOL0     H 1207   8.434   3.730   1.429  1.0241  0.7920  2.1888
  767MOL0     H 1208   7.967   3.646   1.342  1.3985  0.5541 -0.7435
  767MOL0     H 1209   7.827   3.470   1.199 -0.2249  0.6315  0.7699
  767MOL0     H 1210   8.056   3.227   0.908  0.5282  2.7585  0.3217
  767MOL0     H 1211   7.973   3.338   0.799  0.5833 -0.8388 -1.4122
  767MOL0     H 1212   7.754   3.216   0.824 -1.5384 -3.3410  0.7912
  767MOL0     H 1213   7.814   3.109   0.943 -1.7072  1.4896  1.2518
  767MOL0     H 1214   7.970   2.995   0.782 -3.4609 -3.1465  1.4016
  767MOL0     H 1215   7.947   3.127   0.672 -0.1332 -0.4526  2.0728
  767MOL0     H 1216   7.732   2.919   0.745 -1.0176  0.1243  1.0921
  767MOL0     H 1217   7.709   3.065   0.642  2.0459  2.9274  2.1928
  767MOL0     H 1218   7.903   2.831   0.612 -1.2001 -1.1078 -1.7596
  767MOL0     H 1219   7.877   2.962   0.486 -0.6809  0.7877  0.1016
  767MOL0     H 1220   7.644   2.875   0.473  0.5527 -0.9883 -0.6918
  767MOL0     H 1221   7.695   2.746   0.578 -1.3451  1.3876  2.1170
  767MOL0     H 1222   7.835   2.805   0.319 -1.4089  0.8612 -0.1327
  767MOL0     H 1223   7.863   2.658   0.416 -1.6503 -0.4014  2.8594
  767MOL0     H 1224   7.641   2.575   0.366 -0.6714 -2.3563 -3.3878
  767MOL0     H 1225   7.716   2.602   0.221 -2.2058 -1.7107  0.4352
  767MOL0     H 1226   8.166   3.390   0.959 -1.4825 -2.1950  2.4939
  767MOL0     H 1227   8.315   3.529   1.118  0.3063 -1.3474 -0.3616
  767MOL0     H 1228   8.336   4.083   1.186 -3.0804 -0.3695  0.9033
  767MOL0     H 1229   8.490   4.210   1.325  3.3004 -0.0364  2.5268
  767MOL0     H 1230   8.944   2.928   1.726 -2.5861  0.4391 -0.8628
  767MOL0     H 1231   9.010   2.829   1.515  2.1403  0.4664 -1.2440
  767MOL0     H 1232   8.787   2.900   1.008 -0.9396 -0.0683 -0.2952
  767MOL0     H 1233   8.823   2.838   0.806 -2.0057  0.8633  4.2812
  767MOL0     H 1234   9.161   2.670   0.550  0.2348  0.0340 -0.3323
  767MOL0     H 1235   9.249   2.714   0.691  0.3785 -1.2087 -1.4069
  767MOL0     H 1236   9.245   2.956   0.606  0.5001  0.2066 -0.1884
  767MOL0     H 1237   9.338   2.825   0.515 -0.3017  1.0373 -2.5104
  767MOL0     H 1238   9.102   2.977   0.436  0.0360 -0.5504  1.0628
  767MOL0     H 1239   9.128   2.830   0.356  0.2092  0.4614 -0.2444
  767MOL0     H 1240   9.337   2.886   0.247  1.0533  0.8516  0.3308
  767MOL0     H 1241   9.221   3.011   0.209  2.8821 -0.5654 -3.8425
  767MOL0     H 1242   9.484   3.243   0.398  1.3789 -0.8228 -0.7205
  767MOL0     H 1243   9.262   2.823   0.870 -0.6948  2.5126  0.3600
  767MOL0     H 1244   9.216   2.918   1.084  0.9848  0.6827 -0.6059
  768MOL0     O 1245   1.677   0.751   0.343  0.4414  0.0747 -0.2623
  768MOL0     C 1246   1.638   0.663   0.263  1.3417  0.3408 -0.4554
  768MOL0     O 1247   1.520   0.669   0.195 -0.5981  0.3400  1.1773
  768MOL0     C 1248   1.465   0.792   0.188  0.7956  0.8993  0.5287
  768MOL0     C 1249   1.523   0.885   0.104 -0.0594  0.2917 -0.6585
  768MOL0     C 1250   1.465   1.012   0.104  0.4651  0.0420 -0.0956
  768MOL0     C 1251   1.339   1.034   0.168 -0.1184  0.8039  0.1401
  768MOL0     O 1252   1.273   1.152   0.162  0.0238 -0.0070  0.2887
  768MOL0     C 1253   1.352   1.275   0.196  0.4148 -0.1049 -0.7120
  768MOL0     C 1254   1.279   1.411   0.173  0.0464  0.3285  0.9468
  768MOL0     C 1255   1.196   1.452   0.295  0.3840 -0.9949 -0.1258
  768MOL0     C 1256   1.291   1.502   0.407 -0.1871 -0.8615 -0.2019
  768MOL0     C 1257   1.215   1.528   0.540  0.3865  0.5236 -0.2224
  768MOL0     C 1258   1.294   1.561   0.665 -0.0712 -0.2657  0.0800
  768MOL0     C 1259   1.231   1.541   0.800  0.1129  0.1502  0.4848
  768MOL0     C 1260   1.101   1.625   0.800 -0.2038  0.5294  0.9214
  768MOL0     N 1261   1.014   1.590   0.912 -0.2668  0.0637  0.5845
  768MOL0     C 1262   0.987   1.683   1.010 -0.4013  1.0852 -0.5031
  768MOL0     C 1263   0.929   1.611   1.111  0.4712  0.3931  0.0997
  768MOL0     C 1264   0.882   1.667   1.241 -0.8837  0.5907  0.5785
  768MOL0     C 1265   0.748   1.721   1.237  0.3603  0.0261  0.4295
  768MOL0     C 1266   0.674   1.763   1.373  0.3167 -0.0917 -0.1404
  768MOL0     C 1267   0.524   1.795   1.345  1.0111 -0.3504  0.0263
  768MOL0     O 1268   0.480   1.882   1.451 -0.0484 -0.2575 -0.3589
  768MOL0     C 1269   0.368   1.846   1.522 -0.5759  0.2285  0.5561
  768MOL0     C 1270   0.338   1.720   1.568  0.2236  0.2702 -0.6313
  768MOL0     C 1271   0.232   1.706   1.661 -0.8705  0.0578 -0.2944
  768MOL0     C 1272   0.146   1.804   1.695 -0.2773 -0.3738  0.0445
  768MOL0     C 1273   0.033   1.768   1.778 -0.3517 -0.3456 -0.1609
  768MOL0     O 1274   0.003   1.636   1.793 -0.3538  0.4005  0.2739
  768MOL0     C 1275  -0.082   1.592   1.891  0.5173  1.0715  0.5213
  768MOL0     C 1276  -0.213   1.632   1.906  0.7424  0.3357 -0.3565
  768MOL0     C 1277  -0.291   1.595   2.019  0.2968 -0.8346 -0.2431
  768MOL0     C 1278  -0.236   1.505   2.103  0.7060  0.3276 -0.6056
  768MOL0     O 1279  -0.291   1.482   2.226  0.0499 -0.0456  0.4089
  768MOL0     C 1280  -0.351   1.595   2.298 -0.1275 -0.4005 -0.9386
  768MOL0     C 1281  -0.247   1.718   2.292  0.0282  0.3794 -0.0975
  768MOL0     C 1282  -0.308   1.841   2.368 -0.2565 -0.0844  0.4018
  768MOL0     C 1283  -0.224   1.963   2.380  0.1560 -0.0749 -1.0481
  768MOL0     C 1284  -0.304   2.089   2.387  0.1987 -0.0255 -0.2235
  768MOL0     C 1285  -0.222   2.221   2.414 -0.9026 -0.5699  1.0238
  768MOL0     C 1286  -0.300   2.346   2.426  0.0802 -0.4488 -0.1653
  768MOL0     C 1287  -0.242   2.431   2.537  0.1059  0.0738 -0.0909
  768MOL0    Cl 1288  -0.273   2.610   2.517 -0.3247  0.2744 -0.3291
  768MOL0     C 1289  -0.116   1.437   2.072 -0.2926 -0.9303 -0.0653
  768MOL0     C 1290  -0.034   1.489   1.979 -0.2586 -0.0837  0.4507
  768MOL0     O 1291  -0.012   1.862   1.845 -0.4305  0.2359  0.7245
  768MOL0     C 1292   0.179   1.934   1.648  0.3571 -0.3195  0.3505
  768MOL0     C 1293   0.283   1.954   1.559 -0.7400  0.0659  0.3977
  768MOL0     N 1294   0.914   1.478   1.076 -0.5879  0.4670 -0.0545
  768MOL0     N 1295   0.971   1.465   0.957  1.0955 -0.3448 -0.0010
  768MOL0     C 1296   1.275   0.937   0.242  0.0438  0.9410 -0.0616
  768MOL0     C 1297   1.345   0.811   0.263 -0.0601  0.1760 -1.1821
  768MOL0     C 1298   1.704   0.532   0.250 -0.6085 -0.6756  0.9049
  768MOL0     C 1299   1.788   0.489   0.350  0.3877 -0.4722 -0.3257
  768MOL0     C 1300   1.838   0.366   0.338 -0.6171  0.6937  0.7796
  768MOL0     C 1301   1.805   0.278   0.237  0.5019  0.3187  0.1003
  768MOL0     O 1302   1.842   0.149   0.262 -0.0990 -0.6672  0.2792
  768MOL0     C 1303   1.956   0.107   0.187 -0.2885  0.2148 -0.0563
  768MOL0     C 1304   2.051   0.023   0.278  0.7350  0.1785  0.5817
  768MOL0     C 1305   2.011  -0.057   0.400  0.1641 -0.1249 -0.1809
  768MOL0     C 1306   2.103  -0.182   0.397  0.1124  0.4091 -0.3313
  768MOL0     C 1307   2.069  -0.283   0.295 -0.3237  0.1190  0.1333
  768MOL0     C 1308   2.063  -0.362   0.204 -1.0927  0.9045 -0.4257
  768MOL0     C 1309   1.726   0.325   0.134 -0.3742  1.0415  0.6707
  768MOL0     C 1310   1.672   0.448   0.141  0.3602  0.5622 -0.7267
  768MOL0     H 1311   1.611   0.848   0.053  1.2178 -1.3977  2.4776
  768MOL0     H 1312   1.503   1.089   0.038 -0.5248 -1.7703 -2.9580
  768MOL0     H 1313   1.448   1.281   0.144  1.2725  1.4009  0.9675
  768MOL0     H 1314   1.377   1.257   0.301 -1.4326 -1.0433 -0.3904
  768MOL0     H 1315   1.211   1.407   0.087 -0.7498  1.1154  1.5204
  768MOL0     H 1316   1.345   1.485   0.128 -2.2047  0.5205 -2.4483
  768MOL0     H 1317   1.135   1.373   0.338 -0.7574 -0.7757 -1.2921
  768MOL0     H 1318   1.129   1.536   0.273 -0.3568 -1.7542 -0.8240
  768MOL0     H 1319   1.366   1.424   0.417 -0.7016 -1.2360  0.9253
  768MOL0     H 1320   1.335   1.593   0.364 -2.9124  0.5379 -0.2376
  768MOL0     H 1321   1.184   1.425   0.563  3.1504  0.0605  1.9104
  768MOL0     H 1322   1.137   1.601   0.516  0.0274  0.6425  1.1751
  768MOL0     H 1323   1.314   1.669   0.660 -0.4117  0.0970  3.8625
  768MOL0     H 1324   1.383   1.499   0.653 -0.7859 -0.9910 -1.9138
  768MOL0     H 1325   1.220   1.434   0.823 -2.4676  0.3691  0.6279
  768MOL0     H 1326   1.292   1.589   0.877 -0.7261  4.2850 -1.1938
  768MOL0     H 1327   1.030   1.604   0.719  0.8184  1.2995 -0.2209
  768MOL0     H 1328   1.118   1.732   0.789  0.2672  0.2674 -1.6928
  768MOL0     H 1329   0.991   1.791   1.019  1.6326  0.8696  2.1922
  768MOL0     H 1330   0.960   1.739   1.269  0.2615 -0.4213  0.0479
  768MOL0     H 1331   0.891   1.596   1.324  0.6646  1.6153  1.3422
  768MOL0     H 1332   0.683   1.640   1.202  0.9129 -0.1085 -0.3065
  768MOL0     H 1333   0.734   1.802   1.164 -0.4963  1.5733  2.2173
  768MOL0     H 1334   0.682   1.679   1.443 -0.3177  0.9419  1.2144
  768MOL0     H 1335   0.719   1.851   1.420  0.9843 -1.3145  1.6286
  768MOL0     H 1336   0.465   1.706   1.321  0.4815 -0.3138  1.1472
  768MOL0     H 1337   0.510   1.856   1.255  0.4185  1.3405  1.2168
  768MOL0     H 1338   0.390   1.625   1.563 -0.7067 -0.1814 -3.2785
  768MOL0     H 1339   0.219   1.601   1.685  1.4384 -1.0156 -3.1475
  768MOL0     H 1340  -0.256   1.697   1.831 -2.6199 -0.3319  0.8287
  768MOL0     H 1341  -0.390   1.640   2.025  0.9830  0.7593 -0.3316
  768MOL0     H 1342  -0.367   1.562   2.401 -0.7487 -0.5090 -1.0652
  768MOL0     H 1343  -0.454   1.613   2.265 -1.6594 -3.9062  1.3040
  768MOL0     H 1344  -0.204   1.741   2.194  0.0417 -1.3266 -0.5216
  768MOL0     H 1345  -0.172   1.682   2.363 -2.1442 -0.1916  2.0734
  768MOL0     H 1346  -0.354   1.815   2.464  2.4579  1.9293  2.3774
  768MOL0     H 1347  -0.390   1.866   2.300  0.2400  0.3461 -0.0468
  768MOL0     H 1348  -0.165   1.964   2.472 -0.2365  2.9619 -0.7012
  768MOL0     H 1349  -0.156   1.973   2.296 -2.1404  1.7359 -2.8282
  768MOL0     H 1350  -0.377   2.083   2.468 -0.3080  2.9524 -0.3369
  768MOL0     H 1351  -0.352   2.092   2.289 -1.3030 -1.7605  0.4030
  768MOL0     H 1352  -0.153   2.222   2.330 -1.7197 -0.5919  0.3303
  768MOL0     H 1353  -0.165   2.210   2.506  0.3420 -0.9774  0.2191
  768MOL0     H 1354  -0.302   2.399   2.330 -1.0146  2.2506  1.2281
  768MOL0     H 1355  -0.404   2.318   2.446 -0.4596 -2.6389 -4.7302
  768MOL0     H 1356  -0.133   2.432   2.544  0.2480 -0.5806 -1.7885
  768MOL0     H 1357  -0.275   2.386   2.632  2.7352  1.3421  1.5365
  768MOL0     H 1358  -0.074   1.369   2.145  0.2103  1.8776  2.4579
  768MOL0     H 1359   0.063   1.449   1.952 -0.7549 -1.9272  1.2690
  768MOL0     H 1360   0.110   2.010   1.684 -0.1798  0.3068 -1.8932
  768MOL0     H 1361   0.292   2.056   1.525  2.2917 -0.5863 -1.0992
  768MOL0     H 1362   1.181   0.947   0.295  0.2167 -0.0147  0.4592
  768MOL0     H 1363   1.294   0.742   0.329 -0.4437  1.2423 -0.3357
  768MOL0     H 1364   1.810   0.541   0.443 -1.3128  0.5399 -0.4393
  768MOL0     H 1365   1.902   0.343   0.423 -0.6459 -3.0687 -0.0156
  768MOL0     H 1366   2.022   0.182   0.145  0.7504 -1.8386 -2.3390
  768MOL0     H 1367   1.930   0.046   0.100  2.4927 -0.2447 -0.6607
  768MOL0     H 1368   2.102  -0.041   0.205 -0.5833  0.6177 -0.7671
  768MOL0     H 1369   2.120   0.103   0.304 -0.4001  1.0227  1.0756
  768MOL0     H 1370   1.905  -0.082   0.410  0.6406 -1.7818  1.1385
  768MOL0     H 1371   2.035   0.004   0.487 -0.3145  0.2424 -0.3043
  768MOL0     H 1372   2.207  -0.149   0.396  0.1884  0.8002 -5.2965
  768MOL0     H 1373   2.097  -0.226   0.497  0.8579  0.0654 -0.4327
  768MOL0     H 1374   2.043  -0.418   0.115 -3.0319  4.6312 -2.5869
  768MOL0     H 1375   1.693   0.249   0.064 -2.6072  0.0471  2.6418
  768MOL0     H 1376   1.598   0.472   0.065  0.8467 -1.4851 -1.9077
  769MOL0     O 1377   5.881   3.251   6.231  0.3534 -0.4428 -0.5800
  769MOL0     C 1378   5.932   3.360   6.225  0.4671  0.2884 -0.1630
  769MOL0     O 1379   5.928   3.449   6.325 -0.5691 -0.6123 -0.6121
  769MOL0     C 1380   5.870   3.417   6.441  1.1862 -0.2012 -0.0731
  769MOL0     C 1381   5.952   3.415   6.552  0.0286 -0.6071 -0.1851
  769MOL0     C 1382   5.900   3.391   6.683 -0.5076  0.3272  0.2848
  769MOL0     C 1383   5.766   3.360   6.693 -0.4137  0.2594  0.4935
  769MOL0     O 1384   5.703   3.350   6.812  0.1560 -0.2923 -0.7920
  769MOL0     C 1385   5.773   3.337   6.942  0.3577 -0.2775  0.1960
  769MOL0     C 1386   5.831   3.189   6.950 -0.5248  0.7301  0.2206
  769MOL0     C 1387   5.904   3.164   7.093  0.1641  0.4704  0.1907
  769MOL0     C 1388   5.966   3.022   7.102 -0.4735 -0.9754  0.1483
  769MOL0     C 1389   6.016   2.964   7.236  0.3367  0.1167 -0.3892
  769MOL0     C 1390   5.900   2.972   7.343 -0.3389  0.7169  0.2028
  769MOL0     C 1391   5.937   2.875   7.456  0.0674  0.4283 -0.2021
  769MOL0     C 1392   5.816   2.862   7.548  0.3762  0.8599 -0.5347
  769MOL0     N 1393   5.827   2.752   7.643  0.1682  0.3629 -0.1306
  769MOL0     C 1394   5.785   2.758   7.772 -0.6535 -0.4413  0.4719
  769MOL0     C 1395   5.789   2.635   7.827  0.1253 -0.3927  0.4268
  769MOL0     C 1396   5.745   2.580   7.962 -0.7870 -0.5985 -0.9311
  769MOL0     C 1397   5.611   2.494   7.947  0.0095 -0.5486 -0.1845
  769MOL0     C 1398   5.534   2.473   8.080 -0.0188 -0.1502 -0.0740
  769MOL0     C 1399   5.612   2.398   8.186 -0.6415 -0.0165  0.4407
  769MOL0     O 1400   5.706   2.489   8.253 -0.1325  0.1272  0.2832
  769MOL0     C 1401   5.654   2.565   8.353 -0.9722 -1.1726  0.7349
  769MOL0     C 1402   5.745   2.671   8.390  0.6283  0.3395  0.4478
  769MOL0     C 1403   5.706   2.760   8.489 -0.4880  0.3002  0.6228
  769MOL0     C 1404   5.584   2.749   8.553  0.8341 -0.3657 -0.2394
  769MOL0     C 1405   5.544   2.846   8.660  0.3758  0.6025  0.7158
  769MOL0     O 1406   5.450   2.803   8.744  0.7676  0.5035  0.1470
  769MOL0     C 1407   5.394   2.857   8.861  0.0620  1.2150 -0.1732
  769MOL0     C 1408   5.264   2.815   8.907 -0.2385 -0.3415  0.1376
  769MOL0     C 1409   5.195   2.871   9.015 -0.1817  0.2151 -0.0938
  769MOL0     C 1410   5.242   2.988   9.074  1.3946 -0.3882 -0.9327
  769MOL0     O 1411   5.172   3.068   9.164  0.0330  0.0916  0.6069
  769MOL0     C 1412   5.033   3.056   9.155  0.6205 -0.3509  0.7011
  769MOL0     C 1413   4.959   3.137   9.257  0.3134 -0.8562  0.3504
  769MOL0     C 1414   4.804   3.122   9.228 -0.6317 -0.0133 -0.0635
  769MOL0     C 1415   4.758   3.141   9.090 -0.6309 -0.1418  0.0482
  769MOL0     C 1416   4.600   3.146   9.090  0.4530  1.0269 -0.2260
  769MOL0     C 1417   4.514   3.021   9.148 -0.2335  0.0109 -0.5327
  769MOL0     C 1418   4.363   3.062   9.137  0.1581  0.1038 -0.2096
  769MOL0     C 1419   4.272   2.947   9.145  0.1543  0.2771 -0.4145
  769MOL0    Cl 1420   4.274   2.894   9.318 -0.4355 -0.9506  0.2129
  769MOL0     C 1421   5.372   3.034   9.031  0.0291 -0.5099  0.0188
  769MOL0     C 1422   5.441   2.965   8.927  0.2339 -0.4859 -0.2905
  769MOL0     O 1423   5.614   2.941   8.687 -0.1776 -0.1089  0.3598
  769MOL0     C 1424   5.493   2.649   8.505 -1.2150 -0.9487  0.6392
  769MOL0     C 1425   5.527   2.560   8.409 -0.3069 -0.6558  0.0944
  769MOL0     N 1426   5.846   2.561   7.726  0.4849  0.6343 -0.6004
  769MOL0     N 1427   5.854   2.624   7.620 -0.5719  0.9822 -1.6284
  769MOL0     C 1428   5.683   3.352   6.583  0.3973  0.0671  0.2598
  769MOL0     C 1429   5.737   3.384   6.456  0.9174 -0.6433  0.2235
  769MOL0     C 1430   6.001   3.409   6.109  0.3456  1.1516  0.5161
  769MOL0     C 1431   6.101   3.498   6.104  0.1787 -0.6390  1.0850
  769MOL0     C 1432   6.168   3.531   5.988 -0.1369  0.2344  0.1020
  769MOL0     C 1433   6.148   3.457   5.868 -0.0058 -0.5576 -0.1871
  769MOL0     O 1434   6.214   3.501   5.759  0.4608 -0.5738  0.1153
  769MOL0     C 1435   6.165   3.497   5.629  0.4694  0.5841 -0.5930
  769MOL0     C 1436   6.239   3.593   5.541  0.6018  0.1481  0.4858
  769MOL0     C 1437   6.201   3.588   5.397  0.8692  0.2490 -0.6242
  769MOL0     C 1438   6.241   3.707   5.309 -0.5627 -0.3106  0.1056
  769MOL0     C 1439   6.214   3.840   5.368 -0.6715  0.1889  0.1070
  769MOL0     C 1440   6.196   3.954   5.426 -0.3567  0.3487  0.1725
  769MOL0     C 1441   6.050   3.359   5.867 -0.2777  0.5413  0.4957
  769MOL0     C 1442   5.976   3.341   5.984  0.8144  0.5408 -0.8188
  769MOL0     H 1443   6.058   3.429   6.541 -0.1813  0.7364 -0.5819
  769MOL0     H 1444   5.959   3.399   6.774 -0.4049  0.1824  0.2305
  769MOL0     H 1445   5.698   3.348   7.022 -0.5023  0.3583 -0.6652
  769MOL0     H 1446   5.843   3.420   6.947 -2.1020  2.2423 -2.7714
  769MOL0     H 1447   5.907   3.180   6.872 -0.9836 -3.5999  0.0039
  769MOL0     H 1448   5.753   3.114   6.930  3.3579 -4.2510  1.5391
  769MOL0     H 1449   5.835   3.182   7.176  1.4480  2.3690  0.9218
  769MOL0     H 1450   5.969   3.251   7.105  0.7531  0.0930 -0.2112
  769MOL0     H 1451   5.883   2.953   7.085  0.9722 -2.0235 -4.0320
  769MOL0     H 1452   6.026   3.003   7.012  0.1996 -2.1845  0.8395
  769MOL0     H 1453   6.101   3.021   7.276  1.2143 -2.5888  1.8722
  769MOL0     H 1454   6.051   2.862   7.216 -0.8298 -0.6734  1.4296
  769MOL0     H 1455   5.802   2.940   7.307  0.0727  0.1714 -0.4648
  769MOL0     H 1456   5.888   3.071   7.388  0.0336  0.6720  0.4018
  769MOL0     H 1457   5.978   2.781   7.418  1.3674  0.2552  1.4874
  769MOL0     H 1458   6.026   2.917   7.503 -1.5090  3.1271  0.6023
  769MOL0     H 1459   5.720   2.831   7.505 -0.6216  0.8097  1.5790
  769MOL0     H 1460   5.797   2.961   7.591 -0.5544 -0.6541  2.9428
  769MOL0     H 1461   5.744   2.845   7.822  2.9298  1.3063  0.6763
  769MOL0     H 1462   5.739   2.664   8.032 -0.2464 -0.6616 -0.7998
  769MOL0     H 1463   5.827   2.517   7.998 -3.0906 -1.0627  4.6636
  769MOL0     H 1464   5.634   2.400   7.896 -0.7258  1.1568 -4.0650
  769MOL0     H 1465   5.548   2.535   7.868  1.2115 -3.5776 -2.9668
  769MOL0     H 1466   5.506   2.566   8.131  0.5723 -0.4344  0.7861
  769MOL0     H 1467   5.440   2.419   8.063  0.3564 -1.4225  1.6082
  769MOL0     H 1468   5.670   2.320   8.135 -1.3334  0.8750 -1.8042
  769MOL0     H 1469   5.541   2.348   8.252 -0.6544  2.4395  2.4334
  769MOL0     H 1470   5.842   2.672   8.342 -0.4576  1.9421 -1.8753
  769MOL0     H 1471   5.781   2.829   8.526  1.9467 -0.4123 -2.5766
  769MOL0     H 1472   5.215   2.730   8.861 -2.8873  0.6794  0.9098
  769MOL0     H 1473   5.102   2.820   9.035  0.5769 -1.0964  0.2152
  769MOL0     H 1474   5.002   2.951   9.151 -3.2172  0.6766 -0.5336
  769MOL0     H 1475   5.002   3.092   9.057 -2.9414 -1.1292  1.3799
  769MOL0     H 1476   4.985   3.243   9.253  1.8065 -1.2482 -0.8143
  769MOL0     H 1477   4.976   3.108   9.362 -2.5461 -0.7925  0.9166
  769MOL0     H 1478   4.745   3.191   9.288 -1.8740  1.9449 -3.3126
  769MOL0     H 1479   4.778   3.019   9.255 -0.9823  0.5165  1.7775
  769MOL0     H 1480   4.796   3.235   9.050  1.9934 -1.0107  0.2953
  769MOL0     H 1481   4.800   3.059   9.031  1.8351  1.3975 -0.4824
  769MOL0     H 1482   4.568   3.148   8.986  0.1121 -1.7482 -0.2540
  769MOL0     H 1483   4.567   3.229   9.154 -0.3758 -1.7042  3.1906
  769MOL0     H 1484   4.540   2.999   9.252 -0.4845 -1.1677 -0.7020
  769MOL0     H 1485   4.524   2.934   9.083 -0.2431  0.7794 -1.5806
  769MOL0     H 1486   4.334   3.135   9.214 -0.1294  0.1699 -0.3773
  769MOL0     H 1487   4.345   3.110   9.040 -0.4283 -1.5947 -0.9714
  769MOL0     H 1488   4.307   2.867   9.079  1.4936  0.0159  0.5649
  769MOL0     H 1489   4.166   2.970   9.132 -0.4671 -0.8777  2.0949
  769MOL0     H 1490   5.410   3.129   9.068  3.7716 -0.5370 -3.1118
  769MOL0     H 1491   5.539   2.997   8.893  0.5047 -1.5803 -0.5872
  769MOL0     H 1492   5.396   2.650   8.553 -1.9485  2.5039 -0.6629
  769MOL0     H 1493   5.453   2.488   8.373  1.3914 -0.8921 -3.3864
  769MOL0     H 1494   5.579   3.323   6.590  1.0512 -3.6934 -2.4861
  769MOL0     H 1495   5.674   3.376   6.368 -0.1475  2.2464  0.6162
  769MOL0     H 1496   6.120   3.556   6.193 -1.7505 -0.1062  1.1874
  769MOL0     H 1497   6.235   3.616   5.976  0.3124 -0.1846 -0.3749
  769MOL0     H 1498   6.057   3.514   5.621 -0.8924 -5.3539  0.5164
  769MOL0     H 1499   6.169   3.391   5.601 -0.1625  0.9026 -1.9976
  769MOL0     H 1500   6.230   3.693   5.586 -2.6759  1.4101 -2.4958
  769MOL0     H 1501   6.344   3.562   5.543 -0.1479 -2.5856  1.3217
  769MOL0     H 1502   6.092   3.574   5.393  0.6895 -0.7359  3.4645
  769MOL0     H 1503   6.264   3.513   5.347  2.3458  1.9887 -1.4810
  769MOL0     H 1504   6.350   3.711   5.298 -0.4538 -3.5536 -1.1313
  769MOL0     H 1505   6.207   3.692   5.206 -0.0788 -0.5121 -0.0302
  769MOL0     H 1506   6.198   4.050   5.474  1.1735  1.3545 -1.7567
  769MOL0     H 1507   6.041   3.295   5.780  1.8258  3.4467 -2.0928
  769MOL0     H 1508   5.896   3.267   5.979 -0.0208  1.3536  0.1607
  770MOL0     O 1509   5.234   3.919   6.293 -0.4451 -0.1268  0.5082
  770MOL0     C 1510   5.287   3.908   6.399 -1.0012 -1.1574 -0.5220
  770MOL0     O 1511   5.418   3.881   6.418  0.2466  0.3841 -1.3541
  770MOL0     C 1512   5.523   3.855   6.330  0.0344  0.5563  0.2271
  770MOL0     C 1513   5.523   3.915   6.206 -0.3177  0.4610  1.3586
  770MOL0     C 1514   5.618   3.890   6.099  0.7694 -0.5324 -0.7441
  770MOL0     C 1515   5.711   3.797   6.121 -0.2881  0.7361 -0.3525
  770MOL0     O 1516   5.810   3.778   6.032 -0.2578  0.0674  0.9701
  770MOL0     C 1517   5.778   3.659   5.951  0.3168 -0.2011  0.3992
  770MOL0     C 1518   5.836   3.675   5.806 -0.3131 -0.6650  0.6681
  770MOL0     C 1519   5.809   3.549   5.714 -0.3153 -0.3181  0.2564
  770MOL0     C 1520   5.658   3.513   5.714  0.4947 -0.4572  0.1640
  770MOL0     C 1521   5.604   3.428   5.588 -0.4667 -0.7803 -0.0253
  770MOL0     C 1522   5.618   3.280   5.621 -0.0791 -0.3855  0.9560
  770MOL0     C 1523   5.625   3.185   5.505  0.2156 -0.1836  0.8629
  770MOL0     C 1524   5.515   3.208   5.393 -0.6069 -0.7744 -1.1044
  770MOL0     N 1525   5.538   3.108   5.288  0.0220  0.6218 -0.0850
  770MOL0     C 1526   5.589   3.133   5.165 -0.2347  0.0596 -0.3907
  770MOL0     C 1527   5.566   3.016   5.096  0.0551 -0.8190  0.6051
  770MOL0     C 1528   5.629   2.995   4.964 -0.4567 -0.6377 -0.3105
  770MOL0     C 1529   5.778   2.972   4.991  0.3664 -0.0821  0.0439
  770MOL0     C 1530   5.818   2.871   4.889 -0.1064  0.8210 -0.2874
  770MOL0     C 1531   5.978   2.857   4.860  1.5327  0.4709 -0.0543
  770MOL0     O 1532   6.015   2.985   4.802  0.1080  0.0258 -0.9504
  770MOL0     C 1533   6.115   2.988   4.702  0.7855  0.0756 -0.3400
  770MOL0     C 1534   6.115   3.104   4.619  0.0475  0.4649  0.6771
  770MOL0     C 1535   6.203   3.111   4.511 -0.6969 -0.0023  0.5103
  770MOL0     C 1536   6.275   3.003   4.477 -0.1252 -0.2061  1.0622
  770MOL0     C 1537   6.341   3.013   4.353  0.0751 -0.5617 -0.8246
  770MOL0     O 1538   6.380   2.892   4.305  0.9502  0.9439 -0.3373
  770MOL0     C 1539   6.475   2.886   4.211  0.5068  0.4149  0.4986
  770MOL0     C 1540   6.587   2.982   4.207 -0.4382 -0.2130  0.1381
  770MOL0     C 1541   6.684   2.984   4.113 -0.4410  0.0825  0.6829
  770MOL0     C 1542   6.684   2.887   4.015  0.7163  0.4758 -1.5654
  770MOL0     O 1543   6.780   2.879   3.920 -0.1394 -0.2082 -0.4827
  770MOL0     C 1544   6.850   2.995   3.882 -0.2233 -0.0746  0.0130
  770MOL0     C 1545   6.936   2.965   3.754  0.7038 -0.8142 -0.3658
  770MOL0     C 1546   7.074   2.914   3.791  1.3640  0.2354 -0.3663
  770MOL0     C 1547   7.066   2.776   3.862  0.7753  0.5583 -0.2362
  770MOL0     C 1548   7.016   2.664   3.766  0.5414 -0.0321  0.1430
  770MOL0     C 1549   7.108   2.623   3.650  0.6613 -0.2739 -1.1774
  770MOL0     C 1550   7.054   2.495   3.585  0.1108 -0.2802 -0.3873
  770MOL0     C 1551   7.092   2.487   3.438 -0.4571 -0.2702 -0.3379
  770MOL0    Cl 1552   7.270   2.485   3.446  0.0274  0.0866 -0.0359
  770MOL0     C 1553   6.588   2.785   4.027 -1.0444 -0.0689  0.1446
  770MOL0     C 1554   6.478   2.782   4.118 -0.3413 -0.0754  0.1639
  770MOL0     O 1555   6.345   3.115   4.288 -0.3499  0.2482 -0.0329
  770MOL0     C 1556   6.263   2.880   4.545  0.0047 -0.3196  0.8270
  770MOL0     C 1557   6.189   2.879   4.662  0.7211  0.3622 -1.0676
  770MOL0     N 1558   5.499   2.930   5.177 -1.0012 -0.0522  0.1547
  770MOL0     N 1559   5.473   2.987   5.283  0.5782 -0.0102  0.5810
  770MOL0     C 1560   5.712   3.726   6.241 -0.2531 -0.2149 -0.0435
  770MOL0     C 1561   5.617   3.744   6.344 -0.3772  1.7934  0.1042
  770MOL0     C 1562   5.213   3.952   6.519  0.3577 -0.1660 -0.4859
  770MOL0     C 1563   5.090   4.026   6.500 -1.1565  0.2410 -0.4427
  770MOL0     C 1564   4.997   4.057   6.604 -0.6204 -0.2651  0.3998
  770MOL0     C 1565   5.032   4.015   6.731 -0.4928  0.1168 -0.5058
  770MOL0     O 1566   4.951   4.013   6.838  0.4416  0.6220 -0.2323
  770MOL0     C 1567   4.801   4.014   6.825 -0.4538  0.9661 -0.2181
  770MOL0     C 1568   4.738   4.056   6.966 -0.0120  0.1930  0.8875
  770MOL0     C 1569   4.776   4.196   7.012 -0.1924 -0.8826 -0.0936
  770MOL0     C 1570   4.744   4.206   7.167  0.5197 -0.6868  0.1838
  770MOL0     C 1571   4.848   4.159   7.259  0.2427  0.7274 -0.3579
  770MOL0     C 1572   4.928   4.134   7.350  0.1836  0.2005  0.7441
  770MOL0     C 1573   5.165   3.958   6.754  0.5703 -0.3192 -0.1716
  770MOL0     C 1574   5.253   3.926   6.653 -1.0895 -0.1739  0.7458
  770MOL0     H 1575   5.447   3.987   6.180 -0.7278 -0.2002  0.6647
  770MOL0     H 1576   5.603   3.946   6.008  1.7167  0.8818 -0.0594
  770MOL0     H 1577   5.673   3.655   5.919  1.5253 -0.2183 -4.3579
  770MOL0     H 1578   5.809   3.570   6.006 -1.2081 -0.7653  0.3953
  770MOL0     H 1579   5.945   3.680   5.814 -0.1844  1.3077 -1.3402
  770MOL0     H 1580   5.810   3.765   5.750 -1.6468 -1.0619  0.6105
  770MOL0     H 1581   5.859   3.460   5.753 -0.1391  1.1039  3.6373
  770MOL0     H 1582   5.842   3.564   5.611  1.8625  1.0974  1.0990
  770MOL0     H 1583   5.633   3.460   5.806  1.2821 -1.4394 -0.1620
  770MOL0     H 1584   5.596   3.603   5.714 -0.2852 -0.8081  4.1750
  770MOL0     H 1585   5.682   3.447   5.514 -2.7385 -0.1047 -2.3910
  770MOL0     H 1586   5.504   3.466   5.562 -0.8337 -1.0889  0.8952
  770MOL0     H 1587   5.535   3.257   5.688 -0.3313 -1.8123  0.1963
  770MOL0     H 1588   5.719   3.270   5.663  0.5752  2.4412  0.2702
  770MOL0     H 1589   5.720   3.192   5.451  0.1082 -2.4245  0.2931
  770MOL0     H 1590   5.615   3.080   5.535 -0.3636 -0.4891 -0.3276
  770MOL0     H 1591   5.513   3.310   5.354 -1.1764 -0.1772  0.4084
  770MOL0     H 1592   5.417   3.196   5.440 -1.4861  1.7890 -2.0964
  770MOL0     H 1593   5.643   3.224   5.140  0.6848 -0.7328 -1.3976
  770MOL0     H 1594   5.616   3.081   4.898 -0.1532  0.6850  1.2994
  770MOL0     H 1595   5.573   2.912   4.919  0.5052 -2.0460  0.9749
  770MOL0     H 1596   5.785   2.928   5.090 -2.2330  1.4936  1.0424
  770MOL0     H 1597   5.818   3.074   4.994  0.4318 -0.1256  1.0559
  770MOL0     H 1598   5.770   2.779   4.923 -2.8550  2.4786  0.5660
  770MOL0     H 1599   5.770   2.891   4.792 -2.7304 -1.3043  0.4355
  770MOL0     H 1600   5.982   2.772   4.792  0.2433  1.1287 -1.0043
  770MOL0     H 1601   6.031   2.833   4.953 -1.9651 -2.3023  1.4658
  770MOL0     H 1602   6.045   3.184   4.638  0.4056  0.5821  1.5821
  770MOL0     H 1603   6.201   3.199   4.447  1.6225  0.4362  0.9477
  770MOL0     H 1604   6.596   3.057   4.285 -2.1538 -1.8422  2.0369
  770MOL0     H 1605   6.752   3.068   4.118  1.9289 -1.6095 -1.0797
  770MOL0     H 1606   6.920   3.029   3.958 -1.0697  0.1148  0.7204
  770MOL0     H 1607   6.786   3.081   3.862  2.5330  1.6143 -2.3565
  770MOL0     H 1608   6.947   3.059   3.701 -2.9639 -1.9117 -3.5710
  770MOL0     H 1609   6.888   2.901   3.679  0.0252  0.7724 -1.3287
  770MOL0     H 1610   7.110   2.979   3.871 -0.6950  0.5216  0.3750
  770MOL0     H 1611   7.151   2.905   3.714  1.8612 -0.2270  0.1709
  770MOL0     H 1612   7.163   2.745   3.901 -0.5619 -3.6456  0.3352
  770MOL0     H 1613   7.002   2.785   3.951  0.8258  2.7257 -0.3584
  770MOL0     H 1614   6.920   2.692   3.722  1.1139 -0.5145 -1.4946
  770MOL0     H 1615   6.996   2.577   3.829  0.1178 -0.1586 -0.1648
  770MOL0     H 1616   7.208   2.604   3.690  1.0745  1.9185 -1.0604
  770MOL0     H 1617   7.106   2.710   3.584  2.2739  0.8370  0.1609
  770MOL0     H 1618   7.091   2.415   3.649 -1.1617 -0.4338  0.1874
  770MOL0     H 1619   6.946   2.481   3.596  0.2094 -0.4608  0.4243
  770MOL0     H 1620   7.057   2.571   3.379 -2.9995 -0.9371  0.1229
  770MOL0     H 1621   7.077   2.392   3.386  0.6689 -1.1607  0.8839
  770MOL0     H 1622   6.610   2.709   3.953  0.3015  2.6722 -2.4881
  770MOL0     H 1623   6.400   2.707   4.123  2.3665 -3.2109 -0.5986
  770MOL0     H 1624   6.313   2.787   4.520  0.5036 -1.3222  4.9075
  770MOL0     H 1625   6.191   2.794   4.729  1.2278  0.8695 -0.4179
  770MOL0     H 1626   5.785   3.646   6.251 -0.3326 -0.5218 -1.7434
  770MOL0     H 1627   5.611   3.675   6.428  0.7191  2.0669  0.4134
  770MOL0     H 1628   5.067   4.047   6.396 -2.4256 -1.4209 -0.5391
  770MOL0     H 1629   4.910   4.111   6.568  0.4807  1.1463 -0.2435
  770MOL0     H 1630   4.756   3.917   6.799 -0.2124  0.8877 -0.3416
  770MOL0     H 1631   4.773   4.083   6.745 -2.3345 -1.6175 -1.9792
  770MOL0     H 1632   4.632   4.049   6.943  0.4399 -0.8706 -1.1718
  770MOL0     H 1633   4.772   3.984   7.042 -1.0576 -2.0597 -0.6461
  770MOL0     H 1634   4.714   4.271   6.962  0.2685  2.8767  4.3300
  770MOL0     H 1635   4.883   4.213   6.996 -0.2906 -1.3799 -1.4101
  770MOL0     H 1636   4.739   4.312   7.191  5.6021  0.4117 -2.2379
  770MOL0     H 1637   4.653   4.155   7.200  0.0323  2.4647  4.6896
  770MOL0     H 1638   4.992   4.112   7.433 -0.1272 -0.9090  0.7027
  770MOL0     H 1639   5.192   3.926   6.854  3.6834 -0.5698 -0.9781
  770MOL0     H 1640   5.347   3.883   6.685  0.0256  0.8440 -1.0088
  771MOL0     O 1641   0.882   9.818   8.111  0.5590  0.0643  0.1853
  771MOL0     C 1642   0.851   9.736   8.188 -0.3594  0.3426 -0.4706
  771MOL0     O 1643   0.935   9.682   8.281  1.2699  0.2549  0.7451
  771MOL0     C 1644   1.065   9.723   8.274  0.6024  0.1283  0.2382
  771MOL0     C 1645   1.126   9.783   8.383  0.0955 -0.1941  0.2384
  771MOL0     C 1646   1.258   9.804   8.391  1.0796 -0.1106  0.3640
  771MOL0     C 1647   1.342   9.778   8.285  0.7736  0.3185 -1.1126
  771MOL0     O 1648   1.475   9.804   8.300  0.0810 -0.1639  0.9464
  771MOL0     C 1649   1.558   9.816   8.187  1.0022  1.0038  0.2147
  771MOL0     C 1650   1.700   9.814   8.245 -1.0425 -0.1229  0.2296
  771MOL0     C 1651   1.796   9.804   8.135  0.4677  0.0259 -0.2315
  771MOL0     C 1652   1.809   9.916   8.041  0.9848  0.5851  0.5169
  771MOL0     C 1653   1.934   9.906   7.954 -0.5468  0.4170  0.3468
  771MOL0     C 1654   1.941   9.775   7.872  0.4949 -0.4209  0.4681
  771MOL0     C 1655   2.042   9.797   7.755  0.0773 -0.5905 -0.5079
  771MOL0     C 1656   2.039   9.688   7.646 -0.3577 -0.1349  0.1758
  771MOL0     N 1657   2.148   9.696   7.549  0.1140  0.1857 -0.1903
  771MOL0     C 1658   2.147   9.774   7.442 -1.0161 -0.6851  0.2172
  771MOL0     C 1659   2.275   9.762   7.399  0.0045 -0.1715  0.1926
  771MOL0     C 1660   2.334   9.834   7.270 -0.4428 -0.2091 -0.2137
  771MOL0     C 1661   2.382   9.732   7.161  0.4699  0.0356 -0.3755
  771MOL0     C 1662   2.374   9.782   7.016 -0.2377 -0.0685  0.3625
  771MOL0     C 1663   2.472   9.903   6.988  0.5809  1.0786 -0.8459
  771MOL0     O 1664   2.426   9.985   6.874 -0.0457  1.3054 -0.5277
  771MOL0     C 1665   2.328  10.081   6.899  0.3405  0.1298  0.3409
  771MOL0     C 1666   2.269  10.143   6.782 -1.0228 -0.2254 -0.2629
  771MOL0     C 1667   2.179  10.245   6.794 -0.4254 -0.8612  0.7748
  771MOL0     C 1668   2.118  10.272   6.914 -0.1999  0.2655  0.4033
  771MOL0     C 1669   2.011  10.363   6.913 -0.7127  0.3581 -0.5914
  771MOL0     O 1670   1.962  10.391   7.039  0.2753 -0.3509  1.4783
  771MOL0     C 1671   1.865  10.491   7.035 -0.3133  0.7041 -0.7579
  771MOL0     C 1672   1.729  10.471   7.021  0.2797  0.1279 -0.3241
  771MOL0     C 1673   1.636  10.587   7.009 -0.1878  0.3898 -1.0653
  771MOL0     C 1674   1.683  10.715   7.015 -0.2698  0.5018 -0.2204
  771MOL0     O 1675   1.605  10.820   6.999 -0.7685 -0.7939 -0.7307
  771MOL0     C 1676   1.492  10.819   6.907  0.2307 -0.2439 -0.3235
  771MOL0     C 1677   1.540  10.853   6.764 -0.0342  0.6689  0.2524
  771MOL0     C 1678   1.612  10.737   6.699 -0.4180 -0.1836  0.3456
  771MOL0     C 1679   1.660  10.751   6.551  0.3025 -0.5332 -0.1995
  771MOL0     C 1680   1.746  10.627   6.524 -0.2255 -0.7363  0.6199
  771MOL0     C 1681   1.823  10.647   6.392 -0.8355 -0.5020 -0.9227
  771MOL0     C 1682   1.727  10.633   6.270  0.1005  0.1891 -0.0544
  771MOL0     C 1683   1.754  10.514   6.174 -0.1156 -0.0303 -0.2592
  771MOL0    Cl 1684   1.747  10.357   6.258  0.6409 -0.2558  0.0121
  771MOL0     C 1685   1.816  10.731   7.034 -0.5168 -0.2809  0.2632
  771MOL0     C 1686   1.917  10.623   7.041  0.7301  0.2262 -0.2808
  771MOL0     O 1687   1.970  10.412   6.807  0.3790  0.1351 -0.1842
  771MOL0     C 1688   2.164  10.198   7.027  0.3566 -0.0302 -0.4611
  771MOL0     C 1689   2.283  10.123   7.027  0.8145  0.4572  1.1130
  771MOL0     N 1690   2.343   9.692   7.488  0.4124  0.0740 -0.1114
  771MOL0     N 1691   2.269   9.654   7.584  0.0979 -0.2962  0.0969
  771MOL0     C 1692   1.284   9.724   8.167 -0.1066 -0.6664  0.0247
  771MOL0     C 1693   1.151   9.690   8.164 -0.1841  0.0216 -0.1416
  771MOL0     C 1694   0.710   9.689   8.178 -1.1181  0.6773 -0.1785
  771MOL0     C 1695   0.620   9.727   8.067 -0.0479 -0.5982 -0.3498
  771MOL0     C 1696   0.487   9.686   8.068 -0.0170 -0.2691 -0.5911
  771MOL0     C 1697   0.439   9.605   8.170  0.2302 -0.4568 -0.4113
  771MOL0     O 1698   0.306   9.564   8.160 -0.6499 -0.8773  0.2054
  771MOL0     C 1699   0.229   9.651   8.245 -0.7130 -1.0405 -0.2211
  771MOL0     C 1700   0.084   9.638   8.193  0.2792 -0.3517  0.1393
  771MOL0     C 1701  -0.005   9.751   8.267  0.1847 -0.4282  0.4537
  771MOL0     C 1702  -0.029   9.865   8.171  0.3656 -0.9485  0.6439
  771MOL0     C 1703   0.088   9.946   8.166 -0.4931  0.2321 -0.9852
  771MOL0     C 1704   0.192  10.008   8.175 -1.0482  0.0673 -0.6622
  771MOL0     C 1705   0.523   9.569   8.273  0.1854  0.1919 -0.1727
  771MOL0     C 1706   0.654   9.604   8.277  0.0237 -0.6991  0.1595
  771MOL0     H 1707   1.070   9.797   8.475  0.7336  0.1578  0.5804
  771MOL0     H 1708   1.288   9.857   8.481 -0.4033 -1.5431  1.7710
  771MOL0     H 1709   1.542   9.908   8.130  0.0368  1.0926  0.6101
  771MOL0     H 1710   1.551   9.730   8.119 -0.7614  1.2170  0.0830
  771MOL0     H 1711   1.710   9.731   8.316 -0.8618  0.4146  0.8494
  771MOL0     H 1712   1.721   9.908   8.298 -0.8029  1.2238 -2.1363
  771MOL0     H 1713   1.782   9.717   8.070  4.4363  1.1516 -2.9339
  771MOL0     H 1714   1.891   9.795   8.188  1.6838  0.0026 -2.3141
  771MOL0     H 1715   1.723   9.915   7.974  1.2745 -4.3505 -0.1544
  771MOL0     H 1716   1.829  10.006   8.099  1.7221  1.2114 -0.6854
  771MOL0     H 1717   2.011   9.931   8.028 -2.5204  3.0235  1.6591
  771MOL0     H 1718   1.932   9.989   7.883  0.4454  1.0620  1.0394
  771MOL0     H 1719   1.846   9.746   7.826  1.0276 -0.1407 -0.8537
  771MOL0     H 1720   1.972   9.695   7.940  0.5506  1.5718  2.9480
  771MOL0     H 1721   2.021   9.891   7.704 -0.1083 -0.8384 -0.8946
  771MOL0     H 1722   2.140   9.811   7.800  1.0185  0.6294 -2.8118
  771MOL0     H 1723   1.943   9.695   7.593 -1.6035 -1.7962  2.0738
  771MOL0     H 1724   2.044   9.587   7.688  1.6636 -1.1256 -2.1829
  771MOL0     H 1725   2.076   9.842   7.396 -2.8558 -2.0581  0.8748
  771MOL0     H 1726   2.429   9.876   7.304  0.6348 -3.5491  1.3644
  771MOL0     H 1727   2.271   9.912   7.227 -1.1546 -0.4249  0.4070
  771MOL0     H 1728   2.323   9.640   7.156 -3.2643  2.2832 -2.4837
  771MOL0     H 1729   2.483   9.701   7.187 -1.5353 -6.4442  1.8266
  771MOL0     H 1730   2.401   9.700   6.949  1.2213 -0.9633  1.9639
  771MOL0     H 1731   2.273   9.807   6.983 -0.5700 -1.8603 -0.1146
  771MOL0     H 1732   2.564   9.847   6.970 -1.5924 -2.3709 -2.6100
  771MOL0     H 1733   2.480   9.954   7.084 -2.7082 -1.0138  0.7423
  771MOL0     H 1734   2.315  10.119   6.687 -0.5437  2.5165 -0.8032
  771MOL0     H 1735   2.163  10.312   6.710 -0.5572  0.8684  2.1331
  771MOL0     H 1736   1.682  10.375   7.038 -0.9889  0.6574 -0.7416
  771MOL0     H 1737   1.529  10.572   7.023  0.0314 -0.1509  0.2569
  771MOL0     H 1738   1.421  10.898   6.933  1.6658  1.7056 -2.0633
  771MOL0     H 1739   1.437  10.725   6.920  1.5197 -0.7072  2.5197
  771MOL0     H 1740   1.609  10.937   6.778  1.1827  0.1361 -2.0019
  771MOL0     H 1741   1.462  10.890   6.698 -0.4482  0.5846  0.6914
  771MOL0     H 1742   1.538  10.657   6.711 -1.1355  0.4219  0.0355
  771MOL0     H 1743   1.699  10.713   6.761 -0.8681  0.3168  1.1882
  771MOL0     H 1744   1.573  10.747   6.484  0.7357 -0.1172 -0.8034
  771MOL0     H 1745   1.716  10.843   6.530  0.6135 -0.1338  2.0866
  771MOL0     H 1746   1.684  10.539   6.508 -2.4640  1.0577 -1.5166
  771MOL0     H 1747   1.820  10.608   6.602  3.2524  2.6265 -1.5034
  771MOL0     H 1748   1.899  10.570   6.377 -0.9378 -0.7477 -0.2305
  771MOL0     H 1749   1.874  10.744   6.398 -0.9753 -0.4284 -0.9304
  771MOL0     H 1750   1.627  10.605   6.304  0.9255 -2.0720  0.6541
  771MOL0     H 1751   1.729  10.733   6.225 -0.8823 -0.4322 -1.5318
  771MOL0     H 1752   1.848  10.523   6.118 -0.0693  0.1850 -0.1474
  771MOL0     H 1753   1.669  10.517   6.106  0.2124  0.6188 -0.6541
  771MOL0     H 1754   1.853  10.832   7.053  4.7802 -1.9752  0.5635
  771MOL0     H 1755   2.024  10.636   7.057  1.2444  0.2212 -3.1573
  771MOL0     H 1756   2.112  10.235   7.114  0.1377  2.0785 -1.4232
  771MOL0     H 1757   2.335  10.098   7.119  1.4971 -1.3542  0.2952
  771MOL0     H 1758   1.345   9.716   8.078  0.9850  1.1069  0.5628
  771MOL0     H 1759   1.114   9.665   8.065 -0.0726  0.5270 -0.3139
  771MOL0     H 1760   0.665   9.788   7.989  0.7459 -0.0921  0.4701
  771MOL0     H 1761   0.415   9.724   7.996 -0.9629 -0.7677  0.0796
  771MOL0     H 1762   0.265   9.754   8.241 -2.5935  0.1084  4.7079
  771MOL0     H 1763   0.225   9.622   8.351 -2.8934  1.3940  0.4533
  771MOL0     H 1764   0.077   9.640   8.084 -2.5784 -1.3423  0.2097
  771MOL0     H 1765   0.049   9.540   8.226  0.7324 -0.7153 -0.4426
  771MOL0     H 1766   0.035   9.782   8.364 -0.1165 -0.3384  0.5497
  771MOL0     H 1767  -0.108   9.716   8.281 -1.1462  2.2969 -1.4571
  771MOL0     H 1768  -0.058   9.832   8.071  4.0169  1.6880 -1.4959
  771MOL0     H 1769  -0.115   9.923   8.206 -2.6800 -3.9375 -1.2126
  771MOL0     H 1770   0.269  10.082   8.180  0.8516 -1.8112 -0.5886
  771MOL0     H 1771   0.484   9.498   8.345 -0.3003  1.5476  0.9540
  771MOL0     H 1772   0.727   9.572   8.351 -0.3372 -1.4951  0.1854
  772MOL0     O 1773   1.783   5.038   4.858  0.6545  0.4401  0.0833
  772MOL0     C 1774   1.670   5.010   4.883 -0.1343  0.7614 -0.1528
  772MOL0     O 1775   1.607   4.888   4.847 -0.8383  0.2144 -0.0012
  772MOL0     C 1776   1.694   4.796   4.791  0.5845  0.3043 -0.2262
  772MOL0     C 1777   1.669   4.731   4.667  0.3678 -0.8649 -0.1820
  772MOL0     C 1778   1.736   4.624   4.617 -0.2001 -0.6410 -0.4708
  772MOL0     C 1779   1.845   4.577   4.691  0.2220  0.8214  0.1862
  772MOL0     O 1780   1.915   4.470   4.635 -0.8721  0.1521 -0.7659
  772MOL0     C 1781   2.023   4.405   4.709 -0.6348 -0.7093  0.3606
  772MOL0     C 1782   2.106   4.326   4.608  0.2246  0.7935  0.1321
  772MOL0     C 1783   2.054   4.186   4.571 -0.7437 -0.2644 -0.1108
  772MOL0     C 1784   2.042   4.084   4.688  0.0656  0.4959 -0.5047
  772MOL0     C 1785   2.174   4.080   4.762 -0.7153 -0.7468  0.9210
  772MOL0     C 1786   2.168   3.972   4.872  0.2179  0.7655 -0.1304
  772MOL0     C 1787   2.297   3.943   4.948  0.2031 -0.3624 -0.2054
  772MOL0     C 1788   2.330   4.057   5.047 -0.5559  0.5029  0.0381
  772MOL0     N 1789   2.447   4.020   5.119  0.4775  0.1554  0.6563
  772MOL0     C 1790   2.448   3.970   5.244 -0.5768  0.2127 -1.0870
  772MOL0     C 1791   2.582   3.980   5.284 -0.6016  0.4457  0.5872
  772MOL0     C 1792   2.642   3.944   5.419  0.6197  0.2070  0.1447
  772MOL0     C 1793   2.599   4.033   5.524 -0.8014 -0.1279  0.4979
  772MOL0     C 1794   2.668   4.004   5.658 -0.9762 -0.1834 -0.1426
  772MOL0     C 1795   2.820   4.005   5.656 -0.2323  0.5010  0.1883
  772MOL0     O 1796   2.873   4.108   5.566  0.7716  0.0272  0.2886
  772MOL0     C 1797   2.939   4.208   5.634 -0.0673  0.1574  1.9763
  772MOL0     C 1798   3.027   4.297   5.556 -0.7891  0.3906 -0.4331
  772MOL0     C 1799   3.068   4.419   5.614 -0.2668  0.1729 -0.3506
  772MOL0     C 1800   3.049   4.453   5.750 -0.0804 -0.2758 -0.4758
  772MOL0     C 1801   3.095   4.586   5.803 -0.0607 -0.6044 -0.0070
  772MOL0     O 1802   3.054   4.613   5.933 -0.3903  0.3528 -0.0942
  772MOL0     C 1803   3.070   4.735   5.988  0.0777 -1.4587 -0.2439
  772MOL0     C 1804   2.948   4.802   6.025 -0.2756  0.9292  0.4869
  772MOL0     C 1805   2.952   4.926   6.093  0.4302  0.7760  0.5121
  772MOL0     C 1806   3.071   4.985   6.132 -0.0587  0.1242  0.9134
  772MOL0     O 1807   3.061   5.086   6.219 -0.1410  0.0575 -0.6079
  772MOL0     C 1808   3.186   5.144   6.271  0.4273 -0.0540  0.1593
  772MOL0     C 1809   3.175   5.286   6.299  0.5161 -0.9424  0.0181
  772MOL0     C 1810   3.053   5.325   6.390 -0.1045  0.3519  0.5314
  772MOL0     C 1811   3.067   5.465   6.455 -0.7797  1.0617 -0.7166
  772MOL0     C 1812   2.939   5.485   6.536  0.5066  0.4106 -0.6407
  772MOL0     C 1813   2.938   5.618   6.609  0.1918 -0.2988 -0.2125
  772MOL0     C 1814   2.902   5.744   6.518 -1.4024  0.0515 -0.0500
  772MOL0     C 1815   2.771   5.802   6.530 -0.1904  0.1056 -0.2424
  772MOL0    Cl 1816   2.750   5.874   6.699  0.1921  0.2512 -0.6655
  772MOL0     C 1817   3.180   4.913   6.088 -0.0574 -0.6026  0.3611
  772MOL0     C 1818   3.188   4.794   6.011  0.3844 -0.2240  0.4435
  772MOL0     O 1819   3.147   4.672   5.723  0.3366 -0.1221  0.0012
  772MOL0     C 1820   2.970   4.367   5.825  0.4812 -0.5924 -0.1756
  772MOL0     C 1821   2.915   4.251   5.764  0.3115  0.5690  0.5067
  772MOL0     N 1822   2.654   4.028   5.178 -1.5125 -0.2837  1.4999
  772MOL0     N 1823   2.579   4.042   5.075 -0.0330 -0.0183  0.2983
  772MOL0     C 1824   1.881   4.627   4.817  0.0516 -0.5332 -0.1185
  772MOL0     C 1825   1.808   4.742   4.863 -0.4883 -0.4954 -0.9403
  772MOL0     C 1826   1.592   5.109   4.964  0.0055  0.1835 -1.4185
  772MOL0     C 1827   1.648   5.230   5.004 -0.1208  0.4653  0.4904
  772MOL0     C 1828   1.592   5.306   5.098 -0.0387  0.6365 -0.0883
  772MOL0     C 1829   1.477   5.260   5.170  0.7344  0.1334 -0.4794
  772MOL0     O 1830   1.440   5.325   5.286  0.1774 -0.1938  0.3051
  772MOL0     C 1831   1.310   5.312   5.342 -0.9255 -0.3471  0.0642
  772MOL0     C 1832   1.299   5.187   5.441 -0.0664 -0.5588  0.8812
  772MOL0     C 1833   1.409   5.190   5.551 -0.1981  0.2008 -0.0065
  772MOL0     C 1834   1.370   5.088   5.665  0.3999  0.0146 -0.4747
  772MOL0     C 1835   1.371   4.958   5.608  0.6294  0.8218 -0.7492
  772MOL0     C 1836   1.362   4.845   5.576 -0.9210  0.5820 -0.3192
  772MOL0     C 1837   1.406   5.154   5.114 -1.2120 -0.2765 -0.1870
  772MOL0     C 1838   1.469   5.076   5.010 -0.7817 -0.2372 -0.1041
  772MOL0     H 1839   1.573   4.748   4.619  0.8499 -1.3535 -1.3556
  772MOL0     H 1840   1.711   4.579   4.522  1.7722 -2.0775 -0.3920
  772MOL0     H 1841   1.980   4.341   4.787  1.4956 -0.7306  1.6194
  772MOL0     H 1842   2.091   4.474   4.760 -0.5343 -1.8565  1.8366
  772MOL0     H 1843   2.214   4.325   4.625 -0.0174 -0.2138  1.9519
  772MOL0     H 1844   2.097   4.383   4.515 -1.6602  0.5637  0.1437
  772MOL0     H 1845   2.125   4.152   4.495  0.1086 -0.8850  0.9271
  772MOL0     H 1846   1.953   4.197   4.531 -0.8611 -0.2547  0.1876
  772MOL0     H 1847   1.960   4.110   4.755 -0.7375 -0.9489 -0.8858
  772MOL0     H 1848   2.016   3.988   4.643  1.6041 -0.9032  1.4342
  772MOL0     H 1849   2.218   4.173   4.799  1.1160 -0.9754 -0.5341
  772MOL0     H 1850   2.250   4.048   4.691 -0.7397  1.6960 -0.3075
  772MOL0     H 1851   2.150   3.885   4.809  0.3168 -0.2961  1.2525
  772MOL0     H 1852   2.081   3.995   4.933 -0.7643 -1.7522 -0.4405
  772MOL0     H 1853   2.276   3.855   5.009  0.0201  1.2071  2.1044
  772MOL0     H 1854   2.379   3.917   4.880  1.1612  1.3099  0.2529
  772MOL0     H 1855   2.246   4.090   5.109 -1.4524 -1.5959  0.0367
  772MOL0     H 1856   2.358   4.145   4.988  0.1988 -0.2048 -0.6900
  772MOL0     H 1857   2.367   3.951   5.313  0.8346  1.2816  0.9852
  772MOL0     H 1858   2.749   3.966   5.406  1.2522 -1.9067  1.3183
  772MOL0     H 1859   2.625   3.837   5.432 -0.6161 -0.0744 -3.0171
  772MOL0     H 1860   2.493   4.010   5.539 -0.5266 -2.0977 -0.2094
  772MOL0     H 1861   2.624   4.134   5.491  1.8697 -1.0232 -0.4760
  772MOL0     H 1862   2.636   4.078   5.732  0.3703 -2.4453  2.9139
  772MOL0     H 1863   2.649   3.901   5.689  2.4050 -0.1555  2.6730
  772MOL0     H 1864   2.842   3.908   5.611 -2.7095 -0.5184  1.0193
  772MOL0     H 1865   2.875   4.000   5.750  0.2376 -2.9144 -0.1458
  772MOL0     H 1866   3.041   4.271   5.452 -0.6453  1.1410 -0.6114
  772MOL0     H 1867   3.135   4.471   5.546 -1.6063 -0.8379 -2.5947
  772MOL0     H 1868   2.851   4.757   6.010 -0.9083  1.7462  1.9689
  772MOL0     H 1869   2.860   4.975   6.123  0.1070 -0.5103  1.7065
  772MOL0     H 1870   3.268   5.139   6.199 -0.9462 -2.1032 -1.3691
  772MOL0     H 1871   3.212   5.084   6.358 -0.4459  0.9908  1.1871
  772MOL0     H 1872   3.165   5.339   6.204  0.0052  0.2048  0.6978
  772MOL0     H 1873   3.262   5.330   6.350 -0.9348  0.8711  1.0549
  772MOL0     H 1874   3.058   5.257   6.475  0.0148  3.7202  3.4866
  772MOL0     H 1875   2.965   5.321   6.325 -0.3288 -0.8996  0.8933
  772MOL0     H 1876   3.149   5.464   6.527 -1.1000 -0.9041 -0.3244
  772MOL0     H 1877   3.090   5.552   6.392 -1.1493  1.0622 -0.8554
  772MOL0     H 1878   2.934   5.417   6.622  4.8438 -1.7100 -1.7603
  772MOL0     H 1879   2.862   5.459   6.463  0.9397 -4.8394  0.3281
  772MOL0     H 1880   3.037   5.625   6.655  0.7540 -0.5226 -1.3451
  772MOL0     H 1881   2.863   5.627   6.688  1.5157 -0.8824  1.1622
  772MOL0     H 1882   2.976   5.820   6.547  1.2654 -3.1930  2.5182
  772MOL0     H 1883   2.906   5.711   6.414 -0.9415 -2.2931  0.6492
  772MOL0     H 1884   2.701   5.727   6.493 -1.7001  0.4622  1.7648
  772MOL0     H 1885   2.762   5.881   6.455 -1.4435  1.3395  1.1467
  772MOL0     H 1886   3.274   4.949   6.129  0.0052  0.3353 -0.5397
  772MOL0     H 1887   3.283   4.742   6.003  0.0007 -1.2403  1.9701
  772MOL0     H 1888   2.944   4.399   5.926  1.7877  0.7354 -0.2163
  772MOL0     H 1889   2.845   4.193   5.823  0.2177  0.3289  0.1634
  772MOL0     H 1890   1.948   4.581   4.889 -0.7849 -1.9753 -0.2120
  772MOL0     H 1891   1.839   4.792   4.954 -3.7812 -1.2522  0.7736
  772MOL0     H 1892   1.752   5.254   4.981  0.1811 -2.9362 -2.5575
  772MOL0     H 1893   1.646   5.390   5.141  1.1891  0.0081 -0.3701
  772MOL0     H 1894   1.240   5.315   5.259  0.3425 -1.4642 -1.1066
  772MOL0     H 1895   1.288   5.402   5.401  2.7688  0.2953  0.7027
  772MOL0     H 1896   1.199   5.204   5.482 -0.4855 -0.4893 -0.1327
  772MOL0     H 1897   1.298   5.092   5.385 -2.1742 -0.3427  0.4557
  772MOL0     H 1898   1.398   5.284   5.606  0.5235 -1.6684  3.6274
  772MOL0     H 1899   1.513   5.176   5.517  0.3449  1.4890  1.0491
  772MOL0     H 1900   1.432   5.099   5.754 -1.3410  3.2584  0.5054
  772MOL0     H 1901   1.278   5.134   5.702  0.3005  0.8861 -1.7513
  772MOL0     H 1902   1.349   4.738   5.574 -0.4258  0.4149  2.0025
  772MOL0     H 1903   1.313   5.121   5.160 -0.0909 -1.8250  1.0943
  772MOL0     H 1904   1.422   4.990   4.963  1.2447 -1.7891  0.5661
  773MOL0     O 1905   1.307   4.137   9.748 -0.6007  0.2523 -0.6818
  773MOL0     C 1906   1.198   4.155   9.797  1.0620 -0.1127 -0.2091
  773MOL0     O 1907   1.148   4.267   9.851  0.1650  0.0793  1.0953
  773MOL0     C 1908   1.229   4.374   9.867 -0.6341  0.2268  0.1531
  773MOL0     C 1909   1.172   4.492   9.851  0.6834  0.1294 -0.3914
  773MOL0     C 1910   1.234   4.615   9.870 -0.0779  0.5371  0.0176
  773MOL0     C 1911   1.361   4.611   9.934  0.9339  0.5814  0.1676
  773MOL0     O 1912   1.434   4.712   9.988 -0.3340  0.7781  0.7494
  773MOL0     C 1913   1.389   4.842   9.962  1.2540  0.9991  1.0550
  773MOL0     C 1914   1.268   4.878  10.054  0.2774 -0.3129 -0.2838
  773MOL0     C 1915   1.180   4.985   9.997 -0.1686  0.4833 -0.7678
  773MOL0     C 1916   1.044   5.008  10.072 -0.5266  0.1974 -0.2777
  773MOL0     C 1917   0.968   5.131  10.042  0.1427 -0.9193 -0.9843
  773MOL0     C 1918   1.016   5.257  10.122 -0.8008 -0.3553  0.5446
  773MOL0     C 1919   0.929   5.264  10.252 -0.9678 -0.3460  0.3095
  773MOL0     C 1920   0.956   5.395  10.323  0.5851  0.5065 -0.3580
  773MOL0     N 1921   0.882   5.398  10.444 -0.2099  0.2821 -0.0685
  773MOL0     C 1922   0.904   5.316  10.549  0.0108  0.1999 -0.0553
  773MOL0     C 1923   0.818   5.360  10.646  0.2289  0.4140  0.0506
  773MOL0     C 1924   0.794   5.310  10.782  0.6798  0.1484 -1.0870
  773MOL0     C 1925   0.849   5.402  10.894 -0.1773 -0.2156  0.0233
  773MOL0     C 1926   1.004   5.375  10.923 -0.0533  0.6714  0.5868
  773MOL0     C 1927   1.045   5.440  11.057 -0.0025 -0.2624  0.5651
  773MOL0     O 1928   1.189   5.447  11.052  0.2298 -0.0864 -0.6019
  773MOL0     C 1929   1.245   5.490  11.173 -0.5534  0.7492  0.5172
  773MOL0     C 1930   1.376   5.447  11.201 -0.5495  0.2212  0.2947
  773MOL0     C 1931   1.455   5.500  11.308 -0.5009  0.1540 -0.4032
  773MOL0     C 1932   1.395   5.594  11.396 -0.4978  0.5140 -0.4611
  773MOL0     C 1933   1.473   5.637  11.513 -1.4235  0.5733 -0.3143
  773MOL0     O 1934   1.431   5.748  11.575 -0.5686  0.2297  0.2770
  773MOL0     C 1935   1.519   5.814  11.657  0.0363  0.4224 -0.8208
  773MOL0     C 1936   1.492   5.815  11.795 -0.2820  0.4835 -0.3700
  773MOL0     C 1937   1.580   5.872  11.889 -0.6583 -1.0980  0.9278
  773MOL0     C 1938   1.697   5.938  11.855 -0.1306 -0.2933 -0.7444
  773MOL0     O 1939   1.773   5.996  11.959 -0.3827 -0.4576 -0.6211
  773MOL0     C 1940   1.898   6.052  11.903  0.7549  0.0226  0.0982
  773MOL0     C 1941   1.993   6.087  12.012 -0.0380  0.3184 -0.8438
  773MOL0     C 1942   1.949   6.194  12.110  0.4961  0.3910 -1.1448
  773MOL0     C 1943   2.070   6.287  12.148  0.5571 -1.4361 -1.0774
  773MOL0     C 1944   2.024   6.435  12.168 -0.3303  0.6399  0.0494
  773MOL0     C 1945   2.141   6.514  12.208  1.1325  0.3201 -2.1791
  773MOL0     C 1946   2.096   6.670  12.213 -0.9808  0.8463 -1.0695
  773MOL0     C 1947   2.177   6.759  12.310 -0.7215 -0.4713  0.0837
  773MOL0    Cl 1948   2.122   6.923  12.300  0.0475 -0.1418 -0.2599
  773MOL0     C 1949   1.726   5.938  11.717  0.9019 -0.2250 -0.3073
  773MOL0     C 1950   1.639   5.873  11.622  0.3112 -0.5530  0.1075
  773MOL0     O 1951   1.572   5.568  11.551 -0.4180  0.2490  0.2313
  773MOL0     C 1952   1.266   5.641  11.365 -0.1146  0.9411 -0.4644
  773MOL0     C 1953   1.197   5.593  11.253  0.2850  0.5931  0.1701
  773MOL0     N 1954   0.736   5.461  10.595 -0.8171  0.2375  0.3413
  773MOL0     N 1955   0.780   5.487  10.471  1.0425  0.3770 -0.7080
  773MOL0     C 1956   1.419   4.485   9.965 -0.1481 -0.6487  1.1409
  773MOL0     C 1957   1.352   4.370   9.919 -0.1282  0.2776 -0.0878
  773MOL0     C 1958   1.100   4.033   9.805  0.2222 -0.8422 -0.3490
  773MOL0     C 1959   0.969   4.056   9.849  0.9113  0.0759  1.3720
  773MOL0     C 1960   0.883   3.944   9.842 -0.7078  0.3540  0.0091
  773MOL0     C 1961   0.917   3.824   9.796  0.0500  0.3286  0.4630
  773MOL0     O 1962   0.814   3.732   9.798 -0.1963 -0.2125 -0.6714
  773MOL0     C 1963   0.827   3.615   9.724 -0.6448  0.6044 -0.2357
  773MOL0     C 1964   0.822   3.635   9.582 -0.8233 -0.2160 -0.5202
  773MOL0     C 1965   0.721   3.739   9.515 -0.2624  0.0514 -0.4291
  773MOL0     C 1966   0.749   3.886   9.535 -0.1160 -0.2809 -0.3547
  773MOL0     C 1967   0.687   3.954   9.419 -1.0465 -0.1038  0.4253
  773MOL0     C 1968   0.639   3.993   9.311  0.2026 -0.7408  0.0223
  773MOL0     C 1969   1.050   3.805   9.740  1.1219 -0.8561 -0.2403
  773MOL0     C 1970   1.133   3.914   9.739 -0.1821 -0.1841 -0.0927
  773MOL0     H 1971   1.075   4.490   9.803 -1.0186  3.1755  2.4688
  773MOL0     H 1972   1.188   4.710   9.846 -0.7332  0.1153 -0.4189
  773MOL0     H 1973   1.371   4.860   9.856  0.9634 -0.4468  0.8362
  773MOL0     H 1974   1.473   4.906   9.989  1.8375  1.0628 -0.7627
  773MOL0     H 1975   1.289   4.905  10.158 -3.4767 -2.5847  1.2857
  773MOL0     H 1976   1.208   4.790  10.078 -0.4387  0.5478  1.2095
  773MOL0     H 1977   1.160   4.968   9.891 -2.8363 -0.8950 -0.1427
  773MOL0     H 1978   1.239   5.075  10.013 -0.7325  0.8326 -0.6284
  773MOL0     H 1979   0.986   4.920  10.042  0.9698 -0.7789 -0.4194
  773MOL0     H 1980   1.054   4.999  10.181  0.4255 -2.0228 -0.4882
  773MOL0     H 1981   0.863   5.122  10.072  0.0959  2.5285  0.3641
  773MOL0     H 1982   0.981   5.153   9.936 -0.2528  0.8917 -0.6904
  773MOL0     H 1983   1.004   5.346  10.061  0.9466 -0.7818 -0.4786
  773MOL0     H 1984   1.123   5.249  10.142 -0.6594  2.0924  1.0610
  773MOL0     H 1985   0.821   5.255  10.240 -0.9522 -0.1081 -0.0334
  773MOL0     H 1986   0.968   5.188  10.320  0.4631 -1.2389 -1.4135
  773MOL0     H 1987   0.928   5.485  10.267  0.2022  2.1396  2.3210
  773MOL0     H 1988   1.060   5.417  10.347  1.3916 -1.0798 -2.0777
  773MOL0     H 1989   0.978   5.236  10.551  2.1485  2.0588  1.5405
  773MOL0     H 1990   0.853   5.218  10.775 -0.0107 -0.1605 -4.5972
  773MOL0     H 1991   0.687   5.286  10.785  1.1881 -2.3901  2.0207
  773MOL0     H 1992   0.786   5.397  10.984 -1.0614 -1.4918 -0.6454
  773MOL0     H 1993   0.842   5.504  10.855 -2.7761 -1.4233 -3.0329
  773MOL0     H 1994   1.021   5.267  10.921  2.1472  0.8875 -3.7782
  773MOL0     H 1995   1.051   5.437  10.846  1.4618  3.6501  3.6562
  773MOL0     H 1996   1.019   5.379  11.143 -1.1753  1.4350  1.4641
  773MOL0     H 1997   0.988   5.533  11.067 -1.0225 -0.8345  0.2133
  773MOL0     H 1998   1.426   5.382  11.131 -1.5194  1.0948 -1.2808
  773MOL0     H 1999   1.560   5.474  11.322 -0.5163  0.5641  0.5275
  773MOL0     H 2000   1.402   5.769  11.834  0.4244  1.8422  3.2075
  773MOL0     H 2001   1.569   5.879  11.997  1.5674 -0.0504  1.1465
  773MOL0     H 2002   1.871   6.142  11.847 -0.4806  2.0921  3.6767
  773MOL0     H 2003   1.954   5.981  11.842  3.6643  0.1257  2.4323
  773MOL0     H 2004   2.080   6.129  11.961  0.4803  1.2351  0.7363
  773MOL0     H 2005   2.014   5.992  12.062 -0.7755 -1.2793 -3.3887
  773MOL0     H 2006   1.909   6.149  12.202 -2.6198 -1.9015 -3.4165
  773MOL0     H 2007   1.855   6.243  12.084 -0.9672  1.0148  4.0592
  773MOL0     H 2008   2.115   6.243  12.237 -1.5656 -2.7720 -0.5875
  773MOL0     H 2009   2.144   6.297  12.068  0.5079  1.9994 -0.8419
  773MOL0     H 2010   1.943   6.458  12.237 -0.7799 -3.6337  1.2599
  773MOL0     H 2011   1.985   6.476  12.074 -1.8783  1.7603  1.1478
  773MOL0     H 2012   2.232   6.496  12.150  2.4232 -3.6643  0.6629
  773MOL0     H 2013   2.163   6.481  12.310  0.8114  3.1968 -1.0782
  773MOL0     H 2014   2.099   6.702  12.108  0.1973  0.1507 -1.2690
  773MOL0     H 2015   1.993   6.686  12.244 -0.5386  0.9233  0.3933
  773MOL0     H 2016   2.285   6.764  12.294 -0.7534 -0.0826 -0.0303
  773MOL0     H 2017   2.167   6.721  12.412  0.9057 -1.0003  0.0640
  773MOL0     H 2018   1.819   5.976  11.678  1.1714  1.7542  2.0647
  773MOL0     H 2019   1.663   5.879  11.517 -1.2236  1.5425 -0.1907
  773MOL0     H 2020   1.220   5.717  11.428  0.0826 -1.5303  2.9761
  773MOL0     H 2021   1.103   5.635  11.218 -2.6990 -3.4844  2.3632
  773MOL0     H 2022   1.505   4.488  10.031 -0.1592  0.1751  1.1335
  773MOL0     H 2023   1.404   4.276   9.928  0.8759  0.7554 -0.7852
  773MOL0     H 2024   0.931   4.153   9.882  0.2043  0.0744  0.6242
  773MOL0     H 2025   0.779   3.958   9.870 -0.5269  1.0125  0.3774
  773MOL0     H 2026   0.743   3.550   9.753 -0.3213 -0.7062 -2.0665
  773MOL0     H 2027   0.917   3.557   9.748  0.7889  2.9404  0.3187
  773MOL0     H 2028   0.922   3.663   9.548 -0.3819 -1.8226 -0.6308
  773MOL0     H 2029   0.802   3.534   9.545 -1.1898  0.2604 -1.6871
  773MOL0     H 2030   0.623   3.712   9.555  0.0635 -0.4790  0.0341
  773MOL0     H 2031   0.720   3.717   9.408 -2.7935  0.6033 -0.5642
  773MOL0     H 2032   0.708   3.925   9.628  1.0174 -0.3913  0.2087
  773MOL0     H 2033   0.857   3.904   9.534 -0.3926  1.5233 -0.0209
  773MOL0     H 2034   0.588   4.032   9.225 -1.2246 -1.8786  0.3145
  773MOL0     H 2035   1.071   3.702   9.713  2.3014 -1.4096  2.4133
  773MOL0     H 2036   1.228   3.902   9.689 -1.1849 -1.1095 -1.8482
  774MOL0     O 2037   4.397   5.352   7.193 -0.2199 -0.3149  0.0148
  774MOL0     C 2038   4.400   5.453   7.124 -0.3522  0.0760  0.4089
  774MOL0     O 2039   4.448   5.460   6.993  0.2731 -0.0401 -0.5882
  774MOL0     C 2040   4.521   5.349   6.942  0.0942  0.1709  0.4288
  774MOL0     C 2041   4.455   5.256   6.855 -0.2960  0.0958 -0.1047
  774MOL0     C 2042   4.516   5.148   6.799  0.3580 -0.8476 -0.1194
  774MOL0     C 2043   4.647   5.108   6.833 -0.2468 -0.9309 -0.2610
  774MOL0     O 2044   4.723   5.014   6.776 -0.2138  1.2648 -0.3184
  774MOL0     C 2045   4.654   4.931   6.687 -0.0617  1.3137 -0.7076
  774MOL0     C 2046   4.755   4.830   6.632 -0.6757 -0.8943 -0.3645
  774MOL0     C 2047   4.849   4.906   6.526  0.5350  0.3172 -0.1566
  774MOL0     C 2048   4.933   4.796   6.453  0.0626 -1.3155 -0.2538
  774MOL0     C 2049   5.008   4.860   6.327 -0.1253  0.3817 -0.0883
  774MOL0     C 2050   4.908   4.896   6.214 -0.4414 -0.5073  0.0933
  774MOL0     C 2051   4.986   4.911   6.084  0.5426 -0.2072  0.7037
  774MOL0     C 2052   4.907   4.944   5.956  0.6574  1.0618 -1.0723
  774MOL0     N 2053   4.807   5.056   5.958  0.2196  1.0786 -0.0560
  774MOL0     C 2054   4.681   5.035   6.005  0.2072 -1.0249  0.3387
  774MOL0     C 2055   4.627   5.160   5.993 -0.5428  0.7300  0.0110
  774MOL0     C 2056   4.493   5.196   6.046 -0.4091  0.0827 -0.2979
  774MOL0     C 2057   4.478   5.164   6.198 -0.2181  0.3192 -0.2523
  774MOL0     C 2058   4.526   5.281   6.281 -0.4519  0.4443  0.9634
  774MOL0     C 2059   4.501   5.249   6.430 -0.4896 -0.0626 -0.4850
  774MOL0     O 2060   4.363   5.236   6.476 -0.3253  0.1918  0.0653
  774MOL0     C 2061   4.301   5.355   6.485 -0.6413  0.3501 -0.3420
  774MOL0     C 2062   4.348   5.450   6.577  0.3747  0.1600 -0.2300
  774MOL0     C 2063   4.285   5.575   6.603  0.0576  0.0548 -0.6375
  774MOL0     C 2064   4.178   5.607   6.520 -0.2043  0.4928  0.0330
  774MOL0     C 2065   4.118   5.742   6.531  0.7256 -1.0432 -0.2610
  774MOL0     O 2066   3.988   5.759   6.483  0.1769 -0.6012 -0.1869
  774MOL0     C 2067   3.915   5.882   6.484  0.4589 -0.1938  0.2479
  774MOL0     C 2068   3.822   5.890   6.377 -0.4151  0.0770  0.0423
  774MOL0     C 2069   3.730   5.997   6.370  0.1090  0.3387 -0.3406
  774MOL0     C 2070   3.736   6.088   6.471 -0.4242 -0.4287 -0.4332
  774MOL0     O 2071   3.653   6.199   6.470  0.0004 -0.3868  0.1391
  774MOL0     C 2072   3.707   6.310   6.404  0.3707  0.5145  0.5030
  774MOL0     C 2073   3.611   6.420   6.424  0.8443 -0.3810  0.5614
  774MOL0     C 2074   3.518   6.420   6.298 -0.2894 -0.2190  0.0358
  774MOL0     C 2075   3.420   6.526   6.320  0.1346  0.9374 -0.5190
  774MOL0     C 2076   3.333   6.515   6.198  1.3540  0.3412  0.2177
  774MOL0     C 2077   3.193   6.576   6.205 -0.1996  0.2377  0.1569
  774MOL0     C 2078   3.200   6.729   6.216 -1.1723  0.0276  0.3240
  774MOL0     C 2079   3.060   6.790   6.242  0.6490 -0.9663  0.0616
  774MOL0    Cl 2080   2.991   6.856   6.085 -0.4145  0.0558  0.1159
  774MOL0     C 2081   3.831   6.084   6.572 -0.4570 -0.2086 -0.4024
  774MOL0     C 2082   3.925   5.982   6.582 -0.6223 -0.1028 -1.0931
  774MOL0     O 2083   4.188   5.836   6.575 -0.4190  1.1143 -0.1825
  774MOL0     C 2084   4.131   5.512   6.433 -0.9405 -1.1796  0.8084
  774MOL0     C 2085   4.188   5.380   6.421 -0.1463 -0.2725  0.5412
  774MOL0     N 2086   4.724   5.251   5.956 -0.2144  0.4465  0.3269
  774MOL0     N 2087   4.829   5.184   5.939  0.1226 -0.1386 -0.3988
  774MOL0     C 2088   4.717   5.198   6.918 -0.3703 -0.4474  0.6483
  774MOL0     C 2089   4.658   5.314   6.968  0.8573  0.2598 -0.4535
  774MOL0     C 2090   4.343   5.593   7.173 -0.2810 -0.8165 -0.2419
  774MOL0     C 2091   4.283   5.594   7.301  0.9082 -0.0399 -0.3680
  774MOL0     C 2092   4.230   5.714   7.359 -0.1814 -0.4294  0.3310
  774MOL0     C 2093   4.249   5.834   7.290  0.0204  0.0064 -0.5787
  774MOL0     O 2094   4.198   5.949   7.343 -0.4758  0.0990  1.0512
  774MOL0     C 2095   4.109   5.955   7.461 -0.3338  0.4459  0.2802
  774MOL0     C 2096   4.064   6.095   7.481  0.2417 -1.2984  0.0045
  774MOL0     C 2097   4.185   6.194   7.497  0.4238 -0.4311 -1.0976
  774MOL0     C 2098   4.250   6.162   7.640 -0.2248 -0.5135 -0.1461
  774MOL0     C 2099   4.369   6.241   7.669 -1.2610 -0.2780 -0.0969
  774MOL0     C 2100   4.459   6.326   7.683 -0.0966 -0.1682  0.2315
  774MOL0     C 2101   4.311   5.830   7.159 -0.6761 -0.7078 -0.3062
  774MOL0     C 2102   4.357   5.711   7.098  0.0753 -0.7216 -0.4702
  774MOL0     H 2103   4.350   5.275   6.836 -0.7496  2.0083  3.4321
  774MOL0     H 2104   4.452   5.097   6.728 -0.7257  0.9431 -0.4972
  774MOL0     H 2105   4.604   4.998   6.617 -2.1866  1.6453  1.0137
  774MOL0     H 2106   4.589   4.869   6.751  4.7724  1.0526  4.8465
  774MOL0     H 2107   4.697   4.759   6.571  1.2441 -1.0733 -2.0919
  774MOL0     H 2108   4.806   4.784   6.717 -1.5702  0.6906  1.0929
  774MOL0     H 2109   4.914   4.975   6.581 -1.8248  1.3902  1.4778
  774MOL0     H 2110   4.793   4.972   6.459  0.2293  1.1761  0.9002
  774MOL0     H 2111   5.012   4.757   6.517  2.4068  1.8199 -1.0248
  774MOL0     H 2112   4.859   4.718   6.433 -1.2161  0.0208 -0.9205
  774MOL0     H 2113   5.067   4.782   6.279  1.2238  0.8620  0.7445
  774MOL0     H 2114   5.071   4.946   6.352 -1.3127  0.8013  1.5967
  774MOL0     H 2115   4.875   4.998   6.236 -0.2362 -0.1145 -1.3467
  774MOL0     H 2116   4.821   4.830   6.219  0.5582 -1.8487  0.8277
  774MOL0     H 2117   5.065   4.987   6.080  2.0223 -1.7344 -0.6893
  774MOL0     H 2118   5.034   4.818   6.053  1.6921  0.9471 -1.1844
  774MOL0     H 2119   4.846   4.856   5.935  0.5480  0.2979  2.0369
  774MOL0     H 2120   4.976   4.958   5.872  2.9360 -2.3115  0.0612
  774MOL0     H 2121   4.639   4.944   6.048  1.3998 -1.7115  0.0880
  774MOL0     H 2122   4.418   5.145   5.985 -1.2212  1.3953 -0.4386
  774MOL0     H 2123   4.484   5.305   6.046 -3.1498 -0.0559  0.7888
  774MOL0     H 2124   4.539   5.077   6.225 -0.4085  0.3825  0.4100
  774MOL0     H 2125   4.371   5.148   6.210 -0.3903 -0.6440 -2.5708
  774MOL0     H 2126   4.635   5.287   6.275 -0.4810  3.8223  2.1866
  774MOL0     H 2127   4.474   5.369   6.241  2.1884  1.1784 -1.1783
  774MOL0     H 2128   4.543   5.337   6.480 -0.8213 -0.7656  1.0953
  774MOL0     H 2129   4.550   5.158   6.467  0.6843 -0.2996 -2.4915
  774MOL0     H 2130   4.420   5.413   6.650 -0.9393 -1.0157  0.5218
  774MOL0     H 2131   4.317   5.643   6.682  2.1911 -0.2808 -1.1537
  774MOL0     H 2132   3.820   5.815   6.299  1.0192  0.1053 -0.0411
  774MOL0     H 2133   3.650   6.019   6.300 -2.5966 -1.4549  1.9147
  774MOL0     H 2134   3.710   6.283   6.298 -1.0001  2.7302 -0.1848
  774MOL0     H 2135   3.805   6.343   6.440 -1.5204  2.1151  4.8596
  774MOL0     H 2136   3.644   6.524   6.433 -2.0294  1.1562 -3.4724
  774MOL0     H 2137   3.563   6.393   6.518  0.7087 -0.3934  0.4889
  774MOL0     H 2138   3.476   6.320   6.290 -0.6347 -0.3176  2.3360
  774MOL0     H 2139   3.585   6.456   6.220 -0.9345  3.2754  0.8918
  774MOL0     H 2140   3.373   6.499   6.415  1.3971  0.6222  0.0416
  774MOL0     H 2141   3.462   6.627   6.327  2.2405 -0.0059  1.6716
  774MOL0     H 2142   3.317   6.411   6.170 -2.8437  1.3420 -1.8587
  774MOL0     H 2143   3.383   6.560   6.111  0.3006 -1.2370 -1.2469
  774MOL0     H 2144   3.153   6.528   6.295  3.4225 -3.9790 -0.1513
  774MOL0     H 2145   3.141   6.561   6.110  0.4688 -0.5433 -0.0955
  774MOL0     H 2146   3.264   6.749   6.303  1.2558 -1.5999 -0.9843
  774MOL0     H 2147   3.243   6.766   6.123 -1.0981  0.8236  0.6653
  774MOL0     H 2148   3.065   6.885   6.296 -1.9897 -1.2386  0.9438
  774MOL0     H 2149   2.986   6.722   6.285 -1.5190 -0.1061 -2.0766
  774MOL0     H 2150   3.812   6.162   6.645 -6.1915  2.1942 -3.7690
  774MOL0     H 2151   3.996   5.965   6.662  0.8003 -1.7802 -2.6102
  774MOL0     H 2152   4.046   5.544   6.373  2.0216 -0.6766 -3.5622
  774MOL0     H 2153   4.149   5.305   6.353 -2.0064  0.7668  0.3871
  774MOL0     H 2154   4.824   5.181   6.918 -0.0417  1.2900  1.6833
  774MOL0     H 2155   4.716   5.389   7.022  1.4262 -0.2962 -0.2794
  774MOL0     H 2156   4.270   5.501   7.354 -1.2698  0.4263 -0.0160
  774MOL0     H 2157   4.188   5.710   7.459  2.2577  1.9110  1.5694
  774MOL0     H 2158   4.159   5.909   7.547 -1.2340 -1.9696 -0.4037
  774MOL0     H 2159   4.017   5.897   7.448 -0.7336  1.4865 -2.0239
  774MOL0     H 2160   3.994   6.136   7.407  1.6089 -2.4234 -2.0043
  774MOL0     H 2161   4.017   6.094   7.580 -0.8754  0.4051 -0.4637
  774MOL0     H 2162   4.151   6.298   7.504 -1.3584 -1.0756  1.2161
  774MOL0     H 2163   4.266   6.180   7.425  1.6940 -3.7834  0.7741
  774MOL0     H 2164   4.182   6.185   7.723  3.0084  1.3666  2.1975
  774MOL0     H 2165   4.278   6.057   7.653 -1.3994 -0.5672  2.6860
  774MOL0     H 2166   4.535   6.400   7.698  2.0809 -1.9625 -1.3111
  774MOL0     H 2167   4.334   5.926   7.114  1.8913 -0.6098  1.0358
  774MOL0     H 2168   4.401   5.702   6.999 -2.5526  0.9726 -1.9321
  775MOL0     O 2169   8.009   1.187   2.456  0.5630 -0.6700  0.1301
  775MOL0     C 2170   8.025   1.130   2.556  0.4221  0.9504  0.1287
  775MOL0     O 2171   8.140   1.113   2.628 -0.6852  0.1757  0.1199
  775MOL0     C 2172   8.259   1.152   2.565 -0.2463  0.2953  0.0517
  775MOL0     C 2173   8.293   1.289   2.566  0.4381 -0.3760 -0.4317
  775MOL0     C 2174   8.413   1.332   2.530 -0.7234  0.0157  0.3791
  775MOL0     C 2175   8.509   1.230   2.503  0.1461 -0.9281  0.3536
  775MOL0     O 2176   8.640   1.279   2.480  0.2937  0.4102  0.1946
  775MOL0     C 2177   8.749   1.205   2.539 -0.5072 -0.3968 -0.7563
  775MOL0     C 2178   8.849   1.159   2.434  0.3745 -0.3937 -1.0845
  775MOL0     C 2179   8.918   1.267   2.343 -0.4367  0.7371  0.2511
  775MOL0     C 2180   8.967   1.383   2.431  1.0648  0.1415  0.0187
  775MOL0     C 2181   9.096   1.351   2.510 -0.4426 -0.3980 -0.0364
  775MOL0     C 2182   9.116   1.456   2.615 -0.0074  0.4259  0.5710
  775MOL0     C 2183   9.156   1.584   2.542 -0.3287  0.5968  0.1806
  775MOL0     C 2184   9.209   1.688   2.640 -0.5044 -0.2168 -0.1446
  775MOL0     N 2185   9.243   1.809   2.562  0.4926 -0.2023  0.6481
  775MOL0     C 2186   9.145   1.888   2.509 -0.4931  1.1648  0.0496
  775MOL0     C 2187   9.208   1.997   2.475  0.2126 -0.2773 -0.1404
  775MOL0     C 2188   9.147   2.126   2.407  0.1356  1.0034  0.2521
  775MOL0     C 2189   9.158   2.124   2.255  0.3140 -0.6915  0.3380
  775MOL0     C 2190   9.130   2.262   2.199  0.5645  0.1149  0.3134
  775MOL0     C 2191   9.169   2.261   2.044  0.1061 -0.3738 -1.0857
  775MOL0     O 2192   9.127   2.148   1.976  0.5140  0.1888  0.1602
  775MOL0     C 2193   9.156   2.136   1.844 -0.4411  0.3837  0.2713
  775MOL0     C 2194   9.127   2.018   1.776 -0.0838 -1.3125 -0.9525
  775MOL0     C 2195   9.174   1.997   1.647  0.5896  0.0288 -0.4533
  775MOL0     C 2196   9.233   2.100   1.576  0.3590  0.1673 -0.3483
  775MOL0     C 2197   9.288   2.070   1.442 -0.4008 -0.4181  0.7757
  775MOL0     O 2198   9.220   1.981   1.376 -0.3804 -0.1267 -0.2021
  775MOL0     C 2199   9.262   1.957   1.246 -0.5903  0.2176 -1.0368
  775MOL0     C 2200   9.176   1.984   1.138 -0.5680 -0.6430 -0.2287
  775MOL0     C 2201   9.218   1.953   1.006  0.4486  0.8905 -0.0817
  775MOL0     C 2202   9.342   1.891   0.991 -0.6526 -0.8588 -0.1053
  775MOL0     O 2203   9.371   1.847   0.863 -0.1790  0.2194 -0.8463
  775MOL0     C 2204   9.353   1.708   0.842 -0.4638 -0.0831 -1.4250
  775MOL0     C 2205   9.331   1.693   0.697  0.2741 -0.3120 -0.4982
  775MOL0     C 2206   9.453   1.719   0.620  0.1746 -0.0604 -0.1860
  775MOL0     C 2207   9.450   1.689   0.471  0.3476  0.7206 -0.2885
  775MOL0     C 2208   9.590   1.715   0.411  1.0196  1.4439 -0.8538
  775MOL0     C 2209   9.577   1.727   0.260  0.8935  0.0673 -0.0802
  775MOL0     C 2210   9.711   1.756   0.203 -0.1536 -0.0963 -0.2251
  775MOL0     C 2211   9.687   1.788   0.057 -0.1217 -0.8670  0.3499
  775MOL0    Cl 2212   9.827   1.859  -0.019 -0.0033 -0.2023  0.0683
  775MOL0     C 2213   9.431   1.870   1.092  1.5093  0.2322 -1.0216
  775MOL0     C 2214   9.390   1.907   1.225 -0.8876  0.5735 -0.4176
  775MOL0     O 2215   9.396   2.121   1.403 -1.0287 -0.0078 -0.1857
  775MOL0     C 2216   9.263   2.224   1.641  0.1751 -1.2821 -0.4252
  775MOL0     C 2217   9.227   2.234   1.775  0.2979  0.1672 -0.2532
  775MOL0     N 2218   9.344   1.996   2.530  0.6174  0.1731 -0.3012
  775MOL0     N 2219   9.361   1.875   2.572 -0.0658 -0.3775 -0.0879
  775MOL0     C 2220   8.479   1.098   2.486  0.2330  0.0887  0.1091
  775MOL0     C 2221   8.350   1.060   2.515  0.2201 -0.6078 -0.7546
  775MOL0     C 2222   7.905   1.072   2.629 -0.3425 -0.1202  0.1441
  775MOL0     C 2223   7.782   1.080   2.564 -0.0961 -0.2371 -0.3908
  775MOL0     C 2224   7.663   1.041   2.611  0.9416  0.2496 -0.6504
  775MOL0     C 2225   7.665   0.971   2.730  0.3095 -0.4544 -0.3362
  775MOL0     O 2226   7.536   0.923   2.772 -0.3547 -0.1417  0.0770
  775MOL0     C 2227   7.528   0.850   2.892  0.5066 -0.7572  0.0082
  775MOL0     C 2228   7.379   0.833   2.926 -0.0190  0.5289  0.4827
  775MOL0     C 2229   7.313   0.721   2.841 -1.5029 -0.3776 -0.6906
  775MOL0     C 2230   7.367   0.582   2.878 -0.2139 -0.1167  0.2686
  775MOL0     C 2231   7.276   0.472   2.843 -0.2156  1.0289 -0.2674
  775MOL0     C 2232   7.202   0.375   2.836  0.2350 -0.0236 -0.0118
  775MOL0     C 2233   7.787   0.950   2.807  0.1188 -0.8912  1.1962
  775MOL0     C 2234   7.905   1.003   2.752 -0.1925 -0.5977 -0.4658
  775MOL0     H 2235   8.230   1.359   2.621  0.9064 -0.8886  0.8111
  775MOL0     H 2236   8.452   1.433   2.536 -0.6705  0.1100 -1.2571
  775MOL0     H 2237   8.703   1.116   2.584 -0.8132 -1.3762 -2.8594
  775MOL0     H 2238   8.819   1.255   2.606  1.2900 -2.1636 -1.1953
  775MOL0     H 2239   8.794   1.084   2.377 -3.2210  0.1826  1.3067
  775MOL0     H 2240   8.926   1.104   2.489  1.8006  1.1865 -1.3925
  775MOL0     H 2241   8.840   1.305   2.276 -0.1034 -2.3543 -2.1360
  775MOL0     H 2242   8.988   1.224   2.271 -0.9203  0.6441 -0.1747
  775MOL0     H 2243   8.973   1.470   2.365 -0.0780 -1.5272 -2.4398
  775MOL0     H 2244   8.885   1.400   2.501 -1.2919  0.1765 -2.5742
  775MOL0     H 2245   9.181   1.351   2.441 -1.6049 -1.7491 -1.5390
  775MOL0     H 2246   9.079   1.253   2.555  1.5402 -0.6423  0.2630
  775MOL0     H 2247   9.194   1.419   2.682  2.0491  1.2775 -1.2246
  775MOL0     H 2248   9.030   1.480   2.678  1.1094  1.2959  1.8328
  775MOL0     H 2249   9.208   1.569   2.447 -0.0948 -1.5549  0.5933
  775MOL0     H 2250   9.066   1.633   2.503  0.6654  3.2080  0.9806
  775MOL0     H 2251   9.301   1.660   2.692 -0.2851 -0.6734 -0.7715
  775MOL0     H 2252   9.133   1.708   2.716  2.1521  1.2149  2.3155
  775MOL0     H 2253   9.037   1.882   2.511 -0.4170 -1.3308 -0.6697
  775MOL0     H 2254   9.188   2.221   2.441  1.3144  1.2340 -1.6640
  775MOL0     H 2255   9.039   2.132   2.422 -0.1192 -0.0642 -0.9617
  775MOL0     H 2256   9.098   2.051   2.201 -0.0160 -1.3320  1.5293
  775MOL0     H 2257   9.262   2.108   2.226  0.5785  0.6961  0.4590
  775MOL0     H 2258   9.024   2.280   2.215  0.2782 -2.4425  1.8821
  775MOL0     H 2259   9.185   2.346   2.242  3.0059 -0.9555 -0.5314
  775MOL0     H 2260   9.278   2.263   2.049  0.2334 -3.8533  0.4805
  775MOL0     H 2261   9.142   2.359   2.002 -1.3278  1.2007  2.9432
  775MOL0     H 2262   9.055   1.953   1.825  0.6072 -1.8831 -0.6784
  775MOL0     H 2263   9.169   1.901   1.596  5.2941  0.6828 -2.6654
  775MOL0     H 2264   9.080   2.035   1.147 -0.8400 -1.1689 -0.1404
  775MOL0     H 2265   9.152   1.982   0.925  1.7507 -0.7855 -1.8466
  775MOL0     H 2266   9.266   1.667   0.895  0.7279 -1.7787 -0.7029
  775MOL0     H 2267   9.431   1.641   0.879 -3.4713 -3.1839 -0.0864
  775MOL0     H 2268   9.257   1.770   0.669 -2.2180 -2.2514  0.4086
  775MOL0     H 2269   9.286   1.595   0.682 -1.7919  0.8388 -2.6665
  775MOL0     H 2270   9.532   1.655   0.659 -1.6324 -2.2217  0.1567
  775MOL0     H 2271   9.495   1.817   0.643 -0.6157  0.6678 -1.6908
  775MOL0     H 2272   9.414   1.586   0.471 -0.8412  1.0979  0.8752
  775MOL0     H 2273   9.371   1.751   0.427 -0.0468  0.8749  0.6024
  775MOL0     H 2274   9.659   1.631   0.426 -1.6612 -0.8926 -0.8760
  775MOL0     H 2275   9.629   1.810   0.448 -2.6227  2.8207 -0.1698
  775MOL0     H 2276   9.504   1.807   0.250  2.1813  1.4283  0.8761
  775MOL0     H 2277   9.541   1.634   0.216 -0.3555 -1.1231  3.1159
  775MOL0     H 2278   9.751   1.847   0.249 -1.5417  0.0261  0.8147
  775MOL0     H 2279   9.779   1.671   0.206 -1.7873 -1.4919  3.4657
  775MOL0     H 2280   9.605   1.857   0.037 -0.3701 -1.4976 -0.9385
  775MOL0     H 2281   9.655   1.697   0.006 -0.4049  0.6218 -2.3280
  775MOL0     H 2282   9.532   1.840   1.062  2.7702  4.9948 -2.3930
  775MOL0     H 2283   9.460   1.885   1.305 -0.7220 -2.6685 -1.2990
  775MOL0     H 2284   9.322   2.295   1.584  1.5497  1.1761  3.5817
  775MOL0     H 2285   9.261   2.330   1.813 -1.8298  0.6537  0.5960
  775MOL0     H 2286   8.554   1.025   2.455 -0.8652 -2.1812  2.4097
  775MOL0     H 2287   8.324   0.955   2.523 -0.6891 -0.3887 -0.7426
  775MOL0     H 2288   7.770   1.135   2.472 -4.6862  0.3119  0.3236
  775MOL0     H 2289   7.572   1.062   2.557  0.0273  0.5016  0.9287
  775MOL0     H 2290   7.575   0.889   2.983 -3.1549 -2.7902  3.0081
  775MOL0     H 2291   7.579   0.753   2.881 -0.0593 -1.4036  2.4018
  775MOL0     H 2292   7.361   0.815   3.033  0.3429  1.7655  0.7675
  775MOL0     H 2293   7.335   0.929   2.898  2.7212  1.9177  0.6101
  775MOL0     H 2294   7.331   0.746   2.736  1.4167  3.6738  0.5130
  775MOL0     H 2295   7.204   0.727   2.839 -1.4733  0.0845 -1.2362
  775MOL0     H 2296   7.459   0.545   2.832 -1.1048  1.4756 -3.1310
  775MOL0     H 2297   7.383   0.588   2.986  0.1809  2.5895  0.1240
  775MOL0     H 2298   7.125   0.303   2.820 -1.3062  1.4797  0.3302
  775MOL0     H 2299   7.795   0.886   2.894  3.5440  0.2249  1.8546
  775MOL0     H 2300   8.002   0.990   2.799 -0.3075  0.1378  0.0001
  776MOL0     O 2301   9.660   3.421   0.084 -0.1811 -1.1019  0.3448
  776MOL0     C 2302   9.777   3.412   0.035  0.9443 -0.3894  0.8794
  776MOL0     O 2303   9.811   3.312  -0.040  0.2260  0.5810 -0.0614
  776MOL0     C 2304   9.720   3.213  -0.070  0.5667 -0.3664 -0.1574
  776MOL0     C 2305   9.620   3.244  -0.169  0.3770 -0.8577  0.0162
  776MOL0     C 2306   9.526   3.143  -0.199  0.6277 -0.8199  0.1944
  776MOL0     C 2307   9.508   3.030  -0.120 -0.3242 -0.0042 -0.8855
  776MOL0     O 2308   9.409   2.937  -0.120  0.8427 -1.0964  1.6592
  776MOL0     C 2309   9.312   2.938  -0.226  0.5098  0.8608  0.4994
  776MOL0     C 2310   9.240   2.803  -0.246  0.5251 -0.9969  0.0553
  776MOL0     C 2311   9.337   2.693  -0.290  0.4651 -1.4557  0.2284
  776MOL0     C 2312   9.262   2.581  -0.364  0.4064  0.1255 -1.2968
  776MOL0     C 2313   9.341   2.447  -0.404 -0.3181  0.7871  0.3981
  776MOL0     C 2314   9.436   2.482  -0.515 -0.9873 -0.0752  0.1078
  776MOL0     C 2315   9.537   2.369  -0.527 -0.3590  0.0789  0.2973
  776MOL0     C 2316   9.635   2.387  -0.656  0.4394  0.1239  0.1289
  776MOL0     N 2317   9.716   2.505  -0.627  0.2999  0.3323 -0.3286
  776MOL0     C 2318   9.815   2.525  -0.528 -0.0320 -0.7763  0.0840
  776MOL0     C 2319   9.841   2.652  -0.518  0.4383  0.1268  0.6623
  776MOL0     C 2320   9.926   2.707  -0.404  0.2563  0.2064  0.6961
  776MOL0     C 2321   9.843   2.778  -0.295 -0.5181  0.1482 -0.1248
  776MOL0     C 2322   9.742   2.680  -0.236  0.7937  0.0548  0.4455
  776MOL0     C 2323   9.803   2.550  -0.172 -0.1793  0.5046  0.9662
  776MOL0     O 2324   9.866   2.594  -0.057 -0.1427  0.0429 -0.5855
  776MOL0     C 2325   9.800   2.622   0.061  0.5251  0.2125 -2.5827
  776MOL0     C 2326   9.665   2.597   0.090 -0.1511  0.4743 -1.1598
  776MOL0     C 2327   9.614   2.602   0.217 -1.1991 -0.3196  0.1985
  776MOL0     C 2328   9.690   2.637   0.323  0.2478 -1.1337 -0.2818
  776MOL0     C 2329   9.616   2.640   0.454 -0.1214  0.0204  0.2211
  776MOL0     O 2330   9.694   2.709   0.542  0.2191  0.4767  0.3173
  776MOL0     C 2331   9.642   2.739   0.663 -0.2937  0.2963  0.2784
  776MOL0     C 2332   9.638   2.654   0.773  0.2276  0.0296  0.2493
  776MOL0     C 2333   9.591   2.705   0.897 -0.4086 -0.9385 -0.3807
  776MOL0     C 2334   9.535   2.837   0.906  0.5841 -0.9900  0.3297
  776MOL0     O 2335   9.488   2.888   1.030  0.4145  0.7635 -0.6680
  776MOL0     C 2336   9.487   3.032   1.051 -0.3019  0.4704 -0.3540
  776MOL0     C 2337   9.467   3.064   1.194  0.0432  0.3027 -0.7975
  776MOL0     C 2338   9.554   2.985   1.292 -0.5318 -0.6163 -0.5021
  776MOL0     C 2339   9.709   2.966   1.269  0.5920  0.1515 -0.7788
  776MOL0     C 2340   9.767   2.895   1.390  0.3670  0.0363 -0.4204
  776MOL0     C 2341   9.920   2.867   1.370 -1.5898  0.4350  0.2866
  776MOL0     C 2342   9.991   2.852   1.514  0.5096 -0.2472 -0.4221
  776MOL0     C 2343  10.146   2.871   1.508 -0.3588 -0.8372  0.0810
  776MOL0    Cl 2344  10.174   3.035   1.439  0.0022 -0.3504 -0.2151
  776MOL0     C 2345   9.542   2.919   0.796  0.8872 -0.7619 -0.6688
  776MOL0     C 2346   9.598   2.873   0.680  0.1563  0.1772 -0.0109
  776MOL0     O 2347   9.497   2.612   0.461  0.4729 -0.9937 -0.7010
  776MOL0     C 2348   9.826   2.667   0.303 -0.4555 -0.6313  0.8543
  776MOL0     C 2349   9.882   2.655   0.178  0.4992 -0.4281  0.6324
  776MOL0     N 2350   9.759   2.714  -0.612  0.1316 -0.3578 -0.0181
  776MOL0     N 2351   9.691   2.629  -0.677  0.5561  0.2801  0.0007
  776MOL0     C 2352   9.613   2.999  -0.031  0.9003 -0.7116 -0.5209
  776MOL0     C 2353   9.718   3.093  -0.003  1.1493  0.2810 -0.0163
  776MOL0     C 2354   9.881   3.509   0.057  0.8877  0.7992  0.2851
  776MOL0     C 2355   9.987   3.518  -0.038 -0.0788 -0.7684  0.0770
  776MOL0     C 2356  10.084   3.622  -0.029  0.0690  0.5702  0.6818
  776MOL0     C 2357  10.087   3.706   0.077  0.7271 -1.0077  0.6280
  776MOL0     O 2358  10.176   3.813   0.079  0.5896 -0.2079  0.2551
  776MOL0     C 2359  10.185   3.898   0.191 -0.4485 -0.5843  0.2191
  776MOL0     C 2360  10.302   4.003   0.179  0.0042 -1.1725 -0.1602
  776MOL0     C 2361  10.445   3.950   0.176 -0.6497 -0.0319 -1.1832
  776MOL0     C 2362  10.480   3.884   0.045  0.1803 -0.6756  0.0573
  776MOL0     C 2363  10.483   3.979  -0.068 -0.0926  1.1856 -0.5779
  776MOL0     C 2364  10.500   4.055  -0.160  0.1012  0.3784 -0.1614
  776MOL0     C 2365   9.987   3.685   0.176 -1.0887  0.5260 -0.0023
  776MOL0     C 2366   9.890   3.588   0.169  0.4753 -0.1375 -0.0562
  776MOL0     H 2367   9.627   3.339  -0.221  6.1017  1.4118  3.7911
  776MOL0     H 2368   9.453   3.158  -0.279  1.6963 -2.7675 -1.2384
  776MOL0     H 2369   9.356   2.969  -0.321 -2.3421  0.8311 -0.9327
  776MOL0     H 2370   9.233   3.011  -0.205 -0.5743  0.2484 -1.2741
  776MOL0     H 2371   9.164   2.820  -0.324 -0.1052 -1.3754  0.5848
  776MOL0     H 2372   9.185   2.768  -0.159  1.3716 -0.4816  0.8104
  776MOL0     H 2373   9.371   2.660  -0.191 -1.3820 -0.6544  1.1638
  776MOL0     H 2374   9.420   2.739  -0.345 -0.4566  1.1755  0.8963
  776MOL0     H 2375   9.179   2.555  -0.298  2.1608  0.2185  1.1284
  776MOL0     H 2376   9.224   2.638  -0.449 -0.5718  3.2103  0.9959
  776MOL0     H 2377   9.266   2.372  -0.430  1.4012 -0.5827 -0.8538
  776MOL0     H 2378   9.403   2.405  -0.323  3.3801  2.2837 -1.4011
  776MOL0     H 2379   9.490   2.575  -0.494  0.3089 -0.8045  0.1230
  776MOL0     H 2380   9.379   2.503  -0.606  1.3309  2.8105 -0.8712
  776MOL0     H 2381   9.599   2.361  -0.436  2.5794 -4.8923 -1.7128
  776MOL0     H 2382   9.481   2.276  -0.542  0.4252 -0.5051  0.9016
  776MOL0     H 2383   9.570   2.400  -0.743 -1.0552 -1.7735  0.8703
  776MOL0     H 2384   9.700   2.300  -0.669  0.8489  0.8069 -3.0476
  776MOL0     H 2385   9.855   2.450  -0.460  3.8476  0.6769 -0.3602
  776MOL0     H 2386   9.998   2.781  -0.438 -0.9052  2.1055  2.1135
  776MOL0     H 2387   9.990   2.625  -0.370 -0.2490 -0.7437 -0.5849
  776MOL0     H 2388   9.785   2.857  -0.343 -3.0745  0.4053  2.9811
  776MOL0     H 2389   9.906   2.822  -0.218 -0.9736 -0.0292  0.3618
  776MOL0     H 2390   9.686   2.747  -0.170 -1.2627  0.3411 -1.4575
  776MOL0     H 2391   9.669   2.646  -0.311 -0.1484 -1.0087  1.8078
  776MOL0     H 2392   9.883   2.501  -0.227 -0.6357 -1.0909  1.6680
  776MOL0     H 2393   9.718   2.483  -0.155 -0.6531  0.7871 -0.1927
  776MOL0     H 2394   9.589   2.553   0.025 -1.7658  2.9815 -1.1130
  776MOL0     H 2395   9.510   2.569   0.213 -1.2686 -0.0025 -2.6339
  776MOL0     H 2396   9.671   2.551   0.773 -3.9091 -1.4879  1.5841
  776MOL0     H 2397   9.595   2.652   0.992 -0.6718  0.8075  0.6632
  776MOL0     H 2398   9.418   3.083   0.983 -0.7762  0.4632  0.1198
  776MOL0     H 2399   9.589   3.069   1.034  0.2066  0.4466  2.2137
  776MOL0     H 2400   9.364   3.035   1.216  0.5358 -0.3608  0.7752
  776MOL0     H 2401   9.475   3.171   1.213  1.5368 -0.1805  1.8688
  776MOL0     H 2402   9.514   2.883   1.293 -0.0980 -0.7885 -0.2545
  776MOL0     H 2403   9.551   3.025   1.394  1.3776 -1.1640 -0.2015
  776MOL0     H 2404   9.722   2.918   1.171 -2.8638  0.5242 -1.5538
  776MOL0     H 2405   9.755   3.065   1.258  0.6134  0.0661 -1.4956
  776MOL0     H 2406   9.720   2.796   1.394 -2.0733  1.1647  3.1918
  776MOL0     H 2407   9.756   2.949   1.484  2.1694 -1.1847  0.5674
  776MOL0     H 2408   9.969   2.950   1.318 -0.8241  0.7408  1.4745
  776MOL0     H 2409   9.939   2.778   1.308 -0.7901  0.3591  0.6273
  776MOL0     H 2410   9.949   2.933   1.575 -0.7898  1.7602 -3.6734
  776MOL0     H 2411   9.962   2.753   1.550 -2.0868  0.7443  0.4774
  776MOL0     H 2412  10.173   2.787   1.443 -1.2079 -2.3828  1.6401
  776MOL0     H 2413  10.193   2.848   1.604 -0.9544  0.1919  0.6294
  776MOL0     H 2414   9.504   3.020   0.799 -0.6350 -1.3300  1.6609
  776MOL0     H 2415   9.605   2.939   0.594  4.0526  0.1552  0.0948
  776MOL0     H 2416   9.890   2.674   0.391  0.0653 -3.5267  0.7853
  776MOL0     H 2417   9.985   2.657   0.146 -0.5139 -0.0214 -3.0601
  776MOL0     H 2418   9.607   2.903   0.020 -1.9787 -1.0318 -1.2935
  776MOL0     H 2419   9.774   3.059   0.083 -0.2669 -1.4775  0.2639
  776MOL0     H 2420   9.988   3.454  -0.127  3.6974 -2.2395  0.9858
  776MOL0     H 2421  10.159   3.638  -0.106 -0.6488  1.8927  0.2264
  776MOL0     H 2422  10.189   3.840   0.284  0.4131 -1.3757 -0.2863
  776MOL0     H 2423  10.092   3.954   0.185 -2.0289 -3.1594 -3.3343
  776MOL0     H 2424  10.282   4.073   0.097 -0.0021 -1.7648 -0.6683
  776MOL0     H 2425  10.293   4.072   0.264 -1.0180 -1.2807 -0.1703
  776MOL0     H 2426  10.444   3.870   0.250  1.3841 -0.7623 -1.8904
  776MOL0     H 2427  10.521   4.027   0.191 -0.2587 -0.8042  1.1075
  776MOL0     H 2428  10.579   3.838   0.047  0.4940  0.0234  1.5731
  776MOL0     H 2429  10.408   3.804   0.023  0.4765 -1.3535  1.4541
  776MOL0     H 2430  10.531   4.116  -0.242  0.6913 -1.3970 -1.3142
  776MOL0     H 2431   9.992   3.751   0.262 -1.8851 -1.5101  1.7127
  776MOL0     H 2432   9.830   3.581   0.259  0.4717  0.3833 -0.0147
  777MOL0     O 2433   2.448   7.191   7.908 -0.3417  1.6344  0.2685
  777MOL0     C 2434   2.348   7.127   7.865 -0.3787 -0.2262 -0.2830
  777MOL0     O 2435   2.222   7.126   7.920 -0.4540  0.7928  0.6406
  777MOL0     C 2436   2.235   7.103   8.052 -0.4790  0.1237 -0.1926
  777MOL0     C 2437   2.215   7.211   8.135 -0.4453  0.0797 -0.1816
  777MOL0     C 2438   2.236   7.206   8.276  0.1858 -0.6038 -0.0571
  777MOL0     C 2439   2.297   7.089   8.325  0.1653  0.2286  0.0710
  777MOL0     O 2440   2.311   7.083   8.463  0.1558  0.7537 -0.2904
  777MOL0     C 2441   2.386   6.974   8.515  0.0250 -1.0294  0.3994
  777MOL0     C 2442   2.422   7.002   8.661  0.2249 -0.2627 -0.6190
  777MOL0     C 2443   2.315   7.078   8.741  1.1906  0.2545  0.2412
  777MOL0     C 2444   2.223   6.972   8.815 -0.8093  0.5404  0.0400
  777MOL0     C 2445   2.123   7.029   8.916  0.1607 -0.2740  0.3571
  777MOL0     C 2446   2.020   6.925   8.977 -0.1869  0.4076  0.0383
  777MOL0     C 2447   2.087   6.805   9.043 -0.6978  0.1123  0.0722
  777MOL0     C 2448   1.984   6.684   9.060  0.0335 -0.3445 -0.3035
  777MOL0     N 2449   2.058   6.563   9.082 -0.0180  0.1641 -0.1993
  777MOL0     C 2450   2.036   6.446   9.014 -0.7202 -0.2139 -1.2163
  777MOL0     C 2451   2.108   6.350   9.074 -0.6598 -0.1144  0.2031
  777MOL0     C 2452   2.139   6.215   9.016  0.1560  0.5720 -0.3145
  777MOL0     C 2453   2.080   6.114   9.122  0.5583 -0.0814  0.0660
  777MOL0     C 2454   2.108   5.968   9.074 -0.1198 -0.1025 -0.4210
  777MOL0     C 2455   2.028   5.865   9.162  0.3716 -0.3295  0.1469
  777MOL0     O 2456   2.050   5.846   9.302 -0.2138 -0.6781  0.3585
  777MOL0     C 2457   2.167   5.784   9.331 -0.6567 -0.1964 -0.2844
  777MOL0     C 2458   2.214   5.664   9.277 -0.0103 -0.9628 -0.1052
  777MOL0     C 2459   2.337   5.611   9.322  0.6087 -0.1599 -0.1913
  777MOL0     C 2460   2.411   5.677   9.422 -0.1346 -0.3489  0.0526
  777MOL0     C 2461   2.543   5.617   9.467  1.2162 -0.3146  0.5397
  777MOL0     O 2462   2.568   5.492   9.427  0.9011  0.0682 -0.0908
  777MOL0     C 2463   2.597   5.395   9.514 -0.3884  0.3786 -0.5617
  777MOL0     C 2464   2.571   5.387   9.652  0.1178  1.3539  0.3225
  777MOL0     C 2465   2.609   5.273   9.727 -0.4189  0.3844  0.2168
  777MOL0     C 2466   2.663   5.153   9.665  1.2737  0.0563 -0.4759
  777MOL0     O 2467   2.696   5.058   9.757  0.0019 -0.3672  0.1308
  777MOL0     C 2468   2.702   4.927   9.716 -0.0932  0.3913  1.0355
  777MOL0     C 2469   2.581   4.835   9.758 -0.2412  0.4097 -0.0715
  777MOL0     C 2470   2.613   4.682   9.759 -0.1993  1.3334 -0.2759
  777MOL0     C 2471   2.741   4.641   9.839 -0.2382  0.3720  0.4343
  777MOL0     C 2472   2.775   4.485   9.829 -0.3033 -0.3664 -0.5189
  777MOL0     C 2473   2.650   4.413   9.886 -0.2754  0.9939 -0.1410
  777MOL0     C 2474   2.683   4.274   9.921  0.0693  0.8987 -0.8138
  777MOL0     C 2475   2.740   4.186   9.808 -0.4337  0.3130  0.4080
  777MOL0    Cl 2476   2.681   4.031   9.848  0.0086  0.0708 -0.1942
  777MOL0     C 2477   2.675   5.157   9.527 -0.2841 -0.6328  0.6236
  777MOL0     C 2478   2.639   5.271   9.461 -0.0821 -0.6446  0.5996
  777MOL0     O 2479   2.604   5.680   9.553  0.4059 -0.7206 -0.1187
  777MOL0     C 2480   2.361   5.791   9.476  0.2220 -1.1314  0.1686
  777MOL0     C 2481   2.243   5.848   9.430 -0.5616  0.0893  0.7148
  777MOL0     N 2482   2.152   6.408   9.191 -0.1329  0.2857  0.6121
  777MOL0     N 2483   2.130   6.539   9.188 -0.2299  0.2887  0.0121
  777MOL0     C 2484   2.314   6.977   8.238 -0.3362  0.8393 -1.5362
  777MOL0     C 2485   2.276   6.981   8.106  0.5786  0.6152 -0.3757
  777MOL0     C 2486   2.352   7.087   7.722 -0.7211  0.0486 -0.2465
  777MOL0     C 2487   2.250   7.002   7.676 -0.1124  0.3060 -1.3731
  777MOL0     C 2488   2.233   6.975   7.542 -0.6338  0.2618  0.1906
  777MOL0     C 2489   2.336   7.008   7.452  0.1959  0.7245 -0.0976
  777MOL0     O 2490   2.320   6.962   7.323  0.1183  0.1401 -0.1167
  777MOL0     C 2491   2.444   6.962   7.246 -0.0358 -0.4412 -0.2851
  777MOL0     C 2492   2.404   6.895   7.117  0.3422 -0.3777 -0.2743
  777MOL0     C 2493   2.395   6.738   7.139 -0.0107  0.5267 -0.6246
  777MOL0     C 2494   2.346   6.663   7.017  0.3239  0.2747  0.2222
  777MOL0     C 2495   2.385   6.722   6.888  0.3343  0.9890  0.2064
  777MOL0     C 2496   2.405   6.760   6.775 -1.0735  0.4892 -0.1540
  777MOL0     C 2497   2.446   7.083   7.499  0.1707 -0.7669 -1.4769
  777MOL0     C 2498   2.451   7.125   7.634 -0.9636 -0.4289  0.8134
  777MOL0     H 2499   2.171   7.302   8.096 -1.0931  1.7357  3.8334
  777MOL0     H 2500   2.217   7.298   8.331  3.5335  1.1431 -1.4734
  777MOL0     H 2501   2.472   6.972   8.448 -0.6160 -2.6042 -0.4343
  777MOL0     H 2502   2.348   6.871   8.515 -1.7551 -0.4223  1.2441
  777MOL0     H 2503   2.517   7.057   8.658 -0.0442  0.1799 -2.0098
  777MOL0     H 2504   2.448   6.915   8.721 -0.9598 -0.9986 -1.1405
  777MOL0     H 2505   2.254   7.147   8.681  1.5209 -0.7133 -1.2458
  777MOL0     H 2506   2.362   7.144   8.815  1.3175  0.3630  0.0646
  777MOL0     H 2507   2.169   6.917   8.738 -2.9207 -0.0328  1.8301
  777MOL0     H 2508   2.294   6.909   8.869  0.3816  1.3613 -0.5295
  777MOL0     H 2509   2.053   7.096   8.866 -1.4719 -1.0522  1.5164
  777MOL0     H 2510   2.168   7.086   8.997  0.4190  1.8967 -1.2188
  777MOL0     H 2511   1.960   6.902   8.889  2.2696 -0.9625 -1.3861
  777MOL0     H 2512   1.958   6.974   9.053 -0.3425 -0.7355  0.6751
  777MOL0     H 2513   2.169   6.771   8.979  0.6770  1.5757  0.9996
  777MOL0     H 2514   2.121   6.832   9.143 -1.6411  0.2557  0.3568
  777MOL0     H 2515   1.922   6.681   8.970  0.2994 -2.4590 -0.4568
  777MOL0     H 2516   1.917   6.696   9.145 -0.7351  1.1959 -1.0890
  777MOL0     H 2517   1.986   6.429   8.920 -1.5149 -0.3718 -0.7687
  777MOL0     H 2518   2.247   6.201   9.024  0.4637  1.5600 -2.1154
  777MOL0     H 2519   2.099   6.198   8.916  0.8071 -1.7186 -0.2261
  777MOL0     H 2520   1.973   6.132   9.136  0.1412 -2.7414  0.7729
  777MOL0     H 2521   2.123   6.131   9.221  0.6565 -0.8646  0.1630
  777MOL0     H 2522   2.078   5.949   8.971  1.0828 -2.9090 -0.3678
  777MOL0     H 2523   2.214   5.944   9.071 -0.1507 -0.6518  1.4012
  777MOL0     H 2524   2.037   5.766   9.114  2.2492 -0.8157  1.3905
  777MOL0     H 2525   1.922   5.889   9.150  0.6395  0.1777 -1.4730
  777MOL0     H 2526   2.151   5.608   9.209 -1.3843  0.9745 -0.5002
  777MOL0     H 2527   2.367   5.514   9.283  3.8775  0.6317  0.0861
  777MOL0     H 2528   2.520   5.476   9.687  0.8864  2.3404 -0.9855
  777MOL0     H 2529   2.587   5.276   9.833  1.0794 -1.7363  0.6621
  777MOL0     H 2530   2.793   4.886   9.760  0.7626 -0.5210 -1.4269
  777MOL0     H 2531   2.719   4.921   9.608 -0.6781 -0.5869  0.9779
  777MOL0     H 2532   2.495   4.855   9.693 -1.2421 -3.1951 -0.0616
  777MOL0     H 2533   2.565   4.854   9.865 -0.4109 -0.8325  0.1417
  777MOL0     H 2534   2.625   4.629   9.664  2.0033  0.1114  0.6104
  777MOL0     H 2535   2.529   4.634   9.810  0.9292 -0.1946  0.2436
  777MOL0     H 2536   2.826   4.694   9.797 -0.6063 -1.7100 -3.4354
  777MOL0     H 2537   2.721   4.664   9.945 -0.5825  1.1909  0.2014
  777MOL0     H 2538   2.857   4.459   9.898  1.4365  0.5870 -2.1216
  777MOL0     H 2539   2.783   4.447   9.727 -1.4297  1.9242 -1.5199
  777MOL0     H 2540   2.570   4.414   9.811 -0.7974  3.3632  0.3749
  777MOL0     H 2541   2.617   4.461   9.978  0.9583 -1.1100  1.4884
  777MOL0     H 2542   2.752   4.279  10.005 -1.1973 -0.8836  0.4009
  777MOL0     H 2543   2.594   4.226   9.961  0.3946  0.3361 -0.7506
  777MOL0     H 2544   2.846   4.210   9.816  0.3381 -1.3920 -2.9883
  777MOL0     H 2545   2.704   4.218   9.710  1.1068 -1.3596 -0.7442
  777MOL0     H 2546   2.727   5.076   9.478 -0.6045  0.4580 -1.6733
  777MOL0     H 2547   2.643   5.269   9.353  1.1839  1.6312  0.5535
  777MOL0     H 2548   2.425   5.842   9.548  0.8816  0.9409 -1.7949
  777MOL0     H 2549   2.203   5.947   9.451 -1.0660  0.4728 -1.6901
  777MOL0     H 2550   2.329   6.880   8.285 -0.0461  0.9067 -1.4865
  777MOL0     H 2551   2.285   6.895   8.041  3.4232  0.6586 -0.1555
  777MOL0     H 2552   2.164   6.968   7.732  1.9244  0.2894  2.0122
  777MOL0     H 2553   2.158   6.905   7.507  0.0551 -0.3552 -0.1037
  777MOL0     H 2554   2.532   6.914   7.291 -0.3488  1.2462  2.2988
  777MOL0     H 2555   2.468   7.065   7.219  0.5356 -1.6168 -5.2827
  777MOL0     H 2556   2.309   6.943   7.093  1.8018  4.2216  1.9692
  777MOL0     H 2557   2.480   6.931   7.047 -1.2405  1.5076 -1.0792
  777MOL0     H 2558   2.328   6.708   7.220 -1.4951 -2.1326 -2.6458
  777MOL0     H 2559   2.499   6.707   7.149  0.3812  1.7513 -0.7708
  777MOL0     H 2560   2.378   6.559   7.009  0.1157  0.1131  1.3200
  777MOL0     H 2561   2.238   6.678   7.005  0.5968  1.0933 -1.6862
  777MOL0     H 2562   2.433   6.813   6.686  1.5954 -0.4097  0.0538
  777MOL0     H 2563   2.534   7.094   7.436  2.5758 -1.2016  1.5750
  777MOL0     H 2564   2.532   7.180   7.680 -0.2910 -1.9553  1.5520
  778MOL0     O 2565   5.190   6.138   4.309 -0.2335 -0.2840 -0.5447
  778MOL0     C 2566   5.104   6.070   4.255  0.3280  0.1342  0.4184
  778MOL0     O 2567   5.117   6.022   4.128  0.4776  0.2060  0.7754
  778MOL0     C 2568   5.236   6.034   4.057 -0.1284 -0.4659  0.0500
  778MOL0     C 2569   5.214   6.040   3.918  0.4389 -0.2511  0.2629
  778MOL0     C 2570   5.325   6.062   3.829  0.5080  0.9923 -0.3433
  778MOL0     C 2571   5.455   6.077   3.879 -1.0094  0.7265 -0.5809
  778MOL0     O 2572   5.564   6.091   3.792 -0.5795  0.3995  0.8213
  778MOL0     C 2573   5.591   5.981   3.699  0.6046  0.3907 -0.2488
  778MOL0     C 2574   5.711   6.025   3.623  0.7388 -0.6404  0.6006
  778MOL0     C 2575   5.840   6.022   3.704  0.3542 -0.0963 -0.2287
  778MOL0     C 2576   5.977   6.018   3.629  0.7745 -0.5049  0.4598
  778MOL0     C 2577   6.023   5.874   3.581  0.0828 -0.4508  0.4150
  778MOL0     C 2578   5.914   5.815   3.483 -1.1473  0.1464 -0.1654
  778MOL0     C 2579   5.975   5.692   3.419 -0.0982  0.0629  0.6648
  778MOL0     C 2580   6.072   5.723   3.313  0.1525 -0.4730  0.4945
  778MOL0     N 2581   6.089   5.611   3.220 -0.2948 -0.5773 -0.2663
  778MOL0     C 2582   5.985   5.529   3.170 -0.6153  0.7274  0.9497
  778MOL0     C 2583   6.042   5.435   3.097 -0.6231  0.6149  0.0180
  778MOL0     C 2584   5.956   5.331   3.025 -0.0507 -1.0967  0.5954
  778MOL0     C 2585   5.926   5.384   2.891  0.1678  0.2867  0.3317
  778MOL0     C 2586   5.780   5.402   2.858 -0.3715 -0.6323 -0.2193
  778MOL0     C 2587   5.717   5.517   2.938 -0.7208  1.0496 -0.5148
  778MOL0     O 2588   5.810   5.621   2.943  0.1812 -0.6834 -0.3845
  778MOL0     C 2589   5.843   5.683   2.825  0.0356 -0.4075 -0.5640
  778MOL0     C 2590   5.938   5.784   2.828  0.0859  0.5867 -1.2425
  778MOL0     C 2591   5.952   5.870   2.728  1.7033 -0.6739  0.8262
  778MOL0     C 2592   5.872   5.869   2.608  0.0744  0.1486  0.6587
  778MOL0     C 2593   5.870   5.973   2.508 -0.4619  0.0829  0.2639
  778MOL0     O 2594   5.983   6.049   2.519 -0.3084 -0.5380  0.9753
  778MOL0     C 2595   6.016   6.153   2.423  0.2851  0.0089  0.1693
  778MOL0     C 2596   5.920   6.240   2.373  0.6852  0.1434 -0.5072
  778MOL0     C 2597   5.954   6.335   2.283 -0.0898 -0.3668 -0.2663
  778MOL0     C 2598   6.082   6.328   2.220 -0.3315  0.6335 -0.2788
  778MOL0     O 2599   6.102   6.432   2.132  0.7360  0.2140  0.4306
  778MOL0     C 2600   6.237   6.444   2.089 -0.4522 -0.0047  0.8893
  778MOL0     C 2601   6.237   6.569   1.999 -0.4865  0.5315 -0.2023
  778MOL0     C 2602   6.221   6.532   1.859 -0.0660  0.5807 -0.5016
  778MOL0     C 2603   6.196   6.652   1.771  0.5064  0.4041  0.3128
  778MOL0     C 2604   6.163   6.612   1.624 -0.3137  0.1816  0.8880
  778MOL0     C 2605   6.025   6.559   1.614  0.2885 -0.0607  0.0412
  778MOL0     C 2606   5.965   6.546   1.477 -0.3807  0.4683 -0.0863
  778MOL0     C 2607   6.052   6.484   1.369 -0.1976  0.3658 -0.3855
  778MOL0    Cl 2608   5.944   6.413   1.256 -0.6406  0.0441  0.1836
  778MOL0     C 2609   6.181   6.239   2.264  0.3623  1.1059 -0.3794
  778MOL0     C 2610   6.144   6.154   2.365 -0.1497 -0.1669 -0.7109
  778MOL0     O 2611   5.784   5.985   2.425  0.6396  0.3659 -0.1244
  778MOL0     C 2612   5.788   5.754   2.597 -0.6148 -0.1969  0.1517
  778MOL0     C 2613   5.772   5.672   2.709 -0.8785  0.3594 -0.3249
  778MOL0     N 2614   6.177   5.443   3.110  0.1631 -0.0079  0.6474
  778MOL0     N 2615   6.201   5.554   3.172 -1.0028 -0.4156  0.8617
  778MOL0     C 2616   5.469   6.065   4.015  0.0979  0.2710 -0.5231
  778MOL0     C 2617   5.364   6.039   4.113  0.9693  0.7205  0.5498
  778MOL0     C 2618   4.988   6.030   4.331 -0.6183 -0.5821 -0.8737
  778MOL0     C 2619   4.959   6.085   4.455 -0.5065  0.1804 -0.2500
  778MOL0     C 2620   4.845   6.050   4.526  0.3488 -0.1556 -0.0318
  778MOL0     C 2621   4.758   5.957   4.471  0.3115 -0.0357  0.1081
  778MOL0     O 2622   4.650   5.916   4.550 -0.3096 -0.0793 -0.1610
  778MOL0     C 2623   4.582   5.798   4.505 -0.4754  0.3342  0.2001
  778MOL0     C 2624   4.642   5.662   4.552 -0.5493 -0.3756  0.0451
  778MOL0     C 2625   4.701   5.656   4.695 -0.0521  0.1776  0.7239
  778MOL0     C 2626   4.593   5.652   4.792 -0.2955 -0.2971 -0.8233
  778MOL0     C 2627   4.496   5.539   4.770  0.7976  0.0804  0.4582
  778MOL0     C 2628   4.418   5.440   4.782 -0.5799 -0.4412  0.0312
  778MOL0     C 2629   4.792   5.909   4.340  0.7015  0.0492 -0.9054
  778MOL0     C 2630   4.897   5.952   4.269 -0.0938  0.8596 -0.4315
  778MOL0     H 2631   5.115   6.021   3.877 -0.7005 -0.4033  2.8775
  778MOL0     H 2632   5.294   6.086   3.727 -2.0629  2.2576  0.6376
  778MOL0     H 2633   5.506   5.943   3.642 -1.3770 -3.5957  4.5676
  778MOL0     H 2634   5.631   5.896   3.754  0.4762 -1.1893 -2.4674
  778MOL0     H 2635   5.696   6.130   3.597 -0.3324 -0.7108  0.8856
  778MOL0     H 2636   5.718   5.953   3.540  2.2221 -1.6358  1.5460
  778MOL0     H 2637   5.834   5.928   3.761 -1.5224  0.1215 -0.0044
  778MOL0     H 2638   5.838   6.108   3.771  2.7815  1.6921 -2.2582
  778MOL0     H 2639   5.975   6.079   3.538 -2.9020  0.4607  1.0335
  778MOL0     H 2640   6.054   6.055   3.698  0.4262 -0.7976  1.0094
  778MOL0     H 2641   6.035   5.806   3.666 -2.1078 -0.2911  0.9105
  778MOL0     H 2642   6.121   5.896   3.538 -1.1780  4.5340 -0.5642
  778MOL0     H 2643   5.879   5.895   3.418  0.9859  1.3174  0.0358
  778MOL0     H 2644   5.841   5.775   3.554 -2.4163 -2.0627 -2.5407
  778MOL0     H 2645   6.012   5.632   3.502  1.8628  0.3624  0.0548
  778MOL0     H 2646   5.892   5.641   3.370  0.0997 -0.4533  0.8666
  778MOL0     H 2647   6.172   5.761   3.337  0.0661  0.9175 -1.1452
  778MOL0     H 2648   6.033   5.807   3.255  2.9936 -1.6402 -3.5207
  778MOL0     H 2649   5.879   5.547   3.187 -0.8170 -2.3475  4.4372
  778MOL0     H 2650   5.861   5.324   3.079 -0.9777  2.0099 -0.4210
  778MOL0     H 2651   6.027   5.248   3.024  2.8275  1.1756  0.7393
  778MOL0     H 2652   5.953   5.297   2.831  1.2984  1.0175 -0.2554
  778MOL0     H 2653   5.993   5.463   2.854 -0.8728  1.5677  1.0936
  778MOL0     H 2654   5.771   5.412   2.749  1.0698  2.6738 -0.1407
  778MOL0     H 2655   5.724   5.310   2.880 -1.8876  0.7934  2.3005
  778MOL0     H 2656   5.704   5.490   3.043  1.0043  2.9265  0.2444
  778MOL0     H 2657   5.617   5.554   2.913 -2.1941 -2.2606 -0.1733
  778MOL0     H 2658   5.995   5.803   2.918  0.7560  0.6147 -1.6619
  778MOL0     H 2659   6.026   5.949   2.738  2.5536 -1.3696  0.2598
  778MOL0     H 2660   5.819   6.236   2.411  0.8212  1.4840  0.0188
  778MOL0     H 2661   5.879   6.411   2.263  1.4268  1.8439  1.9533
  778MOL0     H 2662   6.280   6.360   2.035  1.0589  2.8485 -2.7691
  778MOL0     H 2663   6.298   6.465   2.177 -0.3776 -1.9902  1.3533
  778MOL0     H 2664   6.330   6.626   2.007 -1.0531  1.8173 -2.1436
  778MOL0     H 2665   6.159   6.633   2.041 -2.5541 -1.3918 -0.9315
  778MOL0     H 2666   6.129   6.473   1.851  1.4419 -1.6743 -3.6540
  778MOL0     H 2667   6.301   6.465   1.827 -1.1948 -0.5693 -1.0280
  778MOL0     H 2668   6.118   6.718   1.811 -1.6715 -1.8779  0.1009
  778MOL0     H 2669   6.282   6.718   1.761 -0.8405  1.9667 -2.2499
  778MOL0     H 2670   6.248   6.551   1.590  1.2559  0.4411  4.0092
  778MOL0     H 2671   6.165   6.699   1.558 -1.0208 -0.3411  0.1519
  778MOL0     H 2672   5.965   6.626   1.675  0.6553  0.8439 -0.5715
  778MOL0     H 2673   6.017   6.459   1.659  1.9464  0.2385  1.0915
  778MOL0     H 2674   5.876   6.484   1.489 -1.8464  2.1503 -1.7174
  778MOL0     H 2675   5.921   6.642   1.450 -1.7539  0.1819  1.0680
  778MOL0     H 2676   6.121   6.412   1.415 -0.0406  0.2937 -0.7256
  778MOL0     H 2677   6.123   6.563   1.342  0.4361  1.2046  3.2265
  778MOL0     H 2678   6.272   6.238   2.205 -1.7433  2.0447 -3.9029
  778MOL0     H 2679   6.220   6.082   2.393  3.4750  3.0281 -1.5287
  778MOL0     H 2680   5.738   5.738   2.501 -2.6135 -1.9147  1.3906
  778MOL0     H 2681   5.695   5.597   2.694 -0.0590 -0.3502 -1.0925
  778MOL0     H 2682   5.565   6.062   4.065  0.3429 -2.2308 -1.0065
  778MOL0     H 2683   5.389   6.042   4.218 -1.8196  0.7887  1.2981
  778MOL0     H 2684   5.033   6.157   4.490 -0.6909  0.5589 -0.6351
  778MOL0     H 2685   4.829   6.097   4.623  0.4593  0.5212 -0.3387
  778MOL0     H 2686   4.556   5.797   4.398 -1.9136  0.5453  0.5334
  778MOL0     H 2687   4.483   5.807   4.550 -0.1161  2.7098  0.6510
  778MOL0     H 2688   4.567   5.587   4.525 -1.7098  1.4501 -2.2199
  778MOL0     H 2689   4.729   5.636   4.492 -0.8519 -1.5580  0.1006
  778MOL0     H 2690   4.777   5.731   4.718 -2.1864  1.6037  3.9241
  778MOL0     H 2691   4.749   5.559   4.711 -2.0473 -1.3773 -1.9213
  778MOL0     H 2692   4.641   5.642   4.889 -0.4002  1.3333 -0.5722
  778MOL0     H 2693   4.537   5.746   4.784 -1.3759 -0.6489  1.5792
  778MOL0     H 2694   4.335   5.373   4.784 -0.2576 -0.8331  0.3299
  778MOL0     H 2695   4.729   5.831   4.296 -2.9076  1.9450  0.4438
  778MOL0     H 2696   4.909   5.907   4.171 -1.9729 -1.4766  0.3307
  779MOL0     O 2697   5.535   9.357   7.981  0.5806 -0.4114  0.4230
  779MOL0     C 2698   5.420   9.396   7.973 -0.0215 -0.0947 -0.1426
  779MOL0     O 2699   5.383   9.511   7.910 -0.3921  0.2104 -0.1689
  779MOL0     C 2700   5.478   9.595   7.862  0.1167 -0.5435  0.6751
  779MOL0     C 2701   5.482   9.723   7.926 -0.5470 -0.4149 -1.0069
  779MOL0     C 2702   5.581   9.813   7.864  0.4747  0.1108 -0.0707
  779MOL0     C 2703   5.648   9.783   7.748 -0.8013 -0.5633  0.5939
  779MOL0     O 2704   5.727   9.875   7.678  0.5968  0.1064  0.0071
  779MOL0     C 2705   5.869   9.869   7.680  1.2303 -1.1368  0.6384
  779MOL0     C 2706   5.933   9.832   7.819  0.5439  0.9786 -0.2063
  779MOL0     C 2707   6.013   9.697   7.810 -0.0478 -0.0455  0.1758
  779MOL0     C 2708   6.154   9.716   7.743  0.7076  0.6176  0.1187
  779MOL0     C 2709   6.267   9.710   7.849  0.5959 -0.5856 -0.2603
  779MOL0     C 2710   6.264   9.816   7.969  0.1962  0.2534 -0.2474
  779MOL0     C 2711   6.225   9.750   8.103  0.8103 -0.7590  0.3898
  779MOL0     C 2712   6.199   9.851   8.209  1.3041  1.1701  0.6345
  779MOL0     N 2713   6.175   9.792   8.349 -0.3555  1.8667  0.8726
  779MOL0     C 2714   6.099   9.683   8.375 -0.3776 -0.8592 -0.5036
  779MOL0     C 2715   6.098   9.684   8.514  0.3296  0.6772  0.9163
  779MOL0     C 2716   6.033   9.568   8.583  0.3917  0.3082  0.0551
  779MOL0     C 2717   6.083   9.543   8.728  0.6715  0.3494 -1.1122
  779MOL0     C 2718   6.213   9.457   8.732  0.1380  0.3823  1.0212
  779MOL0     C 2719   6.298   9.467   8.868  0.0450 -0.7252  0.4034
  779MOL0     O 2720   6.215   9.487   8.976 -0.4579  0.3411 -0.4186
  779MOL0     C 2721   6.260   9.476   9.104  0.1706 -0.8438  0.4369
  779MOL0     C 2722   6.182   9.548   9.187  0.4050 -0.2555  0.2195
  779MOL0     C 2723   6.206   9.545   9.323  0.4350  1.0809  0.0218
  779MOL0     C 2724   6.316   9.473   9.376  0.4387  0.7848 -0.8951
  779MOL0     C 2725   6.345   9.453   9.519  0.5684 -0.0671  0.5319
  779MOL0     O 2726   6.269   9.525   9.604 -0.6357  0.7463 -0.7246
  779MOL0     C 2727   6.304   9.494   9.744  0.6874 -0.2562  0.7747
  779MOL0     C 2728   6.219   9.425   9.837  0.3946 -0.5033  0.6607
  779MOL0     C 2729   6.258   9.426   9.977 -0.0346  0.1127 -0.3220
  779MOL0     C 2730   6.374   9.487  10.025 -0.4421 -0.6151  0.0918
  779MOL0     O 2731   6.423   9.492  10.150  0.1573 -0.6712 -0.2390
  779MOL0     C 2732   6.372   9.399  10.246  0.0459 -0.2308 -0.2517
  779MOL0     C 2733   6.482   9.343  10.340  0.5212  0.8481 -0.6880
  779MOL0     C 2734   6.424   9.225  10.414 -0.2980  0.1589  0.5827
  779MOL0     C 2735   6.522   9.176  10.519  0.2174  0.3398 -0.2645
  779MOL0     C 2736   6.450   9.079  10.634  0.1806 -0.3965  1.0271
  779MOL0     C 2737   6.565   9.030  10.718  0.1521  0.2520  0.2814
  779MOL0     C 2738   6.649   8.897  10.682  0.4595 -0.6173  0.7032
  779MOL0     C 2739   6.788   8.902  10.748 -0.2206  0.2350  0.3260
  779MOL0    Cl 2740   6.775   8.904  10.928 -0.4414  0.0211 -1.0283
  779MOL0     C 2741   6.454   9.545   9.935 -0.0092 -0.4293  0.8818
  779MOL0     C 2742   6.427   9.542   9.793  0.0297  0.5081  1.3129
  779MOL0     O 2743   6.426   9.362   9.552  0.6522 -0.2708  0.0111
  779MOL0     C 2744   6.394   9.393   9.285  0.1240 -0.9039  0.0254
  779MOL0     C 2745   6.363   9.394   9.153 -0.5564 -0.0201 -0.2746
  779MOL0     N 2746   6.182   9.787   8.567 -0.3179  0.3888 -0.4744
  779MOL0     N 2747   6.232   9.840   8.462 -1.0016 -0.3502  0.2292
  779MOL0     C 2748   5.644   9.649   7.702 -0.3535 -0.4364  1.1725
  779MOL0     C 2749   5.561   9.560   7.756 -0.3769  0.3799 -0.4098
  779MOL0     C 2750   5.313   9.332   8.053  0.2808  0.1026 -0.5241
  779MOL0     C 2751   5.340   9.264   8.178  0.2547  0.0112  0.1935
  779MOL0     C 2752   5.231   9.213   8.255 -0.2951 -0.3102 -0.6116
  779MOL0     C 2753   5.102   9.230   8.205  0.2051 -0.2822 -0.2244
  779MOL0     O 2754   4.986   9.176   8.262 -0.3815  0.1920  0.2232
  779MOL0     C 2755   4.977   9.110   8.384  0.5048  0.9304  0.1779
  779MOL0     C 2756   4.829   9.095   8.414 -0.1540  0.6663 -0.0923
  779MOL0     C 2757   4.765   9.225   8.447  0.5200 -1.0480  0.0632
  779MOL0     C 2758   4.619   9.217   8.481 -0.0130 -0.1184  0.3514
  779MOL0     C 2759   4.526   9.171   8.376  0.2545 -0.6321  0.0975
  779MOL0     C 2760   4.453   9.126   8.292  0.0222 -0.0775  0.3101
  779MOL0     C 2761   5.077   9.287   8.082 -0.3644  0.9238 -0.3794
  779MOL0     C 2762   5.186   9.339   8.010 -0.8030  0.7661  0.7237
  779MOL0     H 2763   5.418   9.745   8.011  1.3004 -0.1383  0.3667
  779MOL0     H 2764   5.585   9.918   7.893  0.7222 -0.0969  0.6721
  779MOL0     H 2765   5.898   9.973   7.662 -1.0279 -0.8024 -1.6579
  779MOL0     H 2766   5.906   9.826   7.587 -3.2511  1.3523 -2.6672
  779MOL0     H 2767   5.850   9.819   7.889 -1.4561 -1.8714 -2.8303
  779MOL0     H 2768   5.989   9.915   7.862  0.3450  1.2695 -0.5017
  779MOL0     H 2769   5.949   9.633   7.749 -0.3661  2.7224 -2.6485
  779MOL0     H 2770   6.032   9.654   7.909  2.9257  0.9286  0.1148
  779MOL0     H 2771   6.165   9.633   7.672  2.2317 -0.1940  1.2569
  779MOL0     H 2772   6.160   9.804   7.678  3.8773  1.5641  1.4962
  779MOL0     H 2773   6.366   9.725   7.805  0.7756 -0.7787  0.0799
  779MOL0     H 2774   6.263   9.612   7.897  1.3512  0.7350  2.7333
  779MOL0     H 2775   6.197   9.901   7.952 -3.4301 -2.8574 -3.3604
  779MOL0     H 2776   6.367   9.851   7.981  0.4197 -0.3509 -0.3572
  779MOL0     H 2777   6.144   9.684   8.072  0.9260  0.2909 -2.4141
  779MOL0     H 2778   6.313   9.693   8.136  2.1068 -0.5824 -2.4729
  779MOL0     H 2779   6.112   9.901   8.166  2.0129 -0.9181 -3.8262
  779MOL0     H 2780   6.287   9.915   8.214  2.0937  0.0546  1.6326
  779MOL0     H 2781   6.038   9.618   8.314  1.1564 -2.3793 -0.4885
  779MOL0     H 2782   6.048   9.479   8.521 -4.5789 -1.3787  0.8140
  779MOL0     H 2783   5.925   9.586   8.587  0.0108 -1.7089  4.7406
  779MOL0     H 2784   6.002   9.501   8.788  2.0501  0.3918  0.8860
  779MOL0     H 2785   6.101   9.641   8.774  3.3739  0.2400 -1.7459
  779MOL0     H 2786   6.206   9.352   8.702 -0.9668  1.0443 -1.2732
  779MOL0     H 2787   6.278   9.510   8.662 -0.3369 -0.0191  0.2581
  779MOL0     H 2788   6.360   9.556   8.855 -0.2154 -0.7293 -0.9705
  779MOL0     H 2789   6.361   9.381   8.891 -0.1196 -0.7549  0.7605
  779MOL0     H 2790   6.101   9.612   9.154  0.3089 -2.0539 -3.5929
  779MOL0     H 2791   6.156   9.609   9.395  2.1048  1.2827  1.0568
  779MOL0     H 2792   6.123   9.386   9.803  0.9944 -0.0340 -1.7061
  779MOL0     H 2793   6.195   9.383  10.054 -0.9725 -0.0280 -1.1489
  779MOL0     H 2794   6.319   9.312  10.207 -3.4736  0.6759  2.0869
  779MOL0     H 2795   6.302   9.448  10.314  1.7221  0.1321  1.2925
  779MOL0     H 2796   6.503   9.413  10.421  0.0283  2.2391 -1.7181
  779MOL0     H 2797   6.574   9.313  10.290  1.5055 -2.5066  2.6344
  779MOL0     H 2798   6.413   9.157  10.329  1.0360 -0.9120  1.2358
  779MOL0     H 2799   6.325   9.240  10.460 -0.1082  1.7612  0.5201
  779MOL0     H 2800   6.603   9.120  10.471 -0.4759 -2.0330  1.1385
  779MOL0     H 2801   6.568   9.262  10.568  0.8450  0.2244 -0.6487
  779MOL0     H 2802   6.397   8.995  10.589  1.5836  0.2289 -2.0918
  779MOL0     H 2803   6.375   9.139  10.687  0.2782 -0.0104  0.7306
  779MOL0     H 2804   6.541   9.025  10.825 -0.9701 -2.6719  0.0088
  779MOL0     H 2805   6.644   9.104  10.706  1.0550 -0.6692  0.3558
  779MOL0     H 2806   6.589   8.810  10.710  1.0223 -1.4650 -0.6250
  779MOL0     H 2807   6.645   8.897  10.573 -0.6802 -0.2318  0.7351
  779MOL0     H 2808   6.843   8.994  10.725  2.1196 -0.6993  1.8034
  779MOL0     H 2809   6.850   8.822  10.706 -1.1465 -1.0331  1.2613
  779MOL0     H 2810   6.545   9.599   9.961 -0.4880 -0.5393  2.9595
  779MOL0     H 2811   6.506   9.585   9.731 -0.2141 -1.1537 -0.2263
  779MOL0     H 2812   6.479   9.330   9.312  2.2904 -0.6079 -5.0155
  779MOL0     H 2813   6.425   9.328   9.093 -1.6550 -3.2435  1.8614
  779MOL0     H 2814   5.713   9.615   7.625  0.7871  1.4232  1.3005
  779MOL0     H 2815   5.565   9.455   7.729 -3.5663 -0.5468  2.1211
  779MOL0     H 2816   5.439   9.263   8.222 -0.6897  1.2959  2.5227
  779MOL0     H 2817   5.245   9.179   8.357  2.2996  2.2066 -0.0115
  779MOL0     H 2818   5.029   9.155   8.469 -0.5427  0.4248  1.1182
  779MOL0     H 2819   5.033   9.018   8.368  2.9776  2.3725  0.0088
  779MOL0     H 2820   4.786   9.069   8.317 -0.5872  0.7552  0.0728
  779MOL0     H 2821   4.801   9.023   8.492 -1.0895 -0.8030 -1.7204
  779MOL0     H 2822   4.780   9.307   8.376 -1.3839 -1.9823 -1.5291
  779MOL0     H 2823   4.811   9.246   8.544  2.7090  0.6795 -1.2458
  779MOL0     H 2824   4.624   9.129   8.546  1.3653 -0.7126 -0.5034
  779MOL0     H 2825   4.578   9.301   8.538 -4.6609 -2.2197  0.5948
  779MOL0     H 2826   4.379   9.103   8.218  0.4246 -0.2690 -0.0352
  779MOL0     H 2827   4.973   9.295   8.051 -1.0751 -0.7874  1.3252
  779MOL0     H 2828   5.176   9.374   7.908 -0.5345 -1.8775 -0.3053
  780MOL0     O 2829   4.048  10.355   6.529  0.6730 -0.9157 -0.2755
  780MOL0     C 2830   3.989  10.462   6.518  0.4797  0.8397  0.3934
  780MOL0     O 2831   4.036  10.567   6.448  0.4910 -0.3290 -0.5779
  780MOL0     C 2832   4.140  10.546   6.362 -1.0453 -0.8519  0.1429
  780MOL0     C 2833   4.275  10.580   6.405  0.4974 -1.1640 -0.2449
  780MOL0     C 2834   4.373  10.557   6.314  0.0496 -0.4501 -0.2188
  780MOL0     C 2835   4.349  10.502   6.185 -0.7842  1.1684 -0.5721
  780MOL0     O 2836   4.449  10.457   6.104 -0.9816  0.6440  0.5645
  780MOL0     C 2837   4.561  10.387   6.167  0.0756  0.2953 -1.0388
  780MOL0     C 2838   4.666  10.372   6.059 -0.1132 -0.9695 -0.5826
  780MOL0     C 2839   4.624  10.286   5.948  0.1004 -0.3508  1.1732
  780MOL0     C 2840   4.733  10.285   5.841  0.1280 -1.0133 -0.6614
  780MOL0     C 2841   4.704  10.186   5.726 -0.4733 -0.2614 -0.2334
  780MOL0     C 2842   4.831  10.125   5.657  0.7597  0.0949 -0.2207
  780MOL0     C 2843   4.938  10.227   5.624 -0.1796  1.2266  0.7633
  780MOL0     C 2844   5.039  10.162   5.529 -0.1142 -0.0195 -0.0329
  780MOL0     N 2845   5.134  10.069   5.597  0.1799 -0.5207  0.6980
  780MOL0     C 2846   5.234  10.117   5.689  1.1914 -0.1772  1.4668
  780MOL0     C 2847   5.298  10.003   5.727 -0.0516  0.4155  0.4619
  780MOL0     C 2848   5.410   9.991   5.827 -0.1780  1.0369  0.3429
  780MOL0     C 2849   5.357   9.985   5.969 -0.2797  0.6462  0.7142
  780MOL0     C 2850   5.265  10.105   6.005 -0.4245  0.2149 -0.4674
  780MOL0     C 2851   5.121  10.087   6.000  0.6290 -0.6018 -0.3908
  780MOL0     O 2852   5.078   9.975   6.073  0.6455  0.1282 -0.2320
  780MOL0     C 2853   4.959   9.922   6.015 -0.0436 -0.3543 -0.2559
  780MOL0     C 2854   4.965   9.807   5.939 -0.9041 -0.6621 -0.3625
  780MOL0     C 2855   4.844   9.764   5.892  0.5318  0.1874 -0.1240
  780MOL0     C 2856   4.725   9.830   5.922  0.7305  0.2011 -0.3055
  780MOL0     C 2857   4.592   9.786   5.860 -0.6973  0.5905 -0.3763
  780MOL0     O 2858   4.610   9.693   5.773 -0.1386 -0.2200  0.1697
  780MOL0     C 2859   4.513   9.613   5.732 -0.0910  0.1816  0.3207
  780MOL0     C 2860   4.554   9.527   5.629  0.3524  0.1911 -0.3921
  780MOL0     C 2861   4.466   9.436   5.579  0.7138  0.6734 -0.6873
  780MOL0     C 2862   4.334   9.424   5.635 -0.5514  0.2869  0.2525
  780MOL0     O 2863   4.255   9.329   5.581 -0.5720 -0.4859  0.0319
  780MOL0     C 2864   4.133   9.376   5.536  0.6139  0.2157 -0.8037
  780MOL0     C 2865   4.063   9.276   5.442 -0.0640  0.3504 -0.0524
  780MOL0     C 2866   4.138   9.249   5.312  0.5433  0.0726 -0.0158
  780MOL0     C 2867   4.053   9.166   5.214 -0.1202  0.3663  0.4404
  780MOL0     C 2868   4.110   9.184   5.071 -0.2251  0.4404 -0.2756
  780MOL0     C 2869   4.259   9.121   5.065  0.0226 -0.4484  0.8737
  780MOL0     C 2870   4.297   9.084   4.915  0.2781  0.4537 -1.0246
  780MOL0     C 2871   4.439   9.034   4.914  0.0670  0.6292  0.7296
  780MOL0    Cl 2872   4.491   9.015   4.746 -0.7036 -0.0002 -0.4680
  780MOL0     C 2873   4.294   9.510   5.733 -0.1085 -0.6830  0.3775
  780MOL0     C 2874   4.384   9.604   5.776  1.0456  0.0271  0.1081
  780MOL0     O 2875   4.486   9.849   5.881  0.3067 -0.5400 -0.2241
  780MOL0     C 2876   4.721   9.937   6.005 -0.1638  0.3043 -0.1063
  780MOL0     C 2877   4.847   9.985   6.054  0.3835 -0.0173 -0.3347
  780MOL0     N 2878   5.239   9.898   5.659 -0.2098 -0.0792 -0.8607
  780MOL0     N 2879   5.149   9.931   5.572 -0.1518 -0.5335 -0.3064
  780MOL0     C 2880   4.222  10.472   6.149 -0.2004  0.6157 -0.3050
  780MOL0     C 2881   4.113  10.503   6.234 -0.2522 -0.2256  0.3189
  780MOL0     C 2882   3.861  10.463   6.593 -0.2299 -0.2665 -0.6866
  780MOL0     C 2883   3.760  10.560   6.558 -0.7402 -0.0126  0.3125
  780MOL0     C 2884   3.633  10.559   6.616  0.9533  0.3856 -0.6810
  780MOL0     C 2885   3.603  10.469   6.725  0.2046  0.5427 -0.3868
  780MOL0     O 2886   3.486  10.479   6.807  0.8009  0.1983  0.1408
  780MOL0     C 2887   3.389  10.572   6.772  0.6938 -0.5927  0.3942
  780MOL0     C 2888   3.434  10.709   6.827  0.0914 -0.1106 -0.5699
  780MOL0     C 2889   3.389  10.718   6.978 -0.4848  0.5352  0.1462
  780MOL0     C 2890   3.255  10.791   6.992  0.1202  0.1511 -0.6465
  780MOL0     C 2891   3.140  10.693   7.009 -0.2997  0.1780  0.2533
  780MOL0     C 2892   3.042  10.628   7.005  1.0606 -0.4366 -0.3379
  780MOL0     C 2893   3.703  10.383   6.766  0.3665  0.8427 -0.0758
  780MOL0     C 2894   3.826  10.380   6.695 -0.1746  0.2502 -1.0176
  780MOL0     H 2895   4.291  10.622   6.503 -0.3661 -2.2718  0.3917
  780MOL0     H 2896   4.471  10.592   6.345  1.0658 -2.1478 -1.3042
  780MOL0     H 2897   4.534  10.284   6.190 -0.2159  0.5586 -0.1276
  780MOL0     H 2898   4.604  10.439   6.254 -0.9872  5.0481 -3.0040
  780MOL0     H 2899   4.748  10.325   6.113 -0.5379  0.5715  1.5034
  780MOL0     H 2900   4.691  10.472   6.022  0.2413  0.6856  3.5777
  780MOL0     H 2901   4.542  10.329   5.890  2.1308  1.5731 -0.4270
  780MOL0     H 2902   4.596  10.183   5.974 -1.1819 -0.4545 -0.3833
  780MOL0     H 2903   4.750  10.381   5.792  0.7477  1.0755  3.3079
  780MOL0     H 2904   4.831  10.261   5.884 -0.2881 -1.8111 -0.1287
  780MOL0     H 2905   4.634  10.233   5.657  1.7666  0.0302 -2.4454
  780MOL0     H 2906   4.656  10.094   5.762 -1.9811  0.1113 -1.2491
  780MOL0     H 2907   4.779  10.073   5.576 -3.8399  4.0734 -0.2514
  780MOL0     H 2908   4.872  10.049   5.723 -0.2972  0.3925  0.7976
  780MOL0     H 2909   4.894  10.316   5.578 -1.9557  1.0689  2.0537
  780MOL0     H 2910   5.001  10.256   5.708  0.1465 -3.4293  2.4388
  780MOL0     H 2911   5.106  10.238   5.489  0.5765 -1.2544 -1.2862
  780MOL0     H 2912   4.996  10.122   5.437  1.3903 -1.0641 -0.3097
  780MOL0     H 2913   5.259  10.218   5.720 -1.4556  1.2718 -0.6523
  780MOL0     H 2914   5.491  10.063   5.807  0.9336 -0.4787 -0.8426
  780MOL0     H 2915   5.451   9.891   5.811 -0.6486  0.2801  3.2407
  780MOL0     H 2916   5.435   9.972   6.044 -1.7462  2.4969  2.6933
  780MOL0     H 2917   5.301   9.892   5.983  4.1514 -2.0424  2.8242
  780MOL0     H 2918   5.279  10.124   6.111 -1.6805  0.5680 -0.3548
  780MOL0     H 2919   5.301  10.191   5.947  2.1284 -0.9837 -0.7866
  780MOL0     H 2920   5.078  10.085   5.899 -0.3600 -0.3656  0.0107
  780MOL0     H 2921   5.085  10.175   6.055  1.3578 -1.6865  1.9718
  780MOL0     H 2922   5.062   9.771   5.906 -0.3165  3.4067 -3.8116
  780MOL0     H 2923   4.855   9.690   5.814 -0.1146  0.9632 -0.9733
  780MOL0     H 2924   4.648   9.543   5.578  1.5516 -1.6106  1.1056
  780MOL0     H 2925   4.497   9.358   5.511 -2.5318 -0.8778 -0.5949
  780MOL0     H 2926   4.154   9.464   5.475 -2.0866  0.4802 -1.4628
  780MOL0     H 2927   4.073   9.407   5.622  0.1543  0.2540 -1.1378
  780MOL0     H 2928   3.962   9.307   5.415 -1.3797 -3.6227 -0.4195
  780MOL0     H 2929   4.054   9.175   5.483 -4.6919 -0.6641 -2.8782
  780MOL0     H 2930   4.231   9.195   5.331 -0.7094 -2.2748 -0.1451
  780MOL0     H 2931   4.161   9.347   5.269  0.1601  0.5848  0.9174
  780MOL0     H 2932   4.047   9.058   5.232  0.7351  0.3265  0.5201
  780MOL0     H 2933   3.948   9.197   5.207 -0.0340  0.4398 -0.7562
  780MOL0     H 2934   4.104   9.289   5.044 -0.3236 -0.6697 -5.7856
  780MOL0     H 2935   4.056   9.126   4.995 -0.5427  1.3174 -0.7266
  780MOL0     H 2936   4.272   9.030   5.124  0.5216 -1.3462 -0.5718
  780MOL0     H 2937   4.321   9.202   5.104  0.4655  0.3570 -1.3656
  780MOL0     H 2938   4.220   9.016   4.877 -0.6689 -0.0182  1.5583
  780MOL0     H 2939   4.287   9.180   4.864 -0.1869  1.6087  1.1240
  780MOL0     H 2940   4.457   8.939   4.966  3.4536  0.0662 -1.1663
  780MOL0     H 2941   4.507   9.107   4.960  0.8804  0.9130 -0.8545
  780MOL0     H 2942   4.200   9.499   5.787 -1.0106  0.4934 -0.8990
  780MOL0     H 2943   4.347   9.660   5.861 -0.3705  2.1526 -1.7880
  780MOL0     H 2944   4.629   9.985   6.037  0.3021  2.6497 -1.9748
  780MOL0     H 2945   4.847  10.073   6.118 -0.4747  0.3670 -0.8479
  780MOL0     H 2946   4.218  10.424   6.052  3.9858  1.3419 -1.0618
  780MOL0     H 2947   4.012  10.493   6.197 -0.3067 -3.6201  1.0619
  780MOL0     H 2948   3.777  10.627   6.474  2.2324 -0.6321  0.2855
  780MOL0     H 2949   3.549  10.619   6.584  0.1762  0.1132  0.7493
  780MOL0     H 2950   3.293  10.555   6.821  0.4957 -1.9016 -0.3765
  780MOL0     H 2951   3.368  10.575   6.664 -0.1170 -0.6667  0.5438
  780MOL0     H 2952   3.543  10.718   6.821  0.2489 -0.5844  1.1714
  780MOL0     H 2953   3.380  10.793   6.780 -2.6781  0.6553  3.4844
  780MOL0     H 2954   3.461  10.793   7.014 -1.0312  0.4428  1.5092
  780MOL0     H 2955   3.389  10.621   7.028 -0.0543 -1.1267 -2.8803
  780MOL0     H 2956   3.264  10.859   7.077  1.3220 -0.2418 -0.4337
  780MOL0     H 2957   3.244  10.856   6.905  2.5315 -0.5340 -1.5458
  780MOL0     H 2958   2.957  10.563   6.995  0.6702  0.0362 -0.1030
  780MOL0     H 2959   3.693  10.310   6.845 -1.0072  1.5980  0.4791
  780MOL0     H 2960   3.887  10.294   6.723 -3.9543 -2.0621  0.8839
  781MOL0     O 2961   0.513   5.058  10.889  0.3316 -0.2339 -0.2768
  781MOL0     C 2962   0.621   5.038  10.943  1.1179  0.1062  0.4772
  781MOL0     O 2963   0.704   4.936  10.899 -1.0127  1.1768 -0.6202
  781MOL0     C 2964   0.660   4.816  10.842 -0.4432  0.2571  0.5490
  781MOL0     C 2965   0.754   4.745  10.769  0.0257  0.7324  1.0722
  781MOL0     C 2966   0.720   4.632  10.700  1.5564 -0.1329  0.7354
  781MOL0     C 2967   0.589   4.575  10.719 -0.3274  0.2124 -0.0223
  781MOL0     O 2968   0.524   4.468  10.653  0.8504  0.1506  0.0995
  781MOL0     C 2969   0.598   4.379  10.570  0.9830  0.1852 -0.1352
  781MOL0     C 2970   0.699   4.303  10.658 -0.5014  0.6518  0.0394
  781MOL0     C 2971   0.820   4.232  10.589 -0.4604  0.3388 -0.1886
  781MOL0     C 2972   0.906   4.154  10.691  0.6452  0.0722 -0.1837
  781MOL0     C 2973   1.020   4.068  10.630 -0.0296 -0.3467 -0.0746
  781MOL0     C 2974   1.058   3.950  10.722 -0.7527 -0.2956 -0.2442
  781MOL0     C 2975   1.104   3.998  10.865  0.4519 -0.6335  1.5489
  781MOL0     C 2976   1.224   4.097  10.878 -0.2364  0.2905  0.4033
  781MOL0     N 2977   1.359   4.037  10.865 -0.5395  0.1936  0.1815
  781MOL0     C 2978   1.439   4.017  10.966 -0.3118  0.3250 -0.6864
  781MOL0     C 2979   1.554   3.969  10.903  0.4359 -0.0251 -0.0503
  781MOL0     C 2980   1.691   3.969  10.962 -1.0978  0.1636 -1.1339
  781MOL0     C 2981   1.734   4.114  10.979  0.3718  0.0309 -0.0942
  781MOL0     C 2982   1.888   4.131  11.022 -0.2537 -0.5494  0.4112
  781MOL0     C 2983   1.921   4.250  11.105  0.1052 -0.4775 -0.1555
  781MOL0     O 2984   1.851   4.231  11.230 -0.1497  0.3453  0.7188
  781MOL0     C 2985   1.878   4.312  11.333 -0.1595 -0.3293 -0.0465
  781MOL0     C 2986   1.938   4.441  11.315 -0.1187  1.1583 -0.6624
  781MOL0     C 2987   1.945   4.520  11.427 -1.0310 -0.7432  0.5305
  781MOL0     C 2988   1.906   4.478  11.556 -0.0559  0.1939  0.0783
  781MOL0     C 2989   1.895   4.565  11.668  0.0716  0.2199 -0.2522
  781MOL0     O 2990   1.838   4.518  11.784  0.0466 -0.1059  0.4370
  781MOL0     C 2991   1.870   4.568  11.911  0.0281 -0.9689  0.0828
  781MOL0     C 2992   1.767   4.588  12.008  0.2427  0.6772  1.1859
  781MOL0     C 2993   1.793   4.620  12.141  0.2510  0.1751  0.7280
  781MOL0     C 2994   1.921   4.649  12.180 -0.3386 -0.5936 -0.2276
  781MOL0     O 2995   1.958   4.702  12.304  0.4807  0.1443 -0.4414
  781MOL0     C 2996   1.858   4.773  12.370  1.1869  0.1110  0.1338
  781MOL0     C 2997   1.881   4.779  12.527  0.4889 -1.2792 -0.2503
  781MOL0     C 2998   1.824   4.652  12.587  0.8366 -0.5176 -0.3902
  781MOL0     C 2999   1.935   4.543  12.607  0.6174  0.5312  0.2476
  781MOL0     C 3000   1.891   4.408  12.656  0.6269  0.4062 -0.1659
  781MOL0     C 3001   1.784   4.409  12.769  0.0726  0.4047  0.0357
  781MOL0     C 3002   1.794   4.286  12.858 -0.0681  0.8820  0.1526
  781MOL0     C 3003   1.663   4.245  12.941 -0.2528 -0.1691  0.3202
  781MOL0    Cl 3004   1.625   4.349  13.083  0.2008 -0.1396 -0.0810
  781MOL0     C 3005   2.025   4.639  12.082  0.0469  0.7816  0.0787
  781MOL0     C 3006   2.003   4.594  11.950  0.9457  0.9983  0.6200
  781MOL0     O 3007   1.960   4.670  11.659 -0.5127 -0.2186 -0.9337
  781MOL0     C 3008   1.869   4.342  11.570 -0.7212  1.1627 -0.0756
  781MOL0     C 3009   1.853   4.258  11.463  1.1738 -0.4407 -0.3293
  781MOL0     N 3010   1.539   3.955  10.771  0.1290 -0.5011 -0.3440
  781MOL0     N 3011   1.415   3.985  10.747 -0.1979  0.0690 -0.5190
  781MOL0     C 3012   0.503   4.651  10.801  0.4027  0.3255 -0.5255
  781MOL0     C 3013   0.534   4.764  10.856 -0.5447 -0.7203 -0.8771
  781MOL0     C 3014   0.672   5.112  11.055  1.3598 -0.2538 -1.3099
  781MOL0     C 3015   0.591   5.220  11.109 -0.1353 -0.2966 -1.1583
  781MOL0     C 3016   0.647   5.300  11.211  0.8844 -0.5374  0.6031
  781MOL0     C 3017   0.777   5.283  11.256 -0.1787 -0.3574 -1.4867
  781MOL0     O 3018   0.845   5.347  11.353 -0.8337 -0.1536 -0.1070
  781MOL0     C 3019   0.769   5.409  11.458 -0.1711  0.4634  0.5203
  781MOL0     C 3020   0.763   5.555  11.432 -0.2028 -0.7316  0.6865
  781MOL0     C 3021   0.885   5.630  11.480 -0.2530 -0.4334 -0.0544
  781MOL0     C 3022   0.862   5.783  11.437 -0.9507  0.1073  0.2111
  781MOL0     C 3023   0.962   5.866  11.506 -0.3011  0.2238 -0.4484
  781MOL0     C 3024   1.034   5.948  11.558  0.2625 -0.1053  0.9416
  781MOL0     C 3025   0.847   5.179  11.200  0.0892 -0.4310 -1.1251
  781MOL0     C 3026   0.808   5.096  11.104 -0.0509 -0.0530  0.1376
  781MOL0     H 3027   0.838   4.812  10.751 -3.0914  4.4087 -1.5270
  781MOL0     H 3028   0.783   4.588  10.623 -1.1091  1.6173 -2.7431
  781MOL0     H 3029   0.658   4.439  10.500  1.4473 -0.3985 -0.2444
  781MOL0     H 3030   0.531   4.311  10.516 -2.1185  1.3501  1.9478
  781MOL0     H 3031   0.639   4.223  10.704 -0.9298  0.9498  0.0018
  781MOL0     H 3032   0.742   4.356  10.743 -1.6931  1.5607  0.0942
  781MOL0     H 3033   0.890   4.298  10.536 -2.1957  2.7532  0.3401
  781MOL0     H 3034   0.776   4.151  10.531 -1.8122 -1.4536  3.1226
  781MOL0     H 3035   0.961   4.232  10.745  2.4592 -2.6581  2.1845
  781MOL0     H 3036   0.840   4.101  10.761  0.2617  0.3229 -0.3511
  781MOL0     H 3037   1.104   4.137  10.623  0.2814 -0.3954  2.2146
  781MOL0     H 3038   0.988   4.035  10.531  0.7743  1.9226 -1.1504
  781MOL0     H 3039   1.141   3.895  10.678 -3.6474 -2.8522 -3.0827
  781MOL0     H 3040   0.975   3.878  10.727 -0.4853 -0.5203  3.2453
  781MOL0     H 3041   1.023   4.054  10.912  0.2009 -0.8867  1.4251
  781MOL0     H 3042   1.117   3.910  10.930 -0.3736 -0.8841  1.3872
  781MOL0     H 3043   1.218   4.146  10.976  1.0325  0.2220  0.5336
  781MOL0     H 3044   1.216   4.166  10.793  0.0451 -4.1366 -3.6499
  781MOL0     H 3045   1.429   4.049  11.069  0.0404 -2.1635  0.1789
  781MOL0     H 3046   1.763   3.912  10.903  0.2471  0.0691  0.5121
  781MOL0     H 3047   1.686   3.926  11.063 -0.8543  3.9766  0.7031
  781MOL0     H 3048   1.672   4.167  11.051 -1.2993 -0.9783 -0.7429
  781MOL0     H 3049   1.731   4.178  10.891 -0.4350 -0.0138 -0.1037
  781MOL0     H 3050   1.899   4.045  11.089 -1.5480 -0.3587  0.9037
  781MOL0     H 3051   1.952   4.132  10.934 -0.1140  0.2610  0.5163
  781MOL0     H 3052   1.891   4.335  11.043  2.2773  0.9360  0.5840
  781MOL0     H 3053   2.030   4.250  11.118  0.1402  2.0634  0.0271
  781MOL0     H 3054   1.968   4.466  11.213 -1.0835 -3.5801 -2.3777
  781MOL0     H 3055   1.975   4.624  11.427 -0.0100 -1.0152  0.1558
  781MOL0     H 3056   1.667   4.549  11.989 -1.0981  3.2294  2.4069
  781MOL0     H 3057   1.708   4.610  12.209 -0.5938 -1.8259 -0.5174
  781MOL0     H 3058   1.757   4.740  12.346  1.8265 -0.4343 -2.0209
  781MOL0     H 3059   1.880   4.874  12.333 -0.1197 -0.3888 -2.1589
  781MOL0     H 3060   1.823   4.865  12.564 -0.4280 -0.2307 -3.6651
  781MOL0     H 3061   1.982   4.796  12.566 -0.3821  1.4726  1.1201
  781MOL0     H 3062   1.734   4.617  12.536 -0.3452 -1.1956  2.0035
  781MOL0     H 3063   1.790   4.679  12.687 -0.4207  0.2333 -1.0037
  781MOL0     H 3064   1.993   4.524  12.516 -0.8040 -2.3682 -0.1595
  781MOL0     H 3065   2.004   4.583  12.682 -0.3589  1.8230  0.4961
  781MOL0     H 3066   1.985   4.364  12.691  0.1689 -0.4158  0.0551
  781MOL0     H 3067   1.841   4.348  12.580 -2.8309  0.5026  1.8496
  781MOL0     H 3068   1.690   4.417  12.714  1.0119  1.4624 -1.4763
  781MOL0     H 3069   1.784   4.494  12.838 -3.0110 -0.4943  1.3337
  781MOL0     H 3070   1.820   4.201  12.794  1.5439  1.1576  0.3959
  781MOL0     H 3071   1.880   4.303  12.923  0.4994  0.8646 -0.5733
  781MOL0     H 3072   1.666   4.142  12.978  0.8277 -0.2692  0.0100
  781MOL0     H 3073   1.573   4.250  12.880 -1.1471 -1.7995  1.4288
  781MOL0     H 3074   2.124   4.673  12.113  0.3554 -1.5742  2.0106
  781MOL0     H 3075   2.085   4.588  11.878  2.3837  0.0627  2.2522
  781MOL0     H 3076   1.843   4.300  11.667 -1.1850 -0.3443 -0.8292
  781MOL0     H 3077   1.822   4.156  11.483  0.2742  0.0425  0.8808
  781MOL0     H 3078   0.407   4.605  10.824 -0.7112  0.2187 -4.5571
  781MOL0     H 3079   0.452   4.819  10.901 -2.3513 -3.4152 -0.6647
  781MOL0     H 3080   0.488   5.235  11.080 -2.1271  0.4056  4.8701
  781MOL0     H 3081   0.586   5.382  11.249  0.6986  0.5888 -1.9176
  781MOL0     H 3082   0.802   5.393  11.561 -2.1737 -2.1864  0.8680
  781MOL0     H 3083   0.662   5.387  11.450 -0.3131  1.7624 -2.5399
  781MOL0     H 3084   0.760   5.572  11.324  0.7929 -0.5839  0.6682
  781MOL0     H 3085   0.668   5.590  11.474  0.7294 -4.5626  7.4587
  781MOL0     H 3086   0.972   5.600  11.422  0.1097 -0.2160  0.3718
  781MOL0     H 3087   0.920   5.619  11.583  1.6763 -1.3554 -0.7608
  781MOL0     H 3088   0.881   5.792  11.329 -1.1858  0.9816  0.2405
  781MOL0     H 3089   0.765   5.830  11.454 -0.6819  0.3118  1.2320
  781MOL0     H 3090   1.118   6.000  11.600  3.3025 -0.7357 -3.6109
  781MOL0     H 3091   0.946   5.157  11.240 -0.2012 -1.7715 -1.0926
  781MOL0     H 3092   0.869   5.012  11.073 -0.3261  0.9587 -3.7174
  782MOL0     O 3093   2.129   0.681   2.126 -0.0629  0.6610  0.1312
  782MOL0     C 3094   2.168   0.785   2.075  0.2752  0.5530 -1.0754
  782MOL0     O 3095   2.294   0.828   2.075 -0.2733 -0.9088  0.1783
  782MOL0     C 3096   2.385   0.779   2.156  0.4500  0.7920 -0.1916
  782MOL0     C 3097   2.513   0.761   2.109  0.7532 -0.7005 -0.2531
  782MOL0     C 3098   2.616   0.712   2.193  0.5073  0.5088 -1.5059
  782MOL0     C 3099   2.596   0.686   2.320 -1.0234  0.7700 -0.5912
  782MOL0     O 3100   2.697   0.639   2.396  0.4008  0.4887  0.0444
  782MOL0     C 3101   2.803   0.720   2.420 -0.8329 -0.7787 -0.1328
  782MOL0     C 3102   2.892   0.657   2.530 -0.2850  0.2250  0.3456
  782MOL0     C 3103   2.822   0.591   2.648  0.7714 -0.4342 -0.0823
  782MOL0     C 3104   2.909   0.513   2.729 -0.7089  0.7491  0.4064
  782MOL0     C 3105   2.847   0.438   2.847 -0.4953 -0.3391  0.5379
  782MOL0     C 3106   2.956   0.412   2.957  0.6363  0.5001  0.3103
  782MOL0     C 3107   2.903   0.314   3.058  0.3336  0.7362  0.5143
  782MOL0     C 3108   3.015   0.308   3.173 -0.2698  1.3101 -0.8495
  782MOL0     N 3109   2.984   0.217   3.289  0.5280  0.9914  0.5664
  782MOL0     C 3110   3.020   0.084   3.282 -0.6540 -0.2480 -0.2572
  782MOL0     C 3111   2.955   0.031   3.390 -0.3044  1.3545  0.5008
  782MOL0     C 3112   2.949  -0.119   3.419  0.4238 -1.6339 -0.0581
  782MOL0     C 3113   3.089  -0.194   3.418 -0.1578  0.5933 -0.5692
  782MOL0     C 3114   3.057  -0.342   3.386 -0.8190 -1.3359  0.1655
  782MOL0     C 3115   3.000  -0.416   3.506 -0.9347 -1.3236 -0.6872
  782MOL0     O 3116   3.114  -0.466   3.582 -0.4918 -0.7306 -0.4088
  782MOL0     C 3117   3.092  -0.557   3.679 -0.3424  0.8498  0.0172
  782MOL0     C 3118   3.205  -0.589   3.762 -0.8415  1.3715 -0.4724
  782MOL0     C 3119   3.195  -0.685   3.858  1.3769 -0.2201 -0.2998
  782MOL0     C 3120   3.068  -0.738   3.887  0.3472 -0.3284 -0.2347
  782MOL0     C 3121   3.057  -0.838   4.002 -0.0108  0.4304  0.5493
  782MOL0     O 3122   2.932  -0.889   4.027  0.5633  0.2223  0.2705
  782MOL0     C 3123   2.913  -0.984   4.122 -0.7712  0.1676 -0.6697
  782MOL0     C 3124   3.009  -1.078   4.161 -0.1434  0.5333 -0.1548
  782MOL0     C 3125   2.973  -1.173   4.258 -0.8727 -0.1379 -0.4344
  782MOL0     C 3126   2.842  -1.172   4.322  1.1973  0.0430  0.0469
  782MOL0     O 3127   2.821  -1.263   4.419  0.6457  0.1041  0.9782
  782MOL0     C 3128   2.687  -1.275   4.484  0.3696  0.6024 -1.5225
  782MOL0     C 3129   2.701  -1.374   4.611  0.0634 -0.2357  1.1891
  782MOL0     C 3130   2.710  -1.513   4.546  0.2491 -0.1665  0.8427
  782MOL0     C 3131   2.695  -1.625   4.653 -0.0782 -0.6200  0.4959
  782MOL0     C 3132   2.743  -1.767   4.602 -0.2787  0.3935 -0.1353
  782MOL0     C 3133   2.727  -1.876   4.721  0.2278  0.0319 -0.5274
  782MOL0     C 3134   2.805  -2.005   4.691  0.1175 -0.3000 -0.2512
  782MOL0     C 3135   2.802  -2.102   4.811  0.2189 -0.3554 -0.2533
  782MOL0    Cl 3136   2.823  -2.265   4.745 -0.4373 -0.0315 -0.0474
  782MOL0     C 3137   2.755  -1.070   4.288  0.4397 -0.2448  0.1713
  782MOL0     C 3138   2.783  -0.979   4.193 -0.5578  0.2382 -0.6583
  782MOL0     O 3139   3.152  -0.846   4.079 -0.2326 -0.1136  0.4750
  782MOL0     C 3140   2.951  -0.694   3.820  0.3930 -0.2318  0.0492
  782MOL0     C 3141   2.965  -0.600   3.715  0.2489 -0.1539  0.4639
  782MOL0     N 3142   2.887   0.132   3.456 -0.0533  0.2997 -0.6126
  782MOL0     N 3143   2.899   0.238   3.394 -0.4166 -0.1663 -0.9350
  782MOL0     C 3144   2.467   0.705   2.369 -0.0943 -0.4948 -0.2298
  782MOL0     C 3145   2.358   0.751   2.288  0.0860  0.7781 -0.0983
  782MOL0     C 3146   2.064   0.856   1.991 -0.2149 -0.4591  0.3804
  782MOL0     C 3147   2.098   0.964   1.911 -0.2369 -0.4171  0.3080
  782MOL0     C 3148   2.001   1.026   1.828 -0.5618  0.6591  0.1355
  782MOL0     C 3149   1.868   0.987   1.826  0.5546 -0.4457 -0.4826
  782MOL0     O 3150   1.755   1.034   1.753 -0.4735  0.3184 -0.4589
  782MOL0     C 3151   1.794   1.132   1.652 -0.5181 -0.3163  0.1535
  782MOL0     C 3152   1.661   1.184   1.582  0.0649 -0.6114  0.0637
  782MOL0     C 3153   1.580   1.062   1.523  0.1788 -0.2721 -0.2404
  782MOL0     C 3154   1.461   1.011   1.607 -0.9412  0.0321  0.6436
  782MOL0     C 3155   1.408   0.886   1.544 -0.1272  0.0384  0.3430
  782MOL0     C 3156   1.363   0.807   1.467  0.0714 -0.2906  0.5318
  782MOL0     C 3157   1.835   0.899   1.919 -1.0912  0.3483  0.5880
  782MOL0     C 3158   1.930   0.830   1.996 -0.0933  0.5627 -0.1165
  782MOL0     H 3159   2.532   0.791   2.006  1.3007  2.7893  0.7367
  782MOL0     H 3160   2.711   0.710   2.139  0.3705  2.7468 -1.9083
  782MOL0     H 3161   2.758   0.812   2.459  0.2705  0.3817 -1.4636
  782MOL0     H 3162   2.857   0.753   2.331 -2.0643 -2.0401 -1.3853
  782MOL0     H 3163   2.947   0.746   2.562 -0.3688  0.0420  1.0103
  782MOL0     H 3164   2.962   0.591   2.478  1.3818  3.2308 -1.5043
  782MOL0     H 3165   2.738   0.528   2.618  0.6480  0.9702 -3.0849
  782MOL0     H 3166   2.788   0.673   2.712 -0.5702 -0.8321 -0.2617
  782MOL0     H 3167   2.967   0.440   2.672 -1.9285 -0.9849  1.3130
  782MOL0     H 3168   2.974   0.574   2.793  1.1794 -2.7959  2.1951
  782MOL0     H 3169   2.811   0.338   2.818 -0.3967 -1.2397  3.2278
  782MOL0     H 3170   2.768   0.491   2.901 -2.1252 -2.3877  0.3220
  782MOL0     H 3171   2.967   0.508   3.009  1.6826  1.6869 -1.9465
  782MOL0     H 3172   3.049   0.376   2.910  0.1266  1.4369 -1.5312
  782MOL0     H 3173   2.813   0.364   3.092 -1.9385 -1.3592 -1.9886
  782MOL0     H 3174   2.876   0.213   3.026  1.1334  0.7027 -0.0930
  782MOL0     H 3175   3.041   0.406   3.211  1.9357  0.7929 -0.9299
  782MOL0     H 3176   3.096   0.254   3.123 -1.6885 -3.4198  1.3387
  782MOL0     H 3177   3.079   0.037   3.205  0.7494  2.7134 -1.1392
  782MOL0     H 3178   2.869  -0.159   3.355 -1.8889 -2.8991  3.3301
  782MOL0     H 3179   2.915  -0.122   3.523  0.4190  2.2548  0.2094
  782MOL0     H 3180   3.149  -0.180   3.508 -1.8514 -2.2125  1.1325
  782MOL0     H 3181   3.149  -0.151   3.337 -0.7863  2.1318 -0.2549
  782MOL0     H 3182   3.006  -0.348   3.290  2.2663  1.1539 -1.8228
  782MOL0     H 3183   3.152  -0.393   3.369  0.1709  0.1612  0.9618
  782MOL0     H 3184   2.940  -0.501   3.472 -0.9761 -1.7720  0.4541
  782MOL0     H 3185   2.941  -0.350   3.569 -2.2086 -0.2486 -2.9138
  782MOL0     H 3186   3.303  -0.559   3.728 -1.1960  0.3655 -2.5769
  782MOL0     H 3187   3.287  -0.728   3.896  1.2847 -2.9704 -2.8014
  782MOL0     H 3188   3.109  -1.094   4.124  0.8141  0.5635  2.2577
  782MOL0     H 3189   3.056  -1.234   4.292 -0.6955  0.9751  1.2246
  782MOL0     H 3190   2.616  -1.312   4.410  0.0990 -2.6772  0.2052
  782MOL0     H 3191   2.661  -1.174   4.517 -0.5385  0.0619 -0.4917
  782MOL0     H 3192   2.617  -1.364   4.681 -1.5535 -2.4095 -0.2878
  782MOL0     H 3193   2.796  -1.354   4.660  0.4747  1.6049 -0.2249
  782MOL0     H 3194   2.796  -1.520   4.478 -1.1083  0.4001 -1.0079
  782MOL0     H 3195   2.620  -1.522   4.485 -1.1989  1.8734  2.5476
  782MOL0     H 3196   2.752  -1.606   4.744  2.2502 -2.0466 -0.5711
  782MOL0     H 3197   2.590  -1.628   4.684 -0.7011  2.8266 -0.8841
  782MOL0     H 3198   2.842  -1.764   4.555 -0.7988 -0.9005 -1.3907
  782MOL0     H 3199   2.689  -1.809   4.517  2.1239 -2.0502 -0.5975
  782MOL0     H 3200   2.622  -1.907   4.726 -1.1487  4.2724  0.9094
  782MOL0     H 3201   2.758  -1.835   4.817 -1.3682  3.5902 -1.3491
  782MOL0     H 3202   2.763  -2.054   4.603  0.4361  0.9315 -1.1209
  782MOL0     H 3203   2.904  -1.976   4.654 -1.4762  1.4300 -3.5700
  782MOL0     H 3204   2.711  -2.093   4.871  0.7824  2.0060  0.3615
  782MOL0     H 3205   2.890  -2.077   4.871  1.0832 -2.2547 -0.6596
  782MOL0     H 3206   2.663  -1.066   4.346  1.9647  1.6740  2.6490
  782MOL0     H 3207   2.702  -0.916   4.158  1.6046  3.4973 -0.2295
  782MOL0     H 3208   2.851  -0.714   3.858  0.2474  1.3073  0.5715
  782MOL0     H 3209   2.879  -0.573   3.655  0.7232 -0.2465 -0.2763
  782MOL0     H 3210   2.458   0.675   2.473  0.0236  2.0919  0.5745
  782MOL0     H 3211   2.262   0.754   2.338  2.0400 -0.7262  4.3314
  782MOL0     H 3212   2.206   0.980   1.904 -0.1944  0.1874  1.8988
  782MOL0     H 3213   2.037   1.093   1.751  1.2227  1.0083  1.2096
  782MOL0     H 3214   1.862   1.087   1.579 -0.8946 -0.8968  0.1515
  782MOL0     H 3215   1.852   1.219   1.684  4.6839 -1.5512 -4.4132
  782MOL0     H 3216   1.604   1.236   1.659 -0.9905 -0.5115 -0.7585
  782MOL0     H 3217   1.686   1.242   1.493 -1.9986 -2.6361 -1.9958
  782MOL0     H 3218   1.653   0.981   1.520  1.6309  0.9047  1.3923
  782MOL0     H 3219   1.553   1.090   1.421  0.9605  1.3623 -0.0173
  782MOL0     H 3220   1.482   0.993   1.712 -4.1049  1.2700  1.5810
  782MOL0     H 3221   1.371   1.073   1.602 -1.0379 -0.1286  0.2810
  782MOL0     H 3222   1.345   0.744   1.383  0.5341  1.3762 -0.8695
  782MOL0     H 3223   1.728   0.882   1.920 -1.2479  0.6635 -2.3448
  782MOL0     H 3224   1.896   0.759   2.071  0.1412  2.7962  2.2763
  783MOL0     O 3225   2.623   4.857   0.695 -0.2539 -0.3831 -0.5343
  783MOL0     C 3226   2.576   4.898   0.585 -0.2217 -0.3092 -0.2289
  783MOL0     O 3227   2.640   4.873   0.461 -0.7729 -0.5038 -0.7385
  783MOL0     C 3228   2.757   4.800   0.469  0.6020 -0.3257  0.1596
  783MOL0     C 3229   2.759   4.657   0.473  0.0196  0.7194  0.5440
  783MOL0     C 3230   2.880   4.583   0.478  0.0074  0.1105 -1.0531
  783MOL0     C 3231   2.997   4.651   0.501  0.3084  0.6614 -0.0902
  783MOL0     O 3232   3.127   4.598   0.495  0.9768 -0.8126  0.1580
  783MOL0     C 3233   3.133   4.459   0.540 -0.0883 -0.3290 -0.0019
  783MOL0     C 3234   3.217   4.377   0.441  0.4626 -0.1051 -0.8223
  783MOL0     C 3235   3.151   4.368   0.304 -0.6879  0.1464  1.2973
  783MOL0     C 3236   3.212   4.273   0.194  0.3272 -0.1720  0.4915
  783MOL0     C 3237   3.257   4.141   0.255 -0.1741  0.9373  0.1272
  783MOL0     C 3238   3.140   4.051   0.304  0.2540  0.9606 -0.5525
  783MOL0     C 3239   3.205   3.930   0.372 -0.1338  0.1377  0.5214
  783MOL0     C 3240   3.098   3.843   0.441 -0.3716  0.9018 -0.5281
  783MOL0     N 3241   3.067   3.886   0.580  0.7357  0.1077 -0.5211
  783MOL0     C 3242   2.980   3.981   0.617 -0.2057  0.2008 -1.0270
  783MOL0     C 3243   3.005   3.994   0.758  0.8366 -0.5433 -0.0354
  783MOL0     C 3244   2.954   4.101   0.859 -0.0166 -1.3323  0.0222
  783MOL0     C 3245   2.815   4.068   0.926 -0.4630  0.0881  0.0216
  783MOL0     C 3246   2.828   3.963   1.040 -0.2004 -0.8462  0.5709
  783MOL0     C 3247   2.840   4.022   1.179  0.6094 -0.1828 -0.8591
  783MOL0     O 3248   2.710   4.066   1.219  0.5629 -0.2271 -0.5805
  783MOL0     C 3249   2.715   4.176   1.301  0.4652 -0.3482 -0.1532
  783MOL0     C 3250   2.631   4.281   1.263 -0.2372  0.2469  0.2709
  783MOL0     C 3251   2.625   4.405   1.325 -0.2417 -0.0482 -0.4029
  783MOL0     C 3252   2.707   4.419   1.437 -0.5003  1.0087  0.4860
  783MOL0     C 3253   2.730   4.556   1.489 -0.5562 -0.0276  0.4272
  783MOL0     O 3254   2.682   4.663   1.416  1.1019  0.1339 -0.0362
  783MOL0     C 3255   2.676   4.791   1.475 -0.6885 -0.6947 -0.2318
  783MOL0     C 3256   2.595   4.807   1.581 -0.0189 -1.0359 -0.5303
  783MOL0     C 3257   2.586   4.931   1.647  0.3100  0.4355 -0.1899
  783MOL0     C 3258   2.674   5.031   1.603 -0.8237 -0.4412  0.0831
  783MOL0     O 3259   2.666   5.156   1.663 -0.6666 -0.7401 -0.2600
  783MOL0     C 3260   2.551   5.234   1.612  0.9941 -0.2316 -0.6794
  783MOL0     C 3261   2.593   5.349   1.534  0.5144 -0.9318 -0.0317
  783MOL0     C 3262   2.680   5.331   1.408 -0.1747  1.1028 -0.2427
  783MOL0     C 3263   2.609   5.252   1.301  0.6496 -1.0960 -0.4700
  783MOL0     C 3264   2.676   5.260   1.169  0.3368 -0.4486  0.4674
  783MOL0     C 3265   2.813   5.190   1.155 -0.7826 -0.5105  0.1598
  783MOL0     C 3266   2.800   5.042   1.116 -0.3146  0.4135  0.9934
  783MOL0     C 3267   2.948   4.983   1.107  0.7683 -1.1823 -0.3429
  783MOL0    Cl 3268   2.935   4.856   0.977  0.1600  0.3452 -0.4850
  783MOL0     C 3269   2.771   5.007   1.504  0.2141 -0.7222  0.3655
  783MOL0     C 3270   2.759   4.890   1.438  0.7090 -0.0686 -0.5832
  783MOL0     O 3271   2.802   4.578   1.586 -0.5899  0.3084 -0.5609
  783MOL0     C 3272   2.791   4.305   1.477  0.0071  0.0168  0.4592
  783MOL0     C 3273   2.794   4.189   1.407 -0.8052  0.3063  0.3915
  783MOL0     N 3274   3.116   3.911   0.797 -0.1525  0.1335 -0.0978
  783MOL0     N 3275   3.146   3.851   0.685 -0.6505 -0.2278  0.0506
  783MOL0     C 3276   2.995   4.795   0.499  0.0230  0.4994 -0.8115
  783MOL0     C 3277   2.880   4.867   0.485  0.1106  0.0420  0.9785
  783MOL0     C 3278   2.433   4.940   0.580 -0.6422 -0.4976  1.0845
  783MOL0     C 3279   2.384   4.958   0.452 -0.1276  0.8444 -0.5288
  783MOL0     C 3280   2.262   5.020   0.440  0.0585  0.6417  1.0590
  783MOL0     C 3281   2.177   5.038   0.546 -0.0949 -0.5231  0.5404
  783MOL0     O 3282   2.048   5.084   0.527  0.1291 -0.0920 -0.4793
  783MOL0     C 3283   1.940   5.026   0.603  0.2491 -0.3215  0.6042
  783MOL0     C 3284   1.879   5.141   0.687 -0.1195 -0.9255  0.0027
  783MOL0     C 3285   1.963   5.198   0.802 -0.1293  1.0117  1.3424
  783MOL0     C 3286   1.898   5.300   0.890  0.3476 -0.4246 -0.1258
  783MOL0     C 3287   1.992   5.354   0.987 -0.3248  0.8953 -1.4665
  783MOL0     C 3288   2.066   5.404   1.072  0.2745  0.2619 -0.3638
  783MOL0     C 3289   2.222   5.009   0.680  0.9007  0.1537  0.3557
  783MOL0     C 3290   2.353   4.966   0.688 -0.6284 -0.2942 -1.0134
  783MOL0     H 3291   2.663   4.618   0.438  0.9045 -0.8098 -0.3216
  783MOL0     H 3292   2.872   4.477   0.457  3.3715  0.0495 -2.8168
  783MOL0     H 3293   3.041   4.408   0.570  1.6881 -1.9328  3.3461
  783MOL0     H 3294   3.191   4.458   0.633  0.3945  0.4138 -0.2820
  783MOL0     H 3295   3.239   4.278   0.482  0.7056 -0.2302 -1.2437
  783MOL0     H 3296   3.317   4.421   0.440 -0.5248  2.3932  0.6638
  783MOL0     H 3297   3.148   4.468   0.259  1.8015  0.0174  0.6945
  783MOL0     H 3298   3.048   4.333   0.314  0.0703 -2.9945 -0.5032
  783MOL0     H 3299   3.152   4.276   0.102  0.8108  4.1653  0.1220
  783MOL0     H 3300   3.302   4.328   0.164 -0.2942  2.0420  2.4512
  783MOL0     H 3301   3.329   4.160   0.335  0.3360  2.1355 -0.5831
  783MOL0     H 3302   3.317   4.086   0.182  2.5582 -1.0360  3.5582
  783MOL0     H 3303   3.073   4.029   0.221 -0.1465  1.5513 -0.3955
  783MOL0     H 3304   3.093   4.092   0.395  1.8850  0.7321  0.4365
  783MOL0     H 3305   3.266   3.866   0.307 -0.3918  2.2196 -1.9270
  783MOL0     H 3306   3.275   3.964   0.448  0.8199 -1.8483  0.6123
  783MOL0     H 3307   3.143   3.746   0.461 -0.1877  1.1279  0.2096
  783MOL0     H 3308   3.008   3.835   0.379 -0.8443 -3.7025  0.4565
  783MOL0     H 3309   2.905   4.029   0.555  1.2323  0.9866 -2.2164
  783MOL0     H 3310   2.955   4.189   0.795  2.9902 -0.1300  1.5296
  783MOL0     H 3311   3.032   4.109   0.935  0.4161 -2.2147 -0.3084
  783MOL0     H 3312   2.755   4.017   0.851  1.3444 -0.7138 -0.9477
  783MOL0     H 3313   2.768   4.161   0.961  0.2260  0.2211  0.6213
  783MOL0     H 3314   2.738   3.901   1.045  0.6136 -2.1889 -0.5971
  783MOL0     H 3315   2.918   3.903   1.028  0.1182 -0.1511 -0.6928
  783MOL0     H 3316   2.912   4.103   1.188 -1.8386  2.0991 -0.5962
  783MOL0     H 3317   2.874   3.936   1.238 -2.2574 -2.4231 -2.2180
  783MOL0     H 3318   2.576   4.256   1.173  1.0670 -2.8091  0.2136
  783MOL0     H 3319   2.561   4.489   1.298  1.2501  0.9644 -0.9076
  783MOL0     H 3320   2.539   4.719   1.611 -0.0003 -1.5447 -1.8765
  783MOL0     H 3321   2.538   4.940   1.743 -0.9101 -4.0755 -0.1310
  783MOL0     H 3322   2.487   5.263   1.696 -1.3683  1.3297 -2.8324
  783MOL0     H 3323   2.471   5.180   1.560 -3.6819 -0.4120  5.5917
  783MOL0     H 3324   2.657   5.412   1.596  0.1764 -0.4183 -0.1938
  783MOL0     H 3325   2.502   5.406   1.513 -3.2701 -5.5152  2.2148
  783MOL0     H 3326   2.775   5.281   1.427 -1.1122  0.0708  2.1462
  783MOL0     H 3327   2.688   5.436   1.377 -1.3644  1.2220 -0.1968
  783MOL0     H 3328   2.606   5.147   1.332  2.5379 -0.6025  1.6657
  783MOL0     H 3329   2.504   5.283   1.289  0.4307 -0.0179  2.9936
  783MOL0     H 3330   2.687   5.367   1.148 -1.0345 -0.7888 -2.4733
  783MOL0     H 3331   2.609   5.227   1.089  0.1402  2.4116 -0.6445
  783MOL0     H 3332   2.867   5.187   1.250 -1.7073 -0.5244  0.6962
  783MOL0     H 3333   2.882   5.245   1.090 -1.5035  0.1785 -0.0447
  783MOL0     H 3334   2.729   4.994   1.183  0.1373  1.2325  2.0874
  783MOL0     H 3335   2.768   5.050   1.011  0.9797  4.5570  0.7059
  783MOL0     H 3336   2.963   4.936   1.204 -0.8869 -0.8761  0.0996
  783MOL0     H 3337   3.025   5.056   1.081 -0.8571 -0.6328 -4.4214
  783MOL0     H 3338   2.848   5.076   1.468 -0.5580  1.1608  2.1086
  783MOL0     H 3339   2.811   4.848   1.353  0.5112 -0.6025 -0.4433
  783MOL0     H 3340   2.851   4.321   1.566  1.1136 -3.3333  0.4419
  783MOL0     H 3341   2.860   4.106   1.430 -1.3195 -0.9790 -2.3332
  783MOL0     H 3342   3.090   4.847   0.508 -0.5314  1.4369 -0.1180
  783MOL0     H 3343   2.874   4.975   0.485 -3.0727  0.1201 -3.0936
  783MOL0     H 3344   2.435   4.928   0.361 -0.1437 -2.5896  0.4753
  783MOL0     H 3345   2.233   5.034   0.337 -3.3317 -1.3380  1.5732
  783MOL0     H 3346   1.973   4.945   0.667  3.0993 -0.4896 -0.9322
  783MOL0     H 3347   1.866   5.004   0.526  0.2030 -1.6823  1.0208
  783MOL0     H 3348   1.865   5.223   0.616 -1.2172 -0.8525  0.2881
  783MOL0     H 3349   1.796   5.096   0.742  0.8487 -2.2346  0.4471
  783MOL0     H 3350   2.054   5.247   0.766  0.6724 -1.5765 -0.4722
  783MOL0     H 3351   1.989   5.118   0.872 -0.5704  1.5942  2.1835
  783MOL0     H 3352   1.863   5.384   0.830  0.8014 -0.0621  0.1135
  783MOL0     H 3353   1.815   5.253   0.943 -0.1221  0.9864  0.4333
  783MOL0     H 3354   2.140   5.455   1.129  0.8980  1.1748 -1.9088
  783MOL0     H 3355   2.157   5.023   0.765 -1.3474 -2.8764 -0.6789
  783MOL0     H 3356   2.400   4.960   0.785 -3.7546 -0.4244  0.6407
  784MOL0     O 3357   2.513   9.946   2.875  0.3446  0.5822  0.4203
  784MOL0     C 3358   2.597  10.015   2.821 -0.3610  0.6074 -0.6537
  784MOL0     O 3359   2.724  10.034   2.866 -0.2381  0.0126 -0.2177
  784MOL0     C 3360   2.774   9.957   2.962 -0.4799 -0.7106 -0.8125
  784MOL0     C 3361   2.846  10.016   3.066  0.2926  0.3074  0.2321
  784MOL0     C 3362   2.893   9.937   3.170 -0.5626 -0.2740 -0.4116
  784MOL0     C 3363   2.878   9.796   3.167 -0.2257  0.0090 -0.7642
  784MOL0     O 3364   2.936   9.722   3.270 -0.2173  0.7977  0.0178
  784MOL0     C 3365   2.914   9.580   3.267 -0.4194 -1.5126 -0.0536
  784MOL0     C 3366   3.009   9.526   3.365 -0.5655 -0.7780 -0.3042
  784MOL0     C 3367   2.975   9.569   3.503 -0.8887 -0.4299  0.7444
  784MOL0     C 3368   3.093   9.545   3.594 -0.2014 -0.2292 -0.2973
  784MOL0     C 3369   3.057   9.599   3.736 -0.5253  0.5033  0.2721
  784MOL0     C 3370   3.169   9.615   3.832  0.4280 -0.0912  0.0918
  784MOL0     C 3371   3.120   9.682   3.963 -0.5364  0.6752  0.1343
  784MOL0     C 3372   3.223   9.675   4.076  0.5320  0.3026 -0.2888
  784MOL0     N 3373   3.175   9.710   4.211 -0.4480 -0.8856 -0.3959
  784MOL0     C 3374   3.177   9.845   4.243 -0.3221  0.5523 -0.3736
  784MOL0     C 3375   3.141   9.851   4.378 -0.1348 -0.2471  1.2220
  784MOL0     C 3376   3.127   9.978   4.463 -0.1976 -0.6907  0.3251
  784MOL0     C 3377   3.179   9.971   4.610  0.3222  0.5404  0.0792
  784MOL0     C 3378   3.088   9.883   4.685  0.8134  0.2299 -0.0355
  784MOL0     C 3379   3.117   9.855   4.833 -0.3565 -0.6043 -1.6561
  784MOL0     O 3380   3.081   9.967   4.908  0.1067 -0.5905 -0.0464
  784MOL0     C 3381   3.108   9.966   5.041  0.3127  0.4491 -0.3746
  784MOL0     C 3382   3.024  10.033   5.125 -0.2096  0.5239  0.7781
  784MOL0     C 3383   3.061  10.072   5.254  0.0731  0.2907  0.0060
  784MOL0     C 3384   3.184  10.048   5.300  0.5922 -0.2825  0.7685
  784MOL0     C 3385   3.219  10.076   5.438  1.0668 -0.2675  1.0303
  784MOL0     O 3386   3.342  10.044   5.494 -0.1905  0.3002 -0.3026
  784MOL0     C 3387   3.375  10.085   5.621  0.5066 -1.1929  0.1417
  784MOL0     C 3388   3.413   9.978   5.705  0.4903  0.2694 -0.6249
  784MOL0     C 3389   3.437   9.995   5.844  0.2645 -0.1991  0.3278
  784MOL0     C 3390   3.409  10.131   5.893  0.4525  0.1263 -0.8340
  784MOL0     O 3391   3.427  10.142   6.035  0.0229 -0.6891  0.2659
  784MOL0     C 3392   3.325  10.222   6.103 -0.7445  0.0021 -0.5837
  784MOL0     C 3393   3.357  10.184   6.249  0.2900  0.1556  0.8900
  784MOL0     C 3394   3.276  10.276   6.335  0.5582  0.1591 -0.2089
  784MOL0     C 3395   3.128  10.239   6.351 -0.4479  0.1598  0.8928
  784MOL0     C 3396   3.070  10.320   6.459  0.8565 -0.0157  0.2888
  784MOL0     C 3397   3.011  10.450   6.395  0.5033  0.4892  0.0768
  784MOL0     C 3398   2.999  10.562   6.495  0.0897  0.3646 -0.0312
  784MOL0     C 3399   3.136  10.586   6.561  0.9191 -1.2561 -0.5587
  784MOL0    Cl 3400   3.127  10.753   6.629 -0.5508  0.5449 -0.1437
  784MOL0     C 3401   3.370  10.241   5.815 -0.6381  0.1197  0.5366
  784MOL0     C 3402   3.359  10.214   5.681  0.3361 -0.2079  0.5868
  784MOL0     O 3403   3.132  10.140   5.501 -0.4700 -0.5288  0.0462
  784MOL0     C 3404   3.275   9.979   5.223 -0.3811  0.2510  0.3705
  784MOL0     C 3405   3.236   9.932   5.090  0.6534 -0.3504 -0.3773
  784MOL0     N 3406   3.135   9.712   4.424 -0.8936  0.6712  0.6896
  784MOL0     N 3407   3.161   9.633   4.325 -0.0317  0.2864  0.1918
  784MOL0     C 3408   2.822   9.741   3.052  0.1557 -0.8035 -0.2079
  784MOL0     C 3409   2.780   9.818   2.948 -0.3375  0.6424 -0.0431
  784MOL0     C 3410   2.560  10.084   2.697 -0.5697 -0.3467  0.1791
  784MOL0     C 3411   2.433  10.141   2.669 -0.1260 -0.2614 -0.3096
  784MOL0     C 3412   2.405  10.201   2.548 -0.2242 -0.7684 -0.8040
  784MOL0     C 3413   2.509  10.240   2.461 -0.6208 -1.2140  0.3178
  784MOL0     O 3414   2.459  10.291   2.346 -0.6001 -0.3638 -0.5422
  784MOL0     C 3415   2.538  10.345   2.232 -0.4234  0.2679 -0.1172
  784MOL0     C 3416   2.571  10.212   2.152 -1.1322 -0.2881  0.5838
  784MOL0     C 3417   2.463  10.134   2.097  0.2680 -0.2626 -0.1234
  784MOL0     C 3418   2.505   9.998   2.041 -0.2884  0.6058 -1.6035
  784MOL0     C 3419   2.392   9.910   1.996 -0.3134 -1.4962  0.1672
  784MOL0     C 3420   2.300   9.839   1.960 -0.5427 -0.5113 -0.7185
  784MOL0     C 3421   2.636  10.196   2.484  0.0102 -0.4612  0.6005
  784MOL0     C 3422   2.662  10.122   2.603 -0.1422 -0.1520  0.0568
  784MOL0     H 3423   2.859  10.123   3.059  0.8291  0.3156  1.1096
  784MOL0     H 3424   2.938   9.976   3.261 -1.6519 -1.5887  0.7348
  784MOL0     H 3425   2.935   9.533   3.171 -1.6516  1.0337 -1.6558
  784MOL0     H 3426   2.812   9.564   3.303 -2.2098  2.8811 -2.4113
  784MOL0     H 3427   3.110   9.559   3.337 -0.1344 -1.1112  0.8058
  784MOL0     H 3428   3.011   9.417   3.363  0.8141 -0.7889  0.1760
  784MOL0     H 3429   2.884   9.520   3.537 -1.6327  0.3718 -0.0341
  784MOL0     H 3430   2.960   9.677   3.498  0.9641 -0.1884 -0.5319
  784MOL0     H 3431   3.110   9.438   3.612  0.9015  0.3606  2.8762
  784MOL0     H 3432   3.183   9.593   3.556 -0.4958  0.3826 -0.2240
  784MOL0     H 3433   2.990   9.531   3.790 -0.7463  2.4634  2.6514
  784MOL0     H 3434   3.016   9.698   3.714 -0.4907  0.1876 -1.3256
  784MOL0     H 3435   3.242   9.665   3.769  1.9130 -1.4262  0.6739
  784MOL0     H 3436   3.219   9.521   3.859  2.4990  0.3912 -1.8161
  784MOL0     H 3437   3.082   9.785   3.963 -1.2419  0.4280  0.3841
  784MOL0     H 3438   3.036   9.631   4.013  0.4866 -1.5291 -0.2673
  784MOL0     H 3439   3.308   9.738   4.048  2.7055 -2.9151 -1.5821
  784MOL0     H 3440   3.271   9.577   4.088  1.6604  0.9768  1.0362
  784MOL0     H 3441   3.215   9.930   4.187  1.5169  0.6055  0.8962
  784MOL0     H 3442   3.020   9.997   4.452 -0.4275 -2.6717 -1.5590
  784MOL0     H 3443   3.178  10.055   4.404 -0.9430 -2.8136 -3.3942
  784MOL0     H 3444   3.191  10.069   4.657  2.0330  0.8517 -0.8861
  784MOL0     H 3445   3.273   9.915   4.602  0.4614  0.9516 -1.5313
  784MOL0     H 3446   2.986   9.922   4.690  0.6867 -0.0167 -0.5942
  784MOL0     H 3447   3.092   9.785   4.637  0.9529 -2.5886  5.0981
  784MOL0     H 3448   3.226   9.846   4.834 -0.3459 -1.5983 -4.1186
  784MOL0     H 3449   3.066   9.767   4.874  1.4555 -0.7205  0.5102
  784MOL0     H 3450   2.932  10.078   5.090  0.2612  0.4814 -0.5876
  784MOL0     H 3451   2.991  10.134   5.308 -1.6556 -2.7355  1.4784
  784MOL0     H 3452   3.420   9.882   5.653 -0.7143  1.6217 -3.4976
  784MOL0     H 3453   3.458   9.907   5.903  0.9008 -1.3540 -1.5454
  784MOL0     H 3454   3.228  10.173   6.096 -0.4183 -0.7369 -0.1599
  784MOL0     H 3455   3.321  10.331   6.094 -4.2195 -0.0493 -0.7568
  784MOL0     H 3456   3.461  10.214   6.268  1.1880 -1.0495 -1.7022
  784MOL0     H 3457   3.350  10.079   6.278  3.3138 -0.8716 -1.5461
  784MOL0     H 3458   3.280  10.382   6.309  3.0192  0.0771 -0.4744
  784MOL0     H 3459   3.308  10.271   6.439 -1.0785 -2.7535  0.2604
  784MOL0     H 3460   3.074  10.245   6.256 -1.6178 -1.6409  1.3776
  784MOL0     H 3461   3.125  10.137   6.392  0.4393  1.4019  4.4529
  784MOL0     H 3462   3.146  10.340   6.536 -2.0916  0.9896  3.1789
  784MOL0     H 3463   2.981  10.274   6.503  0.9782 -1.7208 -1.1192
  784MOL0     H 3464   2.908  10.426   6.368  1.1120 -0.6257 -1.4072
  784MOL0     H 3465   3.065  10.483   6.306  1.0054 -0.1774  0.1343
  784MOL0     H 3466   2.959  10.648   6.440 -0.2158  0.4983  0.3872
  784MOL0     H 3467   2.919  10.535   6.565 -1.3467  2.2602 -0.8600
  784MOL0     H 3468   3.209  10.596   6.480  0.3353 -1.5520 -1.1343
  784MOL0     H 3469   3.151  10.520   6.647 -0.8266  1.0822  1.7250
  784MOL0     H 3470   3.360  10.334   5.870  0.0482  0.9094 -0.6310
  784MOL0     H 3471   3.343  10.306   5.626 -1.7225  1.7497  4.1318
  784MOL0     H 3472   3.374   9.939   5.245 -1.2427 -4.0587 -2.2779
  784MOL0     H 3473   3.299   9.880   5.018  1.7057 -1.2048  1.1078
  784MOL0     H 3474   2.823   9.634   3.040  4.4678 -0.8383 -1.0469
  784MOL0     H 3475   2.734   9.771   2.862 -1.0486  0.2189  0.5507
  784MOL0     H 3476   2.354  10.117   2.740  0.3805  2.8634  1.5158
  784MOL0     H 3477   2.306  10.236   2.521  0.1588  1.2356  0.1971
  784MOL0     H 3478   2.623  10.403   2.269  0.3353 -2.1455  2.2262
  784MOL0     H 3479   2.479  10.422   2.182 -0.7512 -0.5253 -0.9821
  784MOL0     H 3480   2.628  10.252   2.067 -1.9629 -1.9469 -0.8008
  784MOL0     H 3481   2.644  10.160   2.214  1.4767  1.8829 -0.4196
  784MOL0     H 3482   2.416  10.192   2.016 -1.1813 -2.3587 -0.8568
  784MOL0     H 3483   2.399  10.119   2.184  2.1219  1.2343  1.6206
  784MOL0     H 3484   2.580  10.024   1.965  1.9341  1.7567  0.7886
  784MOL0     H 3485   2.571   9.949   2.114 -1.1768 -0.5003 -1.5284
  784MOL0     H 3486   2.213   9.787   1.925  0.1794 -2.3686  0.1503
  784MOL0     H 3487   2.720  10.213   2.416 -0.5867 -0.1173 -0.0631
  784MOL0     H 3488   2.766  10.094   2.616  0.2679 -2.7619 -5.8143
  785MOL0     O 3489   7.961   3.265   1.406 -0.3898 -0.2476 -0.2200
  785MOL0     C 3490   8.081   3.265   1.422  0.5270  0.0100  0.8106
  785MOL0     O 3491   8.169   3.159   1.386 -0.2728 -0.3242  0.5995
  785MOL0     C 3492   8.096   3.052   1.343 -0.7033 -0.1177 -0.7586
  785MOL0     C 3493   8.063   2.943   1.427  0.6428 -1.1550 -0.3443
  785MOL0     C 3494   8.005   2.830   1.381 -0.6156 -0.2725 -0.2356
  785MOL0     C 3495   7.956   2.827   1.252 -0.1383  0.1636 -0.0366
  785MOL0     O 3496   7.879   2.716   1.215  0.6545  0.3761  0.3381
  785MOL0     C 3497   7.872   2.675   1.078  0.5219 -0.4332  0.2500
  785MOL0     C 3498   7.744   2.739   1.008 -0.6100 -0.1125  0.5459
  785MOL0     C 3499   7.611   2.714   1.065  0.6485 -0.1420 -0.5689
  785MOL0     C 3500   7.551   2.562   1.045 -0.4305 -0.2078 -0.7359
  785MOL0     C 3501   7.411   2.562   0.972  0.2241 -0.0887  0.2235
  785MOL0     C 3502   7.436   2.611   0.833 -0.0326  0.1367  0.7900
  785MOL0     C 3503   7.357   2.534   0.731 -0.3635 -1.0351  0.7672
  785MOL0     C 3504   7.423   2.402   0.695  0.3579 -1.3866  0.0224
  785MOL0     N 3505   7.346   2.348   0.582  0.2039 -0.1677  0.1092
  785MOL0     C 3506   7.243   2.255   0.585  0.1468 -0.7507 -0.5940
  785MOL0     C 3507   7.183   2.267   0.463  0.5699 -1.3020 -0.0602
  785MOL0     C 3508   7.071   2.191   0.423 -0.2565  0.7967 -0.4676
  785MOL0     C 3509   6.933   2.265   0.440  0.3000 -1.1613  0.8435
  785MOL0     C 3510   6.921   2.406   0.371 -0.9519 -0.4389 -0.8939
  785MOL0     C 3511   6.941   2.397   0.226 -0.2420  0.4006  0.4900
  785MOL0     O 3512   6.844   2.320   0.154 -0.4039  0.5784  0.5152
  785MOL0     C 3513   6.839   2.338   0.023 -0.1199 -0.0390 -0.1623
  785MOL0     C 3514   6.930   2.413  -0.050 -0.0601  0.0578 -0.1484
  785MOL0     C 3515   6.903   2.421  -0.183  0.9050  0.3449  0.5219
  785MOL0     C 3516   6.788   2.360  -0.245 -0.2587 -0.2925  0.1819
  785MOL0     C 3517   6.764   2.376  -0.391 -0.3506  0.3458  1.4204
  785MOL0     O 3518   6.865   2.432  -0.466 -0.4617 -0.4749  0.3359
  785MOL0     C 3519   6.847   2.454  -0.601 -0.5739 -0.3982  0.4646
  785MOL0     C 3520   6.918   2.570  -0.644 -0.2211 -0.4013  0.3025
  785MOL0     C 3521   6.905   2.626  -0.772  0.0586 -0.2469 -0.4127
  785MOL0     C 3522   6.806   2.574  -0.861 -0.3335  0.1410 -0.4722
  785MOL0     O 3523   6.779   2.635  -0.977  0.1175 -0.3181  0.4633
  785MOL0     C 3524   6.650   2.627  -1.041  0.2371  0.4394 -0.8875
  785MOL0     C 3525   6.655   2.712  -1.163 -0.7213  1.0511  0.0581
  785MOL0     C 3526   6.771   2.684  -1.265 -0.3198 -0.0511 -0.9086
  785MOL0     C 3527   6.747   2.729  -1.400 -0.1292  0.2115  1.1607
  785MOL0     C 3528   6.787   2.628  -1.514 -0.3094 -0.3033  0.4105
  785MOL0     C 3529   6.941   2.579  -1.493 -0.4014  0.0767 -0.1864
  785MOL0     C 3530   6.979   2.522  -1.622  0.4456  0.7141 -0.8379
  785MOL0     C 3531   7.127   2.514  -1.633 -0.3315  0.3770  0.1421
  785MOL0    Cl 3532   7.183   2.371  -1.715 -0.4618  0.3355 -0.1875
  785MOL0     C 3533   6.738   2.458  -0.818 -0.9409  0.7486  0.4593
  785MOL0     C 3534   6.762   2.398  -0.695  0.0303 -0.9496 -0.5651
  785MOL0     O 3535   6.659   2.331  -0.439 -0.6804 -0.2009  0.6486
  785MOL0     C 3536   6.701   2.284  -0.167  0.5366  0.9154  0.2531
  785MOL0     C 3537   6.723   2.283  -0.028 -0.5775 -0.7064  0.6532
  785MOL0     N 3538   7.252   2.357   0.379 -0.5815 -0.1599  0.4278
  785MOL0     N 3539   7.349   2.403   0.452  0.7943  0.4370  0.3166
  785MOL0     C 3540   7.999   2.935   1.165  0.0469  0.1652  1.1022
  785MOL0     C 3541   8.066   3.054   1.203  0.4908  0.6855  0.1033
  785MOL0     C 3542   8.136   3.382   1.488 -0.5256  0.1842 -0.1538
  785MOL0     C 3543   8.064   3.464   1.569 -0.4516 -0.3712 -0.1079
  785MOL0     C 3544   8.116   3.565   1.644  0.4107  0.4775 -0.2720
  785MOL0     C 3545   8.253   3.602   1.629  0.1079 -0.5542  0.0699
  785MOL0     O 3546   8.337   3.693   1.705  0.1686 -0.2111  0.3134
  785MOL0     C 3547   8.291   3.725   1.839  1.0497 -0.6849  0.1092
  785MOL0     C 3548   8.301   3.608   1.939  0.1480  0.2374  0.3028
  785MOL0     C 3549   8.419   3.509   1.903 -0.4102  0.5614  0.0482
  785MOL0     C 3550   8.442   3.439   2.041 -0.1366 -1.2720  1.0204
  785MOL0     C 3551   8.574   3.376   2.040 -0.1902  0.2258  1.0094
  785MOL0     C 3552   8.668   3.304   2.059  0.3800  0.1441  0.9615
  785MOL0     C 3553   8.327   3.521   1.534 -0.7983  0.0577 -0.9425
  785MOL0     C 3554   8.268   3.413   1.478  0.0517 -0.3832  0.9946
  785MOL0     H 3555   8.103   2.929   1.527  0.1347  4.1538  0.9189
  785MOL0     H 3556   7.996   2.738   1.438  2.0133 -0.7336 -0.4662
  785MOL0     H 3557   7.870   2.566   1.071  0.1818 -0.3747 -0.8837
  785MOL0     H 3558   7.954   2.707   1.012 -1.7835  1.2485 -1.9593
  785MOL0     H 3559   7.746   2.702   0.905  1.7416  1.0699  0.1051
  785MOL0     H 3560   7.761   2.847   0.998 -2.8685  0.2087 -0.4016
  785MOL0     H 3561   7.546   2.783   1.011 -0.6883 -1.2835 -0.4788
  785MOL0     H 3562   7.617   2.745   1.170 -0.4293  0.0295 -0.5524
  785MOL0     H 3563   7.622   2.507   0.982  1.2670  0.6315  0.3730
  785MOL0     H 3564   7.559   2.501   1.135  0.4137 -0.5761 -1.0425
  785MOL0     H 3565   7.336   2.626   1.019 -1.7347 -1.0947 -1.4061
  785MOL0     H 3566   7.371   2.460   0.975  0.8675 -0.3484  0.2138
  785MOL0     H 3567   7.540   2.608   0.799  0.4462  1.3197  2.0312
  785MOL0     H 3568   7.397   2.712   0.817 -0.8134 -0.7618 -4.9838
  785MOL0     H 3569   7.255   2.515   0.766 -0.3136 -0.6512  1.1268
  785MOL0     H 3570   7.360   2.595   0.641  0.8353 -2.6163 -0.3197
  785MOL0     H 3571   7.427   2.340   0.785  0.8197  1.0373  1.7869
  785MOL0     H 3572   7.526   2.414   0.659  0.1043 -0.5480 -0.4548
  785MOL0     H 3573   7.199   2.208   0.672 -0.7278  2.0639  0.6010
  785MOL0     H 3574   7.057   2.094   0.472 -1.7143  0.0897 -2.1556
  785MOL0     H 3575   7.078   2.166   0.317 -2.7155 -1.6199 -0.1877
  785MOL0     H 3576   6.903   2.271   0.545  3.5220 -4.4987  2.1403
  785MOL0     H 3577   6.850   2.199   0.415  1.7615 -1.9237 -2.4741
  785MOL0     H 3578   6.830   2.462   0.396  0.6321  3.3631 -2.7947
  785MOL0     H 3579   6.995   2.470   0.419 -0.2847 -1.1141 -0.9966
  785MOL0     H 3580   7.037   2.364   0.185 -0.8917  0.1754 -0.9303
  785MOL0     H 3581   6.926   2.501   0.196  1.2619  0.1913 -1.1529
  785MOL0     H 3582   7.022   2.457  -0.014 -0.1814 -0.3253  0.6657
  785MOL0     H 3583   6.975   2.471  -0.248 -1.1580  1.5018 -0.9761
  785MOL0     H 3584   7.000   2.610  -0.585  0.0136  1.4295 -1.1617
  785MOL0     H 3585   6.966   2.706  -0.813  0.8180 -0.3489  0.4883
  785MOL0     H 3586   6.561   2.651  -0.982 -1.7031 -0.2533 -3.3909
  785MOL0     H 3587   6.631   2.525  -1.076  1.4281  0.5332 -1.8591
  785MOL0     H 3588   6.669   2.817  -1.134  0.4625  0.5253  1.5538
  785MOL0     H 3589   6.551   2.704  -1.195 -0.7436 -0.6898  0.4633
  785MOL0     H 3590   6.780   2.576  -1.257 -1.3287 -0.0283  1.1289
  785MOL0     H 3591   6.860   2.737  -1.228 -1.2618  0.0646  1.3100
  785MOL0     H 3592   6.639   2.748  -1.404 -1.3980 -4.6673  4.0082
  785MOL0     H 3593   6.801   2.819  -1.430  0.7525 -1.3575 -2.4750
  785MOL0     H 3594   6.780   2.679  -1.610  2.8052 -0.8707 -0.2455
  785MOL0     H 3595   6.727   2.537  -1.511 -1.8105  0.6769  1.0944
  785MOL0     H 3596   6.956   2.506  -1.413  4.4128 -1.7741 -2.3444
  785MOL0     H 3597   7.010   2.662  -1.475  1.6311 -1.1005 -2.0794
  785MOL0     H 3598   6.925   2.427  -1.630 -0.4244  0.3588  4.8805
  785MOL0     H 3599   6.957   2.578  -1.714  0.1408  0.2305 -1.0642
  785MOL0     H 3600   7.168   2.514  -1.532 -0.8573  4.6318  0.5580
  785MOL0     H 3601   7.167   2.606  -1.677 -0.0173 -0.1800 -0.7743
  785MOL0     H 3602   6.667   2.410  -0.885 -0.6614  3.3533 -1.8882
  785MOL0     H 3603   6.721   2.301  -0.669 -3.7863  0.6145 -0.0818
  785MOL0     H 3604   6.606   2.248  -0.206  1.6419  0.1856 -1.9807
  785MOL0     H 3605   6.650   2.230   0.033  0.7780 -2.0686  1.1562
  785MOL0     H 3606   7.962   2.939   1.063 -1.8664  1.7049  1.7971
  785MOL0     H 3607   8.086   3.141   1.142 -0.3302  1.3737  0.7985
  785MOL0     H 3608   7.962   3.428   1.584 -1.3286  1.0102 -2.2787
  785MOL0     H 3609   8.042   3.610   1.709 -1.7430 -2.7546 -0.2466
  785MOL0     H 3610   8.200   3.785   1.845  0.4297 -1.7221  2.1170
  785MOL0     H 3611   8.376   3.787   1.868  2.9763 -2.8580 -0.5033
  785MOL0     H 3612   8.316   3.671   2.027 -0.5311  0.4255  0.2903
  785MOL0     H 3613   8.204   3.562   1.959 -2.2117  3.8267 -1.7657
  785MOL0     H 3614   8.505   3.574   1.884  2.3114 -2.0804  2.5011
  785MOL0     H 3615   8.404   3.443   1.817  5.2857 -0.3978 -0.6214
  785MOL0     H 3616   8.429   3.505   2.127 -1.3594 -1.0538  0.6831
  785MOL0     H 3617   8.363   3.365   2.051 -2.8561  1.3855  0.5237
  785MOL0     H 3618   8.743   3.229   2.069 -1.6662 -2.1466  0.1324
  785MOL0     H 3619   8.433   3.539   1.526 -0.4945 -1.3866 -0.3819
  785MOL0     H 3620   8.336   3.345   1.429 -0.2361 -0.7115  1.0522
  786MOL0     O 3621   2.867   8.573   3.384 -0.9520  0.9749 -0.8270
  786MOL0     C 3622   2.967   8.538   3.461 -0.2993 -1.1560  0.4105
  786MOL0     O 3623   2.971   8.466   3.572 -0.2404 -0.3017 -0.1573
  786MOL0     C 3624   2.854   8.445   3.632  0.7421  0.0163 -0.5132
  786MOL0     C 3625   2.838   8.475   3.766  0.2401 -0.3872  0.1199
  786MOL0     C 3626   2.725   8.464   3.840  0.0602  0.1994  0.5590
  786MOL0     C 3627   2.620   8.381   3.785 -0.4081  0.7104  0.7924
  786MOL0     O 3628   2.515   8.347   3.867 -0.0916 -0.8229 -1.1748
  786MOL0     C 3629   2.407   8.284   3.805 -0.6174  1.1810  0.0118
  786MOL0     C 3630   2.299   8.263   3.903  0.8206  1.0947 -0.7395
  786MOL0     C 3631   2.332   8.180   4.030 -0.0615 -0.1909  0.8474
  786MOL0     C 3632   2.375   8.041   3.991  0.3277  0.0568 -0.2106
  786MOL0     C 3633   2.426   7.943   4.101  0.2602 -0.5350  0.4449
  786MOL0     C 3634   2.510   7.828   4.056  0.3406  0.2124 -1.0182
  786MOL0     C 3635   2.656   7.877   4.024  0.1465  0.4647 -0.2363
  786MOL0     C 3636   2.747   7.906   4.151 -0.0140  0.0948  0.4241
  786MOL0     N 3637   2.760   7.805   4.253 -0.0601 -0.2284 -0.5621
  786MOL0     C 3638   2.771   7.833   4.389  0.7194 -0.3082  0.3001
  786MOL0     C 3639   2.806   7.708   4.437  0.2605 -0.3823 -0.2000
  786MOL0     C 3640   2.826   7.669   4.580  0.4387  0.1262 -0.2753
  786MOL0     C 3641   2.697   7.609   4.639  0.6024 -0.2721 -1.0776
  786MOL0     C 3642   2.690   7.619   4.794 -0.6132 -0.3407  0.3377
  786MOL0     C 3643   2.679   7.759   4.841  0.0308 -0.1694  0.0797
  786MOL0     O 3644   2.553   7.820   4.800  0.5991  0.1967  0.1656
  786MOL0     C 3645   2.511   7.927   4.877 -0.4312 -0.1685  0.6838
  786MOL0     C 3646   2.376   7.937   4.905 -0.2462  0.0026  0.2041
  786MOL0     C 3647   2.331   8.046   4.983 -1.0417  0.5419 -0.7116
  786MOL0     C 3648   2.419   8.139   5.030 -0.3112  0.0535  0.1532
  786MOL0     C 3649   2.368   8.238   5.131  0.5200  0.3540  0.9225
  786MOL0     O 3650   2.452   8.330   5.177 -0.5306 -0.1389 -0.9320
  786MOL0     C 3651   2.427   8.402   5.292  0.8178 -0.6184 -0.1675
  786MOL0     C 3652   2.317   8.483   5.305  0.0711 -0.6483  0.2328
  786MOL0     C 3653   2.295   8.562   5.416 -0.5190 -0.0972  0.4567
  786MOL0     C 3654   2.388   8.568   5.520  0.2668 -0.7169  0.0794
  786MOL0     O 3655   2.352   8.644   5.631 -0.0543 -0.2649 -0.1412
  786MOL0     C 3656   2.460   8.692   5.708 -0.0823 -0.4540 -0.6651
  786MOL0     C 3657   2.493   8.605   5.830  0.4712  0.1694 -0.0507
  786MOL0     C 3658   2.395   8.604   5.944  0.0132 -0.1283 -0.1376
  786MOL0     C 3659   2.268   8.520   5.916  0.4697  1.0603  0.0907
  786MOL0     C 3660   2.180   8.489   6.043 -0.5686  0.6477  0.0477
  786MOL0     C 3661   2.149   8.617   6.121  0.6823  0.3537  0.2393
  786MOL0     C 3662   2.038   8.701   6.055  0.1494  0.5638  0.9035
  786MOL0     C 3663   1.902   8.637   6.090 -0.0971  0.5357 -0.1709
  786MOL0    Cl 3664   1.868   8.643   6.268  0.0548 -0.3415  0.0735
  786MOL0     C 3665   2.502   8.477   5.503  0.0282 -0.0820  0.3571
  786MOL0     C 3666   2.514   8.393   5.396 -0.4632 -0.3401  0.0587
  786MOL0     O 3667   2.252   8.224   5.169  0.2450 -0.3121 -0.6487
  786MOL0     C 3668   2.559   8.125   4.997  0.4559 -0.1543  0.2756
  786MOL0     C 3669   2.605   8.015   4.924  0.3082 -0.5510 -0.0366
  786MOL0     N 3670   2.800   7.614   4.338 -0.1062  0.7917 -0.0478
  786MOL0     N 3671   2.771   7.668   4.228 -0.2290 -0.1094 -0.5410
  786MOL0     C 3672   2.628   8.342   3.646 -0.6783  0.0833 -0.5712
  786MOL0     C 3673   2.741   8.383   3.572 -0.3744 -0.4459  0.4329
  786MOL0     C 3674   3.089   8.597   3.423 -0.0213 -0.1132  0.6350
  786MOL0     C 3675   3.098   8.672   3.301 -0.8075 -0.4062 -0.5091
  786MOL0     C 3676   3.214   8.731   3.263  0.3356 -1.0189  0.0296
  786MOL0     C 3677   3.330   8.717   3.343 -0.8332  0.1185  0.2667
  786MOL0     O 3678   3.454   8.781   3.321 -0.2146 -0.1271 -0.2273
  786MOL0     C 3679   3.470   8.841   3.191 -0.6139  0.3000 -0.7602
  786MOL0     C 3680   3.609   8.897   3.159 -0.0172 -0.0738 -0.0707
  786MOL0     C 3681   3.638   9.035   3.223 -0.7608  0.2519 -0.6282
  786MOL0     C 3682   3.785   9.080   3.189 -0.2653 -0.1599 -0.8517
  786MOL0     C 3683   3.802   9.133   3.054 -0.6393 -0.5745 -0.1028
  786MOL0     C 3684   3.806   9.199   2.946  0.0028 -0.0077  0.4839
  786MOL0     C 3685   3.325   8.637   3.458  0.3940 -1.6383 -0.7604
  786MOL0     C 3686   3.208   8.584   3.498 -0.4284  0.1957  0.3896
  786MOL0     H 3687   2.924   8.531   3.803  1.5150 -1.4671 -1.0998
  786MOL0     H 3688   2.732   8.498   3.942 -2.1139 -1.8716  1.5070
  786MOL0     H 3689   2.436   8.188   3.761  2.9069  3.0588 -2.2575
  786MOL0     H 3690   2.367   8.345   3.723 -0.4883  1.8151  0.4162
  786MOL0     H 3691   2.221   8.216   3.843  2.7237 -3.0813 -0.2407
  786MOL0     H 3692   2.264   8.362   3.933 -0.0379  0.6688 -0.3136
  786MOL0     H 3693   2.251   8.179   4.104  0.7207 -1.9305  1.7688
  786MOL0     H 3694   2.411   8.235   4.083 -0.7906  2.8423 -0.9759
  786MOL0     H 3695   2.292   7.989   3.942  0.4299  1.0078 -1.4247
  786MOL0     H 3696   2.457   8.052   3.920  1.3109  0.3592  0.9397
  786MOL0     H 3697   2.337   7.899   4.148 -0.1493  1.1862  1.3801
  786MOL0     H 3698   2.467   8.004   4.182 -1.4888 -3.4316  3.7623
  786MOL0     H 3699   2.462   7.790   3.965  2.2956 -0.6973 -1.7117
  786MOL0     H 3700   2.520   7.753   4.135  1.0370 -0.6373 -1.8939
  786MOL0     H 3701   2.697   7.796   3.963 -0.6860 -1.0651  1.1641
  786MOL0     H 3702   2.651   7.963   3.956  0.0406 -1.0155 -2.1876
  786MOL0     H 3703   2.705   8.003   4.179 -0.1853 -0.6578  2.9956
  786MOL0     H 3704   2.847   7.932   4.112 -0.0428 -2.5270 -1.6678
  786MOL0     H 3705   2.750   7.924   4.444 -0.7894 -0.4735  0.0302
  786MOL0     H 3706   2.865   7.756   4.633  3.0685 -1.9019  1.3921
  786MOL0     H 3707   2.891   7.581   4.571  0.7307  0.5844 -5.4854
  786MOL0     H 3708   2.688   7.505   4.608  0.7945 -0.8610  0.7467
  786MOL0     H 3709   2.610   7.665   4.603 -0.9227 -2.1786 -0.4759
  786MOL0     H 3710   2.609   7.571   4.850  1.0457 -0.7220  2.5745
  786MOL0     H 3711   2.781   7.573   4.834 -0.5299 -0.4009  0.0807
  786MOL0     H 3712   2.772   7.816   4.831  0.0713 -0.0050  1.2711
  786MOL0     H 3713   2.682   7.749   4.949  0.3429  3.0152  0.4565
  786MOL0     H 3714   2.307   7.865   4.862  1.6803 -1.9325  0.1820
  786MOL0     H 3715   2.225   8.060   4.997 -0.6956  0.5870  2.7051
  786MOL0     H 3716   2.255   8.488   5.216  1.4485 -1.4693 -0.8266
  786MOL0     H 3717   2.209   8.628   5.421  1.0765  2.8132 -4.0197
  786MOL0     H 3718   2.428   8.790   5.746 -2.0606 -2.0133  2.0348
  786MOL0     H 3719   2.554   8.703   5.654 -0.8758  0.9664 -1.8540
  786MOL0     H 3720   2.594   8.633   5.861  0.0121  2.2578 -0.2526
  786MOL0     H 3721   2.501   8.503   5.791  0.2006  0.8730 -2.1078
  786MOL0     H 3722   2.374   8.707   5.973 -1.2428 -0.3472 -0.2031
  786MOL0     H 3723   2.446   8.550   6.025  0.8189 -1.6211 -1.5880
  786MOL0     H 3724   2.204   8.580   5.851 -1.7233 -1.9447 -0.7636
  786MOL0     H 3725   2.286   8.420   5.875 -1.9740 -0.0993  1.5870
  786MOL0     H 3726   2.236   8.422   6.109  3.1383  0.9808 -2.4819
  786MOL0     H 3727   2.090   8.434   6.012 -1.4393  2.5302 -0.9398
  786MOL0     H 3728   2.243   8.671   6.135  1.2647 -0.9421  1.6939
  786MOL0     H 3729   2.117   8.575   6.217 -2.3221 -1.1448 -1.2727
  786MOL0     H 3730   2.024   8.799   6.101 -1.4909  0.3789  0.8710
  786MOL0     H 3731   2.050   8.701   5.946  0.0721 -1.8631  0.8396
  786MOL0     H 3732   1.896   8.534   6.054 -0.4709  0.0002  1.3808
  786MOL0     H 3733   1.836   8.705   6.035  2.4654  0.9428 -3.0490
  786MOL0     H 3734   2.577   8.470   5.581  0.7194  0.9247 -0.1990
  786MOL0     H 3735   2.603   8.331   5.387  0.8415  0.6651  4.0075
  786MOL0     H 3736   2.618   8.210   5.028 -0.7164  1.4848 -1.7271
  786MOL0     H 3737   2.709   8.005   4.895  0.6586  2.8399 -0.3305
  786MOL0     H 3738   2.558   8.273   3.600 -3.3899  2.6944 -0.6472
  786MOL0     H 3739   2.756   8.357   3.467  2.5805 -1.8158  1.0901
  786MOL0     H 3740   3.014   8.700   3.240 -0.3547 -0.3996 -1.1405
  786MOL0     H 3741   3.212   8.793   3.175  0.4050 -1.6763 -0.4412
  786MOL0     H 3742   3.394   8.920   3.191 -2.2510 -0.9647  3.5079
  786MOL0     H 3743   3.447   8.765   3.116 -2.2318  1.0172 -1.0238
  786MOL0     H 3744   3.695   8.836   3.187  2.5304  3.3267  0.0798
  786MOL0     H 3745   3.613   8.920   3.052  1.3108  1.2340  0.2269
  786MOL0     H 3746   3.622   9.028   3.331 -2.9814  1.6907 -0.8051
  786MOL0     H 3747   3.572   9.112   3.183 -0.9089 -1.7164 -4.7010
  786MOL0     H 3748   3.810   9.166   3.250 -1.0763 -0.2232 -0.4256
  786MOL0     H 3749   3.858   8.998   3.195  0.7369  0.8124  1.0417
  786MOL0     H 3750   3.825   9.257   2.858  2.4013  3.5788  3.0665
  786MOL0     H 3751   3.404   8.628   3.532 -0.7404 -1.4432  0.5060
  786MOL0     H 3752   3.211   8.545   3.599 -0.7952  0.4748  0.5096
  787MOL0     O 3753   5.640   0.118   6.776 -1.2865 -1.1488  0.1809
  787MOL0     C 3754   5.676   0.205   6.855  0.5433  0.5838  0.7592
  787MOL0     O 3755   5.606   0.324   6.882 -0.4237 -0.3509  0.1450
  787MOL0     C 3756   5.496   0.343   6.804 -0.1200  0.5090  0.2336
  787MOL0     C 3757   5.526   0.409   6.681  0.4477 -0.6950 -0.8499
  787MOL0     C 3758   5.410   0.445   6.603 -0.6597 -1.3078 -0.7061
  787MOL0     C 3759   5.281   0.402   6.628  0.0947  0.2518 -0.4216
  787MOL0     O 3760   5.177   0.425   6.550  1.2428  0.6834 -0.6513
  787MOL0     C 3761   5.140   0.555   6.495  0.0803  1.0832 -0.3686
  787MOL0     C 3762   5.166   0.561   6.348  0.0201 -0.2140  0.5129
  787MOL0     C 3763   5.104   0.439   6.268  0.5621  0.9525 -0.5797
  787MOL0     C 3764   4.946   0.448   6.246 -1.2226  0.1141 -0.0801
  787MOL0     C 3765   4.881   0.311   6.222  0.0342  0.0488  0.1135
  787MOL0     C 3766   4.730   0.305   6.180 -0.4153 -0.1724 -0.4496
  787MOL0     C 3767   4.683   0.162   6.156 -0.4820 -0.2124 -0.0256
  787MOL0     C 3768   4.564   0.125   6.259 -1.1435  0.2974 -0.3193
  787MOL0     N 3769   4.459   0.220   6.259 -0.2488 -0.6713  0.5020
  787MOL0     C 3770   4.399   0.275   6.372 -0.1273 -0.6504  0.6455
  787MOL0     C 3771   4.302   0.365   6.325 -0.4878  0.9581  0.1421
  787MOL0     C 3772   4.225   0.453   6.420 -0.1932  0.7881 -0.0061
  787MOL0     C 3773   4.312   0.558   6.493 -0.4540 -0.0109  0.8177
  787MOL0     C 3774   4.229   0.647   6.582 -0.7197  0.0035 -0.2208
  787MOL0     C 3775   4.294   0.707   6.702 -0.5306 -0.2135  0.7166
  787MOL0     O 3776   4.293   0.624   6.818  0.6892  0.5851 -0.2385
  787MOL0     C 3777   4.387   0.650   6.916 -0.4716  0.5014 -1.0369
  787MOL0     C 3778   4.480   0.758   6.918 -0.7245  0.4497  0.3952
  787MOL0     C 3779   4.596   0.755   6.997  0.3978 -0.0694 -0.7133
  787MOL0     C 3780   4.617   0.654   7.093  0.2853 -0.0853 -0.2886
  787MOL0     C 3781   4.729   0.643   7.180 -0.5972  0.7364  0.1813
  787MOL0     O 3782   4.751   0.519   7.234  0.5109 -0.1865  0.1624
  787MOL0     C 3783   4.838   0.479   7.332  0.1912 -0.3932 -0.0345
  787MOL0     C 3784   4.842   0.343   7.355 -0.7291 -0.8778 -0.6415
  787MOL0     C 3785   4.942   0.300   7.452  0.4621  0.1313 -0.2075
  787MOL0     C 3786   5.032   0.381   7.516 -0.6522  0.2862 -0.2335
  787MOL0     O 3787   5.121   0.330   7.607  0.4165 -0.4476 -0.6245
  787MOL0     C 3788   5.259   0.352   7.594 -0.8196  0.8400  0.6156
  787MOL0     C 3789   5.323   0.367   7.735 -0.7218  0.2998  0.1190
  787MOL0     C 3790   5.476   0.336   7.751  0.5516  1.0114 -1.2805
  787MOL0     C 3791   5.536   0.194   7.707 -0.1578  0.5044  0.4514
  787MOL0     C 3792   5.511   0.095   7.819 -0.3510  0.6753  0.4664
  787MOL0     C 3793   5.580  -0.045   7.775  0.1401 -0.0405  0.0844
  787MOL0     C 3794   5.518  -0.154   7.857 -0.6198  0.1045 -0.3102
  787MOL0     C 3795   5.559  -0.294   7.814  0.3379 -0.7457 -0.5233
  787MOL0    Cl 3796   5.730  -0.341   7.822  0.1537 -0.7049  0.4259
  787MOL0     C 3797   5.023   0.516   7.495 -0.0766  0.4828  0.1369
  787MOL0     C 3798   4.921   0.560   7.409  0.8657 -0.4569  1.0160
  787MOL0     O 3799   4.798   0.742   7.194 -0.2650 -0.0573  0.3443
  787MOL0     C 3800   4.513   0.555   7.095  0.1311  0.0309 -0.6021
  787MOL0     C 3801   4.396   0.559   7.020  1.0393  0.0332 -1.0360
  787MOL0     N 3802   4.302   0.358   6.183 -0.9150 -0.0816 -0.5834
  787MOL0     N 3803   4.396   0.266   6.153  0.5274 -0.2021  0.8496
  787MOL0     C 3804   5.255   0.330   6.744 -0.4361  0.2846 -1.5024
  787MOL0     C 3805   5.363   0.303   6.839 -0.4911  0.7434  1.2152
  787MOL0     C 3806   5.801   0.184   6.935 -0.5638 -0.3325  0.1334
  787MOL0     C 3807   5.830   0.266   7.043  0.4508  0.2466 -0.2809
  787MOL0     C 3808   5.947   0.240   7.114 -1.2323  0.4846 -0.6476
  787MOL0     C 3809   6.038   0.140   7.072 -0.5689 -0.1903 -0.3326
  787MOL0     O 3810   6.162   0.094   7.128  0.3471 -0.1352  0.6133
  787MOL0     C 3811   6.178   0.107   7.262  0.0465 -0.8837 -0.1509
  787MOL0     C 3812   6.226  -0.032   7.318  0.0520 -0.1627 -0.2803
  787MOL0     C 3813   6.121  -0.138   7.283  0.1355  0.1677  0.1591
  787MOL0     C 3814   6.142  -0.258   7.370  0.1078  0.0332  0.2782
  787MOL0     C 3815   6.010  -0.324   7.376 -0.2454 -0.2584 -0.1388
  787MOL0     C 3816   5.910  -0.390   7.370 -0.0750 -0.1387  0.5244
  787MOL0     C 3817   6.001   0.067   6.959 -1.0869 -0.2854  0.6843
  787MOL0     C 3818   5.889   0.089   6.888  0.1038  0.7620  0.0969
  787MOL0     H 3819   5.631   0.433   6.661 -0.1416  1.9039 -1.1703
  787MOL0     H 3820   5.424   0.501   6.511 -1.4613 -0.8840 -0.5822
  787MOL0     H 3821   5.195   0.631   6.551 -1.8390  1.8570  0.5531
  787MOL0     H 3822   5.034   0.582   6.499 -0.0977  0.5830 -1.4156
  787MOL0     H 3823   5.274   0.560   6.331 -0.2493  1.2077 -1.5547
  787MOL0     H 3824   5.133   0.659   6.314  1.4760  0.4249  0.8918
  787MOL0     H 3825   5.135   0.347   6.317  1.0635  2.0866  1.3100
  787MOL0     H 3826   5.148   0.451   6.168  1.0303  2.7740 -0.1928
  787MOL0     H 3827   4.905   0.502   6.333  1.0645  1.7045  0.1017
  787MOL0     H 3828   4.929   0.499   6.151 -3.1529  0.0022  0.1499
  787MOL0     H 3829   4.891   0.246   6.310  2.0341  0.7185  0.4386
  787MOL0     H 3830   4.948   0.266   6.148 -0.7571  1.9304 -1.8372
  787MOL0     H 3831   4.722   0.362   6.087 -2.4947 -0.6169 -0.5952
  787MOL0     H 3832   4.660   0.357   6.247 -1.4716 -0.3223 -1.4020
  787MOL0     H 3833   4.657   0.156   6.050  1.1194 -0.0127 -0.4576
  787MOL0     H 3834   4.772   0.101   6.171 -2.4640 -3.8905 -1.8775
  787MOL0     H 3835   4.605   0.116   6.360  2.2807 -3.8415 -1.7800
  787MOL0     H 3836   4.507   0.036   6.231 -0.0932 -1.4721  2.6387
  787MOL0     H 3837   4.410   0.247   6.477 -3.5552 -0.0693  1.2729
  787MOL0     H 3838   4.189   0.381   6.495  0.0050  0.1990 -0.4742
  787MOL0     H 3839   4.147   0.498   6.358  1.1181  0.6779 -1.8219
  787MOL0     H 3840   4.344   0.626   6.414 -1.0930  0.0770  0.6263
  787MOL0     H 3841   4.391   0.503   6.543  0.2680 -0.2403 -0.5249
  787MOL0     H 3842   4.187   0.727   6.521  0.6395  1.2207  0.3636
  787MOL0     H 3843   4.145   0.587   6.618 -0.8782  1.6231  2.4103
  787MOL0     H 3844   4.252   0.808   6.713 -1.8614 -0.4350 -1.7991
  787MOL0     H 3845   4.396   0.712   6.661 -0.5512 -0.7925  0.5856
  787MOL0     H 3846   4.466   0.843   6.853  0.6709  1.2349  1.0779
  787MOL0     H 3847   4.668   0.833   6.977  2.4820 -1.2528  1.6125
  787MOL0     H 3848   4.776   0.285   7.292 -1.2329  1.6207 -2.5586
  787MOL0     H 3849   4.930   0.196   7.478 -1.8999  0.4039 -0.0052
  787MOL0     H 3850   5.304   0.423   7.525 -0.3756 -0.6577 -0.6809
  787MOL0     H 3851   5.301   0.258   7.559  0.4364  1.6045  0.0216
  787MOL0     H 3852   5.271   0.303   7.807  0.3023  2.0421  2.5670
  787MOL0     H 3853   5.308   0.468   7.773 -2.1008  0.8046 -1.6519
  787MOL0     H 3854   5.503   0.346   7.856 -2.1742  0.2873 -0.4248
  787MOL0     H 3855   5.537   0.401   7.688  0.6609  0.5287 -1.6847
  787MOL0     H 3856   5.501   0.150   7.613 -0.7224  0.4550  0.6778
  787MOL0     H 3857   5.645   0.198   7.706 -0.0460 -1.4134 -1.1016
  787MOL0     H 3858   5.406   0.070   7.837  0.3728 -3.3255  0.0781
  787MOL0     H 3859   5.544   0.120   7.920 -1.9921 -0.3028  1.2847
  787MOL0     H 3860   5.688  -0.031   7.790 -0.0710  0.0820  1.6780
  787MOL0     H 3861   5.560  -0.063   7.669 -1.3960  0.2578  0.3056
  787MOL0     H 3862   5.563  -0.154   7.956  0.0125 -2.5631 -0.5107
  787MOL0     H 3863   5.408  -0.148   7.855 -0.6778 -0.6189  0.2434
  787MOL0     H 3864   5.509  -0.311   7.718 -5.5111  1.1679  1.7327
  787MOL0     H 3865   5.516  -0.364   7.887 -0.6843  2.2400  1.9251
  787MOL0     H 3866   5.071   0.590   7.558  0.0459 -0.0685  0.6955
  787MOL0     H 3867   4.923   0.668   7.394  3.0671 -0.8356 -2.9282
  787MOL0     H 3868   4.527   0.472   7.164  1.8030  0.0367 -0.8989
  787MOL0     H 3869   4.310   0.495   7.036  1.4783 -0.5850 -1.1011
  787MOL0     H 3870   5.152   0.298   6.759  0.2678 -1.4318  0.0618
  787MOL0     H 3871   5.348   0.249   6.932  3.0597 -1.3743  0.7526
  787MOL0     H 3872   5.758   0.331   7.092  1.2740  0.9895 -0.0432
  787MOL0     H 3873   5.971   0.299   7.202 -0.3479 -1.4427  0.4722
  787MOL0     H 3874   6.088   0.130   7.319  2.7169  2.5659  3.2281
  787MOL0     H 3875   6.251   0.182   7.295  0.8793 -1.0558 -1.4753
  787MOL0     H 3876   6.332  -0.043   7.295  0.3190  1.1315  0.2864
  787MOL0     H 3877   6.223  -0.038   7.428 -1.9605 -1.8258 -0.3686
  787MOL0     H 3878   6.119  -0.176   7.181  0.4847 -0.1085  0.2552
  787MOL0     H 3879   6.020  -0.098   7.298 -1.2036 -1.5868 -3.1874
  787MOL0     H 3880   6.217  -0.327   7.330  0.7740 -0.4349  2.2265
  787MOL0     H 3881   6.174  -0.239   7.472 -3.1931 -3.3514  2.2281
  787MOL0     H 3882   5.813  -0.434   7.368 -2.6375  4.7695 -2.9743
  787MOL0     H 3883   6.075  -0.009   6.937  3.2398  3.6280  0.2443
  787MOL0     H 3884   5.872   0.030   6.799 -0.2841  3.5280 -1.8090
  788MOL0     O 3885  11.225   0.247   1.135  0.9621  0.7360  0.3242
  788MOL0     C 3886  11.281   0.358   1.120 -0.1603  0.8864 -0.6232
  788MOL0     O 3887  11.412   0.383   1.105  0.4580 -0.1873 -0.1660
  788MOL0     C 3888  11.493   0.278   1.067  0.1594 -0.2150  0.2589
  788MOL0     C 3889  11.536   0.180   1.155  0.0160  0.3689 -0.3722
  788MOL0     C 3890  11.601   0.070   1.120 -1.0755 -0.0270  0.4762
  788MOL0     C 3891  11.643   0.050   0.989 -0.4880 -0.9903  0.4256
  788MOL0     O 3892  11.717  -0.067   0.971  0.0827  0.4045 -0.3040
  788MOL0     C 3893  11.808  -0.075   0.863 -0.5384  0.3650  1.2060
  788MOL0     C 3894  11.899  -0.185   0.871  0.0864 -0.4405 -0.4886
  788MOL0     C 3895  12.012  -0.180   0.773 -0.2357 -0.8658 -0.1014
  788MOL0     C 3896  12.120  -0.272   0.827 -1.1691 -0.6132  0.9106
  788MOL0     C 3897  12.229  -0.294   0.723  0.1973 -0.2680  0.1864
  788MOL0     C 3898  12.315  -0.410   0.762 -0.0563 -0.1646  0.3904
  788MOL0     C 3899  12.382  -0.419   0.908 -1.0383 -0.2538  0.6778
  788MOL0     C 3900  12.503  -0.338   0.932 -0.1752 -0.7097  0.3809
  788MOL0     N 3901  12.604  -0.356   0.826 -0.1357  0.1147  0.3095
  788MOL0     C 3902  12.640  -0.274   0.721  0.0776 -0.2712  0.4557
  788MOL0     C 3903  12.730  -0.341   0.652  1.3397  0.8404 -0.5241
  788MOL0     C 3904  12.814  -0.293   0.534 -0.1028  0.0955 -0.6374
  788MOL0     C 3905  12.952  -0.258   0.603  0.1955 -0.5366 -0.2941
  788MOL0     C 3906  13.044  -0.175   0.516  0.6430  0.6664 -0.1023
  788MOL0     C 3907  12.980  -0.052   0.448 -0.2138 -0.1024 -0.0975
  788MOL0     O 3908  12.935   0.037   0.554 -0.0902 -0.5280  0.1455
  788MOL0     C 3909  12.841   0.129   0.513  0.3585 -0.7729 -0.4309
  788MOL0     C 3910  12.698   0.100   0.518 -0.0398 -0.5834 -0.3973
  788MOL0     C 3911  12.605   0.183   0.459  0.4066 -0.0591  0.6524
  788MOL0     C 3912  12.649   0.293   0.382 -0.5392  0.2335 -0.4876
  788MOL0     C 3913  12.555   0.376   0.292 -0.4759  0.4254  0.2567
  788MOL0     O 3914  12.611   0.475   0.219 -0.2032 -0.0999 -0.3290
  788MOL0     C 3915  12.528   0.577   0.182  0.5806  0.2315 -0.6351
  788MOL0     C 3916  12.433   0.630   0.277  0.3909  0.6233 -0.2700
  788MOL0     C 3917  12.355   0.739   0.246 -0.1396  0.6500 -0.7589
  788MOL0     C 3918  12.375   0.811   0.125 -0.7089 -0.2799  0.6260
  788MOL0     O 3919  12.307   0.929   0.080  0.2350 -0.6005 -0.4562
  788MOL0     C 3920  12.279   1.036   0.167  0.2042 -0.4388 -0.1302
  788MOL0     C 3921  12.163   1.113   0.104 -0.1193  0.1044 -0.5811
  788MOL0     C 3922  12.137   1.235   0.190 -0.1510  0.5122 -0.8194
  788MOL0     C 3923  12.006   1.287   0.164  0.9281 -0.5506 -0.0875
  788MOL0     C 3924  11.980   1.416   0.258  0.0512 -0.3132  0.1843
  788MOL0     C 3925  11.835   1.462   0.249 -0.0147 -0.3515  0.1767
  788MOL0     C 3926  11.827   1.600   0.324  0.1263  1.2413 -0.1602
  788MOL0     C 3927  11.692   1.666   0.301  0.5208  0.1448 -0.1319
  788MOL0    Cl 3928  11.670   1.809   0.418 -0.2033  0.0354 -0.1610
  788MOL0     C 3929  12.467   0.763   0.031  0.0911  0.1086 -0.2635
  788MOL0     C 3930  12.550   0.652   0.069 -0.1951  0.4872  1.0924
  788MOL0     O 3931  12.437   0.339   0.285  0.3861  0.1758  0.3103
  788MOL0     C 3932  12.788   0.320   0.380 -0.3441 -0.8484 -0.4833
  788MOL0     C 3933  12.880   0.247   0.447  0.1140 -0.3671  0.3767
  788MOL0     N 3934  12.752  -0.466   0.717 -0.5267 -1.0204 -0.2065
  788MOL0     N 3935  12.671  -0.461   0.818 -0.3241  0.9239 -0.4548
  788MOL0     C 3936  11.620   0.148   0.896 -1.0783 -0.8372  0.5319
  788MOL0     C 3937  11.545   0.259   0.935 -0.5612 -0.3944  0.7716
  788MOL0     C 3938  11.190   0.469   1.122 -0.1552 -0.8021 -0.1822
  788MOL0     C 3939  11.237   0.600   1.081  0.1821 -0.7005 -0.0547
  788MOL0     C 3940  11.165   0.716   1.097  0.4733  0.0076 -0.0317
  788MOL0     C 3941  11.030   0.697   1.133 -0.4876 -0.3271  0.4600
  788MOL0     O 3942  10.951   0.818   1.131 -0.1759 -0.5393  0.7342
  788MOL0     C 3943  10.809   0.805   1.149 -0.3872  1.2048 -0.5334
  788MOL0     C 3944  10.743   0.938   1.129  0.4000  0.7567 -0.3232
  788MOL0     C 3945  10.593   0.948   1.190 -1.2773  0.0422 -0.0912
  788MOL0     C 3946  10.534   1.081   1.142 -0.7001  0.1441  0.4528
  788MOL0     C 3947  10.390   1.104   1.176 -0.2602  0.0837  0.6772
  788MOL0     C 3948  10.273   1.116   1.213 -1.0667  0.4664  0.4827
  788MOL0     C 3949  10.975   0.570   1.174 -1.4780  0.6969  0.1095
  788MOL0     C 3950  11.058   0.457   1.171  0.4052 -0.1050 -0.0356
  788MOL0     H 3951  11.487   0.192   1.252 -0.5629  2.1255 -0.8457
  788MOL0     H 3952  11.619  -0.002   1.200  0.6711  0.2951  0.4187
  788MOL0     H 3953  11.870   0.012   0.841 -2.2062  0.8527 -2.4122
  788MOL0     H 3954  11.742  -0.083   0.775 -2.3038 -0.6674  2.5537
  788MOL0     H 3955  11.849  -0.279   0.844  1.5999 -0.3166 -4.4225
  788MOL0     H 3956  11.926  -0.180   0.977 -1.9558  2.6974  0.0113
  788MOL0     H 3957  12.040  -0.075   0.783 -0.6185 -0.9268  2.3377
  788MOL0     H 3958  11.980  -0.210   0.673  2.0126 -1.0107 -0.8358
  788MOL0     H 3959  12.168  -0.225   0.914 -0.3845  1.6648 -0.6552
  788MOL0     H 3960  12.091  -0.376   0.843  0.2161 -1.1858 -0.1151
  788MOL0     H 3961  12.285  -0.201   0.714 -0.2628 -0.1238 -1.5471
  788MOL0     H 3962  12.184  -0.315   0.626 -0.2299 -0.4896  0.4287
  788MOL0     H 3963  12.389  -0.411   0.681 -1.9462  2.4614 -1.4974
  788MOL0     H 3964  12.259  -0.503   0.748  3.2372 -2.1694 -0.8917
  788MOL0     H 3965  12.304  -0.404   0.983 -1.6087  0.9468 -0.1218
  788MOL0     H 3966  12.400  -0.526   0.919 -1.8347 -0.1170  4.8618
  788MOL0     H 3967  12.547  -0.372   1.026 -1.8330  1.0918  1.8827
  788MOL0     H 3968  12.491  -0.229   0.935 -1.1907 -0.7291 -1.4257
  788MOL0     H 3969  12.610  -0.173   0.695  1.1942 -0.2716 -1.0198
  788MOL0     H 3970  12.777  -0.207   0.478 -2.4182 -0.3435  0.1316
  788MOL0     H 3971  12.830  -0.376   0.464 -2.9804 -0.7037 -0.4581
  788MOL0     H 3972  13.004  -0.352   0.623 -1.4581 -1.0165  2.2014
  788MOL0     H 3973  12.934  -0.208   0.698 -0.4979 -1.2883 -0.0142
  788MOL0     H 3974  13.133  -0.152   0.576 -0.0979 -2.4935  2.4876
  788MOL0     H 3975  13.078  -0.243   0.438 -0.4526  1.0398 -0.9259
  788MOL0     H 3976  12.902  -0.076   0.375  0.1112  1.0847 -0.8470
  788MOL0     H 3977  13.055   0.006   0.395  3.1234 -0.9862  3.2563
  788MOL0     H 3978  12.669   0.008   0.566  0.7499 -0.7117 -0.1552
  788MOL0     H 3979  12.502   0.153   0.441  1.0926 -2.1958  0.0703
  788MOL0     H 3980  12.416   0.591   0.377 -5.7879  5.2797  1.0763
  788MOL0     H 3981  12.281   0.770   0.318  1.1749 -0.8561  1.3609
  788MOL0     H 3982  12.372   1.092   0.178 -0.6381  0.4731  4.8397
  788MOL0     H 3983  12.254   0.992   0.265 -1.3974  0.9996  0.1539
  788MOL0     H 3984  12.074   1.050   0.093  0.4308 -0.2495 -4.2990
  788MOL0     H 3985  12.180   1.149   0.002 -2.9056 -0.9163 -1.4874
  788MOL0     H 3986  12.221   1.302   0.165  0.7541  0.1838  1.1520
  788MOL0     H 3987  12.134   1.194   0.291 -1.5812 -3.5876 -2.3295
  788MOL0     H 3988  11.993   1.314   0.059  0.3233  2.4684  0.6720
  788MOL0     H 3989  11.923   1.217   0.174  2.3933 -2.2282  0.9826
  788MOL0     H 3990  12.040   1.504   0.231 -0.0913 -0.4004 -0.4460
  788MOL0     H 3991  12.007   1.385   0.359  1.3575  0.6812  0.1703
  788MOL0     H 3992  11.768   1.391   0.300 -1.2002  1.5403  1.3643
  788MOL0     H 3993  11.805   1.465   0.144 -0.1667 -3.9548 -0.0104
  788MOL0     H 3994  11.842   1.572   0.429  1.2277  0.2183 -0.5577
  788MOL0     H 3995  11.906   1.674   0.309  1.7953  0.3259  3.0688
  788MOL0     H 3996  11.622   1.582   0.305  1.3110 -0.7172 -2.5061
  788MOL0     H 3997  11.689   1.702   0.198 -1.0693  1.7414  0.4430
  788MOL0     H 3998  12.467   0.808  -0.067  2.5163 -1.3702 -1.0185
  788MOL0     H 3999  12.630   0.603   0.016 -0.7681 -0.4834  1.1102
  788MOL0     H 4000  12.822   0.410   0.329  0.4426  0.8764  2.8041
  788MOL0     H 4001  12.984   0.277   0.443 -0.0092  0.2380  1.3951
  788MOL0     H 4002  11.653   0.154   0.793  0.5490 -0.6678  1.0367
  788MOL0     H 4003  11.527   0.327   0.853 -0.4352 -0.1272  0.9679
  788MOL0     H 4004  11.334   0.597   1.033 -1.3055 -2.5620 -3.2537
  788MOL0     H 4005  11.210   0.810   1.066 -0.3954 -0.1104 -1.7810
  788MOL0     H 4006  10.786   0.753   1.243 -1.7299 -0.2090 -1.5934
  788MOL0     H 4007  10.768   0.723   1.089 -0.0857 -0.2098  1.0807
  788MOL0     H 4008  10.808   1.011   1.178  0.0954  0.7942  0.0300
  788MOL0     H 4009  10.754   0.957   1.021  1.5319 -2.2850 -0.8309
  788MOL0     H 4010  10.599   0.951   1.300 -2.3837  1.4232 -0.0382
  788MOL0     H 4011  10.531   0.862   1.166 -0.9580  0.1840 -1.4724
  788MOL0     H 4012  10.597   1.157   1.190  0.7938 -1.0584  0.4396
  788MOL0     H 4013  10.544   1.093   1.034 -1.2313  0.4113  0.4267
  788MOL0     H 4014  10.167   1.119   1.228 -1.5388  2.2094 -2.5334
  788MOL0     H 4015  10.876   0.544   1.207 -0.6914 -1.6156  0.8409
  788MOL0     H 4016  11.011   0.362   1.197  0.5184 -0.0090  0.5227
  789MOL0     O 4017   4.179   8.903   1.018 -0.0049 -0.0305  0.7616
  789MOL0     C 4018   4.072   8.869   0.963 -0.3939 -0.3834  0.5571
  789MOL0     O 4019   3.950   8.912   1.002 -0.2005 -0.2767 -0.9596
  789MOL0     C 4020   3.941   9.005   1.100  0.4034 -0.4302  0.5476
  789MOL0     C 4021   3.869   9.132   1.075 -0.1384 -0.8066 -0.2904
  789MOL0     C 4022   3.875   9.227   1.178  0.0526  0.2117  0.1895
  789MOL0     C 4023   3.937   9.211   1.305  0.3485  0.1237 -0.1445
  789MOL0     O 4024   3.924   9.293   1.417 -0.2361 -0.0817  0.3533
  789MOL0     C 4025   3.805   9.385   1.425 -0.4759  0.5025 -0.1791
  789MOL0     C 4026   3.806   9.434   1.573  0.0386 -0.5091  0.5105
  789MOL0     C 4027   3.780   9.325   1.674 -0.3280  0.2118 -0.8384
  789MOL0     C 4028   3.730   9.395   1.800  0.0697  0.4397  0.2746
  789MOL0     C 4029   3.585   9.434   1.798 -0.0901 -0.1679 -0.1107
  789MOL0     C 4030   3.541   9.510   1.925 -0.6291  0.6075  0.0124
  789MOL0     C 4031   3.396   9.562   1.920  0.3240 -0.8643  0.1551
  789MOL0     C 4032   3.350   9.653   1.801 -0.6374 -0.1895  0.2771
  789MOL0     N 4033   3.433   9.766   1.782  0.3100 -0.5915  0.5460
  789MOL0     C 4034   3.437   9.845   1.674 -0.6646 -1.2017  0.5900
  789MOL0     C 4035   3.534   9.938   1.708  0.0204 -0.1970 -0.2206
  789MOL0     C 4036   3.569  10.037   1.612  0.4410 -0.0050  0.9290
  789MOL0     C 4037   3.480  10.160   1.633  0.6687 -0.7777 -0.8247
  789MOL0     C 4038   3.523  10.276   1.540 -0.6933 -0.1616 -0.7823
  789MOL0     C 4039   3.410  10.379   1.514 -0.7852  0.3938  0.2034
  789MOL0     O 4040   3.307  10.333   1.436 -1.1869  0.8510  0.5999
  789MOL0     C 4041   3.179  10.357   1.476  0.0861  0.5311  0.2276
  789MOL0     C 4042   3.077  10.334   1.381 -0.6847  0.1087  0.5820
  789MOL0     C 4043   2.938  10.323   1.409  0.3003  0.3819 -0.0555
  789MOL0     C 4044   2.895  10.335   1.542 -0.2515  0.3766 -0.2205
  789MOL0     C 4045   2.753  10.341   1.571  0.1320 -0.7422  0.8289
  789MOL0     O 4046   2.717  10.369   1.701 -0.1965  0.5176  1.1527
  789MOL0     C 4047   2.588  10.392   1.720  0.8204  0.1211  0.2564
  789MOL0     C 4048   2.540  10.521   1.742 -0.0546  0.1027 -0.4174
  789MOL0     C 4049   2.405  10.548   1.775  0.4169 -0.1809 -0.4289
  789MOL0     C 4050   2.315  10.442   1.786  0.6737  1.0504  0.9057
  789MOL0     O 4051   2.183  10.474   1.822 -0.7953 -0.6827  0.2615
  789MOL0     C 4052   2.105  10.395   1.900  0.9463  0.0613  0.7608
  789MOL0     C 4053   1.972  10.374   1.825  0.2182  0.3714  0.6551
  789MOL0     C 4054   1.901  10.495   1.778  0.9241 -0.0228  0.9457
  789MOL0     C 4055   1.747  10.505   1.820 -0.1093  0.5458  0.3649
  789MOL0     C 4056   1.668  10.628   1.762  0.3559  0.5357 -0.9295
  789MOL0     C 4057   1.727  10.759   1.816 -0.2120 -0.1737 -0.7935
  789MOL0     C 4058   1.620  10.866   1.778 -0.7132  1.4874 -0.0471
  789MOL0     C 4059   1.665  11.014   1.803 -0.2559  0.5260  0.0900
  789MOL0    Cl 4060   1.765  11.074   1.665 -0.0030  0.0902  0.3817
  789MOL0     C 4061   2.357  10.310   1.750 -0.6643  0.0538 -0.1654
  789MOL0     C 4062   2.498  10.286   1.732  0.3327 -0.3038 -0.2182
  789MOL0     O 4063   2.681  10.325   1.475 -0.4443  0.4192 -0.6694
  789MOL0     C 4064   2.991  10.352   1.640 -0.6347 -0.3666  0.1519
  789MOL0     C 4065   3.131  10.355   1.606 -0.8134 -0.0280  0.4992
  789MOL0     N 4066   3.578   9.920   1.837  0.3634  0.1070  0.2170
  789MOL0     N 4067   3.511   9.814   1.887  0.7781 -0.6482  0.5877
  789MOL0     C 4068   4.004   9.089   1.321 -0.2000  0.2598  1.0574
  789MOL0     C 4069   4.005   8.994   1.228  0.5456  0.5622  0.0736
  789MOL0     C 4070   4.081   8.776   0.852 -0.0191 -0.1263  0.3674
  789MOL0     C 4071   3.963   8.702   0.808  0.5673 -0.2250 -0.0787
  789MOL0     C 4072   3.979   8.603   0.701 -0.5652 -1.1038 -0.0797
  789MOL0     C 4073   4.101   8.593   0.627 -0.1598  0.0841 -0.1261
  789MOL0     O 4074   4.094   8.528   0.509  0.3430  0.5376 -0.0697
  789MOL0     C 4075   4.213   8.507   0.433  0.3291 -0.3019 -0.2358
  789MOL0     C 4076   4.174   8.411   0.317 -0.4686  0.1793  0.0617
  789MOL0     C 4077   4.299   8.351   0.251 -0.4771  0.0409  0.2635
  789MOL0     C 4078   4.262   8.287   0.119 -0.0498  0.1912 -0.4911
  789MOL0     C 4079   4.395   8.256   0.057  1.0398  0.1113 -0.2820
  789MOL0     C 4080   4.494   8.232  -0.004  1.4977  0.5013 -0.2925
  789MOL0     C 4081   4.211   8.673   0.670  0.1767 -0.2989 -1.0503
  789MOL0     C 4082   4.204   8.754   0.776 -0.4490  1.0891 -0.5632
  789MOL0     H 4083   3.817   9.155   0.982 -0.7137 -0.8504  0.0114
  789MOL0     H 4084   3.809   9.313   1.171  1.5689  1.4916  0.9974
  789MOL0     H 4085   3.718   9.330   1.389 -0.5950 -0.4698  1.4996
  789MOL0     H 4086   3.826   9.468   1.358  0.8203 -0.8237 -1.5015
  789MOL0     H 4087   3.732   9.514   1.563  0.3314 -0.4695 -2.0988
  789MOL0     H 4088   3.904   9.477   1.597  0.1369 -2.4704  4.3399
  789MOL0     H 4089   3.877   9.279   1.697 -0.8106 -1.5657 -2.1387
  789MOL0     H 4090   3.704   9.253   1.643 -1.5451  0.6372  1.0119
  789MOL0     H 4091   3.748   9.336   1.890 -2.0291  2.2355  1.9859
  789MOL0     H 4092   3.788   9.487   1.807  1.1784  0.0157 -2.1093
  789MOL0     H 4093   3.523   9.344   1.802  1.0771 -0.9544  1.5790
  789MOL0     H 4094   3.575   9.489   1.704 -0.0376 -1.8545 -1.1421
  789MOL0     H 4095   3.615   9.590   1.936  1.1199 -1.1317  1.5671
  789MOL0     H 4096   3.558   9.448   2.013 -1.1663 -1.4538 -1.2764
  789MOL0     H 4097   3.326   9.478   1.932 -2.0386  1.1293  1.0627
  789MOL0     H 4098   3.388   9.617   2.014  2.4674  1.5564 -0.9617
  789MOL0     H 4099   3.245   9.682   1.806 -0.7805 -0.5313 -0.5913
  789MOL0     H 4100   3.362   9.580   1.720 -2.1153  0.3281 -0.4435
  789MOL0     H 4101   3.390   9.844   1.576  2.4315  3.0851 -1.2656
  789MOL0     H 4102   3.544   9.988   1.517 -0.9248 -2.3051  2.3712
  789MOL0     H 4103   3.675  10.057   1.632  0.9705 -4.3036  3.5166
  789MOL0     H 4104   3.478  10.203   1.733 -4.4810  0.1171 -1.0481
  789MOL0     H 4105   3.376  10.136   1.609  0.7721 -1.4920 -0.6017
  789MOL0     H 4106   3.605  10.330   1.587  1.6404 -3.1739 -1.0696
  789MOL0     H 4107   3.556  10.240   1.442 -4.6731  0.0805 -2.4229
  789MOL0     H 4108   3.468  10.451   1.457  1.5848 -1.6994 -0.1818
  789MOL0     H 4109   3.378  10.423   1.610 -1.7649 -1.5143  0.7983
  789MOL0     H 4110   3.115  10.343   1.280  0.3621 -1.9719  0.7355
  789MOL0     H 4111   2.882  10.310   1.317  0.3502  0.4231 -0.0917
  789MOL0     H 4112   2.603  10.608   1.755  1.7096 -0.9861 -1.3122
  789MOL0     H 4113   2.370  10.642   1.816 -1.2535 -1.6287  1.7232
  789MOL0     H 4114   2.077  10.432   1.999 -5.0344 -0.2389 -0.4043
  789MOL0     H 4115   2.147  10.299   1.932  0.3269 -0.1880  0.8473
  789MOL0     H 4116   1.904  10.315   1.887 -0.8167  0.7368 -0.1073
  789MOL0     H 4117   1.992  10.305   1.742 -2.4661  2.6604 -2.1391
  789MOL0     H 4118   1.896  10.482   1.669  1.6174 -4.1929  1.2458
  789MOL0     H 4119   1.958  10.587   1.795 -1.6388  2.6624 -3.0952
  789MOL0     H 4120   1.697  10.411   1.792  0.8691 -0.1138  0.7664
  789MOL0     H 4121   1.737  10.512   1.929 -4.5716  1.3331  0.1165
  789MOL0     H 4122   1.564  10.620   1.795  1.0197 -0.5745  1.0682
  789MOL0     H 4123   1.674  10.621   1.653  1.3959 -2.9033 -0.7548
  789MOL0     H 4124   1.825  10.777   1.770 -0.8960 -0.6790 -2.5274
  789MOL0     H 4125   1.737  10.757   1.925 -1.7145 -2.8346 -0.6300
  789MOL0     H 4126   1.595  10.864   1.671 -2.4948  0.0210  0.3650
  789MOL0     H 4127   1.534  10.845   1.842 -0.3008  2.4740  0.8645
  789MOL0     H 4128   1.734  11.026   1.887 -0.9425 -2.7226  1.3002
  789MOL0     H 4129   1.571  11.067   1.820 -2.0952 -2.2614 -0.5224
  789MOL0     H 4130   2.284  10.230   1.740  2.4053 -2.7735 -2.5227
  789MOL0     H 4131   2.525  10.181   1.733  0.4185 -0.2810 -0.1492
  789MOL0     H 4132   2.960  10.343   1.743  1.3949 -2.8583  0.6664
  789MOL0     H 4133   3.207  10.360   1.684  0.9742 -1.0107 -1.0730
  789MOL0     H 4134   4.038   9.059   1.419 -2.3320 -4.3541  0.6630
  789MOL0     H 4135   4.058   8.904   1.257 -1.6861 -0.2177  2.1212
  789MOL0     H 4136   3.867   8.718   0.854 -0.2059 -0.9804 -1.3602
  789MOL0     H 4137   3.901   8.531   0.678 -0.0795 -1.2181 -1.4642
  789MOL0     H 4138   4.289   8.456   0.493 -0.7276 -1.9494 -0.2405
  789MOL0     H 4139   4.236   8.607   0.395 -2.7725 -0.0412 -1.6879
  789MOL0     H 4140   4.116   8.328   0.359 -2.2816  1.3835  0.0265
  789MOL0     H 4141   4.121   8.475   0.246  1.1010  2.0119  0.4288
  789MOL0     H 4142   4.358   8.285   0.315  1.2490  0.8522 -0.4375
  789MOL0     H 4143   4.366   8.434   0.225 -1.1982  1.0621  1.4738
  789MOL0     H 4144   4.181   8.213   0.115  1.7280 -1.9988  1.3083
  789MOL0     H 4145   4.221   8.366   0.057  0.0704  0.7370  0.1105
  789MOL0     H 4146   4.583   8.195  -0.051  2.4317 -1.0884  2.4949
  789MOL0     H 4147   4.302   8.684   0.611  0.6448 -1.1497 -0.5065
  789MOL0     H 4148   4.289   8.810   0.813 -1.2078  1.9092 -0.0169
  790MOL0     O 4149   7.694   6.419   6.638 -0.3233  0.6109 -0.2119
  790MOL0     C 4150   7.815   6.428   6.623  0.2198  0.1280  0.0595
  790MOL0     O 4151   7.899   6.499   6.706 -0.0261 -0.1230  0.9744
  790MOL0     C 4152   7.842   6.569   6.804  0.7592  1.0699 -0.0840
  790MOL0     C 4153   7.808   6.695   6.786 -0.2215  0.1994 -0.0903
  790MOL0     C 4154   7.788   6.784   6.895  0.9764 -1.0421 -0.0186
  790MOL0     C 4155   7.787   6.742   7.025  0.8262 -0.3101  1.4247
  790MOL0     O 4156   7.747   6.824   7.130  0.3694  0.4501 -0.1562
  790MOL0     C 4157   7.711   6.966   7.114  0.1278  0.0402  0.3625
  790MOL0     C 4158   7.835   7.059   7.096 -0.9608 -0.1959  0.7434
  790MOL0     C 4159   7.921   7.075   7.225 -0.3897  0.0155  0.6397
  790MOL0     C 4160   8.070   7.063   7.198 -0.8236  0.6636  0.2908
  790MOL0     C 4161   8.147   7.092   7.339  0.2265 -0.0693  0.3103
  790MOL0     C 4162   8.127   6.972   7.430 -0.3467 -0.1629 -0.4650
  790MOL0     C 4163   8.217   6.962   7.554 -1.2548 -0.1086 -0.5068
  790MOL0     C 4164   8.195   6.831   7.636  0.7179  0.0752  0.3500
  790MOL0     N 4165   8.277   6.819   7.755 -0.0671 -0.3985 -0.4239
  790MOL0     C 4166   8.248   6.776   7.882 -0.6704  0.2893 -0.0691
  790MOL0     C 4167   8.365   6.783   7.946 -0.6681 -0.6114 -0.0514
  790MOL0     C 4168   8.387   6.738   8.089  0.5948  0.1668 -0.4460
  790MOL0     C 4169   8.290   6.779   8.193 -0.7011 -0.8104 -0.5712
  790MOL0     C 4170   8.209   6.653   8.238  0.8420 -0.0929  0.4649
  790MOL0     C 4171   8.103   6.687   8.351  0.0250 -0.6733  0.8932
  790MOL0     O 4172   8.146   6.773   8.455 -0.2807 -0.6510  0.1062
  790MOL0     C 4173   8.129   6.911   8.439  0.4454  0.5035  0.5132
  790MOL0     C 4174   8.035   6.982   8.355  0.7323 -0.5164 -0.4875
  790MOL0     C 4175   8.005   7.112   8.373 -0.7063  1.5466  1.2102
  790MOL0     C 4176   8.079   7.189   8.457  1.3483 -0.8954 -0.0752
  790MOL0     C 4177   8.060   7.330   8.457  0.2823 -0.7787  0.5857
  790MOL0     O 4178   8.182   7.399   8.431 -0.2367  0.4439  0.2154
  790MOL0     C 4179   8.176   7.536   8.433  0.8644 -0.0278  0.7070
  790MOL0     C 4180   8.115   7.619   8.531 -0.4246 -0.9544  0.0445
  790MOL0     C 4181   8.124   7.753   8.526 -0.6920 -0.1859  0.1637
  790MOL0     C 4182   8.184   7.811   8.410 -0.3781 -0.3281 -0.6984
  790MOL0     O 4183   8.190   7.952   8.411  0.1623  0.8138  0.7363
  790MOL0     C 4184   8.100   8.000   8.305  0.9280 -0.1091 -0.0144
  790MOL0     C 4185   8.053   8.144   8.340 -0.1562  0.7907  1.3529
  790MOL0     C 4186   7.920   8.179   8.273  0.2728  0.8550  0.7375
  790MOL0     C 4187   7.874   8.331   8.307  0.5226  0.5971 -0.5675
  790MOL0     C 4188   7.976   8.434   8.250  0.1269 -0.3749 -0.5266
  790MOL0     C 4189   7.938   8.579   8.263  0.5083  0.9406  0.4797
  790MOL0     C 4190   8.043   8.668   8.198 -0.2075 -0.1670 -0.6681
  790MOL0     C 4191   8.189   8.665   8.262  0.7991  0.1646 -1.1192
  790MOL0    Cl 4192   8.195   8.751   8.420  0.4185  0.2025 -0.3600
  790MOL0     C 4193   8.227   7.733   8.307 -0.1803  0.4155 -0.8950
  790MOL0     C 4194   8.230   7.593   8.321  0.3067  0.1232 -0.4067
  790MOL0     O 4195   7.949   7.378   8.479 -0.6049 -0.1934 -0.0532
  790MOL0     C 4196   8.162   7.123   8.549 -0.1175  1.1663 -0.4586
  790MOL0     C 4197   8.185   6.984   8.544 -0.5910 -0.3294 -0.2116
  790MOL0     N 4198   8.467   6.828   7.861 -0.0448  0.1053  0.4396
  790MOL0     N 4199   8.411   6.848   7.755 -0.6866  0.4198  1.1473
  790MOL0     C 4200   7.802   6.605   7.039  0.3291 -1.1377 -0.5519
  790MOL0     C 4201   7.839   6.521   6.939 -0.3457 -0.3204  0.3554
  790MOL0     C 4202   7.869   6.372   6.493 -0.0907 -0.0018  0.7621
  790MOL0     C 4203   7.783   6.338   6.387  0.1751  0.1932  0.7621
  790MOL0     C 4204   7.834   6.301   6.263 -0.5920 -0.0472 -0.0420
  790MOL0     C 4205   7.978   6.290   6.247  0.2646 -0.2454  0.5172
  790MOL0     O 4206   8.030   6.252   6.128  0.1734 -0.6277  0.2819
  790MOL0     C 4207   7.989   6.334   6.017  0.6464 -0.7191  0.2418
  790MOL0     C 4208   8.112   6.378   5.943 -0.6005  0.4300 -0.0502
  790MOL0     C 4209   8.113   6.490   5.843 -0.0768 -0.1544  0.2864
  790MOL0     C 4210   8.033   6.446   5.719  0.2722 -0.1075  0.1021
  790MOL0     C 4211   7.893   6.501   5.716 -0.5524  0.2639  0.6393
  790MOL0     C 4212   7.787   6.564   5.700 -0.5953  0.3590 -0.1530
  790MOL0     C 4213   8.060   6.310   6.362  0.4685  0.2724 -0.3665
  790MOL0     C 4214   8.008   6.359   6.480  0.4384 -0.3327 -0.4193
  790MOL0     H 4215   7.785   6.729   6.686  1.4178  0.6461 -0.3466
  790MOL0     H 4216   7.758   6.886   6.873  2.2896 -0.0791  2.3564
  790MOL0     H 4217   7.671   7.012   7.204  0.4459 -0.7789  0.9353
  790MOL0     H 4218   7.632   6.974   7.039 -1.6670 -0.2550  2.1574
  790MOL0     H 4219   7.811   7.161   7.066  3.6391  0.7752 -0.4161
  790MOL0     H 4220   7.901   7.021   7.018 -0.2347  1.5718  0.4608
  790MOL0     H 4221   7.889   6.997   7.295 -0.5650  0.8132  1.4653
  790MOL0     H 4222   7.897   7.168   7.276  0.0402  1.2891 -1.3674
  790MOL0     H 4223   8.083   6.960   7.163 -0.5524  1.2336 -1.3662
  790MOL0     H 4224   8.107   7.135   7.125  1.5559  1.7641  2.4399
  790MOL0     H 4225   8.110   7.181   7.390  1.4269  1.3648 -1.1861
  790MOL0     H 4226   8.252   7.116   7.322 -0.2671  1.2389 -1.2574
  790MOL0     H 4227   8.161   6.882   7.379  0.6356 -1.3648  2.1317
  790MOL0     H 4228   8.023   6.955   7.459 -0.1930 -2.3108 -1.0187
  790MOL0     H 4229   8.321   6.968   7.519 -1.7891  0.5868 -2.0369
  790MOL0     H 4230   8.194   7.051   7.613  3.3648  1.1644 -0.1763
  790MOL0     H 4231   8.207   6.740   7.577  0.5217 -0.5558  1.2574
  790MOL0     H 4232   8.089   6.843   7.663  1.4459  0.1248  3.5529
  790MOL0     H 4233   8.159   6.727   7.921 -0.5837  0.3071  0.1504
  790MOL0     H 4234   8.487   6.776   8.113 -0.0475  1.4425  0.3264
  790MOL0     H 4235   8.395   6.629   8.084 -1.2525  0.0292 -1.1402
  790MOL0     H 4236   8.221   6.855   8.156  1.9068  2.4200  0.6717
  790MOL0     H 4237   8.347   6.817   8.278  0.3579 -3.0451 -0.1847
  790MOL0     H 4238   8.146   6.620   8.154  1.4878  1.8270 -0.8608
  790MOL0     H 4239   8.278   6.576   8.270 -0.4043 -1.1415  0.7035
  790MOL0     H 4240   8.079   6.596   8.407  0.6285 -0.4578  1.5054
  790MOL0     H 4241   8.006   6.725   8.318  1.0697  1.5946  0.2762
  790MOL0     H 4242   7.991   6.914   8.282  4.2293 -1.6114 -1.7823
  790MOL0     H 4243   7.946   7.172   8.304 -0.4127  0.8137  0.2992
  790MOL0     H 4244   8.072   7.574   8.620 -2.7147 -3.0423 -1.9620
  790MOL0     H 4245   8.091   7.812   8.611  1.8142  1.3903  0.1384
  790MOL0     H 4246   8.007   7.941   8.309  1.1076 -0.3056  1.4212
  790MOL0     H 4247   8.128   8.009   8.199 -4.9020  2.8611 -1.7654
  790MOL0     H 4248   8.140   8.205   8.313 -0.9186  0.7138 -1.5803
  790MOL0     H 4249   8.040   8.146   8.449 -2.5171  0.5899  1.1332
  790MOL0     H 4250   7.844   8.109   8.307 -1.0916  2.4076  1.0383
  790MOL0     H 4251   7.927   8.169   8.164  1.6115  0.4007  0.8456
  790MOL0     H 4252   7.782   8.340   8.247  0.1621  1.8420  0.1318
  790MOL0     H 4253   7.855   8.334   8.414  2.9506 -2.1913  0.0647
  790MOL0     H 4254   7.996   8.419   8.143  1.5556 -0.1052 -0.3260
  790MOL0     H 4255   8.068   8.421   8.308 -1.3601  2.2747  2.7914
  790MOL0     H 4256   7.918   8.603   8.368 -1.1319  1.1394  0.1418
  790MOL0     H 4257   7.841   8.595   8.216 -0.9364 -1.4375  2.4187
  790MOL0     H 4258   8.048   8.641   8.092 -0.0261  1.0693 -0.9925
  790MOL0     H 4259   8.013   8.773   8.206  0.7285 -0.0270  1.5773
  790MOL0     H 4260   8.242   8.735   8.197 -0.4851  0.0690 -2.3211
  790MOL0     H 4261   8.234   8.565   8.268  0.0511 -0.1496 -0.5149
  790MOL0     H 4262   8.244   7.784   8.212  2.0681  0.8302 -0.3362
  790MOL0     H 4263   8.231   7.530   8.233 -0.9524  0.6432 -0.8199
  790MOL0     H 4264   8.208   7.168   8.636  1.8341 -0.8066 -0.3789
  790MOL0     H 4265   8.224   6.919   8.621 -1.5320 -4.1310 -2.6665
  790MOL0     H 4266   7.787   6.560   7.137 -0.0339  0.3421  0.0918
  790MOL0     H 4267   7.850   6.413   6.943 -1.4090 -0.5148 -1.3026
  790MOL0     H 4268   7.676   6.334   6.403 -0.2228  1.7432 -1.1835
  790MOL0     H 4269   7.769   6.266   6.183 -2.0462  0.7981  0.7193
  790MOL0     H 4270   7.936   6.423   6.053  0.5035 -0.0851 -1.4225
  790MOL0     H 4271   7.927   6.283   5.943  0.6242  0.6894 -0.7666
  790MOL0     H 4272   8.177   6.417   6.022  1.7946 -0.4465 -1.4692
  790MOL0     H 4273   8.151   6.286   5.898 -2.3135 -0.4518  0.2056
  790MOL0     H 4274   8.217   6.511   5.815 -0.0862 -1.5594 -0.8921
  790MOL0     H 4275   8.088   6.588   5.884 -0.8018  0.2892 -1.1586
  790MOL0     H 4276   8.094   6.474   5.632  3.4213 -2.3090  1.4359
  790MOL0     H 4277   8.029   6.337   5.724  0.6823 -0.0816  1.2479
  790MOL0     H 4278   7.689   6.604   5.688 -0.4785  1.0174  0.9937
  790MOL0     H 4279   8.166   6.294   6.343  1.3176  2.1193  2.1995
  790MOL0     H 4280   8.064   6.390   6.567 -2.2993  1.0852  1.0035
  791MOL0     O 4281   5.335   4.181   9.110  0.2814 -0.1620 -0.5006
  791MOL0     C 4282   5.435   4.173   9.170 -0.6909  0.9336  0.5821
  791MOL0     O 4283   5.503   4.273   9.230 -0.2811 -0.5877 -0.1038
  791MOL0     C 4284   5.455   4.405   9.234  0.1100 -0.4110 -0.0619
  791MOL0     C 4285   5.466   4.481   9.349  0.0107 -0.0723 -1.0591
  791MOL0     C 4286   5.432   4.615   9.363 -0.4387 -0.6556 -0.2009
  791MOL0     C 4287   5.365   4.683   9.255  0.2392  0.2910  0.0652
  791MOL0     O 4288   5.343   4.825   9.248  0.5257 -0.3334  0.1135
  791MOL0     C 4289   5.382   4.905   9.369  0.1683  1.2254  1.4349
  791MOL0     C 4290   5.407   5.050   9.323  1.2979 -0.3507  0.1531
  791MOL0     C 4291   5.283   5.135   9.288  0.0926  0.2723 -0.1970
  791MOL0     C 4292   5.179   5.147   9.395  1.1126  0.5451 -0.3279
  791MOL0     C 4293   5.210   5.264   9.493 -0.7777  0.0671 -0.4352
  791MOL0     C 4294   5.168   5.401   9.434 -0.5601 -0.1524 -0.1863
  791MOL0     C 4295   5.023   5.425   9.417 -0.2932 -0.5115  1.2718
  791MOL0     C 4296   4.998   5.564   9.359  0.4961  0.0469 -1.1326
  791MOL0     N 4297   4.855   5.604   9.360  0.9599  0.3334 -0.1020
  791MOL0     C 4298   4.792   5.705   9.441 -1.3532 -0.6853  0.4199
  791MOL0     C 4299   4.681   5.735   9.379  0.1490  0.0819  0.2207
  791MOL0     C 4300   4.584   5.835   9.426 -0.8455 -1.0973 -0.3916
  791MOL0     C 4301   4.441   5.777   9.453  0.1923 -0.1748 -0.6563
  791MOL0     C 4302   4.331   5.888   9.459 -0.4001  0.5489  0.1918
  791MOL0     C 4303   4.356   5.985   9.566 -1.0800 -0.8371 -0.2101
  791MOL0     O 4304   4.291   6.107   9.514 -0.4049 -0.5219 -0.0699
  791MOL0     C 4305   4.164   6.137   9.522 -0.3079  0.4564  0.1681
  791MOL0     C 4306   4.075   6.044   9.558  1.2634 -0.0107 -0.0632
  791MOL0     C 4307   3.953   6.087   9.590  0.6297  0.1699  0.0517
  791MOL0     C 4308   3.914   6.228   9.583  0.5065  0.3981  0.6510
  791MOL0     C 4309   3.780   6.273   9.616  0.2435 -0.3130  0.0481
  791MOL0     O 4310   3.689   6.175   9.662  0.5235  0.6813 -0.1458
  791MOL0     C 4311   3.556   6.193   9.685  0.1580  0.0041  1.3295
  791MOL0     C 4312   3.515   6.288   9.772 -0.3570 -0.4923  0.2181
  791MOL0     C 4313   3.381   6.300   9.794  0.0168 -0.3767 -0.3037
  791MOL0     C 4314   3.291   6.232   9.724 -0.7463  0.2191  0.0817
  791MOL0     O 4315   3.158   6.252   9.742 -0.2019  0.2201  0.9634
  791MOL0     C 4316   3.087   6.272   9.864 -0.6399  0.0779  0.3408
  791MOL0     C 4317   2.938   6.217   9.857  0.5886 -0.1854  0.6540
  791MOL0     C 4318   2.952   6.066   9.832  0.1106 -0.6928  0.5125
  791MOL0     C 4319   2.816   6.009   9.853 -0.2604 -0.1249 -0.3157
  791MOL0     C 4320   2.805   5.863   9.798 -0.2530 -0.8438 -0.0621
  791MOL0     C 4321   2.919   5.776   9.846 -0.1071  0.8621 -0.5061
  791MOL0     C 4322   2.890   5.626   9.819  0.3179  0.3379 -1.2160
  791MOL0     C 4323   2.809   5.562   9.938 -0.2202 -0.3427 -0.2408
  791MOL0    Cl 4324   2.843   5.388   9.930  0.0004 -0.4943  0.3714
  791MOL0     C 4325   3.333   6.145   9.620  0.6490 -0.2625 -0.0267
  791MOL0     C 4326   3.464   6.118   9.610 -0.2200  0.0666 -0.0649
  791MOL0     O 4327   3.744   6.387   9.599 -0.1082 -0.4805  0.4461
  791MOL0     C 4328   4.004   6.321   9.530 -0.1514  0.4729 -0.4791
  791MOL0     C 4329   4.130   6.262   9.491 -0.1650 -0.3324  0.4339
  791MOL0     N 4330   4.669   5.659   9.263  0.0330  0.3461  0.7138
  791MOL0     N 4331   4.772   5.582   9.259 -0.0428  0.3534  0.0251
  791MOL0     C 4332   5.335   4.596   9.147  0.1136  0.0973 -0.0571
  791MOL0     C 4333   5.384   4.467   9.132 -0.3937  0.0473 -0.4156
  791MOL0     C 4334   5.489   4.034   9.168 -0.4083  0.3351 -0.0337
  791MOL0     C 4335   5.622   4.013   9.196 -0.1483  0.2076  0.1288
  791MOL0     C 4336   5.682   3.885   9.196  0.0104 -0.5514 -0.0476
  791MOL0     C 4337   5.615   3.774   9.155 -0.6337  0.3428 -0.9879
  791MOL0     O 4338   5.682   3.648   9.149  0.5404  0.3801  1.1911
  791MOL0     C 4339   5.682   3.581   9.018  0.2124 -0.5938  0.0145
  791MOL0     C 4340   5.818   3.534   8.983  0.0492  0.0846  0.8559
  791MOL0     C 4341   5.834   3.474   8.839 -0.1694 -0.5076 -0.8076
  791MOL0     C 4342   5.716   3.382   8.815 -0.3021  0.3109 -0.9436
  791MOL0     C 4343   5.707   3.269   8.911 -0.5974 -0.9514 -0.8571
  791MOL0     C 4344   5.714   3.167   8.973  0.4897  0.0902 -0.8678
  791MOL0     C 4345   5.479   3.789   9.121 -0.0732 -0.8005  0.2049
  791MOL0     C 4346   5.417   3.922   9.125  0.0716  1.0141 -0.8518
  791MOL0     H 4347   5.519   4.437   9.433 -0.9671  1.8460  0.6505
  791MOL0     H 4348   5.462   4.659   9.458 -1.6822 -2.5684  1.1750
  791MOL0     H 4349   5.483   4.880   9.401  1.2405  1.4046 -1.5043
  791MOL0     H 4350   5.309   4.904   9.451  0.1772  1.8082  1.4559
  791MOL0     H 4351   5.476   5.049   9.237  2.4410  2.0007  0.9493
  791MOL0     H 4352   5.447   5.104   9.409 -0.3993  2.5864 -0.7614
  791MOL0     H 4353   5.228   5.088   9.206 -0.5545  2.7371 -1.2756
  791MOL0     H 4354   5.318   5.233   9.255  0.1462 -0.0835 -1.2153
  791MOL0     H 4355   5.080   5.155   9.350 -1.1397 -1.6639  3.6553
  791MOL0     H 4356   5.161   5.055   9.451  0.5391  0.9370  0.1383
  791MOL0     H 4357   5.318   5.272   9.510 -0.5931 -4.0978  1.3892
  791MOL0     H 4358   5.170   5.256   9.595 -1.7848 -2.2675 -0.9580
  791MOL0     H 4359   5.220   5.411   9.338 -2.2296  0.6091 -1.0493
  791MOL0     H 4360   5.201   5.482   9.500  1.9697 -2.0946  1.1388
  791MOL0     H 4361   4.982   5.352   9.347  1.1997  0.6551 -0.9271
  791MOL0     H 4362   4.966   5.424   9.510 -0.5619 -0.3488  1.1118
  791MOL0     H 4363   5.038   5.559   9.258  2.9869 -4.4061 -0.1621
  791MOL0     H 4364   5.052   5.637   9.421 -4.0335  2.2292  0.7238
  791MOL0     H 4365   4.834   5.754   9.528  0.0047  0.8078 -1.0204
  791MOL0     H 4366   4.578   5.926   9.366  2.3370 -0.3328  0.2490
  791MOL0     H 4367   4.623   5.863   9.524 -0.1502 -0.0829 -0.9358
  791MOL0     H 4368   4.442   5.708   9.538 -2.0570  0.0065 -0.4354
  791MOL0     H 4369   4.418   5.714   9.367 -4.0431 -2.1128  1.5987
  791MOL0     H 4370   4.325   5.926   9.356  1.2389 -4.2313 -1.9568
  791MOL0     H 4371   4.235   5.838   9.478  0.9618 -1.8227  1.1268
  791MOL0     H 4372   4.460   6.001   9.595 -0.7204  0.5206 -2.0506
  791MOL0     H 4373   4.304   5.957   9.658  0.9652  1.7930  1.9314
  791MOL0     H 4374   4.097   5.939   9.573  3.3167  0.5014  1.0610
  791MOL0     H 4375   3.885   6.007   9.618  2.0700 -1.6738 -1.4795
  791MOL0     H 4376   3.590   6.353   9.816  0.9788 -1.1628 -0.9967
  791MOL0     H 4377   3.352   6.377   9.865  2.2706 -2.4632  3.2145
  791MOL0     H 4378   3.101   6.377   9.892  0.0969 -0.6161  2.7958
  791MOL0     H 4379   3.142   6.225   9.946  2.4165  0.9103 -1.0574
  791MOL0     H 4380   2.870   6.259   9.782  1.5832  0.5005  0.1247
  791MOL0     H 4381   2.883   6.230   9.951 -0.5803  2.1088 -0.2678
  791MOL0     H 4382   3.020   6.020   9.904 -1.8892 -2.8168  1.1684
  791MOL0     H 4383   2.982   6.043   9.729 -0.5141  0.2658  0.1018
  791MOL0     H 4384   2.789   6.009   9.959  0.7561 -1.1529 -0.0456
  791MOL0     H 4385   2.732   6.067   9.812  0.1836 -0.2327 -1.4009
  791MOL0     H 4386   2.792   5.875   9.690  1.7363  4.5250 -0.0425
  791MOL0     H 4387   2.712   5.825   9.841 -1.1121  1.3097  0.1238
  791MOL0     H 4388   2.935   5.810   9.949  0.4861  1.9898 -0.9527
  791MOL0     H 4389   3.015   5.790   9.795 -0.2613  3.7052 -0.1596
  791MOL0     H 4390   2.834   5.610   9.726  0.0611 -0.5132 -0.9193
  791MOL0     H 4391   2.985   5.571   9.814 -0.8945 -1.9133 -0.8146
  791MOL0     H 4392   2.700   5.572   9.930 -0.1148  2.4723  0.7039
  791MOL0     H 4393   2.840   5.606  10.034 -2.9646 -1.1267  1.0980
  791MOL0     H 4394   3.252   6.091   9.572  0.5958 -0.6659  0.4951
  791MOL0     H 4395   3.504   6.037   9.550  2.0415  0.2460  1.0825
  791MOL0     H 4396   3.977   6.426   9.524  0.3768  0.5995 -0.7022
  791MOL0     H 4397   4.217   6.322   9.468  0.5328 -1.3367  0.4000
  791MOL0     H 4398   5.291   4.642   9.059 -3.7442 -1.6571  0.7786
  791MOL0     H 4399   5.355   4.406   9.048  0.3394  0.8902 -1.3096
  791MOL0     H 4400   5.686   4.099   9.218  1.9399 -1.2027 -0.1398
  791MOL0     H 4401   5.787   3.872   9.219 -0.3078  1.2110  2.8078
  791MOL0     H 4402   5.636   3.640   8.938  0.2681 -1.1390 -0.4207
  791MOL0     H 4403   5.623   3.491   9.039  1.4077 -1.0753  1.4744
  791MOL0     H 4404   5.889   3.616   8.999  1.0831 -0.2949 -1.4216
  791MOL0     H 4405   5.848   3.456   9.054  0.9520 -0.2526  0.1204
  791MOL0     H 4406   5.931   3.423   8.832  0.6643  1.2316 -4.0664
  791MOL0     H 4407   5.834   3.555   8.765 -2.5266  0.7652  0.4724
  791MOL0     H 4408   5.617   3.430   8.814 -0.8243 -0.7402 -1.7557
  791MOL0     H 4409   5.730   3.327   8.721 -2.8256 -3.4135  0.6197
  791MOL0     H 4410   5.722   3.096   9.052  0.2064  0.0754 -0.8503
  791MOL0     H 4411   5.423   3.698   9.104 -1.7726  0.3737 -0.8438
  791MOL0     H 4412   5.311   3.935   9.103 -0.8742  0.8495  2.9349
  792MOL0     O 4413   3.895   3.682  11.263 -0.1041 -0.2170  0.0364
  792MOL0     C 4414   3.790   3.631  11.220 -0.1421  0.1178  0.8061
  792MOL0     O 4415   3.774   3.574  11.098 -0.4168  0.4721 -1.0029
  792MOL0     C 4416   3.886   3.560  11.015  0.5762 -0.3999 -0.1292
  792MOL0     C 4417   3.893   3.447  10.928 -0.1836  0.2061 -0.6573
  792MOL0     C 4418   3.991   3.435  10.841 -0.6655 -0.2165  1.0843
  792MOL0     C 4419   4.098   3.535  10.826 -0.5066  0.9359 -0.0136
  792MOL0     O 4420   4.199   3.513  10.731 -0.4599  0.3849 -0.4521
  792MOL0     C 4421   4.285   3.621  10.705  0.1497 -0.0819  0.3848
  792MOL0     C 4422   4.367   3.583  10.572  0.1876  0.0519 -0.1708
  792MOL0     C 4423   4.438   3.447  10.590  0.0241  0.3356 -0.1762
  792MOL0     C 4424   4.542   3.414  10.481  0.3670 -1.6091  0.0314
  792MOL0     C 4425   4.635   3.300  10.517  0.3811 -0.4866 -0.1291
  792MOL0     C 4426   4.714   3.263  10.398  0.7143 -0.0059 -0.1905
  792MOL0     C 4427   4.804   3.153  10.442 -0.2052  1.0371 -0.0644
  792MOL0     C 4428   4.894   3.099  10.334  0.2426  0.1474 -0.8973
  792MOL0     N 4429   4.994   3.188  10.286  0.0537 -0.0861  0.4735
  792MOL0     C 4430   5.105   3.213  10.350 -0.7985 -0.1184 -0.6097
  792MOL0     C 4431   5.173   3.306  10.276 -0.1986  1.0056 -0.0577
  792MOL0     C 4432   5.327   3.331  10.294  0.0555 -0.6892 -0.8336
  792MOL0     C 4433   5.417   3.236  10.220 -0.0866 -0.5409 -0.0009
  792MOL0     C 4434   5.561   3.299  10.213 -0.6613  0.0978 -0.8916
  792MOL0     C 4435   5.661   3.218  10.144 -0.7176 -0.2297  0.0446
  792MOL0     O 4436   5.629   3.197  10.012  0.5508  0.8955 -0.0848
  792MOL0     C 4437   5.703   3.113   9.936  0.0038  0.1672 -0.3971
  792MOL0     C 4438   5.809   3.044   9.991 -0.0558  1.2751  0.7526
  792MOL0     C 4439   5.879   2.953   9.908 -0.6204  0.2102 -0.2690
  792MOL0     C 4440   5.833   2.917   9.789  0.5268  0.2587  1.2382
  792MOL0     C 4441   5.899   2.813   9.706 -0.6021  0.7776 -0.3350
  792MOL0     O 4442   5.836   2.775   9.599 -0.0157  0.2497  0.4328
  792MOL0     C 4443   5.912   2.713   9.501  0.0213 -0.4584 -0.3092
  792MOL0     C 4444   5.926   2.569   9.512 -0.2215 -0.1672  0.0826
  792MOL0     C 4445   5.989   2.502   9.407 -0.7785 -0.0239  1.3332
  792MOL0     C 4446   6.040   2.571   9.296 -0.4861 -0.2779  0.5147
  792MOL0     O 4447   6.101   2.485   9.203  0.0646 -0.3516  0.1093
  792MOL0     C 4448   6.069   2.525   9.071 -0.3280 -0.8771 -1.2063
  792MOL0     C 4449   6.103   2.419   8.970 -0.1553 -0.9197  0.2215
  792MOL0     C 4450   6.002   2.311   8.959 -0.1657 -0.1330  0.0140
  792MOL0     C 4451   5.982   2.254   8.816  0.0164 -0.1062 -0.4355
  792MOL0     C 4452   5.887   2.146   8.820  0.1007 -0.5013  0.2224
  792MOL0     C 4453   5.911   2.067   8.688 -1.2040  0.1317 -0.1184
  792MOL0     C 4454   5.834   1.934   8.678  0.2686 -1.6549 -0.7271
  792MOL0     C 4455   5.855   1.860   8.555 -0.0075 -0.5331  0.6381
  792MOL0    Cl 4456   5.808   1.688   8.556  0.0795  0.2932 -0.0789
  792MOL0     C 4457   6.021   2.712   9.278  0.4158  0.3097  0.0814
  792MOL0     C 4458   5.962   2.783   9.387  1.4384 -0.2508  0.2303
  792MOL0     O 4459   6.006   2.761   9.747 -0.9739  0.4039 -0.0372
  792MOL0     C 4460   5.720   2.992   9.737 -0.0178  0.3074  0.4516
  792MOL0     C 4461   5.651   3.084   9.809  0.2340  0.2759 -0.5108
  792MOL0     N 4462   5.096   3.337  10.173  0.2956  0.5991  1.4256
  792MOL0     N 4463   4.981   3.272  10.185  0.0469 -0.1389  0.3984
  792MOL0     C 4464   4.094   3.644  10.914 -0.3383 -0.0348  0.0401
  792MOL0     C 4465   3.992   3.651  11.009  0.1277  0.4166  0.6305
  792MOL0     C 4466   3.656   3.650  11.293 -0.2582  0.3814 -0.5332
  792MOL0     C 4467   3.659   3.696  11.428  0.5414  1.5846  0.2769
  792MOL0     C 4468   3.545   3.711  11.498  0.0529 -1.0374 -0.5204
  792MOL0     C 4469   3.416   3.682  11.440 -0.3705 -0.1040 -0.1422
  792MOL0     O 4470   3.304   3.720  11.504 -0.3860  0.5206  0.8101
  792MOL0     C 4471   3.206   3.793  11.431 -0.1833 -1.3296  0.3520
  792MOL0     C 4472   3.059   3.749  11.452 -0.0696  0.3027  0.2446
  792MOL0     C 4473   3.050   3.599  11.448  0.2473  0.3224 -0.1373
  792MOL0     C 4474   2.899   3.543  11.461 -0.3670  0.3780  0.0507
  792MOL0     C 4475   2.827   3.597  11.573  0.4033 -0.1067 -1.1623
  792MOL0     C 4476   2.781   3.636  11.677  0.5990 -0.4162  0.0559
  792MOL0     C 4477   3.411   3.614  11.322 -0.8510  0.0057  0.1542
  792MOL0     C 4478   3.533   3.601  11.244 -0.1087 -0.5744 -0.1501
  792MOL0     H 4479   3.808   3.379  10.929 -1.5175  1.6793  2.8169
  792MOL0     H 4480   3.995   3.351  10.773 -1.2995  0.3559  0.3188
  792MOL0     H 4481   4.369   3.631  10.776  3.6118 -2.6759 -2.8993
  792MOL0     H 4482   4.231   3.714  10.689 -0.5629 -0.9123 -2.6482
  792MOL0     H 4483   4.446   3.659  10.572  0.8132 -0.5702 -1.1913
  792MOL0     H 4484   4.308   3.581  10.480 -0.9746 -0.6052  0.5685
  792MOL0     H 4485   4.353   3.379  10.590  0.1613  0.1291  1.2264
  792MOL0     H 4486   4.489   3.434  10.686  1.6966 -0.8293 -1.1639
  792MOL0     H 4487   4.474   3.386  10.400  1.3871  0.8927 -1.8587
  792MOL0     H 4488   4.606   3.502  10.463 -0.6591 -0.6975  0.7382
  792MOL0     H 4489   4.568   3.222  10.554 -0.6650  0.8128  0.8347
  792MOL0     H 4490   4.707   3.326  10.596 -0.2879 -0.1863  0.3939
  792MOL0     H 4491   4.774   3.352  10.379 -1.5464  2.1823  2.1583
  792MOL0     H 4492   4.646   3.239  10.315 -1.2236  2.0000  0.6976
  792MOL0     H 4493   4.856   3.181  10.534 -0.7530  1.7169  0.0466
  792MOL0     H 4494   4.738   3.073  10.477 -0.4275  1.8042  1.3168
  792MOL0     H 4495   4.845   3.041  10.255  1.0379 -2.4358  0.3927
  792MOL0     H 4496   4.958   3.025  10.383  1.9376  1.1714 -1.4429
  792MOL0     H 4497   5.136   3.156  10.437  0.7178 -2.9222 -2.7901
  792MOL0     H 4498   5.354   3.331  10.400 -0.3190 -0.8182 -0.7360
  792MOL0     H 4499   5.359   3.428  10.253  1.0192  1.3849  4.0971
  792MOL0     H 4500   5.377   3.223  10.119 -0.4209  4.0010 -0.6837
  792MOL0     H 4501   5.432   3.139  10.268 -1.4382 -0.3897  0.7576
  792MOL0     H 4502   5.552   3.395  10.162 -3.2000  0.1566 -0.4838
  792MOL0     H 4503   5.602   3.324  10.312  2.1465 -0.1577 -1.8965
  792MOL0     H 4504   5.660   3.124  10.198 -1.5848  0.1694  0.7368
  792MOL0     H 4505   5.756   3.271  10.158 -0.7523  0.3791 -1.7263
  792MOL0     H 4506   5.839   3.045  10.095 -0.4121  1.0049  0.8594
  792MOL0     H 4507   5.979   2.926   9.941  0.9485  5.2185 -0.0891
  792MOL0     H 4508   5.884   2.517   9.598  1.1204 -1.5751 -0.0722
  792MOL0     H 4509   5.985   2.395   9.388  1.0504  0.0461  0.3876
  792MOL0     H 4510   6.133   2.608   9.039 -0.9575 -0.6423 -1.9001
  792MOL0     H 4511   5.961   2.542   9.081  0.2434  1.5844  3.7224
  792MOL0     H 4512   6.196   2.365   8.991  0.9815  1.0829  0.6694
  792MOL0     H 4513   6.127   2.465   8.873  1.2773 -1.6691  0.1922
  792MOL0     H 4514   5.912   2.354   9.004  1.2955  1.9810  1.0740
  792MOL0     H 4515   6.039   2.231   9.024 -1.8756 -2.0608 -1.2652
  792MOL0     H 4516   5.948   2.329   8.743 -1.8865  2.5617  2.8683
  792MOL0     H 4517   6.076   2.211   8.783  1.9312 -0.1304  4.2319
  792MOL0     H 4518   5.782   2.178   8.826  0.4554  0.5798  0.9797
  792MOL0     H 4519   5.903   2.076   8.903  2.1840 -2.9003 -2.0562
  792MOL0     H 4520   6.017   2.037   8.683 -0.6620  2.0786 -1.9814
  792MOL0     H 4521   5.895   2.131   8.601  0.0812  1.2121  0.4161
  792MOL0     H 4522   5.861   1.862   8.755 -0.2422 -4.2273 -2.8231
  792MOL0     H 4523   5.727   1.946   8.701  0.6504 -1.8987  1.3855
  792MOL0     H 4524   5.961   1.867   8.526 -0.0859 -2.9908 -0.5181
  792MOL0     H 4525   5.797   1.910   8.476  0.6025  0.8431  1.0291
  792MOL0     H 4526   6.059   2.767   9.193  1.1157 -0.4289 -0.0925
  792MOL0     H 4527   5.950   2.891   9.389  3.8927  0.0884  2.1190
  792MOL0     H 4528   5.668   2.978   9.643 -3.3324 -3.7116  2.5233
  792MOL0     H 4529   5.572   3.145   9.767  0.8000 -0.6874 -3.1851
  792MOL0     H 4530   4.175   3.716  10.915 -1.1074  0.9926  3.8730
  792MOL0     H 4531   3.985   3.741  11.069 -2.6298  1.0325 -0.4475
  792MOL0     H 4532   3.762   3.710  11.459  0.1042  1.9941  1.5936
  792MOL0     H 4533   3.556   3.749  11.599  1.6047 -2.0106 -0.2939
  792MOL0     H 4534   3.224   3.784  11.323 -0.9472 -2.7888  0.3220
  792MOL0     H 4535   3.217   3.896  11.466  2.8826 -0.8718 -1.5245
  792MOL0     H 4536   3.023   3.789  11.548 -2.3442 -0.3100 -0.3061
  792MOL0     H 4537   2.998   3.788  11.371 -2.5192 -1.1372  1.2873
  792MOL0     H 4538   3.114   3.562  11.529  1.5438 -0.6144 -1.5440
  792MOL0     H 4539   3.090   3.570  11.350 -0.8366  0.8585 -0.7541
  792MOL0     H 4540   2.844   3.560  11.368 -0.4019 -0.9594 -0.1991
  792MOL0     H 4541   2.898   3.433  11.468  1.6464  0.2681 -0.6984
  792MOL0     H 4542   2.714   3.667  11.756 -0.9124  1.8297 -1.9694
  792MOL0     H 4543   3.332   3.561  11.270 -2.2540  1.8346  0.3267
  792MOL0     H 4544   3.527   3.553  11.147  0.4520 -3.3636  1.0967
  793MOL0     O 4545   7.536   1.809   4.509  0.1096  0.9847 -0.4960
  793MOL0     C 4546   7.531   1.731   4.610 -0.3654  0.0821  0.1412
  793MOL0     O 4547   7.628   1.644   4.647  0.0921  0.5838 -0.1113
  793MOL0     C 4548   7.719   1.596   4.557  0.0311  1.3172  0.6890
  793MOL0     C 4549   7.714   1.612   4.420  0.8282  0.3981  0.2296
  793MOL0     C 4550   7.814   1.562   4.337  0.2640 -0.5072 -1.3043
  793MOL0     C 4551   7.928   1.499   4.383 -0.4271 -0.3849 -0.2939
  793MOL0     O 4552   8.035   1.464   4.304 -0.1356 -0.2277 -0.7437
  793MOL0     C 4553   8.001   1.380   4.194 -0.2489 -0.5237  0.0234
  793MOL0     C 4554   8.116   1.300   4.160  0.0510 -0.1757 -0.7841
  793MOL0     C 4555   8.236   1.370   4.089  1.2332  0.4670  0.7452
  793MOL0     C 4556   8.360   1.286   4.119 -0.6207  0.7298  0.4863
  793MOL0     C 4557   8.478   1.355   4.039 -0.0198  0.3385 -0.5342
  793MOL0     C 4558   8.619   1.300   4.050 -0.8355  1.1340 -0.2964
  793MOL0     C 4559   8.632   1.148   4.041  0.0997 -0.7281  0.0363
  793MOL0     C 4560   8.779   1.113   4.045 -0.5851 -0.6906  0.6418
  793MOL0     N 4561   8.800   0.967   4.017 -0.6912  0.4685  1.0722
  793MOL0     C 4562   8.842   0.919   3.894  0.7291  0.3604  0.8044
  793MOL0     C 4563   8.885   0.793   3.914 -0.4464  0.1561  0.4032
  793MOL0     C 4564   8.938   0.700   3.806  0.4030 -0.0118  0.0093
  793MOL0     C 4565   9.092   0.711   3.790 -0.5606 -0.6151 -0.4518
  793MOL0     C 4566   9.142   0.675   3.652 -0.5216 -0.0745  0.7648
  793MOL0     C 4567   9.104   0.784   3.550 -0.6104 -0.3406 -0.6891
  793MOL0     O 4568   9.205   0.797   3.453  0.3612 -0.6448  0.0003
  793MOL0     C 4569   9.221   0.704   3.353  0.0368  0.3554  0.2846
  793MOL0     C 4570   9.155   0.579   3.346  0.4632 -0.4547 -0.3009
  793MOL0     C 4571   9.165   0.494   3.242 -0.1561  0.0768  0.6559
  793MOL0     C 4572   9.251   0.531   3.133 -0.2050 -0.2337 -0.7784
  793MOL0     C 4573   9.256   0.433   3.020 -0.6695 -0.3487  0.1461
  793MOL0     O 4574   9.372   0.423   2.956 -0.4170 -0.1714 -0.3337
  793MOL0     C 4575   9.384   0.333   2.848 -0.4191  0.3612  0.2239
  793MOL0     C 4576   9.420   0.203   2.885 -0.3331  0.0969  0.2911
  793MOL0     C 4577   9.403   0.104   2.783  0.1188  0.6687 -1.1243
  793MOL0     C 4578   9.371   0.132   2.656  0.9830  0.6464 -0.6108
  793MOL0     O 4579   9.338   0.035   2.568 -0.3409 -0.2516  0.5503
  793MOL0     C 4580   9.378  -0.101   2.592  0.3125  0.7740 -0.1181
  793MOL0     C 4581   9.349  -0.187   2.469  0.6483 -0.4790  0.1223
  793MOL0     C 4582   9.332  -0.333   2.496  0.3201 -0.7631 -0.7359
  793MOL0     C 4583   9.462  -0.386   2.570  0.3128  0.9704 -0.1775
  793MOL0     C 4584   9.442  -0.536   2.617  0.4877 -0.3176 -1.4684
  793MOL0     C 4585   9.566  -0.594   2.682 -0.4402 -0.0084 -0.9646
  793MOL0     C 4586   9.539  -0.739   2.731  0.8486 -0.6030  0.6275
  793MOL0     C 4587   9.663  -0.821   2.732 -0.1533 -0.0217 -0.4402
  793MOL0    Cl 4588   9.652  -0.992   2.775 -0.1710  0.0170 -0.1078
  793MOL0     C 4589   9.356   0.265   2.620 -0.3883  0.8137 -0.4808
  793MOL0     C 4590   9.350   0.365   2.718 -0.2018  0.1845  0.2074
  793MOL0     O 4591   9.143   0.404   2.979  0.3716  0.4650  0.2412
  793MOL0     C 4592   9.338   0.646   3.146  0.0432  0.5354  0.2757
  793MOL0     C 4593   9.317   0.734   3.253  0.3060  0.8221 -0.1012
  793MOL0     N 4594   8.867   0.762   4.045  0.0457 -0.3148  0.1637
  793MOL0     N 4595   8.812   0.860   4.101  0.6491 -1.0720 -0.1956
  793MOL0     C 4596   7.940   1.484   4.525  0.6383 -0.1194 -0.2982
  793MOL0     C 4597   7.835   1.528   4.606 -0.1906 -0.5508 -0.4418
  793MOL0     C 4598   7.421   1.751   4.707  0.1501 -0.7710 -0.7880
  793MOL0     C 4599   7.404   1.656   4.810  0.4750 -0.3371  0.7795
  793MOL0     C 4600   7.299   1.672   4.899 -1.1097  0.5376 -0.3864
  793MOL0     C 4601   7.209   1.777   4.885 -0.5188 -0.6245  0.4117
  793MOL0     O 4602   7.120   1.826   4.978 -0.4848 -0.3150 -0.2132
  793MOL0     C 4603   7.011   1.736   4.992 -0.1786 -0.4690 -0.0776
  793MOL0     C 4604   6.898   1.753   4.887  0.4652  0.3915 -0.3345
  793MOL0     C 4605   6.771   1.676   4.920  1.2100 -0.1766  0.2057
  793MOL0     C 4606   6.667   1.656   4.806 -0.4176  0.3814  0.2543
  793MOL0     C 4607   6.553   1.600   4.865  0.3961 -0.1587 -0.1978
  793MOL0     C 4608   6.460   1.553   4.912  0.9898  0.0917  0.1107
  793MOL0     C 4609   7.205   1.861   4.777 -0.8569 -0.0156 -0.4076
  793MOL0     C 4610   7.309   1.846   4.685  0.4599  0.1978 -0.6138
  793MOL0     H 4611   7.632   1.658   4.366 -0.2944 -1.9292 -0.1659
  793MOL0     H 4612   7.806   1.576   4.230  1.5038 -0.7506 -1.4515
  793MOL0     H 4613   7.975   1.451   4.115 -0.3463  0.2870  0.7760
  793MOL0     H 4614   7.912   1.320   4.217 -1.3180  1.2117  0.6292
  793MOL0     H 4615   8.074   1.225   4.093  0.1074 -3.4209  2.5073
  793MOL0     H 4616   8.163   1.263   4.252  4.3650  2.2121 -1.7007
  793MOL0     H 4617   8.246   1.470   4.131 -1.0640 -0.1792  3.1071
  793MOL0     H 4618   8.228   1.393   3.982 -0.3300  0.9428  0.9449
  793MOL0     H 4619   8.371   1.283   4.228 -1.4664  2.1417  0.6239
  793MOL0     H 4620   8.337   1.186   4.080 -1.2408  1.2261 -0.4433
  793MOL0     H 4621   8.479   1.463   4.058 -0.9965  0.2343  0.2205
  793MOL0     H 4622   8.452   1.329   3.936  2.4663 -0.4409 -1.0284
  793MOL0     H 4623   8.662   1.335   4.144  0.2356 -0.2353 -0.2426
  793MOL0     H 4624   8.680   1.342   3.970 -1.3443  1.9707 -0.2577
  793MOL0     H 4625   8.574   1.095   4.118 -1.6522 -1.8184 -1.9115
  793MOL0     H 4626   8.590   1.116   3.945 -0.5640 -0.3811  0.2034
  793MOL0     H 4627   8.808   1.128   4.149  1.2425 -0.1470  0.1036
  793MOL0     H 4628   8.849   1.167   3.980  0.6086 -2.3676  0.4359
  793MOL0     H 4629   8.855   0.981   3.805  1.3678 -2.9537 -1.6005
  793MOL0     H 4630   8.894   0.734   3.712 -2.5221  0.1218  1.3376
  793MOL0     H 4631   8.911   0.596   3.824 -0.2279 -1.0626 -5.1943
  793MOL0     H 4632   9.151   0.650   3.859 -3.1923 -0.4921  2.1032
  793MOL0     H 4633   9.117   0.817   3.796  0.4964 -0.8432 -0.5359
  793MOL0     H 4634   9.246   0.642   3.650 -0.7245 -1.3781  4.5569
  793MOL0     H 4635   9.092   0.580   3.630 -1.3072  0.3596  0.6307
  793MOL0     H 4636   9.097   0.885   3.593 -4.2863 -1.2886  1.4035
  793MOL0     H 4637   9.007   0.755   3.509 -0.6310  0.1930 -1.0429
  793MOL0     H 4638   9.097   0.551   3.434  1.8271 -0.5931  0.5963
  793MOL0     H 4639   9.099   0.408   3.236 -0.9725  0.7275 -0.0086
  793MOL0     H 4640   9.434   0.160   2.983 -5.0292 -1.2832  0.6327
  793MOL0     H 4641   9.402   0.004   2.825 -1.0324  0.5944 -1.3065
  793MOL0     H 4642   9.312  -0.141   2.670 -3.6980  0.2109 -3.4571
  793MOL0     H 4643   9.485  -0.100   2.617  1.0298  0.6651 -2.8862
  793MOL0     H 4644   9.430  -0.176   2.396 -0.6589  0.8199 -1.2127
  793MOL0     H 4645   9.262  -0.153   2.413  1.4487 -0.7165 -1.3175
  793MOL0     H 4646   9.299  -0.371   2.399  0.9979  0.3295 -1.4112
  793MOL0     H 4647   9.248  -0.342   2.566  0.3616 -2.4608 -0.8705
  793MOL0     H 4648   9.545  -0.389   2.499  2.0116 -1.5943  1.7093
  793MOL0     H 4649   9.486  -0.335   2.664 -0.7332  0.3706  0.4294
  793MOL0     H 4650   9.413  -0.599   2.533 -0.5415 -0.7316 -0.8259
  793MOL0     H 4651   9.366  -0.532   2.696  0.7559  0.0085 -1.2234
  793MOL0     H 4652   9.594  -0.531   2.767  1.0010  2.1371 -2.8997
  793MOL0     H 4653   9.657  -0.595   2.621  0.4425 -0.2520  0.3079
  793MOL0     H 4654   9.488  -0.755   2.827 -2.0810  1.1584 -0.4872
  793MOL0     H 4655   9.474  -0.776   2.651 -0.3979 -0.3020  1.4711
  793MOL0     H 4656   9.731  -0.762   2.794  1.9649  0.7863 -3.3201
  793MOL0     H 4657   9.702  -0.813   2.631 -2.0813  1.1780 -1.1356
  793MOL0     H 4658   9.315   0.289   2.522  2.7312  0.3428 -2.0423
  793MOL0     H 4659   9.330   0.470   2.696  0.9525  0.5166  0.6246
  793MOL0     H 4660   9.412   0.672   3.071  0.3218  1.0151  0.7092
  793MOL0     H 4661   9.380   0.821   3.267  0.7456  0.2460  1.7303
  793MOL0     H 4662   8.027   1.439   4.572  0.8579  1.7761  1.2909
  793MOL0     H 4663   7.838   1.517   4.714  1.7403  2.0140 -0.1542
  793MOL0     H 4664   7.462   1.565   4.813 -0.6145 -1.0204  1.9918
  793MOL0     H 4665   7.304   1.594   4.973  1.7456 -1.9763 -2.9453
  793MOL0     H 4666   6.969   1.732   5.092  2.1393 -1.1060  0.9397
  793MOL0     H 4667   7.046   1.633   4.998 -2.6114 -1.3174  0.6488
  793MOL0     H 4668   6.884   1.861   4.876  1.7833  0.7830  1.3190
  793MOL0     H 4669   6.931   1.723   4.787 -1.0953 -1.8708 -0.2371
  793MOL0     H 4670   6.721   1.731   5.000  3.4224  0.7361  1.0410
  793MOL0     H 4671   6.792   1.575   4.958 -1.1586 -2.6797 -4.3381
  793MOL0     H 4672   6.646   1.757   4.770  5.1450  2.3342  1.4896
  793MOL0     H 4673   6.698   1.591   4.723 -1.7630  1.2403 -0.9846
  793MOL0     H 4674   6.378   1.516   4.971  0.6419 -0.4179 -0.6802
  793MOL0     H 4675   7.138   1.943   4.752 -1.2002 -0.5215 -1.2235
  793MOL0     H 4676   7.322   1.920   4.606 -1.5126 -0.3021 -1.4653
  794MOL0     O 4677   0.386   2.449   7.098 -0.3921  0.0012  0.3841
  794MOL0     C 4678   0.296   2.373   7.086  0.0803  0.6359  0.4709
  794MOL0     O 4679   0.163   2.408   7.066  0.2745 -0.8467  0.5662
  794MOL0     C 4680   0.137   2.543   7.097 -0.6611  1.0222  0.1630
  794MOL0     C 4681   0.155   2.633   6.997  0.9805 -0.4032 -0.0379
  794MOL0     C 4682   0.137   2.771   7.028 -0.9237  0.0643  0.4494
  794MOL0     C 4683   0.093   2.814   7.161  0.7288  0.3623  0.8808
  794MOL0     O 4684   0.109   2.953   7.176  0.0997 -0.0435 -0.5317
  794MOL0     C 4685   0.143   2.995   7.309 -0.7551  0.1790 -0.5289
  794MOL0     C 4686   0.209   3.140   7.299  0.4120  0.0124  0.1101
  794MOL0     C 4687   0.199   3.205   7.447 -0.3563 -0.9027  0.5757
  794MOL0     C 4688   0.055   3.255   7.496  0.5723  0.9516 -0.0234
  794MOL0     C 4689   0.063   3.383   7.573  0.7235  0.2150 -0.7666
  794MOL0     C 4690   0.013   3.504   7.486 -0.5224 -0.0230 -0.4918
  794MOL0     C 4691   0.103   3.539   7.367 -0.8162  0.6719 -0.2415
  794MOL0     C 4692   0.008   3.546   7.237 -0.2941  0.2849  0.3628
  794MOL0     N 4693  -0.052   3.677   7.234 -0.7620 -0.0576  0.9594
  794MOL0     C 4694  -0.188   3.696   7.231  0.8623  0.1150  0.5917
  794MOL0     C 4695  -0.207   3.826   7.237  0.5576 -0.8994 -0.4126
  794MOL0     C 4696  -0.340   3.883   7.215  1.1403 -0.2885 -0.5262
  794MOL0     C 4697  -0.396   3.973   7.331 -0.4082 -0.2179  0.5589
  794MOL0     C 4698  -0.533   4.033   7.294 -0.1144  0.4285 -0.2969
  794MOL0     C 4699  -0.564   4.155   7.380 -0.7097 -0.2475 -0.5204
  794MOL0     O 4700  -0.470   4.255   7.351  0.1463 -0.5872  0.2561
  794MOL0     C 4701  -0.488   4.338   7.250  0.6439 -0.8679  1.8479
  794MOL0     C 4702  -0.444   4.306   7.123 -0.4476  0.1346  0.0457
  794MOL0     C 4703  -0.460   4.399   7.014  0.3523 -0.4268 -0.3316
  794MOL0     C 4704  -0.531   4.521   7.031  0.0574 -1.1333  0.8203
  794MOL0     C 4705  -0.547   4.607   6.909 -0.7888 -0.6454 -0.1088
  794MOL0     O 4706  -0.553   4.548   6.782 -0.4534 -0.2011  0.0132
  794MOL0     C 4707  -0.585   4.621   6.672 -0.6367 -0.1283 -0.7120
  794MOL0     C 4708  -0.636   4.753   6.658  0.5464  0.1342 -1.0407
  794MOL0     C 4709  -0.659   4.812   6.536  0.8246 -0.6006 -0.1114
  794MOL0     C 4710  -0.638   4.739   6.422  0.1369  0.1957  0.1085
  794MOL0     O 4711  -0.673   4.780   6.295 -0.2914 -0.5144  0.1922
  794MOL0     C 4712  -0.781   4.874   6.291  0.6571  0.6427  0.1809
  794MOL0     C 4713  -0.838   4.867   6.149  0.2166  0.2336 -0.5429
  794MOL0     C 4714  -0.986   4.882   6.157  0.6211 -0.2669 -0.0805
  794MOL0     C 4715  -1.024   5.020   6.207 -0.1767 -0.0796  0.7483
  794MOL0     C 4716  -1.162   5.062   6.176  0.1901 -0.2231  0.4746
  794MOL0     C 4717  -1.183   5.138   6.045 -0.3515  0.3248 -1.2328
  794MOL0     C 4718  -1.106   5.273   6.037 -0.7376 -0.9603 -0.1891
  794MOL0     C 4719  -1.158   5.364   5.921  0.3073 -0.5077 -0.6698
  794MOL0    Cl 4720  -1.319   5.430   5.939  0.2157  0.0365  0.2348
  794MOL0     C 4721  -0.585   4.614   6.429 -0.2493 -0.4661  0.2568
  794MOL0     C 4722  -0.545   4.557   6.553  0.0546 -0.5109  0.8749
  794MOL0     O 4723  -0.568   4.720   6.933  0.1226  0.0885 -0.4608
  794MOL0     C 4724  -0.588   4.553   7.158  0.1326  0.3927  0.5642
  794MOL0     C 4725  -0.561   4.455   7.263  0.1441 -0.5365 -0.3599
  794MOL0     N 4726  -0.088   3.889   7.258  0.3291 -0.4321  1.0109
  794MOL0     N 4727   0.004   3.805   7.242  1.4373 -0.3408  0.0856
  794MOL0     C 4728   0.083   2.709   7.260 -0.0298  0.7499 -0.4079
  794MOL0     C 4729   0.103   2.578   7.225  0.4579  0.0876  0.6670
  794MOL0     C 4730   0.334   2.231   7.098  1.2256  0.5949 -0.5454
  794MOL0     C 4731   0.225   2.139   7.146  0.2159 -0.6345 -0.3442
  794MOL0     C 4732   0.268   2.009   7.157  0.1118 -0.6178  0.0388
  794MOL0     C 4733   0.390   1.965   7.109 -0.2945 -0.3969  0.0093
  794MOL0     O 4734   0.427   1.837   7.123  0.4308 -0.9491 -0.6052
  794MOL0     C 4735   0.449   1.787   7.256  0.2580 -0.2908  0.0391
  794MOL0     C 4736   0.425   1.630   7.248  0.1403  0.0346  0.7980
  794MOL0     C 4737   0.499   1.558   7.139  0.2958 -0.2237 -0.0903
  794MOL0     C 4738   0.504   1.402   7.167 -0.0309 -0.0260 -0.0377
  794MOL0     C 4739   0.610   1.357   7.263 -0.6569  0.5671  0.8830
  794MOL0     C 4740   0.705   1.332   7.345  0.2642  0.8642  0.2333
  794MOL0     C 4741   0.486   2.051   7.054  0.0877  0.1142 -0.6931
  794MOL0     C 4742   0.462   2.185   7.062  1.1179 -0.4933  0.1439
  794MOL0     H 4743   0.186   2.622   6.893  1.6399  0.2903  0.0779
  794MOL0     H 4744   0.144   2.836   6.942  0.7868 -0.2843  0.2983
  794MOL0     H 4745   0.219   2.920   7.330 -0.2992  0.5586 -0.7976
  794MOL0     H 4746   0.062   2.979   7.380  1.0116  0.7670  1.7233
  794MOL0     H 4747   0.151   3.191   7.221 -0.9415 -2.2407 -0.4604
  794MOL0     H 4748   0.310   3.127   7.259  0.4687 -2.9561  0.9620
  794MOL0     H 4749   0.251   3.301   7.450 -2.2898  0.1577  1.6601
  794MOL0     H 4750   0.243   3.129   7.512 -0.6354 -0.2525  1.5405
  794MOL0     H 4751  -0.010   3.260   7.409 -1.4778 -1.3049  1.2450
  794MOL0     H 4752   0.015   3.166   7.545 -2.1153  0.8215 -2.2396
  794MOL0     H 4753   0.164   3.392   7.615 -0.0129 -1.4622  1.4955
  794MOL0     H 4754  -0.005   3.383   7.658  0.8631 -0.3417 -0.6545
  794MOL0     H 4755   0.004   3.593   7.549 -2.9380  2.9126 -4.5772
  794MOL0     H 4756  -0.090   3.484   7.455 -0.3683 -0.8390 -0.4960
  794MOL0     H 4757   0.159   3.628   7.398  0.1543 -0.4793  1.4552
  794MOL0     H 4758   0.182   3.464   7.353 -2.3923 -1.0253 -0.3259
  794MOL0     H 4759  -0.062   3.463   7.245  1.1819 -0.8378  2.5603
  794MOL0     H 4760   0.084   3.525   7.161  0.0630 -2.0006  1.2768
  794MOL0     H 4761  -0.258   3.613   7.225 -0.8737  1.6283 -1.9513
  794MOL0     H 4762  -0.398   3.792   7.199  1.2452 -0.4415 -0.0573
  794MOL0     H 4763  -0.341   3.925   7.114  0.7406 -3.3032 -1.8848
  794MOL0     H 4764  -0.329   4.058   7.342 -0.3541  0.3540 -2.9113
  794MOL0     H 4765  -0.405   3.923   7.428 -3.5263 -0.7603  0.1115
  794MOL0     H 4766  -0.526   4.067   7.190  1.1100 -3.0409 -1.4999
  794MOL0     H 4767  -0.609   3.955   7.304  0.2968  0.0979  0.3362
  794MOL0     H 4768  -0.553   4.139   7.488  3.3914  0.8562 -0.6233
  794MOL0     H 4769  -0.662   4.197   7.356  0.2291  1.1543 -2.1517
  794MOL0     H 4770  -0.399   4.209   7.106 -3.9057 -1.8128  1.1361
  794MOL0     H 4771  -0.419   4.380   6.916  0.6536 -1.9105  0.0550
  794MOL0     H 4772  -0.667   4.810   6.745  0.7122 -0.1140 -0.8137
  794MOL0     H 4773  -0.715   4.905   6.532 -0.3605 -1.2421  0.9561
  794MOL0     H 4774  -0.747   4.973   6.323  1.0495  0.8602 -0.8815
  794MOL0     H 4775  -0.851   4.839   6.368  0.8698  1.4668  0.7649
  794MOL0     H 4776  -0.847   4.768   6.101 -1.9539  0.0699  0.0732
  794MOL0     H 4777  -0.806   4.938   6.073 -0.6580  2.7711  1.3265
  794MOL0     H 4778  -1.030   4.812   6.229 -4.5135 -1.8165 -4.1421
  794MOL0     H 4779  -1.031   4.861   6.060 -0.8274 -0.6413  0.6492
  794MOL0     H 4780  -1.019   5.040   6.315 -1.8036 -0.5803  0.9529
  794MOL0     H 4781  -0.951   5.092   6.170 -0.7647  1.4651  2.4138
  794MOL0     H 4782  -1.188   5.134   6.254  0.1918  1.0447 -0.6454
  794MOL0     H 4783  -1.234   4.980   6.179  0.5927 -0.5463  1.6871
  794MOL0     H 4784  -1.287   5.146   6.012 -1.2633 -1.9226  0.8300
  794MOL0     H 4785  -1.152   5.069   5.966 -0.2590 -3.1497  1.5621
  794MOL0     H 4786  -1.128   5.320   6.133  0.5778  1.5030 -0.9966
  794MOL0     H 4787  -0.998   5.256   6.030 -0.1231  2.7872 -2.8025
  794MOL0     H 4788  -1.152   5.300   5.832  2.9140 -0.9966 -0.2333
  794MOL0     H 4789  -1.084   5.443   5.907  1.9220 -1.4405  1.8770
  794MOL0     H 4790  -0.564   4.558   6.338  0.8563 -2.3150  1.5683
  794MOL0     H 4791  -0.503   4.457   6.550 -1.5019 -1.3261 -4.5894
  794MOL0     H 4792  -0.644   4.642   7.186 -1.0865 -0.0925 -0.2261
  794MOL0     H 4793  -0.606   4.481   7.358 -1.4758  2.8752 -1.8475
  794MOL0     H 4794   0.050   2.733   7.361 -0.4268 -1.5765  0.0710
  794MOL0     H 4795   0.087   2.500   7.299 -0.7281  0.2196  0.5540
  794MOL0     H 4796   0.120   2.164   7.153 -1.1483 -5.7086  3.0982
  794MOL0     H 4797   0.204   1.929   7.192  0.2565 -0.9335 -0.4001
  794MOL0     H 4798   0.390   1.835   7.335  1.4787 -0.3139  0.9950
  794MOL0     H 4799   0.555   1.803   7.280 -0.0133  1.9085 -0.0218
  794MOL0     H 4800   0.469   1.600   7.344  0.6881 -0.9932  0.2461
  794MOL0     H 4801   0.322   1.597   7.237 -0.1812  1.0496  0.6249
  794MOL0     H 4802   0.596   1.607   7.131  0.3784 -0.3041  0.4298
  794MOL0     H 4803   0.441   1.577   7.048 -1.0830  0.4078  0.8993
  794MOL0     H 4804   0.411   1.368   7.211  1.6652 -0.0507  3.9643
  794MOL0     H 4805   0.528   1.354   7.072  1.8333 -0.2798  0.5213
  794MOL0     H 4806   0.785   1.306   7.412  1.0705 -0.2969 -1.1287
  794MOL0     H 4807   0.576   2.001   7.018 -0.9575 -2.2247 -0.2469
  794MOL0     H 4808   0.547   2.243   7.028  2.0230 -3.2171 -2.7464
  795MOL0     O 4809   0.664  10.971   1.110 -0.6432  0.0274  0.4216
  795MOL0     C 4810   0.580  11.026   1.179 -0.2233 -0.5689  0.2829
  795MOL0     O 4811   0.601  11.106   1.284 -0.1072 -0.3816  0.0265
  795MOL0     C 4812   0.733  11.122   1.332 -0.2860  0.1788 -0.4180
  795MOL0     C 4813   0.751  11.138   1.465 -0.2102  0.7310  0.9314
  795MOL0     C 4814   0.875  11.175   1.515 -0.4241  0.9643  0.0223
  795MOL0     C 4815   0.990  11.199   1.430 -0.4149  0.0198 -0.0577
  795MOL0     O 4816   1.114  11.233   1.482  0.3817 -0.2009  0.7546
  795MOL0     C 4817   1.213  11.142   1.435  0.3745  0.0845 -0.1102
  795MOL0     C 4818   1.345  11.191   1.493 -0.3990  0.2891  1.1464
  795MOL0     C 4819   1.397  11.330   1.438  0.8974 -0.0246  0.4097
  795MOL0     C 4820   1.545  11.362   1.467 -0.4366 -0.2717 -1.7017
  795MOL0     C 4821   1.577  11.501   1.414 -0.1994  0.8419  0.6622
  795MOL0     C 4822   1.550  11.532   1.268 -0.1043  0.5199  0.5080
  795MOL0     C 4823   1.629  11.648   1.214 -0.3565 -0.6120 -0.6070
  795MOL0     C 4824   1.769  11.606   1.177 -0.4966 -0.2252 -0.0600
  795MOL0     N 4825   1.846  11.723   1.122  0.1236 -0.8364 -0.1618
  795MOL0     C 4826   1.980  11.748   1.148 -0.0888  0.7564  0.4311
  795MOL0     C 4827   2.001  11.869   1.087  0.2680  0.2224  0.7993
  795MOL0     C 4828   2.130  11.935   1.070  0.1165  0.0065 -0.4216
  795MOL0     C 4829   2.167  11.994   1.205 -0.2493  1.2034 -0.7607
  795MOL0     C 4830   2.297  12.065   1.196  0.4043  0.7599 -0.4105
  795MOL0     C 4831   2.393  12.003   1.289 -0.0522  0.3446  0.1880
  795MOL0     O 4832   2.495  12.096   1.295 -0.3387  0.1391 -0.5212
  795MOL0     C 4833   2.599  12.077   1.381  0.3150  0.0383  0.3789
  795MOL0     C 4834   2.687  12.178   1.387 -1.2076 -0.7822  1.0217
  795MOL0     C 4835   2.786  12.178   1.492  0.8509  0.1562 -0.0189
  795MOL0     C 4836   2.801  12.071   1.574  0.1871  1.4431 -0.2742
  795MOL0     C 4837   2.910  12.063   1.669 -0.6529 -0.4651  0.0875
  795MOL0     O 4838   2.886  11.984   1.786 -0.1027 -0.0949 -0.2693
  795MOL0     C 4839   2.984  11.995   1.871 -0.5076  0.5500 -0.6880
  795MOL0     C 4840   3.099  11.918   1.866  0.2815  0.0772  0.2116
  795MOL0     C 4841   3.199  11.933   1.952 -0.9024 -0.7464 -0.1967
  795MOL0     C 4842   3.197  12.026   2.058  0.0843  0.4036 -0.6081
  795MOL0     O 4843   3.306  12.024   2.150  0.3360  0.6546 -0.0560
  795MOL0     C 4844   3.262  11.982   2.284  0.6447  0.1897 -0.9277
  795MOL0     C 4845   3.268  11.824   2.311  0.5553 -0.2510  0.8265
  795MOL0     C 4846   3.213  11.779   2.453  0.2249 -0.7901  0.5523
  795MOL0     C 4847   3.211  11.633   2.497  0.5640  0.3302 -0.4185
  795MOL0     C 4848   3.350  11.567   2.492  0.4411  1.1555 -0.7118
  795MOL0     C 4849   3.454  11.657   2.563  0.1849  0.1035 -0.7405
  795MOL0     C 4850   3.444  11.703   2.707 -0.1972  0.5228  0.5285
  795MOL0     C 4851   3.490  11.587   2.798 -0.1819  0.2787  0.7618
  795MOL0    Cl 4852   3.360  11.462   2.805  0.3684  0.6746 -0.1513
  795MOL0     C 4853   3.083  12.108   2.069  0.4220 -0.4609 -0.1691
  795MOL0     C 4854   2.976  12.086   1.974  0.1790 -0.1169  0.0116
  795MOL0     O 4855   3.009  12.134   1.642  0.5132  0.3905 -0.0395
  795MOL0     C 4856   2.709  11.964   1.565  0.4020  0.2492  0.4050
  795MOL0     C 4857   2.613  11.966   1.465  0.3941 -0.3099 -0.8037
  795MOL0     N 4858   1.882  11.929   1.043  0.1593  0.2131 -0.1233
  795MOL0     N 4859   1.791  11.843   1.069 -1.1088 -0.0480  0.0759
  795MOL0     C 4860   0.968  11.187   1.296 -0.4216 -0.4088 -0.5094
  795MOL0     C 4861   0.847  11.145   1.245  0.1757 -0.5223  0.2157
  795MOL0     C 4862   0.435  10.990   1.149  0.2318  0.2835  0.0786
  795MOL0     C 4863   0.415  10.875   1.070  0.5097  0.3495 -0.1207
  795MOL0     C 4864   0.284  10.822   1.063 -0.0901  0.7094 -1.0863
  795MOL0     C 4865   0.178  10.897   1.113 -0.1272 -0.3274  0.2660
  795MOL0     O 4866   0.052  10.860   1.110 -0.1869  0.1617  0.0049
  795MOL0     C 4867   0.004  10.835   0.978  0.2195  0.6583  0.7001
  795MOL0     C 4868  -0.144  10.790   1.003 -0.3602 -0.8897  0.3181
  795MOL0     C 4869  -0.151  10.676   1.110 -0.1995 -0.5314  0.1629
  795MOL0     C 4870  -0.273  10.582   1.082  0.2283  0.9654  1.1192
  795MOL0     C 4871  -0.402  10.646   1.121 -0.1569 -0.2418  1.1061
  795MOL0     C 4872  -0.496  10.707   1.166 -0.2562  0.9796  0.6576
  795MOL0     C 4873   0.196  11.021   1.174  0.6892  0.2182 -0.1132
  795MOL0     C 4874   0.326  11.065   1.197  0.0513 -0.4263  0.4801
  795MOL0     H 4875   0.665  11.124   1.530  0.6913 -0.5181  1.9265
  795MOL0     H 4876   0.897  11.181   1.621 -0.9975 -0.0496  0.2117
  795MOL0     H 4877   1.220  11.155   1.326  0.5629 -0.0531 -0.1159
  795MOL0     H 4878   1.191  11.036   1.450 -2.1727  0.6089  0.3144
  795MOL0     H 4879   1.424  11.129   1.451 -0.7825  1.2986 -1.2529
  795MOL0     H 4880   1.332  11.190   1.602 -1.4372 -2.5128  1.0882
  795MOL0     H 4881   1.327  11.399   1.485 -0.8758 -2.5817  1.7355
  795MOL0     H 4882   1.385  11.332   1.329 -1.6994  0.2318  0.6474
  795MOL0     H 4883   1.573  11.345   1.571 -3.0935 -0.0218 -0.8667
  795MOL0     H 4884   1.603  11.292   1.407 -0.7346 -0.0196 -2.2914
  795MOL0     H 4885   1.686  11.504   1.426  0.1200 -2.6856 -0.2752
  795MOL0     H 4886   1.538  11.590   1.464  0.2714 -0.0342  2.7043
  795MOL0     H 4887   1.446  11.563   1.253 -0.0594 -0.1287 -1.4599
  795MOL0     H 4888   1.553  11.440   1.208  1.5085  0.5407  0.5232
  795MOL0     H 4889   1.572  11.699   1.136 -1.1239 -1.7551 -0.8127
  795MOL0     H 4890   1.636  11.725   1.291 -1.4189  0.9691 -2.0251
  795MOL0     H 4891   1.765  11.530   1.099 -0.3808  1.4583 -1.7872
  795MOL0     H 4892   1.812  11.574   1.272 -2.6197  0.3669  1.1781
  795MOL0     H 4893   2.048  11.681   1.198 -1.6308 -0.5932  0.8024
  795MOL0     H 4894   2.126  12.008   0.988  1.3864  0.1840 -0.3542
  795MOL0     H 4895   2.212  11.871   1.037  0.7276 -0.5338  1.9706
  795MOL0     H 4896   2.183  11.922   1.286  3.5312  0.4785 -1.9551
  795MOL0     H 4897   2.089  12.061   1.242 -0.3568  0.0688  1.2319
  795MOL0     H 4898   2.335  12.072   1.094 -1.6188  2.8680 -1.1145
  795MOL0     H 4899   2.276  12.170   1.222 -1.4985 -0.0283  1.5947
  795MOL0     H 4900   2.420  11.909   1.241  0.6625  1.8124 -2.5062
  795MOL0     H 4901   2.351  11.986   1.388  0.7029 -0.1963  0.4259
  795MOL0     H 4902   2.689  12.256   1.312  1.6359  0.0412  1.8201
  795MOL0     H 4903   2.848  12.264   1.514  1.1540 -0.4423  1.5936
  795MOL0     H 4904   3.104  11.834   1.798 -1.5951  0.7457 -0.8196
  795MOL0     H 4905   3.293  11.880   1.938 -0.2643  0.4833 -0.6934
  795MOL0     H 4906   3.158  12.010   2.301  0.6979  0.8128 -1.5645
  795MOL0     H 4907   3.310  12.036   2.366 -1.8751 -0.5667  1.1719
  795MOL0     H 4908   3.375  11.798   2.310  1.0743  1.6304 -1.6596
  795MOL0     H 4909   3.210  11.783   2.227 -1.0601  1.7358  0.9176
  795MOL0     H 4910   3.104  11.794   2.460  0.2469 -0.8881  1.1424
  795MOL0     H 4911   3.275  11.834   2.524  2.3767 -2.0031 -0.3020
  795MOL0     H 4912   3.181  11.626   2.602  1.4190  1.1226 -0.0998
  795MOL0     H 4913   3.139  11.574   2.440 -2.4735 -0.7188  3.9422
  795MOL0     H 4914   3.374  11.548   2.387 -1.2575  1.5166 -1.1877
  795MOL0     H 4915   3.346  11.470   2.541 -2.6039  1.9464  0.8108
  795MOL0     H 4916   3.465  11.745   2.499  2.8896 -0.6080 -1.3925
  795MOL0     H 4917   3.545  11.604   2.533 -0.9684 -1.3235 -1.8982
  795MOL0     H 4918   3.501  11.791   2.736  1.1115 -1.1258  3.2544
  795MOL0     H 4919   3.342  11.736   2.729  0.8076  2.1993  3.1789
  795MOL0     H 4920   3.508  11.630   2.897 -0.1098  0.9009  0.4852
  795MOL0     H 4921   3.581  11.541   2.759 -0.8887 -3.7153  3.3012
  795MOL0     H 4922   3.076  12.176   2.154  0.6571 -0.7278  0.0674
  795MOL0     H 4923   2.883  12.142   1.967  0.1120 -0.4492 -3.2892
  795MOL0     H 4924   2.721  11.894   1.648 -0.5491 -0.6224 -0.1845
  795MOL0     H 4925   2.533  11.894   1.478  1.7460 -1.7267  0.0186
  795MOL0     H 4926   1.039  11.220   1.221  1.2366 -1.6811  0.4252
  795MOL0     H 4927   0.833  11.143   1.137  2.1804  0.8808 -0.1328
  795MOL0     H 4928   0.489  10.814   1.019  0.9370  2.4964 -2.2127
  795MOL0     H 4929   0.273  10.720   1.027 -2.4284 -0.1406  1.6806
  795MOL0     H 4930   0.065  10.752   0.942  0.5074  0.4751  1.5974
  795MOL0     H 4931   0.014  10.921   0.912  1.4714 -1.8468 -2.6804
  795MOL0     H 4932  -0.205  10.873   1.037 -1.3481 -0.7303 -1.6927
  795MOL0     H 4933  -0.185  10.754   0.908  0.0578  0.1185 -0.2585
  795MOL0     H 4934  -0.159  10.716   1.211  0.7061 -0.0891  0.0733
  795MOL0     H 4935  -0.060  10.616   1.099  2.0053  2.5343  0.4443
  795MOL0     H 4936  -0.294  10.571   0.975  1.0114  1.5498  0.8983
  795MOL0     H 4937  -0.271  10.485   1.132 -2.6309  0.7408  0.9270
  795MOL0     H 4938  -0.590  10.745   1.201  0.4502  2.5241  0.9239
  795MOL0     H 4939   0.105  11.063   1.217  1.3449  1.6917 -0.1086
  795MOL0     H 4940   0.347  11.156   1.252 -2.2701  1.1575 -1.0739
  796MOL0     O 4941   4.018   7.664   0.823 -0.6145 -0.4483  0.2965
  796MOL0     C 4942   3.976   7.671   0.708 -0.7407 -0.2491  0.0943
  796MOL0     O 4943   4.044   7.632   0.594 -0.3296  0.2367 -0.3547
  796MOL0     C 4944   4.179   7.603   0.624 -0.2811 -0.0016  0.3003
  796MOL0     C 4945   4.225   7.490   0.682 -0.0997 -0.1845 -0.5591
  796MOL0     C 4946   4.369   7.472   0.700  0.7744  0.3952  0.0498
  796MOL0     C 4947   4.459   7.564   0.659 -0.8167  0.3468  1.3544
  796MOL0     O 4948   4.586   7.518   0.675  0.1928 -0.0781 -0.7712
  796MOL0     C 4949   4.692   7.585   0.602  0.0683 -0.3265  0.2221
  796MOL0     C 4950   4.815   7.506   0.623  0.7120 -0.5558 -0.4707
  796MOL0     C 4951   4.862   7.512   0.773  0.8974 -0.0763  0.8386
  796MOL0     C 4952   4.998   7.456   0.793  0.3147 -1.2984  0.0933
  796MOL0     C 4953   5.051   7.512   0.926 -1.2513  0.1079 -0.3779
  796MOL0     C 4954   5.192   7.485   0.956 -0.0011  1.0736 -0.4511
  796MOL0     C 4955   5.246   7.552   1.085 -0.1734  0.0573  0.6387
  796MOL0     C 4956   5.400   7.563   1.077  0.4188  0.0994 -0.0169
  796MOL0     N 4957   5.453   7.624   1.199 -0.2522 -0.0114  0.4384
  796MOL0     C 4958   5.466   7.760   1.228  0.9891  0.0605 -0.1288
  796MOL0     C 4959   5.545   7.761   1.335  0.1627 -0.1153 -0.0834
  796MOL0     C 4960   5.593   7.896   1.395  0.7878 -0.0002  0.6360
  796MOL0     C 4961   5.747   7.879   1.425 -1.3710 -0.2240 -0.1245
  796MOL0     C 4962   5.834   7.872   1.299 -0.1396  0.3368 -0.0241
  796MOL0     C 4963   5.908   7.992   1.249  0.4429 -0.1055 -0.3216
  796MOL0     O 4964   5.809   8.096   1.222  1.0377 -0.4725 -1.1436
  796MOL0     C 4965   5.844   8.214   1.165 -0.5134 -0.5859  0.5639
  796MOL0     C 4966   5.974   8.223   1.105 -0.7860 -0.6765  0.4052
  796MOL0     C 4967   6.017   8.347   1.050  0.4742 -0.2888  0.1672
  796MOL0     C 4968   5.924   8.453   1.050 -0.5460 -0.6375 -0.0328
  796MOL0     C 4969   5.980   8.588   1.006  1.2945 -0.2913  0.2841
  796MOL0     O 4970   5.919   8.697   1.060  0.1727 -0.2009 -0.5529
  796MOL0     C 4971   5.951   8.819   1.014  0.0866 -0.4271  0.4324
  796MOL0     C 4972   6.076   8.878   1.004  0.2284 -0.4750 -0.1363
  796MOL0     C 4973   6.091   9.018   0.977 -0.1676  0.3688 -0.2456
  796MOL0     C 4974   5.977   9.097   0.949 -0.2292  0.5790 -0.1624
  796MOL0     O 4975   5.985   9.227   0.912 -0.5006 -0.5544 -0.1803
  796MOL0     C 4976   6.118   9.291   0.890  1.1352  0.7979 -1.1347
  796MOL0     C 4977   6.103   9.442   0.899 -0.2331  0.0536 -0.2577
  796MOL0     C 4978   6.030   9.494   0.777 -0.1130  0.3384  0.8850
  796MOL0     C 4979   6.108   9.493   0.645 -0.2419  0.5194  0.6950
  796MOL0     C 4980   6.068   9.595   0.526 -0.8988  1.0744 -0.4341
  796MOL0     C 4981   6.038   9.736   0.581  0.2629  0.1749 -0.5080
  796MOL0     C 4982   6.016   9.832   0.461 -0.4284 -1.1135 -0.5765
  796MOL0     C 4983   5.970   9.971   0.520  0.6770  0.1678 -0.7867
  796MOL0    Cl 4984   5.939  10.077   0.385 -0.5081 -0.6840  0.1476
  796MOL0     C 4985   5.852   9.029   0.950  1.2130 -0.2307 -0.4853
  796MOL0     C 4986   5.834   8.893   0.987 -1.0685  0.4470 -0.0838
  796MOL0     O 4987   6.063   8.589   0.918 -0.2333  0.2776  0.4306
  796MOL0     C 4988   5.791   8.435   1.087  0.2884  0.6954 -0.7308
  796MOL0     C 4989   5.744   8.317   1.149  0.3516  0.0471  0.8094
  796MOL0     N 4990   5.566   7.630   1.377  0.7048 -0.1916 -1.5234
  796MOL0     N 4991   5.506   7.546   1.301  0.3109  0.2311  0.1080
  796MOL0     C 4992   4.418   7.677   0.595  0.8781  0.5524 -0.0870
  796MOL0     C 4993   4.279   7.701   0.584  0.9449  0.2126 -0.8777
  796MOL0     C 4994   3.837   7.739   0.685  0.6986 -0.5075 -0.5108
  796MOL0     C 4995   3.783   7.765   0.554  0.2393  0.4569 -0.0832
  796MOL0     C 4996   3.650   7.818   0.542  0.1277 -0.3862 -0.9003
  796MOL0     C 4997   3.574   7.850   0.647  0.3772  0.2563 -0.1198
  796MOL0     O 4998   3.446   7.888   0.622  0.2494  0.1387  0.0142
  796MOL0     C 4999   3.341   7.872   0.727  0.2283 -0.5249  0.3736
  796MOL0     C 5000   3.310   7.988   0.819 -0.2191 -0.7681 -0.1130
  796MOL0     C 5001   3.217   8.102   0.756 -0.5827 -0.5654  0.1297
  796MOL0     C 5002   3.292   8.199   0.657  0.3164 -0.4360 -0.7673
  796MOL0     C 5003   3.193   8.282   0.601  0.5454 -0.4636 -0.0473
  796MOL0     C 5004   3.102   8.366   0.577  0.3593  0.1770 -0.3620
  796MOL0     C 5005   3.625   7.840   0.777 -0.2937 -0.3025  0.0924
  796MOL0     C 5006   3.754   7.789   0.792 -1.0580 -0.0008  0.2098
  796MOL0     H 5007   4.155   7.409   0.700 -0.4347 -0.1940 -1.7919
  796MOL0     H 5008   4.410   7.375   0.726 -0.4416 -0.2088 -0.1985
  796MOL0     H 5009   4.704   7.687   0.640 -0.4835 -0.3728  0.5341
  796MOL0     H 5010   4.672   7.586   0.495  3.2984 -0.3304 -0.4711
  796MOL0     H 5011   4.889   7.536   0.549 -0.5665  0.2587 -1.4470
  796MOL0     H 5012   4.787   7.402   0.605 -0.0499 -0.4395 -0.0129
  796MOL0     H 5013   4.803   7.446   0.836  0.0927 -1.7699 -1.5197
  796MOL0     H 5014   4.848   7.617   0.801  0.8191  1.8851 -4.9890
  796MOL0     H 5015   4.995   7.347   0.782  1.9737 -1.1623 -2.2510
  796MOL0     H 5016   5.060   7.486   0.709  1.5189 -0.5149  1.2247
  796MOL0     H 5017   4.989   7.467   1.004 -2.1730 -1.6165 -2.0193
  796MOL0     H 5018   5.042   7.619   0.946  1.9386  0.1368  1.6336
  796MOL0     H 5019   5.248   7.506   0.864  2.1112 -0.7068  0.3266
  796MOL0     H 5020   5.201   7.377   0.970  0.2105  1.0657 -0.6378
  796MOL0     H 5021   5.202   7.652   1.088 -0.0074  0.5231 -4.1584
  796MOL0     H 5022   5.218   7.495   1.174 -1.2831 -3.4728 -1.7563
  796MOL0     H 5023   5.430   7.622   0.991 -1.8202  0.2504 -0.7527
  796MOL0     H 5024   5.436   7.461   1.063 -3.6666 -1.8234  1.7324
  796MOL0     H 5025   5.424   7.843   1.172  0.2652  0.9086  1.5804
  796MOL0     H 5026   5.535   7.912   1.487  2.9552 -0.0411  2.0902
  796MOL0     H 5027   5.571   7.977   1.325  0.9423 -2.7364 -2.8350
  796MOL0     H 5028   5.763   7.785   1.479 -1.8196  0.5041  1.3208
  796MOL0     H 5029   5.769   7.954   1.501 -0.8752 -0.1198 -0.3600
  796MOL0     H 5030   5.914   7.799   1.314  0.2574  0.7369 -0.1628
  796MOL0     H 5031   5.780   7.817   1.222 -3.4742 -1.6427  3.3619
  796MOL0     H 5032   5.972   7.956   1.168 -0.2001 -1.2083 -0.3725
  796MOL0     H 5033   5.977   8.033   1.323 -0.1660  0.5402 -0.0971
  796MOL0     H 5034   6.043   8.140   1.096  0.4753  0.2290  1.4429
  796MOL0     H 5035   6.116   8.367   1.008  0.0037 -2.5575 -2.3106
  796MOL0     H 5036   6.170   8.827   1.027  1.3750  0.4636 -2.4445
  796MOL0     H 5037   6.187   9.067   0.966  0.1207  0.1781  1.2299
  796MOL0     H 5038   6.168   9.264   0.796  3.1296 -0.3125  0.1656
  796MOL0     H 5039   6.189   9.269   0.970  0.0912 -0.6512 -0.5799
  796MOL0     H 5040   6.202   9.490   0.899  0.8744 -1.9847  1.8645
  796MOL0     H 5041   6.060   9.475   0.994  2.5828 -1.9232  1.8860
  796MOL0     H 5042   6.001   9.595   0.811 -2.1507  0.7713 -1.7528
  796MOL0     H 5043   5.935   9.443   0.757 -1.0994  2.7890 -1.2512
  796MOL0     H 5044   6.213   9.508   0.673  0.6258 -3.1189 -0.1444
  796MOL0     H 5045   6.122   9.392   0.605  1.0144  1.3776 -1.1540
  796MOL0     H 5046   5.988   9.545   0.470 -0.5261 -2.4026  1.8562
  796MOL0     H 5047   6.147   9.605   0.451 -0.6672  0.8861 -0.2171
  796MOL0     H 5048   6.131   9.754   0.636 -1.1897 -1.4391  2.7820
  796MOL0     H 5049   5.955   9.729   0.652  1.0700 -0.6717  0.3884
  796MOL0     H 5050   6.104   9.848   0.398 -0.6426 -0.0483 -0.6270
  796MOL0     H 5051   5.942   9.787   0.394  1.0441 -0.9503 -2.4038
  796MOL0     H 5052   6.052  10.025   0.569  1.0900  1.8911 -3.2136
  796MOL0     H 5053   5.888   9.956   0.590  2.4376 -1.2443  1.1087
  796MOL0     H 5054   5.769   9.098   0.935  0.8456 -0.9997 -2.2457
  796MOL0     H 5055   5.736   8.846   0.992 -0.5461 -0.7953 -0.9796
  796MOL0     H 5056   5.724   8.520   1.076  0.8342  1.2007 -0.2454
  796MOL0     H 5057   5.642   8.300   1.181  0.4017 -1.2604  0.2895
  796MOL0     H 5058   4.479   7.761   0.564  2.6016 -0.1947  1.1307
  796MOL0     H 5059   4.247   7.792   0.535  4.3807  2.8394  1.3066
  796MOL0     H 5060   3.840   7.750   0.463 -2.3404 -0.0009 -1.7278
  796MOL0     H 5061   3.603   7.814   0.444  2.8552  0.1781 -2.3364
  796MOL0     H 5062   3.365   7.780   0.782 -1.7575 -2.4515 -1.7519
  796MOL0     H 5063   3.250   7.853   0.669  0.5542  4.2843 -2.2191
  796MOL0     H 5064   3.259   7.938   0.902 -0.2718  3.0243  2.3731
  796MOL0     H 5065   3.400   8.048   0.836 -0.3689 -0.0900 -1.5776
  796MOL0     H 5066   3.176   8.168   0.833  0.2978  0.5640 -0.3486
  796MOL0     H 5067   3.129   8.051   0.716 -0.2006  0.5321 -2.3099
  796MOL0     H 5068   3.364   8.255   0.718 -1.0743  0.5272  0.0563
  796MOL0     H 5069   3.360   8.146   0.589  1.6948  0.7535 -0.3621
  796MOL0     H 5070   3.040   8.447   0.544  0.3714  0.0641 -0.6678
  796MOL0     H 5071   3.573   7.881   0.863  2.6935 -0.1828  1.9946
  796MOL0     H 5072   3.799   7.779   0.889  2.3441 -0.9065 -1.3240
  797MOL0     O 5073   5.606  10.238  10.108 -1.2217 -0.2377  0.2730
  797MOL0     C 5074   5.573  10.349  10.158  0.1278  0.7466  0.5571
  797MOL0     O 5075   5.669  10.442  10.186  0.0185  0.5467 -0.2798
  797MOL0     C 5076   5.782  10.449  10.119 -0.6762 -0.1882  0.2649
  797MOL0     C 5077   5.808  10.571  10.062  0.0918 -0.1504 -0.3695
  797MOL0     C 5078   5.912  10.592   9.972 -0.1430  0.0647 -0.6045
  797MOL0     C 5079   6.005  10.492   9.936 -0.1683  0.3347  0.1356
  797MOL0     O 5080   6.107  10.521   9.852 -0.2382 -0.1843  0.7061
  797MOL0     C 5081   6.207  10.420   9.819 -0.4990  0.6693  0.2192
  797MOL0     C 5082   6.313  10.409   9.928 -0.8833 -0.1719 -0.3825
  797MOL0     C 5083   6.438  10.350   9.864 -0.3182 -0.7487 -1.0271
  797MOL0     C 5084   6.555  10.350   9.957 -0.8336 -0.2537 -0.7359
  797MOL0     C 5085   6.681  10.368   9.887  0.9082  0.2592  0.3756
  797MOL0     C 5086   6.715  10.251   9.786 -0.4316 -0.2207  1.4993
  797MOL0     C 5087   6.845  10.290   9.718 -0.0171 -0.4766 -0.6128
  797MOL0     C 5088   6.885  10.190   9.608  0.1851  0.4209  0.6965
  797MOL0     N 5089   6.978  10.072   9.627  0.8535 -0.5543  0.1917
  797MOL0     C 5090   7.045  10.014   9.520  0.8315 -0.6855  0.3577
  797MOL0     C 5091   7.141   9.942   9.573  0.1632 -0.1112 -0.2393
  797MOL0     C 5092   7.241   9.845   9.510 -0.4396 -0.3008  0.1143
  797MOL0     C 5093   7.168   9.741   9.433 -0.1361 -0.1966  0.7290
  797MOL0     C 5094   7.279   9.651   9.370 -0.2416  0.4490  0.9241
  797MOL0     C 5095   7.350   9.700   9.242 -0.4289 -0.5401  0.6089
  797MOL0     O 5096   7.386   9.585   9.164 -0.5599 -0.3116 -0.1043
  797MOL0     C 5097   7.290   9.537   9.071 -0.0657 -0.0258 -0.3254
  797MOL0     C 5098   7.188   9.624   9.012 -0.4732  0.0782  0.2530
  797MOL0     C 5099   7.084   9.575   8.928  0.1499  0.4655 -0.1586
  797MOL0     C 5100   7.090   9.443   8.895 -0.5522  1.4751 -0.2735
  797MOL0     C 5101   6.986   9.394   8.805  0.2887  0.6392 -0.0336
  797MOL0     O 5102   6.895   9.489   8.779  0.1339  0.3297 -0.5154
  797MOL0     C 5103   6.813   9.484   8.663 -0.4768  0.9047 -0.1125
  797MOL0     C 5104   6.684   9.514   8.676  0.4759 -0.5774  0.3914
  797MOL0     C 5105   6.601   9.508   8.566 -0.3165  0.1925  0.7709
  797MOL0     C 5106   6.640   9.469   8.436  0.0722  1.1139 -0.4985
  797MOL0     O 5107   6.536   9.445   8.344 -0.1815  0.2280  0.3145
  797MOL0     C 5108   6.567   9.398   8.210  0.0485 -0.8914  0.1314
  797MOL0     C 5109   6.432   9.340   8.179  0.0088 -0.6296 -0.3309
  797MOL0     C 5110   6.432   9.266   8.044 -0.4351  0.0396 -0.0306
  797MOL0     C 5111   6.466   9.351   7.922 -0.3915  0.3691 -0.4933
  797MOL0     C 5112   6.445   9.281   7.794 -0.0310 -1.1292 -0.5848
  797MOL0     C 5113   6.454   9.373   7.680 -0.4126 -0.1963  1.4511
  797MOL0     C 5114   6.515   9.310   7.560 -0.5659  0.7803 -0.2640
  797MOL0     C 5115   6.563   9.415   7.456  0.2392 -0.0149  0.4559
  797MOL0    Cl 5116   6.423   9.514   7.399 -0.1115 -0.4117 -0.2253
  797MOL0     C 5117   6.777   9.458   8.423 -0.0542  0.8136 -0.1772
  797MOL0     C 5118   6.865   9.469   8.528  0.8250 -0.1718 -0.7954
  797MOL0     O 5119   6.968   9.277   8.783  0.4759  0.2075  0.7390
  797MOL0     C 5120   7.200   9.362   8.937  0.2209 -0.8850  0.0186
  797MOL0     C 5121   7.299   9.408   9.029 -0.4832 -1.5470  0.2504
  797MOL0     N 5122   7.140   9.964   9.716 -0.3402  0.5604 -0.3081
  797MOL0     N 5123   7.037  10.038   9.747  0.1656 -0.3572 -0.0032
  797MOL0     C 5124   5.983  10.367   9.995 -0.7000  0.3436  0.6940
  797MOL0     C 5125   5.873  10.347  10.084  0.1343  0.5087  0.0602
  797MOL0     C 5126   5.426  10.393  10.161 -0.3696 -0.1946  0.2275
  797MOL0     C 5127   5.319  10.312  10.118  0.7528 -0.7903  0.2166
  797MOL0     C 5128   5.184  10.356  10.128 -0.9715 -0.6889 -0.4731
  797MOL0     C 5129   5.160  10.496  10.149 -0.6773 -0.0642 -0.5844
  797MOL0     O 5130   5.035  10.553  10.166 -0.2771 -0.0894  0.2009
  797MOL0     C 5131   4.916  10.489  10.117  0.5377  0.3366 -0.2983
  797MOL0     C 5132   4.911  10.507   9.965 -0.0262 -0.4357  0.2861
  797MOL0     C 5133   4.791  10.427   9.906 -0.6691  0.5491 -0.9005
  797MOL0     C 5134   4.775  10.453   9.759 -0.3627  0.0504 -0.0606
  797MOL0     C 5135   4.899  10.419   9.676 -0.0475 -0.3180  0.7857
  797MOL0     C 5136   5.012  10.391   9.639 -0.8775  0.5309 -0.8114
  797MOL0     C 5137   5.270  10.587  10.169 -0.3258 -0.3797 -0.0637
  797MOL0     C 5138   5.400  10.527  10.168  0.1942 -0.3307 -1.1717
  797MOL0     H 5139   5.742  10.650  10.097 -0.0155 -0.6233  0.5262
  797MOL0     H 5140   5.924  10.695   9.939  0.2696 -0.6826 -2.9450
  797MOL0     H 5141   6.250  10.448   9.722 -1.5349  0.3989 -0.3414
  797MOL0     H 5142   6.154  10.327   9.798  0.4759  0.3310 -0.8044
  797MOL0     H 5143   6.271  10.352  10.012 -0.3730 -2.6339 -1.6991
  797MOL0     H 5144   6.340  10.510   9.958 -2.2365  0.6756 -1.8791
  797MOL0     H 5145   6.467  10.412   9.779  0.2133 -0.0285 -0.3376
  797MOL0     H 5146   6.412  10.252   9.823 -1.0979  0.0895 -2.6279
  797MOL0     H 5147   6.544  10.425  10.036 -0.1817 -3.1726  2.3904
  797MOL0     H 5148   6.554  10.257  10.016  1.0276  2.5154  4.2956
  797MOL0     H 5149   6.764  10.388   9.957  2.3690 -1.6271 -0.7039
  797MOL0     H 5150   6.684  10.464   9.835  2.6200 -0.3078 -0.6765
  797MOL0     H 5151   6.646  10.251   9.700 -1.9661  1.0710  2.6635
  797MOL0     H 5152   6.735  10.153   9.830  0.1900 -1.2314 -0.8967
  797MOL0     H 5153   6.826  10.388   9.673 -1.4537 -1.8282 -3.1918
  797MOL0     H 5154   6.925  10.311   9.789 -0.6627  0.6183 -0.1930
  797MOL0     H 5155   6.929  10.254   9.531 -2.1172  0.1914 -0.9088
  797MOL0     H 5156   6.798  10.147   9.559  0.9197  1.1777 -1.4147
  797MOL0     H 5157   7.020  10.022   9.415 -1.1915 -3.9877  0.4574
  797MOL0     H 5158   7.292   9.799   9.595 -3.4899 -1.5962  1.3590
  797MOL0     H 5159   7.300   9.917   9.452 -1.0661  1.3470  1.4285
  797MOL0     H 5160   7.106   9.776   9.349 -2.9150 -3.4256  1.2223
  797MOL0     H 5161   7.111   9.679   9.502 -0.5410 -0.6120  0.0297
  797MOL0     H 5162   7.352   9.614   9.443 -2.6033 -1.7014  2.3459
  797MOL0     H 5163   7.222   9.563   9.339  2.1713 -0.8732 -0.0906
  797MOL0     H 5164   7.434   9.760   9.277  0.0624 -1.2504  0.6624
  797MOL0     H 5165   7.297   9.779   9.188 -1.4195  0.0841  2.3906
  797MOL0     H 5166   7.174   9.730   9.029  0.2727  0.1072  0.7598
  797MOL0     H 5167   7.012   9.651   8.899  1.3858  2.4106  1.5612
  797MOL0     H 5168   6.641   9.529   8.774 -1.3019 -1.7465 -0.1650
  797MOL0     H 5169   6.494   9.525   8.580 -0.9574 -0.8228 -2.1267
  797MOL0     H 5170   6.644   9.320   8.202  1.0201  0.1571 -1.2715
  797MOL0     H 5171   6.590   9.485   8.148  0.6841 -0.5475  0.8347
  797MOL0     H 5172   6.349   9.411   8.187  0.0028 -0.8320  2.6827
  797MOL0     H 5173   6.409   9.261   8.251 -2.3416 -0.4327 -0.7693
  797MOL0     H 5174   6.332   9.223   8.033 -0.5929  0.0771  1.1855
  797MOL0     H 5175   6.499   9.181   8.059  3.9918  3.3540  0.8255
  797MOL0     H 5176   6.399   9.435   7.941  0.1142  0.4124  1.2981
  797MOL0     H 5177   6.571   9.382   7.932 -0.6567  0.8392  1.0436
  797MOL0     H 5178   6.350   9.226   7.789  0.3322 -1.6294 -3.2797
  797MOL0     H 5179   6.531   9.215   7.779  2.1065  2.0702 -4.2901
  797MOL0     H 5180   6.524   9.454   7.702 -2.5045  2.2821 -0.5317
  797MOL0     H 5181   6.362   9.430   7.668  0.9276  2.0927  1.3797
  797MOL0     H 5182   6.610   9.261   7.586  0.3795  3.4815  1.9414
  797MOL0     H 5183   6.434   9.242   7.532 -5.1754  0.9431  8.9584
  797MOL0     H 5184   6.601   9.370   7.364 -0.7208 -2.7684  1.3080
  797MOL0     H 5185   6.637   9.473   7.512  0.4172 -1.7926  2.1708
  797MOL0     H 5186   6.829   9.458   8.328 -0.0982  0.8474 -0.2013
  797MOL0     H 5187   6.968   9.482   8.495  0.4066  0.9621 -1.7178
  797MOL0     H 5188   7.220   9.261   8.903  2.2892 -0.8788  1.0450
  797MOL0     H 5189   7.380   9.340   9.056 -0.2140 -0.7615  1.4588
  797MOL0     H 5190   6.039  10.276   9.976  0.1496  0.1100  3.7860
  797MOL0     H 5191   5.857  10.250  10.129 -0.6896  0.0474 -1.1713
  797MOL0     H 5192   5.341  10.211  10.085 -2.4385 -1.6634  0.3984
  797MOL0     H 5193   5.097  10.293  10.110 -2.0205  0.4026  0.6593
  797MOL0     H 5194   4.839  10.534  10.180  1.9663  0.6899  1.2818
  797MOL0     H 5195   4.902  10.385  10.147  0.6466  0.9501  2.0851
  797MOL0     H 5196   4.895  10.614   9.951  0.0918 -0.5773 -0.9901
  797MOL0     H 5197   5.008  10.468   9.932 -0.1794 -1.0847  0.5715
  797MOL0     H 5198   4.693  10.460   9.944 -1.4337 -3.2393  0.8949
  797MOL0     H 5199   4.796  10.321   9.934 -0.9022  1.6285  4.4157
  797MOL0     H 5200   4.690  10.403   9.712 -0.2550  0.4154 -0.6551
  797MOL0     H 5201   4.762  10.562   9.761  2.0837  0.4528  3.5335
  797MOL0     H 5202   5.100  10.358   9.588 -1.9368 -1.5584 -1.3823
  797MOL0     H 5203   5.248  10.692  10.185 -2.8560 -0.5129 -2.0275
  797MOL0     H 5204   5.490  10.584  10.187 -1.4786  2.6922 -1.6778
  798MOL0     O 5205   4.571  10.724   9.944  0.6583  0.0105 -0.4108
  798MOL0     C 5206   4.500  10.802  10.003 -0.4513  0.5088  0.1639
  798MOL0     O 5207   4.516  10.857  10.130  0.2426 -0.0847 -0.4129
  798MOL0     C 5208   4.627  10.862  10.210  0.6135 -0.0633 -0.6182
  798MOL0     C 5209   4.604  10.904  10.343 -0.2135  0.3660 -0.2036
  798MOL0     C 5210   4.715  10.914  10.423  0.4956 -0.0727 -0.6019
  798MOL0     C 5211   4.841  10.879  10.380 -0.0511 -0.4840 -0.9275
  798MOL0     O 5212   4.942  10.898  10.476 -0.5530  0.4448  0.9632
  798MOL0     C 5213   5.025  10.786  10.524  0.4307  0.6812  0.6186
  798MOL0     C 5214   5.174  10.812  10.497 -0.9566  0.8720 -0.4673
  798MOL0     C 5215   5.264  10.716  10.561 -0.9237  0.3988 -0.6862
  798MOL0     C 5216   5.405  10.725  10.481  0.7286  0.0510  0.6417
  798MOL0     C 5217   5.504  10.624  10.547  0.4095  0.1104  0.2468
  798MOL0     C 5218   5.651  10.644  10.506  0.6141  0.2933  0.3885
  798MOL0     C 5219   5.715  10.758  10.591  0.8509  1.1037  0.3500
  798MOL0     C 5220   5.817  10.849  10.517  0.1150 -0.7968  0.0549
  798MOL0     N 5221   5.964  10.801  10.527  0.8574  0.2122  0.2308
  798MOL0     C 5222   6.009  10.673  10.529 -0.0543  0.7857 -0.1831
  798MOL0     C 5223   6.134  10.678  10.558  0.4651 -1.4437 -0.8908
  798MOL0     C 5224   6.224  10.561  10.559 -0.2438  0.9218  0.0277
  798MOL0     C 5225   6.304  10.580  10.422  0.5832 -0.1495 -0.2998
  798MOL0     C 5226   6.360  10.443  10.367 -0.3838  0.4895  0.3904
  798MOL0     C 5227   6.451  10.373  10.468 -0.7231  1.3863  0.3664
  798MOL0     O 5228   6.565  10.454  10.513 -0.1539  0.6433  0.6813
  798MOL0     C 5229   6.582  10.455  10.654  0.1655 -0.0204  0.5339
  798MOL0     C 5230   6.584  10.351  10.745  0.9361  0.9127  1.0399
  798MOL0     C 5231   6.607  10.371  10.879 -1.3968 -0.9480 -0.1688
  798MOL0     C 5232   6.626  10.511  10.926 -0.0798 -0.8904  0.7269
  798MOL0     C 5233   6.646  10.526  11.069 -0.0853 -0.7870  0.4921
  798MOL0     O 5234   6.618  10.421  11.149  0.0385 -0.1900 -0.4816
  798MOL0     C 5235   6.638  10.410  11.282  0.5843 -0.1240  1.0890
  798MOL0     C 5236   6.573  10.300  11.341 -0.6959 -0.0745  0.5131
  798MOL0     C 5237   6.561  10.281  11.474 -0.0476 -0.3476  0.0248
  798MOL0     C 5238   6.612  10.380  11.552  0.2206 -0.1160  0.0424
  798MOL0     O 5239   6.590  10.390  11.684  0.3799 -0.3801 -0.0611
  798MOL0     C 5240   6.558  10.279  11.765  0.3304  0.0165  0.2191
  798MOL0     C 5241   6.407  10.258  11.784  0.7807  0.6145 -0.0852
  798MOL0     C 5242   6.379  10.112  11.834  0.4225  0.5738 -0.3304
  798MOL0     C 5243   6.447  10.064  11.961  0.5496 -0.6927  0.7911
  798MOL0     C 5244   6.411   9.923  12.005 -0.3087 -0.0655  0.6096
  798MOL0     C 5245   6.443   9.910  12.154  1.0683  0.5931 -0.4498
  798MOL0     C 5246   6.427   9.761  12.181 -0.5030 -0.3299  0.1474
  798MOL0     C 5247   6.454   9.733  12.332  0.1061  0.3050  0.0378
  798MOL0    Cl 5248   6.326   9.777  12.440  0.1506  0.3515 -0.2982
  798MOL0     C 5249   6.686  10.491  11.501 -0.0355  0.7509 -0.5772
  798MOL0     C 5250   6.702  10.503  11.362  0.1152  0.1072 -0.3533
  798MOL0     O 5251   6.680  10.639  11.106  0.0696  0.0177  1.0345
  798MOL0     C 5252   6.619  10.616  10.840 -0.3692  1.1397  0.1743
  798MOL0     C 5253   6.616  10.582  10.704  0.2565  0.4084 -0.5057
  798MOL0     N 5254   6.166  10.813  10.581 -0.0360 -0.0618 -0.3136
  798MOL0     N 5255   6.064  10.882  10.556 -0.1408  0.8574  0.2460
  798MOL0     C 5256   4.862  10.838  10.245 -0.7105  0.8680  0.2499
  798MOL0     C 5257   4.749  10.813  10.161  0.5123 -0.6217 -0.7314
  798MOL0     C 5258   4.362  10.837   9.948 -0.8287 -0.0037  0.4094
  798MOL0     C 5259   4.332  10.790   9.814 -0.5346  0.7435 -0.1003
  798MOL0     C 5260   4.213  10.833   9.752 -1.3802  0.3416 -0.4160
  798MOL0     C 5261   4.117  10.917   9.822 -0.1577  0.1981 -0.2298
  798MOL0     O 5262   4.005  10.944   9.757  0.0994  0.1377  0.5273
  798MOL0     C 5263   3.891  10.989   9.832 -0.1332  0.1892 -0.4873
  798MOL0     C 5264   3.813  10.885   9.922 -0.6384 -0.5886  0.2657
  798MOL0     C 5265   3.779  10.750   9.845 -0.1262 -0.2790  0.5503
  798MOL0     C 5266   3.716  10.658   9.947 -0.3137  0.1824  0.9110
  798MOL0     C 5267   3.656  10.535   9.883  1.0805 -0.7486 -0.2381
  798MOL0     C 5268   3.594  10.450   9.810  0.4797 -1.1995 -1.0046
  798MOL0     C 5269   4.150  10.960   9.958 -0.3078 -0.2774  1.4451
  798MOL0     C 5270   4.270  10.920  10.013 -0.5128 -0.4244 -0.1428
  798MOL0     H 5271   4.513  10.939  10.391  1.2377  2.0097  1.5110
  798MOL0     H 5272   4.707  10.961  10.520  0.0631 -2.0252  0.3528
  798MOL0     H 5273   4.987  10.687  10.497  2.5313  0.0711 -0.3234
  798MOL0     H 5274   5.015  10.779  10.632 -2.5468 -2.8698  0.3144
  798MOL0     H 5275   5.201  10.914  10.526  0.3231  0.4494 -0.0678
  798MOL0     H 5276   5.186  10.812  10.388  3.7201  0.2330 -0.1922
  798MOL0     H 5277   5.223  10.614  10.553  3.0802 -1.5969  1.1223
  798MOL0     H 5278   5.275  10.746  10.665 -2.6096  0.4257 -0.4931
  798MOL0     H 5279   5.385  10.694  10.378  3.1364  0.4172 -0.0021
  798MOL0     H 5280   5.449  10.825  10.474  1.5737 -0.4546 -2.9934
  798MOL0     H 5281   5.466  10.522  10.537 -1.0984  0.5287  1.2310
  798MOL0     H 5282   5.500  10.638  10.656 -1.7292  4.5803 -0.2003
  798MOL0     H 5283   5.662  10.653  10.398  1.1328  1.6289  0.5365
  798MOL0     H 5284   5.691  10.549  10.542 -0.0184 -0.6234 -1.2275
  798MOL0     H 5285   5.638  10.829  10.622 -0.0748  1.5763 -2.6901
  798MOL0     H 5286   5.767  10.724  10.681 -0.8357 -1.8027  0.3556
  798MOL0     H 5287   5.810  10.952  10.551 -4.0140 -1.7134  2.7558
  798MOL0     H 5288   5.782  10.854  10.413  1.7036  4.1638 -0.4992
  798MOL0     H 5289   5.956  10.579  10.526  4.5095 -2.2897  2.5274
  798MOL0     H 5290   6.171  10.466  10.566  4.9958 -2.3904 -0.0752
  798MOL0     H 5291   6.289  10.573  10.646  0.7145 -1.2416 -0.3335
  798MOL0     H 5292   6.389  10.646  10.444 -0.2332 -0.1078  3.4768
  798MOL0     H 5293   6.241  10.637  10.354  2.8026  5.1540  1.6097
  798MOL0     H 5294   6.275  10.384  10.334  0.6214 -1.6536  1.4003
  798MOL0     H 5295   6.420  10.452  10.276 -1.7522  0.1075 -0.5769
  798MOL0     H 5296   6.475  10.278  10.418 -2.8705 -1.3630  4.0178
  798MOL0     H 5297   6.397  10.347  10.559  1.8454  0.6064  1.7695
  798MOL0     H 5298   6.588  10.252  10.702 -0.5262  0.6781  1.3710
  798MOL0     H 5299   6.619  10.288  10.948 -0.3407  0.5981  1.6015
  798MOL0     H 5300   6.542  10.222  11.273 -1.7325  0.9390 -0.2268
  798MOL0     H 5301   6.513  10.202  11.531  2.1253  1.6109  5.1705
  798MOL0     H 5302   6.611  10.294  11.859  4.9933  0.5519 -2.2263
  798MOL0     H 5303   6.602  10.187  11.725 -3.4739 -1.9685  0.0816
  798MOL0     H 5304   6.360  10.277  11.687  4.6566 -1.7797 -2.7390
  798MOL0     H 5305   6.370  10.336  11.852 -1.3623 -0.7988  0.4706
  798MOL0     H 5306   6.419  10.034  11.769 -2.0069  0.0743 -1.3234
  798MOL0     H 5307   6.271  10.094  11.830 -0.6176  5.1289  0.7034
  798MOL0     H 5308   6.555  10.074  11.946  0.5165  0.9520  1.4107
  798MOL0     H 5309   6.412  10.131  12.041 -2.5197 -0.6680 -0.4512
  798MOL0     H 5310   6.480   9.852  11.959  0.3513  1.1338 -0.2879
  798MOL0     H 5311   6.310   9.898  11.973 -0.4686  2.1182 -0.7896
  798MOL0     H 5312   6.377   9.978  12.209  2.1347 -1.2484  3.4444
  798MOL0     H 5313   6.549   9.935  12.169  0.8050  0.5789  1.7561
  798MOL0     H 5314   6.328   9.724  12.150 -0.4759 -0.9476  0.7398
  798MOL0     H 5315   6.499   9.710  12.117  0.1711  4.6263 -3.5357
  798MOL0     H 5316   6.542   9.782  12.374  0.3112 -0.4560  0.5127
  798MOL0     H 5317   6.479   9.627  12.346 -0.2151  0.4111  1.6111
  798MOL0     H 5318   6.714  10.572  11.567  1.3020  2.2194 -2.8261
  798MOL0     H 5319   6.765  10.585  11.328 -1.2255  0.4647 -2.1440
  798MOL0     H 5320   6.624  10.724  10.856  1.0025  1.5262 -2.2909
  798MOL0     H 5321   6.617  10.672  10.644  0.6484  1.1227  0.5390
  798MOL0     H 5322   4.966  10.812  10.229 -1.0936  0.6064 -2.1507
  798MOL0     H 5323   4.767  10.780  10.059  0.1954  0.3968 -1.1355
  798MOL0     H 5324   4.403  10.726   9.763 -1.7597 -1.4589  0.8214
  798MOL0     H 5325   4.196  10.796   9.652  5.1238 -0.4196 -1.6635
  798MOL0     H 5326   3.819  11.030   9.762 -0.3406 -1.4180 -1.2504
  798MOL0     H 5327   3.923  11.060   9.909  0.6645 -1.2203  0.5411
  798MOL0     H 5328   3.891  10.855   9.993 -1.0495  2.9167  2.4150
  798MOL0     H 5329   3.728  10.923   9.979  0.5370  2.1086  0.3852
  798MOL0     H 5330   3.863  10.700   9.797 -4.0254 -2.4952 -5.0766
  798MOL0     H 5331   3.702  10.789   9.777 -1.4355  2.6278  3.4466
  798MOL0     H 5332   3.788  10.613  10.015 -1.0615 -1.4395  0.6858
  798MOL0     H 5333   3.637  10.712   9.999  0.0401  1.0114  0.6005
  798MOL0     H 5334   3.550  10.377   9.746 -0.0782  0.2050 -2.2736
  798MOL0     H 5335   4.083  11.018  10.020 -2.6618 -1.6467  0.2873
  798MOL0     H 5336   4.291  10.955  10.113 -0.5180 -0.5334 -0.1035
  799MOL0     O 5337   1.923   2.848   1.912  0.3436  0.3294 -0.7582
  799MOL0     C 5338   1.969   2.743   1.864 -0.4416  0.0684 -0.2111
  799MOL0     O 5339   2.007   2.633   1.935  0.1603  0.9815  0.1597
  799MOL0     C 5340   1.979   2.613   2.073 -0.0708 -0.4882 -0.2916
  799MOL0     C 5341   1.881   2.684   2.154 -0.5617 -0.3116  0.5696
  799MOL0     C 5342   1.877   2.662   2.296  0.1317  0.7834  1.0000
  799MOL0     C 5343   1.968   2.571   2.350  0.2439  0.1528  0.3384
  799MOL0     O 5344   1.982   2.530   2.478  0.6939 -0.1039 -0.1848
  799MOL0     C 5345   1.873   2.525   2.574  0.7647 -1.4139 -0.3206
  799MOL0     C 5346   1.931   2.520   2.721  0.1605 -0.2643 -0.1426
  799MOL0     C 5347   1.810   2.530   2.818 -0.0865  0.2157  1.2326
  799MOL0     C 5348   1.861   2.525   2.968 -0.0694  0.8982  1.3188
  799MOL0     C 5349   1.753   2.464   3.053 -0.1100  0.1846 -0.3110
  799MOL0     C 5350   1.818   2.416   3.181 -0.6106  0.1905 -0.5660
  799MOL0     C 5351   1.716   2.329   3.264 -0.2757 -1.1631 -0.0239
  799MOL0     C 5352   1.772   2.319   3.406  0.1022  0.1998 -0.7021
  799MOL0     N 5353   1.773   2.444   3.485 -1.2604 -0.3434 -1.0187
  799MOL0     C 5354   1.880   2.494   3.561  0.4002 -0.0594  0.5014
  799MOL0     C 5355   1.834   2.609   3.609  0.1504  0.0724 -0.0853
  799MOL0     C 5356   1.906   2.709   3.702 -0.4516 -0.0738  0.9866
  799MOL0     C 5357   1.885   2.685   3.854  0.4730 -0.0026  0.8162
  799MOL0     C 5358   1.968   2.577   3.923 -0.5116  0.3528  0.1544
  799MOL0     C 5359   1.921   2.542   4.062 -0.1997  0.3233 -0.8978
  799MOL0     O 5360   1.788   2.479   4.056 -0.4775 -0.5678 -0.3999
  799MOL0     C 5361   1.686   2.551   4.121 -0.5127  0.4181  0.8141
  799MOL0     C 5362   1.570   2.587   4.049 -0.5101 -0.4897  1.1216
  799MOL0     C 5363   1.456   2.648   4.104  0.0393 -0.5616  0.3094
  799MOL0     C 5364   1.460   2.675   4.240  0.0517  0.0036  0.1032
  799MOL0     C 5365   1.332   2.732   4.299 -0.1827 -0.0533 -0.0412
  799MOL0     O 5366   1.356   2.823   4.391  0.0645 -0.1920  0.0081
  799MOL0     C 5367   1.267   2.897   4.466  0.2187 -0.5733 -0.1918
  799MOL0     C 5368   1.128   2.906   4.451 -0.6687  0.3277 -0.6174
  799MOL0     C 5369   1.045   2.967   4.544  0.3914 -0.5291 -1.0720
  799MOL0     C 5370   1.104   3.028   4.662 -0.1639 -0.5606  0.8473
  799MOL0     O 5371   1.030   3.105   4.741  0.0142 -0.4664 -0.5958
  799MOL0     C 5372   1.042   3.242   4.715 -0.3099  0.2881 -0.6261
  799MOL0     C 5373   0.959   3.295   4.599 -0.3407  0.0646  0.6477
  799MOL0     C 5374   0.954   3.449   4.583  0.5604 -0.2677  0.4702
  799MOL0     C 5375   0.920   3.533   4.712  0.0175  0.2266 -0.4086
  799MOL0     C 5376   0.764   3.511   4.736  0.8018  0.6165  0.1377
  799MOL0     C 5377   0.707   3.605   4.854  0.5940  0.5376 -0.2641
  799MOL0     C 5378   0.555   3.575   4.869  0.3927 -0.2623 -0.3105
  799MOL0     C 5379   0.506   3.647   4.995 -0.2383  0.7527  0.6136
  799MOL0    Cl 5380   0.357   3.561   5.063  0.6297 -0.1803 -0.3882
  799MOL0     C 5381   1.246   3.029   4.673 -0.1732 -0.2023  0.0701
  799MOL0     C 5382   1.322   2.963   4.568 -0.0191 -0.5963 -1.3561
  799MOL0     O 5383   1.224   2.692   4.264 -0.6337 -0.4689 -0.4826
  799MOL0     C 5384   1.584   2.650   4.313 -0.7128  0.4294 -0.5075
  799MOL0     C 5385   1.694   2.590   4.250  0.0183 -0.2573  0.4338
  799MOL0     N 5386   1.704   2.629   3.568 -0.4899 -0.2350  0.1998
  799MOL0     N 5387   1.669   2.526   3.494 -0.0904  0.6531 -0.0240
  799MOL0     C 5388   2.052   2.507   2.269  0.6143  0.0955 -0.3585
  799MOL0     C 5389   2.054   2.518   2.135 -0.3084 -0.7070 -0.6037
  799MOL0     C 5390   1.986   2.724   1.713  0.1360 -0.1309  0.2349
  799MOL0     C 5391   2.065   2.624   1.665  0.2603  0.0809  0.0213
  799MOL0     C 5392   2.093   2.601   1.528  0.1959 -0.0745  0.4344
  799MOL0     C 5393   2.035   2.694   1.436 -0.4648  0.6719 -0.1352
  799MOL0     O 5394   2.067   2.708   1.307 -0.3831  1.0592  0.9292
  799MOL0     C 5395   2.119   2.596   1.234  0.8383 -0.2616 -0.7359
  799MOL0     C 5396   2.013   2.489   1.215  0.0016  0.3303  0.4636
  799MOL0     C 5397   1.872   2.539   1.186 -0.2582 -0.1376  0.5568
  799MOL0     C 5398   1.768   2.417   1.192 -0.1778 -0.1768 -0.0458
  799MOL0     C 5399   1.643   2.483   1.166 -0.0098 -0.4347 -0.4183
  799MOL0     C 5400   1.551   2.546   1.118  0.3846  0.5778 -0.2595
  799MOL0     C 5401   1.947   2.793   1.488 -0.2880  0.1730  0.2929
  799MOL0     C 5402   1.920   2.807   1.621  0.1928  2.0760 -0.4955
  799MOL0     H 5403   1.809   2.756   2.116  0.9726  1.1807  0.3781
  799MOL0     H 5404   1.795   2.694   2.360 -1.9621  0.7909 -1.5199
  799MOL0     H 5405   1.816   2.433   2.560 -3.0391  0.3585  1.9470
  799MOL0     H 5406   1.818   2.619   2.577  2.3457 -0.4624 -0.1174
  799MOL0     H 5407   2.005   2.598   2.744  1.2643 -1.2924 -0.0730
  799MOL0     H 5408   1.984   2.425   2.727  1.6505  0.5307 -0.2065
  799MOL0     H 5409   1.750   2.441   2.798  0.2959 -0.2682  2.1538
  799MOL0     H 5410   1.746   2.615   2.793  0.7868  0.5150 -0.1074
  799MOL0     H 5411   1.954   2.468   2.962 -0.8132 -0.2895  0.8301
  799MOL0     H 5412   1.884   2.626   3.005 -1.0433  1.7325 -0.2476
  799MOL0     H 5413   1.699   2.386   2.999 -2.3447 -0.9261  3.1716
  799MOL0     H 5414   1.677   2.542   3.063  1.6534  1.9267  0.2759
  799MOL0     H 5415   1.859   2.501   3.237  1.0915 -0.7528 -0.3093
  799MOL0     H 5416   1.903   2.349   3.159 -0.1123  1.4726 -2.8435
  799MOL0     H 5417   1.620   2.377   3.283  0.7650  0.5989  1.0747
  799MOL0     H 5418   1.696   2.231   3.221 -0.8411 -1.5693  1.1154
  799MOL0     H 5419   1.870   2.272   3.398 -0.0040 -0.0201 -0.7066
  799MOL0     H 5420   1.708   2.244   3.453 -1.9380  1.0391 -1.9902
  799MOL0     H 5421   1.978   2.448   3.566  0.9486  0.6907 -1.8310
  799MOL0     H 5422   1.855   2.801   3.675  1.3515  0.4921 -0.7278
  799MOL0     H 5423   2.011   2.701   3.673  0.1053 -1.3209  3.0829
  799MOL0     H 5424   1.776   2.685   3.869 -0.1560 -0.5833 -2.8271
  799MOL0     H 5425   1.925   2.772   3.907  1.0994 -2.4896  4.7820
  799MOL0     H 5426   1.968   2.485   3.864 -0.7513  0.5153 -0.1008
  799MOL0     H 5427   2.072   2.612   3.928 -0.5200  0.6974 -1.4597
  799MOL0     H 5428   1.931   2.628   4.128  0.4269 -0.0172 -0.5457
  799MOL0     H 5429   1.986   2.462   4.098 -2.3629 -2.3370 -2.4978
  799MOL0     H 5430   1.565   2.540   3.951  2.3944  0.8166  0.2234
  799MOL0     H 5431   1.365   2.659   4.045  0.1515  3.2647  0.5859
  799MOL0     H 5432   1.082   2.848   4.372  0.4462 -1.8918  0.2719
  799MOL0     H 5433   0.938   2.984   4.537  0.7041  1.3683 -1.9775
  799MOL0     H 5434   1.150   3.258   4.699  0.5409 -1.8639  2.1526
  799MOL0     H 5435   1.033   3.302   4.806  2.9255  2.5969 -1.6403
  799MOL0     H 5436   0.853   3.268   4.611 -0.6042  0.6520 -0.2936
  799MOL0     H 5437   0.992   3.255   4.503 -1.9018  1.0604 -0.3429
  799MOL0     H 5438   0.879   3.463   4.505  0.0308  0.5352  1.1068
  799MOL0     H 5439   1.047   3.478   4.532  0.1852 -2.5543 -1.7013
  799MOL0     H 5440   0.979   3.494   4.795  0.5271 -0.1990 -0.9608
  799MOL0     H 5441   0.951   3.637   4.697  2.0392 -0.8261 -5.8841
  799MOL0     H 5442   0.765   3.408   4.770 -1.0341  1.1830  2.1126
  799MOL0     H 5443   0.697   3.519   4.650  1.2942  0.5746 -0.2599
  799MOL0     H 5444   0.715   3.707   4.817 -1.8278  0.3400 -1.5612
  799MOL0     H 5445   0.773   3.597   4.941  2.3077 -3.4830 -1.6741
  799MOL0     H 5446   0.502   3.608   4.779 -0.5572 -0.5755  0.1256
  799MOL0     H 5447   0.538   3.468   4.880  5.1253 -0.9742  2.8655
  799MOL0     H 5448   0.493   3.753   4.974  1.8687  1.3372  1.9589
  799MOL0     H 5449   0.579   3.625   5.074 -1.1439  1.3391  1.6360
  799MOL0     H 5450   1.305   3.068   4.756  0.8482  0.6180 -0.9987
  799MOL0     H 5451   1.423   2.940   4.599 -0.7298 -0.6669  1.1668
  799MOL0     H 5452   1.590   2.674   4.419 -1.8986 -0.1903 -0.2774
  799MOL0     H 5453   1.776   2.573   4.320  1.7818  1.2622 -1.1308
  799MOL0     H 5454   2.124   2.448   2.323 -0.2652  0.4168  1.2160
  799MOL0     H 5455   2.135   2.466   2.086  1.1384 -1.1367  2.1234
  799MOL0     H 5456   2.111   2.556   1.736 -0.0086  3.1982  3.4616
  799MOL0     H 5457   2.162   2.519   1.514  1.3454  1.2080 -2.1436
  799MOL0     H 5458   2.198   2.551   1.294 -0.1595  1.4028  1.9604
  799MOL0     H 5459   2.145   2.626   1.132 -3.6313  1.5532 -1.5879
  799MOL0     H 5460   2.043   2.419   1.136 -1.1602 -3.0867  2.7804
  799MOL0     H 5461   2.016   2.437   1.311 -0.0937  1.2987  0.9953
  799MOL0     H 5462   1.879   2.592   1.091  3.0538 -0.3839  0.5346
  799MOL0     H 5463   1.841   2.611   1.262  1.2712  1.0766  0.0876
  799MOL0     H 5464   1.797   2.337   1.123 -1.1131 -0.5394 -0.0319
  799MOL0     H 5465   1.766   2.376   1.294  1.6495  0.6975  0.3823
  799MOL0     H 5466   1.469   2.597   1.071 -0.2173 -0.1567 -0.0131
  799MOL0     H 5467   1.904   2.865   1.419 -0.7638 -1.8712 -1.6400
  799MOL0     H 5468   1.851   2.883   1.655 -2.3949 -1.0037  1.7732
  800MOL0     O 5469   3.502   6.890   1.122  0.3404  0.7181 -0.2238
  800MOL0     C 5470   3.428   6.977   1.164  0.0123 -0.1858  0.2582
  800MOL0     O 5471   3.447   7.051   1.282  0.1871  0.8191  0.5760
  800MOL0     C 5472   3.568   7.064   1.339 -0.3321 -1.3992 -0.9943
  800MOL0     C 5473   3.563   7.085   1.476  0.4154 -0.9508  0.9050
  800MOL0     C 5474   3.683   7.110   1.554  0.1996  0.2582  0.6132
  800MOL0     C 5475   3.809   7.099   1.490 -0.6889 -1.0935 -0.4294
  800MOL0     O 5476   3.925   7.112   1.572 -0.0548 -0.6376  0.5986
  800MOL0     C 5477   4.004   7.228   1.547 -0.0355  0.4298  0.1409
  800MOL0     C 5478   4.128   7.212   1.629 -0.4081 -0.1170 -0.1399
  800MOL0     C 5479   4.249   7.294   1.572 -0.6953 -0.3053 -0.2430
  800MOL0     C 5480   4.357   7.286   1.683 -0.1388  0.9958 -0.6719
  800MOL0     C 5481   4.494   7.347   1.650 -0.4471  0.5555 -0.8097
  800MOL0     C 5482   4.483   7.495   1.609  0.1598  0.4679 -0.5637
  800MOL0     C 5483   4.605   7.579   1.660  1.0805 -0.7832 -0.8538
  800MOL0     C 5484   4.581   7.633   1.805  0.5560  0.2389  0.3318
  800MOL0     N 5485   4.680   7.732   1.850 -0.7090 -0.6196  0.7435
  800MOL0     C 5486   4.691   7.864   1.802 -0.5501  0.3270 -0.0066
  800MOL0     C 5487   4.786   7.911   1.892  0.5320  0.5390  0.9533
  800MOL0     C 5488   4.841   8.046   1.887 -0.2443 -0.7299  0.6345
  800MOL0     C 5489   4.798   8.147   1.998  0.1206  0.5507 -0.5496
  800MOL0     C 5490   4.689   8.242   1.961  0.7829 -1.1067 -0.3758
  800MOL0     C 5491   4.670   8.379   2.052  0.1437  0.1936  0.1529
  800MOL0     O 5492   4.628   8.492   1.970  0.0059 -0.6782 -0.1879
  800MOL0     C 5493   4.578   8.602   2.045 -0.1291 -0.4335  1.0732
  800MOL0     C 5494   4.557   8.723   1.984  0.3921 -0.5608  0.7045
  800MOL0     C 5495   4.502   8.838   2.038 -0.1346  0.1312 -0.2450
  800MOL0     C 5496   4.460   8.837   2.175  0.5925 -1.0707  0.2355
  800MOL0     C 5497   4.387   8.942   2.230 -0.7886 -0.0260  1.2380
  800MOL0     O 5498   4.311   8.927   2.343 -0.3546  0.9705 -0.4154
  800MOL0     C 5499   4.239   9.025   2.414 -0.1497 -0.6649  0.9341
  800MOL0     C 5500   4.125   8.986   2.494  0.1262 -0.0553  0.8789
  800MOL0     C 5501   4.042   9.079   2.559  0.1281  0.9894 -0.0925
  800MOL0     C 5502   4.078   9.217   2.568  0.1028  0.8927 -0.0784
  800MOL0     O 5503   3.999   9.308   2.640 -0.3646  0.4917  0.1195
  800MOL0     C 5504   3.933   9.409   2.566  0.4279 -0.5666 -0.7504
  800MOL0     C 5505   3.815   9.472   2.643 -0.7377  0.4650  1.2856
  800MOL0     C 5506   3.682   9.387   2.624  0.0180 -0.8116 -0.7431
  800MOL0     C 5507   3.566   9.455   2.694 -0.1686 -0.8230  0.8784
  800MOL0     C 5508   3.429   9.403   2.634 -0.8301 -0.2419  0.5823
  800MOL0     C 5509   3.311   9.437   2.719 -0.2844 -0.1757 -0.7229
  800MOL0     C 5510   3.184   9.364   2.688  0.3329  0.3468  0.4321
  800MOL0     C 5511   3.068   9.402   2.794 -0.1415  0.5599 -0.7270
  800MOL0    Cl 5512   3.053   9.576   2.791  0.2636  0.2198 -0.2619
  800MOL0     C 5513   4.200   9.255   2.497 -0.5235 -0.4981 -0.1764
  800MOL0     C 5514   4.280   9.164   2.428  0.1498  0.4033  0.7586
  800MOL0     O 5515   4.392   9.059   2.177 -0.1794  0.2722 -0.2493
  800MOL0     C 5516   4.474   8.715   2.241  0.2085 -0.2433  0.8532
  800MOL0     C 5517   4.534   8.602   2.176 -0.2989 -0.3424  0.6618
  800MOL0     N 5518   4.825   7.815   1.985  0.1513 -0.2512  0.6381
  800MOL0     N 5519   4.761   7.708   1.949 -0.4757 -0.0174 -0.7362
  800MOL0     C 5520   3.817   7.056   1.355  0.4856  0.3424  0.9569
  800MOL0     C 5521   3.696   7.048   1.275  1.8486 -0.3854 -0.0011
  800MOL0     C 5522   3.292   7.008   1.089 -1.3838  0.0566 -0.4384
  800MOL0     C 5523   3.254   7.135   1.090 -0.5592  0.1120 -0.1133
  800MOL0     C 5524   3.141   7.163   1.003  0.6096 -0.1744 -0.3848
  800MOL0     C 5525   3.075   7.062   0.935  1.2086 -0.4267  0.0209
  800MOL0     O 5526   2.959   7.081   0.853 -0.0459 -0.4555  0.0193
  800MOL0     C 5527   2.948   7.200   0.775  0.2199  0.3648  0.2523
  800MOL0     C 5528   3.030   7.190   0.648 -0.5235  0.3960  0.8674
  800MOL0     C 5529   2.960   7.249   0.529  0.7854 -0.4977 -0.1759
  800MOL0     C 5530   2.820   7.181   0.494  0.0068 -0.0790  0.2753
  800MOL0     C 5531   2.744   7.275   0.410  0.6983 -0.3349 -0.4763
  800MOL0     C 5532   2.693   7.354   0.338 -0.8914 -0.4006  0.6324
  800MOL0     C 5533   3.103   6.932   0.956 -0.4262 -0.0847  0.5773
  800MOL0     C 5534   3.220   6.900   1.028 -0.6925  0.1091  0.7196
  800MOL0     H 5535   3.459   7.103   1.500  0.5559  1.5193 -0.0044
  800MOL0     H 5536   3.684   7.148   1.656  4.8024  1.9462  0.1436
  800MOL0     H 5537   3.955   7.323   1.570 -2.3942 -1.0914  2.0265
  800MOL0     H 5538   4.032   7.213   1.443  0.2183 -5.4711  0.7188
  800MOL0     H 5539   4.150   7.109   1.661 -2.0582 -0.7109 -0.8431
  800MOL0     H 5540   4.100   7.260   1.724 -0.3199 -0.1489 -0.0971
  800MOL0     H 5541   4.199   7.391   1.562 -3.1103 -1.4963 -0.5115
  800MOL0     H 5542   4.268   7.257   1.471 -0.7100  0.5281 -0.5597
  800MOL0     H 5543   4.320   7.340   1.770  0.9857 -1.1318  1.2191
  800MOL0     H 5544   4.362   7.179   1.704 -0.2757  1.1565  0.2261
  800MOL0     H 5545   4.515   7.288   1.560 -0.1226 -0.3963 -0.1259
  800MOL0     H 5546   4.566   7.337   1.732  0.8400  0.1240 -1.9524
  800MOL0     H 5547   4.385   7.536   1.636 -1.2996 -0.6848 -3.6332
  800MOL0     H 5548   4.479   7.503   1.500  0.0829  1.4849 -0.5002
  800MOL0     H 5549   4.700   7.525   1.653  0.6960 -1.5047 -0.6379
  800MOL0     H 5550   4.617   7.660   1.588 -0.2290 -1.6499 -2.0925
  800MOL0     H 5551   4.575   7.550   1.876 -0.4345  1.4989  1.7617
  800MOL0     H 5552   4.487   7.688   1.809  1.1941  1.3119  2.1558
  800MOL0     H 5553   4.629   7.917   1.731 -0.2045 -0.5542 -0.9904
  800MOL0     H 5554   4.809   8.084   1.789  1.8638  1.0982  0.5736
  800MOL0     H 5555   4.950   8.042   1.895  0.0966  2.9777 -0.1747
  800MOL0     H 5556   4.888   8.204   2.024  2.9384 -2.6883 -2.4084
  800MOL0     H 5557   4.777   8.103   2.096  1.1331  1.2342 -0.0012
  800MOL0     H 5558   4.703   8.267   1.856 -1.8257  0.6887 -0.3913
  800MOL0     H 5559   4.596   8.184   1.958 -0.4647  0.8555 -2.5084
  800MOL0     H 5560   4.757   8.400   2.114 -0.4734  1.8096  0.5197
  800MOL0     H 5561   4.596   8.356   2.128 -0.2144 -1.8391 -0.7306
  800MOL0     H 5562   4.600   8.725   1.884  1.8854  0.8423  1.3250
  800MOL0     H 5563   4.476   8.917   1.969 -0.6693  0.2965  0.1341
  800MOL0     H 5564   4.108   8.879   2.506 -1.8198  0.1918  0.6003
  800MOL0     H 5565   3.955   9.038   2.609  1.8287 -6.0523 -1.8361
  800MOL0     H 5566   3.901   9.365   2.471  1.9490 -1.9897 -0.6566
  800MOL0     H 5567   4.011   9.485   2.553  0.8002 -0.3495  2.1235
  800MOL0     H 5568   3.796   9.575   2.611 -0.9045  1.1841  3.4778
  800MOL0     H 5569   3.850   9.472   2.747 -1.6787 -0.9651  1.6231
  800MOL0     H 5570   3.681   9.281   2.652 -2.0077 -1.5941 -3.4299
  800MOL0     H 5571   3.668   9.377   2.516  0.2014 -1.4762 -0.7111
  800MOL0     H 5572   3.555   9.429   2.800 -3.4401  2.7864  1.6588
  800MOL0     H 5573   3.575   9.563   2.684 -3.7751 -0.5749 -1.5598
  800MOL0     H 5574   3.441   9.295   2.624 -0.0786 -0.1292  0.1858
  800MOL0     H 5575   3.417   9.459   2.540 -1.8914  0.7427  1.2685
  800MOL0     H 5576   3.297   9.546   2.720  0.8805 -0.0087 -1.2073
  800MOL0     H 5577   3.335   9.409   2.822  0.4987  1.0406 -0.5482
  800MOL0     H 5578   3.150   9.393   2.588  1.2770  4.0082  1.0434
  800MOL0     H 5579   3.192   9.256   2.698 -1.1985  0.1666 -0.0136
  800MOL0     H 5580   3.105   9.363   2.890 -1.9414  0.6990  0.0635
  800MOL0     H 5581   2.976   9.353   2.760 -0.3233  0.2025  0.2309
  800MOL0     H 5582   4.235   9.357   2.501 -0.8235 -0.3366 -1.3091
  800MOL0     H 5583   4.365   9.200   2.371  1.8205 -1.7017  1.7827
  800MOL0     H 5584   4.429   8.699   2.338  1.3436  0.5270  1.5334
  800MOL0     H 5585   4.515   8.514   2.237 -1.6506 -0.2370  0.4191
  800MOL0     H 5586   3.911   7.022   1.313 -0.2685  0.0251 -0.5396
  800MOL0     H 5587   3.716   7.031   1.170  1.3792  1.7407 -0.4697
  800MOL0     H 5588   3.296   7.215   1.150 -2.3326  0.3572  0.8758
  800MOL0     H 5589   3.089   7.258   0.991 -1.9182 -1.0448  2.3988
  800MOL0     H 5590   2.991   7.286   0.829  1.3738 -0.3285  0.4902
  800MOL0     H 5591   2.843   7.221   0.756 -0.0410 -2.6859 -2.5429
  800MOL0     H 5592   3.124   7.245   0.649  1.6545 -2.8437 -1.9258
  800MOL0     H 5593   3.045   7.086   0.617  1.4289  1.6752 -3.0269
  800MOL0     H 5594   3.019   7.242   0.437 -0.2841  1.2374 -1.0493
  800MOL0     H 5595   2.943   7.354   0.557 -2.1353 -0.8486 -0.2748
  800MOL0     H 5596   2.830   7.091   0.433 -2.2598  0.1126 -0.4480
  800MOL0     H 5597   2.750   7.159   0.575 -1.1071  2.0799 -0.0215
  800MOL0     H 5598   2.646   7.418   0.267 -1.6931 -1.9123 -0.2418
  800MOL0     H 5599   3.046   6.858   0.901  0.6471  1.0569 -2.2670
  800MOL0     H 5600   3.249   6.797   1.046 -1.4985 -0.2758 -0.1033
  801MOL0     O 5601   8.716   4.938  11.300 -0.2783  0.1631  0.3900
  801MOL0     C 5602   8.732   4.979  11.415  0.2223 -0.8816  0.1863
  801MOL0     O 5603   8.664   5.085  11.471 -0.1246  0.2405  0.3303
  801MOL0     C 5604   8.547   5.132  11.416  0.4779 -0.5034  0.2649
  801MOL0     C 5605   8.449   5.050  11.353  0.0769 -0.3778  0.2973
  801MOL0     C 5606   8.328   5.107  11.312 -1.2016 -0.1162 -0.2817
  801MOL0     C 5607   8.314   5.253  11.322 -0.1011  0.2687 -0.3474
  801MOL0     O 5608   8.194   5.301  11.281 -0.7914  0.1271  0.8268
  801MOL0     C 5609   8.191   5.414  11.193 -0.6268  0.2532  0.3207
  801MOL0     C 5610   8.242   5.368  11.052  0.7056 -0.0496 -0.5519
  801MOL0     C 5611   8.234   5.473  10.944  0.2019  0.0986 -0.8920
  801MOL0     C 5612   8.255   5.431  10.803 -0.3198  0.2001  0.4368
  801MOL0     C 5613   8.121   5.376  10.739  0.2183  0.6591 -0.0021
  801MOL0     C 5614   8.046   5.494  10.679 -0.2040 -0.7884 -0.8653
  801MOL0     C 5615   7.909   5.441  10.631 -0.7158  0.5071  0.9067
  801MOL0     C 5616   7.844   5.558  10.553 -0.2406  0.1547  0.0058
  801MOL0     N 5617   7.766   5.509  10.442  0.4228 -0.0594 -0.5660
  801MOL0     C 5618   7.632   5.538  10.410  0.1630  0.5946 -0.5816
  801MOL0     C 5619   7.608   5.470  10.300 -1.0173 -0.1289  0.4221
  801MOL0     C 5620   7.477   5.439  10.241  0.2290 -0.9985  0.4417
  801MOL0     C 5621   7.452   5.502  10.104  0.1969 -0.2073  0.5611
  801MOL0     C 5622   7.304   5.525  10.073 -0.1031 -0.2437  0.3876
  801MOL0     C 5623   7.284   5.659   9.998  0.3204 -0.4705 -0.5157
  801MOL0     O 5624   7.145   5.677   9.957 -0.2348 -0.0954 -1.3525
  801MOL0     C 5625   7.086   5.603   9.861 -1.0152  0.7494  0.4166
  801MOL0     C 5626   7.155   5.546   9.747 -0.1350 -1.3507 -0.5996
  801MOL0     C 5627   7.082   5.482   9.647 -0.4889 -0.6979  0.1847
  801MOL0     C 5628   6.938   5.484   9.644 -0.6879 -0.2643 -0.7198
  801MOL0     C 5629   6.857   5.404   9.546  0.1135 -0.1111 -0.3510
  801MOL0     O 5630   6.723   5.381   9.567 -0.9063 -0.3398  0.3481
  801MOL0     C 5631   6.656   5.322   9.460 -1.0358  0.6890 -0.1208
  801MOL0     C 5632   6.588   5.405   9.372 -0.0836 -0.1641  0.4775
  801MOL0     C 5633   6.516   5.364   9.265 -0.4801 -0.7475 -0.0779
  801MOL0     C 5634   6.486   5.224   9.255  0.5702  0.9081  0.6292
  801MOL0     O 5635   6.407   5.166   9.158  0.1091 -0.4363 -0.2587
  801MOL0     C 5636   6.318   5.252   9.081 -0.0646  0.6055  0.4975
  801MOL0     C 5637   6.243   5.162   8.965  0.4307  0.5933  0.0446
  801MOL0     C 5638   6.174   5.236   8.851  0.8506 -0.2126  0.5591
  801MOL0     C 5639   6.260   5.354   8.782  0.2199 -0.3190  0.3770
  801MOL0     C 5640   6.217   5.378   8.634 -0.1197  0.8093  0.5719
  801MOL0     C 5641   6.265   5.510   8.580  0.1447  0.8572 -0.2119
  801MOL0     C 5642   6.235   5.523   8.427  0.2829  0.1929 -1.2205
  801MOL0     C 5643   6.308   5.644   8.371 -0.2348  0.1119  0.6599
  801MOL0    Cl 5644   6.474   5.655   8.452 -0.0136 -0.2521  0.6019
  801MOL0     C 5645   6.535   5.139   9.354  0.1049  0.1295  0.3442
  801MOL0     C 5646   6.627   5.187   9.450  0.0350  0.9134 -0.3664
  801MOL0     O 5647   6.916   5.374   9.444 -0.3165 -0.4789 -0.6612
  801MOL0     C 5648   6.879   5.549   9.755 -0.3225  0.0418  0.1472
  801MOL0     C 5649   6.949   5.615   9.854 -0.4024  0.1738  0.4182
  801MOL0     N 5650   7.727   5.415  10.257  0.2701  0.7554 -0.0763
  801MOL0     N 5651   7.822   5.438  10.334  0.9730  0.0668 -0.5666
  801MOL0     C 5652   8.414   5.326  11.382  0.8036  0.2151  0.6598
  801MOL0     C 5653   8.524   5.266  11.438 -0.0052  0.1053 -0.2503
  801MOL0     C 5654   8.819   4.911  11.504 -0.6850  0.3969  0.1392
  801MOL0     C 5655   8.932   4.825  11.456  1.0820 -0.2398  0.2500
  801MOL0     C 5656   9.034   4.783  11.550  0.3882 -0.1801  0.3100
  801MOL0     C 5657   9.017   4.802  11.693 -0.3948  0.8621 -0.1804
  801MOL0     O 5658   9.100   4.773  11.798 -1.0575  0.0303 -0.0675
  801MOL0     C 5659   9.206   4.676  11.767  0.2334  0.4006 -0.0939
  801MOL0     C 5660   9.155   4.525  11.761 -0.0510 -0.4095 -0.8479
  801MOL0     C 5661   9.270   4.433  11.783 -0.8253  0.6080 -0.6785
  801MOL0     C 5662   9.230   4.288  11.781  0.0104 -0.3142 -0.3829
  801MOL0     C 5663   9.156   4.252  11.905  0.1952  0.7314  0.6853
  801MOL0     C 5664   9.104   4.232  12.011 -0.1219  1.0976  0.9819
  801MOL0     C 5665   8.904   4.871  11.721 -0.5310 -0.2224 -0.0712
  801MOL0     C 5666   8.814   4.927  11.643 -0.0745 -0.2938 -0.3431
  801MOL0     H 5667   8.466   4.945  11.334 -0.0392 -0.2304 -0.6824
  801MOL0     H 5668   8.249   5.053  11.262 -1.8657  0.5479  0.0326
  801MOL0     H 5669   8.256   5.497  11.223 -2.6280  2.7554 -1.7269
  801MOL0     H 5670   8.093   5.459  11.180 -0.4276  0.0472 -2.5202
  801MOL0     H 5671   8.178   5.284  11.025 -0.6774  0.7916  0.0221
  801MOL0     H 5672   8.344   5.327  11.053 -0.2718 -2.7429 -1.4956
  801MOL0     H 5673   8.319   5.535  10.974 -0.7658  0.7058  0.7893
  801MOL0     H 5674   8.143   5.533  10.958 -1.0622 -1.7144 -0.9358
  801MOL0     H 5675   8.293   5.516  10.746  2.3501 -0.3074  1.3599
  801MOL0     H 5676   8.337   5.359  10.805 -1.7201 -1.4707  0.0179
  801MOL0     H 5677   8.054   5.323  10.808 -1.3884 -0.0039 -1.9533
  801MOL0     H 5678   8.152   5.312  10.656  1.2176 -0.3175  1.0790
  801MOL0     H 5679   8.117   5.525  10.601  1.1282 -3.4843 -0.8416
  801MOL0     H 5680   8.046   5.581  10.745  2.3269 -0.5609 -1.0556
  801MOL0     H 5681   7.911   5.350  10.571  0.3246  1.3281 -0.3591
  801MOL0     H 5682   7.827   5.431  10.702 -2.7811  2.2417 -1.0742
  801MOL0     H 5683   7.923   5.623  10.515  3.8426 -2.7080  2.7063
  801MOL0     H 5684   7.783   5.618  10.621 -0.7953  0.1477 -0.4820
  801MOL0     H 5685   7.562   5.596  10.469  0.0151 -1.4705  1.3915
  801MOL0     H 5686   7.409   5.481  10.315  2.3671 -0.0147  1.9632
  801MOL0     H 5687   7.454   5.332  10.242 -0.6253 -0.8495  2.5763
  801MOL0     H 5688   7.492   5.434  10.027  0.4901  3.4801 -2.8964
  801MOL0     H 5689   7.513   5.588  10.076 -0.7611 -0.3688 -2.4523
  801MOL0     H 5690   7.258   5.447  10.012 -2.4540  1.3943 -0.1102
  801MOL0     H 5691   7.252   5.519  10.170 -1.7025 -0.2388 -0.4259
  801MOL0     H 5692   7.352   5.666   9.912 -0.2450 -1.1391 -1.0328
  801MOL0     H 5693   7.297   5.738  10.071 -1.8989 -0.6655  0.1640
  801MOL0     H 5694   7.263   5.549   9.738  0.1145  0.4957  1.8858
  801MOL0     H 5695   7.145   5.419   9.585  0.8577 -1.8814  2.6087
  801MOL0     H 5696   6.597   5.510   9.398  3.3730  0.7109 -3.3485
  801MOL0     H 5697   6.458   5.436   9.209 -2.1163 -0.9007  1.3140
  801MOL0     H 5698   6.373   5.322   9.018 -2.4210  0.6207 -1.7248
  801MOL0     H 5699   6.243   5.306   9.140  0.4226  2.5883 -0.6163
  801MOL0     H 5700   6.169   5.097   9.012  0.2910 -0.4557 -1.5423
  801MOL0     H 5701   6.320   5.098   8.922  0.8509  0.4103  1.0418
  801MOL0     H 5702   6.078   5.280   8.878  0.1795 -2.8211  2.8550
  801MOL0     H 5703   6.154   5.159   8.775  0.8728 -1.1521  1.4841
  801MOL0     H 5704   6.241   5.439   8.848 -1.9988 -2.0355  2.1166
  801MOL0     H 5705   6.361   5.311   8.787  0.3447  0.0912  4.1855
  801MOL0     H 5706   6.109   5.366   8.622  0.1140 -4.8900  1.1950
  801MOL0     H 5707   6.256   5.299   8.570 -1.5442 -0.2646  0.9904
  801MOL0     H 5708   6.372   5.508   8.603  0.6200 -0.4071 -2.2286
  801MOL0     H 5709   6.223   5.595   8.636 -0.3577 -1.4535  3.1990
  801MOL0     H 5710   6.282   5.436   8.380 -0.0381 -0.8655  0.3283
  801MOL0     H 5711   6.130   5.528   8.399 -0.0259 -2.7475 -0.9525
  801MOL0     H 5712   6.253   5.732   8.406  0.7543 -0.7427  4.9225
  801MOL0     H 5713   6.307   5.630   8.263  2.2114 -1.5828  0.7928
  801MOL0     H 5714   6.511   5.034   9.338 -0.6610  0.4361 -0.6103
  801MOL0     H 5715   6.668   5.115   9.520  0.4731 -0.4344 -1.9428
  801MOL0     H 5716   6.771   5.552   9.752 -0.3374  0.5631  0.8544
  801MOL0     H 5717   6.887   5.678   9.917 -1.8072 -0.7448 -0.0108
  801MOL0     H 5718   8.393   5.433  11.389  1.0577  0.1906  2.0900
  801MOL0     H 5719   8.595   5.328  11.490 -0.2219  0.1846 -0.0471
  801MOL0     H 5720   8.934   4.804  11.350 -1.8625 -1.3053  0.3037
  801MOL0     H 5721   9.118   4.728  11.509 -0.3875 -0.8889 -0.3807
  801MOL0     H 5722   9.288   4.663  11.839  0.6310 -1.3712 -0.8149
  801MOL0     H 5723   9.258   4.708  11.676  0.4797 -1.1994 -0.5486
  801MOL0     H 5724   9.073   4.513  11.833 -0.8012 -1.1137 -1.7970
  801MOL0     H 5725   9.116   4.503  11.662 -0.3767  1.4512 -1.1677
  801MOL0     H 5726   9.304   4.452  11.885 -3.2750  1.3223  0.0907
  801MOL0     H 5727   9.341   4.455  11.703 -0.9225 -1.1312 -1.2690
  801MOL0     H 5728   9.177   4.272  11.686  1.9494 -1.9610 -1.2582
  801MOL0     H 5729   9.319   4.225  11.778  0.2596 -0.1549  1.8865
  801MOL0     H 5730   9.070   4.196  12.106  1.6648 -4.3496 -0.0868
  801MOL0     H 5731   8.887   4.878  11.828  2.8611 -2.8032  0.8069
  801MOL0     H 5732   8.739   4.987  11.694 -0.0189 -0.0493 -0.5478
  802MOL0     O 5733   3.990   7.917   5.477 -0.5883  0.3385  0.5023
  802MOL0     C 5734   4.088   7.993   5.481 -1.4217  1.1327 -0.9187
  802MOL0     O 5735   4.138   8.070   5.376 -0.1279 -0.1652 -0.9400
  802MOL0     C 5736   4.079   8.058   5.258 -0.6057 -0.4230 -0.6868
  802MOL0     C 5737   4.070   7.933   5.196  0.1427 -0.5073  1.3981
  802MOL0     C 5738   4.003   7.918   5.073  0.9718  0.1808 -0.8060
  802MOL0     C 5739   3.968   8.033   4.996  0.9403 -0.2345 -0.2683
  802MOL0     O 5740   3.908   8.022   4.877 -0.4279 -0.6338  0.5315
  802MOL0     C 5741   3.788   8.100   4.850 -0.1286  0.3484 -0.5519
  802MOL0     C 5742   3.704   8.047   4.739  0.1180 -0.0767  0.5732
  802MOL0     C 5743   3.550   8.050   4.752  0.4863 -0.7491  0.5766
  802MOL0     C 5744   3.489   7.956   4.649  0.7419 -0.3896 -0.4114
  802MOL0     C 5745   3.337   7.986   4.615  0.2888 -0.2589  0.1173
  802MOL0     C 5746   3.231   7.924   4.714  0.7213 -0.2424  0.1457
  802MOL0     C 5747   3.243   7.769   4.724 -1.4359  0.1975  0.0518
  802MOL0     C 5748   3.159   7.686   4.817  0.0955 -0.3942 -0.0953
  802MOL0     N 5749   3.223   7.549   4.839 -0.3667 -0.4543  0.0203
  802MOL0     C 5750   3.261   7.462   4.736  0.0825 -0.3716  0.1360
  802MOL0     C 5751   3.305   7.351   4.798 -0.5824 -0.1069 -0.5840
  802MOL0     C 5752   3.355   7.224   4.731  0.1676  0.0238 -0.4789
  802MOL0     C 5753   3.247   7.161   4.646  0.4966  0.4301  0.5797
  802MOL0     C 5754   3.301   7.016   4.596  0.9300  1.4822 -0.2423
  802MOL0     C 5755   3.409   7.027   4.489  0.4967 -0.4294 -0.7514
  802MOL0     O 5756   3.349   7.076   4.374 -0.7332  0.0480  0.2560
  802MOL0     C 5757   3.424   7.131   4.272  0.8060 -0.3701 -0.2198
  802MOL0     C 5758   3.561   7.168   4.265 -0.7101 -0.5082  0.8945
  802MOL0     C 5759   3.618   7.229   4.153 -0.3956  0.4728 -1.2898
  802MOL0     C 5760   3.541   7.267   4.040  0.0471  0.9894 -0.5604
  802MOL0     C 5761   3.595   7.337   3.926  0.5127 -0.5498 -0.4526
  802MOL0     O 5762   3.516   7.347   3.811  0.6234  0.0315  0.3315
  802MOL0     C 5763   3.550   7.423   3.703  0.8502  0.8085 -0.2648
  802MOL0     C 5764   3.443   7.489   3.639 -0.7025 -0.1844 -0.5292
  802MOL0     C 5765   3.474   7.577   3.531  0.5695  0.1359  0.0135
  802MOL0     C 5766   3.604   7.597   3.488 -0.3545 -0.5371  0.1741
  802MOL0     O 5767   3.635   7.667   3.372 -0.6643 -0.9249  0.1106
  802MOL0     C 5768   3.607   7.809   3.378  0.3171  0.0438 -0.1939
  802MOL0     C 5769   3.527   7.859   3.260 -0.1977 -0.2319  0.4966
  802MOL0     C 5770   3.543   8.008   3.216  0.0196  0.4510  0.1174
  802MOL0     C 5771   3.572   8.016   3.068  0.2348  0.6457 -0.6545
  802MOL0     C 5772   3.593   8.156   3.016  0.1118  0.5320  0.7158
  802MOL0     C 5773   3.479   8.250   3.062 -0.4652 -0.5125  0.6838
  802MOL0     C 5774   3.475   8.374   2.977 -0.0830 -1.2297  0.3778
  802MOL0     C 5775   3.371   8.480   3.006 -0.1613 -0.5141 -0.8047
  802MOL0    Cl 5776   3.378   8.627   2.897 -0.1697 -0.0552 -0.2267
  802MOL0     C 5777   3.701   7.511   3.537  0.2478 -0.8698  0.4454
  802MOL0     C 5778   3.680   7.430   3.645 -0.4731 -0.5955 -0.6184
  802MOL0     O 5779   3.702   7.393   3.940  0.8256  0.2517  0.3503
  802MOL0     C 5780   3.404   7.231   4.037  0.2346 -0.4620 -1.3198
  802MOL0     C 5781   3.353   7.159   4.155  0.8031  0.1157 -1.1904
  802MOL0     N 5782   3.287   7.365   4.937 -0.2010 -0.7309  0.0929
  802MOL0     N 5783   3.236   7.484   4.962  1.3626 -0.3647  0.1608
  802MOL0     C 5784   3.981   8.156   5.063  0.0965 -0.2243  0.7336
  802MOL0     C 5785   4.034   8.168   5.187 -0.3692 -0.1450 -0.1662
  802MOL0     C 5786   4.170   7.973   5.606  0.4208 -0.2527  0.1498
  802MOL0     C 5787   4.310   8.001   5.596 -0.7671 -0.1448  0.8426
  802MOL0     C 5788   4.388   7.967   5.707 -0.4638  0.2929  0.0386
  802MOL0     C 5789   4.334   7.932   5.830 -0.4435  0.2142  0.2112
  802MOL0     O 5790   4.414   7.897   5.936 -0.3507  0.3889  0.3596
  802MOL0     C 5791   4.470   7.763   5.916 -0.5228 -0.5837  0.2259
  802MOL0     C 5792   4.383   7.642   5.978  0.4010  0.3985 -0.3643
  802MOL0     C 5793   4.458   7.557   6.095 -0.6377 -1.3399  0.4515
  802MOL0     C 5794   4.355   7.459   6.154 -0.5284 -0.9402 -0.2248
  802MOL0     C 5795   4.414   7.371   6.257 -0.1982  0.1686  0.5126
  802MOL0     C 5796   4.458   7.284   6.324 -0.3385 -0.6756  0.2336
  802MOL0     C 5797   4.193   7.925   5.838 -0.0868 -0.2957 -0.2169
  802MOL0     C 5798   4.111   7.950   5.733  0.4136  1.5563  0.2827
  802MOL0     H 5799   4.093   7.838   5.244 -0.1444 -1.7410 -0.7578
  802MOL0     H 5800   3.996   7.825   5.018  1.5962 -0.8427  0.7740
  802MOL0     H 5801   3.812   8.206   4.836 -0.2286  0.1192 -2.8727
  802MOL0     H 5802   3.734   8.098   4.945  2.5509 -3.1529  1.1128
  802MOL0     H 5803   3.723   7.939   4.733  4.8878  0.5382  0.0030
  802MOL0     H 5804   3.732   8.086   4.640 -3.3342 -0.3402 -0.6248
  802MOL0     H 5805   3.518   8.153   4.733  1.7654 -0.7286 -1.8301
  802MOL0     H 5806   3.503   8.034   4.850  4.7840  1.0881  3.2365
  802MOL0     H 5807   3.535   7.970   4.550 -3.4293 -0.1341 -2.5239
  802MOL0     H 5808   3.513   7.851   4.667  3.5139  0.4110  1.2855
  802MOL0     H 5809   3.313   7.934   4.522 -1.6308 -0.3862  0.6439
  802MOL0     H 5810   3.323   8.093   4.599 -2.8231 -0.6201 -0.3172
  802MOL0     H 5811   3.132   7.948   4.673  1.4188 -1.2199 -2.3029
  802MOL0     H 5812   3.244   7.976   4.809  0.4265  1.3226 -0.6432
  802MOL0     H 5813   3.232   7.710   4.632  1.9867 -1.9420  0.8263
  802MOL0     H 5814   3.346   7.755   4.758 -0.2221  2.5991 -2.2751
  802MOL0     H 5815   3.058   7.674   4.778  0.2167 -0.9368 -0.2482
  802MOL0     H 5816   3.151   7.732   4.916 -2.8709 -1.7836  0.3991
  802MOL0     H 5817   3.259   7.472   4.628 -1.1841 -2.3111 -0.0869
  802MOL0     H 5818   3.373   7.150   4.810 -0.7650 -0.0983 -0.3650
  802MOL0     H 5819   3.435   7.245   4.660 -0.5961 -2.2321 -2.1019
  802MOL0     H 5820   3.225   7.223   4.558 -0.7716  1.1063  1.3286
  802MOL0     H 5821   3.151   7.155   4.700  1.3999  1.9910  2.4839
  802MOL0     H 5822   3.333   6.954   4.681  0.3681  1.7477  0.1662
  802MOL0     H 5823   3.224   6.957   4.544  2.8863 -2.8099  1.2412
  802MOL0     H 5824   3.443   6.925   4.474 -1.0371 -1.0223 -0.3544
  802MOL0     H 5825   3.487   7.094   4.528  0.7778  0.0035 -1.9973
  802MOL0     H 5826   3.631   7.145   4.344  0.2194 -1.5251 -0.1926
  802MOL0     H 5827   3.722   7.255   4.175 -0.9788  0.7234  1.5561
  802MOL0     H 5828   3.339   7.474   3.667 -1.3547  2.0781 -1.5176
  802MOL0     H 5829   3.393   7.631   3.483  0.4920  0.0532  0.0505
  802MOL0     H 5830   3.706   7.849   3.354 -0.4219  1.4624 -1.0188
  802MOL0     H 5831   3.567   7.845   3.473 -1.5513 -1.1106 -0.4806
  802MOL0     H 5832   3.421   7.843   3.284 -0.4235  0.1777 -0.1628
  802MOL0     H 5833   3.551   7.790   3.178  0.1828  1.1358 -0.5809
  802MOL0     H 5834   3.624   8.063   3.265  2.0594 -0.2787 -2.2055
  802MOL0     H 5835   3.449   8.063   3.229 -0.0767  0.5892 -1.0843
  802MOL0     H 5836   3.661   7.957   3.042  0.0098  0.5685 -1.2829
  802MOL0     H 5837   3.495   7.965   3.009 -0.3566  0.4393  0.2733
  802MOL0     H 5838   3.587   8.149   2.907 -1.0816  2.1494  0.6340
  802MOL0     H 5839   3.696   8.186   3.036  1.3580 -1.4249 -2.1776
  802MOL0     H 5840   3.496   8.283   3.165 -3.0785  2.9843  0.2047
  802MOL0     H 5841   3.389   8.190   3.047 -1.9170  2.0078 -1.6699
  802MOL0     H 5842   3.573   8.422   2.970 -1.7223  2.2923 -0.8035
  802MOL0     H 5843   3.443   8.337   2.879 -2.9016  0.6539  0.4831
  802MOL0     H 5844   3.386   8.526   3.104  0.2278  2.5822 -2.1758
  802MOL0     H 5845   3.270   8.438   3.013 -2.0661  3.3178 -2.0972
  802MOL0     H 5846   3.798   7.509   3.489 -1.7270 -3.3107 -4.0810
  802MOL0     H 5847   3.762   7.376   3.691 -1.1004 -2.5851 -1.7205
  802MOL0     H 5848   3.345   7.256   3.950 -4.1614  1.1661  1.8181
  802MOL0     H 5849   3.246   7.146   4.160  0.9585 -0.6198  0.8630
  802MOL0     H 5850   3.941   8.241   5.008 -0.2394 -0.1607  1.0741
  802MOL0     H 5851   4.043   8.268   5.228 -1.3556  0.2779 -0.9374
  802MOL0     H 5852   4.357   8.033   5.504  1.5168 -1.8754  1.2976
  802MOL0     H 5853   4.496   7.971   5.692 -0.3316 -1.7677  0.1490
  802MOL0     H 5854   4.571   7.752   5.957 -0.5877  1.8153  1.1672
  802MOL0     H 5855   4.474   7.737   5.810 -0.4129 -0.6399  0.2438
  802MOL0     H 5856   4.288   7.678   6.019 -1.4207 -2.8088 -1.4654
  802MOL0     H 5857   4.363   7.569   5.899  0.3297  2.5118 -2.4025
  802MOL0     H 5858   4.499   7.625   6.169 -2.2757 -1.1614  1.2495
  802MOL0     H 5859   4.537   7.513   6.034  0.9251 -0.2262  1.5908
  802MOL0     H 5860   4.280   7.520   6.207  0.7538  2.4930 -2.0633
  802MOL0     H 5861   4.316   7.396   6.074 -1.3443  0.6312 -1.1251
  802MOL0     H 5862   4.508   7.216   6.390 -0.3000  1.6928  2.8521
  802MOL0     H 5863   4.152   7.908   5.937  1.1563  2.4945  0.8904
  802MOL0     H 5864   4.005   7.961   5.750  0.1205  0.9770 -1.0565
  803MOL0     O 5865   6.317  10.353   4.886  0.3774 -0.0158 -0.9429
  803MOL0     C 5866   6.255  10.459   4.910 -0.0738  0.4188  0.4556
  803MOL0     O 5867   6.193  10.490   5.026 -0.4087  0.4404 -0.1894
  803MOL0     C 5868   6.173  10.394   5.127  0.6194 -0.2027  0.0755
  803MOL0     C 5869   6.250  10.395   5.238 -0.0694  0.2199 -0.6675
  803MOL0     C 5870   6.221  10.318   5.354  0.2914 -1.1241 -0.1238
  803MOL0     C 5871   6.103  10.239   5.355 -0.3709  0.5226  0.6894
  803MOL0     O 5872   6.073  10.165   5.468  0.1483  0.1988 -0.5996
  803MOL0     C 5873   6.133  10.028   5.458  0.9020 -0.0041 -0.0806
  803MOL0     C 5874   6.147   9.970   5.597  0.2869  1.0444 -0.8022
  803MOL0     C 5875   6.270   9.883   5.617 -0.3401  0.6079 -0.0254
  803MOL0     C 5876   6.396   9.969   5.607 -0.5361  0.4040  0.0030
  803MOL0     C 5877   6.521   9.915   5.664  0.8457  0.3245 -0.8873
  803MOL0     C 5878   6.644   9.986   5.618 -0.3336  0.2760 -1.0681
  803MOL0     C 5879   6.767   9.960   5.697 -0.4036  0.4078 -0.4116
  803MOL0     C 5880   6.887  10.011   5.614  0.2588  1.3779 -1.1995
  803MOL0     N 5881   7.012   9.967   5.683  0.2566 -0.4773 -0.4523
  803MOL0     C 5882   7.033  10.036   5.800 -2.0536 -0.8311  0.6085
  803MOL0     C 5883   7.123   9.965   5.850  0.4371 -0.0806 -0.0666
  803MOL0     C 5884   7.204   9.993   5.969 -0.0668 -0.5816 -1.0889
  803MOL0     C 5885   7.289   9.885   6.039 -0.0729  0.1715 -0.4315
  803MOL0     C 5886   7.371   9.955   6.145  0.6299  0.0058  0.2798
  803MOL0     C 5887   7.489   9.882   6.202  1.2534  0.0385 -0.4387
  803MOL0     O 5888   7.551   9.943   6.321 -0.0509  0.6251  0.3393
  803MOL0     C 5889   7.639   9.868   6.380 -1.2021  0.2870 -0.2810
  803MOL0     C 5890   7.694   9.744   6.337 -0.1277 -1.0169  0.4652
  803MOL0     C 5891   7.781   9.676   6.421 -0.7544 -0.5066  0.1103
  803MOL0     C 5892   7.823   9.736   6.541 -1.0910 -0.3989  1.0856
  803MOL0     C 5893   7.913   9.663   6.642 -0.2475  0.7607  0.1296
  803MOL0     O 5894   7.980   9.544   6.602 -0.0685  0.1938  0.6409
  803MOL0     C 5895   8.073   9.480   6.677 -0.8035  0.0567 -0.3837
  803MOL0     C 5896   8.071   9.447   6.814 -0.4470  0.8467 -0.0421
  803MOL0     C 5897   8.183   9.385   6.871 -0.5845 -0.0612 -0.5671
  803MOL0     C 5898   8.300   9.354   6.802  0.0165 -0.8360  0.1721
  803MOL0     O 5899   8.412   9.301   6.858  0.3269  0.2370  0.0580
  803MOL0     C 5900   8.460   9.338   6.990  1.1577  0.5204 -0.1889
  803MOL0     C 5901   8.441   9.224   7.097 -0.0937 -0.8601 -0.1197
  803MOL0     C 5902   8.518   9.245   7.230 -0.0932 -0.2039 -0.4844
  803MOL0     C 5903   8.551   9.114   7.304  0.6980 -0.7667 -0.1303
  803MOL0     C 5904   8.457   9.057   7.419 -1.0065 -0.3019  0.3850
  803MOL0     C 5905   8.315   9.031   7.376 -0.9454 -1.4853 -1.1616
  803MOL0     C 5906   8.301   8.919   7.275  0.4812  0.8281  1.0698
  803MOL0     C 5907   8.344   8.779   7.319  0.4057 -1.1494 -0.5332
  803MOL0    Cl 5908   8.239   8.731   7.459  0.3595  0.4171 -0.5662
  803MOL0     C 5909   8.298   9.375   6.672  0.5954 -0.3067 -0.3631
  803MOL0     C 5910   8.190   9.440   6.606 -0.6383 -0.4231  0.0888
  803MOL0     O 5911   7.943   9.727   6.739 -0.3879  0.0774 -0.4704
  803MOL0     C 5912   7.780   9.865   6.579 -0.3632  0.0597 -0.1330
  803MOL0     C 5913   7.684   9.921   6.500  0.6919  0.8205 -1.0873
  803MOL0     N 5914   7.150   9.851   5.777  0.4147 -0.1589  0.0839
  803MOL0     N 5915   7.070   9.850   5.679  0.2529 -0.2643  0.6667
  803MOL0     C 5916   6.022  10.231   5.236  0.4190  0.7666 -0.5653
  803MOL0     C 5917   6.058  10.311   5.124  0.4581 -0.0996 -0.0014
  803MOL0     C 5918   6.255  10.562   4.805 -0.4137 -0.0927 -0.5771
  803MOL0     C 5919   6.171  10.677   4.818  0.4653  0.9849  0.4933
  803MOL0     C 5920   6.188  10.785   4.733 -0.4112 -0.7721 -1.0386
  803MOL0     C 5921   6.289  10.783   4.637 -0.1057 -0.2240 -0.0595
  803MOL0     O 5922   6.322  10.894   4.565 -0.1299  0.0668  0.2457
  803MOL0     C 5923   6.218  10.996   4.539  0.4044 -1.0462  0.3952
  803MOL0     C 5924   6.238  11.089   4.416 -0.3866 -0.3987 -0.5344
  803MOL0     C 5925   6.269  11.022   4.283  0.1482 -0.2166 -0.7961
  803MOL0     C 5926   6.415  11.037   4.231  0.2441 -0.5940 -0.3607
  803MOL0     C 5927   6.511  10.976   4.314  0.5027  0.8172  0.7725
  803MOL0     C 5928   6.574  10.914   4.388 -0.8088 -0.3184 -0.8376
  803MOL0     C 5929   6.366  10.666   4.620 -0.6173  0.4891  0.0514
  803MOL0     C 5930   6.351  10.553   4.704  0.2609  0.6181  1.3216
  803MOL0     H 5931   6.332  10.463   5.260 -1.1012  0.9909  1.0677
  803MOL0     H 5932   6.279  10.331   5.445 -0.4871 -0.9833  0.3736
  803MOL0     H 5933   6.234  10.025   5.416  0.9924 -0.6936  0.1684
  803MOL0     H 5934   6.065   9.961   5.405 -0.1274  1.0860 -0.1780
  803MOL0     H 5935   6.061   9.903   5.607  1.0381  0.3235  1.2314
  803MOL0     H 5936   6.152  10.053   5.668  1.2586  2.8788 -2.8805
  803MOL0     H 5937   6.280   9.794   5.555  0.3611 -1.1444  2.4548
  803MOL0     H 5938   6.277   9.846   5.720 -0.2825 -0.6848 -0.4762
  803MOL0     H 5939   6.414   9.983   5.500  1.0902  1.5727  0.3951
  803MOL0     H 5940   6.372  10.068   5.648  2.0878  1.5341 -0.9815
  803MOL0     H 5941   6.522   9.807   5.646  0.8190  0.2720 -0.5785
  803MOL0     H 5942   6.516   9.933   5.772  3.7367  1.8199 -0.9293
  803MOL0     H 5943   6.625  10.094   5.624  0.5571  0.3697  0.8225
  803MOL0     H 5944   6.657   9.956   5.514  1.4675 -1.6456 -0.3466
  803MOL0     H 5945   6.768  10.007   5.796  1.3752 -0.2507 -0.0772
  803MOL0     H 5946   6.784   9.854   5.718  1.9003  0.4434 -1.7276
  803MOL0     H 5947   6.890  10.120   5.605  1.1887  1.3065 -1.9284
  803MOL0     H 5948   6.876   9.969   5.513  0.2700 -2.1773  0.1591
  803MOL0     H 5949   6.986  10.132   5.821 -1.2890  0.1377 -1.7793
  803MOL0     H 5950   7.141  10.046   6.041  0.4490 -1.1334 -0.2109
  803MOL0     H 5951   7.276  10.070   5.939 -0.5109  0.8395  1.2301
  803MOL0     H 5952   7.370   9.849   5.975  0.9167  1.4060  0.0822
  803MOL0     H 5953   7.215   9.814   6.077 -0.2511 -0.3786 -1.7340
  803MOL0     H 5954   7.407  10.054   6.115  0.4893  0.0076  0.1159
  803MOL0     H 5955   7.306   9.967   6.233  2.6438  0.5927  1.7710
  803MOL0     H 5956   7.560   9.877   6.118 -0.3776 -0.8899 -1.8139
  803MOL0     H 5957   7.461   9.782   6.235  1.8188  0.2349  0.6639
  803MOL0     H 5958   7.674   9.697   6.241  1.8953 -2.3773  0.6429
  803MOL0     H 5959   7.811   9.574   6.401  0.4791  0.1061 -1.3623
  803MOL0     H 5960   7.988   9.472   6.880  0.5036  1.3062  1.0094
  803MOL0     H 5961   8.188   9.366   6.978 -3.4244  3.2396  0.3678
  803MOL0     H 5962   8.433   9.440   7.022  1.3320  1.1180 -1.8480
  803MOL0     H 5963   8.569   9.349   6.983  1.4076 -0.4852  1.6393
  803MOL0     H 5964   8.476   9.137   7.041  0.9675  1.1531 -2.7722
  803MOL0     H 5965   8.335   9.221   7.124 -0.0214  2.4906  0.9598
  803MOL0     H 5966   8.468   9.319   7.293  2.1972  0.5214  0.6049
  803MOL0     H 5967   8.618   9.286   7.209  0.1908 -0.4845  0.2748
  803MOL0     H 5968   8.567   9.040   7.225 -3.1075  0.1516 -2.0319
  803MOL0     H 5969   8.648   9.133   7.351  1.0406 -2.0005 -0.3001
  803MOL0     H 5970   8.465   9.132   7.499  0.3743  1.7787 -1.5574
  803MOL0     H 5971   8.498   8.959   7.446 -2.7197 -0.9354  0.7992
  803MOL0     H 5972   8.279   9.125   7.333  1.4927  0.5183  0.8476
  803MOL0     H 5973   8.245   9.012   7.459 -0.1413 -2.3558 -0.6570
  803MOL0     H 5974   8.204   8.929   7.225  0.7922  2.9834  0.7594
  803MOL0     H 5975   8.367   8.941   7.190 -2.1508  2.0233 -0.8173
  803MOL0     H 5976   8.448   8.784   7.353  0.4882  3.2444 -0.9198
  803MOL0     H 5977   8.348   8.712   7.232 -1.1621  1.3457 -2.6637
  803MOL0     H 5978   8.384   9.349   6.611  1.8829  0.4629  1.0533
  803MOL0     H 5979   8.202   9.459   6.500 -1.5291  2.2251  0.4045
  803MOL0     H 5980   7.805   9.910   6.674 -2.1133 -0.5343  0.6585
  803MOL0     H 5981   7.649  10.018   6.535 -1.9418 -0.5689  0.4470
  803MOL0     H 5982   5.941  10.159   5.227  1.3644 -0.4068 -0.0591
  803MOL0     H 5983   5.990  10.300   5.040  0.1965 -0.6735  0.2787
  803MOL0     H 5984   6.098  10.678   4.898 -2.7711  0.3210 -2.2206
  803MOL0     H 5985   6.129  10.874   4.754  1.4852  0.6004 -1.2451
  803MOL0     H 5986   6.214  11.057   4.630 -2.2251  0.6188 -0.7033
  803MOL0     H 5987   6.127  10.939   4.520  0.2952 -0.0713 -2.6565
  803MOL0     H 5988   6.143  11.140   4.401 -0.6194 -0.6350  0.1072
  803MOL0     H 5989   6.324  11.156   4.426 -1.4343  0.7316  1.4687
  803MOL0     H 5990   6.213  11.075   4.205  1.1450 -0.0806 -1.4395
  803MOL0     H 5991   6.239  10.917   4.287  2.7998 -1.0536 -0.6801
  803MOL0     H 5992   6.421  10.976   4.140  2.1783 -1.0645  0.0382
  803MOL0     H 5993   6.450  11.138   4.207  0.0369 -0.1555  1.0908
  803MOL0     H 5994   6.638  10.860   4.455 -1.5617 -0.6354 -0.3611
  803MOL0     H 5995   6.449  10.663   4.550  1.6339  2.0383  2.4705
  803MOL0     H 5996   6.422  10.476   4.676  2.0596  3.2990 -2.1338
  804MOL0     O 5997   0.722   7.864   5.212  1.1022  0.2888 -0.2793
  804MOL0     C 5998   0.699   7.985   5.229 -0.6661  0.4851  0.6539
  804MOL0     O 5999   0.606   8.050   5.311 -0.5347 -0.2686 -0.3963
  804MOL0     C 6000   0.517   7.975   5.386 -0.1480 -0.1616  0.7552
  804MOL0     C 6001   0.450   7.861   5.343  0.1954 -0.1078  0.7395
  804MOL0     C 6002   0.366   7.789   5.433  0.0584  0.4550  0.5220
  804MOL0     C 6003   0.350   7.830   5.565 -0.7026 -0.5882  0.0803
  804MOL0     O 6004   0.257   7.758   5.639 -0.6931  0.5307  0.6610
  804MOL0     C 6005   0.204   7.825   5.753 -1.3204 -0.5887 -0.4719
  804MOL0     C 6006   0.284   7.807   5.885 -0.6371  0.4131 -0.6168
  804MOL0     C 6007   0.216   7.887   5.999 -0.5485 -0.5652 -0.5457
  804MOL0     C 6008   0.265   7.845   6.139 -0.8358  0.0839  0.1629
  804MOL0     C 6009   0.224   7.940   6.252  0.4669  0.5206 -0.3870
  804MOL0     C 6010   0.305   7.925   6.385  0.7028  0.4619  0.2474
  804MOL0     C 6011   0.221   7.982   6.500 -0.4691  0.4294  0.2119
  804MOL0     C 6012   0.316   7.989   6.624  0.3769  0.1545  0.3625
  804MOL0     N 6013   0.240   7.996   6.748 -0.2902  0.6741 -0.9258
  804MOL0     C 6014   0.105   7.996   6.767 -0.4519 -0.2982 -0.3137
  804MOL0     C 6015   0.089   7.995   6.900  0.4367  0.2367 -0.8924
  804MOL0     C 6016  -0.030   7.970   6.987  0.5694  0.5219  0.0116
  804MOL0     C 6017  -0.030   7.823   7.023  0.9766 -0.4602  0.4514
  804MOL0     C 6018  -0.153   7.785   7.113 -0.4102 -0.1891 -0.2377
  804MOL0     C 6019  -0.164   7.634   7.126  0.0356  0.2851  0.2472
  804MOL0     O 6020  -0.205   7.590   7.000 -0.0671  0.6464 -0.3157
  804MOL0     C 6021  -0.199   7.450   6.984 -0.0943 -0.4389  0.2491
  804MOL0     C 6022  -0.197   7.416   6.851  0.1587 -0.1514  0.0850
  804MOL0     C 6023  -0.180   7.273   6.817 -0.3247  0.4282 -0.0461
  804MOL0     C 6024  -0.149   7.183   6.918 -0.0668  0.7871 -0.0043
  804MOL0     C 6025  -0.108   7.046   6.883 -0.5622 -0.5052 -0.7598
  804MOL0     O 6026  -0.023   6.983   6.964 -0.7577 -0.1356 -0.7723
  804MOL0     C 6027   0.005   6.849   6.943  0.6890  0.0283  0.4502
  804MOL0     C 6028   0.109   6.811   6.854  0.0548  0.3623  0.5524
  804MOL0     C 6029   0.142   6.686   6.832 -0.1586  0.0640 -0.7704
  804MOL0     C 6030   0.069   6.583   6.889  0.2646  0.2768  0.2226
  804MOL0     O 6031   0.101   6.455   6.846 -0.1270  0.5402  0.1733
  804MOL0     C 6032   0.043   6.343   6.924 -0.2143  0.3505 -0.7242
  804MOL0     C 6033   0.140   6.226   6.929 -0.9064 -0.6409 -0.4311
  804MOL0     C 6034   0.257   6.236   7.035 -1.6210  0.5421  0.5352
  804MOL0     C 6035   0.364   6.135   6.990  0.6992 -0.6706  0.0088
  804MOL0     C 6036   0.316   5.993   7.029 -0.4191  0.7079  0.0955
  804MOL0     C 6037   0.412   5.886   6.971  0.8978 -0.1109 -0.5665
  804MOL0     C 6038   0.339   5.754   6.970  0.4519  0.6435  0.7273
  804MOL0     C 6039   0.421   5.660   6.882 -0.8492  0.2626  0.3327
  804MOL0    Cl 6040   0.556   5.603   6.972 -0.0590  0.4365  0.5364
  804MOL0     C 6041  -0.032   6.623   6.984 -0.7588  0.7559  1.5343
  804MOL0     C 6042  -0.068   6.756   7.007  0.3644 -0.2553  0.4852
  804MOL0     O 6043  -0.148   6.998   6.774 -0.1894  0.1488 -0.0561
  804MOL0     C 6044  -0.145   7.221   7.047  0.0373 -0.3141  0.3614
  804MOL0     C 6045  -0.174   7.353   7.079 -0.5267 -0.2864  0.3484
  804MOL0     N 6046   0.211   7.966   6.958 -0.5949  0.0734  0.7208
  804MOL0     N 6047   0.300   7.978   6.864 -1.0687 -0.2017 -0.3353
  804MOL0     C 6048   0.413   7.946   5.604  0.9520 -0.6392  0.7463
  804MOL0     C 6049   0.501   8.017   5.517  0.0668  0.2206 -0.1343
  804MOL0     C 6050   0.792   8.069   5.136  0.0108  1.1230  0.8581
  804MOL0     C 6051   0.868   8.006   5.031 -0.3844 -0.3589 -0.5595
  804MOL0     C 6052   0.928   8.088   4.934  0.7380  0.5637  0.3240
  804MOL0     C 6053   0.953   8.223   4.952  0.6338 -0.6026 -0.3327
  804MOL0     O 6054   1.001   8.287   4.844  0.4158  0.2346 -0.2644
  804MOL0     C 6055   1.038   8.430   4.869  0.0636 -0.3073  0.5358
  804MOL0     C 6056   1.071   8.495   4.731 -0.6506 -0.2442 -0.4331
  804MOL0     C 6057   1.102   8.642   4.745 -0.7942  0.7230  0.1846
  804MOL0     C 6058   0.989   8.735   4.710  0.3566 -0.0248 -0.4682
  804MOL0     C 6059   1.019   8.877   4.691 -0.0567 -1.0447 -0.4809
  804MOL0     C 6060   1.047   8.999   4.709  0.6502  0.6234  0.3354
  804MOL0     C 6061   0.885   8.281   5.070 -0.6193  0.4785  0.1070
  804MOL0     C 6062   0.810   8.207   5.157  0.1790 -0.2904 -0.8054
  804MOL0     H 6063   0.453   7.851   5.235  1.1989  0.9370  0.6543
  804MOL0     H 6064   0.315   7.705   5.388  0.6069 -0.3260  1.3413
  804MOL0     H 6065   0.111   7.768   5.758 -2.6644  1.5024 -0.1809
  804MOL0     H 6066   0.187   7.932   5.736  2.5891 -0.0228 -1.7903
  804MOL0     H 6067   0.389   7.839   5.884 -0.3376 -0.5597 -0.7445
  804MOL0     H 6068   0.257   7.703   5.903 -2.1119  0.6141 -1.4771
  804MOL0     H 6069   0.107   7.875   5.992 -0.6697  0.2040 -0.1152
  804MOL0     H 6070   0.233   7.994   5.985  0.7645  0.4356  5.7889
  804MOL0     H 6071   0.246   7.738   6.153  1.4536 -0.3872  0.1552
  804MOL0     H 6072   0.374   7.842   6.131 -0.9682 -2.4779 -3.2713
  804MOL0     H 6073   0.118   7.916   6.264  0.8159 -0.4957  0.8542
  804MOL0     H 6074   0.224   8.044   6.216  2.2310  0.4083 -0.7899
  804MOL0     H 6075   0.393   7.990   6.381 -1.0736  3.1291  1.4422
  804MOL0     H 6076   0.337   7.824   6.409  3.5268  0.0658 -4.0571
  804MOL0     H 6077   0.187   8.085   6.485  3.6635  1.9747  0.2691
  804MOL0     H 6078   0.132   7.923   6.524 -0.2870  0.9457  2.4455
  804MOL0     H 6079   0.380   8.077   6.630 -0.7534  0.8936  2.9466
  804MOL0     H 6080   0.371   7.895   6.633 -3.3732 -2.3444 -0.7907
  804MOL0     H 6081   0.023   7.984   6.697  0.1728  0.8236 -1.2631
  804MOL0     H 6082  -0.119   7.991   6.927 -0.1417  0.2331  0.9434
  804MOL0     H 6083  -0.017   8.035   7.074  0.7729  1.6267 -0.8217
  804MOL0     H 6084   0.060   7.787   7.073  1.3970 -3.4651 -2.1211
  804MOL0     H 6085  -0.039   7.769   6.929  0.1366  2.4575 -1.2688
  804MOL0     H 6086  -0.140   7.839   7.207  0.6289  1.8648 -1.4849
  804MOL0     H 6087  -0.236   7.831   7.059  0.0609  2.3575  1.0782
  804MOL0     H 6088  -0.239   7.612   7.202  1.1634  0.6031  1.5093
  804MOL0     H 6089  -0.065   7.602   7.162  0.3411 -0.5083 -1.2243
  804MOL0     H 6090  -0.193   7.489   6.770  1.2430  1.1529  1.2422
  804MOL0     H 6091  -0.165   7.249   6.713 -0.7621  1.0675 -0.2613
  804MOL0     H 6092   0.151   6.897   6.804  0.4069 -0.3570 -0.4132
  804MOL0     H 6093   0.220   6.660   6.762  0.7736  2.2684 -0.6378
  804MOL0     H 6094  -0.043   6.298   6.875 -0.6125  0.5060 -0.1808
  804MOL0     H 6095   0.006   6.364   7.025 -0.5874 -1.3398 -0.4897
  804MOL0     H 6096   0.186   6.222   6.830 -0.1248  2.5588 -0.2906
  804MOL0     H 6097   0.079   6.138   6.953 -2.1520 -0.0676 -1.3695
  804MOL0     H 6098   0.210   6.222   7.133 -3.5712  3.9543  0.2337
  804MOL0     H 6099   0.302   6.336   7.034  0.5353 -0.1879  4.5140
  804MOL0     H 6100   0.362   6.142   6.881 -1.8803  2.2712  0.0989
  804MOL0     H 6101   0.461   6.157   7.035 -0.7833  0.5874  2.8858
  804MOL0     H 6102   0.220   5.976   6.979 -0.4377 -1.6552  0.8050
  804MOL0     H 6103   0.308   5.971   7.136 -0.6478 -0.2114 -0.1005
  804MOL0     H 6104   0.499   5.882   7.037 -0.3645 -0.6151  1.1553
  804MOL0     H 6105   0.457   5.902   6.873  2.8819 -3.0452 -0.2566
  804MOL0     H 6106   0.332   5.708   7.068  1.8485 -1.0523  0.0796
  804MOL0     H 6107   0.244   5.762   6.918  0.2774 -3.3611  0.1231
  804MOL0     H 6108   0.447   5.707   6.786 -4.3387 -2.9126 -2.4452
  804MOL0     H 6109   0.353   5.582   6.849 -1.3806  1.0053 -0.3890
  804MOL0     H 6110  -0.082   6.539   7.031  1.5557 -0.4019  2.0940
  804MOL0     H 6111  -0.154   6.780   7.068 -1.7731 -1.2089 -1.9758
  804MOL0     H 6112  -0.118   7.142   7.116  0.3213 -1.3399 -0.8812
  804MOL0     H 6113  -0.171   7.382   7.184 -3.0152  0.5090  0.2712
  804MOL0     H 6114   0.393   7.989   5.702  0.5071 -1.0007  0.8138
  804MOL0     H 6115   0.548   8.112   5.542 -1.0571  1.2936 -1.9048
  804MOL0     H 6116   0.869   7.898   5.029 -0.5688 -0.5250  2.4809
  804MOL0     H 6117   0.978   8.038   4.852  0.9874  0.1860  0.7008
  804MOL0     H 6118   1.121   8.425   4.939 -1.1897 -0.7981  2.0552
  804MOL0     H 6119   0.961   8.486   4.922  0.4673  0.1859  0.6014
  804MOL0     H 6120   1.159   8.444   4.691  0.3287  2.4717 -1.9606
  804MOL0     H 6121   0.989   8.483   4.659 -0.8211 -2.0238  0.0050
  804MOL0     H 6122   1.183   8.677   4.680 -0.6564 -2.9347 -1.8831
  804MOL0     H 6123   1.137   8.649   4.848 -2.3927  1.2333  0.7206
  804MOL0     H 6124   0.930   8.702   4.623 -3.5462  2.1539  1.0826
  804MOL0     H 6125   0.916   8.726   4.791  1.2005  1.0238  0.4261
  804MOL0     H 6126   1.083   9.099   4.724 -0.8574  1.1178  0.8091
  804MOL0     H 6127   0.888   8.386   5.097 -0.5010  0.9191 -1.5336
  804MOL0     H 6128   0.748   8.259   5.229 -0.8752 -0.0818 -1.8317
  805MOL0     O 6129   6.666   3.887   9.205  0.3652  0.3459 -0.7612
  805MOL0     C 6130   6.608   3.792   9.255  0.6169  0.0900 -0.4303
  805MOL0     O 6131   6.571   3.688   9.192 -0.6987  0.1242 -0.0947
  805MOL0     C 6132   6.610   3.666   9.066  0.2493  0.2600 -0.1994
  805MOL0     C 6133   6.594   3.749   8.950  0.3223  0.3197 -0.0895
  805MOL0     C 6134   6.635   3.717   8.819  0.2799 -0.0344 -0.8750
  805MOL0     C 6135   6.686   3.592   8.795  0.8572 -0.3260 -0.1495
  805MOL0     O 6136   6.734   3.545   8.678  0.5078 -0.6614 -0.9136
  805MOL0     C 6137   6.662   3.560   8.561 -0.6081  0.5410  0.9935
  805MOL0     C 6138   6.528   3.489   8.559  0.0173 -0.2267 -0.7840
  805MOL0     C 6139   6.509   3.451   8.407 -0.6627 -0.5869 -0.8466
  805MOL0     C 6140   6.367   3.421   8.372 -0.2974  0.7849  0.4338
  805MOL0     C 6141   6.264   3.535   8.377 -0.6430  0.3174 -0.2333
  805MOL0     C 6142   6.260   3.611   8.242  0.3003  0.5448 -0.1729
  805MOL0     C 6143   6.138   3.710   8.243 -0.7073  0.3512 -0.2404
  805MOL0     C 6144   6.150   3.790   8.110 -0.4549  0.6858 -0.8755
  805MOL0     N 6145   6.020   3.839   8.054 -0.0168 -0.0949  0.2268
  805MOL0     C 6146   5.991   3.954   7.988 -0.2186  0.4186  0.6072
  805MOL0     C 6147   5.858   3.942   7.946 -0.9351 -0.2207 -0.4138
  805MOL0     C 6148   5.773   4.045   7.861 -0.3813 -0.8149  0.5107
  805MOL0     C 6149   5.723   3.974   7.735 -0.9264  0.2282 -0.5738
  805MOL0     C 6150   5.829   3.928   7.639  0.3004 -0.3677 -0.3679
  805MOL0     C 6151   5.760   3.829   7.538 -0.2233  1.0192  0.0942
  805MOL0     O 6152   5.677   3.727   7.588 -0.1425 -0.0359 -0.0756
  805MOL0     C 6153   5.736   3.629   7.663 -0.0516  0.4652  0.3430
  805MOL0     C 6154   5.650   3.546   7.724  0.5996 -0.3169 -1.3079
  805MOL0     C 6155   5.705   3.459   7.814 -0.1397 -1.2613 -0.2886
  805MOL0     C 6156   5.845   3.446   7.841 -0.1400  0.0080  0.2821
  805MOL0     C 6157   5.898   3.346   7.940 -0.7175 -0.2973  0.0479
  805MOL0     O 6158   5.814   3.309   8.036 -0.6939 -0.5092  0.1238
  805MOL0     C 6159   5.852   3.246   8.152 -0.6680 -0.8832  0.3853
  805MOL0     C 6160   5.857   3.104   8.162 -0.4917  0.0904  0.5498
  805MOL0     C 6161   5.878   3.048   8.288 -0.5152 -0.1499 -0.0335
  805MOL0     C 6162   5.905   3.118   8.403 -0.7057 -0.1868  0.7114
  805MOL0     O 6163   5.929   3.046   8.519  0.1083  0.1390  0.1481
  805MOL0     C 6164   5.923   3.112   8.650 -0.0930  0.1500 -0.1844
  805MOL0     C 6165   6.059   3.108   8.718 -0.3577  0.0206  0.1588
  805MOL0     C 6166   6.170   3.197   8.662  0.4265  0.4405  0.1991
  805MOL0     C 6167   6.274   3.231   8.763  0.2512 -0.7955 -0.3674
  805MOL0     C 6168   6.353   3.126   8.840 -0.2600 -0.1560  0.5394
  805MOL0     C 6169   6.475   3.183   8.929  1.4333  0.5659  0.4548
  805MOL0     C 6170   6.553   3.062   8.976  0.4755  0.3306  1.9869
  805MOL0     C 6171   6.665   3.103   9.078 -0.3121 -0.3242  0.3662
  805MOL0    Cl 6172   6.604   3.218   9.212 -0.0869 -0.3411 -0.0262
  805MOL0     C 6173   5.900   3.258   8.392  0.1733 -0.1566 -0.2493
  805MOL0     C 6174   5.878   3.323   8.269  0.6346 -0.8042 -0.4214
  805MOL0     O 6175   6.016   3.331   7.947 -0.7502 -0.2442 -1.0323
  805MOL0     C 6176   5.929   3.539   7.774 -1.1254  0.0025 -0.2478
  805MOL0     C 6177   5.874   3.622   7.682 -1.1494 -0.5487  0.2723
  805MOL0     N 6178   5.820   3.811   7.976  0.8444  0.4945 -0.3954
  805MOL0     N 6179   5.916   3.757   8.040 -0.1665 -0.1360  0.4666
  805MOL0     C 6180   6.684   3.499   8.896 -0.0037  0.2536  0.3257
  805MOL0     C 6181   6.644   3.537   9.027 -0.5974 -0.1821 -0.3478
  805MOL0     C 6182   6.580   3.800   9.402 -0.8709 -0.8626 -0.2012
  805MOL0     C 6183   6.505   3.708   9.458  0.7619  0.0597 -0.3801
  805MOL0     C 6184   6.460   3.725   9.589  0.9383 -0.1832 -0.6042
  805MOL0     C 6185   6.493   3.832   9.672  0.1329  0.1971 -0.1059
  805MOL0     O 6186   6.455   3.839   9.801  0.1275 -0.2556 -0.6016
  805MOL0     C 6187   6.321   3.903   9.820 -0.8253  0.2564  0.0488
  805MOL0     C 6188   6.231   3.784   9.836  0.1888 -0.1780 -1.0794
  805MOL0     C 6189   6.089   3.819   9.878  0.0396  1.0257  0.1949
  805MOL0     C 6190   6.081   3.849  10.032 -0.3037 -0.0869  0.1862
  805MOL0     C 6191   6.062   3.998  10.043 -0.4821 -0.4548 -0.1448
  805MOL0     C 6192   6.043   4.120  10.034 -0.1552  0.2872  0.3170
  805MOL0     C 6193   6.571   3.932   9.610 -0.0150  0.1390 -0.1193
  805MOL0     C 6194   6.616   3.917   9.476  0.0860 -1.0134 -0.1226
  805MOL0     H 6195   6.538   3.841   8.966 -3.3766 -1.6949 -0.2916
  805MOL0     H 6196   6.626   3.795   8.744  1.5520  1.3637  0.3584
  805MOL0     H 6197   6.724   3.542   8.473 -1.5312  0.6657  0.3029
  805MOL0     H 6198   6.635   3.665   8.549  0.6974  0.6707 -1.1993
  805MOL0     H 6199   6.453   3.551   8.607  1.1276 -0.5342  1.4764
  805MOL0     H 6200   6.528   3.404   8.627 -1.2061  0.0326 -0.4382
  805MOL0     H 6201   6.579   3.381   8.360 -3.2912 -3.7923 -0.3137
  805MOL0     H 6202   6.523   3.547   8.356  0.6495 -0.0606  0.4273
  805MOL0     H 6203   6.373   3.385   8.269  1.8085  0.1623  0.7246
  805MOL0     H 6204   6.333   3.335   8.430 -0.3400  1.0832  0.8549
  805MOL0     H 6205   6.279   3.597   8.465 -1.6836 -0.6089  0.6239
  805MOL0     H 6206   6.164   3.490   8.379 -1.0092  0.1774 -5.7701
  805MOL0     H 6207   6.258   3.532   8.166  3.6554 -0.1941  0.3843
  805MOL0     H 6208   6.350   3.667   8.215 -0.3174  0.4129 -2.7927
  805MOL0     H 6209   6.047   3.649   8.244 -1.9822  2.2034  0.0821
  805MOL0     H 6210   6.148   3.775   8.330 -1.5314 -2.5691  2.2240
  805MOL0     H 6211   6.201   3.730   8.034  0.9226  1.7929 -0.8479
  805MOL0     H 6212   6.221   3.871   8.127 -0.2012  0.0331  1.5160
  805MOL0     H 6213   6.057   4.036   7.962  2.4261 -1.5156  0.8014
  805MOL0     H 6214   5.844   4.122   7.828 -0.6630 -0.2793  1.1253
  805MOL0     H 6215   5.682   4.084   7.907  0.5407  1.6753  0.3925
  805MOL0     H 6216   5.656   4.037   7.675 -1.5974 -0.1579 -0.2464
  805MOL0     H 6217   5.670   3.890   7.782  0.1354  1.6476  3.6188
  805MOL0     H 6218   5.855   4.016   7.579 -0.3588  0.3964  0.4370
  805MOL0     H 6219   5.925   3.893   7.679  1.8329  0.3184 -3.1782
  805MOL0     H 6220   5.836   3.781   7.476 -0.6801 -0.7785  0.8602
  805MOL0     H 6221   5.708   3.896   7.469 -0.0499  1.0204 -0.0368
  805MOL0     H 6222   5.542   3.539   7.717  0.6076 -1.4584 -0.4432
  805MOL0     H 6223   5.634   3.394   7.864 -0.7171  0.9739  2.0493
  805MOL0     H 6224   5.831   3.043   8.077 -2.6074  1.7793 -0.0922
  805MOL0     H 6225   5.886   2.939   8.289  1.7503 -0.0413  0.3645
  805MOL0     H 6226   5.842   3.065   8.707 -1.1671  1.2018 -0.7905
  805MOL0     H 6227   5.901   3.219   8.648 -1.0264 -0.0199 -2.6078
  805MOL0     H 6228   6.101   3.007   8.714 -1.1716 -0.3635  0.9535
  805MOL0     H 6229   6.045   3.150   8.818  2.6033 -1.9699  1.5530
  805MOL0     H 6230   6.118   3.287   8.628  1.2426  0.3624 -1.3571
  805MOL0     H 6231   6.213   3.161   8.568 -1.0232  0.2832 -0.4388
  805MOL0     H 6232   6.341   3.304   8.717  0.1364 -2.0549 -2.7039
  805MOL0     H 6233   6.221   3.295   8.833  0.3218 -0.6652 -0.4334
  805MOL0     H 6234   6.399   3.078   8.753  2.4167  2.5648  0.2735
  805MOL0     H 6235   6.286   3.054   8.888  0.9874 -1.2712  0.7035
  805MOL0     H 6236   6.429   3.233   9.014 -0.5485 -1.7830  0.9073
  805MOL0     H 6237   6.532   3.250   8.865 -0.8905 -0.3036 -2.8189
  805MOL0     H 6238   6.475   2.999   9.019 -0.1385 -2.7820 -2.9407
  805MOL0     H 6239   6.594   3.018   8.885 -3.0258  0.7006  0.0827
  805MOL0     H 6240   6.762   3.141   9.044  0.3290  0.2054  2.6406
  805MOL0     H 6241   6.687   3.010   9.132 -2.3069 -0.6776  0.6461
  805MOL0     H 6242   5.919   3.330   8.471 -1.0353 -0.1154  0.0283
  805MOL0     H 6243   5.861   3.429   8.250 -0.8415 -1.0842 -0.8607
  805MOL0     H 6244   6.036   3.544   7.789 -1.5819  2.9276  3.0979
  805MOL0     H 6245   5.945   3.697   7.647 -0.2720 -1.8654 -0.9028
  805MOL0     H 6246   6.710   3.400   8.860  0.8628  0.6034 -0.0249
  805MOL0     H 6247   6.642   3.448   9.089 -0.2425  0.3343  0.4165
  805MOL0     H 6248   6.463   3.626   9.400 -4.2641  2.8262 -1.2360
  805MOL0     H 6249   6.409   3.644   9.640 -1.6104  1.7071  0.0449
  805MOL0     H 6250   6.293   3.959   9.730 -2.2477 -1.3069 -0.5489
  805MOL0     H 6251   6.340   3.962   9.910  1.5221  0.9500 -0.8398
  805MOL0     H 6252   6.245   3.706   9.761  2.1848  0.7546 -1.7602
  805MOL0     H 6253   6.268   3.733   9.925 -0.9728 -2.5846 -1.8903
  805MOL0     H 6254   6.028   3.731   9.853  0.3853  0.7513  0.3156
  805MOL0     H 6255   6.051   3.902   9.818 -3.2624  0.5350  1.3959
  805MOL0     H 6256   5.995   3.788  10.061 -1.5978  0.1005 -2.8526
  805MOL0     H 6257   6.165   3.813  10.092  2.0754  1.5073 -1.9868
  805MOL0     H 6258   6.033   4.226  10.021  1.3252  0.3679 -0.3538
  805MOL0     H 6259   6.579   4.024   9.667 -0.2199 -0.9474  1.7346
  805MOL0     H 6260   6.674   3.996   9.429 -1.3494  0.6864  0.8505
  806MOL0     O 6261   5.309   6.429  10.139 -0.4089 -0.2619 -0.4596
  806MOL0     C 6262   5.429   6.450  10.156 -0.0507 -0.4730 -0.5128
  806MOL0     O 6263   5.507   6.399  10.253 -0.2495 -0.5381  0.6746
  806MOL0     C 6264   5.473   6.306  10.338  0.1722 -0.2972 -0.2996
  806MOL0     C 6265   5.574   6.252  10.427 -0.3673  0.7895  0.1724
  806MOL0     C 6266   5.539   6.157  10.524 -0.5431  0.0875 -0.0037
  806MOL0     C 6267   5.407   6.108  10.539  0.0823 -0.6929 -0.5851
  806MOL0     O 6268   5.368   6.025  10.636 -0.3087  0.5793 -0.1136
  806MOL0     C 6269   5.462   5.963  10.723  0.1938  0.8426 -0.3493
  806MOL0     C 6270   5.431   5.815  10.737  0.7384  0.5744 -0.5985
  806MOL0     C 6271   5.429   5.738  10.609  0.1935  0.2613 -0.3152
  806MOL0     C 6272   5.391   5.590  10.642  0.0383  0.1245  0.7577
  806MOL0     C 6273   5.381   5.490  10.524  0.3909 -0.0784 -0.2885
  806MOL0     C 6274   5.352   5.345  10.566 -0.5343  1.3527 -0.6749
  806MOL0     C 6275   5.329   5.253  10.452 -1.2470 -0.5171  0.9708
  806MOL0     C 6276   5.220   5.143  10.476  0.7450 -0.7520  0.2824
  806MOL0     N 6277   5.245   5.033  10.571  0.1269 -0.4275  0.6036
  806MOL0     C 6278   5.251   5.044  10.702  0.3260  0.6182  0.2323
  806MOL0     C 6279   5.311   4.936  10.756 -0.1983 -0.3155  0.3060
  806MOL0     C 6280   5.329   4.905  10.904 -0.3392  0.5657  0.7502
  806MOL0     C 6281   5.226   4.814  10.973  1.0736  0.0220 -1.4042
  806MOL0     C 6282   5.089   4.897  11.000  0.6028  0.0494  0.0834
  806MOL0     C 6283   4.991   4.807  11.077  1.0162  0.6642 -0.0833
  806MOL0     O 6284   4.858   4.852  11.103  0.3649 -0.0606 -0.8921
  806MOL0     C 6285   4.827   4.960  11.182 -0.3553 -0.0716 -0.2407
  806MOL0     C 6286   4.801   5.067  11.107  0.2667 -0.5478  0.3498
  806MOL0     C 6287   4.756   5.176  11.182 -0.4355  0.0219 -0.4746
  806MOL0     C 6288   4.755   5.180  11.323 -0.7169  0.1188 -0.2994
  806MOL0     C 6289   4.708   5.301  11.391  0.6110 -0.7187  0.3163
  806MOL0     O 6290   4.657   5.286  11.520 -0.2595  0.3802 -0.3062
  806MOL0     C 6291   4.576   5.385  11.574 -0.3543  0.6747  0.6706
  806MOL0     C 6292   4.616   5.461  11.686 -0.2027  0.4765 -0.2765
  806MOL0     C 6293   4.545   5.560  11.755  0.1494  0.6921  0.6501
  806MOL0     C 6294   4.414   5.575  11.706 -0.2054 -0.5435  0.1310
  806MOL0     O 6295   4.330   5.655  11.777 -0.1676 -0.3031  0.8796
  806MOL0     C 6296   4.254   5.767  11.720 -0.6533  0.4115 -0.3332
  806MOL0     C 6297   4.135   5.787  11.804  0.4876  0.4524 -0.5897
  806MOL0     C 6298   4.057   5.918  11.768  0.4858 -0.6431  0.6235
  806MOL0     C 6299   3.931   5.930  11.857 -0.8446  0.3417 -0.2520
  806MOL0     C 6300   3.815   5.984  11.774 -0.5105 -0.2645  0.4834
  806MOL0     C 6301   3.690   6.023  11.852 -1.0708  0.7972 -0.2584
  806MOL0     C 6302   3.587   6.080  11.759  0.6752 -0.3739 -0.0145
  806MOL0     C 6303   3.452   6.091  11.827  0.6200 -0.7088  0.0537
  806MOL0    Cl 6304   3.481   6.171  11.982  0.4710 -0.2498  0.3648
  806MOL0     C 6305   4.374   5.504  11.589  0.4262 -0.7150 -0.2155
  806MOL0     C 6306   4.452   5.413  11.525 -0.5926 -1.1217  0.3114
  806MOL0     O 6307   4.701   5.404  11.326 -0.5979 -0.5186 -0.0761
  806MOL0     C 6308   4.789   5.065  11.390 -1.0770 -0.1248 -0.1962
  806MOL0     C 6309   4.827   4.955  11.321 -0.8490  0.2704  0.1768
  806MOL0     N 6310   5.352   4.867  10.642  0.0658 -0.1030 -0.3387
  806MOL0     N 6311   5.309   4.917  10.537  0.7716 -0.1088 -0.1169
  806MOL0     C 6312   5.307   6.147  10.449  0.0150  0.1475  0.7448
  806MOL0     C 6313   5.342   6.242  10.345  0.2230 -1.0120 -0.8269
  806MOL0     C 6314   5.499   6.532  10.051 -0.3906  0.3770 -0.1882
  806MOL0     C 6315   5.432   6.557   9.931 -0.2445 -0.2313 -0.1293
  806MOL0     C 6316   5.492   6.631   9.828 -1.0992  0.0287 -0.1984
  806MOL0     C 6317   5.630   6.684   9.846  0.2245 -0.1029 -0.1241
  806MOL0     O 6318   5.702   6.764   9.761  1.0665  0.5140  0.9443
  806MOL0     C 6319   5.630   6.829   9.657  0.3785 -0.7492  0.1635
  806MOL0     C 6320   5.679   6.973   9.649  0.2298  0.3309 -0.5071
  806MOL0     C 6321   5.692   7.032   9.507 -0.9088  0.1945 -0.3808
  806MOL0     C 6322   5.780   7.163   9.527 -0.3483  0.4351  1.0283
  806MOL0     C 6323   5.785   7.246   9.409 -0.5169 -0.3350  0.3664
  806MOL0     C 6324   5.786   7.317   9.310 -0.3379  1.0612  0.3965
  806MOL0     C 6325   5.695   6.656   9.960 -0.0187  1.2380 -0.4995
  806MOL0     C 6326   5.638   6.579  10.067  0.0078 -0.5948  0.3313
  806MOL0     H 6327   5.673   6.298  10.430 -0.6486  1.5891 -1.4248
  806MOL0     H 6328   5.626   6.125  10.582 -0.9706 -1.2783 -0.0655
  806MOL0     H 6329   5.471   6.000  10.826  0.8054  2.0936 -0.8229
  806MOL0     H 6330   5.562   5.965  10.679  1.0512  0.4065  1.4766
  806MOL0     H 6331   5.333   5.813  10.786  1.4622 -0.6318  0.9192
  806MOL0     H 6332   5.513   5.769  10.792  0.9143  0.9983 -0.5018
  806MOL0     H 6333   5.530   5.734  10.565  0.4365 -4.3841  0.1271
  806MOL0     H 6334   5.360   5.779  10.535 -0.5069 -2.9907 -1.6058
  806MOL0     H 6335   5.467   5.547  10.707  1.0315  3.0831  1.7307
  806MOL0     H 6336   5.297   5.592  10.699 -0.6466 -0.6189 -0.3287
  806MOL0     H 6337   5.484   5.488  10.485  1.6398  0.1357  2.7264
  806MOL0     H 6338   5.310   5.526  10.449 -1.0828 -0.5784  0.8223
  806MOL0     H 6339   5.261   5.353  10.627  0.1051  3.5631  0.0837
  806MOL0     H 6340   5.429   5.304  10.632 -3.4803  1.9650  3.5790
  806MOL0     H 6341   5.303   5.305  10.359 -2.3248 -3.2352 -0.3740
  806MOL0     H 6342   5.424   5.210  10.419 -1.9044  1.0224 -3.5726
  806MOL0     H 6343   5.203   5.082  10.387 -0.0922 -3.3731  2.1259
  806MOL0     H 6344   5.127   5.194  10.500  1.5513  1.8557 -1.5912
  806MOL0     H 6345   5.206   5.115  10.771  0.0366 -0.4064  1.1136
  806MOL0     H 6346   5.362   4.991  10.962  2.6122 -0.5068  0.8767
  806MOL0     H 6347   5.425   4.852  10.895  0.2788  1.9553 -2.0400
  806MOL0     H 6348   5.267   4.792  11.072 -5.7642 -1.6185  1.6517
  806MOL0     H 6349   5.212   4.716  10.926  3.5396 -0.2401 -1.7353
  806MOL0     H 6350   5.112   4.981  11.066  0.9323  2.5555 -2.9762
  806MOL0     H 6351   5.054   4.948  10.910  1.1808 -0.9727 -0.7390
  806MOL0     H 6352   5.039   4.768  11.167  1.2461 -0.4832 -0.6882
  806MOL0     H 6353   4.971   4.717  11.019 -1.9929  0.1520  1.5127
  806MOL0     H 6354   4.808   5.074  10.999 -0.7846 -1.5991  0.1982
  806MOL0     H 6355   4.728   5.267  11.130  0.7205  1.2378  0.9235
  806MOL0     H 6356   4.714   5.442  11.728 -0.8841 -1.9025  0.3994
  806MOL0     H 6357   4.585   5.607  11.844 -1.6409  1.2549  1.2100
  806MOL0     H 6358   4.231   5.738  11.617  2.4812 -1.2708 -0.6850
  806MOL0     H 6359   4.321   5.854  11.714  0.8876 -0.8216 -2.7587
  806MOL0     H 6360   4.164   5.800  11.909 -3.4159  0.8386  0.5987
  806MOL0     H 6361   4.073   5.697  11.801 -1.0524  1.4049  0.8108
  806MOL0     H 6362   4.032   5.907  11.662  1.8575 -0.3901  0.2587
  806MOL0     H 6363   4.122   6.006  11.773  1.7394 -1.0049 -4.4731
  806MOL0     H 6364   3.899   5.829  11.885  0.2885 -0.2914 -1.1426
  806MOL0     H 6365   3.954   5.992  11.943 -0.1526 -0.4273  0.1378
  806MOL0     H 6366   3.800   5.909  11.695  0.8288  0.4332 -0.4807
  806MOL0     H 6367   3.840   6.076  11.721 -1.9933 -0.1878 -0.1190
  806MOL0     H 6368   3.724   6.098  11.924 -1.9475  0.7859  0.1722
  806MOL0     H 6369   3.655   5.927  11.891 -1.6026  0.1214 -2.2723
  806MOL0     H 6370   3.613   6.177  11.714 -4.9553  1.0018 -1.0794
  806MOL0     H 6371   3.573   6.014  11.673 -1.6856  1.3913 -1.0936
  806MOL0     H 6372   3.394   5.999  11.828 -0.1999 -0.2103 -0.2033
  806MOL0     H 6373   3.396   6.161  11.764  3.2236  0.2616 -1.3220
  806MOL0     H 6374   4.279   5.521  11.538  0.4502  0.9899  0.2669
  806MOL0     H 6375   4.412   5.368  11.434 -5.2648  1.3011  0.8414
  806MOL0     H 6376   4.787   5.070  11.499  0.5556 -3.0504  0.0805
  806MOL0     H 6377   4.862   4.869  11.377  0.8981  1.6717  1.3663
  806MOL0     H 6378   5.202   6.122  10.458 -0.6571  1.8952 -1.4534
  806MOL0     H 6379   5.262   6.264  10.275  1.0473  1.4958 -1.0748
  806MOL0     H 6380   5.330   6.525   9.914 -0.6528 -0.2368  2.0345
  806MOL0     H 6381   5.438   6.663   9.739 -1.7334  0.7469  0.4219
  806MOL0     H 6382   5.521   6.840   9.664 -0.0190 -3.4255 -0.6452
  806MOL0     H 6383   5.640   6.775   9.562  0.0073  0.7632 -0.7674
  806MOL0     H 6384   5.621   7.031   9.721  3.2214  1.9967  0.7924
  806MOL0     H 6385   5.770   6.974   9.710 -1.5541  1.5446  2.2753
  806MOL0     H 6386   5.597   7.060   9.461 -1.2254  5.1612  2.6463
  806MOL0     H 6387   5.744   6.949   9.456 -2.9204 -1.0382 -0.5242
  806MOL0     H 6388   5.734   7.226   9.604  1.7944  2.1404  0.9956
  806MOL0     H 6389   5.882   7.128   9.544  0.2438 -0.0459 -2.6853
  806MOL0     H 6390   5.774   7.387   9.230  2.3957  1.8709  0.5646
  806MOL0     H 6391   5.796   6.694   9.973  0.0968  1.3098 -1.5076
  806MOL0     H 6392   5.690   6.568  10.161  1.5876 -0.7326 -0.5228
  807MOL0     O 6393   6.005   0.669  10.688  0.1086 -0.5794  0.1554
  807MOL0     C 6394   6.124   0.695  10.682  0.2618  0.4868  0.7001
  807MOL0     O 6395   6.205   0.743  10.780  0.1164 -0.6776  0.0591
  807MOL0     C 6396   6.170   0.779  10.903 -1.0272 -1.4782 -0.8569
  807MOL0     C 6397   6.062   0.734  10.972 -0.2802 -0.4262 -0.1852
  807MOL0     C 6398   6.041   0.766  11.108  0.2558  0.7453  0.4194
  807MOL0     C 6399   6.105   0.867  11.167  0.8128 -0.7714 -0.1919
  807MOL0     O 6400   6.064   0.908  11.301  0.1621  0.1374  0.1573
  807MOL0     C 6401   6.096   1.046  11.326  0.6150 -0.7260 -0.3012
  807MOL0     C 6402   6.015   1.091  11.445  0.0575  0.5289  0.5509
  807MOL0     C 6403   6.004   1.236  11.481  0.0583 -0.6915 -0.0057
  807MOL0     C 6404   5.896   1.253  11.586 -1.0101 -0.9254 -0.8465
  807MOL0     C 6405   5.918   1.177  11.719 -1.0403 -0.2701  0.5327
  807MOL0     C 6406   5.813   1.215  11.824  1.0421 -0.7019  0.0954
  807MOL0     C 6407   5.840   1.154  11.953 -1.1086  1.2305  0.0974
  807MOL0     C 6408   5.805   1.251  12.072 -0.4728  0.7461 -0.5898
  807MOL0     N 6409   5.874   1.200  12.191 -0.2219  0.4661 -0.8305
  807MOL0     C 6410   5.870   1.260  12.315 -0.2251  0.2759 -0.0761
  807MOL0     C 6411   5.889   1.160  12.404 -0.6441 -0.0789 -0.3983
  807MOL0     C 6412   5.907   1.188  12.551 -0.0031 -0.5594 -0.2652
  807MOL0     C 6413   5.790   1.243  12.625  0.3171 -0.8088 -0.4632
  807MOL0     C 6414   5.822   1.228  12.774 -0.0910  0.3868  0.3195
  807MOL0     C 6415   5.721   1.276  12.867  0.7439 -0.6080 -0.0867
  807MOL0     O 6416   5.761   1.279  12.999 -0.2559  0.3621 -0.5108
  807MOL0     C 6417   5.665   1.301  13.087 -0.1153  0.3535  0.6081
  807MOL0     C 6418   5.565   1.404  13.076  1.0617  0.4475  0.4423
  807MOL0     C 6419   5.469   1.418  13.174 -0.3709 -0.0212  0.0369
  807MOL0     C 6420   5.455   1.327  13.276 -0.4617  0.2186  0.2396
  807MOL0     C 6421   5.350   1.339  13.381  0.2872 -0.6498 -0.1134
  807MOL0     O 6422   5.354   1.241  13.471 -0.0320 -0.1195 -0.5129
  807MOL0     C 6423   5.265   1.229  13.571 -0.9204  0.0229  0.3124
  807MOL0     C 6424   5.184   1.329  13.625  0.0782 -0.5721  0.2911
  807MOL0     C 6425   5.106   1.299  13.737 -0.5757  0.1075 -0.4354
  807MOL0     C 6426   5.129   1.183  13.809  0.0071 -0.1920  0.3086
  807MOL0     O 6427   5.073   1.156  13.932  0.0515  0.2054  0.5277
  807MOL0     C 6428   4.943   1.103  13.916  0.6992  0.0516 -0.9104
  807MOL0     C 6429   4.896   1.056  14.050  0.0591 -0.2158 -0.2500
  807MOL0     C 6430   4.952   0.922  14.097  0.4482  0.3306 -0.7128
  807MOL0     C 6431   4.921   0.889  14.240 -0.3114  1.3838  0.1419
  807MOL0     C 6432   5.033   0.951  14.325  0.0400  0.1138  1.0038
  807MOL0     C 6433   5.009   0.916  14.473  0.4775 -0.2890  0.9464
  807MOL0     C 6434   5.018   1.039  14.568  0.2004  0.9725 -0.3668
  807MOL0     C 6435   5.004   0.987  14.710 -1.5743 -1.1240 -1.3336
  807MOL0    Cl 6436   5.168   1.023  14.793 -0.2369 -0.0774 -0.2721
  807MOL0     C 6437   5.226   1.092  13.770  0.2893  0.1062  0.8239
  807MOL0     C 6438   5.291   1.111  13.640 -0.1875  0.8559  0.3906
  807MOL0     O 6439   5.260   1.425  13.357  0.9319  0.0938 -0.3300
  807MOL0     C 6440   5.552   1.224  13.289 -0.2914  0.9774 -1.1550
  807MOL0     C 6441   5.657   1.218  13.198 -0.0627 -0.8004  0.1606
  807MOL0     N 6442   5.875   1.035  12.343 -0.0218 -0.6217  1.1849
  807MOL0     N 6443   5.870   1.059  12.215 -0.2157 -0.1155  1.7262
  807MOL0     C 6444   6.209   0.921  11.099 -0.0665 -0.9219  0.0163
  807MOL0     C 6445   6.243   0.884  10.971  0.0748  0.1993 -0.3359
  807MOL0     C 6446   6.193   0.659  10.560  0.2225  1.3376 -1.0258
  807MOL0     C 6447   6.325   0.703  10.538  0.2332 -0.6190 -0.6653
  807MOL0     C 6448   6.400   0.684  10.417 -0.2210 -0.9080 -0.6311
  807MOL0     C 6449   6.354   0.595  10.323  0.0388 -0.9580 -0.1776
  807MOL0     O 6450   6.439   0.561  10.217  0.2981 -0.2856  0.0741
  807MOL0     C 6451   6.554   0.477  10.253 -0.7583  0.2728  1.0211
  807MOL0     C 6452   6.661   0.530  10.162 -0.0822  0.4358  0.6470
  807MOL0     C 6453   6.696   0.676  10.177  0.3591  0.4825  0.4118
  807MOL0     C 6454   6.775   0.719  10.053 -0.8004  0.2077  0.2530
  807MOL0     C 6455   6.820   0.852  10.078  0.1483  0.2510  0.6878
  807MOL0     C 6456   6.848   0.967  10.071 -0.2174 -0.6229  0.2721
  807MOL0     C 6457   6.226   0.546  10.341  0.0324  0.3482 -0.2912
  807MOL0     C 6458   6.145   0.569  10.454 -0.3352 -0.8885 -0.8397
  807MOL0     H 6459   6.009   0.647  10.933 -1.0818  0.0966 -0.2878
  807MOL0     H 6460   5.954   0.718  11.152 -0.0936  0.2333 -0.7941
  807MOL0     H 6461   6.076   1.112  11.242 -1.0198 -4.1339 -2.8332
  807MOL0     H 6462   6.201   1.061  11.350  0.3883 -0.5904  0.6533
  807MOL0     H 6463   6.069   1.042  11.526  0.1278 -0.4409 -0.0666
  807MOL0     H 6464   5.914   1.048  11.434 -0.4694  2.1087 -1.6029
  807MOL0     H 6465   5.981   1.298  11.394  0.2002 -1.1756 -0.3923
  807MOL0     H 6466   6.097   1.271  11.525  0.8952 -2.9427  0.1560
  807MOL0     H 6467   5.895   1.361  11.602 -2.1821 -0.7456 -1.9783
  807MOL0     H 6468   5.797   1.238  11.543 -1.1504  2.2769 -1.8770
  807MOL0     H 6469   6.013   1.206  11.765 -2.1116 -0.6839  3.1918
  807MOL0     H 6470   5.917   1.070  11.698 -2.4377 -0.6602  2.2697
  807MOL0     H 6471   5.709   1.197  11.796  0.4969  0.4855  1.2214
  807MOL0     H 6472   5.801   1.323  11.835 -1.9044 -0.6080 -2.6485
  807MOL0     H 6473   5.783   1.061  11.964  0.2093  0.3561 -0.3560
  807MOL0     H 6474   5.946   1.130  11.963 -1.8404 -2.1531  1.0431
  807MOL0     H 6475   5.697   1.268  12.076 -0.2939  1.7142  0.8913
  807MOL0     H 6476   5.843   1.352  12.056  1.1239 -0.0856 -2.4815
  807MOL0     H 6477   5.863   1.364  12.346 -0.2325  0.7692 -1.6742
  807MOL0     H 6478   5.978   1.271  12.556 -2.5639  1.7514  0.8782
  807MOL0     H 6479   5.955   1.103  12.598  0.6373 -2.6525 -4.2981
  807MOL0     H 6480   5.704   1.178  12.606 -1.7378  1.3043  0.9627
  807MOL0     H 6481   5.776   1.350  12.606 -0.9394 -0.5292  1.6371
  807MOL0     H 6482   5.839   1.122  12.792  0.5939  0.0995 -1.8106
  807MOL0     H 6483   5.919   1.275  12.793  0.3988  0.6795 -2.4779
  807MOL0     H 6484   5.631   1.215  12.851  1.1707 -0.7789 -2.1863
  807MOL0     H 6485   5.698   1.379  12.838 -0.2162 -0.4181  1.2497
  807MOL0     H 6486   5.561   1.474  12.994  0.4493 -0.1720 -0.0701
  807MOL0     H 6487   5.405   1.504  13.158  0.0280  0.2961  0.1234
  807MOL0     H 6488   5.163   1.428  13.584  1.6817 -0.9221 -1.5135
  807MOL0     H 6489   5.042   1.375  13.780  1.9969  1.4006  1.3531
  807MOL0     H 6490   4.934   1.021  13.844 -0.7611  0.2750 -1.0154
  807MOL0     H 6491   4.878   1.176  13.867  1.5007 -0.6285 -3.1368
  807MOL0     H 6492   4.787   1.052  14.054  0.0234  0.7231  0.1088
  807MOL0     H 6493   4.932   1.134  14.118 -0.3978 -0.7539  0.6233
  807MOL0     H 6494   5.060   0.928  14.087  0.3523 -0.7566 -3.1047
  807MOL0     H 6495   4.905   0.843  14.038  1.5849 -2.5065  1.9204
  807MOL0     H 6496   4.826   0.929  14.277 -1.5911 -1.6777  0.4307
  807MOL0     H 6497   4.908   0.781  14.254 -1.3530  0.7943 -4.0931
  807MOL0     H 6498   5.034   1.058  14.303 -0.8200 -0.0886 -0.1144
  807MOL0     H 6499   5.135   0.921  14.301  0.3032  2.7749 -1.8632
  807MOL0     H 6500   5.086   0.844  14.504  0.5256 -0.0053  1.4972
  807MOL0     H 6501   4.908   0.874  14.475 -0.9739  2.7891 -0.9739
  807MOL0     H 6502   5.113   1.094  14.564 -0.1149  1.4617 -1.5059
  807MOL0     H 6503   4.943   1.115  14.542 -1.2731 -0.0872  0.6133
  807MOL0     H 6504   4.986   0.879  14.714  1.6321 -1.8087 -2.1618
  807MOL0     H 6505   4.939   1.050  14.771 -0.3962 -0.5116 -0.6820
  807MOL0     H 6506   5.252   1.001  13.821 -0.7371 -2.5982 -3.0038
  807MOL0     H 6507   5.376   1.053  13.603  1.3914  2.3239  1.5525
  807MOL0     H 6508   5.555   1.155  13.373  1.6643  0.4173 -1.6362
  807MOL0     H 6509   5.735   1.144  13.212  1.2810  0.4793 -0.3343
  807MOL0     H 6510   6.266   1.010  11.127 -1.7383  1.0664 -2.4231
  807MOL0     H 6511   6.322   0.943  10.927 -1.0656  1.5832 -0.5834
  807MOL0     H 6512   6.378   0.759  10.615  1.5509 -1.1354 -1.1798
  807MOL0     H 6513   6.495   0.734  10.400 -0.3245 -0.2711  0.5589
  807MOL0     H 6514   6.535   0.371  10.234  2.4696 -0.1857 -0.3098
  807MOL0     H 6515   6.589   0.492  10.356 -0.3383  0.6465  0.8242
  807MOL0     H 6516   6.752   0.469  10.169 -3.1821 -5.2831 -2.2209
  807MOL0     H 6517   6.629   0.503  10.061  1.5281 -2.4094  0.7919
  807MOL0     H 6518   6.755   0.689  10.269  0.6807 -5.7737  1.4856
  807MOL0     H 6519   6.611   0.742  10.195 -1.4026 -1.0084 -1.8935
  807MOL0     H 6520   6.856   0.653  10.020 -2.9200 -1.2217 -2.5723
  807MOL0     H 6521   6.715   0.717   9.962 -1.2419 -2.1868  0.5441
  807MOL0     H 6522   6.890   1.063  10.094 -1.5812 -0.2952  1.5688
  807MOL0     H 6523   6.194   0.477  10.263  1.4462  0.7933 -1.3176
  807MOL0     H 6524   6.051   0.518  10.471 -0.5985  0.1187  1.1561
  808MOL0     O 6525   4.943   5.332   3.830 -0.7892  1.1139  0.5213
  808MOL0     C 6526   4.967   5.327   3.710  0.8749 -0.2544 -0.2924
  808MOL0     O 6527   5.073   5.393   3.640  0.2067 -0.1870  0.1697
  808MOL0     C 6528   5.180   5.445   3.702  0.7611 -0.1941  0.0685
  808MOL0     C 6529   5.299   5.453   3.638 -0.0239  0.2934 -0.2647
  808MOL0     C 6530   5.412   5.501   3.695  0.7388 -0.4071  0.3188
  808MOL0     C 6531   5.400   5.567   3.816 -0.6883 -0.3174 -0.3923
  808MOL0     O 6532   5.519   5.609   3.871 -0.1057 -0.2370  0.5105
  808MOL0     C 6533   5.529   5.695   3.982  0.5338  0.1399 -0.0209
  808MOL0     C 6534   5.559   5.604   4.108 -0.7035 -0.1015  0.1605
  808MOL0     C 6535   5.553   5.674   4.239  0.3219  0.3617  0.2498
  808MOL0     C 6536   5.411   5.671   4.288  0.5582  0.1985 -0.2432
  808MOL0     C 6537   5.392   5.733   4.423 -0.6323 -0.2734 -0.7688
  808MOL0     C 6538   5.255   5.785   4.453  0.6054  1.0843 -1.0489
  808MOL0     C 6539   5.170   5.673   4.520 -0.0936 -0.1961  0.1120
  808MOL0     C 6540   5.016   5.670   4.498  0.2321 -0.7822  0.8243
  808MOL0     N 6541   5.002   5.589   4.374 -0.2093  0.5988  0.7823
  808MOL0     C 6542   5.048   5.460   4.357 -0.5913 -0.5326  0.4944
  808MOL0     C 6543   5.057   5.439   4.226 -0.1087  0.6014 -0.0817
  808MOL0     C 6544   5.110   5.306   4.178  0.9752 -0.8547  0.2207
  808MOL0     C 6545   4.993   5.223   4.146  0.9888 -0.8063 -0.5990
  808MOL0     C 6546   5.035   5.093   4.081 -0.2792  0.0573  0.7120
  808MOL0     C 6547   4.915   5.040   4.016 -0.3657  1.1586 -0.0243
  808MOL0     O 6548   4.805   5.013   4.100 -0.7551  0.2417 -0.2235
  808MOL0     C 6549   4.696   4.944   4.049  0.1171 -0.8762  0.1372
  808MOL0     C 6550   4.591   4.916   4.136  0.1476 -0.3974 -1.0895
  808MOL0     C 6551   4.482   4.835   4.089  0.3025 -1.0421  0.4603
  808MOL0     C 6552   4.476   4.788   3.951 -0.2705 -0.0663 -0.4124
  808MOL0     C 6553   4.355   4.715   3.903 -0.0858 -0.6515 -0.1576
  808MOL0     O 6554   4.327   4.701   3.771 -0.7596 -0.0414  0.1625
  808MOL0     C 6555   4.223   4.625   3.741  0.3421  0.7766 -0.0961
  808MOL0     C 6556   4.098   4.685   3.732 -0.1549  0.3166 -0.7383
  808MOL0     C 6557   3.978   4.608   3.730 -0.1269 -1.3406 -0.5147
  808MOL0     C 6558   3.989   4.466   3.721  0.7377 -0.4833 -0.5117
  808MOL0     O 6559   3.872   4.397   3.725  0.5487  0.0983  0.0066
  808MOL0     C 6560   3.878   4.256   3.714  0.0183 -0.2918  0.9623
  808MOL0     C 6561   3.747   4.191   3.675  0.8276  0.6339  0.9779
  808MOL0     C 6562   3.643   4.190   3.785 -0.2099  0.9546  0.4290
  808MOL0     C 6563   3.614   4.062   3.862  0.0962 -0.1269  0.5576
  808MOL0     C 6564   3.498   4.069   3.953  0.3297 -0.7058 -0.5349
  808MOL0     C 6565   3.453   3.927   3.987 -0.1150 -1.1947  1.1626
  808MOL0     C 6566   3.339   3.923   4.094  0.0078 -0.4900  0.8217
  808MOL0     C 6567   3.204   3.850   4.061  0.2180 -0.7436  0.2405
  808MOL0    Cl 6568   3.091   3.879   4.204 -0.4404  0.1163 -0.0902
  808MOL0     C 6569   4.122   4.407   3.711 -0.5328  0.1492 -0.1466
  808MOL0     C 6570   4.232   4.487   3.719  0.3100 -0.3623 -1.3366
  808MOL0     O 6571   4.279   4.679   3.988  0.6271 -0.0509 -0.8102
  808MOL0     C 6572   4.594   4.816   3.872  0.9346 -0.1842 -0.4468
  808MOL0     C 6573   4.695   4.894   3.919  0.6332 -1.6100  0.5739
  808MOL0     N 6574   5.010   5.547   4.162  0.0801 -1.0343 -0.2314
  808MOL0     N 6575   4.975   5.638   4.250  0.0200 -0.4716  0.3066
  808MOL0     C 6576   5.285   5.558   3.892 -0.2731 -0.3278  0.2974
  808MOL0     C 6577   5.170   5.505   3.830  0.3656 -0.0379  0.0091
  808MOL0     C 6578   4.867   5.253   3.626  0.4676  0.0730  0.4982
  808MOL0     C 6579   4.848   5.288   3.491 -0.7489 -0.4316 -0.8032
  808MOL0     C 6580   4.772   5.215   3.398 -0.3471 -1.3577  1.1025
  808MOL0     C 6581   4.688   5.118   3.452  1.2549 -0.6746 -0.4423
  808MOL0     O 6582   4.614   5.056   3.357 -0.2243 -0.2965 -0.1061
  808MOL0     C 6583   4.490   4.979   3.379 -0.1624 -0.8113 -0.1918
  808MOL0     C 6584   4.368   5.070   3.408 -0.3965  0.1881  0.7317
  808MOL0     C 6585   4.321   5.169   3.299  1.3699  0.0569 -0.3729
  808MOL0     C 6586   4.288   5.092   3.161 -0.3477  0.2770 -0.6204
  808MOL0     C 6587   4.283   5.199   3.057 -0.8968 -0.4416 -0.4179
  808MOL0     C 6588   4.270   5.285   2.974 -0.3464  0.3283  0.8166
  808MOL0     C 6589   4.695   5.079   3.590 -0.5285  0.9803  0.3469
  808MOL0     C 6590   4.789   5.144   3.670  0.2512  0.0228  0.2405
  808MOL0     H 6591   5.300   5.401   3.542  2.7974 -2.6150  1.1659
  808MOL0     H 6592   5.507   5.506   3.642  2.6762  0.2922  3.6229
  808MOL0     H 6593   5.434   5.747   3.998 -1.4540 -1.6598 -4.4620
  808MOL0     H 6594   5.604   5.773   3.967  1.5472 -0.5981  1.0345
  808MOL0     H 6595   5.659   5.567   4.087 -1.1836 -1.2689 -0.1758
  808MOL0     H 6596   5.490   5.519   4.105 -0.2873 -0.4294 -2.5275
  808MOL0     H 6597   5.595   5.775   4.241 -0.1479  0.5647  1.9305
  808MOL0     H 6598   5.620   5.627   4.313 -0.7663  1.3553  1.9323
  808MOL0     H 6599   5.355   5.731   4.216 -6.4084 -2.9439  1.7060
  808MOL0     H 6600   5.374   5.568   4.287 -1.9840  1.0500  0.1211
  808MOL0     H 6601   5.456   5.822   4.423 -0.7131 -0.2015  0.2141
  808MOL0     H 6602   5.430   5.664   4.499  2.4461  1.4914 -0.5651
  808MOL0     H 6603   5.202   5.811   4.361 -1.9130 -0.3687 -0.1213
  808MOL0     H 6604   5.271   5.869   4.521  0.0243 -1.7816  2.9551
  808MOL0     H 6605   5.221   5.577   4.509 -0.8120 -0.9208  2.4595
  808MOL0     H 6606   5.179   5.706   4.624 -4.1672  1.4612  0.1157
  808MOL0     H 6607   4.978   5.771   4.481 -0.2020 -1.1330 -0.4206
  808MOL0     H 6608   4.963   5.621   4.580 -0.2888 -2.3199 -0.3722
  808MOL0     H 6609   5.087   5.396   4.436  1.9226  0.9134  0.4967
  808MOL0     H 6610   5.170   5.241   4.242 -1.8570 -4.7585 -0.6327
  808MOL0     H 6611   5.175   5.328   4.092  0.8131 -1.7809 -0.1547
  808MOL0     H 6612   4.933   5.282   4.077  0.3903  3.0950  2.9154
  808MOL0     H 6613   4.929   5.208   4.233  0.3238  3.5668 -0.1079
  808MOL0     H 6614   5.108   5.123   4.005  0.2001  1.7217  1.7801
  808MOL0     H 6615   5.075   5.019   4.151  5.1678 -0.4164 -2.3026
  808MOL0     H 6616   4.940   4.948   3.963 -3.1687  1.3810 -1.9690
  808MOL0     H 6617   4.879   5.103   3.934  0.4731 -2.1800 -3.2128
  808MOL0     H 6618   4.590   4.952   4.238  1.5333  1.8920 -1.8092
  808MOL0     H 6619   4.392   4.829   4.149  1.6172  0.5709  2.7334
  808MOL0     H 6620   4.101   4.793   3.741 -2.8207  0.7018 -3.0611
  808MOL0     H 6621   3.882   4.654   3.751 -0.1370 -0.9722 -1.3360
  808MOL0     H 6622   3.912   4.210   3.807  0.4815 -3.5441 -0.6738
  808MOL0     H 6623   3.950   4.225   3.638 -0.2666 -0.1329  0.6220
  808MOL0     H 6624   3.756   4.088   3.641  0.6972  0.8585  0.2413
  808MOL0     H 6625   3.711   4.238   3.582 -1.5627 -1.0508  0.9562
  808MOL0     H 6626   3.546   4.228   3.752 -2.1169 -0.6255  3.6336
  808MOL0     H 6627   3.684   4.255   3.864  2.9452  0.9074 -1.0408
  808MOL0     H 6628   3.594   3.996   3.778 -2.3363  2.7960 -1.3963
  808MOL0     H 6629   3.706   4.031   3.914  1.2593  2.9194  0.5449
  808MOL0     H 6630   3.416   4.123   3.904  1.0197  1.0090  0.1013
  808MOL0     H 6631   3.534   4.124   4.040 -1.1956  0.3106 -0.5045
  808MOL0     H 6632   3.539   3.876   4.032  1.0817  0.9485  1.4626
  808MOL0     H 6633   3.423   3.879   3.894  0.0438  0.0609  0.4417
  808MOL0     H 6634   3.376   3.887   4.190 -1.6372 -1.7748  1.0171
  808MOL0     H 6635   3.307   4.027   4.110 -1.0119 -0.6786  0.1436
  808MOL0     H 6636   3.214   3.743   4.043  0.2728 -0.6509 -0.3029
  808MOL0     H 6637   3.166   3.894   3.968  3.0096  0.7833 -0.3118
  808MOL0     H 6638   4.143   4.301   3.721 -0.3881  0.1126 -0.8131
  808MOL0     H 6639   4.328   4.436   3.714 -0.3758 -1.8206 -0.2981
  808MOL0     H 6640   4.597   4.760   3.779  0.5427  1.2213 -1.3429
  808MOL0     H 6641   4.776   4.902   3.848  0.3433 -1.8369  0.2161
  808MOL0     H 6642   5.276   5.598   3.992 -1.6935  1.4336 -0.4684
  808MOL0     H 6643   5.080   5.506   3.890  1.0186 -1.6755  1.0775
  808MOL0     H 6644   4.910   5.372   3.460 -3.1246  2.0949  0.8558
  808MOL0     H 6645   4.788   5.236   3.293  2.3405 -2.2042  1.2502
  808MOL0     H 6646   4.506   4.919   3.469 -1.5466  3.3094  3.1492
  808MOL0     H 6647   4.475   4.922   3.287  2.7958 -4.5389  1.3815
  808MOL0     H 6648   4.282   5.006   3.430  1.3635 -1.8935  1.8312
  808MOL0     H 6649   4.400   5.119   3.500 -4.0437  1.1448  1.6580
  808MOL0     H 6650   4.410   5.229   3.276  0.2242  2.5960  1.4124
  808MOL0     H 6651   4.241   5.234   3.335  2.2995  0.9843  0.0789
  808MOL0     H 6652   4.373   5.027   3.136  0.0028 -0.2909  1.7569
  808MOL0     H 6653   4.199   5.030   3.171  2.0478 -3.3720  0.1680
  808MOL0     H 6654   4.240   5.345   2.890 -0.0301 -3.2001 -2.1137
  808MOL0     H 6655   4.632   4.995   3.616 -1.0352 -0.8807 -5.4306
  808MOL0     H 6656   4.800   5.111   3.773 -1.0262  3.0405  1.4668
  809MOL0     O 6657  10.800   2.325   2.696 -0.4126 -0.1360  0.0625
  809MOL0     C 6658  10.678   2.332   2.667 -1.2850  0.7227 -0.8059
  809MOL0     O 6659  10.608   2.251   2.592  0.1408 -0.3779 -0.8756
  809MOL0     C 6660  10.649   2.125   2.552  0.6328  0.2659 -0.5655
  809MOL0     C 6661  10.714   2.028   2.625  1.0531 -0.3350 -0.0686
  809MOL0     C 6662  10.737   1.898   2.561 -0.1742 -0.3085 -0.7503
  809MOL0     C 6663  10.690   1.871   2.430  0.2894  0.1267  0.1688
  809MOL0     O 6664  10.714   1.750   2.365  0.3404 -0.7958  0.8302
  809MOL0     C 6665  10.741   1.643   2.458  0.1738  0.3013 -0.5617
  809MOL0     C 6666  10.627   1.600   2.547  0.5913  0.4113 -0.0939
  809MOL0     C 6667  10.486   1.577   2.479 -0.0411 -0.1698 -0.7041
  809MOL0     C 6668  10.481   1.464   2.380 -0.3330 -0.1025  0.4379
  809MOL0     C 6669  10.354   1.455   2.292 -0.1944 -0.0452 -0.0613
  809MOL0     C 6670  10.370   1.371   2.158  1.4050 -0.4384 -0.0783
  809MOL0     C 6671  10.399   1.222   2.185  0.0044  0.2308  0.5114
  809MOL0     C 6672  10.271   1.157   2.228 -0.8205  0.5526 -0.2597
  809MOL0     N 6673  10.276   1.013   2.211  0.1324  0.3960  0.4235
  809MOL0     C 6674  10.389   0.947   2.256  0.2174  0.6691  1.4233
  809MOL0     C 6675  10.390   0.826   2.193  0.5585 -0.1482  0.4864
  809MOL0     C 6676  10.493   0.716   2.192 -0.9025 -0.3932 -1.4182
  809MOL0     C 6677  10.581   0.741   2.074 -0.3959 -0.1437  0.3851
  809MOL0     C 6678  10.707   0.647   2.065 -0.0124  0.2681  0.1328
  809MOL0     C 6679  10.652   0.510   2.005 -0.3238 -0.8583 -0.3438
  809MOL0     O 6680  10.761   0.420   2.002  0.1500  0.0385 -0.2444
  809MOL0     C 6681  10.718   0.303   1.956 -0.0056  0.3597  0.0236
  809MOL0     C 6682  10.638   0.270   1.840 -0.4219 -0.4943  0.3030
  809MOL0     C 6683  10.635   0.139   1.794 -0.0784  0.2843  0.0117
  809MOL0     C 6684  10.710   0.039   1.858 -0.2111 -0.0120 -0.3534
  809MOL0     C 6685  10.721  -0.093   1.798 -0.1363 -0.1239  0.3581
  809MOL0     O 6686  10.815  -0.180   1.850  0.0495 -0.4680  0.0856
  809MOL0     C 6687  10.850  -0.292   1.794 -0.4472  1.0171  0.3907
  809MOL0     C 6688  10.871  -0.313   1.649 -1.0958  0.7285 -0.8090
  809MOL0     C 6689  10.911  -0.443   1.601  0.0594 -0.5123  0.1327
  809MOL0     C 6690  10.913  -0.548   1.698  0.5378 -0.0551 -0.5813
  809MOL0     O 6691  10.930  -0.672   1.641 -0.0644  0.4669 -1.0829
  809MOL0     C 6692  10.824  -0.730   1.580  0.0413  0.2882 -0.2466
  809MOL0     C 6693  10.894  -0.821   1.478  0.5130  0.6500 -0.5027
  809MOL0     C 6694  10.960  -0.952   1.537  0.1762 -0.0284  0.8681
  809MOL0     C 6695  10.860  -1.046   1.615 -0.3754 -0.2723 -0.5627
  809MOL0     C 6696  10.915  -1.189   1.632 -0.9681 -0.4550  0.0346
  809MOL0     C 6697  10.812  -1.263   1.722 -0.3013 -0.0041 -0.7520
  809MOL0     C 6698  10.863  -1.407   1.759  0.5719 -0.2029  0.0167
  809MOL0     C 6699  10.963  -1.395   1.875  0.3637  0.2762  1.2241
  809MOL0    Cl 6700  10.975  -1.556   1.949 -0.3259  0.1394  0.2341
  809MOL0     C 6701  10.903  -0.520   1.837 -0.3271 -0.9341 -1.3291
  809MOL0     C 6702  10.879  -0.397   1.884  0.5955 -0.7888  0.6401
  809MOL0     O 6703  10.668  -0.107   1.685  0.0658 -0.8165  0.6758
  809MOL0     C 6704  10.765   0.073   1.977 -0.0185 -0.4290 -0.0333
  809MOL0     C 6705  10.779   0.196   2.026  0.0199  0.8307  0.0729
  809MOL0     N 6706  10.272   0.819   2.119 -0.2572  0.4546  0.3067
  809MOL0     N 6707  10.213   0.928   2.130  0.6893 -0.8223 -0.0745
  809MOL0     C 6708  10.628   1.968   2.359 -0.1406  0.6219 -0.2772
  809MOL0     C 6709  10.605   2.090   2.417 -0.1297 -0.1816 -0.9610
  809MOL0     C 6710  10.603   2.457   2.712 -0.1821 -0.1892 -0.1473
  809MOL0     C 6711  10.467   2.476   2.670 -0.8419 -0.6748  0.1052
  809MOL0     C 6712  10.398   2.590   2.726 -0.2044  0.0932  0.2608
  809MOL0     C 6713  10.448   2.668   2.829  0.5431  0.4478  0.7083
  809MOL0     O 6714  10.378   2.771   2.870 -0.4249 -0.4798  1.3189
  809MOL0     C 6715  10.439   2.861   2.961 -0.0900  0.0457 -0.1837
  809MOL0     C 6716  10.354   2.987   2.995 -0.3980  0.1268 -0.0367
  809MOL0     C 6717  10.426   3.116   2.996 -0.7957 -1.3004  0.2867
  809MOL0     C 6718  10.351   3.237   3.063 -0.8530 -0.0657 -0.8918
  809MOL0     C 6719  10.425   3.358   3.053 -0.3495 -0.2714 -0.1322
  809MOL0     C 6720  10.483   3.459   3.072 -0.1939 -0.1454 -0.7874
  809MOL0     C 6721  10.580   2.638   2.873  0.1063  0.0476 -0.3258
  809MOL0     C 6722  10.663   2.537   2.814 -0.4654  1.0196 -0.4262
  809MOL0     H 6723  10.732   2.059   2.727 -0.6668 -1.0774  0.4980
  809MOL0     H 6724  10.787   1.836   2.635  1.3625  2.6839  0.8607
  809MOL0     H 6725  10.837   1.654   2.510 -0.3527 -1.5734  0.9187
  809MOL0     H 6726  10.760   1.550   2.405 -1.1486  1.0865 -2.4967
  809MOL0     H 6727  10.623   1.680   2.622 -0.2377  0.3320 -0.0460
  809MOL0     H 6728  10.666   1.510   2.596  0.0430  1.5999  2.7102
  809MOL0     H 6729  10.461   1.668   2.425 -2.9934 -0.0499  0.6147
  809MOL0     H 6730  10.416   1.550   2.559  0.1393 -1.5288 -0.9783
  809MOL0     H 6731  10.578   1.454   2.331 -1.0999 -1.4517 -0.8628
  809MOL0     H 6732  10.492   1.378   2.448 -1.7733 -1.4309 -0.9510
  809MOL0     H 6733  10.322   1.552   2.253 -0.4782  0.2225  0.8141
  809MOL0     H 6734  10.263   1.426   2.345 -2.9656  0.2622 -4.1394
  809MOL0     H 6735  10.453   1.410   2.098  0.7151 -0.0454 -0.7962
  809MOL0     H 6736  10.296   1.383   2.078 -1.1470  0.8349  2.3142
  809MOL0     H 6737  10.427   1.169   2.094 -2.7095  0.3578 -0.4930
  809MOL0     H 6738  10.472   1.217   2.266  2.4466  1.1229 -1.5351
  809MOL0     H 6739  10.185   1.198   2.174 -0.7934  2.2267  0.8679
  809MOL0     H 6740  10.258   1.180   2.334 -0.9520  0.8455 -0.3360
  809MOL0     H 6741  10.475   0.984   2.312  2.7967 -0.7040 -1.3100
  809MOL0     H 6742  10.439   0.622   2.176 -1.0259 -0.7685  0.8748
  809MOL0     H 6743  10.550   0.720   2.285  0.6652  2.3277 -2.3916
  809MOL0     H 6744  10.615   0.845   2.074  0.5516 -0.4329  1.0316
  809MOL0     H 6745  10.526   0.718   1.983 -0.6294  0.3866  0.3916
  809MOL0     H 6746  10.790   0.685   2.005 -0.7521 -0.1901 -1.2157
  809MOL0     H 6747  10.750   0.640   2.165  0.0589  1.9000  0.2371
  809MOL0     H 6748  10.621   0.528   1.902  1.0953  1.0341 -0.4927
  809MOL0     H 6749  10.558   0.472   2.048  0.6246 -0.2809  2.4384
  809MOL0     H 6750  10.614   0.342   1.763 -0.7985 -0.3100  0.5937
  809MOL0     H 6751  10.594   0.120   1.695 -0.4903  0.6059  0.1161
  809MOL0     H 6752  10.871  -0.232   1.577  0.3768 -0.8832 -2.7816
  809MOL0     H 6753  10.947  -0.467   1.502 -1.9681  0.4157 -0.9019
  809MOL0     H 6754  10.757  -0.652   1.543  2.2066  1.7471 -1.3400
  809MOL0     H 6755  10.760  -0.788   1.647 -1.1692  2.2621  0.4075
  809MOL0     H 6756  10.978  -0.771   1.428  2.9612 -1.8970  0.7704
  809MOL0     H 6757  10.826  -0.845   1.396  0.9493  0.3957 -0.7966
  809MOL0     H 6758  11.052  -0.931   1.592  0.3166 -0.3103  0.7417
  809MOL0     H 6759  10.989  -1.020   1.456  0.4158 -2.5976  2.9685
  809MOL0     H 6760  10.839  -1.002   1.713  3.8527  0.8542  0.0434
  809MOL0     H 6761  10.764  -1.062   1.564  0.0911 -1.2182 -1.1692
  809MOL0     H 6762  11.017  -1.185   1.670 -0.1039 -0.2638 -2.2052
  809MOL0     H 6763  10.935  -1.243   1.539  0.0416  0.2928 -0.1987
  809MOL0     H 6764  10.713  -1.278   1.678 -0.6394 -0.7694  0.2210
  809MOL0     H 6765  10.803  -1.214   1.819 -0.3092 -2.5479  0.6305
  809MOL0     H 6766  10.768  -1.453   1.788 -0.8935  2.0928 -0.8042
  809MOL0     H 6767  10.908  -1.466   1.679 -0.5796  0.3655 -1.0931
  809MOL0     H 6768  10.942  -1.320   1.951 -0.1048  1.8147 -0.3742
  809MOL0     H 6769  11.059  -1.375   1.827 -1.4008  0.1294 -2.7948
  809MOL0     H 6770  10.930  -0.602   1.902  2.2295  0.4294 -0.5305
  809MOL0     H 6771  10.876  -0.370   1.989 -2.1859  0.6649  0.2903
  809MOL0     H 6772  10.807  -0.010   2.033 -0.4667 -0.7897 -0.2308
  809MOL0     H 6773  10.834   0.227   2.114  0.0304  3.5439 -0.7919
  809MOL0     H 6774  10.590   1.945   2.260  2.3865 -1.8726 -0.7913
  809MOL0     H 6775  10.544   2.160   2.362  1.9043  1.9982 -0.6048
  809MOL0     H 6776  10.436   2.412   2.588 -0.2260 -1.6135  0.5958
  809MOL0     H 6777  10.297   2.619   2.698 -0.5796 -0.3195  1.1614
  809MOL0     H 6778  10.538   2.886   2.921  1.1663 -3.4244  0.3523
  809MOL0     H 6779  10.450   2.806   3.055  0.9742 -0.9096 -0.8282
  809MOL0     H 6780  10.273   3.005   2.924 -0.9117 -0.8088  0.2944
  809MOL0     H 6781  10.306   2.965   3.091  0.8633 -0.5675  0.4635
  809MOL0     H 6782  10.450   3.136   2.892  2.4274 -1.2159  0.9526
  809MOL0     H 6783  10.517   3.101   3.054 -1.7916 -0.6848  2.1087
  809MOL0     H 6784  10.250   3.246   3.021 -1.9332 -0.5408  1.3911
  809MOL0     H 6785  10.329   3.199   3.164 -0.6877 -3.0345 -1.8781
  809MOL0     H 6786  10.527   3.555   3.091  0.1884 -0.6010  0.7556
  809MOL0     H 6787  10.633   2.699   2.947 -1.1591  0.0396  0.6264
  809MOL0     H 6788  10.760   2.515   2.856 -0.9998  0.7907  0.7212
  810MOL0     O 6789   6.072   9.377   8.234 -0.5630 -0.0895  0.2336
  810MOL0     C 6790   5.977   9.328   8.180  0.5164  0.2453  0.8135
  810MOL0     O 6791   5.867   9.276   8.244 -0.1419 -0.2140  0.2645
  810MOL0     C 6792   5.878   9.272   8.382  0.2773 -1.0297  0.3663
  810MOL0     C 6793   5.979   9.209   8.452 -0.6923 -0.7517 -0.3248
  810MOL0     C 6794   5.958   9.198   8.588  0.2924 -0.4362  0.5779
  810MOL0     C 6795   5.847   9.260   8.661  0.2594 -0.3559 -0.4784
  810MOL0     O 6796   5.826   9.264   8.794  0.8388 -0.3789  0.0177
  810MOL0     C 6797   5.938   9.219   8.875 -0.4165  0.7409  0.5672
  810MOL0     C 6798   5.905   9.265   9.013  0.3754 -0.1489  0.2760
  810MOL0     C 6799   6.016   9.232   9.123  0.5247 -0.6538  1.4222
  810MOL0     C 6800   5.970   9.273   9.263 -0.0014  0.2762 -0.4110
  810MOL0     C 6801   6.071   9.231   9.366 -0.4114 -0.1128 -0.3117
  810MOL0     C 6802   6.035   9.107   9.437 -0.4449  0.9235 -0.2323
  810MOL0     C 6803   6.125   9.062   9.553  0.5008  1.0296  0.3636
  810MOL0     C 6804   6.257   9.006   9.498  0.2306  0.1001  0.3514
  810MOL0     N 6805   6.352   8.974   9.606  0.2878 -0.8381 -0.1331
  810MOL0     C 6806   6.394   9.077   9.684 -0.2423 -0.0432 -0.2282
  810MOL0     C 6807   6.456   9.017   9.784 -0.1051 -0.2354  0.3857
  810MOL0     C 6808   6.506   9.082   9.914 -0.3514  0.5463 -0.1663
  810MOL0     C 6809   6.405   9.112  10.030  0.4333 -0.1702  0.5389
  810MOL0     C 6810   6.319   8.991  10.050  0.2286  0.4860  0.1655
  810MOL0     C 6811   6.393   8.869  10.110  0.2839 -0.6380 -0.1619
  810MOL0     O 6812   6.297   8.765  10.135  0.0999 -0.2690  0.0525
  810MOL0     C 6813   6.362   8.648  10.170 -0.3627 -0.0884 -0.5912
  810MOL0     C 6814   6.499   8.625  10.197 -1.0024  1.9822  0.7211
  810MOL0     C 6815   6.550   8.495  10.225  0.4767 -0.3231  0.7663
  810MOL0     C 6816   6.464   8.387  10.234 -1.4950 -0.6725 -0.0326
  810MOL0     C 6817   6.517   8.260  10.277 -0.2986  0.5264  0.1271
  810MOL0     O 6818   6.636   8.242  10.335  0.3444 -0.4632  0.6465
  810MOL0     C 6819   6.680   8.115  10.348  0.5775  0.0763 -0.5625
  810MOL0     C 6820   6.619   8.029  10.437  0.7380  0.8189 -0.3830
  810MOL0     C 6821   6.672   7.912  10.482  0.2347  0.4389 -0.0653
  810MOL0     C 6822   6.799   7.871  10.435 -0.5128  0.1291  0.0852
  810MOL0     O 6823   6.865   7.757  10.474 -0.1062 -0.9399 -0.1428
  810MOL0     C 6824   7.007   7.763  10.508  0.8944  0.5114  0.7132
  810MOL0     C 6825   7.043   7.660  10.621 -0.0260 -0.4859 -0.5264
  810MOL0     C 6826   7.143   7.719  10.718  0.1484 -0.0237 -0.5815
  810MOL0     C 6827   7.201   7.614  10.814  0.3714  0.2104 -0.3084
  810MOL0     C 6828   7.295   7.666  10.926 -0.3840 -0.4327  0.3892
  810MOL0     C 6829   7.358   7.555  11.018 -0.1007  0.6751 -0.3629
  810MOL0     C 6830   7.240   7.487  11.093  0.1301  0.6667  0.7167
  810MOL0     C 6831   7.298   7.414  11.217  0.5299  0.2176  0.0352
  810MOL0    Cl 6832   7.421   7.283  11.159  0.0407 -0.3347 -0.8007
  810MOL0     C 6833   6.861   7.951  10.340  0.2863  1.1075  0.3183
  810MOL0     C 6834   6.806   8.076  10.294  0.0812 -0.2028  0.2112
  810MOL0     O 6835   6.442   8.167  10.237 -0.8945 -0.9797 -0.3217
  810MOL0     C 6836   6.331   8.409  10.212  0.0232 -0.5085 -1.3931
  810MOL0     C 6837   6.273   8.534  10.176  0.0427 -0.2004 -1.7265
  810MOL0     N 6838   6.476   8.881   9.749 -0.3704  0.3544 -0.6411
  810MOL0     N 6839   6.414   8.856   9.641  0.4473  0.5161 -0.5830
  810MOL0     C 6840   5.744   9.326   8.590 -0.2462  1.2509 -0.6572
  810MOL0     C 6841   5.760   9.317   8.453  0.2766  0.3038 -0.0747
  810MOL0     C 6842   5.969   9.328   8.037  0.0952  0.5082 -0.0635
  810MOL0     C 6843   5.865   9.268   7.968 -1.1387  0.6087 -0.0095
  810MOL0     C 6844   5.881   9.255   7.824  0.9278  0.3382 -1.3083
  810MOL0     C 6845   5.989   9.300   7.753 -0.2914 -0.6390  0.7908
  810MOL0     O 6846   5.993   9.308   7.613  0.3395 -0.9338 -0.4515
  810MOL0     C 6847   6.115   9.339   7.534  0.3453 -0.5432 -0.0339
  810MOL0     C 6848   6.083   9.351   7.383 -0.0292 -0.5018  0.9175
  810MOL0     C 6849   6.032   9.490   7.334 -0.4087 -0.3120 -0.3946
  810MOL0     C 6850   5.891   9.527   7.391  0.2254 -0.6967  0.4100
  810MOL0     C 6851   5.868   9.666   7.347  0.6892  0.4218 -0.2595
  810MOL0     C 6852   5.848   9.781   7.324  0.9386 -0.2468 -0.0706
  810MOL0     C 6853   6.087   9.366   7.820  0.6620  0.0938 -0.6417
  810MOL0     C 6854   6.069   9.386   7.959  0.8040  0.5238  0.2790
  810MOL0     H 6855   6.059   9.157   8.401 -1.2722 -0.3957 -1.6360
  810MOL0     H 6856   6.032   9.132   8.634  2.3819  0.7979 -0.8611
  810MOL0     H 6857   6.030   9.263   8.836 -0.1674 -0.0563  0.2345
  810MOL0     H 6858   5.964   9.113   8.874 -1.4315  0.4830  0.1263
  810MOL0     H 6859   5.813   9.215   9.046  0.6670 -1.8125 -1.2673
  810MOL0     H 6860   5.868   9.368   9.011 -1.9346 -0.8740  1.8004
  810MOL0     H 6861   6.097   9.302   9.105  0.6504 -1.1103  0.1018
  810MOL0     H 6862   6.050   9.128   9.127 -2.6306 -1.7959  4.7033
  810MOL0     H 6863   5.966   9.382   9.276 -0.7115  0.0029  2.0678
  810MOL0     H 6864   5.870   9.241   9.294  1.1341 -1.2558  1.8662
  810MOL0     H 6865   6.083   9.310   9.440  0.9550 -1.2935  0.7867
  810MOL0     H 6866   6.172   9.209   9.330 -1.1409 -2.8402 -0.9102
  810MOL0     H 6867   6.032   9.020   9.370 -2.3976  1.3158 -0.7317
  810MOL0     H 6868   5.932   9.098   9.474 -1.0474 -1.1622 -2.1507
  810MOL0     H 6869   6.132   9.148   9.620 -3.1016  0.9885  0.9831
  810MOL0     H 6870   6.075   8.983   9.610  3.0775  0.6198  2.2211
  810MOL0     H 6871   6.310   9.078   9.435 -3.8802  2.7454 -0.5025
  810MOL0     H 6872   6.244   8.915   9.439  1.3186 -1.6813  2.6862
  810MOL0     H 6873   6.355   9.178   9.681  1.1373  0.5744  1.4823
  810MOL0     H 6874   6.548   9.179   9.886  1.7081 -0.5937 -1.2316
  810MOL0     H 6875   6.582   9.014   9.954 -0.8559 -0.0069 -0.1322
  810MOL0     H 6876   6.343   9.192   9.988  2.9484  0.4079 -2.3662
  810MOL0     H 6877   6.457   9.144  10.121 -2.4457 -0.2602  2.3335
  810MOL0     H 6878   6.239   9.020  10.118  0.7067 -2.0886  1.9557
  810MOL0     H 6879   6.280   8.961   9.952 -0.3192  1.9841 -0.0970
  810MOL0     H 6880   6.445   8.901  10.201  2.0625 -0.8552 -1.0555
  810MOL0     H 6881   6.471   8.853  10.035 -0.2305  0.7918 -1.0384
  810MOL0     H 6882   6.573   8.703  10.181  2.6806 -1.3443  0.1340
  810MOL0     H 6883   6.655   8.478  10.243  0.6773 -1.7221 -1.3042
  810MOL0     H 6884   6.520   8.057  10.471 -1.5087 -5.8928 -0.0465
  810MOL0     H 6885   6.614   7.842  10.541  0.6953  1.3639  1.5409
  810MOL0     H 6886   7.023   7.868  10.534 -1.7338  1.3033 -0.5202
  810MOL0     H 6887   7.060   7.736  10.416  1.1766  1.2221  0.6588
  810MOL0     H 6888   7.071   7.572  10.563  0.8519  1.5076 -3.3717
  810MOL0     H 6889   6.952   7.634  10.675  0.6408  0.6193  1.2106
  810MOL0     H 6890   7.091   7.805  10.762 -0.4475  0.0167 -1.3518
  810MOL0     H 6891   7.223   7.763  10.659  1.0383 -0.3394  0.3595
  810MOL0     H 6892   7.113   7.576  10.867  0.1545  0.0780 -0.7576
  810MOL0     H 6893   7.251   7.536  10.755 -2.0008  0.5344 -2.9283
  810MOL0     H 6894   7.245   7.744  10.984  2.0211  2.1167 -0.7183
  810MOL0     H 6895   7.392   7.703  10.891  0.9629 -3.2009  0.8933
  810MOL0     H 6896   7.429   7.605  11.085 -0.0435 -0.0108  0.0879
  810MOL0     H 6897   7.409   7.484  10.952 -0.6219  1.2481 -1.4187
  810MOL0     H 6898   7.171   7.566  11.123 -3.4769 -1.2956 -1.6841
  810MOL0     H 6899   7.186   7.417  11.029 -2.0972 -0.5156  3.6411
  810MOL0     H 6900   7.215   7.367  11.271  2.1308 -2.5421  0.2730
  810MOL0     H 6901   7.334   7.491  11.286 -2.7309  0.1429  2.0675
  810MOL0     H 6902   6.946   7.911  10.285 -0.9760  0.4806 -1.2691
  810MOL0     H 6903   6.851   8.131  10.212  0.3801  1.5385  1.5038
  810MOL0     H 6904   6.254   8.332  10.217 -0.4632  0.0555  2.3805
  810MOL0     H 6905   6.166   8.543  10.157 -0.4333  0.3274  0.8371
  810MOL0     H 6906   5.658   9.365   8.644 -2.1476 -1.8936 -1.1323
  810MOL0     H 6907   5.675   9.349   8.395  0.6135 -0.9145 -1.2896
  810MOL0     H 6908   5.782   9.227   8.023 -0.0881  0.4737  1.5210
  810MOL0     H 6909   5.789   9.218   7.780  0.4895  1.7331 -1.6086
  810MOL0     H 6910   6.197   9.269   7.550 -1.2192 -2.5385 -0.3697
  810MOL0     H 6911   6.142   9.440   7.568  1.0761  0.1863 -2.5602
  810MOL0     H 6912   6.164   9.338   7.310 -0.1443  0.4434  0.6129
  810MOL0     H 6913   6.000   9.283   7.363 -2.7313  2.2863  1.8358
  810MOL0     H 6914   6.025   9.501   7.225 -0.1604  0.6001 -0.3286
  810MOL0     H 6915   6.101   9.566   7.371 -4.5652  2.4609  2.4855
  810MOL0     H 6916   5.810   9.460   7.361 -2.6273  2.1059  1.2888
  810MOL0     H 6917   5.883   9.532   7.500 -1.3267  1.5031  0.2692
  810MOL0     H 6918   5.826   9.883   7.299  2.3476  0.6785  2.0660
  810MOL0     H 6919   6.172   9.404   7.765 -0.8380 -1.5434 -4.4269
  810MOL0     H 6920   6.137   9.448   8.018  0.4092  2.0966 -0.8607
  811MOL0     O 6921   2.833   0.092   1.212 -1.0892 -0.2587 -1.1010
  811MOL0     C 6922   2.820   0.204   1.269  0.6283  0.4669 -0.0800
  811MOL0     O 6923   2.693   0.261   1.293  0.0458  0.3803  0.3756
  811MOL0     C 6924   2.579   0.180   1.293  0.4803 -0.0480  0.7925
  811MOL0     C 6925   2.538   0.116   1.414  0.2818  0.0916  0.0634
  811MOL0     C 6926   2.412   0.055   1.402 -0.4402  0.0266  0.1207
  811MOL0     C 6927   2.327   0.063   1.293 -0.9508 -0.1033 -1.0972
  811MOL0     O 6928   2.204   0.011   1.287  0.4271 -0.0153  0.1975
  811MOL0     C 6929   2.107   0.014   1.400 -0.1360  0.0327  0.7681
  811MOL0     C 6930   1.984  -0.065   1.356 -0.3595  0.0118  0.2953
  811MOL0     C 6931   2.031  -0.210   1.318 -0.3672 -0.2083 -0.3647
  811MOL0     C 6932   1.910  -0.301   1.280 -0.4676  0.1341  1.4759
  811MOL0     C 6933   1.957  -0.445   1.243  0.0223 -0.7123  0.5084
  811MOL0     C 6934   1.992  -0.522   1.371 -0.6804 -0.0149 -0.7674
  811MOL0     C 6935   2.000  -0.674   1.350  0.2152 -1.1073  0.0645
  811MOL0     C 6936   2.069  -0.756   1.460  0.4591 -0.2068 -0.8310
  811MOL0     N 6937   2.047  -0.897   1.434  0.0813  0.0324 -0.0595
  811MOL0     C 6938   2.116  -0.997   1.490 -0.4552 -0.3690 -0.9798
  811MOL0     C 6939   2.102  -1.104   1.418  0.7500 -0.5851  0.2232
  811MOL0     C 6940   2.169  -1.237   1.443  0.4395  0.1659 -0.5300
  811MOL0     C 6941   2.312  -1.241   1.406  0.0356  0.1705 -0.1148
  811MOL0     C 6942   2.388  -1.370   1.434  0.0906  0.3234 -0.2723
  811MOL0     C 6943   2.405  -1.443   1.568 -0.4516 -0.0276 -1.0684
  811MOL0     O 6944   2.284  -1.477   1.643 -0.0745 -0.1162  0.0577
  811MOL0     C 6945   2.229  -1.596   1.607  0.5815  0.4884  0.0245
  811MOL0     C 6946   2.125  -1.602   1.515 -0.5630 -0.2353  0.3330
  811MOL0     C 6947   2.077  -1.727   1.469  0.5535 -0.5611  0.1201
  811MOL0     C 6948   2.124  -1.846   1.524 -0.1765  0.1173  0.6512
  811MOL0     C 6949   2.074  -1.984   1.465  1.0646 -0.0943 -0.2865
  811MOL0     O 6950   1.994  -1.971   1.351  0.4605  0.9926  0.7469
  811MOL0     C 6951   1.952  -2.095   1.297  0.0613  0.2067 -0.1133
  811MOL0     C 6952   1.839  -2.156   1.352 -0.3616 -0.8768 -0.3251
  811MOL0     C 6953   1.783  -2.276   1.310 -0.4076  0.4440 -0.0548
  811MOL0     C 6954   1.863  -2.346   1.217 -0.1130  0.0497  1.2465
  811MOL0     O 6955   1.815  -2.463   1.162  1.0376 -0.0960 -0.2345
  811MOL0     C 6956   1.715  -2.440   1.057 -0.4776 -0.0854  0.7176
  811MOL0     C 6957   1.690  -2.573   0.986 -0.6025  0.7713  0.2459
  811MOL0     C 6958   1.812  -2.604   0.904  0.4492 -0.8471 -0.6413
  811MOL0     C 6959   1.794  -2.721   0.799 -0.7147  0.0904 -0.5052
  811MOL0     C 6960   1.910  -2.734   0.704 -0.2099  0.4189  0.8737
  811MOL0     C 6961   2.031  -2.792   0.775 -0.0686  0.2968 -0.2016
  811MOL0     C 6962   2.156  -2.781   0.682 -0.3657  0.2002 -0.1483
  811MOL0     C 6963   2.285  -2.833   0.747 -0.1419 -0.6225 -0.0035
  811MOL0    Cl 6964   2.285  -3.005   0.708  0.1003 -0.2457  0.2439
  811MOL0     C 6965   1.991  -2.289   1.168  0.1320 -0.0968 -0.5886
  811MOL0     C 6966   2.042  -2.167   1.215  0.6414 -0.1646 -0.0613
  811MOL0     O 6967   2.102  -2.089   1.517  0.5248  0.2195  0.2594
  811MOL0     C 6968   2.223  -1.842   1.625  0.9874 -0.0915  0.5760
  811MOL0     C 6969   2.266  -1.716   1.674  0.4017  0.0559  1.6705
  811MOL0     N 6970   2.029  -1.079   1.309 -0.5105  0.2123 -0.7058
  811MOL0     N 6971   1.999  -0.952   1.316  1.1146  0.5239 -0.1077
  811MOL0     C 6972   2.376   0.134   1.183  0.3558 -1.0971  0.0808
  811MOL0     C 6973   2.499   0.187   1.182  0.5079  0.7208 -0.2353
  811MOL0     C 6974   2.934   0.284   1.293 -0.0266  0.7102 -0.0009
  811MOL0     C 6975   3.065   0.241   1.300 -0.0722  1.0280 -0.3399
  811MOL0     C 6976   3.165   0.323   1.340 -0.1320  0.6919 -1.2177
  811MOL0     C 6977   3.138   0.454   1.361  0.0823 -0.3952 -0.4239
  811MOL0     O 6978   3.239   0.534   1.379  0.8051  0.7072 -0.4949
  811MOL0     C 6979   3.228   0.643   1.474 -0.0970  0.4654  0.4716
  811MOL0     C 6980   3.353   0.731   1.503 -0.9270 -0.3044  0.9035
  811MOL0     C 6981   3.323   0.850   1.586 -0.0583  0.4711 -0.2494
  811MOL0     C 6982   3.430   0.961   1.603  0.3044 -0.4303  0.9583
  811MOL0     C 6983   3.455   1.020   1.478 -0.6150 -0.4651  0.2136
  811MOL0     C 6984   3.474   1.076   1.368  1.2115 -0.5118 -0.7966
  811MOL0     C 6985   3.009   0.505   1.351  0.2567  1.3553 -1.0767
  811MOL0     C 6986   2.906   0.422   1.315  0.6526  0.6294  0.7522
  811MOL0     H 6987   2.599   0.112   1.504 -0.4879  4.5883  1.0125
  811MOL0     H 6988   2.377  -0.009   1.482  0.9265 -0.1264  0.6179
  811MOL0     H 6989   2.078   0.113   1.437 -1.4375  1.4834 -3.5350
  811MOL0     H 6990   2.158  -0.035   1.483  2.9749  0.7734 -0.5596
  811MOL0     H 6991   1.944  -0.009   1.271  0.2023 -1.1255 -0.7416
  811MOL0     H 6992   1.917  -0.073   1.442  1.6151 -0.0150  1.8850
  811MOL0     H 6993   2.074  -0.256   1.408 -0.4863  0.1861 -0.1026
  811MOL0     H 6994   2.110  -0.206   1.242  0.5446  0.4385  0.5699
  811MOL0     H 6995   1.839  -0.311   1.362 -0.7257 -1.6538  1.0697
  811MOL0     H 6996   1.843  -0.254   1.207  0.8602  1.8533  1.3174
  811MOL0     H 6997   2.039  -0.443   1.171 -1.8752 -1.8741 -1.8336
  811MOL0     H 6998   1.873  -0.493   1.192  0.2376  0.9766 -1.5445
  811MOL0     H 6999   1.919  -0.498   1.449 -3.0645  3.3294 -3.6780
  811MOL0     H 7000   2.091  -0.487   1.402 -0.4788  1.3672 -2.7358
  811MOL0     H 7001   1.896  -0.708   1.347 -1.2520  2.6479  2.2600
  811MOL0     H 7002   2.037  -0.682   1.248 -2.1640  2.2249 -1.2319
  811MOL0     H 7003   2.011  -0.718   1.545  0.1949  2.3594 -2.0539
  811MOL0     H 7004   2.176  -0.736   1.467  0.2392  1.9548 -2.4806
  811MOL0     H 7005   2.188  -0.985   1.571 -1.4837 -2.1441  0.2639
  811MOL0     H 7006   2.112  -1.316   1.393  0.5605 -0.3204  0.0779
  811MOL0     H 7007   2.158  -1.262   1.549 -1.1466 -0.5681 -0.8300
  811MOL0     H 7008   2.355  -1.171   1.478  3.1702 -0.0739 -1.5706
  811MOL0     H 7009   2.340  -1.209   1.306  0.2531 -0.3224 -0.2151
  811MOL0     H 7010   2.348  -1.444   1.364  4.8900 -1.4558 -1.5260
  811MOL0     H 7011   2.487  -1.343   1.395 -1.2294  2.6344 -2.3217
  811MOL0     H 7012   2.461  -1.378   1.637 -3.3681  0.5326  0.9369
  811MOL0     H 7013   2.459  -1.538   1.568 -3.1986 -1.7849  1.5935
  811MOL0     H 7014   2.082  -1.518   1.461  0.1175 -0.2742 -0.2784
  811MOL0     H 7015   2.005  -1.718   1.389  2.0267 -0.4407 -1.2532
  811MOL0     H 7016   1.788  -2.096   1.426 -1.5608  0.1094 -1.8875
  811MOL0     H 7017   1.686  -2.311   1.343  0.4517 -5.3159 -2.5467
  811MOL0     H 7018   1.759  -2.358   1.000  0.3026 -0.6459  0.4913
  811MOL0     H 7019   1.622  -2.408   1.105 -0.3007 -2.4117  2.8208
  811MOL0     H 7020   1.611  -2.549   0.915  1.5206 -0.8771 -2.9181
  811MOL0     H 7021   1.659  -2.660   1.045  1.9774 -0.5158 -0.1600
  811MOL0     H 7022   1.888  -2.622   0.981  1.3157  0.6583 -1.1011
  811MOL0     H 7023   1.846  -2.516   0.849  0.7595 -0.5687 -0.0234
  811MOL0     H 7024   1.784  -2.809   0.864  0.9367  1.0524  1.1559
  811MOL0     H 7025   1.692  -2.710   0.759 -1.5444  1.1758  1.7371
  811MOL0     H 7026   1.943  -2.637   0.665 -0.6170  0.7098  1.2439
  811MOL0     H 7027   1.887  -2.798   0.618  0.3511  1.0818  0.2091
  811MOL0     H 7028   2.022  -2.895   0.810  0.7624  0.8643  1.8118
  811MOL0     H 7029   2.060  -2.729   0.859  1.3698 -1.8641  1.0003
  811MOL0     H 7030   2.137  -2.839   0.591 -3.3780  0.1586  0.3829
  811MOL0     H 7031   2.171  -2.675   0.662  2.3110 -0.0231  0.3323
  811MOL0     H 7032   2.287  -2.825   0.856  0.9077 -4.2936  0.3734
  811MOL0     H 7033   2.375  -2.786   0.707  0.1104 -0.5813  0.6063
  811MOL0     H 7034   2.043  -2.337   1.086  0.4806  1.6123 -1.4080
  811MOL0     H 7035   2.135  -2.127   1.176  2.4601 -2.7594  1.3052
  811MOL0     H 7036   2.262  -1.927   1.680  0.2857  0.0580  1.3210
  811MOL0     H 7037   2.344  -1.706   1.749  1.4036 -1.5538  0.9175
  811MOL0     H 7038   2.304   0.153   1.105 -1.5943  0.1304  2.0640
  811MOL0     H 7039   2.534   0.248   1.099 -0.5339  1.4129 -0.1734
  811MOL0     H 7040   3.087   0.138   1.274  1.8529  1.4109 -0.3309
  811MOL0     H 7041   3.265   0.281   1.339 -0.8433 -1.1542 -0.2132
  811MOL0     H 7042   3.193   0.592   1.564 -1.3073 -0.2499 -0.3851
  811MOL0     H 7043   3.157   0.716   1.433  0.4397 -0.3994 -2.1368
  811MOL0     H 7044   3.447   0.680   1.527 -1.7035 -1.3412  1.8941
  811MOL0     H 7045   3.376   0.777   1.407  3.2812 -1.7766  0.9807
  811MOL0     H 7046   3.307   0.799   1.681 -1.4465 -1.3972 -1.4268
  811MOL0     H 7047   3.231   0.892   1.545  0.2148  0.2656 -1.0921
  811MOL0     H 7048   3.399   1.045   1.667  2.9445  1.1519  0.3245
  811MOL0     H 7049   3.520   0.916   1.646 -0.6295 -3.2423  0.1851
  811MOL0     H 7050   3.501   1.105   1.268 -1.7960  1.5620 -1.1404
  811MOL0     H 7051   2.985   0.602   1.393  1.6193  0.8183  1.1819
  811MOL0     H 7052   2.808   0.469   1.310  0.9220  1.1286 -0.1400
  812MOL0     O 7053   0.419   6.863  10.376 -0.0023 -0.9290  0.9983
  812MOL0     C 7054   0.463   6.780  10.299  0.7280 -0.0287  0.6884
  812MOL0     O 7055   0.545   6.807  10.186  0.3543  0.4247 -0.2374
  812MOL0     C 7056   0.563   6.935  10.144 -0.1801  0.7209  0.7329
  812MOL0     C 7057   0.537   6.958  10.012 -0.0590 -0.3411  0.3761
  812MOL0     C 7058   0.559   7.093   9.964 -1.0612  0.1165 -0.1334
  812MOL0     C 7059   0.619   7.186  10.048 -0.1202  0.1463 -0.5782
  812MOL0     O 7060   0.660   7.308  10.003 -0.3502  0.1693  0.4433
  812MOL0     C 7061   0.637   7.340   9.865 -0.4599 -0.7086 -0.1378
  812MOL0     C 7062   0.716   7.469   9.845 -0.9697 -0.5113 -0.0436
  812MOL0     C 7063   0.704   7.523   9.705  0.5215 -0.2983 -0.6871
  812MOL0     C 7064   0.762   7.427   9.598  0.4837  0.2004 -0.4410
  812MOL0     C 7065   0.713   7.465   9.462  0.4534 -0.1833 -0.2352
  812MOL0     C 7066   0.756   7.352   9.361 -0.2818 -0.8749  0.6009
  812MOL0     C 7067   0.911   7.380   9.324  0.1883  1.0055  0.9378
  812MOL0     C 7068   0.960   7.296   9.202 -0.0801 -0.0908 -1.3124
  812MOL0     N 7069   1.044   7.378   9.113 -0.4296  1.0743 -0.0951
  812MOL0     C 7070   1.178   7.387   9.141  1.0912  0.0099  0.0751
  812MOL0     C 7071   1.226   7.480   9.061  0.2196 -0.4753  0.1767
  812MOL0     C 7072   1.365   7.536   9.063 -1.3482  0.2605  0.3087
  812MOL0     C 7073   1.403   7.638   9.176  0.5523  0.2511 -0.0986
  812MOL0     C 7074   1.464   7.773   9.139  0.4438 -0.4430 -0.5948
  812MOL0     C 7075   1.606   7.763   9.090 -0.7556 -0.3410  0.0711
  812MOL0     O 7076   1.618   7.693   8.966  0.2417 -0.1341 -0.1236
  812MOL0     C 7077   1.744   7.645   8.935  0.9552 -0.2722  1.0910
  812MOL0     C 7078   1.856   7.730   8.944  0.1960 -0.4715  0.0129
  812MOL0     C 7079   1.979   7.695   8.893 -0.8260  0.1908 -0.7495
  812MOL0     C 7080   2.007   7.568   8.854  0.2846  0.3485 -0.7166
  812MOL0     C 7081   2.146   7.512   8.820  1.4268 -1.1193  0.2200
  812MOL0     O 7082   2.243   7.602   8.813 -0.6368 -0.2216 -1.0563
  812MOL0     C 7083   2.334   7.572   8.712  0.2504 -0.2026 -0.5203
  812MOL0     C 7084   2.295   7.585   8.579 -0.1348 -0.0961  0.2271
  812MOL0     C 7085   2.394   7.569   8.476  0.1848  0.4989  0.2156
  812MOL0     C 7086   2.522   7.533   8.516  0.3221 -0.3199  0.7356
  812MOL0     O 7087   2.609   7.503   8.411  1.4032  0.8395  0.0971
  812MOL0     C 7088   2.631   7.590   8.307  0.1379  0.5878 -0.2721
  812MOL0     C 7089   2.552   7.536   8.187 -0.2335 -0.5895 -0.2732
  812MOL0     C 7090   2.612   7.591   8.054  0.1458 -0.4662  0.3521
  812MOL0     C 7091   2.498   7.566   7.948 -0.1514 -0.1039  0.2333
  812MOL0     C 7092   2.550   7.588   7.808  0.6063  0.3129 -0.1997
  812MOL0     C 7093   2.635   7.466   7.751  0.0188 -1.4036  0.6999
  812MOL0     C 7094   2.653   7.474   7.602 -0.4726  0.2582  1.2242
  812MOL0     C 7095   2.745   7.362   7.540 -0.1368 -0.4875  0.6896
  812MOL0    Cl 7096   2.893   7.396   7.617 -0.3834  0.0759  0.3363
  812MOL0     C 7097   2.561   7.519   8.648  0.2025  0.6082  1.0723
  812MOL0     C 7098   2.463   7.533   8.744 -0.3288  0.6015 -0.8404
  812MOL0     O 7099   2.149   7.392   8.790 -0.5249 -0.2375  0.3774
  812MOL0     C 7100   1.898   7.473   8.870 -0.4353 -0.5870 -0.7941
  812MOL0     C 7101   1.764   7.510   8.904  0.5348  0.6529  0.8804
  812MOL0     N 7102   1.123   7.525   8.978 -0.2847  0.9624  0.2336
  812MOL0     N 7103   1.018   7.458   9.009 -0.2273 -0.5690 -0.3849
  812MOL0     C 7104   0.641   7.157  10.177 -0.1602  0.1503 -0.2624
  812MOL0     C 7105   0.607   7.029  10.221  0.3273  1.1585  0.4966
  812MOL0     C 7106   0.423   6.641  10.319  0.2924  0.1144  0.6471
  812MOL0     C 7107   0.384   6.602  10.448  1.4808  0.5797  0.2405
  812MOL0     C 7108   0.342   6.467  10.463  0.2165  0.8531 -0.5876
  812MOL0     C 7109   0.362   6.370  10.377 -0.9139 -0.2171 -0.0046
  812MOL0     O 7110   0.344   6.231  10.391  0.4263  0.4969 -0.3150
  812MOL0     C 7111   0.307   6.172  10.516 -0.0363 -0.6457  0.2304
  812MOL0     C 7112   0.426   6.183  10.612 -0.4722 -0.4776 -0.2862
  812MOL0     C 7113   0.430   6.086  10.732 -0.5915  0.6932 -0.4050
  812MOL0     C 7114   0.335   5.969  10.725 -0.2761  0.9072  0.2716
  812MOL0     C 7115   0.191   5.994  10.731 -0.4319  0.4503 -0.1757
  812MOL0     C 7116   0.067   6.023  10.729 -0.8767 -0.7995 -0.3127
  812MOL0     C 7117   0.420   6.403  10.251  0.0003 -1.1173 -0.7728
  812MOL0     C 7118   0.438   6.541  10.224  0.0294  0.4407  0.1931
  812MOL0     H 7119   0.496   6.880   9.950  0.4766 -1.0060  0.8493
  812MOL0     H 7120   0.534   7.116   9.861 -2.0153  0.8310  0.2378
  812MOL0     H 7121   0.531   7.346   9.839 -0.2310 -2.5607 -1.6922
  812MOL0     H 7122   0.672   7.265   9.794  1.4846 -0.5731  0.6083
  812MOL0     H 7123   0.822   7.458   9.870 -0.7959  1.7322  0.3514
  812MOL0     H 7124   0.669   7.538   9.916  1.7287  0.8678  0.5236
  812MOL0     H 7125   0.743   7.624   9.686 -1.3274  0.0138 -3.3954
  812MOL0     H 7126   0.596   7.536   9.701  0.6294  1.2754  0.5629
  812MOL0     H 7127   0.871   7.430   9.593  0.5250  1.9299  0.8242
  812MOL0     H 7128   0.727   7.326   9.623  0.2471  0.8163  1.8938
  812MOL0     H 7129   0.746   7.563   9.426  0.2193 -0.8061 -2.3056
  812MOL0     H 7130   0.604   7.467   9.470  0.5572 -1.8424  4.2759
  812MOL0     H 7131   0.687   7.370   9.279 -3.7252 -0.4311  3.3365
  812MOL0     H 7132   0.738   7.247   9.387  2.6246 -1.5300  0.4124
  812MOL0     H 7133   0.925   7.487   9.305  0.9089  1.7330  4.6885
  812MOL0     H 7134   0.972   7.352   9.410  0.2457 -3.1196 -0.2462
  812MOL0     H 7135   0.874   7.255   9.148  0.3425 -3.3652  0.2454
  812MOL0     H 7136   1.017   7.210   9.237  1.2253  1.8390  1.7221
  812MOL0     H 7137   1.224   7.326   9.218  0.2305 -1.2080 -0.3552
  812MOL0     H 7138   1.385   7.573   8.962  0.5413 -1.1442  0.1008
  812MOL0     H 7139   1.444   7.461   9.073  0.4254  1.6755 -1.9853
  812MOL0     H 7140   1.471   7.598   9.251  0.9538  0.5725 -0.2864
  812MOL0     H 7141   1.309   7.655   9.229  0.0700 -2.8639  0.2514
  812MOL0     H 7142   1.397   7.829   9.073 -0.2427  1.6737  1.7148
  812MOL0     H 7143   1.458   7.830   9.232  0.8077  0.6733 -1.2392
  812MOL0     H 7144   1.680   7.727   9.162 -0.0425 -0.8104 -0.8724
  812MOL0     H 7145   1.630   7.865   9.060 -0.8211 -0.1765  0.5647
  812MOL0     H 7146   1.835   7.835   8.965 -1.4703 -0.5674 -0.9998
  812MOL0     H 7147   2.059   7.769   8.896 -1.6251  1.1900  3.7479
  812MOL0     H 7148   2.198   7.619   8.544  1.4475  2.1063 -2.3640
  812MOL0     H 7149   2.365   7.575   8.372 -4.0757 -1.3846  1.0713
  812MOL0     H 7150   2.737   7.598   8.282 -0.5417  0.1650 -3.9342
  812MOL0     H 7151   2.605   7.694   8.328 -3.1714  0.1163 -1.4374
  812MOL0     H 7152   2.449   7.573   8.191  0.3315  1.1246  3.2423
  812MOL0     H 7153   2.534   7.429   8.176 -2.5435 -0.1888 -0.8997
  812MOL0     H 7154   2.707   7.542   8.030 -0.1399 -1.5044  1.2903
  812MOL0     H 7155   2.619   7.700   8.062  2.7539 -0.5918  0.4834
  812MOL0     H 7156   2.460   7.464   7.960 -0.8330 -0.5077 -4.0124
  812MOL0     H 7157   2.423   7.643   7.967  2.0130  1.4016  3.7936
  812MOL0     H 7158   2.603   7.684   7.811  3.9920 -1.3804 -0.3026
  812MOL0     H 7159   2.463   7.587   7.742 -0.1857  0.4885  0.8206
  812MOL0     H 7160   2.576   7.380   7.783 -2.1680 -0.9043 -1.6284
  812MOL0     H 7161   2.736   7.455   7.793  1.9630  0.2529 -3.0253
  812MOL0     H 7162   2.557   7.474   7.548  1.4160  1.2803 -2.4958
  812MOL0     H 7163   2.694   7.569   7.567 -1.7546  0.9431  1.4987
  812MOL0     H 7164   2.754   7.364   7.431 -2.6983  0.1809  0.4325
  812MOL0     H 7165   2.713   7.261   7.569  2.4323 -1.3891  0.6553
  812MOL0     H 7166   2.666   7.498   8.665 -0.0566 -1.8024  0.0691
  812MOL0     H 7167   2.490   7.519   8.848 -2.0502  0.2388 -0.4098
  812MOL0     H 7168   1.929   7.369   8.871  1.1165 -0.1546 -0.9151
  812MOL0     H 7169   1.681   7.440   8.908  1.1961 -0.1220  1.4323
  812MOL0     H 7170   0.685   7.229  10.245  5.0239 -3.4972  0.8383
  812MOL0     H 7171   0.624   7.018  10.328  0.8002  1.7673  0.4863
  812MOL0     H 7172   0.363   6.689  10.510 -1.7554  0.4360 -0.5058
  812MOL0     H 7173   0.290   6.438  10.553  1.8267  0.5505  0.2827
  812MOL0     H 7174   0.280   6.068  10.497  2.6103 -0.9771 -2.5918
  812MOL0     H 7175   0.217   6.225  10.548  0.4496  1.3037 -1.4285
  812MOL0     H 7176   0.514   6.153  10.554 -1.0894 -0.6923 -1.1404
  812MOL0     H 7177   0.429   6.287  10.644 -0.6047 -0.8142  0.8872
  812MOL0     H 7178   0.409   6.147  10.821  0.4376  0.7753 -0.2063
  812MOL0     H 7179   0.532   6.048  10.734 -0.5028  0.9404 -0.0540
  812MOL0     H 7180   0.360   5.898  10.645 -0.4521 -0.8920  1.7421
  812MOL0     H 7181   0.356   5.905  10.811 -2.6535  0.2477  0.4426
  812MOL0     H 7182  -0.037   6.046  10.733 -0.3038  2.0643  0.4519
  812MOL0     H 7183   0.433   6.323  10.179  2.2116 -3.7176  2.2315
  812MOL0     H 7184   0.471   6.567  10.124  0.0717 -0.6094 -0.0785
  813MOL0     O 7185   5.905   6.121  10.311 -0.7210  0.2599 -0.0895
  813MOL0     C 7186   6.004   6.127  10.233 -0.4211  0.4390 -1.1806
  813MOL0     O 7187   6.125   6.089  10.274 -0.1553  0.1634 -0.4374
  813MOL0     C 7188   6.146   6.015  10.389  0.3570 -0.5071  0.3749
  813MOL0     C 7189   6.129   6.078  10.510  0.4573 -0.8924 -0.9061
  813MOL0     C 7190   6.130   6.001  10.625 -0.8980 -0.5125 -0.1353
  813MOL0     C 7191   6.161   5.866  10.625  0.3239 -0.1038  0.4408
  813MOL0     O 7192   6.158   5.787  10.737 -0.0893 -0.0226 -0.0435
  813MOL0     C 7193   6.191   5.865  10.858 -0.4712  0.4884 -0.0334
  813MOL0     C 7194   6.256   5.789  10.976 -0.0736  0.7553  0.0223
  813MOL0     C 7195   6.364   5.694  10.938 -0.7539 -0.8937 -0.7827
  813MOL0     C 7196   6.412   5.657  11.076  0.2464  0.3328 -0.2399
  813MOL0     C 7197   6.545   5.580  11.051 -0.4414 -0.2404 -1.0480
  813MOL0     C 7198   6.578   5.484  11.171 -0.2699  0.0131 -0.4208
  813MOL0     C 7199   6.547   5.544  11.305 -0.7431 -0.3799 -0.4215
  813MOL0     C 7200   6.629   5.670  11.334  0.2011  0.1570  0.4021
  813MOL0     N 7201   6.763   5.657  11.390  0.0546  0.5143  0.8010
  813MOL0     C 7202   6.800   5.680  11.523 -0.6237 -0.8159 -0.3359
  813MOL0     C 7203   6.930   5.654  11.529 -0.4841  0.0020  0.6153
  813MOL0     C 7204   7.003   5.653  11.665 -0.0339 -0.2980 -0.0085
  813MOL0     C 7205   6.958   5.540  11.756 -0.0969  0.7058  0.5405
  813MOL0     C 7206   6.990   5.408  11.689 -0.3996  0.8481  0.1090
  813MOL0     C 7207   6.969   5.302  11.789 -0.2324  0.6403  0.0670
  813MOL0     O 7208   7.063   5.314  11.898 -0.4802 -0.3017 -0.3638
  813MOL0     C 7209   7.163   5.221  11.894 -0.1780  0.1726 -0.2005
  813MOL0     C 7210   7.273   5.241  11.815  0.2038 -0.2302 -0.6793
  813MOL0     C 7211   7.363   5.129  11.798  0.4415 -0.1490  0.3324
  813MOL0     C 7212   7.356   5.007  11.880 -1.2057  0.1521  0.9307
  813MOL0     C 7213   7.456   4.897  11.888 -0.0300 -0.1357 -0.8675
  813MOL0     O 7214   7.580   4.932  11.851 -0.6696  0.6316 -1.2150
  813MOL0     C 7215   7.694   4.853  11.861  1.0298  0.1369 -0.3940
  813MOL0     C 7216   7.702   4.721  11.892  0.1539  0.4056  0.2386
  813MOL0     C 7217   7.825   4.663  11.914  0.5288  1.2206  0.0392
  813MOL0     C 7218   7.945   4.739  11.900  0.4082  0.6673 -0.8714
  813MOL0     O 7219   8.074   4.684  11.903 -0.0634 -0.8206  0.6127
  813MOL0     C 7220   8.109   4.592  12.005  0.6306  0.0301  0.6120
  813MOL0     C 7221   8.258   4.565  12.014  1.2112 -0.5102 -0.2819
  813MOL0     C 7222   8.344   4.679  12.060 -0.5168 -0.1273 -0.6224
  813MOL0     C 7223   8.488   4.628  12.092  0.2535  0.3491 -0.1889
  813MOL0     C 7224   8.539   4.522  11.990  0.1408 -0.0574 -0.1697
  813MOL0     C 7225   8.693   4.513  11.975 -0.1985  0.2974 -1.0381
  813MOL0     C 7226   8.787   4.468  12.090 -0.0330 -0.3618  0.5546
  813MOL0     C 7227   8.833   4.579  12.187 -0.2009  0.2264  0.1071
  813MOL0    Cl 7228   8.976   4.536  12.278 -0.1324  0.0379  0.3707
  813MOL0     C 7229   7.938   4.872  11.864 -0.4219  1.1143 -0.1847
  813MOL0     C 7230   7.809   4.928  11.849  0.3199 -0.4856 -0.6445
  813MOL0     O 7231   7.433   4.794  11.955  0.2592  0.5564 -0.2660
  813MOL0     C 7232   7.239   4.995  11.954 -0.6205 -0.0865  0.0882
  813MOL0     C 7233   7.151   5.103  11.966 -0.3724  0.7395 -0.8497
  813MOL0     N 7234   6.977   5.624  11.401  0.8854  1.4444  0.3448
  813MOL0     N 7235   6.877   5.636  11.319  0.0232  0.5290 -0.2305
  813MOL0     C 7236   6.178   5.806  10.494 -0.3221 -0.2432  1.6923
  813MOL0     C 7237   6.172   5.879  10.388 -0.6052 -0.2318 -0.0985
  813MOL0     C 7238   5.986   6.199  10.101 -0.3826  0.0138 -0.5822
  813MOL0     C 7239   5.864   6.255  10.065  1.1425 -0.3574  0.1644
  813MOL0     C 7240   5.852   6.326   9.948  0.0892  0.3642  0.8630
  813MOL0     C 7241   5.948   6.325   9.847 -0.4532  0.3453 -0.0103
  813MOL0     O 7242   5.933   6.408   9.732 -0.7932 -1.0969  0.1225
  813MOL0     C 7243   6.023   6.398   9.620 -0.8340 -0.0149  0.0413
  813MOL0     C 7244   5.940   6.464   9.510 -0.4412 -0.6129  0.1087
  813MOL0     C 7245   5.994   6.446   9.374  0.3560 -0.4742 -1.0895
  813MOL0     C 7246   5.897   6.499   9.264 -0.3871 -0.2328  0.1387
  813MOL0     C 7247   5.835   6.630   9.269  0.8817 -0.0427 -0.3468
  813MOL0     C 7248   5.766   6.734   9.268 -0.3120  0.8529  0.0260
  813MOL0     C 7249   6.073   6.248   9.878 -0.9973  0.3716 -0.1663
  813MOL0     C 7250   6.090   6.193  10.006 -0.1355 -0.1190  0.0960
  813MOL0     H 7251   6.117   6.185  10.498  3.0271 -0.5647 -1.1286
  813MOL0     H 7252   6.108   6.051  10.718  1.8046  1.6325 -0.5278
  813MOL0     H 7253   6.095   5.900  10.896  0.0190  1.5441  0.2674
  813MOL0     H 7254   6.250   5.957  10.846 -1.5050  0.9948 -1.5916
  813MOL0     H 7255   6.186   5.717  11.019 -2.9145  4.3385  1.8618
  813MOL0     H 7256   6.270   5.861  11.057 -1.1084  0.3364  0.5790
  813MOL0     H 7257   6.441   5.746  10.879  0.2694  0.2440  1.4171
  813MOL0     H 7258   6.329   5.603  10.890  0.1199 -0.2351 -2.8263
  813MOL0     H 7259   6.419   5.745  11.140  0.2734  0.6175 -0.6300
  813MOL0     H 7260   6.334   5.590  11.113  0.5339 -1.2966 -2.3574
  813MOL0     H 7261   6.630   5.646  11.028 -1.0842 -0.7014 -5.7561
  813MOL0     H 7262   6.534   5.517  10.962 -4.2588 -4.2731  1.8846
  813MOL0     H 7263   6.683   5.456  11.170 -0.8912 -2.6419 -2.0657
  813MOL0     H 7264   6.521   5.392  11.153  0.5307 -0.4386 -0.6774
  813MOL0     H 7265   6.439   5.561  11.311 -0.8001 -0.6278 -0.7183
  813MOL0     H 7266   6.570   5.469  11.382 -3.7447  1.9017  3.0237
  813MOL0     H 7267   6.575   5.724  11.413 -0.7686 -0.7655  0.3892
  813MOL0     H 7268   6.635   5.733  11.245  1.5184 -2.9857 -1.9410
  813MOL0     H 7269   6.740   5.707  11.609 -2.0249 -0.3709 -1.4197
  813MOL0     H 7270   6.986   5.742  11.727 -1.0942 -0.9071  0.6062
  813MOL0     H 7271   7.109   5.643  11.645 -0.5014 -0.4121 -2.7565
  813MOL0     H 7272   6.850   5.536  11.775 -0.6116  1.0449 -1.9168
  813MOL0     H 7273   7.023   5.555  11.842  3.0141  0.5981 -1.6360
  813MOL0     H 7274   6.912   5.382  11.617  1.7284 -0.7661 -1.7273
  813MOL0     H 7275   7.089   5.402  11.644 -2.1412 -1.9815 -3.9840
  813MOL0     H 7276   6.981   5.205  11.739 -0.6878 -0.0833  1.3094
  813MOL0     H 7277   6.864   5.304  11.819 -0.1121 -0.6429  0.6738
  813MOL0     H 7278   7.298   5.339  11.775  1.2111  0.1538  0.8232
  813MOL0     H 7279   7.454   5.143  11.740  1.6131 -2.3208  1.5134
  813MOL0     H 7280   7.615   4.659  11.903  0.2078  0.5479  1.5921
  813MOL0     H 7281   7.827   4.558  11.940 -0.9072  1.5543  1.6797
  813MOL0     H 7282   8.051   4.499  11.999  1.7176 -0.9255  3.1267
  813MOL0     H 7283   8.099   4.649  12.098  1.5954 -2.0811  2.1202
  813MOL0     H 7284   8.288   4.520  11.919  0.7180 -0.5904 -0.4045
  813MOL0     H 7285   8.254   4.492  12.095 -2.9090  1.1403  1.2712
  813MOL0     H 7286   8.299   4.741  12.138 -1.0707 -0.4507 -0.6795
  813MOL0     H 7287   8.348   4.744  11.972 -0.9088  1.4877  0.4989
  813MOL0     H 7288   8.560   4.711  12.095  1.0843 -0.3401 -0.5356
  813MOL0     H 7289   8.494   4.571  12.185  1.3992  0.9825  0.1546
  813MOL0     H 7290   8.501   4.545  11.890 -0.5439  1.1793  0.3601
  813MOL0     H 7291   8.492   4.428  12.019 -1.8822  0.8157 -0.4755
  813MOL0     H 7292   8.748   4.604  11.949  0.5375  0.2383  0.2124
  813MOL0     H 7293   8.701   4.447  11.888  2.0490  1.3902 -1.7477
  813MOL0     H 7294   8.756   4.380  12.146 -0.5137  1.3594  3.2314
  813MOL0     H 7295   8.882   4.441  12.044 -0.1630  0.1988 -0.0490
  813MOL0     H 7296   8.749   4.603  12.253 -2.3304 -2.3899 -1.4472
  813MOL0     H 7297   8.861   4.662  12.121  2.0690 -0.9744 -0.5603
  813MOL0     H 7298   8.028   4.931  11.852  0.0239  0.4081 -0.3512
  813MOL0     H 7299   7.803   5.034  11.828  1.4393 -0.9922 -4.1723
  813MOL0     H 7300   7.236   4.898  12.002 -0.1107  1.3496  3.2739
  813MOL0     H 7301   7.071   5.085  12.038  0.4205 -1.3639 -0.4311
  813MOL0     H 7302   6.203   5.700  10.487  2.1919  0.2871  1.6000
  813MOL0     H 7303   6.180   5.830  10.291  0.4760  2.6135 -1.5820
  813MOL0     H 7304   5.769   6.258  10.118 -0.6948  3.7687 -2.8618
  813MOL0     H 7305   5.771   6.394   9.925  1.4847  1.3288 -1.5818
  813MOL0     H 7306   6.066   6.299   9.601  0.4308  0.5303 -0.0453
  813MOL0     H 7307   6.112   6.459   9.635 -1.0920  1.5205 -3.6477
  813MOL0     H 7308   5.847   6.407   9.509 -1.4330  0.9484  0.7175
  813MOL0     H 7309   5.926   6.572   9.521  2.2875 -0.1458 -0.2093
  813MOL0     H 7310   6.004   6.339   9.356  0.5910 -0.5372 -0.5824
  813MOL0     H 7311   6.084   6.505   9.353 -1.0808  2.6921  0.7957
  813MOL0     H 7312   5.938   6.489   9.164  1.2464  0.3652  0.7092
  813MOL0     H 7313   5.815   6.427   9.257 -2.0414  1.6898 -5.8288
  813MOL0     H 7314   5.700   6.818   9.263 -0.1739  0.9551 -0.0687
  813MOL0     H 7315   6.134   6.219   9.793  1.6280 -0.7098  1.9431
  813MOL0     H 7316   6.163   6.121  10.043 -1.7524 -1.1377  1.5156
  814MOL0     O 7317   2.712   9.643   0.902 -0.0174 -0.0881 -0.0298
  814MOL0     C 7318   2.740   9.524   0.914 -0.3908  0.1405 -0.3568
  814MOL0     O 7319   2.782   9.437   0.809 -0.6404 -0.3781 -0.4310
  814MOL0     C 7320   2.757   9.475   0.680 -0.1942  0.6678  0.2133
  814MOL0     C 7321   2.634   9.507   0.625  0.2513  0.7302  0.7073
  814MOL0     C 7322   2.642   9.540   0.489  0.0580 -0.8457 -0.3463
  814MOL0     C 7323   2.744   9.559   0.415 -0.3768 -0.3717  0.2104
  814MOL0     O 7324   2.714   9.578   0.278 -0.9993 -0.3196 -0.5846
  814MOL0     C 7325   2.792   9.679   0.207  0.9131  0.3378  0.2252
  814MOL0     C 7326   2.747   9.689   0.060  0.2530  0.4372  0.1326
  814MOL0     C 7327   2.755   9.554  -0.015 -0.0629 -0.1048 -0.4148
  814MOL0     C 7328   2.890   9.477  -0.023 -0.0619 -1.0316 -0.7640
  814MOL0     C 7329   3.002   9.574  -0.064 -0.1889  0.1524 -0.1205
  814MOL0     C 7330   3.114   9.497  -0.121  0.1969 -0.5090  0.4580
  814MOL0     C 7331   3.208   9.434  -0.018  0.1373  0.6741  0.4303
  814MOL0     C 7332   3.327   9.370  -0.094 -0.4254 -0.2229  0.0805
  814MOL0     N 7333   3.385   9.267  -0.006 -0.2309  0.1692  0.4770
  814MOL0     C 7334   3.355   9.130  -0.011  0.4458 -0.2662 -0.6226
  814MOL0     C 7335   3.410   9.074   0.095 -1.7439  0.6247  0.4359
  814MOL0     C 7336   3.395   8.942   0.167  0.1139  0.5784  0.4492
  814MOL0     C 7337   3.446   8.817   0.086 -0.7585  0.3127  0.1022
  814MOL0     C 7338   3.358   8.778  -0.026  0.5688  0.7595 -0.3759
  814MOL0     C 7339   3.380   8.631  -0.077 -0.0196 -0.5280  0.8069
  814MOL0     O 7340   3.280   8.590  -0.169 -0.4278  0.2124  0.3213
  814MOL0     C 7341   3.267   8.451  -0.184  0.1657 -0.2694  0.1254
  814MOL0     C 7342   3.370   8.360  -0.173  0.2787  0.2770  0.4505
  814MOL0     C 7343   3.352   8.229  -0.229  0.4327 -1.6016  0.5485
  814MOL0     C 7344   3.228   8.184  -0.268  0.6833  0.8002  0.6346
  814MOL0     C 7345   3.199   8.047  -0.314 -0.2070 -0.9735  0.1122
  814MOL0     O 7346   3.097   8.026  -0.402  0.3488 -0.5580  0.1365
  814MOL0     C 7347   3.064   7.900  -0.435  0.5987  0.4089 -0.3952
  814MOL0     C 7348   3.071   7.860  -0.573 -0.1936  1.2567 -0.0985
  814MOL0     C 7349   3.015   7.742  -0.613 -0.2308  1.2050 -0.6423
  814MOL0     C 7350   2.952   7.663  -0.520  1.2843  0.2047  0.1114
  814MOL0     O 7351   2.886   7.550  -0.541  0.2025 -0.1645  0.2867
  814MOL0     C 7352   2.802   7.541  -0.657  0.4285 -0.4151  0.2297
  814MOL0     C 7353   2.759   7.395  -0.666 -0.2684  0.2682 -0.8346
  814MOL0     C 7354   2.692   7.351  -0.790 -0.0583  0.3324  0.6610
  814MOL0     C 7355   2.653   7.195  -0.755 -1.1793 -0.2292 -0.0360
  814MOL0     C 7356   2.541   7.132  -0.834 -0.2781 -0.2282  0.1201
  814MOL0     C 7357   2.495   7.004  -0.758  0.2988 -0.7642 -1.0992
  814MOL0     C 7358   2.390   6.927  -0.842 -0.6241 -0.2416  0.7381
  814MOL0     C 7359   2.340   6.806  -0.768 -1.1832  0.1421 -0.3024
  814MOL0    Cl 7360   2.269   6.856  -0.610  0.1058  0.4846  0.0955
  814MOL0     C 7361   2.944   7.697  -0.384 -0.8540 -1.1961  0.3618
  814MOL0     C 7362   3.007   7.814  -0.338  0.2089 -0.2826  0.0771
  814MOL0     O 7363   3.262   7.947  -0.267  0.0777 -0.2682  0.3519
  814MOL0     C 7364   3.121   8.275  -0.260 -0.3130 -0.7509 -0.2156
  814MOL0     C 7365   3.141   8.413  -0.225  0.2846  0.5954  0.5364
  814MOL0     N 7366   3.475   9.177   0.159 -0.5979  0.1801 -0.7492
  814MOL0     N 7367   3.465   9.285   0.094  0.1318 -0.4468  0.4499
  814MOL0     C 7368   2.872   9.516   0.468 -0.0615  1.2582  0.2662
  814MOL0     C 7369   2.882   9.477   0.606 -0.3012 -1.0765  0.0119
  814MOL0     C 7370   2.756   9.481   1.059 -0.4075 -0.4016 -0.1253
  814MOL0     C 7371   2.731   9.344   1.081  0.7760  0.1846 -0.0440
  814MOL0     C 7372   2.746   9.300   1.214  0.4841 -0.2151  1.1130
  814MOL0     C 7373   2.806   9.373   1.313  0.1959 -0.5704  0.2893
  814MOL0     O 7374   2.850   9.326   1.437  0.4540  0.6982  0.0260
  814MOL0     C 7375   2.885   9.188   1.447  0.4959 -0.0694 -0.9054
  814MOL0     C 7376   2.774   9.113   1.523 -0.0522 -0.5882  0.4256
  814MOL0     C 7377   2.752   9.156   1.669  0.2642  0.5772  0.3076
  814MOL0     C 7378   2.776   9.048   1.779 -0.6395 -0.5579  0.3757
  814MOL0     C 7379   2.893   8.969   1.761  0.3949 -0.6350 -0.2759
  814MOL0     C 7380   3.002   8.917   1.766  0.9413 -0.7678  0.1224
  814MOL0     C 7381   2.820   9.510   1.294  0.4290  0.1921 -0.7391
  814MOL0     C 7382   2.798   9.562   1.169  0.1634 -0.1331  0.7680
  814MOL0     H 7383   2.535   9.516   0.669 -0.3394 -1.7515  0.0368
  814MOL0     H 7384   2.545   9.544   0.439 -0.2809  1.0267  0.3948
  814MOL0     H 7385   2.899   9.664   0.223  1.5742  2.5924 -1.4750
  814MOL0     H 7386   2.769   9.774   0.256 -2.3502 -1.6910  3.0562
  814MOL0     H 7387   2.810   9.763   0.009  0.0941  1.2728  1.1168
  814MOL0     H 7388   2.644   9.722   0.046  1.1228  2.6214 -1.6471
  814MOL0     H 7389   2.730   9.576  -0.119 -2.5818  3.4282  0.7308
  814MOL0     H 7390   2.668   9.496   0.017 -0.9587  1.5108  0.2135
  814MOL0     H 7391   2.913   9.430   0.073  1.8797  2.0031  0.4115
  814MOL0     H 7392   2.876   9.398  -0.097 -1.0253 -0.5371 -1.1300
  814MOL0     H 7393   3.048   9.621   0.023 -0.5289  0.2061  0.0277
  814MOL0     H 7394   2.969   9.652  -0.133 -0.7184 -0.9586 -1.1546
  814MOL0     H 7395   3.173   9.558  -0.190 -1.3736 -0.5134 -0.9503
  814MOL0     H 7396   3.074   9.418  -0.185 -2.4383 -0.9780  2.4974
  814MOL0     H 7397   3.249   9.509   0.051  2.5186  1.3720 -1.5817
  814MOL0     H 7398   3.157   9.347   0.025  0.8766 -2.7158 -4.6407
  814MOL0     H 7399   3.394   9.451  -0.126 -0.1241  0.4151  2.1701
  814MOL0     H 7400   3.305   9.324  -0.191  0.0349 -1.1388  0.3979
  814MOL0     H 7401   3.284   9.069  -0.065 -0.8603  0.3935  0.3102
  814MOL0     H 7402   3.289   8.939   0.192 -0.1441 -3.5691 -0.5082
  814MOL0     H 7403   3.454   8.932   0.258 -0.2924 -2.1738  0.4921
  814MOL0     H 7404   3.455   8.734   0.157  0.5432 -1.2234 -1.7643
  814MOL0     H 7405   3.548   8.840   0.053  0.7130 -0.4125  3.6507
  814MOL0     H 7406   3.252   8.791  -0.003  0.6414  4.2635 -1.4501
  814MOL0     H 7407   3.375   8.849  -0.108 -0.6551 -0.4934 -1.7505
  814MOL0     H 7408   3.383   8.556   0.002 -0.4405 -2.3412 -0.8152
  814MOL0     H 7409   3.469   8.642  -0.140 -0.9658  1.1983 -0.3336
  814MOL0     H 7410   3.470   8.387  -0.141  0.0487  1.4421  0.2147
  814MOL0     H 7411   3.434   8.160  -0.246  1.1565 -0.9303  1.2274
  814MOL0     H 7412   3.115   7.935  -0.639 -0.3067 -0.9467 -2.8450
  814MOL0     H 7413   3.021   7.716  -0.718  1.6315  1.7560 -0.7209
  814MOL0     H 7414   2.865   7.568  -0.742  0.5092 -1.0540  0.0854
  814MOL0     H 7415   2.717   7.611  -0.663 -0.7099 -1.7210  0.6498
  814MOL0     H 7416   2.687   7.391  -0.585  0.4097  0.2313 -0.2213
  814MOL0     H 7417   2.838   7.321  -0.653  0.3353  0.8875 -0.8801
  814MOL0     H 7418   2.758   7.362  -0.877 -1.0709  0.9047 -0.0531
  814MOL0     H 7419   2.607   7.416  -0.814  0.0648  0.2174 -0.1050
  814MOL0     H 7420   2.745   7.135  -0.759  1.0847  3.0553 -2.2815
  814MOL0     H 7421   2.633   7.187  -0.647 -0.5920  1.8501  0.2741
  814MOL0     H 7422   2.584   7.120  -0.934  3.3031  2.8225  1.0643
  814MOL0     H 7423   2.449   7.191  -0.838 -0.2546 -0.1319  0.9104
  814MOL0     H 7424   2.461   7.035  -0.659  1.1036  0.8019 -1.2710
  814MOL0     H 7425   2.586   6.945  -0.749  1.3345  0.7457 -1.2477
  814MOL0     H 7426   2.294   6.978  -0.848 -2.2151 -3.1231 -0.0285
  814MOL0     H 7427   2.430   6.909  -0.942 -1.8767 -0.6954  0.3050
  814MOL0     H 7428   2.414   6.727  -0.749 -5.1211 -3.5796  1.2677
  814MOL0     H 7429   2.253   6.773  -0.825 -3.0123  0.1709  2.3057
  814MOL0     H 7430   2.881   7.636  -0.319  0.6880  0.8486  4.0882
  814MOL0     H 7431   3.009   7.846  -0.235 -0.2421 -0.5524  0.1715
  814MOL0     H 7432   3.020   8.236  -0.271  0.5640 -2.8542 -1.4742
  814MOL0     H 7433   3.052   8.476  -0.224  0.5391  1.2078 -2.9147
  814MOL0     H 7434   2.963   9.512   0.409  0.6718 -1.3504  1.4319
  814MOL0     H 7435   2.976   9.455   0.654 -1.5425 -2.6059  1.8899
  814MOL0     H 7436   2.671   9.284   1.013 -2.0932 -1.6132  3.7106
  814MOL0     H 7437   2.720   9.195   1.228 -0.6950  0.0189  0.8265
  814MOL0     H 7438   2.977   9.183   1.506  1.4068  3.8569 -1.7541
  814MOL0     H 7439   2.914   9.141   1.352  0.7127  0.3963 -1.0711
  814MOL0     H 7440   2.680   9.128   1.469  0.2889 -0.8085 -0.2370
  814MOL0     H 7441   2.800   9.007   1.514 -1.0880 -0.9792  1.6742
  814MOL0     H 7442   2.651   9.194   1.684  0.8610  1.5942  2.0349
  814MOL0     H 7443   2.808   9.244   1.704 -0.3072  0.0077  2.9242
  814MOL0     H 7444   2.787   9.084   1.882  2.5058 -2.4758  0.8356
  814MOL0     H 7445   2.690   8.979   1.780 -0.8111 -0.3438  0.5421
  814MOL0     H 7446   3.090   8.856   1.762  0.3627 -1.5587 -1.1533
  814MOL0     H 7447   2.868   9.573   1.368 -2.0438 -1.4129  2.4387
  814MOL0     H 7448   2.815   9.667   1.146  1.1991 -0.4696 -0.0721
  815MOL0     O 7449   8.944   7.116   2.078  0.2116  0.2790 -1.1203
  815MOL0     C 7450   8.855   7.027   2.052  0.3167 -0.1002 -0.0981
  815MOL0     O 7451   8.824   6.929   2.131  0.7009  0.1331 -0.3415
  815MOL0     C 7452   8.892   6.907   2.245  0.3212  0.0721 -0.1578
  815MOL0     C 7453   8.842   6.962   2.362 -0.7060  0.3374 -0.2234
  815MOL0     C 7454   8.912   6.924   2.479  0.1737  0.1642 -0.2884
  815MOL0     C 7455   9.011   6.826   2.489  0.1235 -0.4207  0.8285
  815MOL0     O 7456   9.024   6.777   2.612 -0.3523 -0.0419 -0.8779
  815MOL0     C 7457   9.092   6.661   2.636  0.3254 -0.2537  0.3344
  815MOL0     C 7458   9.116   6.664   2.782  0.6934  0.3295 -0.6323
  815MOL0     C 7459   8.991   6.641   2.871  0.3451 -0.3058 -0.2593
  815MOL0     C 7460   8.979   6.495   2.920  0.2337  0.6033 -0.0850
  815MOL0     C 7461   8.903   6.394   2.830  0.7234 -0.8790  0.1872
  815MOL0     C 7462   8.869   6.264   2.899 -0.9729  0.1372  0.5992
  815MOL0     C 7463   8.797   6.162   2.809  0.0412 -0.5503  0.3736
  815MOL0     C 7464   8.772   6.043   2.905 -0.1410 -0.3328  0.7008
  815MOL0     N 7465   8.887   5.970   2.943 -0.0661  0.0278 -0.0529
  815MOL0     C 7466   8.952   5.999   3.060 -0.1589 -0.4751 -0.1520
  815MOL0     C 7467   9.074   5.938   3.045  1.0107 -0.8567  0.0294
  815MOL0     C 7468   9.189   5.950   3.135 -0.4274 -0.4856 -0.3805
  815MOL0     C 7469   9.210   5.811   3.195 -0.7058 -0.1375 -1.2681
  815MOL0     C 7470   9.341   5.820   3.271 -0.3541 -0.8593  0.8879
  815MOL0     C 7471   9.386   5.690   3.327  0.4914  0.4611  0.0354
  815MOL0     O 7472   9.526   5.699   3.358  0.1300 -0.6008 -0.1911
  815MOL0     C 7473   9.626   5.710   3.269  0.1397  0.4127  0.5670
  815MOL0     C 7474   9.758   5.732   3.317  0.1669 -0.9810 -0.0982
  815MOL0     C 7475   9.872   5.745   3.231  1.0122 -0.5860  0.2719
  815MOL0     C 7476   9.853   5.725   3.092 -0.0451 -0.1686  0.6286
  815MOL0     C 7477   9.966   5.720   3.004 -0.5517  0.3104  0.9548
  815MOL0     O 7478   9.954   5.670   2.878 -1.2450  0.1436  0.0812
  815MOL0     C 7479  10.063   5.688   2.791  0.7323 -0.2769  0.0885
  815MOL0     C 7480  10.130   5.810   2.781 -0.5765  0.4467  0.0879
  815MOL0     C 7481  10.232   5.830   2.698 -0.5190  0.9323  1.1060
  815MOL0     C 7482  10.273   5.712   2.622  0.0906 -0.1891 -0.3835
  815MOL0     O 7483  10.392   5.733   2.548  0.7178  0.0103 -0.7320
  815MOL0     C 7484  10.461   5.620   2.496  0.4206  1.4633  0.9040
  815MOL0     C 7485  10.584   5.660   2.417 -1.2530  0.5051  0.1227
  815MOL0     C 7486  10.647   5.544   2.340 -0.2413 -0.4913  0.7239
  815MOL0     C 7487  10.764   5.598   2.253 -0.2377  0.3415  0.2874
  815MOL0     C 7488  10.785   5.504   2.132 -0.7414 -0.0370 -0.1447
  815MOL0     C 7489  10.902   5.565   2.056 -0.6632  0.0615  0.1113
  815MOL0     C 7490  10.970   5.478   1.945 -0.4570 -0.5168  0.4797
  815MOL0     C 7491  11.072   5.552   1.852 -0.1199 -0.2529 -0.8006
  815MOL0    Cl 7492  11.213   5.624   1.946 -0.9051 -0.7102 -0.5344
  815MOL0     C 7493  10.202   5.588   2.625 -0.3787  0.7571  0.1253
  815MOL0     C 7494  10.090   5.580   2.713 -0.2997 -0.2053  0.7195
  815MOL0     O 7495  10.068   5.718   3.062 -0.6689 -0.5621  0.1411
  815MOL0     C 7496   9.723   5.685   3.046 -0.6649 -0.5628 -0.8078
  815MOL0     C 7497   9.608   5.685   3.129 -0.6229 -0.1522 -0.6409
  815MOL0     N 7498   9.077   5.870   2.933 -0.4690  0.4703  0.3637
  815MOL0     N 7499   8.966   5.890   2.866  0.4088  1.0658 -0.0348
  815MOL0     C 7500   9.049   6.772   2.368  0.1787 -0.5593 -0.9734
  815MOL0     C 7501   8.997   6.821   2.243  0.0837  0.4053 -0.3375
  815MOL0     C 7502   8.784   7.045   1.930  0.9769  1.0024  0.1579
  815MOL0     C 7503   8.679   6.947   1.900 -0.3252 -0.4215  0.1432
  815MOL0     C 7504   8.603   6.968   1.788  0.2201 -0.2344  0.1051
  815MOL0     C 7505   8.628   7.068   1.693  0.1463  0.3454  0.0796
  815MOL0     O 7506   8.558   7.061   1.572  0.4666  0.3698  0.1666
  815MOL0     C 7507   8.600   6.962   1.473 -1.0079 -0.1443  0.4152
  815MOL0     C 7508   8.589   7.012   1.335 -0.4843 -0.3452 -0.1222
  815MOL0     C 7509   8.677   7.140   1.322 -0.2138  0.2466 -0.2349
  815MOL0     C 7510   8.632   7.230   1.205  0.1719  0.3938  0.4077
  815MOL0     C 7511   8.633   7.150   1.084  0.1723  0.0945 -0.3585
  815MOL0     C 7512   8.615   7.081   0.985 -0.1686 -0.2559 -0.4596
  815MOL0     C 7513   8.736   7.159   1.719  0.0712  0.7640  0.0664
  815MOL0     C 7514   8.813   7.149   1.838  0.6179  0.2646 -0.5054
  815MOL0     H 7515   8.773   7.045   2.360 -0.8487  0.4361  2.9955
  815MOL0     H 7516   8.878   6.970   2.571  4.9607 -1.2235  2.5140
  815MOL0     H 7517   9.195   6.664   2.599  0.7338 -0.9547  1.3509
  815MOL0     H 7518   9.034   6.572   2.610  0.0071  0.1838 -0.4830
  815MOL0     H 7519   9.169   6.756   2.806 -0.6585  0.4483  2.3132
  815MOL0     H 7520   9.178   6.580   2.815 -4.0034 -4.0430 -1.5860
  815MOL0     H 7521   8.904   6.672   2.811  1.3752 -0.8824 -2.1425
  815MOL0     H 7522   8.997   6.708   2.957  0.5400  0.5430 -0.9232
  815MOL0     H 7523   9.080   6.457   2.941  0.0542  0.2713  0.1940
  815MOL0     H 7524   8.934   6.504   3.020  0.3528  4.0027 -0.2340
  815MOL0     H 7525   8.963   6.376   2.740 -0.9477  1.2841 -1.4525
  815MOL0     H 7526   8.806   6.435   2.801  2.2724  2.4456 -0.8399
  815MOL0     H 7527   8.810   6.284   2.988 -0.3485 -0.1658  1.0884
  815MOL0     H 7528   8.965   6.217   2.924  1.2171  2.0245 -3.1707
  815MOL0     H 7529   8.697   6.191   2.776  0.5569 -1.4306 -2.1653
  815MOL0     H 7530   8.853   6.134   2.719  0.6401 -1.4923  1.0270
  815MOL0     H 7531   8.702   5.977   2.854  0.4323 -0.1250 -0.3886
  815MOL0     H 7532   8.725   6.079   2.997  1.4944 -0.9785  1.8412
  815MOL0     H 7533   8.933   6.053   3.153  1.5836 -0.8175  0.4436
  815MOL0     H 7534   9.175   6.020   3.218  0.5024  2.8041 -2.7750
  815MOL0     H 7535   9.277   5.975   3.075 -2.4853 -0.7903 -3.7970
  815MOL0     H 7536   9.227   5.729   3.125 -2.3579 -0.1655 -1.6862
  815MOL0     H 7537   9.136   5.785   3.271  1.9562  1.4909  2.1676
  815MOL0     H 7538   9.416   5.860   3.202 -1.5202  1.2946  0.7671
  815MOL0     H 7539   9.320   5.894   3.349 -1.8164 -0.1600 -0.1201
  815MOL0     H 7540   9.372   5.611   3.252  1.1771  0.2484  0.1197
  815MOL0     H 7541   9.339   5.671   3.423 -1.1935  1.2811 -0.5857
  815MOL0     H 7542   9.774   5.735   3.424 -1.8642 -3.8590  0.4108
  815MOL0     H 7543   9.970   5.750   3.276  0.6856  2.3378  0.8177
  815MOL0     H 7544  10.107   5.899   2.839 -0.7605 -0.7918  1.9755
  815MOL0     H 7545  10.291   5.918   2.675 -0.1491  0.1371 -1.1882
  815MOL0     H 7546  10.395   5.567   2.426  0.0427  1.9080  0.9203
  815MOL0     H 7547  10.486   5.560   2.584  1.0478 -1.1103 -0.8967
  815MOL0     H 7548  10.658   5.687   2.493  2.5264 -4.5768 -1.1973
  815MOL0     H 7549  10.552   5.737   2.346 -1.3022  1.8178  1.5195
  815MOL0     H 7550  10.565   5.524   2.270  0.6725  0.0488 -0.5523
  815MOL0     H 7551  10.662   5.450   2.394  0.3406 -0.6088  0.3676
  815MOL0     H 7552  10.759   5.691   2.197  0.8829 -0.0069 -0.4253
  815MOL0     H 7553  10.857   5.598   2.311  0.1530 -1.4969 -0.2737
  815MOL0     H 7554  10.703   5.504   2.060 -0.1693  0.7643 -0.8213
  815MOL0     H 7555  10.803   5.400   2.161  1.9108 -0.5783 -3.1584
  815MOL0     H 7556  10.984   5.603   2.118  1.6793 -0.1316 -2.6486
  815MOL0     H 7557  10.875   5.660   2.010  0.9493  0.0914 -0.8425
  815MOL0     H 7558  11.004   5.380   1.980  0.2711 -1.5040 -2.7176
  815MOL0     H 7559  10.891   5.443   1.879 -1.3195 -0.6315  1.5344
  815MOL0     H 7560  11.021   5.633   1.799  1.7690  0.7995 -1.0795
  815MOL0     H 7561  11.113   5.479   1.782  2.1068 -0.1451  0.3182
  815MOL0     H 7562  10.240   5.505   2.567  0.5957  0.4623  1.1536
  815MOL0     H 7563  10.033   5.488   2.728  0.6943 -1.6170 -2.9617
  815MOL0     H 7564   9.700   5.655   2.944  0.8785 -3.8369 -0.3134
  815MOL0     H 7565   9.508   5.674   3.087 -0.3398  2.1170 -2.0754
  815MOL0     H 7566   9.119   6.690   2.358  2.0212  1.1690 -3.4565
  815MOL0     H 7567   9.034   6.776   2.151  0.3316 -1.3288  0.5796
  815MOL0     H 7568   8.644   6.878   1.976 -2.1754  1.8613  1.5330
  815MOL0     H 7569   8.510   6.914   1.772  1.1614 -1.3441 -2.0146
  815MOL0     H 7570   8.545   6.868   1.465  4.7854 -3.8647 -4.8002
  815MOL0     H 7571   8.702   6.938   1.505 -0.0918  0.4228 -1.9135
  815MOL0     H 7572   8.631   6.930   1.275  0.5103 -1.4925  2.0123
  815MOL0     H 7573   8.484   7.031   1.311 -0.3460  2.0263  0.9286
  815MOL0     H 7574   8.782   7.118   1.304  0.0152  0.7709  0.4033
  815MOL0     H 7575   8.673   7.204   1.411 -1.5261  1.1691 -0.9318
  815MOL0     H 7576   8.528   7.263   1.203  0.2847  0.8015 -2.0181
  815MOL0     H 7577   8.696   7.316   1.186  1.8055 -0.5884  1.2265
  815MOL0     H 7578   8.593   7.022   0.899 -3.3708 -0.2868  0.2696
  815MOL0     H 7579   8.755   7.243   1.653  2.4151  0.2585 -0.0204
  815MOL0     H 7580   8.901   7.212   1.850  1.0100  0.4238 -3.4969
  816MOL0     O 7581   4.118   6.575  10.786 -0.5079 -0.6677 -0.6067
  816MOL0     C 7582   4.080   6.602  10.669  1.9050  0.8281  0.1344
  816MOL0     O 7583   4.108   6.707  10.597  0.2512  0.4385  0.3126
  816MOL0     C 7584   4.190   6.808  10.632  0.3089 -0.3536 -0.7609
  816MOL0     C 7585   4.263   6.869  10.530  0.6825 -0.1819  0.2340
  816MOL0     C 7586   4.363   6.971  10.552 -0.0454  0.0111 -0.5207
  816MOL0     C 7587   4.400   7.009  10.686 -0.2584 -0.6888  0.0471
  816MOL0     O 7588   4.496   7.101  10.711 -0.2433 -0.1091  0.1201
  816MOL0     C 7589   4.563   7.176  10.610  0.0764 -0.7761  0.6971
  816MOL0     C 7590   4.487   7.306  10.590  0.4304 -0.7970 -0.1806
  816MOL0     C 7591   4.579   7.404  10.515 -0.2630 -0.8360  0.8712
  816MOL0     C 7592   4.497   7.524  10.482 -1.0692 -0.2015  1.3811
  816MOL0     C 7593   4.570   7.656  10.438  0.5974 -0.0400 -0.2591
  816MOL0     C 7594   4.632   7.639  10.302 -0.1291  0.8692 -0.4729
  816MOL0     C 7595   4.749   7.737  10.278  0.2157 -0.8947 -0.0507
  816MOL0     C 7596   4.704   7.887  10.267 -0.1665 -0.6693 -0.0807
  816MOL0     N 7597   4.812   7.974  10.246 -0.1662 -1.0898 -0.0343
  816MOL0     C 7598   4.811   8.114  10.262 -0.2070  0.1638  1.7258
  816MOL0     C 7599   4.928   8.152  10.206  0.0475  0.3740  0.0519
  816MOL0     C 7600   4.977   8.290  10.162 -0.3111  0.0649  0.2107
  816MOL0     C 7601   4.858   8.378  10.113  0.2648 -0.1921 -0.3876
  816MOL0     C 7602   4.799   8.447  10.240 -0.0877 -0.4362  0.1155
  816MOL0     C 7603   4.684   8.552  10.198  0.2116  0.3641  0.3452
  816MOL0     O 7604   4.624   8.611  10.321 -0.2140 -0.3996  0.0240
  816MOL0     C 7605   4.500   8.663  10.312  0.3048 -0.4934 -0.5020
  816MOL0     C 7606   4.463   8.762  10.401 -0.4224  0.6285 -0.6357
  816MOL0     C 7607   4.338   8.809  10.417  1.4442 -0.0130  0.3870
  816MOL0     C 7608   4.227   8.755  10.350 -0.0615  0.5725  0.5904
  816MOL0     C 7609   4.092   8.808  10.352  0.6862 -0.2095  0.5057
  816MOL0     O 7610   4.061   8.918  10.422  1.4727 -0.4582 -0.7108
  816MOL0     C 7611   3.928   8.960  10.444  0.0759  0.0630 -0.0836
  816MOL0     C 7612   3.891   9.098  10.436  0.2543 -0.1305  0.0430
  816MOL0     C 7613   3.766   9.146  10.478 -0.3849  0.5832 -0.3962
  816MOL0     C 7614   3.673   9.052  10.512 -0.1945  0.6017  0.2412
  816MOL0     O 7615   3.556   9.114  10.542  0.4209  0.5418  0.5338
  816MOL0     C 7616   3.437   9.031  10.554 -0.0052 -0.6536  0.0904
  816MOL0     C 7617   3.321   9.133  10.545  0.4004  1.1281  0.1108
  816MOL0     C 7618   3.188   9.087  10.602 -0.1782 -0.0025 -0.7203
  816MOL0     C 7619   3.141   8.957  10.552 -0.7695  0.1852  0.4229
  816MOL0     C 7620   3.017   8.912  10.625 -0.1532 -0.7701  0.4886
  816MOL0     C 7621   2.897   8.986  10.565 -1.0088 -0.0580 -0.4463
  816MOL0     C 7622   2.768   8.956  10.650  0.4240  0.4227  0.1048
  816MOL0     C 7623   2.730   9.082  10.727  0.0304  1.1362  0.5395
  816MOL0    Cl 7624   2.869   9.137  10.838  0.0041  0.1210  0.2319
  816MOL0     C 7625   3.699   8.914  10.497 -0.5718  0.5697 -0.7778
  816MOL0     C 7626   3.829   8.870  10.482  0.2474 -0.0722  0.4823
  816MOL0     O 7627   4.015   8.756  10.278 -0.3652 -0.0090  0.4479
  816MOL0     C 7628   4.255   8.652  10.267 -0.6684  0.0859 -0.4393
  816MOL0     C 7629   4.387   8.606  10.248 -0.3047 -0.4386  0.8467
  816MOL0     N 7630   4.999   8.048  10.166 -0.8274  0.5707 -0.6553
  816MOL0     N 7631   4.933   7.932  10.195 -0.7527 -0.1029 -0.5838
  816MOL0     C 7632   4.322   6.949  10.781 -0.4180  0.1147 -0.9631
  816MOL0     C 7633   4.223   6.850  10.759 -0.1851 -0.7851 -0.7902
  816MOL0     C 7634   3.985   6.500  10.614  0.3650  0.8118 -1.0720
  816MOL0     C 7635   3.991   6.370  10.665  0.6079  0.7472  0.5314
  816MOL0     C 7636   3.920   6.264  10.603 -0.1147 -0.8060  0.1010
  816MOL0     C 7637   3.826   6.289  10.500 -0.6310 -0.0545 -0.6463
  816MOL0     O 7638   3.739   6.194  10.456 -0.1166  0.5993  0.6427
  816MOL0     C 7639   3.715   6.067  10.516  0.2876 -0.3400 -1.4227
  816MOL0     C 7640   3.633   5.983  10.420 -0.2932  0.3169 -0.3877
  816MOL0     C 7641   3.746   5.940  10.313  0.5690 -0.5587 -0.2848
  816MOL0     C 7642   3.687   5.861  10.199 -0.5619  0.2496 -0.5366
  816MOL0     C 7643   3.599   5.949  10.117  0.2060  0.5373 -0.7622
  816MOL0     C 7644   3.524   6.020  10.046 -0.5113  0.4195 -0.8203
  816MOL0     C 7645   3.830   6.416  10.445  0.0694  0.1331  0.0004
  816MOL0     C 7646   3.900   6.523  10.500 -0.6579  0.6180 -0.0617
  816MOL0     H 7647   4.241   6.834  10.430 -1.4522 -1.9243  1.2162
  816MOL0     H 7648   4.422   7.004  10.467  2.8418 -1.9093  0.5686
  816MOL0     H 7649   4.588   7.119  10.521 -2.0404  0.0351 -0.4757
  816MOL0     H 7650   4.662   7.206  10.648  0.2239 -1.7026  1.0829
  816MOL0     H 7651   4.452   7.347  10.685 -0.8601 -1.0201 -0.5499
  816MOL0     H 7652   4.397   7.290  10.530 -1.1229 -0.6766  2.0071
  816MOL0     H 7653   4.618   7.363  10.422 -0.4144 -0.6496  0.7260
  816MOL0     H 7654   4.661   7.424  10.585 -1.7705 -0.2393  2.5450
  816MOL0     H 7655   4.431   7.491  10.402  1.0498  2.5233 -1.7829
  816MOL0     H 7656   4.436   7.553  10.569 -0.4685  0.8845  1.4700
  816MOL0     H 7657   4.636   7.679  10.522  1.7957  5.1428 -2.2513
  816MOL0     H 7658   4.503   7.741  10.426  2.2739  1.1577 -1.4937
  816MOL0     H 7659   4.551   7.660  10.231 -1.2438 -2.9149 -0.5364
  816MOL0     H 7660   4.673   7.540  10.281 -2.1991 -0.9172  2.8842
  816MOL0     H 7661   4.821   7.726  10.360 -0.1342 -1.8951  0.1351
  816MOL0     H 7662   4.808   7.719  10.187  1.2196  1.9922 -0.0577
  816MOL0     H 7663   4.653   7.915  10.360 -0.4804 -1.0800 -0.1276
  816MOL0     H 7664   4.631   7.885  10.186  2.5003 -1.5416 -2.6252
  816MOL0     H 7665   4.740   8.189  10.295 -1.2379  1.0253 -2.0150
  816MOL0     H 7666   5.042   8.288  10.074 -1.9154  2.1638 -1.1404
  816MOL0     H 7667   5.021   8.337  10.250 -0.2494 -0.6897  0.5863
  816MOL0     H 7668   4.779   8.320  10.063 -0.0875 -0.5670  0.5684
  816MOL0     H 7669   4.894   8.454  10.043 -3.9669  2.1735 -0.3391
  816MOL0     H 7670   4.752   8.375  10.307  2.6336 -4.3630 -1.8008
  816MOL0     H 7671   4.875   8.503  10.296  0.5273 -0.7394 -0.3994
  816MOL0     H 7672   4.607   8.501  10.140 -0.4847  0.5720  1.0789
  816MOL0     H 7673   4.728   8.629  10.134 -1.9993  3.3429  2.1897
  816MOL0     H 7674   4.540   8.808  10.462  1.8456 -2.6792 -0.7249
  816MOL0     H 7675   4.335   8.891  10.488  5.5565  1.3559 -0.7648
  816MOL0     H 7676   3.967   9.172  10.414 -0.2262  0.7538  1.2729
  816MOL0     H 7677   3.756   9.253  10.497  2.6134  0.5765  1.9661
  816MOL0     H 7678   3.426   8.983  10.651 -1.5327 -0.4438  0.0497
  816MOL0     H 7679   3.428   8.951  10.479 -1.0450 -0.6905  0.2404
  816MOL0     H 7680   3.313   9.161  10.440  0.6227 -0.8120 -0.4572
  816MOL0     H 7681   3.353   9.218  10.608  0.1633  2.3386 -1.3466
  816MOL0     H 7682   3.113   9.164  10.581 -3.1406 -2.5818 -0.3588
  816MOL0     H 7683   3.194   9.090  10.711 -3.5812 -0.4120 -0.3958
  816MOL0     H 7684   3.123   8.963  10.445 -4.8232  1.1650  0.9899
  816MOL0     H 7685   3.220   8.883  10.570  2.1790  2.2796 -2.8137
  816MOL0     H 7686   3.020   8.941  10.730  0.3775  0.4321  0.1538
  816MOL0     H 7687   3.007   8.803  10.622 -0.4176 -0.7317 -0.4749
  816MOL0     H 7688   2.884   8.964  10.459 -1.4056  2.9667 -1.1270
  816MOL0     H 7689   2.913   9.094  10.581 -1.7286 -0.1135  0.7269
  816MOL0     H 7690   2.685   8.903  10.603  2.2614 -5.2299  2.3866
  816MOL0     H 7691   2.798   8.882  10.725  0.2308  0.4421  0.1985
  816MOL0     H 7692   2.647   9.057  10.794  0.3872 -3.4055 -0.3813
  816MOL0     H 7693   2.694   9.153  10.651 -1.4891  0.4431  0.5724
  816MOL0     H 7694   3.617   8.844  10.511 -0.8144  1.2319  1.4779
  816MOL0     H 7695   3.852   8.764  10.479  1.9081  0.2892 -0.7750
  816MOL0     H 7696   4.181   8.594  10.213 -0.5523 -0.6891  0.2176
  816MOL0     H 7697   4.403   8.512  10.195 -2.6678 -0.9482  0.9353
  816MOL0     H 7698   4.338   6.971  10.886  0.5342 -5.6523  0.4393
  816MOL0     H 7699   4.184   6.802  10.848  0.3996 -2.2653 -1.2921
  816MOL0     H 7700   4.046   6.349  10.757  0.2094 -1.1957  0.3815
  816MOL0     H 7701   3.922   6.173  10.662 -0.6713 -1.1111 -0.3373
  816MOL0     H 7702   3.657   6.073  10.608  0.2950 -1.6089 -1.3174
  816MOL0     H 7703   3.818   6.031  10.534 -0.0504  0.1678  2.4534
  816MOL0     H 7704   3.585   5.896  10.466 -2.6517  0.0700 -3.0421
  816MOL0     H 7705   3.550   6.043  10.382 -2.4658 -3.9878 -3.2529
  816MOL0     H 7706   3.818   5.877  10.367  0.3046 -0.3736  0.2864
  816MOL0     H 7707   3.793   6.031  10.277 -2.5678  1.6282  0.7111
  816MOL0     H 7708   3.767   5.828  10.134 -1.5725 -0.9585 -1.2104
  816MOL0     H 7709   3.635   5.769  10.225 -1.4313 -0.1644 -3.4022
  816MOL0     H 7710   3.466   6.084   9.984  3.0074  4.2594 -0.5426
  816MOL0     H 7711   3.766   6.426  10.358 -2.8643  0.9621  2.1151
  816MOL0     H 7712   3.903   6.626  10.466  2.5755  0.3785 -0.7842
  817MOL0     O 7713   3.384   3.556   4.257  0.1499  0.5517 -0.2697
  817MOL0     C 7714   3.438   3.445   4.266 -0.1332  0.3785  0.0644
  817MOL0     O 7715   3.458   3.360   4.164 -0.1404  0.5112 -0.6411
  817MOL0     C 7716   3.429   3.410   4.041  0.8137  0.2343 -0.7631
  817MOL0     C 7717   3.513   3.503   3.981 -0.0629 -0.8859  0.0758
  817MOL0     C 7718   3.477   3.556   3.859  0.4796 -0.1291 -0.2185
  817MOL0     C 7719   3.361   3.506   3.784  1.5548  0.3016 -0.2232
  817MOL0     O 7720   3.332   3.561   3.658 -0.5696  0.0445 -0.8573
  817MOL0     C 7721   3.194   3.606   3.632 -0.5320  0.2806 -0.3055
  817MOL0     C 7722   3.205   3.721   3.532 -0.5561  0.2764  0.1919
  817MOL0     C 7723   3.207   3.840   3.613 -0.1539 -0.2652  0.0380
  817MOL0     C 7724   3.234   3.958   3.521  0.5910  0.4813 -0.5745
  817MOL0     C 7725   3.272   4.080   3.604 -0.5282  0.5438 -0.0109
  817MOL0     C 7726   3.284   4.210   3.529  0.3178 -1.0109 -0.0010
  817MOL0     C 7727   3.378   4.198   3.409  0.3472 -0.4698 -0.5394
  817MOL0     C 7728   3.455   4.329   3.383  0.2157 -0.0735 -0.4678
  817MOL0     N 7729   3.374   4.444   3.352 -0.8714 -0.1552 -1.2094
  817MOL0     C 7730   3.356   4.484   3.222  1.5997 -0.6509  0.6735
  817MOL0     C 7731   3.290   4.602   3.220 -0.7313 -0.7457 -0.8644
  817MOL0     C 7732   3.246   4.687   3.107  0.4222  1.0541 -0.9601
  817MOL0     C 7733   3.335   4.808   3.114 -0.2238  0.1241  0.7004
  817MOL0     C 7734   3.284   4.898   3.014 -0.4269 -0.8169 -0.3703
  817MOL0     C 7735   3.384   5.022   3.012 -0.1019 -0.1285  0.2553
  817MOL0     O 7736   3.319   5.150   2.993 -0.2185  0.2864 -0.3566
  817MOL0     C 7737   3.401   5.244   2.953  0.2834  0.4031  0.6378
  817MOL0     C 7738   3.439   5.340   3.047  0.7071 -0.2315 -1.0161
  817MOL0     C 7739   3.516   5.446   3.006  0.1295  0.1374  0.4956
  817MOL0     C 7740   3.556   5.462   2.870  0.5097 -0.6787 -0.3792
  817MOL0     C 7741   3.634   5.584   2.830 -0.1890  0.0816 -0.0735
  817MOL0     O 7742   3.605   5.703   2.875 -0.9330 -0.0755 -0.3147
  817MOL0     C 7743   3.686   5.806   2.834  0.3886 -0.7049  0.2035
  817MOL0     C 7744   3.730   5.895   2.933  0.6603 -0.8245 -0.5136
  817MOL0     C 7745   3.819   6.003   2.912 -0.4019  0.3233 -0.8833
  817MOL0     C 7746   3.862   6.022   2.778 -0.6190 -0.6192 -0.0842
  817MOL0     O 7747   3.944   6.128   2.740 -0.3535  0.2417 -0.4463
  817MOL0     C 7748   3.950   6.231   2.838  0.1748 -0.4520  0.7131
  817MOL0     C 7749   4.000   6.364   2.770 -0.1799 -0.5761  0.7121
  817MOL0     C 7750   4.018   6.473   2.884  0.6725  0.1487  0.1378
  817MOL0     C 7751   4.088   6.604   2.827  0.4252 -0.3740 -0.0360
  817MOL0     C 7752   4.067   6.729   2.924 -0.3390 -0.4690  0.3709
  817MOL0     C 7753   4.175   6.827   2.918 -0.2070 -0.7400  0.3903
  817MOL0     C 7754   4.134   6.936   3.019 -0.9273  0.4935  0.3099
  817MOL0     C 7755   4.158   7.075   2.967  0.3100  0.0993 -0.5551
  817MOL0    Cl 7756   4.321   7.133   2.967  0.1190 -0.4882  0.1723
  817MOL0     C 7757   3.818   5.938   2.679 -0.0966  0.5770 -0.5890
  817MOL0     C 7758   3.729   5.837   2.706 -0.4349 -0.6296  0.4717
  817MOL0     O 7759   3.720   5.557   2.741 -0.4455  0.1632  0.1643
  817MOL0     C 7760   3.519   5.369   2.775  0.9453  0.4747 -0.6247
  817MOL0     C 7761   3.442   5.256   2.819  0.4439  0.0228  0.1775
  817MOL0     N 7762   3.277   4.641   3.350 -0.3257 -0.6883 -0.1841
  817MOL0     N 7763   3.330   4.544   3.425 -0.1600 -0.5199  0.4801
  817MOL0     C 7764   3.279   3.407   3.843 -0.0890 -1.2693  0.7972
  817MOL0     C 7765   3.308   3.367   3.975 -0.0289 -0.5344  0.3886
  817MOL0     C 7766   3.469   3.400   4.401 -0.0251  0.1652 -0.3096
  817MOL0     C 7767   3.524   3.270   4.430  0.1793 -0.8276  0.4786
  817MOL0     C 7768   3.569   3.235   4.555 -0.9585  1.0781  0.4000
  817MOL0     C 7769   3.564   3.321   4.670  0.2212 -0.5617  1.2539
  817MOL0     O 7770   3.609   3.311   4.803  0.6866 -0.1885 -0.7700
  817MOL0     C 7771   3.669   3.190   4.851 -0.3661  0.0647 -0.6487
  817MOL0     C 7772   3.813   3.180   4.786  0.2280  0.8214  0.8500
  817MOL0     C 7773   3.914   3.287   4.818 -0.0747  0.7318  0.1387
  817MOL0     C 7774   3.899   3.413   4.733  0.8683  0.4939 -0.7851
  817MOL0     C 7775   3.907   3.393   4.584  0.2610 -0.2794 -0.0820
  817MOL0     C 7776   3.920   3.401   4.465  0.2120 -0.1891  0.0444
  817MOL0     C 7777   3.508   3.452   4.643  0.2922 -0.3594  0.4371
  817MOL0     C 7778   3.451   3.478   4.510 -0.0946 -0.8233  0.2241
  817MOL0     H 7779   3.601   3.529   4.039 -1.7386  3.6552  1.0066
  817MOL0     H 7780   3.543   3.627   3.809  0.9850 -0.8369 -0.5757
  817MOL0     H 7781   3.146   3.628   3.728 -2.2379 -3.2369 -0.2094
  817MOL0     H 7782   3.139   3.525   3.584 -1.1922  0.6899 -0.2507
  817MOL0     H 7783   3.121   3.725   3.462 -2.6283 -3.0449  2.2152
  817MOL0     H 7784   3.300   3.718   3.479  1.1577 -1.5259  3.0743
  817MOL0     H 7785   3.284   3.831   3.690  1.1402 -0.6826 -1.2532
  817MOL0     H 7786   3.107   3.844   3.658 -0.1772  2.7766 -0.0670
  817MOL0     H 7787   3.296   3.934   3.434 -1.0527 -1.1404 -1.3762
  817MOL0     H 7788   3.135   3.980   3.479  1.3662 -0.9533 -3.4347
  817MOL0     H 7789   3.367   4.054   3.652 -1.0197 -1.8385 -0.1850
  817MOL0     H 7790   3.192   4.097   3.677 -2.2585 -1.2456 -1.3722
  817MOL0     H 7791   3.324   4.291   3.591  2.6878 -0.0055 -2.6479
  817MOL0     H 7792   3.189   4.230   3.478  1.9590  1.9039 -2.1611
  817MOL0     H 7793   3.456   4.124   3.428  4.2053  3.3481 -0.1598
  817MOL0     H 7794   3.320   4.174   3.320 -2.3148  0.5211  0.7990
  817MOL0     H 7795   3.519   4.321   3.295 -2.3049  2.2212 -2.7396
  817MOL0     H 7796   3.520   4.339   3.470 -1.1092 -1.2373  0.7083
  817MOL0     H 7797   3.387   4.435   3.130  1.0753  0.7032 -0.2459
  817MOL0     H 7798   3.143   4.723   3.114 -0.2128  0.0642 -3.9537
  817MOL0     H 7799   3.250   4.628   3.015  3.9763 -0.8359  0.2363
  817MOL0     H 7800   3.443   4.787   3.107  0.1853  2.3002 -0.2883
  817MOL0     H 7801   3.314   4.858   3.209  0.2370 -2.9330  2.5531
  817MOL0     H 7802   3.289   4.866   2.910  1.2829  2.1807 -1.3165
  817MOL0     H 7803   3.181   4.929   3.036 -1.0696 -1.3257 -2.4295
  817MOL0     H 7804   3.442   4.996   2.923 -1.4729 -1.7981 -0.2304
  817MOL0     H 7805   3.444   5.016   3.103 -0.8897  1.3054  0.8958
  817MOL0     H 7806   3.409   5.331   3.151 -3.7728  0.2916 -2.0314
  817MOL0     H 7807   3.553   5.529   3.066 -1.7628  3.3562 -2.4110
  817MOL0     H 7808   3.687   5.875   3.031  2.3878 -0.7118  0.3039
  817MOL0     H 7809   3.864   6.052   2.997  2.2000 -4.0376  0.5410
  817MOL0     H 7810   4.021   6.208   2.918  0.4191 -3.1298 -0.1714
  817MOL0     H 7811   3.854   6.259   2.883  0.2400  3.8697 -1.2931
  817MOL0     H 7812   3.938   6.395   2.685  1.5955  0.4525 -0.2713
  817MOL0     H 7813   4.103   6.348   2.736 -0.0912  2.3125 -0.6353
  817MOL0     H 7814   4.078   6.434   2.967  0.8977  0.1542 -0.0219
  817MOL0     H 7815   3.918   6.506   2.915  0.1047 -0.2855 -1.1461
  817MOL0     H 7816   4.197   6.592   2.818  0.4037 -0.8136  0.2800
  817MOL0     H 7817   4.053   6.633   2.727 -3.7722  1.1428  1.6920
  817MOL0     H 7818   4.055   6.709   3.031  0.7999  3.8880  1.5095
  817MOL0     H 7819   3.986   6.787   2.878  1.0562 -0.6431 -2.5271
  817MOL0     H 7820   4.189   6.867   2.817 -1.8584 -1.2137 -0.0706
  817MOL0     H 7821   4.272   6.787   2.949  0.7666  0.8883 -0.4237
  817MOL0     H 7822   4.028   6.932   3.046 -1.1574  0.1728 -0.6216
  817MOL0     H 7823   4.177   6.927   3.119 -0.8028  0.9600  0.3014
  817MOL0     H 7824   4.094   7.137   3.030 -1.2123 -0.2435 -1.6791
  817MOL0     H 7825   4.102   7.078   2.872 -1.7735 -0.6548  0.5887
  817MOL0     H 7826   3.871   5.954   2.586  0.9067  3.2090  0.3351
  817MOL0     H 7827   3.709   5.776   2.619 -1.7176  0.6605 -0.1710
  817MOL0     H 7828   3.536   5.382   2.669 -1.9298 -0.3182 -1.2852
  817MOL0     H 7829   3.416   5.170   2.758 -1.2405 -2.5714  4.1445
  817MOL0     H 7830   3.192   3.365   3.794  1.1336 -2.1414 -0.7309
  817MOL0     H 7831   3.238   3.299   4.022  0.6456 -1.5625 -0.0389
  817MOL0     H 7832   3.543   3.201   4.348  0.1508  0.4071 -0.6162
  817MOL0     H 7833   3.615   3.137   4.555 -3.1835 -0.0802  2.9183
  817MOL0     H 7834   3.602   3.107   4.830  0.3332 -0.1036 -2.4260
  817MOL0     H 7835   3.685   3.200   4.958  1.3094  1.1132 -0.9609
  817MOL0     H 7836   3.849   3.081   4.816 -1.8626 -0.8930 -1.8080
  817MOL0     H 7837   3.808   3.166   4.677  0.0502  2.4968  0.6125
  817MOL0     H 7838   4.018   3.259   4.800 -0.1413  1.5309 -1.6512
  817MOL0     H 7839   3.908   3.295   4.927 -0.4369 -0.1332  0.1937
  817MOL0     H 7840   3.803   3.462   4.751  0.6950 -0.8747  2.8280
  817MOL0     H 7841   3.972   3.483   4.775  0.1878  1.0134 -0.4385
  817MOL0     H 7842   3.935   3.399   4.359  1.9463  0.5729  0.2383
  817MOL0     H 7843   3.505   3.518   4.729  1.1459 -1.5036  1.3913
  817MOL0     H 7844   3.409   3.578   4.504  1.5920 -0.1558 -1.6804
  818MOL0     O 7845   7.829   9.400  10.356  0.0896  0.0470  0.5907
  818MOL0     C 7846   7.797   9.289  10.408  0.0862  0.3861 -0.2703
  818MOL0     O 7847   7.678   9.257  10.463  0.1767 -0.1303 -0.4459
  818MOL0     C 7848   7.584   9.358  10.479  0.5854  0.9529  0.9290
  818MOL0     C 7849   7.559   9.413  10.600  0.2093 -0.2873 -0.1991
  818MOL0     C 7850   7.449   9.499  10.616  0.1482  0.0242  0.2620
  818MOL0     C 7851   7.375   9.541  10.507 -0.4846  0.7739  0.3528
  818MOL0     O 7852   7.277   9.639  10.527 -0.0393  0.8069 -0.1423
  818MOL0     C 7853   7.240   9.721  10.415 -0.7821  0.3891  0.3138
  818MOL0     C 7854   7.211   9.865  10.467 -0.0632 -0.0923  0.5621
  818MOL0     C 7855   7.189   9.961  10.347 -0.1128 -0.6542 -0.2629
  818MOL0     C 7856   7.176  10.109  10.397  0.0469  0.1324 -0.5851
  818MOL0     C 7857   7.165  10.192  10.263  0.1897 -0.3150  0.4649
  818MOL0     C 7858   7.202  10.336  10.268  0.3025 -0.5335 -0.4079
  818MOL0     C 7859   7.113  10.421  10.372 -0.3981 -1.5404 -0.4308
  818MOL0     C 7860   7.146  10.571  10.363  0.2073  0.5761 -1.4373
  818MOL0     N 7861   7.109  10.645  10.479  0.2497 -0.9471 -0.2262
  818MOL0     C 7862   7.164  10.633  10.604 -0.5462  0.2341 -0.3104
  818MOL0     C 7863   7.096  10.718  10.684  0.3613  0.8353 -0.1760
  818MOL0     C 7864   7.121  10.739  10.830  0.4763 -0.2397 -0.6063
  818MOL0     C 7865   7.112  10.609  10.919  0.3503  0.6084 -0.4414
  818MOL0     C 7866   7.180  10.659  11.045  0.4339 -0.1186 -0.2262
  818MOL0     C 7867   7.140  10.578  11.165 -0.0560 -0.2629 -0.9254
  818MOL0     O 7868   7.204  10.449  11.154  0.4249 -0.2664 -0.7357
  818MOL0     C 7869   7.193  10.359  11.263  0.4188  0.2506 -0.6264
  818MOL0     C 7870   7.130  10.376  11.382  0.2988 -0.0207  0.5114
  818MOL0     C 7871   7.111  10.270  11.472  0.0543 -0.3744  0.1404
  818MOL0     C 7872   7.157  10.147  11.451 -0.2126  0.4538  0.2530
  818MOL0     C 7873   7.142  10.047  11.554  0.2961  0.0226  1.1336
  818MOL0     O 7874   7.099  10.091  11.680  0.0885  0.0836  0.4393
  818MOL0     C 7875   7.064   9.992  11.766  0.0762  0.2739 -0.0297
  818MOL0     C 7876   7.167   9.932  11.841  0.0870  0.0797  0.8051
  818MOL0     C 7877   7.140   9.839  11.934  0.0580 -0.4942  0.5182
  818MOL0     C 7878   7.011   9.795  11.967 -0.3928  0.6486 -1.3378
  818MOL0     O 7879   6.988   9.709  12.071 -0.1926  0.5673 -0.1956
  818MOL0     C 7880   7.096   9.672  12.154  0.1294  1.1223  0.3013
  818MOL0     C 7881   7.135   9.774  12.257  0.3752 -0.5513  0.4027
  818MOL0     C 7882   7.042   9.780  12.375  0.0188 -0.2276 -1.4271
  818MOL0     C 7883   7.059   9.661  12.472  0.4000 -0.9600 -0.2220
  818MOL0     C 7884   6.912   9.648  12.538 -0.4729  0.2858  0.4179
  818MOL0     C 7885   6.878   9.763  12.633 -0.2816  0.6960 -0.6933
  818MOL0     C 7886   6.769   9.724  12.736  0.1243 -0.5011  0.1870
  818MOL0     C 7887   6.634   9.695  12.670  0.1833 -0.4104  0.3897
  818MOL0    Cl 7888   6.511   9.626  12.792  0.1669 -0.1124 -0.0991
  818MOL0     C 7889   6.904   9.851  11.897 -0.0755  0.1777 -0.6296
  818MOL0     C 7890   6.925   9.953  11.799 -1.8870 -0.2015  0.6452
  818MOL0     O 7891   7.185   9.936  11.519  0.2336 -0.5162 -0.5636
  818MOL0     C 7892   7.229  10.127  11.337  0.0238  0.3239 -0.1430
  818MOL0     C 7893   7.252  10.237  11.247 -0.1998  0.2080  0.0951
  818MOL0     N 7894   7.003  10.785  10.604  0.8199 -0.2575 -0.5621
  818MOL0     N 7895   7.029  10.749  10.482 -0.4303 -1.0571 -0.4137
  818MOL0     C 7896   7.418   9.484  10.381  0.2296  0.4406  0.9877
  818MOL0     C 7897   7.515   9.385  10.360 -0.2939 -0.3908  0.0440
  818MOL0     C 7898   7.900   9.188  10.439 -1.3584 -0.8619  0.3580
  818MOL0     C 7899   7.871   9.055  10.451 -0.2612  0.5276  0.1450
  818MOL0     C 7900   7.967   8.957  10.466 -0.8943 -0.6947 -1.3218
  818MOL0     C 7901   8.102   8.992  10.489  0.9081  0.0208 -0.0083
  818MOL0     O 7902   8.209   8.903  10.504 -0.5772  0.3568 -0.0916
  818MOL0     C 7903   8.185   8.766  10.559  0.6326 -0.3564  0.6165
  818MOL0     C 7904   8.132   8.762  10.703  0.9932 -0.0243 -0.2987
  818MOL0     C 7905   8.208   8.843  10.803 -0.8549  0.3304 -0.4257
  818MOL0     C 7906   8.352   8.777  10.827  0.3095  1.3470 -0.1765
  818MOL0     C 7907   8.333   8.651  10.898 -0.7059 -0.5659  0.7339
  818MOL0     C 7908   8.304   8.545  10.945  0.1392  1.3076 -1.3231
  818MOL0     C 7909   8.137   9.121  10.462 -0.2570  0.3043 -0.0368
  818MOL0     C 7910   8.033   9.218  10.444  0.3779 -0.2232 -0.2070
  818MOL0     H 7911   7.625   9.383  10.681  0.1349  0.1943  0.0427
  818MOL0     H 7912   7.419   9.519  10.718 -0.5583 -0.1568  0.0936
  818MOL0     H 7913   7.158   9.671  10.361  0.3193  2.7729 -3.9773
  818MOL0     H 7914   7.324   9.716  10.346  0.6226 -1.0649  2.0233
  818MOL0     H 7915   7.307   9.897  10.509  1.9361 -0.7748 -3.0967
  818MOL0     H 7916   7.126   9.870  10.536  0.9865 -1.3286  2.0122
  818MOL0     H 7917   7.093   9.939  10.299 -0.6818 -3.4326  1.8736
  818MOL0     H 7918   7.269   9.944  10.275 -1.3256  1.4380 -2.2132
  818MOL0     H 7919   7.091  10.102  10.466  1.1015  0.5808  0.8148
  818MOL0     H 7920   7.259  10.146  10.459  1.0491  3.7430 -3.6794
  818MOL0     H 7921   7.063  10.175  10.228  1.0076 -2.3219 -1.1060
  818MOL0     H 7922   7.227  10.141  10.188 -2.4742 -1.3668 -1.1738
  818MOL0     H 7923   7.190  10.383  10.170  1.0198 -0.8110 -0.6356
  818MOL0     H 7924   7.305  10.333  10.305 -0.5726 -2.5974  2.1022
  818MOL0     H 7925   7.006  10.410  10.349 -1.6453  3.1013  1.9420
  818MOL0     H 7926   7.124  10.382  10.474  0.3533  0.2926  0.2440
  818MOL0     H 7927   7.093  10.615  10.278  3.0438  3.0822 -2.0751
  818MOL0     H 7928   7.254  10.581  10.349  0.0682  2.6373 -1.4219
  818MOL0     H 7929   7.243  10.562  10.627 -0.9067  0.1222  0.5912
  818MOL0     H 7930   7.036  10.799  10.864 -0.4347 -0.0017 -3.1046
  818MOL0     H 7931   7.217  10.791  10.832 -0.9433  2.8218 -2.9110
  818MOL0     H 7932   7.175  10.522  10.896  0.8611  1.1388 -1.0743
  818MOL0     H 7933   7.008  10.582  10.936  0.2085  1.2815 -0.2220
  818MOL0     H 7934   7.289  10.651  11.035  0.4887 -3.2084  1.5532
  818MOL0     H 7935   7.156  10.765  11.061  0.4216 -0.2320  0.5591
  818MOL0     H 7936   7.033  10.559  11.173  0.0458 -0.8164 -0.8542
  818MOL0     H 7937   7.179  10.638  11.248 -0.5944 -0.0955 -0.7875
  818MOL0     H 7938   7.081  10.471  11.400 -2.9895 -1.0978 -1.9425
  818MOL0     H 7939   7.050  10.291  11.560 -0.2308  0.9124 -0.3425
  818MOL0     H 7940   7.272   9.948  11.818 -0.4518  1.6436 -0.8604
  818MOL0     H 7941   7.231   9.798  11.976 -0.6065 -1.9321  0.6079
  818MOL0     H 7942   7.182   9.644  12.092  1.4456  0.5054  2.3031
  818MOL0     H 7943   7.071   9.578  12.205  1.5237  0.5338 -0.0454
  818MOL0     H 7944   7.135   9.877  12.218 -0.4533 -0.7780 -0.2172
  818MOL0     H 7945   7.237   9.750  12.290 -0.3553 -1.7356  1.9070
  818MOL0     H 7946   6.941   9.771  12.334 -0.8807 -1.4488  0.8317
  818MOL0     H 7947   7.045   9.873  12.432  2.4292 -1.0118 -0.1611
  818MOL0     H 7948   7.079   9.563  12.427  1.3736 -0.3852 -1.0749
  818MOL0     H 7949   7.139   9.684  12.543 -0.1518  1.2162 -0.2548
  818MOL0     H 7950   6.923   9.558  12.598 -2.0807  0.2415  0.6997
  818MOL0     H 7951   6.824   9.634  12.474  0.1260  1.5716 -0.7415
  818MOL0     H 7952   6.850   9.857  12.583  0.1425  2.7044  2.5593
  818MOL0     H 7953   6.970   9.796  12.682  1.3396 -0.3537 -2.8633
  818MOL0     H 7954   6.798   9.639  12.798 -0.6398  0.1987  1.5498
  818MOL0     H 7955   6.747   9.811  12.798 -0.7962  0.0020 -0.7973
  818MOL0     H 7956   6.645   9.626  12.586 -1.9640 -0.3391 -0.0127
  818MOL0     H 7957   6.583   9.785  12.633 -0.2215 -0.3788  1.0025
  818MOL0     H 7958   6.800   9.821  11.910 -0.7056  2.1599 -0.6654
  818MOL0     H 7959   6.842  10.004  11.751 -0.9454 -0.0979 -0.9242
  818MOL0     H 7960   7.269  10.028  11.318  1.3419  0.5317  1.3124
  818MOL0     H 7961   7.296  10.206  11.153  2.7902 -1.2492  1.8278
  818MOL0     H 7962   7.375   9.507  10.284  0.9913 -2.1066 -0.0365
  818MOL0     H 7963   7.538   9.331  10.269 -1.2046 -0.1669 -0.3313
  818MOL0     H 7964   7.768   9.026  10.438 -0.0185 -0.0026 -0.6951
  818MOL0     H 7965   7.924   8.857  10.468 -3.8922  0.1830 -6.1890
  818MOL0     H 7966   8.284   8.720  10.567  2.2797  2.9423  1.2906
  818MOL0     H 7967   8.114   8.715  10.494  0.4191 -1.8079  1.9266
  818MOL0     H 7968   8.028   8.792  10.717  1.0178 -0.3956  0.8334
  818MOL0     H 7969   8.116   8.659  10.737 -4.8820  0.6609 -0.0530
  818MOL0     H 7970   8.147   8.854  10.894 -2.4732 -1.0772 -1.2813
  818MOL0     H 7971   8.215   8.948  10.771 -2.7113  1.0734  1.3378
  818MOL0     H 7972   8.397   8.750  10.731 -0.9099  2.4369 -1.0989
  818MOL0     H 7973   8.421   8.836  10.888  0.6482 -1.9803  2.9867
  818MOL0     H 7974   8.269   8.449  10.979  3.2498  0.4412 -0.2249
  818MOL0     H 7975   8.238   9.159  10.452  0.0196 -0.6784 -1.2019
  818MOL0     H 7976   8.068   9.320  10.433 -0.8226  0.5748  2.5152
  819MOL0     O 7977   8.798   5.091   5.735 -0.8525  0.5472 -0.9018
  819MOL0     C 7978   8.759   5.069   5.620  0.5666  0.4361 -0.2481
  819MOL0     O 7979   8.766   4.953   5.554 -0.0761  0.2165  0.4379
  819MOL0     C 7980   8.835   4.848   5.607  0.6351  0.2803 -0.4871
  819MOL0     C 7981   8.765   4.739   5.658  1.1670  0.0560  0.4203
  819MOL0     C 7982   8.830   4.623   5.694 -0.3096  1.2627  0.2466
  819MOL0     C 7983   8.970   4.613   5.686  0.6408 -0.3259 -0.3625
  819MOL0     O 7984   9.046   4.522   5.749  0.1365  1.1330 -0.3482
  819MOL0     C 7985   8.998   4.474   5.882  0.4034  0.1058  0.5513
  819MOL0     C 7986   9.061   4.339   5.919 -0.9172 -0.0826 -0.8166
  819MOL0     C 7987   9.025   4.239   5.811 -0.1188  0.5985  0.3532
  819MOL0     C 7988   9.060   4.101   5.827  0.6407  0.2631  0.3065
  819MOL0     C 7989   8.986   4.029   5.939  0.6865 -0.1323 -0.4671
  819MOL0     C 7990   9.027   3.885   5.934  0.8961  0.4787 -0.2781
  819MOL0     C 7991   9.017   3.801   5.800  0.1938  0.0945  0.2199
  819MOL0     C 7992   8.878   3.813   5.732  0.5488  0.3376  0.5708
  819MOL0     N 7993   8.870   3.704   5.634 -0.2048 -0.7762 -0.1261
  819MOL0     C 7994   8.852   3.720   5.500  1.3129  0.1455  0.3739
  819MOL0     C 7995   8.829   3.592   5.452  0.7806  0.1705 -0.1989
  819MOL0     C 7996   8.779   3.556   5.313  0.0027  0.9308  0.4834
  819MOL0     C 7997   8.632   3.587   5.273 -0.3682 -0.1323 -0.1259
  819MOL0     C 7998   8.538   3.513   5.355  0.0925  0.9380 -0.7699
  819MOL0     C 7999   8.391   3.575   5.354  0.6301 -0.8267  0.2742
  819MOL0     O 8000   8.324   3.534   5.236  0.0782 -0.1315  0.3224
  819MOL0     C 8001   8.197   3.581   5.207  0.8803  0.0668 -0.3659
  819MOL0     C 8002   8.118   3.505   5.119 -0.3859  0.3524  0.1079
  819MOL0     C 8003   8.003   3.556   5.074  0.8847  0.0208 -0.6117
  819MOL0     C 8004   7.948   3.680   5.105 -0.2486 -0.7055 -0.8847
  819MOL0     C 8005   7.827   3.737   5.043  0.5410  1.0168 -0.3584
  819MOL0     O 8006   7.786   3.660   4.930  1.0767 -0.3257 -0.5873
  819MOL0     C 8007   7.680   3.713   4.860 -0.7872 -0.9714 -0.8446
  819MOL0     C 8008   7.585   3.812   4.894 -0.0512  0.5122 -0.0857
  819MOL0     C 8009   7.500   3.854   4.796  0.0028  0.8659  0.0712
  819MOL0     C 8010   7.490   3.801   4.668  0.0364 -0.1876 -0.0424
  819MOL0     O 8011   7.394   3.844   4.589 -0.0714 -0.2198  0.6178
  819MOL0     C 8012   7.296   3.748   4.537 -0.0259 -0.1492 -0.7120
  819MOL0     C 8013   7.214   3.822   4.436  0.3499 -0.6066  0.9732
  819MOL0     C 8014   7.303   3.900   4.332  0.4864  0.0375  1.9288
  819MOL0     C 8015   7.213   3.976   4.240 -0.4025 -0.2259 -0.3168
  819MOL0     C 8016   7.277   4.102   4.178 -0.2649 -0.6326  0.5608
  819MOL0     C 8017   7.423   4.101   4.121 -1.1455 -0.0831  0.0500
  819MOL0     C 8018   7.455   4.230   4.042 -0.6019  0.0509 -0.3658
  819MOL0     C 8019   7.590   4.230   3.975 -0.3142 -1.1461  0.3701
  819MOL0    Cl 8020   7.722   4.262   4.094 -0.0812 -0.0664 -0.1339
  819MOL0     C 8021   7.579   3.704   4.630 -0.2008  0.2653 -1.3333
  819MOL0     C 8022   7.671   3.660   4.731  0.8017 -0.6366 -0.3734
  819MOL0     O 8023   7.786   3.841   5.083 -0.1671 -0.0282  0.0967
  819MOL0     C 8024   8.024   3.746   5.208  0.0513 -0.0309  0.4602
  819MOL0     C 8025   8.147   3.702   5.261 -0.3245  0.1996  0.3093
  819MOL0     N 8026   8.843   3.499   5.556  0.1379 -0.1822  0.2248
  819MOL0     N 8027   8.866   3.573   5.660  0.2175  0.4187 -0.2148
  819MOL0     C 8028   9.032   4.726   5.628  0.2786 -0.2385  0.1258
  819MOL0     C 8029   8.968   4.850   5.590  1.0866  0.3473 -0.3466
  819MOL0     C 8030   8.696   5.183   5.552  0.4849 -0.0837  0.2808
  819MOL0     C 8031   8.747   5.309   5.581  0.2238 -0.4215 -0.6381
  819MOL0     C 8032   8.689   5.417   5.513  0.2901 -0.5725  0.0615
  819MOL0     C 8033   8.589   5.413   5.419 -0.2306 -0.1693 -0.1059
  819MOL0     O 8034   8.541   5.532   5.371  1.1055 -0.4182 -0.0388
  819MOL0     C 8035   8.434   5.538   5.277  0.1775  0.0111  0.2668
  819MOL0     C 8036   8.488   5.515   5.134 -0.4213  0.4735  0.2469
  819MOL0     C 8037   8.616   5.602   5.092  0.9446  1.1597 -0.3361
  819MOL0     C 8038   8.582   5.748   5.088 -0.1439 -0.6573 -1.3941
  819MOL0     C 8039   8.479   5.783   4.995  0.6728 -0.3201  0.0510
  819MOL0     C 8040   8.387   5.818   4.926 -0.2141 -0.7805 -0.8219
  819MOL0     C 8041   8.547   5.285   5.388 -0.3753 -0.4206 -0.9196
  819MOL0     C 8042   8.604   5.171   5.448 -0.0986  0.2177 -0.5497
  819MOL0     H 8043   8.657   4.747   5.667  0.9836  0.1345 -1.3204
  819MOL0     H 8044   8.762   4.545   5.728  0.1861  1.3653  1.5371
  819MOL0     H 8045   8.889   4.461   5.892  0.3171 -2.3596 -2.2100
  819MOL0     H 8046   9.038   4.544   5.955  0.1220 -0.1167  0.9258
  819MOL0     H 8047   9.027   4.311   6.019  1.5169  1.0642  0.4126
  819MOL0     H 8048   9.169   4.328   5.909 -1.1661 -2.4075 -1.7087
  819MOL0     H 8049   9.077   4.268   5.719 -3.1233  0.1353 -1.6357
  819MOL0     H 8050   8.917   4.249   5.797  0.0155  0.4310 -0.8941
  819MOL0     H 8051   9.035   4.049   5.734  1.8228 -1.3141  0.8339
  819MOL0     H 8052   9.169   4.093   5.838  1.2212  2.2979 -2.5748
  819MOL0     H 8053   8.879   4.048   5.929  0.6612  0.3253  0.5367
  819MOL0     H 8054   9.019   4.071   6.035  1.7412 -0.0355 -0.8614
  819MOL0     H 8055   8.969   3.836   6.013 -2.0833  3.0221 -0.7370
  819MOL0     H 8056   9.132   3.888   5.964  0.6930 -1.2919  0.8172
  819MOL0     H 8057   9.099   3.827   5.732 -0.2841 -2.9137 -1.7447
  819MOL0     H 8058   9.034   3.698   5.835 -1.5322 -1.3970 -2.8421
  819MOL0     H 8059   8.881   3.914   5.693 -2.8996  0.9806  1.6514
  819MOL0     H 8060   8.801   3.804   5.809  1.5799 -0.3542  1.5815
  819MOL0     H 8061   8.835   3.814   5.449  1.1641 -0.3662 -0.5460
  819MOL0     H 8062   8.805   3.452   5.292 -1.1183  0.4634  1.3236
  819MOL0     H 8063   8.841   3.609   5.240  0.0607  1.5975  1.0153
  819MOL0     H 8064   8.614   3.549   5.172 -0.1996 -0.3212 -0.0849
  819MOL0     H 8065   8.617   3.696   5.278  1.2263  0.1268 -0.5689
  819MOL0     H 8066   8.528   3.410   5.321  0.6095  1.1555 -1.5967
  819MOL0     H 8067   8.557   3.514   5.462 -2.6581  0.6613 -0.2006
  819MOL0     H 8068   8.406   3.683   5.353 -1.1047 -0.5237 -2.1848
  819MOL0     H 8069   8.332   3.545   5.441  0.2836 -0.2633  0.2357
  819MOL0     H 8070   8.155   3.412   5.076  0.9647  0.2596  1.3946
  819MOL0     H 8071   7.951   3.485   5.011 -1.6679 -1.2541  2.6004
  819MOL0     H 8072   7.574   3.856   4.993 -3.7188 -1.1872  0.4401
  819MOL0     H 8073   7.422   3.928   4.814 -0.4621  1.2228 -2.8777
  819MOL0     H 8074   7.228   3.733   4.621  0.8099  0.9114  0.1832
  819MOL0     H 8075   7.336   3.648   4.518  2.6853  0.4650  1.1310
  819MOL0     H 8076   7.146   3.901   4.470 -1.3741 -2.2032  1.3764
  819MOL0     H 8077   7.139   3.760   4.387 -1.1315  1.6462  0.2135
  819MOL0     H 8078   7.358   3.825   4.275 -0.6456  0.9079 -0.4459
  819MOL0     H 8079   7.367   3.973   4.383 -2.1006  1.9157  2.7303
  819MOL0     H 8080   7.185   3.908   4.159 -1.9982 -1.7877  1.4257
  819MOL0     H 8081   7.113   4.002   4.277 -2.0947 -2.5754 -2.8279
  819MOL0     H 8082   7.271   4.176   4.258  0.5500  0.5510 -0.4277
  819MOL0     H 8083   7.219   4.139   4.093 -0.4916  0.4240  1.1525
  819MOL0     H 8084   7.445   4.023   4.048  1.1529  3.0789 -2.9567
  819MOL0     H 8085   7.497   4.084   4.200  2.6285  2.8175 -2.5144
  819MOL0     H 8086   7.375   4.245   3.968 -1.6192 -2.1455  0.1979
  819MOL0     H 8087   7.447   4.315   4.110  1.1782 -2.5733  3.5081
  819MOL0     H 8088   7.585   4.299   3.890  1.7072 -3.0909 -1.4615
  819MOL0     H 8089   7.614   4.137   3.923  1.7129  0.2553 -1.3906
  819MOL0     H 8090   7.571   3.654   4.534 -0.8789 -1.1918 -0.5579
  819MOL0     H 8091   7.745   3.582   4.715  0.5054 -0.6859 -1.5861
  819MOL0     H 8092   7.984   3.836   5.253  0.4339 -0.0776  0.9044
  819MOL0     H 8093   8.192   3.772   5.330 -0.9763  1.0447 -0.1011
  819MOL0     H 8094   9.139   4.718   5.610  0.2769 -0.4012  0.1797
  819MOL0     H 8095   9.016   4.941   5.555  0.8193  2.0903  3.3083
  819MOL0     H 8096   8.813   5.331   5.664 -0.2980  0.6169 -0.4808
  819MOL0     H 8097   8.719   5.510   5.560  0.4438  0.5247 -2.0810
  819MOL0     H 8098   8.380   5.633   5.277 -1.6780 -0.9741  1.9945
  819MOL0     H 8099   8.354   5.465   5.294 -0.2435  1.0701  3.5287
  819MOL0     H 8100   8.522   5.411   5.135  0.0746  0.6318  1.1140
  819MOL0     H 8101   8.398   5.524   5.073 -1.8751 -0.8412  2.0710
  819MOL0     H 8102   8.652   5.577   4.992  1.5375  4.1397 -0.9662
  819MOL0     H 8103   8.699   5.575   5.158  1.8655 -1.5149 -2.3969
  819MOL0     H 8104   8.538   5.777   5.184  0.9667 -0.9784 -0.7645
  819MOL0     H 8105   8.675   5.801   5.071 -2.0998  4.6828  2.0693
  819MOL0     H 8106   8.329   5.853   4.843  0.9612  2.3549 -0.4616
  819MOL0     H 8107   8.471   5.268   5.312  1.7675 -0.3906 -3.2231
  819MOL0     H 8108   8.589   5.065   5.434 -3.8853  0.0700  2.6952
  820MOL0     O 8109  11.265   9.835   8.574  0.1349 -0.7227 -0.5230
  820MOL0     C 8110  11.235   9.758   8.669  0.4334  1.3421 -0.3470
  820MOL0     O 8111  11.198   9.628   8.650  0.8512  0.4189  0.1292
  820MOL0     C 8112  11.175   9.559   8.524 -0.6826 -0.1074  0.3161
  820MOL0     C 8113  11.204   9.419   8.514 -0.1543 -0.4441  0.1751
  820MOL0     C 8114  11.166   9.364   8.395  0.3318  0.4659  0.5848
  820MOL0     C 8115  11.107   9.425   8.285 -0.6894  1.3697 -0.6005
  820MOL0     O 8116  11.070   9.357   8.163  0.8239 -0.3394 -0.3679
  820MOL0     C 8117  11.104   9.227   8.148 -0.1855  0.2287 -0.1093
  820MOL0     C 8118  11.056   9.172   8.013  0.5369  1.0030  0.4223
  820MOL0     C 8119  10.905   9.178   7.990 -0.4821 -0.5847 -0.4613
  820MOL0     C 8120  10.873   9.102   7.866 -0.1804  0.0730 -0.3587
  820MOL0     C 8121  10.718   9.106   7.845 -0.4508  1.2451  0.2536
  820MOL0     C 8122  10.669   8.979   7.903  0.4430 -0.6803 -0.4295
  820MOL0     C 8123  10.515   9.002   7.925  0.0117 -0.4314 -0.5827
  820MOL0     C 8124  10.442   8.872   7.910 -0.2585  0.4514 -0.5552
  820MOL0     N 8125  10.423   8.822   7.777  0.2673 -0.8978 -0.2192
  820MOL0     C 8126  10.492   8.727   7.703 -0.1871  0.0161  0.2756
  820MOL0     C 8127  10.412   8.718   7.588 -0.3903 -0.4839 -0.6016
  820MOL0     C 8128  10.461   8.637   7.469  0.7733  0.0466 -0.2153
  820MOL0     C 8129  10.335   8.590   7.387  0.7435  0.0105  0.4973
  820MOL0     C 8130  10.363   8.453   7.321  0.1097  0.8587  0.0528
  820MOL0     C 8131  10.274   8.342   7.382 -0.4367 -0.7365 -0.3693
  820MOL0     O 8132  10.138   8.351   7.340 -0.3360 -0.9151 -0.5359
  820MOL0     C 8133  10.040   8.308   7.424 -0.0637 -0.7293  0.0239
  820MOL0     C 8134   9.920   8.376   7.426  0.6778 -0.2459  0.3497
  820MOL0     C 8135   9.817   8.343   7.521  0.4565 -0.0439  0.1034
  820MOL0     C 8136   9.839   8.236   7.619 -0.3052 -0.5821 -0.4862
  820MOL0     C 8137   9.740   8.209   7.725 -0.6261  1.0050 -0.5486
  820MOL0     O 8138   9.614   8.243   7.697 -0.1521 -0.1432 -0.5776
  820MOL0     C 8139   9.516   8.235   7.794 -0.0897  0.6750 -0.3942
  820MOL0     C 8140   9.504   8.126   7.883 -0.4745 -1.1300  0.1855
  820MOL0     C 8141   9.402   8.118   7.980 -0.6744 -0.2201 -0.1149
  820MOL0     C 8142   9.301   8.221   7.989 -0.4775 -0.3720 -0.3068
  820MOL0     O 8143   9.206   8.228   8.082 -0.1045 -0.4746 -0.1187
  820MOL0     C 8144   9.188   8.119   8.178 -0.2264  0.4915  0.6282
  820MOL0     C 8145   9.070   8.132   8.266  0.2007  0.3555 -1.4323
  820MOL0     C 8146   8.932   8.133   8.188 -0.3657 -0.0514 -0.1890
  820MOL0     C 8147   8.801   8.134   8.267  0.0656  0.2328 -0.5341
  820MOL0     C 8148   8.693   8.131   8.160  0.1639  0.7752  0.0005
  820MOL0     C 8149   8.571   8.209   8.203  0.0431 -0.4120  0.1151
  820MOL0     C 8150   8.486   8.229   8.079  0.8297 -0.6512  0.0638
  820MOL0     C 8151   8.378   8.339   8.106 -0.4475  1.5500 -0.2061
  820MOL0    Cl 8152   8.251   8.359   7.978 -0.3832  0.0527  0.0264
  820MOL0     C 8153   9.302   8.324   7.892  0.2450  0.2072  0.6566
  820MOL0     C 8154   9.397   8.322   7.791  0.0893  0.3938 -0.2582
  820MOL0     O 8155   9.783   8.142   7.822  0.8505 -0.2599 -0.5874
  820MOL0     C 8156   9.959   8.169   7.608 -0.3767  0.3081 -0.9902
  820MOL0     C 8157  10.055   8.199   7.512  1.0322  0.0135  0.6472
  820MOL0     N 8158  10.302   8.801   7.592 -0.2657 -0.0116 -0.6248
  820MOL0     N 8159  10.312   8.850   7.709  0.0616 -0.0751 -0.2445
  820MOL0     C 8160  11.091   9.559   8.298  0.3822  0.2977  1.1174
  820MOL0     C 8161  11.118   9.626   8.418 -0.4989 -0.1678  0.2594
  820MOL0     C 8162  11.252   9.814   8.807 -0.7258 -0.1758 -0.2006
  820MOL0     C 8163  11.266   9.727   8.912 -0.1825 -0.4189  0.2770
  820MOL0     C 8164  11.287   9.778   9.042  0.3088 -0.7896  0.1862
  820MOL0     C 8165  11.270   9.915   9.067 -0.8351  0.2561  0.0102
  820MOL0     O 8166  11.292   9.966   9.196  0.2801 -0.7765  0.1136
  820MOL0     C 8167  11.350   9.897   9.299  0.8206  0.7576 -0.5198
  820MOL0     C 8168  11.381   9.991   9.421  0.0682  1.0302  0.5036
  820MOL0     C 8169  11.258  10.032   9.490  0.2278  0.5211  1.2965
  820MOL0     C 8170  11.288  10.108   9.621 -0.6643 -0.3562  0.1854
  820MOL0     C 8171  11.346  10.018   9.724 -0.3411  0.5976  0.1281
  820MOL0     C 8172  11.385   9.940   9.805  0.5851  1.1043  0.2392
  820MOL0     C 8173  11.247  10.000   8.959 -0.8425 -0.0310 -0.5622
  820MOL0     C 8174  11.245   9.951   8.830 -0.6232 -0.1205 -0.6372
  820MOL0     H 8175  11.254   9.358   8.588 -1.3821 -0.2346  1.2276
  820MOL0     H 8176  11.181   9.257   8.381 -2.6369  0.3903 -4.3972
  820MOL0     H 8177  11.035   9.187   8.223 -2.3643  0.1164 -2.0391
  820MOL0     H 8178  11.210   9.208   8.168 -0.4448 -1.1459  0.1097
  820MOL0     H 8179  11.080   9.066   8.001  0.4560  1.0299  0.0265
  820MOL0     H 8180  11.111   9.220   7.931 -0.4802  1.3202 -0.0880
  820MOL0     H 8181  10.881   9.283   7.970  2.2123 -0.0798 -1.4937
  820MOL0     H 8182  10.857   9.141   8.081 -2.5851  1.6011 -0.5782
  820MOL0     H 8183  10.916   9.151   7.778  2.1313 -0.8555  0.1607
  820MOL0     H 8184  10.918   9.002   7.868 -0.0843  0.1083 -0.7056
  820MOL0     H 8185  10.697   9.126   7.740 -1.4899 -0.0122  0.1971
  820MOL0     H 8186  10.685   9.186   7.912  0.9161 -1.0864  4.0649
  820MOL0     H 8187  10.722   8.958   7.996  3.0013  3.8416 -0.6011
  820MOL0     H 8188  10.682   8.898   7.831 -1.1142 -1.5957  0.2554
  820MOL0     H 8189  10.496   9.052   8.021  0.2821 -2.0440  0.3442
  820MOL0     H 8190  10.462   9.065   7.853 -2.4488 -0.2785  1.1993
  820MOL0     H 8191  10.343   8.901   7.947  0.8209  1.6290  1.6210
  820MOL0     H 8192  10.478   8.796   7.981 -5.7109 -1.7980  0.2882
  820MOL0     H 8193  10.589   8.678   7.709  0.6291  1.2903 -1.6414
  820MOL0     H 8194  10.516   8.552   7.509  2.9824 -0.3695 -3.6750
  820MOL0     H 8195  10.530   8.696   7.407  0.9228  1.5207  1.2908
  820MOL0     H 8196  10.329   8.673   7.316  0.0075  0.7545  1.3951
  820MOL0     H 8197  10.246   8.590   7.451 -0.2778  1.3999 -0.8525
  820MOL0     H 8198  10.323   8.460   7.219  1.3838  0.0392 -0.5321
  820MOL0     H 8199  10.472   8.442   7.316  0.6294  4.0375  1.7039
  820MOL0     H 8200  10.281   8.340   7.491 -0.6960 -3.2821 -0.3173
  820MOL0     H 8201  10.314   8.243   7.359 -3.0110 -2.6029  2.3142
  820MOL0     H 8202   9.895   8.455   7.356 -1.6471 -1.5877 -0.4422
  820MOL0     H 8203   9.729   8.407   7.526  0.3038 -0.1897 -0.5015
  820MOL0     H 8204   9.580   8.049   7.894 -0.5752 -1.0800  1.2842
  820MOL0     H 8205   9.397   8.041   8.056 -0.1448 -0.2305 -0.0898
  820MOL0     H 8206   9.277   8.114   8.242  0.6720  0.4616 -0.6017
  820MOL0     H 8207   9.164   8.027   8.124 -3.1389  0.5704  1.6242
  820MOL0     H 8208   9.088   8.225   8.320  1.5962 -1.1790  0.9479
  820MOL0     H 8209   9.075   8.055   8.345  0.2478  2.5775  0.8712
  820MOL0     H 8210   8.934   8.045   8.123  0.1909  0.2782 -0.6264
  820MOL0     H 8211   8.934   8.224   8.127 -1.2169 -0.9405 -1.6223
  820MOL0     H 8212   8.806   8.054   8.341  0.5148  0.3402 -0.4512
  820MOL0     H 8213   8.793   8.224   8.329 -1.8165  0.3348 -0.8624
  820MOL0     H 8214   8.669   8.030   8.126 -3.9124  2.4898 -3.0920
  820MOL0     H 8215   8.724   8.188   8.072  0.2414  0.1749 -0.3661
  820MOL0     H 8216   8.591   8.304   8.254 -0.9040 -0.9601  1.6002
  820MOL0     H 8217   8.512   8.159   8.281 -0.2021 -1.7703 -0.9025
  820MOL0     H 8218   8.549   8.254   7.994  4.0453 -1.7791  1.9227
  820MOL0     H 8219   8.442   8.131   8.058 -0.3117 -0.3735  1.0497
  820MOL0     H 8220   8.430   8.434   8.094 -0.7036  1.5660 -1.3799
  820MOL0     H 8221   8.339   8.331   8.208  0.7038  3.5692  0.4290
  820MOL0     H 8222   9.242   8.411   7.916 -0.8405 -0.4509  0.4050
  820MOL0     H 8223   9.400   8.388   7.706 -1.8859  1.7063  0.6141
  820MOL0     H 8224   9.979   8.093   7.682  0.0805  2.1159  0.8569
  820MOL0     H 8225  10.147   8.141   7.516  0.2417 -1.2733  0.9659
  820MOL0     H 8226  11.040   9.611   8.218 -1.6930 -0.1425  2.0824
  820MOL0     H 8227  11.095   9.731   8.427  0.0692  0.1826 -1.7800
  820MOL0     H 8228  11.283   9.622   8.891 -3.1276 -1.1022  0.7989
  820MOL0     H 8229  11.315   9.707   9.120  2.0395 -0.7738 -0.3804
  820MOL0     H 8230  11.441   9.843   9.271  0.4643 -1.3514  1.9864
  820MOL0     H 8231  11.270   9.830   9.333 -0.9147  2.9896  0.0678
  820MOL0     H 8232  11.422   9.912   9.486 -0.7583 -0.6108 -0.8908
  820MOL0     H 8233  11.447  10.074   9.395  2.3093 -0.0633  2.2693
  820MOL0     H 8234  11.192   9.949   9.515 -1.0910  1.0428 -0.3204
  820MOL0     H 8235  11.211  10.098   9.417  2.6421 -1.3542 -2.2896
  820MOL0     H 8236  11.361  10.185   9.592 -1.1748  0.4302  0.9221
  820MOL0     H 8237  11.189  10.139   9.657 -1.7562 -2.0502 -1.2179
  820MOL0     H 8238  11.422   9.883   9.888 -0.3450  4.5473  3.2721
  820MOL0     H 8239  11.245  10.107   8.974 -0.1433 -0.2210  1.2681
  820MOL0     H 8240  11.216  10.017   8.748 -1.3961 -2.9833 -2.8471
  821MOL0     O 8241   0.072   7.263   5.020 -0.4914  0.1460  0.1994
  821MOL0     C 8242   0.076   7.218   5.134  0.0969 -0.1185 -0.0477
  821MOL0     O 8243   0.170   7.138   5.189  0.7663 -0.2248 -0.7123
  821MOL0     C 8244   0.293   7.121   5.134  0.3483  0.0719  1.0350
  821MOL0     C 8245   0.361   7.000   5.137  0.1887 -0.8621  0.4304
  821MOL0     C 8246   0.487   6.986   5.101  0.0097 -0.6005  0.3625
  821MOL0     C 8247   0.563   7.098   5.049  0.4092  1.1041  0.3740
  821MOL0     O 8248   0.693   7.084   5.003  0.4362  0.5684 -1.0425
  821MOL0     C 8249   0.786   7.099   5.109 -0.2346  0.3701  0.3277
  821MOL0     C 8250   0.920   7.165   5.074  0.5333 -0.4441 -1.0673
  821MOL0     C 8251   1.022   7.149   5.187  1.0664  0.0866 -0.0923
  821MOL0     C 8252   1.147   7.224   5.170 -0.0483  0.9165 -0.5035
  821MOL0     C 8253   1.243   7.202   5.293 -0.5173  0.3979  0.0988
  821MOL0     C 8254   1.368   7.274   5.265  0.2325  0.2558  0.4231
  821MOL0     C 8255   1.450   7.304   5.390  0.0069  0.1364 -0.7371
  821MOL0     C 8256   1.497   7.192   5.471 -0.0378  0.5617  0.2518
  821MOL0     N 8257   1.385   7.145   5.555  0.0857  0.3240 -0.5546
  821MOL0     C 8258   1.338   7.018   5.546 -0.1695 -0.4350  0.6992
  821MOL0     C 8259   1.245   7.004   5.638  1.7623 -0.4264 -0.2413
  821MOL0     C 8260   1.152   6.889   5.656  0.5654  1.0068 -0.2028
  821MOL0     C 8261   1.021   6.891   5.566 -0.3408  0.2252 -0.5728
  821MOL0     C 8262   0.926   6.775   5.593 -0.7923  0.6274 -0.3062
  821MOL0     C 8263   0.872   6.789   5.736  0.5237 -0.6780  0.2515
  821MOL0     O 8264   0.784   6.677   5.762 -0.3401  0.2915  0.2420
  821MOL0     C 8265   0.842   6.571   5.822 -0.8148  0.0471 -0.7740
  821MOL0     C 8266   0.867   6.458   5.743 -0.4581 -0.1750 -0.8167
  821MOL0     C 8267   0.923   6.349   5.805  0.0132  0.7097 -0.3196
  821MOL0     C 8268   0.974   6.353   5.940  0.0144  0.0582  1.1803
  821MOL0     C 8269   1.046   6.229   5.987 -0.0217  0.3143  0.7351
  821MOL0     O 8270   1.071   6.129   5.889  0.2713  0.1828  1.2448
  821MOL0     C 8271   1.113   6.004   5.919  0.4471  0.2176  0.4961
  821MOL0     C 8272   1.184   5.935   5.822 -0.0461 -0.7651  0.7737
  821MOL0     C 8273   1.225   5.796   5.842  0.6509 -1.2712  0.1659
  821MOL0     C 8274   1.190   5.733   5.958 -0.6305  0.6710  0.0707
  821MOL0     O 8275   1.202   5.593   5.985  0.5537  0.1266  0.6749
  821MOL0     C 8276   1.334   5.547   5.951 -0.0850 -0.2960  0.3630
  821MOL0     C 8277   1.374   5.435   6.044 -0.2714  0.1202  0.1264
  821MOL0     C 8278   1.293   5.311   6.021  0.6274  0.6732  0.2865
  821MOL0     C 8279   1.265   5.243   6.154 -0.7561  0.5597 -0.3574
  821MOL0     C 8280   1.177   5.120   6.126  0.2827  0.1105 -1.2477
  821MOL0     C 8281   1.024   5.166   6.100  0.3464 -0.2270  0.1106
  821MOL0     C 8282   0.959   5.049   6.032 -0.2344  0.0296 -0.6227
  821MOL0     C 8283   0.809   5.076   5.996  0.4746 -0.2009 -0.1361
  821MOL0    Cl 8284   0.727   4.928   5.971  0.5766  0.0740 -0.2222
  821MOL0     C 8285   1.113   5.796   6.058  0.0541  0.5096  0.2350
  821MOL0     C 8286   1.078   5.934   6.041  0.7578  0.8765  0.0179
  821MOL0     O 8287   1.090   6.223   6.101 -0.4528  0.2173  0.4290
  821MOL0     C 8288   0.950   6.461   6.020  0.2354  0.2625 -1.0215
  821MOL0     C 8289   0.890   6.575   5.957  0.5509 -0.7900 -0.1678
  821MOL0     N 8290   1.234   7.115   5.702  0.1634  0.1603  0.4401
  821MOL0     N 8291   1.328   7.201   5.671  0.2424  0.5470  0.3134
  821MOL0     C 8292   0.495   7.216   5.027 -0.2620  0.1525 -0.7651
  821MOL0     C 8293   0.366   7.228   5.073  0.6248  0.1678  0.1916
  821MOL0     C 8294  -0.040   7.245   5.216  0.5902  0.3688 -0.9646
  821MOL0     C 8295  -0.018   7.256   5.354 -0.4302  0.5608 -0.1521
  821MOL0     C 8296  -0.116   7.316   5.437 -0.3837 -0.7206  0.0408
  821MOL0     C 8297  -0.241   7.359   5.388  0.5660 -0.1838 -0.0322
  821MOL0     O 8298  -0.331   7.401   5.477 -0.1306  0.8229 -0.4696
  821MOL0     C 8299  -0.417   7.499   5.435  1.8871  0.5038  0.4587
  821MOL0     C 8300  -0.460   7.560   5.574  0.1069  0.3411  0.0113
  821MOL0     C 8301  -0.591   7.634   5.554 -0.3527 -0.4235 -0.6416
  821MOL0     C 8302  -0.600   7.765   5.635  0.4239 -0.6351 -0.7954
  821MOL0     C 8303  -0.661   7.728   5.763  0.1229 -0.9150  0.4460
  821MOL0     C 8304  -0.705   7.715   5.871  0.0777  0.5169 -0.4523
  821MOL0     C 8305  -0.264   7.333   5.254  0.0282 -0.4247  0.9172
  821MOL0     C 8306  -0.163   7.291   5.169 -0.0181 -0.3673  0.5063
  821MOL0     H 8307   0.308   6.912   5.175  0.4409 -1.1476  0.1249
  821MOL0     H 8308   0.541   6.892   5.094 -1.4253 -1.3832 -1.1398
  821MOL0     H 8309   0.807   6.997   5.140 -0.5679  0.6014  1.3643
  821MOL0     H 8310   0.742   7.150   5.195 -3.3701 -1.5764  0.0199
  821MOL0     H 8311   0.896   7.271   5.066  1.5444  0.0359  1.4179
  821MOL0     H 8312   0.957   7.127   4.978  5.0157  0.5259  0.0821
  821MOL0     H 8313   1.038   7.041   5.191 -1.9170 -0.8331 -4.6904
  821MOL0     H 8314   0.992   7.182   5.287  0.9877 -0.1157 -0.0491
  821MOL0     H 8315   1.196   7.189   5.079 -0.6251 -1.8167  0.1402
  821MOL0     H 8316   1.116   7.328   5.164 -0.9070  0.6145 -1.5564
  821MOL0     H 8317   1.268   7.098   5.312 -2.4128  0.0128  0.6459
  821MOL0     H 8318   1.203   7.244   5.386 -0.5652  0.1126  0.2072
  821MOL0     H 8319   1.346   7.375   5.229 -2.5776 -0.0570  1.0090
  821MOL0     H 8320   1.433   7.221   5.195  0.8335  1.0763  0.3483
  821MOL0     H 8321   1.539   7.354   5.350  1.1707 -0.3844  1.0436
  821MOL0     H 8322   1.387   7.369   5.451  0.5794  0.6340 -0.6618
  821MOL0     H 8323   1.578   7.244   5.523  0.9890  0.2890 -1.0053
  821MOL0     H 8324   1.537   7.118   5.401  0.7846  1.3176 -0.0937
  821MOL0     H 8325   1.379   6.944   5.479  2.0044 -0.0399  1.5226
  821MOL0     H 8326   1.138   6.895   5.764  2.9606  2.3959  0.0949
  821MOL0     H 8327   1.206   6.798   5.631  0.4164  1.2282 -1.3784
  821MOL0     H 8328   1.060   6.871   5.466 -1.6168 -0.3523 -0.9759
  821MOL0     H 8329   0.956   6.980   5.572 -2.5521 -0.9657 -3.8435
  821MOL0     H 8330   0.838   6.786   5.529 -0.6955 -1.8137 -0.9531
  821MOL0     H 8331   0.974   6.677   5.582 -1.4384  0.5003 -2.2580
  821MOL0     H 8332   0.812   6.879   5.748  3.0792  1.0262  1.0403
  821MOL0     H 8333   0.946   6.789   5.817 -0.5605 -1.0325  1.2776
  821MOL0     H 8334   0.836   6.451   5.639 -2.0485  0.5445 -0.4220
  821MOL0     H 8335   0.945   6.265   5.740  1.1860  0.3231  0.5443
  821MOL0     H 8336   1.210   5.998   5.737 -1.0618 -2.2541 -0.6890
  821MOL0     H 8337   1.273   5.765   5.749  0.2671  2.5328 -1.4840
  821MOL0     H 8338   1.404   5.630   5.963  0.3232 -0.7659  1.3712
  821MOL0     H 8339   1.338   5.522   5.845 -2.2028  1.9878 -0.3586
  821MOL0     H 8340   1.360   5.469   6.147 -0.3327  1.4074 -0.2944
  821MOL0     H 8341   1.477   5.400   6.039 -1.2512 -3.5030  1.7177
  821MOL0     H 8342   1.345   5.236   5.961  1.9087  2.5506 -1.0737
  821MOL0     H 8343   1.195   5.331   5.976 -0.4462 -1.6677  1.4270
  821MOL0     H 8344   1.361   5.208   6.193 -0.7968 -0.1605 -0.8872
  821MOL0     H 8345   1.219   5.304   6.233  1.4488 -1.5250  2.7692
  821MOL0     H 8346   1.188   5.050   6.210 -2.4360 -2.1462 -2.5866
  821MOL0     H 8347   1.225   5.062   6.047  3.0603  0.4878  0.0247
  821MOL0     H 8348   1.024   5.250   6.030  1.7570 -1.5037 -1.5134
  821MOL0     H 8349   0.972   5.198   6.191  0.2417  1.3354 -0.4726
  821MOL0     H 8350   1.013   5.017   5.943  0.4152  0.7392 -0.4910
  821MOL0     H 8351   0.956   4.964   6.101 -0.5291 -2.5989 -3.6580
  821MOL0     H 8352   0.802   5.141   5.908 -1.1569 -0.6101 -0.3474
  821MOL0     H 8353   0.756   5.134   6.072 -2.2815 -1.0883 -1.2418
  821MOL0     H 8354   1.085   5.739   6.145  1.5981  0.3266  0.6471
  821MOL0     H 8355   1.001   5.977   6.105 -1.4928  0.0766 -1.9941
  821MOL0     H 8356   0.968   6.444   6.125 -0.9498 -0.9420 -0.9867
  821MOL0     H 8357   0.869   6.648   6.034  0.7833 -1.9388  1.0341
  821MOL0     H 8358   0.541   7.307   4.990 -2.9503  1.3104 -1.4802
  821MOL0     H 8359   0.320   7.327   5.065 -0.7325 -0.4758 -0.2636
  821MOL0     H 8360   0.070   7.213   5.399 -1.1449 -2.0090 -1.0584
  821MOL0     H 8361  -0.097   7.326   5.543  0.5348 -0.9828 -0.0952
  821MOL0     H 8362  -0.500   7.445   5.389  0.6240  1.1455  1.9009
  821MOL0     H 8363  -0.383   7.574   5.364  1.1616  1.1046  0.7385
  821MOL0     H 8364  -0.472   7.480   5.647  0.4610  2.6645  2.7867
  821MOL0     H 8365  -0.378   7.623   5.611  1.1656 -0.3285 -1.1067
  821MOL0     H 8366  -0.681   7.576   5.578 -0.4970 -0.0118 -0.1764
  821MOL0     H 8367  -0.592   7.676   5.453 -1.6250  2.9112  0.5960
  821MOL0     H 8368  -0.503   7.811   5.657  0.0349 -0.9273  1.9101
  821MOL0     H 8369  -0.675   7.826   5.584  1.5969  0.2749 -1.5055
  821MOL0     H 8370  -0.738   7.724   5.973 -0.4539  1.0245 -0.6631
  821MOL0     H 8371  -0.363   7.360   5.219 -0.5224 -0.8427  2.1200
  821MOL0     H 8372  -0.194   7.279   5.065 -0.2398 -3.8897  0.8482
  822MOL0     O 8373   5.864   5.587  10.514  0.7530  0.3251 -0.3954
  822MOL0     C 8374   5.835   5.585  10.636  1.7047  0.2799  0.6717
  822MOL0     O 8375   5.790   5.481  10.704  0.5820 -0.4813  0.5833
  822MOL0     C 8376   5.796   5.351  10.659  0.1472 -0.2366 -0.3915
  822MOL0     C 8377   5.909   5.305  10.584 -0.1461  0.5845  0.2810
  822MOL0     C 8378   5.904   5.166  10.554 -0.7150  0.7661 -0.9256
  822MOL0     C 8379   5.807   5.082  10.608  0.7794  0.5840 -0.4417
  822MOL0     O 8380   5.809   4.948  10.568  0.0827 -0.7853  0.2100
  822MOL0     C 8381   5.694   4.866  10.573 -0.4032  0.8227  1.0813
  822MOL0     C 8382   5.700   4.742  10.484  0.1787 -0.8239 -0.5205
  822MOL0     C 8383   5.562   4.667  10.470  0.7111 -0.0720  1.2276
  822MOL0     C 8384   5.522   4.585  10.587  0.8278 -0.1800 -0.8483
  822MOL0     C 8385   5.381   4.520  10.562  0.3243  0.9145  0.4545
  822MOL0     C 8386   5.328   4.425  10.663 -0.0321  1.4023  0.5563
  822MOL0     C 8387   5.273   4.493  10.794 -0.2627 -0.4291  0.0192
  822MOL0     C 8388   5.232   4.397  10.903 -0.0817  0.3824  0.7736
  822MOL0     N 8389   5.215   4.455  11.039 -0.1295 -1.2645 -0.4763
  822MOL0     C 8390   5.318   4.495  11.113 -0.4604 -0.4720  0.0361
  822MOL0     C 8391   5.257   4.542  11.223  0.4890  0.5527  0.0386
  822MOL0     C 8392   5.340   4.600  11.341  0.3671 -0.5047  1.2090
  822MOL0     C 8393   5.420   4.492  11.410 -0.3702  0.0622 -0.3703
  822MOL0     C 8394   5.510   4.531  11.530 -0.3846  1.0178 -0.0311
  822MOL0     C 8395   5.568   4.406  11.597 -0.4800  0.8516 -0.5493
  822MOL0     O 8396   5.663   4.341  11.508  0.0072 -0.3801  0.2059
  822MOL0     C 8397   5.753   4.266  11.567 -0.9233  0.6834  0.0173
  822MOL0     C 8398   5.893   4.289  11.546 -0.6845 -0.0144 -0.0751
  822MOL0     C 8399   5.997   4.211  11.604  0.2271 -0.0894  0.3924
  822MOL0     C 8400   5.963   4.098  11.686  0.2159 -0.0048  0.2613
  822MOL0     C 8401   6.059   4.016  11.755 -0.6538  0.1521  0.0050
  822MOL0     O 8402   6.185   4.055  11.751  0.8299  1.1894  0.1524
  822MOL0     C 8403   6.292   3.971  11.789  0.5555 -0.5370  1.3651
  822MOL0     C 8404   6.391   3.940  11.697  0.3068  0.1013  0.0954
  822MOL0     C 8405   6.504   3.870  11.738  0.3278  1.2668  0.0963
  822MOL0     C 8406   6.508   3.822  11.872  0.2788  0.1242 -0.9223
  822MOL0     O 8407   6.606   3.754  11.933 -0.8366 -0.7959  0.7684
  822MOL0     C 8408   6.734   3.796  11.897 -0.9006 -0.1134  0.4044
  822MOL0     C 8409   6.839   3.728  11.978 -0.7007  0.1881  0.9500
  822MOL0     C 8410   6.860   3.586  11.934 -0.4965  0.0866  0.3729
  822MOL0     C 8411   6.846   3.535  11.787  0.1193 -0.7526  0.3449
  822MOL0     C 8412   6.954   3.573  11.695  0.4037 -0.2026 -0.6821
  822MOL0     C 8413   6.933   3.557  11.545  0.3879 -0.6362  1.1016
  822MOL0     C 8414   6.812   3.649  11.484  0.2873  0.0891  0.4297
  822MOL0     C 8415   6.795   3.619  11.334  0.0095 -0.4289 -0.1881
  822MOL0    Cl 8416   6.740   3.452  11.321 -0.2374 -0.4211 -0.2431
  822MOL0     C 8417   6.400   3.852  11.953 -0.0503 -0.3686  0.3490
  822MOL0     C 8418   6.298   3.930  11.913  0.7421  0.4025  0.2484
  822MOL0     O 8419   6.018   3.921  11.821  0.6685 -0.5199 -0.7203
  822MOL0     C 8420   5.829   4.091  11.715  0.2921  0.1864 -0.6005
  822MOL0     C 8421   5.722   4.162  11.661 -0.0602  0.7341  0.5006
  822MOL0     N 8422   5.124   4.512  11.221 -0.4522  0.5929  0.5820
  822MOL0     N 8423   5.095   4.466  11.108  0.2492  0.8749 -0.7112
  822MOL0     C 8424   5.702   5.141  10.676  0.6958 -0.3762  0.5840
  822MOL0     C 8425   5.693   5.281  10.696 -0.1445  0.2426 -0.5698
  822MOL0     C 8426   5.847   5.712  10.718 -0.3435 -0.1777  0.4364
  822MOL0     C 8427   5.855   5.831  10.646  0.0059  1.3687 -0.1838
  822MOL0     C 8428   5.837   5.955  10.707 -0.0516 -0.3409 -0.4987
  822MOL0     C 8429   5.825   5.962  10.845  0.7835  0.5959 -0.1466
  822MOL0     O 8430   5.820   6.076  10.922 -0.4001  0.3811 -0.6297
  822MOL0     C 8431   5.792   6.195  10.865 -0.4746  0.3306  0.5705
  822MOL0     C 8432   5.767   6.311  10.959 -0.5928 -0.1236  0.1018
  822MOL0     C 8433   5.670   6.281  11.075 -0.3273  0.3646  0.5980
  822MOL0     C 8434   5.525   6.239  11.019  0.0847  0.1486 -1.5380
  822MOL0     C 8435   5.459   6.170  11.127 -0.8889  0.1040  0.5874
  822MOL0     C 8436   5.406   6.102  11.205  0.6043 -0.5378  0.0808
  822MOL0     C 8437   5.826   5.840  10.925 -0.2652 -1.9977  0.5633
  822MOL0     C 8438   5.837   5.719  10.856  1.1098  0.1412  0.7947
  822MOL0     H 8439   5.988   5.376  10.560 -0.1226  1.3017  2.2992
  822MOL0     H 8440   5.983   5.122  10.495  0.4900 -0.1082  1.2074
  822MOL0     H 8441   5.611   4.921  10.528  0.3781 -0.6762 -2.6204
  822MOL0     H 8442   5.665   4.838  10.675  0.2616 -1.9042  0.6219
  822MOL0     H 8443   5.778   4.679  10.528 -0.7828 -1.7062 -0.0367
  822MOL0     H 8444   5.732   4.770  10.383 -0.8968  3.2564  0.1065
  822MOL0     H 8445   5.560   4.597  10.385 -2.5191  0.7642  0.4531
  822MOL0     H 8446   5.494   4.750  10.448 -0.8015 -1.1728  1.5850
  822MOL0     H 8447   5.587   4.501  10.612  0.8391 -0.1476 -0.7672
  822MOL0     H 8448   5.516   4.643  10.679 -1.8938  2.4943 -2.5258
  822MOL0     H 8449   5.384   4.463  10.469  3.7532 -1.9539  2.0489
  822MOL0     H 8450   5.304   4.597  10.554 -2.2215 -1.5255  0.1859
  822MOL0     H 8451   5.401   4.350  10.695  0.4167  1.8293  0.5557
  822MOL0     H 8452   5.248   4.379  10.604  1.4136  1.3985 -1.5097
  822MOL0     H 8453   5.348   4.569  10.819 -1.4170  1.2335 -1.3801
  822MOL0     H 8454   5.184   4.551  10.769 -0.4095 -1.3151 -1.5693
  822MOL0     H 8455   5.311   4.323  10.892 -0.9019 -0.1590 -2.5247
  822MOL0     H 8456   5.135   4.354  10.875 -0.6872  2.2005 -0.0244
  822MOL0     H 8457   5.425   4.496  11.096 -0.1409  0.2774  1.9248
  822MOL0     H 8458   5.265   4.641  11.409  0.4128 -0.1823  1.0713
  822MOL0     H 8459   5.407   4.681  11.309  0.6829 -1.5845 -1.0138
  822MOL0     H 8460   5.468   4.415  11.349 -2.7104 -3.1720  1.5429
  822MOL0     H 8461   5.346   4.417  11.440 -1.0001  0.6863 -0.3399
  822MOL0     H 8462   5.592   4.596  11.499  2.3897 -2.4762 -0.7377
  822MOL0     H 8463   5.441   4.571  11.606 -3.4272 -0.8017 -1.6480
  822MOL0     H 8464   5.487   4.335  11.612  2.1484 -1.9117  1.9272
  822MOL0     H 8465   5.611   4.428  11.695  0.9204 -1.6575 -0.5062
  822MOL0     H 8466   5.914   4.376  11.485  0.2936  1.0722  1.7272
  822MOL0     H 8467   6.099   4.246  11.594  0.7245 -1.8001 -1.1756
  822MOL0     H 8468   6.372   3.968  11.593  1.7819  2.3879  0.3488
  822MOL0     H 8469   6.573   3.843  11.659 -0.4534 -1.0808  0.1317
  822MOL0     H 8470   6.747   3.903  11.918  2.0875 -0.3497  0.2263
  822MOL0     H 8471   6.752   3.792  11.789  1.4551 -3.1199  0.7748
  822MOL0     H 8472   6.830   3.729  12.087 -0.0489  0.4290  1.0066
  822MOL0     H 8473   6.927   3.790  11.956 -1.2311  1.3410  1.9605
  822MOL0     H 8474   6.791   3.526  11.995  0.3603  1.2516  2.6080
  822MOL0     H 8475   6.963   3.563  11.963 -0.6770 -0.9455  0.2485
  822MOL0     H 8476   6.827   3.428  11.785 -3.5872 -0.2868  1.9095
  822MOL0     H 8477   6.757   3.579  11.741  1.0304  1.4744  0.5971
  822MOL0     H 8478   7.043   3.517  11.725  0.2591 -0.7702 -1.2984
  822MOL0     H 8479   6.968   3.681  11.709 -1.0988  0.0925 -1.3166
  822MOL0     H 8480   6.903   3.453  11.528 -1.4983  0.2205 -1.6119
  822MOL0     H 8481   7.027   3.572  11.490  0.6891 -3.0839  0.8632
  822MOL0     H 8482   6.715   3.627  11.530  0.1412 -1.3650 -0.5212
  822MOL0     H 8483   6.827   3.756  11.502  2.3473 -0.6730  4.4993
  822MOL0     H 8484   6.886   3.635  11.275  0.8159 -0.9040  0.8792
  822MOL0     H 8485   6.714   3.685  11.302  0.1545  0.1048  0.5208
  822MOL0     H 8486   6.416   3.821  12.056  1.6838  1.3786  0.6682
  822MOL0     H 8487   6.221   3.974  11.975 -0.7212  1.5520 -2.2321
  822MOL0     H 8488   5.802   4.003  11.771  0.0955 -0.1398 -1.2039
  822MOL0     H 8489   5.622   4.123  11.675 -0.2570  0.4612 -1.3357
  822MOL0     H 8490   5.613   5.098  10.723  0.6949 -0.7481  0.2523
  822MOL0     H 8491   5.618   5.311  10.768  0.3978  2.7097 -0.9660
  822MOL0     H 8492   5.879   5.835  10.540  0.7771  0.0123 -0.0808
  822MOL0     H 8493   5.847   6.050  10.655  1.2331 -0.3537 -0.2973
  822MOL0     H 8494   5.710   6.192  10.792  0.8935  2.5371 -1.1734
  822MOL0     H 8495   5.886   6.228  10.819 -0.1239  0.5402  1.4296
  822MOL0     H 8496   5.861   6.349  10.999 -1.1352  1.1924  0.1833
  822MOL0     H 8497   5.720   6.386  10.894  0.9549  2.1116  1.4131
  822MOL0     H 8498   5.663   6.375  11.130 -0.2674  1.7702 -1.6803
  822MOL0     H 8499   5.712   6.202  11.137  0.1836  0.2759  0.1391
  822MOL0     H 8500   5.480   6.336  10.996 -3.7494 -1.5087 -1.7853
  822MOL0     H 8501   5.530   6.179  10.928 -1.6316  0.1802 -1.6916
  822MOL0     H 8502   5.354   6.027  11.261 -2.0169  3.0146  2.8608
  822MOL0     H 8503   5.810   5.854  11.031 -3.7069 -0.6654 -0.0313
  822MOL0     H 8504   5.831   5.623  10.905  3.8801  0.0310  1.0649
  823MOL0     O 8505   9.806   5.705  11.029  0.6664  0.0839  0.2708
  823MOL0     C 8506   9.884   5.613  11.023 -0.5233 -0.3385 -0.5099
  823MOL0     O 8507   9.850   5.484  11.007  0.0049  0.6746  0.3950
  823MOL0     C 8508   9.717   5.440  11.009  0.0908 -0.0797  1.0755
  823MOL0     C 8509   9.618   5.483  11.101  0.1552  0.2773  0.3001
  823MOL0     C 8510   9.482   5.451  11.062  0.5382 -0.2761  0.3578
  823MOL0     C 8511   9.454   5.363  10.964  0.4965  0.1709 -0.4574
  823MOL0     O 8512   9.325   5.317  10.948  0.2244 -0.5053  0.9806
  823MOL0     C 8513   9.274   5.368  10.832  0.4582 -1.0606  0.7656
  823MOL0     C 8514   9.120   5.374  10.832  0.4689  0.4814 -0.3695
  823MOL0     C 8515   9.067   5.418  10.694  0.0200  0.7443 -0.1958
  823MOL0     C 8516   9.086   5.570  10.669 -0.1981 -0.8573  0.6832
  823MOL0     C 8517   9.071   5.610  10.513 -1.2846 -0.2905  0.4410
  823MOL0     C 8518   8.933   5.585  10.454  0.1629  0.3069 -0.0166
  823MOL0     C 8519   8.818   5.684  10.508  0.4183  0.1881 -0.7210
  823MOL0     C 8520   8.684   5.630  10.461  1.0266 -0.0730 -0.8183
  823MOL0     N 8521   8.679   5.624  10.322 -0.5913  0.1605  0.2709
  823MOL0     C 8522   8.602   5.704  10.243  0.3856 -0.0397  0.0153
  823MOL0     C 8523   8.606   5.650  10.116  0.0222  0.6046 -0.7197
  823MOL0     C 8524   8.543   5.694   9.982 -0.4413  0.4937 -0.2824
  823MOL0     C 8525   8.553   5.846   9.963  0.0405 -0.2409  0.5112
  823MOL0     C 8526   8.473   5.874   9.837 -0.1189 -0.2477  0.7771
  823MOL0     C 8527   8.504   6.024   9.800 -0.3262 -0.2781  0.3501
  823MOL0     O 8528   8.645   6.043   9.776  0.8150  1.0953 -0.6168
  823MOL0     C 8529   8.712   6.020   9.656  0.5716  1.6133 -0.7777
  823MOL0     C 8530   8.848   5.996   9.675 -0.2184  0.1448  1.4110
  823MOL0     C 8531   8.932   6.005   9.563  0.4755  0.3320 -0.5101
  823MOL0     C 8532   8.890   6.032   9.434 -0.5802  0.5027 -0.0296
  823MOL0     C 8533   8.988   6.041   9.321  1.0955  0.0320  0.8820
  823MOL0     O 8534   9.112   6.051   9.362 -0.0552 -0.3651 -0.8019
  823MOL0     C 8535   9.210   6.090   9.281 -0.2990  0.3937 -0.1927
  823MOL0     C 8536   9.333   6.016   9.282  0.4113 -0.0202 -0.4622
  823MOL0     C 8537   9.437   6.044   9.191  0.4811  0.7940  0.1086
  823MOL0     C 8538   9.418   6.144   9.097 -0.5822 -0.0068  0.3651
  823MOL0     O 8539   9.512   6.196   9.006 -0.3062  0.2790 -0.3223
  823MOL0     C 8540   9.651   6.145   9.018  0.1233 -0.0609  1.1777
  823MOL0     C 8541   9.749   6.199   8.917  1.1056 -0.1006 -0.5374
  823MOL0     C 8542   9.719   6.140   8.784 -0.7838  0.1953  0.1959
  823MOL0     C 8543   9.734   6.248   8.671  0.2484  0.0520 -0.4494
  823MOL0     C 8544   9.735   6.189   8.530 -0.4890 -0.6088 -0.4966
  823MOL0     C 8545   9.840   6.267   8.456  0.3534  0.6212  0.4218
  823MOL0     C 8546   9.886   6.196   8.332  0.8013 -0.6742  0.2188
  823MOL0     C 8547   9.965   6.280   8.227 -0.8020 -0.2653 -0.9781
  823MOL0    Cl 8548   9.894   6.438   8.190  0.2473 -0.0232 -0.2873
  823MOL0     C 8549   9.290   6.213   9.093 -0.6437 -0.3919 -0.7832
  823MOL0     C 8550   9.193   6.186   9.186  0.5608 -0.5743 -0.0933
  823MOL0     O 8551   8.944   6.030   9.206 -0.3670 -0.8560 -0.5993
  823MOL0     C 8552   8.751   6.038   9.412 -0.2025 -0.2877  0.2912
  823MOL0     C 8553   8.663   6.028   9.527 -0.2177 -0.5865  0.0999
  823MOL0     N 8554   8.684   5.536  10.117 -0.2188 -0.1613 -0.3118
  823MOL0     N 8555   8.718   5.521  10.242  0.2925 -0.4528 -0.5032
  823MOL0     C 8556   9.558   5.313  10.885 -0.8721 -0.7246 -0.0927
  823MOL0     C 8557   9.684   5.361  10.895 -0.1108 -0.8875  0.3949
  823MOL0     C 8558  10.028   5.658  11.014 -0.3860  0.6630  0.7338
  823MOL0     C 8559  10.065   5.785  11.059 -0.3963 -0.3597  0.3600
  823MOL0     C 8560  10.189   5.843  11.043 -0.8930  0.7311  0.7124
  823MOL0     C 8561  10.289   5.771  10.974  0.7194  0.2238  0.0394
  823MOL0     O 8562  10.405   5.831  10.934  0.2747  0.3001  1.4016
  823MOL0     C 8563  10.469   5.930  11.013 -0.1642 -0.5507 -1.1780
  823MOL0     C 8564  10.618   5.942  10.993  0.8530 -0.8323  0.2257
  823MOL0     C 8565  10.666   6.069  11.053  0.2322  0.5041  0.1504
  823MOL0     C 8566  10.814   6.055  11.089  0.1138  0.7239  0.0323
  823MOL0     C 8567  10.908   6.028  10.976  0.7376 -0.5344 -0.6781
  823MOL0     C 8568  10.958   6.023  10.867  0.5779 -1.2016 -0.1023
  823MOL0     C 8569  10.264   5.637  10.944 -0.6951  0.1398 -0.4935
  823MOL0     C 8570  10.134   5.581  10.955  0.9057  0.1277 -0.3610
  823MOL0     H 8571   9.634   5.548  11.186 -2.4567  1.9381 -0.3563
  823MOL0     H 8572   9.407   5.498  11.125  1.7186  1.1447  0.7738
  823MOL0     H 8573   9.303   5.307  10.746 -1.7748  0.6370 -1.3494
  823MOL0     H 8574   9.321   5.462  10.801 -0.8982 -0.6360 -0.0646
  823MOL0     H 8575   9.072   5.434  10.911 -2.5430 -0.3442 -1.4408
  823MOL0     H 8576   9.077   5.278  10.862 -3.1094  2.3132  0.9501
  823MOL0     H 8577   8.959   5.405  10.692 -0.0986  1.7490 -0.7775
  823MOL0     H 8578   9.113   5.365  10.610  0.4608  2.6818 -1.2354
  823MOL0     H 8579   9.021   5.637  10.728 -0.5425  0.8910 -1.5465
  823MOL0     H 8580   9.186   5.601  10.699  0.3205 -2.5286  0.7678
  823MOL0     H 8581   9.150   5.563  10.453 -1.8152  0.3194 -0.7737
  823MOL0     H 8582   9.088   5.716  10.494  1.5930 -0.9770 -1.5967
  823MOL0     H 8583   8.899   5.484  10.480  2.1209 -1.8367 -4.7039
  823MOL0     H 8584   8.945   5.591  10.346 -0.3801  1.3275 -0.0317
  823MOL0     H 8585   8.811   5.702  10.616  2.2980  1.9490 -0.8257
  823MOL0     H 8586   8.830   5.776  10.449 -2.4886 -2.5874 -6.4171
  823MOL0     H 8587   8.606   5.694  10.502  1.4401  0.5641 -1.0221
  823MOL0     H 8588   8.662   5.537  10.515  0.4055  2.5549  3.9666
  823MOL0     H 8589   8.547   5.791  10.277 -0.3930  0.9447 -3.4505
  823MOL0     H 8590   8.438   5.664   9.986  0.4197 -2.9987 -0.3718
  823MOL0     H 8591   8.581   5.637   9.896  0.1082  0.9646 -0.3564
  823MOL0     H 8592   8.658   5.873   9.947  0.4577 -1.6870  0.6518
  823MOL0     H 8593   8.516   5.902  10.050 -1.4737 -0.0884 -0.2071
  823MOL0     H 8594   8.513   5.802   9.765 -0.1445 -2.0014  2.4323
  823MOL0     H 8595   8.365   5.854   9.838  0.0583 -2.0560 -1.9653
  823MOL0     H 8596   8.468   6.079   9.888  1.2010 -3.4863  3.2209
  823MOL0     H 8597   8.451   6.053   9.709  0.5499  3.5390  0.8747
  823MOL0     H 8598   8.888   5.988   9.775  2.0597 -3.8193  0.3837
  823MOL0     H 8599   9.039   5.998   9.582  0.4459 -0.1421 -0.5091
  823MOL0     H 8600   9.355   5.943   9.360 -0.8538 -0.3833 -0.4232
  823MOL0     H 8601   9.527   5.983   9.190  0.3521  0.6107 -0.2026
  823MOL0     H 8602   9.644   6.038   8.996 -1.6068  0.4703 -1.3048
  823MOL0     H 8603   9.704   6.167   9.111  0.9808  2.3518  0.1919
  823MOL0     H 8604   9.849   6.166   8.945 -0.4756 -4.5413  0.6232
  823MOL0     H 8605   9.746   6.309   8.917  2.9906 -0.0216  0.0097
  823MOL0     H 8606   9.632   6.074   8.789 -1.8389  1.4400 -1.0124
  823MOL0     H 8607   9.795   6.065   8.758 -0.9329  0.0757  0.1042
  823MOL0     H 8608   9.666   6.333   8.680 -0.0423 -0.3871  2.3815
  823MOL0     H 8609   9.834   6.285   8.695  0.4891 -1.2253  0.6164
  823MOL0     H 8610   9.634   6.187   8.488 -0.4731  1.9861 -0.8181
  823MOL0     H 8611   9.770   6.085   8.532  2.4044  0.1407 -3.3986
  823MOL0     H 8612   9.929   6.291   8.514 -1.8743  5.0731  2.5305
  823MOL0     H 8613   9.792   6.362   8.432 -0.0267  0.7187  1.4996
  823MOL0     H 8614   9.951   6.115   8.366  2.8211  2.1450  3.7271
  823MOL0     H 8615   9.794   6.167   8.280  0.4975 -0.6825  0.7491
  823MOL0     H 8616   9.978   6.217   8.139  1.4981 -0.2232 -0.7282
  823MOL0     H 8617  10.070   6.294   8.255 -0.6714  0.9937 -1.9752
  823MOL0     H 8618   9.272   6.299   9.029 -0.8926  0.1834  0.0312
  823MOL0     H 8619   9.106   6.250   9.190  2.2698  1.9772 -0.7652
  823MOL0     H 8620   8.712   6.048   9.311 -2.6027 -1.3874  1.0266
  823MOL0     H 8621   8.557   6.030   9.501  0.4369  0.1135 -2.8699
  823MOL0     H 8622   9.544   5.235  10.810  1.3108 -2.8121  1.5200
  823MOL0     H 8623   9.756   5.343  10.815 -1.1793 -0.8482 -0.5940
  823MOL0     H 8624   9.991   5.853  11.102  1.2193  1.9450 -0.2925
  823MOL0     H 8625  10.207   5.947  11.065 -1.7583  1.4596 -1.7564
  823MOL0     H 8626  10.457   5.903  11.118 -1.0357 -0.1911 -1.1762
  823MOL0     H 8627  10.426   6.031  11.010 -2.4886 -1.3030  1.7438
  823MOL0     H 8628  10.664   5.849  11.027  1.6762  0.0189  1.5283
  823MOL0     H 8629  10.640   5.956  10.887  0.1629 -3.3913 -0.3147
  823MOL0     H 8630  10.612   6.095  11.145 -1.2089  0.0137 -0.5298
  823MOL0     H 8631  10.643   6.151  10.986 -1.5367  1.3763  1.7401
  823MOL0     H 8632  10.845   6.141  11.149 -0.1477 -0.7170  2.3676
  823MOL0     H 8633  10.825   5.960  11.143 -2.6373 -1.0155 -2.1576
  823MOL0     H 8634  10.990   6.005  10.767 -1.7802 -2.0179 -0.7676
  823MOL0     H 8635  10.341   5.570  10.908 -2.2892 -1.9630 -0.1282
  823MOL0     H 8636  10.105   5.479  10.933 -1.0767  0.0607  2.1020
  824MOL0     O 8637   4.717   2.688   8.761  0.6702 -0.2748 -0.1326
  824MOL0     C 8638   4.678   2.806   8.760 -0.3595 -0.0369  1.0642
  824MOL0     O 8639   4.555   2.855   8.776  0.6941 -0.2933  0.1062
  824MOL0     C 8640   4.442   2.784   8.821  0.4978  0.9912  0.3016
  824MOL0     C 8641   4.434   2.659   8.875 -0.4875  0.3074  0.2100
  824MOL0     C 8642   4.306   2.605   8.891  0.6520 -0.0922 -0.1109
  824MOL0     C 8643   4.183   2.679   8.871 -0.6848  0.3962  0.6586
  824MOL0     O 8644   4.067   2.616   8.899 -1.1293 -1.0133 -0.3506
  824MOL0     C 8645   3.963   2.698   8.964  0.3705 -0.0033 -1.7958
  824MOL0     C 8646   3.848   2.606   9.001  0.1363 -0.3320 -0.5086
  824MOL0     C 8647   3.786   2.534   8.872  0.2717  0.2817  0.5557
  824MOL0     C 8648   3.687   2.435   8.913  0.4088 -0.0631  0.5962
  824MOL0     C 8649   3.551   2.490   8.937  0.6751 -0.4090  1.0142
  824MOL0     C 8650   3.478   2.507   8.802  0.4913 -0.0129  0.7718
  824MOL0     C 8651   3.336   2.551   8.825  0.9239 -0.3521 -0.1350
  824MOL0     C 8652   3.257   2.482   8.935 -0.2373 -0.1099 -1.1800
  824MOL0     N 8653   3.115   2.507   8.936  0.6788  0.6798 -0.5272
  824MOL0     C 8654   3.014   2.433   8.999  0.3138 -0.4346 -1.3296
  824MOL0     C 8655   2.898   2.464   8.938  0.3352  0.3458 -0.8965
  824MOL0     C 8656   2.758   2.401   8.950 -1.3581  0.4698  0.1464
  824MOL0     C 8657   2.734   2.310   9.068 -0.7593  0.1030 -0.1007
  824MOL0     C 8658   2.593   2.248   9.055 -0.3639 -0.6816 -0.7334
  824MOL0     C 8659   2.571   2.149   9.177  0.6196 -0.5457  0.3703
  824MOL0     O 8660   2.579   2.226   9.306  0.0757 -0.8469 -0.5912
  824MOL0     C 8661   2.592   2.129   9.403  0.1799  1.2094  0.1089
  824MOL0     C 8662   2.719   2.105   9.453  0.2465  0.4740  0.1459
  824MOL0     C 8663   2.742   1.984   9.526  0.3063  0.2677 -0.3811
  824MOL0     C 8664   2.647   1.884   9.546  0.3643  0.9585 -0.2445
  824MOL0     C 8665   2.683   1.757   9.609  0.6808 -0.1909  0.8056
  824MOL0     O 8666   2.799   1.746   9.693 -0.5882 -0.1603 -0.0678
  824MOL0     C 8667   2.804   1.631   9.764  0.0020  0.2709 -0.2753
  824MOL0     C 8668   2.912   1.539   9.749  0.4294 -0.1248 -0.4812
  824MOL0     C 8669   2.918   1.444   9.843  0.0875  0.1024 -0.4569
  824MOL0     C 8670   2.823   1.429   9.943  0.1855 -0.0885 -0.1547
  824MOL0     O 8671   2.828   1.306  10.008  0.0089 -0.2137  0.1048
  824MOL0     C 8672   2.705   1.257  10.055 -0.4076 -0.2290  0.2783
  824MOL0     C 8673   2.722   1.109  10.070 -0.2009  0.0266 -0.5784
  824MOL0     C 8674   2.592   1.032  10.127  0.2141  0.6988 -0.7554
  824MOL0     C 8675   2.535   1.084  10.261 -0.0813 -0.5803 -0.2105
  824MOL0     C 8676   2.404   1.022  10.324  0.3950  0.1129 -0.5435
  824MOL0     C 8677   2.310   1.090  10.422 -0.3239  0.2108 -0.0288
  824MOL0     C 8678   2.358   1.051  10.563  0.0233 -0.8298 -0.4934
  824MOL0     C 8679   2.310   1.146  10.667 -0.3086 -0.8495  0.3234
  824MOL0    Cl 8680   2.127   1.146  10.669  0.2026 -0.0451  0.2866
  824MOL0     C 8681   2.709   1.518   9.950 -0.9798  1.2922  0.7870
  824MOL0     C 8682   2.702   1.623   9.864  0.1238  0.2473 -0.7066
  824MOL0     O 8683   2.627   1.661   9.550 -0.0531  0.3677 -0.0717
  824MOL0     C 8684   2.522   1.911   9.501 -0.1583 -0.1609 -0.3609
  824MOL0     C 8685   2.496   2.033   9.435 -0.2541  0.4796 -0.3502
  824MOL0     N 8686   2.928   2.569   8.847 -0.8464  0.7137  0.0789
  824MOL0     N 8687   3.055   2.595   8.851  0.3361  0.2907  0.1366
  824MOL0     C 8688   4.188   2.813   8.828 -0.1463  0.3306 -0.3873
  824MOL0     C 8689   4.324   2.857   8.797  0.0423 -0.8895  0.4718
  824MOL0     C 8690   4.779   2.908   8.727  0.8210  0.1023 -0.1649
  824MOL0     C 8691   4.910   2.896   8.761  0.2348 -0.0606 -0.7310
  824MOL0     C 8692   4.991   3.009   8.766 -0.1425 -0.3216 -0.4184
  824MOL0     C 8693   4.944   3.131   8.718 -0.6033  0.8808  0.7844
  824MOL0     O 8694   5.023   3.241   8.724 -0.7966  0.5976  0.5973
  824MOL0     C 8695   5.099   3.277   8.842  1.0901  0.3607  0.6735
  824MOL0     C 8696   5.229   3.345   8.799 -0.9216  0.3093 -0.1818
  824MOL0     C 8697   5.210   3.473   8.714  0.1990  0.2824 -0.7434
  824MOL0     C 8698   5.350   3.538   8.670 -0.8834  0.0209  0.0256
  824MOL0     C 8699   5.309   3.632   8.567  0.0344  0.0487 -0.5349
  824MOL0     C 8700   5.290   3.711   8.480  0.2008 -0.8946  0.2896
  824MOL0     C 8701   4.816   3.140   8.659 -0.4770 -1.2495  0.6120
  824MOL0     C 8702   4.737   3.027   8.663 -0.4070 -0.2214 -0.5805
  824MOL0     H 8703   4.519   2.598   8.905 -1.6374 -0.2885  2.5186
  824MOL0     H 8704   4.291   2.509   8.939  2.1642 -0.8340 -1.0779
  824MOL0     H 8705   3.923   2.785   8.911 -2.1353  1.0445  1.4995
  824MOL0     H 8706   4.004   2.738   9.056 -0.3897 -0.1372 -1.3930
  824MOL0     H 8707   3.771   2.657   9.060 -1.1688 -2.3737 -0.3581
  824MOL0     H 8708   3.886   2.532   9.073 -0.1699  0.5255  0.5605
  824MOL0     H 8709   3.866   2.479   8.823 -0.0788  1.4224 -1.3954
  824MOL0     H 8710   3.755   2.609   8.798 -1.6046  2.4028  3.2405
  824MOL0     H 8711   3.686   2.353   8.841 -3.6405 -1.1244  1.5900
  824MOL0     H 8712   3.720   2.386   9.005 -2.0156 -1.2458  0.8964
  824MOL0     H 8713   3.537   2.582   8.994 -2.7085 -1.7489  2.6644
  824MOL0     H 8714   3.499   2.415   8.998  2.7995 -3.1441 -0.3327
  824MOL0     H 8715   3.476   2.414   8.744 -0.4065  0.2048  0.4472
  824MOL0     H 8716   3.524   2.587   8.744 -0.2261  0.3275  0.6660
  824MOL0     H 8717   3.320   2.654   8.856  0.7686 -0.8749  1.5936
  824MOL0     H 8718   3.291   2.520   8.730  1.3006 -0.2898 -0.3392
  824MOL0     H 8719   3.308   2.511   9.027  3.2532  1.7389 -3.4501
  824MOL0     H 8720   3.268   2.373   8.934 -2.5993 -0.6099  3.3613
  824MOL0     H 8721   3.030   2.360   9.078  0.3265  0.8529 -0.0994
  824MOL0     H 8722   2.743   2.340   8.861  0.5668 -2.1223  1.4790
  824MOL0     H 8723   2.688   2.485   8.952  0.3546  1.9714  1.7880
  824MOL0     H 8724   2.759   2.357   9.164 -1.2965  0.6490 -0.2204
  824MOL0     H 8725   2.809   2.231   9.069 -1.2981 -0.4138  0.0184
  824MOL0     H 8726   2.518   2.328   9.061 -0.3261 -0.6295 -0.9577
  824MOL0     H 8727   2.577   2.196   8.960  0.4836  0.7416 -1.7048
  824MOL0     H 8728   2.644   2.068   9.177  0.4463 -0.7043  0.6295
  824MOL0     H 8729   2.471   2.110   9.158 -0.9991  3.1918  0.3301
  824MOL0     H 8730   2.786   2.188   9.435 -1.7050  1.7483 -1.8800
  824MOL0     H 8731   2.840   1.973   9.572  0.7203  0.5730 -1.1772
  824MOL0     H 8732   2.985   1.573   9.675  0.2688 -2.0844 -1.6032
  824MOL0     H 8733   3.001   1.378   9.864 -3.2283 -3.7235  2.1243
  824MOL0     H 8734   2.628   1.287   9.984  2.7294  3.5346 -1.9462
  824MOL0     H 8735   2.675   1.293  10.154 -0.1398  0.0248  0.2684
  824MOL0     H 8736   2.797   1.090  10.148 -2.2289 -0.3488  1.3950
  824MOL0     H 8737   2.753   1.066   9.974 -2.9434 -1.0143 -1.0761
  824MOL0     H 8738   2.603   0.925  10.149 -2.2570  0.5038 -0.1678
  824MOL0     H 8739   2.512   1.041  10.053 -0.8034  0.1266  0.2568
  824MOL0     H 8740   2.611   1.068  10.338 -0.4667 -1.9088 -0.0887
  824MOL0     H 8741   2.520   1.192  10.256 -1.2060 -0.6079  1.4974
  824MOL0     H 8742   2.424   0.923  10.365 -1.2565 -0.0966 -0.1771
  824MOL0     H 8743   2.341   0.998  10.239 -0.7561 -2.8768  1.0139
  824MOL0     H 8744   2.205   1.070  10.401  0.0878  0.5494 -2.7396
  824MOL0     H 8745   2.315   1.198  10.404 -1.3281  0.0558 -1.3352
  824MOL0     H 8746   2.332   0.949  10.591 -0.1749 -0.4584  0.7626
  824MOL0     H 8747   2.466   1.045  10.556  0.1215 -1.3111  1.1557
  824MOL0     H 8748   2.336   1.251  10.650  2.2686 -1.6862 -1.4305
  824MOL0     H 8749   2.353   1.127  10.766  2.0189 -0.6966 -0.6056
  824MOL0     H 8750   2.615   1.498  10.000  1.4984 -0.4601  5.3611
  824MOL0     H 8751   2.618   1.689   9.883 -0.8925 -1.7070  2.2902
  824MOL0     H 8752   2.451   1.830   9.514 -1.3049  0.9253  0.4394
  824MOL0     H 8753   2.404   2.065   9.386  1.8046  2.0052 -3.6125
  824MOL0     H 8754   4.098   2.870   8.807 -1.7170  0.6058  5.3472
  824MOL0     H 8755   4.339   2.956   8.755  1.6200 -1.4242 -0.3150
  824MOL0     H 8756   4.958   2.805   8.797  0.5952  0.9599  1.5464
  824MOL0     H 8757   5.097   3.004   8.789  0.5897  0.6272 -3.1479
  824MOL0     H 8758   5.147   3.190   8.888  0.1562  0.0787  1.1324
  824MOL0     H 8759   5.045   3.330   8.920  0.6574  0.8901  0.0254
  824MOL0     H 8760   5.294   3.368   8.885 -0.0065  2.7304 -1.4097
  824MOL0     H 8761   5.283   3.269   8.742  0.0878 -0.8685  2.2294
  824MOL0     H 8762   5.155   3.543   8.777  2.4876  0.0966  1.6390
  824MOL0     H 8763   5.162   3.436   8.623  1.8399  1.3238 -2.0904
  824MOL0     H 8764   5.405   3.596   8.745 -0.5881  0.3619 -0.4553
  824MOL0     H 8765   5.413   3.458   8.630  1.9855  0.5338  3.0016
  824MOL0     H 8766   5.267   3.772   8.395  1.3351 -2.0123 -0.8730
  824MOL0     H 8767   4.789   3.231   8.608 -2.1347 -1.8752  0.3131
  824MOL0     H 8768   4.630   3.038   8.646 -0.8265  0.8749  2.1923
  825MOL0     O 8769   5.161   5.913   5.035  0.4796 -0.1052 -0.2737
  825MOL0     C 8770   5.070   5.987   5.037 -0.2309  0.0835 -0.9117
  825MOL0     O 8771   5.073   6.105   4.966  0.0135  0.5126  0.4546
  825MOL0     C 8772   5.189   6.140   4.897  0.1411  0.7827 -0.0815
  825MOL0     C 8773   5.180   6.127   4.754 -0.4216 -0.0561 -0.8875
  825MOL0     C 8774   5.281   6.193   4.683  0.4696 -0.2781 -0.5369
  825MOL0     C 8775   5.387   6.252   4.750 -1.0017 -0.4711 -0.0664
  825MOL0     O 8776   5.490   6.327   4.690 -0.0729 -0.5180 -0.0226
  825MOL0     C 8777   5.571   6.256   4.591 -0.6128 -0.3215  1.0925
  825MOL0     C 8778   5.575   6.336   4.464 -0.2988  0.2494 -0.0478
  825MOL0     C 8779   5.641   6.267   4.340 -0.0974 -0.9454  0.3480
  825MOL0     C 8780   5.790   6.309   4.317 -0.6151  0.3336 -0.0440
  825MOL0     C 8781   5.840   6.251   4.193 -0.1046 -0.2675  0.4793
  825MOL0     C 8782   5.817   6.350   4.072  0.4081  0.2065 -0.4052
  825MOL0     C 8783   5.921   6.316   3.967 -0.7169  0.3379  0.8687
  825MOL0     C 8784   6.038   6.411   3.975 -1.1196 -0.5916 -0.2060
  825MOL0     N 8785   6.137   6.380   3.863  0.7799 -0.2328 -0.0450
  825MOL0     C 8786   6.165   6.465   3.754  0.5603 -0.0158 -0.4946
  825MOL0     C 8787   6.246   6.397   3.675 -0.0874  0.7211  0.0478
  825MOL0     C 8788   6.311   6.440   3.550  0.5695  0.5002 -0.6343
  825MOL0     C 8789   6.421   6.353   3.507  0.3941  0.3128  0.1067
  825MOL0     C 8790   6.362   6.232   3.432 -0.2824 -0.1856  0.0536
  825MOL0     C 8791   6.471   6.149   3.358 -0.0804 -0.0564  0.0174
  825MOL0     O 8792   6.562   6.074   3.441 -0.8454  0.6768 -0.1800
  825MOL0     C 8793   6.523   5.954   3.485  0.2708 -0.0432  0.2247
  825MOL0     C 8794   6.486   5.933   3.610  0.9041 -0.9373  0.1656
  825MOL0     C 8795   6.432   5.808   3.649 -0.6576 -0.5374  0.3050
  825MOL0     C 8796   6.424   5.703   3.557  0.7069 -0.2359 -0.5489
  825MOL0     C 8797   6.351   5.577   3.598 -0.2444 -0.2068  0.1766
  825MOL0     O 8798   6.353   5.470   3.505 -0.8597  0.3400 -0.8919
  825MOL0     C 8799   6.281   5.350   3.529  0.1623 -0.2647  0.3649
  825MOL0     C 8800   6.261   5.282   3.647 -0.5478  0.2917 -1.0329
  825MOL0     C 8801   6.186   5.164   3.656  0.3746  0.2100 -1.2660
  825MOL0     C 8802   6.117   5.112   3.547 -0.6156  0.2281  1.1545
  825MOL0     O 8803   6.034   5.009   3.544 -0.4363  0.3996  0.8555
  825MOL0     C 8804   6.016   4.937   3.664  0.1306  0.4327 -0.0718
  825MOL0     C 8805   5.905   5.012   3.759  0.1911  0.8437  0.8879
  825MOL0     C 8806   5.870   4.913   3.868 -0.4682  0.0552 -0.1347
  825MOL0     C 8807   5.755   4.951   3.961 -0.2138 -0.3810 -0.1532
  825MOL0     C 8808   5.794   5.023   4.088 -0.5854  0.7161  0.8300
  825MOL0     C 8809   5.866   4.923   4.181  0.4986 -0.3683  0.0651
  825MOL0     C 8810   5.861   4.966   4.328 -0.2920 -0.1916 -0.5800
  825MOL0     C 8811   5.932   4.868   4.416  1.1514 -0.3319 -0.1372
  825MOL0    Cl 8812   5.921   4.928   4.584 -0.3605 -0.0291 -0.0427
  825MOL0     C 8813   6.135   5.184   3.427 -0.2545 -0.0485 -0.3333
  825MOL0     C 8814   6.207   5.295   3.414 -0.2860  0.2001  0.0295
  825MOL0     O 8815   6.305   5.571   3.710  0.1347  0.1080  0.9199
  825MOL0     C 8816   6.456   5.723   3.423 -0.3211 -0.0544  0.7948
  825MOL0     C 8817   6.503   5.847   3.393 -0.6213 -0.1267  0.2140
  825MOL0     N 8818   6.279   6.279   3.743  0.7260 -0.4233  0.4159
  825MOL0     N 8819   6.218   6.271   3.852 -0.1314 -0.9406  0.4206
  825MOL0     C 8820   5.404   6.223   4.885 -0.0898 -1.0755 -0.1763
  825MOL0     C 8821   5.299   6.178   4.963 -0.4241 -0.6235 -0.2306
  825MOL0     C 8822   4.957   5.947   5.119 -0.4619 -0.4978 -0.9737
  825MOL0     C 8823   4.922   5.814   5.156  0.2404  0.7376 -0.0458
  825MOL0     C 8824   4.802   5.791   5.227  0.9461 -0.8180  0.1920
  825MOL0     C 8825   4.717   5.899   5.265 -0.1717  0.2853  0.6002
  825MOL0     O 8826   4.608   5.886   5.343  0.1947  0.0447  0.5713
  825MOL0     C 8827   4.570   5.775   5.426  0.7677  0.5618  0.6304
  825MOL0     C 8828   4.446   5.815   5.517 -0.6675 -0.5512 -0.2329
  825MOL0     C 8829   4.420   5.711   5.625  0.0605 -0.2335  0.9867
  825MOL0     C 8830   4.391   5.571   5.558 -0.5377 -0.4927 -0.8779
  825MOL0     C 8831   4.343   5.482   5.663  0.2168  0.3756 -0.2039
  825MOL0     C 8832   4.298   5.405   5.755 -0.7923  0.2572  0.0726
  825MOL0     C 8833   4.756   6.026   5.232  0.2297  0.4054 -0.5095
  825MOL0     C 8834   4.870   6.051   5.159  0.1137 -1.2676  0.7432
  825MOL0     H 8835   5.094   6.078   4.711 -0.6087 -0.2060 -0.3544
  825MOL0     H 8836   5.275   6.191   4.575 -1.2707 -2.0698 -0.4764
  825MOL0     H 8837   5.535   6.156   4.565  1.7200 -0.5591 -1.5764
  825MOL0     H 8838   5.675   6.250   4.624 -0.2409  1.8208  0.4667
  825MOL0     H 8839   5.622   6.434   4.479 -0.8056  0.2280  2.0172
  825MOL0     H 8840   5.474   6.355   4.427 -2.3872 -2.1064  3.8126
  825MOL0     H 8841   5.574   6.269   4.254  1.3223 -1.1001 -0.7987
  825MOL0     H 8842   5.625   6.158   4.341 -3.0421 -0.6509 -1.5521
  825MOL0     H 8843   5.797   6.418   4.319  1.9195  0.3424 -2.6868
  825MOL0     H 8844   5.847   6.292   4.409  0.9057  2.6269 -0.4641
  825MOL0     H 8845   5.799   6.150   4.182 -0.1230 -0.1430 -0.6632
  825MOL0     H 8846   5.949   6.241   4.200 -0.0269  0.8172  0.9257
  825MOL0     H 8847   5.814   6.453   4.109 -1.0502 -0.0740  0.3369
  825MOL0     H 8848   5.715   6.329   4.037 -0.8076 -1.4579  3.6037
  825MOL0     H 8849   5.957   6.213   3.977 -2.5002 -0.2114  2.2236
  825MOL0     H 8850   5.888   6.332   3.864  2.3214 -0.6715 -0.3894
  825MOL0     H 8851   6.076   6.384   4.075  1.7560 -0.2521 -1.1013
  825MOL0     H 8852   6.011   6.517   3.975  0.6068  0.1241  4.5812
  825MOL0     H 8853   6.124   6.562   3.731 -1.2516 -0.9851 -1.5889
  825MOL0     H 8854   6.349   6.540   3.570 -1.5322  0.8810  1.9767
  825MOL0     H 8855   6.233   6.458   3.475 -2.3510 -1.1068  1.8150
  825MOL0     H 8856   6.496   6.338   3.586  0.3086 -1.8728 -0.1782
  825MOL0     H 8857   6.486   6.412   3.441  2.5364 -1.0617  0.8678
  825MOL0     H 8858   6.308   6.161   3.497 -1.8323 -2.1372 -3.0812
  825MOL0     H 8859   6.291   6.266   3.356  0.1293 -1.2715 -0.8600
  825MOL0     H 8860   6.526   6.218   3.294 -0.6718  2.0788  1.6822
  825MOL0     H 8861   6.420   6.079   3.291 -0.3260  0.1095  0.0300
  825MOL0     H 8862   6.497   6.007   3.689 -0.2537 -0.5402 -0.0277
  825MOL0     H 8863   6.396   5.797   3.751  1.8103 -3.2131  1.0200
  825MOL0     H 8864   6.312   5.331   3.730 -0.3235  0.3602 -1.2115
  825MOL0     H 8865   6.203   5.121   3.754 -0.0516  0.2686 -1.1631
  825MOL0     H 8866   6.117   4.930   3.706  0.8167  0.0042 -1.7088
  825MOL0     H 8867   5.991   4.833   3.644 -0.4994  0.6056 -0.2121
  825MOL0     H 8868   5.813   5.023   3.701  0.1649  0.4652  0.8563
  825MOL0     H 8869   5.943   5.110   3.790  0.4135  0.7274  0.9871
  825MOL0     H 8870   5.958   4.890   3.928 -0.5402 -0.8577 -0.3663
  825MOL0     H 8871   5.845   4.822   3.814  1.3632  0.9416 -2.6560
  825MOL0     H 8872   5.690   5.019   3.906 -0.7301 -0.5740  0.2105
  825MOL0     H 8873   5.688   4.865   3.971 -0.0394 -0.4056  0.8720
  825MOL0     H 8874   5.696   5.055   4.124 -2.1747 -2.2361 -0.5009
  825MOL0     H 8875   5.860   5.109   4.067  0.7577 -1.0236 -3.1103
  825MOL0     H 8876   5.969   4.902   4.150  0.0785 -0.8556 -1.0277
  825MOL0     H 8877   5.821   4.824   4.174  0.3831 -0.4333  1.3902
  825MOL0     H 8878   5.909   5.063   4.343  1.0962 -0.6102 -2.0202
  825MOL0     H 8879   5.760   4.967   4.370  0.2053 -1.1666  0.7151
  825MOL0     H 8880   6.036   4.850   4.385  0.6708  0.6844 -2.5853
  825MOL0     H 8881   5.886   4.770   4.419  0.1837  0.1259  1.4100
  825MOL0     H 8882   6.093   5.140   3.336  2.1503  0.8771 -1.9722
  825MOL0     H 8883   6.232   5.333   3.315  0.5401 -0.7273 -0.1224
  825MOL0     H 8884   6.443   5.659   3.337 -0.7996  1.1208 -0.0318
  825MOL0     H 8885   6.522   5.862   3.288 -0.4139  0.8328  0.3792
  825MOL0     H 8886   5.502   6.229   4.932 -0.9412 -1.1622  1.6772
  825MOL0     H 8887   5.296   6.181   5.071 -0.5181 -0.7848 -0.2290
  825MOL0     H 8888   4.981   5.732   5.116  1.3787  1.2681  0.4969
  825MOL0     H 8889   4.771   5.689   5.247  0.0568 -1.1832 -2.5873
  825MOL0     H 8890   4.657   5.743   5.485  0.9277 -1.8179 -0.7572
  825MOL0     H 8891   4.547   5.683   5.371 -1.7261  1.5827 -0.1828
  825MOL0     H 8892   4.465   5.917   5.553  0.4170 -0.2094 -1.7274
  825MOL0     H 8893   4.358   5.829   5.454 -1.3891 -0.3490  0.7853
  825MOL0     H 8894   4.341   5.727   5.699 -1.0502  1.7707 -0.5478
  825MOL0     H 8895   4.521   5.702   5.667 -0.7330 -0.6995  2.9208
  825MOL0     H 8896   4.319   5.593   5.478  0.7207 -1.0421 -2.2055
  825MOL0     H 8897   4.469   5.516   5.504 -0.8207  0.7033 -2.5985
  825MOL0     H 8898   4.247   5.327   5.807 -4.0073 -0.6711 -3.9861
  825MOL0     H 8899   4.699   6.110   5.270  0.9947  1.5502 -1.8058
  825MOL0     H 8900   4.889   6.154   5.130  2.0858 -1.8207 -0.0783
  826MOL0     O 8901  10.469   8.824   2.305  0.0896  0.0543 -0.1130
  826MOL0     C 8902  10.444   8.774   2.413 -0.2339 -0.2644 -0.0486
  826MOL0     O 8903  10.469   8.647   2.440  0.5132 -0.1633 -0.8249
  826MOL0     C 8904  10.552   8.569   2.371  0.3426 -0.6647 -0.2718
  826MOL0     C 8905  10.584   8.561   2.227  0.3154 -0.1076  0.2744
  826MOL0     C 8906  10.675   8.466   2.171  0.3396  0.7363  0.2253
  826MOL0     C 8907  10.737   8.370   2.260  0.1130 -0.3698  0.0169
  826MOL0     O 8908  10.821   8.274   2.217  0.0614 -0.0844 -0.4692
  826MOL0     C 8909  10.790   8.216   2.095 -1.0916 -0.3528  0.3676
  826MOL0     C 8910  10.890   8.095   2.087  0.7701 -0.2839 -0.1715
  826MOL0     C 8911  10.892   8.050   1.944 -0.3528 -0.4173  0.2309
  826MOL0     C 8912  10.987   7.924   1.934  0.3903  0.7151 -0.5182
  826MOL0     C 8913  11.134   7.949   1.984  0.5416  0.7068 -0.0598
  826MOL0     C 8914  11.208   8.066   1.921 -0.0821 -0.1583 -0.7298
  826MOL0     C 8915  11.362   8.060   1.939  0.1289  0.1711  0.0627
  826MOL0     C 8916  11.439   8.171   1.870 -0.7648  0.2751 -0.3870
  826MOL0     N 8917  11.428   8.153   1.723  0.5563 -0.6268  0.2895
  826MOL0     C 8918  11.493   8.057   1.644  0.9954 -0.2165  0.1168
  826MOL0     C 8919  11.456   8.085   1.515  0.0934 -0.1423  0.3338
  826MOL0     C 8920  11.484   8.019   1.387 -0.1439  0.5151  1.8375
  826MOL0     C 8921  11.377   7.921   1.337 -0.1489 -0.0191  0.1936
  826MOL0     C 8922  11.404   7.850   1.211  0.0604  0.6302  1.0320
  826MOL0     C 8923  11.429   7.930   1.076  0.6300  0.0513 -0.0074
  826MOL0     O 8924  11.479   7.843   0.988  0.4386  0.3763 -0.2639
  826MOL0     C 8925  11.541   7.879   0.875  0.3848  0.1276  0.4487
  826MOL0     C 8926  11.533   7.784   0.783  0.0481 -0.3652 -0.1051
  826MOL0     C 8927  11.574   7.818   0.652  0.2548 -0.1355  0.1395
  826MOL0     C 8928  11.640   7.937   0.612 -0.1488  1.1974  0.0185
  826MOL0     C 8929  11.704   7.957   0.474  0.7358 -1.2325  0.1088
  826MOL0     O 8930  11.686   7.851   0.386 -0.1722 -0.0024  0.0106
  826MOL0     C 8931  11.775   7.841   0.287 -0.0145  0.2080  0.4698
  826MOL0     C 8932  11.741   7.866   0.154 -0.4961  0.1638 -0.7740
  826MOL0     C 8933  11.838   7.846   0.050  0.6039 -0.5783 -0.0734
  826MOL0     C 8934  11.972   7.822   0.084  0.0676 -0.2646  0.0393
  826MOL0     O 8935  12.073   7.798  -0.009 -0.0608  0.5332 -0.2830
  826MOL0     C 8936  12.040   7.740  -0.135 -0.1441 -0.1010  0.5284
  826MOL0     C 8937  12.140   7.778  -0.237 -0.5636  1.2083 -0.6902
  826MOL0     C 8938  12.120   7.924  -0.276  0.1955  0.1699  1.3487
  826MOL0     C 8939  12.225   7.969  -0.378  0.8796  0.4326 -0.0355
  826MOL0     C 8940  12.186   8.108  -0.431  0.8126 -0.6069  0.7155
  826MOL0     C 8941  12.172   8.223  -0.328 -0.3491 -0.6428 -0.6535
  826MOL0     C 8942  12.153   8.356  -0.402  0.8827 -0.2276  0.5474
  826MOL0     C 8943  12.012   8.366  -0.456  0.3210  0.3002  0.8563
  826MOL0    Cl 8944  11.901   8.421  -0.320 -0.5682 -0.0869 -0.0010
  826MOL0     C 8945  12.005   7.798   0.217 -0.5424  0.0062  0.0120
  826MOL0     C 8946  11.904   7.806   0.317 -0.7751  0.1863  0.6997
  826MOL0     O 8947  11.762   8.066   0.450 -0.8479  0.8627  0.1788
  826MOL0     C 8948  11.650   8.034   0.710 -0.5774 -0.0583 -0.6428
  826MOL0     C 8949  11.585   8.006   0.832  0.1042 -0.1544 -0.1140
  826MOL0     N 8950  11.369   8.199   1.524 -0.1723  1.1885 -0.8250
  826MOL0     N 8951  11.341   8.224   1.646 -0.2861  0.0740  0.2349
  826MOL0     C 8952  10.715   8.386   2.397 -0.9262 -0.6949  1.2172
  826MOL0     C 8953  10.626   8.483   2.450  0.6137  0.5358 -0.4593
  826MOL0     C 8954  10.395   8.868   2.518  0.6054  0.4684  0.7753
  826MOL0     C 8955  10.343   8.998   2.500 -0.8557 -0.1320 -0.7220
  826MOL0     C 8956  10.313   9.077   2.616  0.1462  0.4254 -0.1636
  826MOL0     C 8957  10.325   9.017   2.744  0.2696 -0.3212  0.0232
  826MOL0     O 8958  10.292   9.093   2.856 -0.4705 -0.5830  0.4565
  826MOL0     C 8959  10.262   9.230   2.845 -1.5591 -0.0657 -0.8902
  826MOL0     C 8960  10.302   9.289   2.983 -0.7096 -0.3532 -0.7262
  826MOL0     C 8961  10.450   9.300   3.019 -1.1278  0.2305 -0.3811
  826MOL0     C 8962  10.470   9.386   3.140 -0.9619 -0.6961 -0.0126
  826MOL0     C 8963  10.606   9.364   3.194  0.9102 -0.2507  0.5538
  826MOL0     C 8964  10.707   9.360   3.256 -0.2970  0.1406 -0.7308
  826MOL0     C 8965  10.367   8.889   2.753  0.1536 -0.1333 -0.0360
  826MOL0     C 8966  10.411   8.820   2.646  0.6357  0.6321  0.4277
  826MOL0     H 8967  10.528   8.635   2.170  0.2873 -0.7853 -0.6055
  826MOL0     H 8968  10.682   8.471   2.063 -1.6698  3.4595  0.1160
  826MOL0     H 8969  10.816   8.299   2.030  2.2476 -0.4191  1.4316
  826MOL0     H 8970  10.687   8.183   2.081 -1.3840  0.4285  0.6550
  826MOL0     H 8971  10.852   8.018   2.155 -1.7018  1.5901  0.7521
  826MOL0     H 8972  10.988   8.125   2.123  1.6771 -0.7119 -2.1615
  826MOL0     H 8973  10.920   8.131   1.875 -4.8835  2.5522  1.4047
  826MOL0     H 8974  10.787   8.031   1.921 -0.4855  0.5764 -0.0724
  826MOL0     H 8975  10.945   7.844   1.994  1.6939  0.8882  0.6681
  826MOL0     H 8976  10.982   7.896   1.828 -0.5741  3.5106 -1.3244
  826MOL0     H 8977  11.186   7.854   1.967  0.3088 -0.0127  2.7051
  826MOL0     H 8978  11.137   7.963   2.093 -0.0225  4.7501 -0.4112
  826MOL0     H 8979  11.190   8.167   1.959  2.0767  1.0902 -2.8118
  826MOL0     H 8980  11.179   8.071   1.816  1.7897  3.2500 -1.2154
  826MOL0     H 8981  11.387   8.068   2.046 -2.1884 -0.2447  0.6801
  826MOL0     H 8982  11.398   7.960   1.913  1.0956 -0.0600  2.1006
  826MOL0     H 8983  11.546   8.165   1.892 -0.6664 -0.6979 -1.0316
  826MOL0     H 8984  11.391   8.265   1.899 -0.8750 -0.3091  1.4802
  826MOL0     H 8985  11.567   7.989   1.685  0.8686 -0.4685 -0.0743
  826MOL0     H 8986  11.575   7.960   1.397 -1.3985 -2.0417 -0.4323
  826MOL0     H 8987  11.501   8.097   1.313  0.0503  1.1478  2.5385
  826MOL0     H 8988  11.290   7.982   1.307  0.7540  0.7432 -0.9711
  826MOL0     H 8989  11.359   7.853   1.420 -1.3800  2.0087  1.6982
  826MOL0     H 8990  11.504   7.810   1.230 -0.5579 -0.0387  3.0649
  826MOL0     H 8991  11.334   7.767   1.196 -1.0108  1.8459 -1.3288
  826MOL0     H 8992  11.500   8.012   1.094  2.8744 -2.0859  1.5456
  826MOL0     H 8993  11.331   7.968   1.045 -0.5741  0.7058  4.0496
  826MOL0     H 8994  11.487   7.691   0.816  1.4031 -0.5233  1.4696
  826MOL0     H 8995  11.550   7.735   0.586 -0.1211  2.3113 -3.0257
  826MOL0     H 8996  11.642   7.900   0.123 -2.0244 -0.7644  2.6855
  826MOL0     H 8997  11.802   7.857  -0.052 -1.2437 -0.4284  0.5509
  826MOL0     H 8998  11.942   7.769  -0.176  0.4750  1.5061  0.1064
  826MOL0     H 8999  12.038   7.632  -0.118 -1.2243  0.0653  1.6648
  826MOL0     H 9000  12.122   7.709  -0.321 -4.0394 -0.4203  1.1647
  826MOL0     H 9001  12.242   7.765  -0.202 -0.7534  0.2517 -0.4663
  826MOL0     H 9002  12.118   7.987  -0.186 -0.2964  1.2605  0.5903
  826MOL0     H 9003  12.019   7.920  -0.318  0.6869  1.6792 -0.0952
  826MOL0     H 9004  12.321   7.981  -0.327  0.7161 -2.3110  1.0733
  826MOL0     H 9005  12.235   7.898  -0.460 -0.2220  1.8330 -1.4564
  826MOL0     H 9006  12.086   8.103  -0.477  0.2606  0.8090  1.6616
  826MOL0     H 9007  12.255   8.143  -0.508  3.5600 -4.9821  0.8798
  826MOL0     H 9008  12.259   8.225  -0.261 -0.8436 -1.3845  0.0272
  826MOL0     H 9009  12.080   8.220  -0.269  1.7843 -0.4143  3.0301
  826MOL0     H 9010  12.169   8.442  -0.337  1.7675 -0.2523  0.3693
  826MOL0     H 9011  12.229   8.365  -0.480 -1.9900  0.3856 -2.4472
  826MOL0     H 9012  11.973   8.270  -0.492 -2.2359  0.9119  1.7681
  826MOL0     H 9013  12.020   8.428  -0.545  1.2968 -1.5876 -0.4182
  826MOL0     H 9014  12.108   7.767   0.233  0.0185  1.5959 -0.3693
  826MOL0     H 9015  11.927   7.786   0.422  0.9391  1.5929  0.6473
  826MOL0     H 9016  11.683   8.136   0.691  1.3636 -0.5238 -0.0327
  826MOL0     H 9017  11.578   8.087   0.904 -0.4671 -1.3817  1.2720
  826MOL0     H 9018  10.770   8.333   2.474 -2.7960 -3.0675  1.0479
  826MOL0     H 9019  10.618   8.493   2.557 -2.2149 -1.0501 -0.4296
  826MOL0     H 9020  10.341   9.058   2.409  0.6568  1.9896  0.5597
  826MOL0     H 9021  10.276   9.178   2.603  2.1371  0.9272 -2.5724
  826MOL0     H 9022  10.156   9.241   2.820 -0.6127  2.2816 -4.6050
  826MOL0     H 9023  10.317   9.285   2.768  0.6083 -1.1529 -0.1923
  826MOL0     H 9024  10.262   9.391   2.982 -0.0335 -0.0743 -0.3242
  826MOL0     H 9025  10.258   9.227   3.062 -0.2143  1.0712  0.7271
  826MOL0     H 9026  10.505   9.348   2.937 -2.2588  2.0450 -0.1343
  826MOL0     H 9027  10.481   9.196   3.033 -1.8120  0.2218  1.2831
  826MOL0     H 9028  10.455   9.494   3.129  0.2972 -0.6057 -0.9909
  826MOL0     H 9029  10.414   9.356   3.229  1.2948  2.2563  2.6478
  826MOL0     H 9030  10.798   9.366   3.312 -0.6402  0.5822 -0.2102
  826MOL0     H 9031  10.376   8.848   2.853 -0.0477 -2.0974 -0.7755
  826MOL0     H 9032  10.469   8.729   2.653  0.2769  0.1380 -2.0253
  827MOL0     O 9033   1.253   2.323   1.425 -0.5058 -0.5344 -0.0919
  827MOL0     C 9034   1.329   2.235   1.373  0.5496 -0.2307 -0.1038
  827MOL0     O 9035   1.386   2.121   1.435 -0.6586 -0.1092  0.1404
  827MOL0     C 9036   1.359   2.111   1.570  0.5652  0.2107  0.1390
  827MOL0     C 9037   1.466   2.085   1.646  0.6441 -0.5460 -0.1437
  827MOL0     C 9038   1.466   2.078   1.782  0.1584 -0.1581  0.5067
  827MOL0     C 9039   1.346   2.110   1.852 -0.5002  0.3821 -0.5301
  827MOL0     O 9040   1.326   2.124   1.986  0.0043  0.1642  0.5112
  827MOL0     C 9041   1.438   2.080   2.068 -0.6260  0.0160  0.1050
  827MOL0     C 9042   1.378   2.094   2.214 -0.3363  0.9881  0.4568
  827MOL0     C 9043   1.447   1.990   2.310 -0.1104 -0.2445  0.0565
  827MOL0     C 9044   1.371   1.968   2.446 -0.1546  0.1832  0.9314
  827MOL0     C 9045   1.446   1.900   2.552  0.1488  0.2337 -0.3189
  827MOL0     C 9046   1.369   1.866   2.682 -0.3368 -0.8697  0.7276
  827MOL0     C 9047   1.445   1.795   2.790 -0.3609 -0.2732  0.7462
  827MOL0     C 9048   1.339   1.751   2.892 -0.8608 -0.4431 -0.1266
  827MOL0     N 9049   1.395   1.672   3.001 -0.0489 -0.4334 -0.3322
  827MOL0     C 9050   1.514   1.687   3.079 -0.0114  0.5254  0.4542
  827MOL0     C 9051   1.497   1.605   3.179 -0.5034  0.1804 -1.4832
  827MOL0     C 9052   1.598   1.613   3.293  0.1459  0.2649 -0.4693
  827MOL0     C 9053   1.615   1.484   3.380 -0.2762  0.9934 -0.2184
  827MOL0     C 9054   1.685   1.516   3.503 -0.3075 -1.1546 -0.6045
  827MOL0     C 9055   1.697   1.407   3.611  0.1959  0.2204 -0.3204
  827MOL0     O 9056   1.755   1.285   3.568  0.0091  0.0219 -0.0052
  827MOL0     C 9057   1.745   1.178   3.654 -0.1385  0.4985 -0.2187
  827MOL0     C 9058   1.777   1.053   3.587  0.1669 -1.0147 -0.4726
  827MOL0     C 9059   1.763   0.937   3.664 -0.1120  0.0564  0.2412
  827MOL0     C 9060   1.717   0.933   3.795  0.4387 -0.1761 -0.6957
  827MOL0     C 9061   1.677   0.809   3.856 -0.0021 -0.4820 -0.3970
  827MOL0     O 9062   1.719   0.703   3.783 -0.1110 -0.4215 -0.3949
  827MOL0     C 9063   1.692   0.577   3.831  0.7299  0.7815 -0.7616
  827MOL0     C 9064   1.710   0.526   3.963 -0.2422 -0.2364 -0.8098
  827MOL0     C 9065   1.698   0.395   4.002 -1.1608  0.6809  0.1323
  827MOL0     C 9066   1.689   0.298   3.903 -0.1319  0.0520  0.2304
  827MOL0     O 9067   1.699   0.168   3.949 -0.1672 -0.3690 -1.0230
  827MOL0     C 9068   1.796   0.080   3.885  0.2186  0.1127  0.5056
  827MOL0     C 9069   1.811  -0.044   3.973  0.2055  0.3924 -0.0614
  827MOL0     C 9070   1.850  -0.007   4.118 -0.3731  0.4198  0.1856
  827MOL0     C 9071   1.876  -0.135   4.198 -0.2565  0.1818 -0.6970
  827MOL0     C 9072   1.781  -0.158   4.314 -0.2424  0.8123 -0.1653
  827MOL0     C 9073   1.643  -0.187   4.265  0.7589 -0.5340  0.4716
  827MOL0     C 9074   1.522  -0.188   4.373 -0.5384  0.7944  0.4754
  827MOL0     C 9075   1.560  -0.275   4.492 -0.4568 -0.6303 -1.0053
  827MOL0    Cl 9076   1.429  -0.299   4.602  0.4425 -0.5651  0.0048
  827MOL0     C 9077   1.676   0.343   3.766  0.8290  0.4353 -0.1322
  827MOL0     C 9078   1.665   0.488   3.736 -1.2011 -0.2745  1.0109
  827MOL0     O 9079   1.606   0.808   3.958  0.1407  0.0671 -0.0806
  827MOL0     C 9080   1.688   1.051   3.860 -0.2206 -0.2709 -0.2920
  827MOL0     C 9081   1.712   1.176   3.787  0.0543  0.4531 -0.3123
  827MOL0     N 9082   1.386   1.534   3.169  0.3820 -0.8091 -0.2776
  827MOL0     N 9083   1.317   1.565   3.059 -0.1288 -0.7986  0.2351
  827MOL0     C 9084   1.232   2.134   1.774 -0.8269  0.5507  0.2003
  827MOL0     C 9085   1.234   2.127   1.631 -0.2216 -0.3118  0.4493
  827MOL0     C 9086   1.358   2.241   1.226 -0.6418  1.0232  0.0740
  827MOL0     C 9087   1.294   2.342   1.148  0.3023  0.3494  0.6338
  827MOL0     C 9088   1.324   2.357   1.011  0.5226 -0.5870 -0.1123
  827MOL0     C 9089   1.419   2.281   0.952  0.8790  0.2780 -0.0990
  827MOL0     O 9090   1.433   2.299   0.819 -0.1254  0.1863 -0.2351
  827MOL0     C 9091   1.569   2.327   0.773 -1.1113 -0.6674 -0.5336
  827MOL0     C 9092   1.601   2.476   0.766  0.5114  0.3421  0.3935
  827MOL0     C 9093   1.530   2.546   0.644  0.5882 -1.3843  0.0820
  827MOL0     C 9094   1.375   2.539   0.655 -0.5270  0.0632 -0.5414
  827MOL0     C 9095   1.301   2.619   0.556 -0.2044  0.4489  0.4095
  827MOL0     C 9096   1.260   2.705   0.475 -0.0171 -0.5918 -0.4098
  827MOL0     C 9097   1.477   2.182   1.031  0.2264  0.7714  0.7274
  827MOL0     C 9098   1.455   2.166   1.165 -0.6343 -0.8793 -0.1341
  827MOL0     H 9099   1.560   2.073   1.592  0.5249 -2.7575  0.0242
  827MOL0     H 9100   1.553   2.052   1.842  2.3603  2.6868 -1.1931
  827MOL0     H 9101   1.530   2.139   2.064 -0.6696  0.0985  0.3097
  827MOL0     H 9102   1.444   1.973   2.045 -1.7730 -0.3361  1.3289
  827MOL0     H 9103   1.271   2.072   2.217  0.1989 -2.6194 -1.3900
  827MOL0     H 9104   1.390   2.198   2.247  1.2171  1.8380 -2.4459
  827MOL0     H 9105   1.553   2.013   2.321  0.1401  1.5835 -4.1200
  827MOL0     H 9106   1.442   1.891   2.264  0.0261 -0.3316  0.2256
  827MOL0     H 9107   1.341   2.066   2.484 -0.0821  0.1586  1.0537
  827MOL0     H 9108   1.279   1.912   2.427  0.0186  0.3646 -0.5159
  827MOL0     H 9109   1.513   1.981   2.583  0.1643 -0.0516  0.4196
  827MOL0     H 9110   1.497   1.810   2.517 -0.5756  0.4028 -1.9301
  827MOL0     H 9111   1.294   1.800   2.637 -3.0190  2.0199  0.6194
  827MOL0     H 9112   1.307   1.945   2.727 -1.9204 -1.5627 -0.1509
  827MOL0     H 9113   1.493   1.702   2.755  1.0565  1.2091 -1.4978
  827MOL0     H 9114   1.518   1.867   2.829  0.2930  0.7251 -2.0900
  827MOL0     H 9115   1.248   1.707   2.851  0.5911 -0.5078 -3.6712
  827MOL0     H 9116   1.302   1.844   2.937  0.4973 -0.8854  2.0757
  827MOL0     H 9117   1.592   1.762   3.074 -0.9372  1.4965  0.0182
  827MOL0     H 9118   1.573   1.695   3.360  1.4712  0.7973 -0.5959
  827MOL0     H 9119   1.694   1.650   3.257  0.9042 -0.2118  0.9675
  827MOL0     H 9120   1.667   1.403   3.329  1.2832  1.3902  0.6888
  827MOL0     H 9121   1.519   1.449   3.420 -1.3738  3.1383 -0.8207
  827MOL0     H 9122   1.784   1.559   3.485 -0.9790  0.8712  0.1790
  827MOL0     H 9123   1.636   1.596   3.560  0.3382 -0.9817 -0.2909
  827MOL0     H 9124   1.592   1.389   3.635 -0.0471  0.7099 -0.9653
  827MOL0     H 9125   1.758   1.448   3.692  1.2396 -1.3590 -0.2815
  827MOL0     H 9126   1.803   1.061   3.482  2.1530 -3.9349 -0.3282
  827MOL0     H 9127   1.774   0.851   3.599  0.3691  0.5760 -0.3696
  827MOL0     H 9128   1.742   0.597   4.038 -4.2850  2.1183 -1.0151
  827MOL0     H 9129   1.698   0.362   4.105 -0.9263 -2.8033 -0.8694
  827MOL0     H 9130   1.896   0.124   3.879  1.9414 -3.3178  0.9817
  827MOL0     H 9131   1.764   0.052   3.784 -0.9547 -0.3134  0.9741
  827MOL0     H 9132   1.873  -0.119   3.924 -2.3035 -0.6295 -1.9189
  827MOL0     H 9133   1.719  -0.104   3.970  1.1214 -1.0882  0.7754
  827MOL0     H 9134   1.773   0.046   4.176  1.2404  2.5006  0.5530
  827MOL0     H 9135   1.937   0.058   4.109  0.9831 -1.1933  1.0736
  827MOL0     H 9136   1.885  -0.217   4.126  1.0557 -2.1542  1.9358
  827MOL0     H 9137   1.981  -0.120   4.228  0.7669 -0.4249 -3.5926
  827MOL0     H 9138   1.783  -0.068   4.377 -0.4674 -0.6601  2.0736
  827MOL0     H 9139   1.806  -0.242   4.379 -2.8916 -1.1267 -1.4902
  827MOL0     H 9140   1.650  -0.291   4.230 -1.9304 -1.3709  2.1532
  827MOL0     H 9141   1.611  -0.110   4.195  0.2386  1.0216  2.3404
  827MOL0     H 9142   1.505  -0.082   4.394  2.9529  2.2952 -3.0651
  827MOL0     H 9143   1.433  -0.232   4.327 -0.7092  0.1585  1.3926
  827MOL0     H 9144   1.648  -0.237   4.545  0.8227 -1.6674 -2.2937
  827MOL0     H 9145   1.604  -0.368   4.455  4.2113 -0.8460  3.8198
  827MOL0     H 9146   1.670   0.269   3.688 -0.8311  0.0283  0.3385
  827MOL0     H 9147   1.652   0.522   3.634  0.5182 -0.0803  0.8393
  827MOL0     H 9148   1.657   1.066   3.963  0.7035  2.5259 -0.3226
  827MOL0     H 9149   1.695   1.271   3.837 -2.2900 -0.9699  1.8312
  827MOL0     H 9150   1.135   2.169   1.811 -0.4797 -0.0202  1.7382
  827MOL0     H 9151   1.141   2.136   1.576 -1.2407  1.0190  2.3002
  827MOL0     H 9152   1.217   2.405   1.192  1.0661  1.4518  0.4389
  827MOL0     H 9153   1.283   2.435   0.948  3.0361  1.7969  0.9775
  827MOL0     H 9154   1.575   2.285   0.672  1.9892  0.0879 -0.7692
  827MOL0     H 9155   1.648   2.272   0.824 -0.7925  1.1998  1.1210
  827MOL0     H 9156   1.570   2.528   0.857  0.6468 -0.4552  0.9082
  827MOL0     H 9157   1.709   2.483   0.756  0.4246 -0.8147 -2.3851
  827MOL0     H 9158   1.562   2.498   0.551 -1.1349  1.2538 -2.0258
  827MOL0     H 9159   1.560   2.650   0.654  0.9663 -1.4280 -0.5280
  827MOL0     H 9160   1.349   2.433   0.645  0.4248 -0.2900  0.5839
  827MOL0     H 9161   1.347   2.562   0.758 -2.1795 -1.6335 -0.5549
  827MOL0     H 9162   1.214   2.783   0.419 -1.7971 -2.6813 -2.0586
  827MOL0     H 9163   1.549   2.129   0.971  1.1837  0.1764  2.3289
  827MOL0     H 9164   1.518   2.102   1.226  0.0807  1.5174  1.7821
  828MOL0     O 9165   5.925   0.098   4.485  0.3215  0.1519 -0.2024
  828MOL0     C 9166   5.871  -0.014   4.489  0.5491 -0.1132  0.5744
  828MOL0     O 9167   5.833  -0.083   4.601  0.3757  0.5799  0.8093
  828MOL0     C 9168   5.854  -0.037   4.726  0.6277 -0.1964 -0.4476
  828MOL0     C 9169   5.975   0.024   4.767  0.0762 -0.8301  0.3477
  828MOL0     C 9170   5.983   0.078   4.899 -0.7696  0.6401  0.4733
  828MOL0     C 9171   5.874   0.069   4.983 -0.7617  0.2942 -1.6826
  828MOL0     O 9172   5.876   0.123   5.115  0.0785 -0.0030  0.2626
  828MOL0     C 9173   5.977   0.230   5.139 -0.3478 -0.2099  0.3097
  828MOL0     C 9174   5.955   0.309   5.269 -0.1102 -0.2601 -1.1380
  828MOL0     C 9175   5.822   0.385   5.276 -0.4650  0.2997  0.3686
  828MOL0     C 9176   5.817   0.534   5.220 -0.2192 -0.4172 -0.4270
  828MOL0     C 9177   5.670   0.565   5.187  0.3561  0.0028  0.5653
  828MOL0     C 9178   5.639   0.715   5.171 -0.5025 -0.6099 -0.6888
  828MOL0     C 9179   5.528   0.736   5.068  0.2577 -0.3334  0.1680
  828MOL0     C 9180   5.496   0.883   5.022 -0.2677 -0.5528  0.6170
  828MOL0     N 9181   5.506   0.984   5.143  0.0797 -1.4814  0.0422
  828MOL0     C 9182   5.419   1.010   5.256 -0.3062 -0.9500 -0.0993
  828MOL0     C 9183   5.496   1.082   5.334 -0.9572 -0.1140 -0.5892
  828MOL0     C 9184   5.464   1.139   5.471 -0.0525  0.2985  0.2829
  828MOL0     C 9185   5.562   1.097   5.576  0.2364  0.1232  0.5768
  828MOL0     C 9186   5.559   0.948   5.609  0.6556  0.2354 -0.1056
  828MOL0     C 9187   5.695   0.888   5.550 -0.2301 -0.7503  0.1330
  828MOL0     O 9188   5.679   0.743   5.515 -0.9713 -0.3500  0.0938
  828MOL0     C 9189   5.675   0.648   5.613 -0.3267  0.4423 -0.0194
  828MOL0     C 9190   5.724   0.654   5.746 -1.0081  0.3725 -0.4005
  828MOL0     C 9191   5.694   0.554   5.833 -0.2221  0.4711 -0.8173
  828MOL0     C 9192   5.631   0.435   5.795  0.2620  0.5112  0.0977
  828MOL0     C 9193   5.600   0.340   5.896  0.3046 -0.2061 -0.4820
  828MOL0     O 9194   5.591   0.385   6.023  0.6340 -0.7089  0.8392
  828MOL0     C 9195   5.541   0.303   6.122  0.5036  1.2574 -0.0740
  828MOL0     C 9196   5.435   0.204   6.100 -0.2860  0.5710  0.1885
  828MOL0     C 9197   5.391   0.117   6.206  0.5449  0.5961 -0.3467
  828MOL0     C 9198   5.440   0.138   6.333  0.4278  0.0818 -0.0253
  828MOL0     O 9199   5.386   0.053   6.428 -0.1748  0.2249  1.0647
  828MOL0     C 9200   5.452   0.036   6.550  0.1684 -0.1242  1.6647
  828MOL0     C 9201   5.357  -0.062   6.628 -0.2794 -0.3476 -0.3004
  828MOL0     C 9202   5.359  -0.203   6.570 -0.0171 -0.5010 -0.4040
  828MOL0     C 9203   5.241  -0.274   6.636  0.2397 -0.0594  0.3654
  828MOL0     C 9204   5.230  -0.434   6.607 -1.2466  0.2397 -0.2204
  828MOL0     C 9205   5.360  -0.500   6.681 -0.5337 -0.3957  0.0693
  828MOL0     C 9206   5.454  -0.559   6.576 -0.6832 -0.4731 -0.7073
  828MOL0     C 9207   5.598  -0.565   6.617  0.4148 -0.1641  0.1021
  828MOL0    Cl 9208   5.620  -0.633   6.784  0.0047 -0.0403 -0.4483
  828MOL0     C 9209   5.548   0.229   6.355 -0.1640 -0.2705  0.6651
  828MOL0     C 9210   5.585   0.311   6.248 -0.8749  0.9485 -0.0198
  828MOL0     O 9211   5.585   0.225   5.856 -0.1139  0.9021 -0.0290
  828MOL0     C 9212   5.583   0.424   5.670 -0.3170  0.6521 -0.7032
  828MOL0     C 9213   5.612   0.532   5.573 -0.2906 -1.4115  1.1167
  828MOL0     N 9214   5.627   1.104   5.284 -0.3535 -0.1386 -0.2960
  828MOL0     N 9215   5.628   1.053   5.174 -1.4940  0.9999 -0.3156
  828MOL0     C 9216   5.774  -0.013   4.948  0.1705 -0.3280 -0.2261
  828MOL0     C 9217   5.763  -0.061   4.823 -0.0351  0.1990 -0.6830
  828MOL0     C 9218   5.876  -0.093   4.364  0.1908  0.5190 -0.6876
  828MOL0     C 9219   5.960  -0.049   4.256  0.8758  0.5054  0.4953
  828MOL0     C 9220   5.977  -0.124   4.142  0.2859  0.0341 -0.0790
  828MOL0     C 9221   5.911  -0.254   4.141  0.0019  0.8587  0.0395
  828MOL0     O 9222   5.909  -0.328   4.028  0.3108 -0.4323  0.0972
  828MOL0     C 9223   5.914  -0.476   4.037  0.6046 -0.2533 -0.6286
  828MOL0     C 9224   5.811  -0.545   3.943 -0.3528  0.7290  0.1412
  828MOL0     C 9225   5.670  -0.533   4.004  0.5918  0.3790 -0.1938
  828MOL0     C 9226   5.560  -0.621   3.946 -0.8126  0.0710  0.2356
  828MOL0     C 9227   5.568  -0.756   3.985 -0.0937 -0.7227 -0.0979
  828MOL0     C 9228   5.576  -0.866   4.025  1.2056  0.4624  0.3790
  828MOL0     C 9229   5.812  -0.289   4.242  0.3972 -0.4996 -0.4078
  828MOL0     C 9230   5.795  -0.208   4.348 -0.0548 -0.8689 -0.8160
  828MOL0     H 9231   6.051   0.033   4.691 -0.0007  3.9778  0.5222
  828MOL0     H 9232   6.071   0.120   4.946 -0.4472 -1.7853  2.2409
  828MOL0     H 9233   5.993   0.296   5.053 -1.9846  0.0784  0.2011
  828MOL0     H 9234   6.071   0.174   5.149  2.6465  4.0946 -0.7960
  828MOL0     H 9235   6.042   0.375   5.280  1.3130 -2.2129  0.0110
  828MOL0     H 9236   5.968   0.247   5.358  1.7061  0.7212 -0.6676
  828MOL0     H 9237   5.801   0.398   5.383 -0.1751  0.9504  0.3463
  828MOL0     H 9238   5.746   0.327   5.223  2.0173 -1.8804 -1.0796
  828MOL0     H 9239   5.859   0.610   5.288  2.1584 -1.2123 -0.9092
  828MOL0     H 9240   5.866   0.533   5.122  0.0066 -1.9619 -0.3223
  828MOL0     H 9241   5.604   0.541   5.271 -1.7446  2.9770 -0.0605
  828MOL0     H 9242   5.638   0.502   5.103 -2.7947  0.9528  0.9135
  828MOL0     H 9243   5.726   0.777   5.148  0.3487 -0.8058  1.7750
  828MOL0     H 9244   5.616   0.753   5.271 -1.8644 -2.6312 -0.1800
  828MOL0     H 9245   5.537   0.683   4.973  0.3808 -2.5318  1.3429
  828MOL0     H 9246   5.432   0.711   5.115 -0.8921  1.5292 -1.0349
  828MOL0     H 9247   5.399   0.904   4.976  1.5803  2.9217 -2.1812
  828MOL0     H 9248   5.570   0.919   4.951  0.8258 -1.1050  1.4360
  828MOL0     H 9249   5.319   0.977   5.282 -0.1703 -0.5165  1.0361
  828MOL0     H 9250   5.362   1.124   5.505 -0.6515  1.9289 -0.6871
  828MOL0     H 9251   5.474   1.248   5.473 -1.3349  0.4250  2.0113
  828MOL0     H 9252   5.529   1.148   5.667 -2.0918 -2.2925  1.2379
  828MOL0     H 9253   5.658   1.143   5.554  0.0858 -0.1612 -0.7308
  828MOL0     H 9254   5.564   0.940   5.718 -0.9205  1.6175  0.1011
  828MOL0     H 9255   5.473   0.893   5.568  0.8396 -0.4092  0.3631
  828MOL0     H 9256   5.781   0.907   5.614 -1.2194  3.0066  0.6082
  828MOL0     H 9257   5.706   0.930   5.450  2.4141  0.4581  0.8497
  828MOL0     H 9258   5.786   0.732   5.789 -2.0988  0.7809  0.4798
  828MOL0     H 9259   5.731   0.576   5.933 -3.1320  0.2523  0.4093
  828MOL0     H 9260   5.373   0.190   6.012 -0.9127 -2.1443  0.9707
  828MOL0     H 9261   5.305   0.050   6.201 -0.0464  1.4472 -2.7980
  828MOL0     H 9262   5.445   0.125   6.614 -0.3632  0.6780  0.5226
  828MOL0     H 9263   5.555   0.003   6.536  0.4586  1.6771 -1.1595
  828MOL0     H 9264   5.257  -0.017   6.630 -0.6928 -1.1299 -1.7164
  828MOL0     H 9265   5.405  -0.064   6.727  2.0599  2.4364 -1.2445
  828MOL0     H 9266   5.454  -0.248   6.599 -0.4890 -1.0081  0.3704
  828MOL0     H 9267   5.358  -0.205   6.461  2.3211 -3.7747 -0.5089
  828MOL0     H 9268   5.252  -0.250   6.742 -0.6464 -4.1628  1.5517
  828MOL0     H 9269   5.152  -0.235   6.586  1.4485 -0.2854 -2.1515
  828MOL0     H 9270   5.231  -0.444   6.498 -2.1320 -2.2322 -0.0572
  828MOL0     H 9271   5.137  -0.472   6.649  0.8756 -4.2308  0.9988
  828MOL0     H 9272   5.336  -0.579   6.753 -2.0803  0.0549  0.1048
  828MOL0     H 9273   5.418  -0.427   6.738  0.1757  2.5501 -4.0385
  828MOL0     H 9274   5.429  -0.664   6.554 -0.5583 -0.6174 -0.1844
  828MOL0     H 9275   5.444  -0.500   6.485 -1.8612  0.0902 -0.2338
  828MOL0     H 9276   5.639  -0.464   6.612 -1.6754  0.7512  0.7271
  828MOL0     H 9277   5.654  -0.632   6.551  0.3331 -2.2700  2.0058
  828MOL0     H 9278   5.587   0.242   6.455 -2.4606 -1.1622  1.7334
  828MOL0     H 9279   5.670   0.375   6.273  0.0625  0.2144 -1.2294
  828MOL0     H 9280   5.544   0.327   5.642  0.9781 -0.2606  0.5133
  828MOL0     H 9281   5.571   0.508   5.476  0.9658  3.3155 -0.8605
  828MOL0     H 9282   5.690  -0.028   5.015 -1.0326 -1.3452 -1.8899
  828MOL0     H 9283   5.668  -0.107   4.799  0.3318  0.2834 -2.4280
  828MOL0     H 9284   6.022   0.040   4.260  1.6151  0.3504 -3.6205
  828MOL0     H 9285   6.035  -0.096   4.054 -1.8480  2.6563 -0.7818
  828MOL0     H 9286   5.922  -0.512   4.140  2.2765  1.1885 -0.1950
  828MOL0     H 9287   6.014  -0.508   4.006 -0.9139 -4.2065 -2.0217
  828MOL0     H 9288   5.810  -0.508   3.840  1.5288  0.2012 -0.1034
  828MOL0     H 9289   5.855  -0.645   3.945 -1.0918  0.3189 -1.7929
  828MOL0     H 9290   5.624  -0.433   4.003 -0.9826 -0.1910  2.8003
  828MOL0     H 9291   5.687  -0.555   4.110  2.1586 -1.2109 -0.7340
  828MOL0     H 9292   5.465  -0.585   3.989 -2.0581 -1.7922 -0.8172
  828MOL0     H 9293   5.562  -0.613   3.837 -1.2410  0.3594  0.2444
  828MOL0     H 9294   5.574  -0.966   4.062 -1.1083  0.7262  1.1188
  828MOL0     H 9295   5.751  -0.378   4.229 -0.5876 -0.0092  0.6760
  828MOL0     H 9296   5.728  -0.246   4.424 -1.3140  0.3839 -1.2543
  829MOL0     O 9297  10.389   0.366   2.295  0.0969 -0.0652  0.7178
  829MOL0     C 9298  10.410   0.392   2.413 -0.3376 -0.7453  0.0590
  829MOL0     O 9299  10.503   0.338   2.494  0.7265  0.9311  0.4975
  829MOL0     C 9300  10.591   0.254   2.433  0.5922  0.7430  0.8047
  829MOL0     C 9301  10.727   0.283   2.424 -0.8128 -1.2425  0.7112
  829MOL0     C 9302  10.822   0.193   2.385 -0.2577  0.5560  1.0772
  829MOL0     C 9303  10.768   0.075   2.329 -0.1144  0.2300  0.2123
  829MOL0     O 9304  10.849  -0.023   2.280 -0.2276 -0.3124 -1.0676
  829MOL0     C 9305  10.986  -0.011   2.277  0.0110 -0.3957 -0.2634
  829MOL0     C 9306  11.043  -0.125   2.196 -0.4468 -0.2331  0.0864
  829MOL0     C 9307  11.064  -0.256   2.270 -0.5114  0.1439  0.1553
  829MOL0     C 9308  11.179  -0.265   2.364 -0.9145  0.8857 -0.4712
  829MOL0     C 9309  11.187  -0.388   2.460 -0.1726 -0.2626  0.5143
  829MOL0     C 9310  11.302  -0.385   2.556  0.0646 -0.3512 -0.2424
  829MOL0     C 9311  11.335  -0.525   2.609 -0.3653 -0.1200 -1.5334
  829MOL0     C 9312  11.427  -0.512   2.729 -1.2802 -0.0252 -0.2607
  829MOL0     N 9313  11.559  -0.451   2.679  0.0854 -0.0663  0.3792
  829MOL0     C 9314  11.604  -0.321   2.681  0.0719 -0.3059 -1.0782
  829MOL0     C 9315  11.716  -0.318   2.607 -0.8471 -0.5362 -0.5578
  829MOL0     C 9316  11.799  -0.195   2.591  0.3181  0.0900 -0.9664
  829MOL0     C 9317  11.940  -0.229   2.569  0.5752  0.4410  0.1807
  829MOL0     C 9318  12.021  -0.098   2.552  0.1199 -0.5253 -0.1187
  829MOL0     C 9319  12.072  -0.089   2.411  0.7824  0.2466 -0.6737
  829MOL0     O 9320  12.168   0.014   2.410  0.0874 -0.3516 -0.0791
  829MOL0     C 9321  12.127   0.133   2.345 -0.7644  0.5094 -0.2773
  829MOL0     C 9322  11.990   0.180   2.331  0.4334  0.4544  0.1169
  829MOL0     C 9323  11.971   0.301   2.269 -0.2983  0.2468  0.5488
  829MOL0     C 9324  12.078   0.400   2.249 -0.3070  0.1265 -0.0659
  829MOL0     C 9325  12.060   0.534   2.202  0.1836 -0.3679  0.7136
  829MOL0     O 9326  12.160   0.629   2.245 -0.2195 -0.4344 -0.2614
  829MOL0     C 9327  12.126   0.765   2.256 -0.2246  0.4424 -0.4242
  829MOL0     C 9328  12.201   0.832   2.361 -0.1978  0.1166  0.9565
  829MOL0     C 9329  12.182   0.966   2.379 -0.5910  0.1774 -0.1037
  829MOL0     C 9330  12.090   1.038   2.299 -0.0898  0.3888 -0.3054
  829MOL0     O 9331  12.092   1.173   2.324  0.3877 -0.3440 -0.2772
  829MOL0     C 9332  11.961   1.227   2.347 -0.3882  0.1239 -0.2376
  829MOL0     C 9333  11.928   1.219   2.492  0.0466 -0.4491 -0.3704
  829MOL0     C 9334  12.004   1.314   2.574  0.1040  0.7019 -0.4157
  829MOL0     C 9335  11.937   1.318   2.709  1.3179  1.1023  0.3280
  829MOL0     C 9336  11.938   1.178   2.791 -0.5408  0.1470  0.4976
  829MOL0     C 9337  11.891   1.210   2.938  0.6669 -0.5245  0.3239
  829MOL0     C 9338  11.736   1.242   2.942 -0.1193  0.2852 -0.2189
  829MOL0     C 9339  11.677   1.242   3.086  0.5431  0.9775  0.6184
  829MOL0    Cl 9340  11.747   1.361   3.196  0.7935 -0.1866 -0.0144
  829MOL0     C 9341  12.020   0.974   2.191 -0.5474  0.4825 -0.1826
  829MOL0     C 9342  12.030   0.833   2.180  0.8224 -0.6008 -0.1860
  829MOL0     O 9343  11.946   0.558   2.160 -0.4283  0.3861 -0.3386
  829MOL0     C 9344  12.211   0.350   2.272  0.1778 -0.3930  0.4218
  829MOL0     C 9345  12.227   0.220   2.311  0.3778  0.4375  0.3128
  829MOL0     N 9346  11.739  -0.446   2.565  0.3937 -0.8656  0.1090
  829MOL0     N 9347  11.645  -0.524   2.599 -0.2530 -0.6747  1.1069
  829MOL0     C 9348  10.634   0.044   2.326 -0.0920 -0.4490 -1.0054
  829MOL0     C 9349  10.542   0.136   2.366 -0.8240 -0.4914 -0.3531
  829MOL0     C 9350  10.324   0.499   2.471 -0.1494  0.0971  0.6415
  829MOL0     C 9351  10.325   0.533   2.613 -0.0703  0.2376  0.5172
  829MOL0     C 9352  10.253   0.641   2.664  0.9275  0.6687 -0.0765
  829MOL0     C 9353  10.166   0.710   2.572  0.6869 -0.2670 -0.1988
  829MOL0     O 9354  10.085   0.812   2.602 -0.3995 -0.1836 -0.3348
  829MOL0     C 9355  10.023   0.810   2.733 -0.0476 -0.2783 -0.9289
  829MOL0     C 9356   9.898   0.893   2.751 -0.1956  0.1769  0.3056
  829MOL0     C 9357   9.843   0.857   2.890 -0.3140  0.0672 -1.2913
  829MOL0     C 9358   9.735   0.951   2.924 -0.2291 -0.1644 -0.3846
  829MOL0     C 9359   9.693   0.941   3.075 -1.1898 -0.6141 -0.0205
  829MOL0     C 9360   9.676   0.950   3.200  0.3918  0.6820  0.6113
  829MOL0     C 9361  10.154   0.671   2.441  0.5176  0.4588 -0.8813
  829MOL0     C 9362  10.228   0.557   2.392  0.7488 -0.3063  0.5409
  829MOL0     H 9363  10.771   0.380   2.446  1.6275 -2.0379 -0.3005
  829MOL0     H 9364  10.924   0.227   2.373 -0.8854  3.3437  2.7047
  829MOL0     H 9365  11.030  -0.018   2.377  3.3429  0.5740 -1.5127
  829MOL0     H 9366  11.012   0.081   2.223 -2.3657 -1.8127 -4.2696
  829MOL0     H 9367  11.137  -0.089   2.153  0.5332  0.3879  2.5964
  829MOL0     H 9368  10.976  -0.142   2.111  0.0935  0.4445 -0.4816
  829MOL0     H 9369  11.073  -0.330   2.190 -1.3694  1.8308 -1.5497
  829MOL0     H 9370  10.969  -0.276   2.320 -0.5614 -0.1422 -0.0517
  829MOL0     H 9371  11.265  -0.262   2.297  1.5907  3.1619  2.5343
  829MOL0     H 9372  11.181  -0.169   2.417  0.4885  0.9377 -0.5826
  829MOL0     H 9373  11.197  -0.478   2.399 -1.6474 -2.3743  3.1349
  829MOL0     H 9374  11.088  -0.404   2.504 -0.4584  3.5078  1.6371
  829MOL0     H 9375  11.279  -0.312   2.634  0.8525  2.4017 -2.4069
  829MOL0     H 9376  11.397  -0.360   2.506  0.9347 -1.2903  0.8910
  829MOL0     H 9377  11.242  -0.559   2.655  1.4350  1.3420  3.9038
  829MOL0     H 9378  11.370  -0.594   2.531  0.5891  0.1565 -1.3625
  829MOL0     H 9379  11.450  -0.614   2.761  0.7294  0.2327 -0.7672
  829MOL0     H 9380  11.375  -0.455   2.807  0.1930 -0.8728  1.4212
  829MOL0     H 9381  11.570  -0.240   2.744  1.1499 -1.4544  1.1027
  829MOL0     H 9382  11.790  -0.131   2.679 -1.8079  0.7133 -1.5891
  829MOL0     H 9383  11.762  -0.141   2.504  1.4309  2.0804 -0.2713
  829MOL0     H 9384  11.946  -0.292   2.480  1.4874 -0.9955  1.2237
  829MOL0     H 9385  11.955  -0.280   2.664 -2.8646 -0.9942  0.1003
  829MOL0     H 9386  11.964  -0.009   2.579 -0.1556 -1.6144  3.4312
  829MOL0     H 9387  12.101  -0.104   2.627  0.8772 -2.3338 -1.0092
  829MOL0     H 9388  11.998  -0.069   2.333 -1.0903 -4.8249 -0.6131
  829MOL0     H 9389  12.118  -0.188   2.397 -0.2549 -0.9893  3.3301
  829MOL0     H 9390  11.907   0.112   2.345  1.6163 -1.3225 -1.1159
  829MOL0     H 9391  11.865   0.317   2.255 -0.4157 -1.9640 -1.9702
  829MOL0     H 9392  12.284   0.779   2.405 -2.4107 -2.4461  2.3316
  829MOL0     H 9393  12.254   1.025   2.435  0.4894  0.5985 -1.8806
  829MOL0     H 9394  11.879   1.181   2.290 -0.2379 -0.7396  0.2290
  829MOL0     H 9395  11.953   1.329   2.309  1.5641 -0.5657 -2.7460
  829MOL0     H 9396  11.942   1.116   2.524 -1.0449 -0.3022  0.6388
  829MOL0     H 9397  11.823   1.247   2.506  0.1257  0.1515 -0.8955
  829MOL0     H 9398  12.004   1.407   2.518  0.4692 -0.0349 -1.6830
  829MOL0     H 9399  12.111   1.293   2.583 -0.3749 -1.4157  1.2611
  829MOL0     H 9400  11.983   1.392   2.775  1.8931  0.1270  1.0405
  829MOL0     H 9401  11.834   1.354   2.693  0.2638  0.4833  4.5402
  829MOL0     H 9402  12.036   1.130   2.791 -0.5895  0.0286 -0.4311
  829MOL0     H 9403  11.874   1.104   2.742 -0.9830  1.4462 -0.9642
  829MOL0     H 9404  11.949   1.289   2.988  2.2340 -0.9364 -0.7710
  829MOL0     H 9405  11.916   1.117   2.991  1.9052 -0.3999 -0.0138
  829MOL0     H 9406  11.724   1.340   2.895  1.2733  0.6317  0.0996
  829MOL0     H 9407  11.684   1.163   2.888 -0.9592 -0.0492  1.0414
  829MOL0     H 9408  11.686   1.143   3.131 -1.6111  0.8202  0.7807
  829MOL0     H 9409  11.570   1.257   3.074  0.2337 -1.0953  0.4828
  829MOL0     H 9410  11.959   1.015   2.110  0.2229 -1.1457 -1.6582
  829MOL0     H 9411  11.982   0.781   2.098  0.9750 -0.7289 -0.1954
  829MOL0     H 9412  12.295   0.416   2.251 -0.0207  0.0314  0.9389
  829MOL0     H 9413  12.328   0.186   2.327  0.6526  1.4519  0.8044
  829MOL0     H 9414  10.599  -0.049   2.284 -1.0263 -2.4349  3.5653
  829MOL0     H 9415  10.435   0.117   2.360 -0.5385 -1.7080 -2.5024
  829MOL0     H 9416  10.382   0.476   2.685 -2.2536 -0.5169  1.7333
  829MOL0     H 9417  10.264   0.670   2.768  0.1763  1.0236 -0.0863
  829MOL0     H 9418  10.104   0.848   2.796 -2.0746 -0.4279  1.9290
  829MOL0     H 9419  10.001   0.711   2.774  2.1448  0.0418  1.2266
  829MOL0     H 9420   9.918   1.000   2.743 -2.7382  1.0480  3.4536
  829MOL0     H 9421   9.821   0.872   2.675  3.4178  1.4722 -4.1769
  829MOL0     H 9422   9.918   0.868   2.968 -1.7472 -3.3264  0.7996
  829MOL0     H 9423   9.807   0.758   2.921 -1.2254  1.4260  2.5801
  829MOL0     H 9424   9.767   1.054   2.908  0.8985 -0.6031 -1.0979
  829MOL0     H 9425   9.641   0.941   2.867 -0.8517 -0.6265  0.6993
  829MOL0     H 9426   9.666   0.964   3.305 -0.1280  1.9099  0.4180
  829MOL0     H 9427  10.082   0.727   2.383 -2.1742  0.7551  2.4507
  829MOL0     H 9428  10.200   0.540   2.289 -1.9399  0.1171  1.1149
  830MOL0     O 9429   1.996   2.071   5.826 -0.0679  0.2687  0.2611
  830MOL0     C 9430   1.958   2.168   5.764  0.1229  1.3269  0.1493
  830MOL0     O 9431   1.868   2.175   5.673 -0.0873  0.3012  0.6385
  830MOL0     C 9432   1.789   2.074   5.639 -0.6702 -0.8187  0.7915
  830MOL0     C 9433   1.796   2.030   5.497  0.9932 -0.7361 -0.9677
  830MOL0     C 9434   1.710   1.932   5.452  0.9272  0.3064  0.7137
  830MOL0     C 9435   1.622   1.866   5.538 -0.1773  0.3252 -0.0251
  830MOL0     O 9436   1.536   1.773   5.483  0.1967  0.3701  0.1116
  830MOL0     C 9437   1.456   1.690   5.562  0.7838 -0.1172 -0.1950
  830MOL0     C 9438   1.310   1.716   5.523  0.8531  0.2710 -0.0666
  830MOL0     C 9439   1.262   1.604   5.429  0.3810 -0.9522  0.2905
  830MOL0     C 9440   1.115   1.627   5.393  0.9215  0.2862  0.8693
  830MOL0     C 9441   1.102   1.715   5.265 -0.6447  0.1195 -0.1676
  830MOL0     C 9442   0.956   1.713   5.225 -0.2903  0.0620  0.5078
  830MOL0     C 9443   0.938   1.798   5.089  0.1440  0.2335  1.3014
  830MOL0     C 9444   0.810   1.878   5.080 -0.5341  0.5253  0.0680
  830MOL0     N 9445   0.781   1.942   4.947 -0.4180  0.3820 -0.1493
  830MOL0     C 9446   0.830   2.054   4.895 -0.1069  0.9269  0.5323
  830MOL0     C 9447   0.742   2.091   4.798  0.5723  0.0685  0.1998
  830MOL0     C 9448   0.730   2.218   4.727 -0.1843  1.0976  0.1070
  830MOL0     C 9449   0.638   2.320   4.801  0.4595  0.2244  0.6919
  830MOL0     C 9450   0.543   2.370   4.690 -0.2458  0.9055 -0.4755
  830MOL0     C 9451   0.597   2.502   4.628 -0.3677  0.5324  0.8968
  830MOL0     O 9452   0.716   2.491   4.548  0.7174 -0.0088  0.5679
  830MOL0     C 9453   0.746   2.610   4.472  1.7396 -0.6237  0.2421
  830MOL0     C 9454   0.853   2.609   4.383 -0.3052  0.3159  0.2408
  830MOL0     C 9455   0.886   2.719   4.299  0.1878  0.8732 -0.0502
  830MOL0     C 9456   0.803   2.839   4.307 -1.3767  0.5809 -1.0922
  830MOL0     C 9457   0.839   2.955   4.227  0.1707 -0.5706 -0.5429
  830MOL0     O 9458   0.912   2.922   4.115  0.4822  0.2526  0.2108
  830MOL0     C 9459   0.962   3.009   4.023 -0.9961  0.2904 -0.8553
  830MOL0     C 9460   1.041   3.121   4.050 -0.7077 -0.6709 -0.2408
  830MOL0     C 9461   1.103   3.199   3.946 -0.1398  1.0774 -1.1032
  830MOL0     C 9462   1.088   3.158   3.818  0.6258  0.2388  0.1075
  830MOL0     O 9463   1.141   3.239   3.725 -1.3938 -0.2412  1.0396
  830MOL0     C 9464   1.111   3.197   3.588  0.0304 -0.1805 -0.8989
  830MOL0     C 9465   1.173   3.308   3.494  0.3756  0.0502  0.0809
  830MOL0     C 9466   1.329   3.297   3.511  1.1563  0.1036  0.7893
  830MOL0     C 9467   1.403   3.169   3.470  1.0989  0.5127 -0.4524
  830MOL0     C 9468   1.413   3.157   3.315  1.3348  0.7876  0.9879
  830MOL0     C 9469   1.477   3.024   3.257  0.8906 -0.8926  0.1099
  830MOL0     C 9470   1.599   2.983   3.327 -0.2651 -0.3826  0.4807
  830MOL0     C 9471   1.666   2.867   3.261  0.6541  0.4958 -0.3692
  830MOL0    Cl 9472   1.724   2.905   3.098  0.4294 -0.1459  0.0518
  830MOL0     C 9473   1.021   3.031   3.786 -0.0098 -0.0656  0.5232
  830MOL0     C 9474   0.959   2.962   3.891 -0.2438 -0.5590  0.9627
  830MOL0     O 9475   0.799   3.073   4.255 -0.1148  0.4415  0.0435
  830MOL0     C 9476   0.704   2.849   4.402 -0.4299 -0.1277  0.3156
  830MOL0     C 9477   0.673   2.737   4.486 -0.4974  0.3064  0.5248
  830MOL0     N 9478   0.656   1.978   4.773  0.2002  0.2447 -0.0453
  830MOL0     N 9479   0.693   1.890   4.858 -0.1281 -0.1054 -0.1771
  830MOL0     C 9480   1.630   1.904   5.674  0.0381 -1.0563 -0.1583
  830MOL0     C 9481   1.708   2.007   5.728 -0.5616  0.6621  0.4643
  830MOL0     C 9482   1.990   2.296   5.830 -0.3780 -0.5430  0.7287
  830MOL0     C 9483   1.965   2.417   5.762 -0.5452  0.0783 -0.4862
  830MOL0     C 9484   2.007   2.534   5.824 -0.5750 -0.5806 -0.1211
  830MOL0     C 9485   2.065   2.543   5.951 -0.1512 -0.3091 -0.0481
  830MOL0     O 9486   2.098   2.661   6.007  0.0675  0.5583 -0.2761
  830MOL0     C 9487   2.231   2.664   6.063  0.2610  0.0271  0.1940
  830MOL0     C 9488   2.352   2.638   5.968  0.7988  0.0714 -0.0593
  830MOL0     C 9489   2.392   2.762   5.885  0.6285  0.2381 -0.5925
  830MOL0     C 9490   2.270   2.821   5.816  1.0101  0.4221  0.3469
  830MOL0     C 9491   2.292   2.934   5.726 -0.8443 -0.0730  0.2727
  830MOL0     C 9492   2.305   3.008   5.629 -0.2518 -0.0829 -0.1998
  830MOL0     C 9493   2.089   2.421   6.014 -0.7220  0.2763 -0.0122
  830MOL0     C 9494   2.062   2.294   5.954  0.3093  0.0703  0.2266
  830MOL0     H 9495   1.863   2.093   5.440  2.5488 -0.3682  1.1189
  830MOL0     H 9496   1.711   1.907   5.347 -1.0140  1.5355  0.3610
  830MOL0     H 9497   1.484   1.696   5.668  3.7378  0.8164 -0.9299
  830MOL0     H 9498   1.471   1.586   5.532 -3.1316 -0.8887  0.0221
  830MOL0     H 9499   1.290   1.812   5.474 -0.8623  0.5048  0.9919
  830MOL0     H 9500   1.244   1.724   5.610  0.0729  0.7857 -0.6876
  830MOL0     H 9501   1.265   1.505   5.477 -3.5338  0.7997  5.0354
  830MOL0     H 9502   1.334   1.602   5.347  0.3711 -0.6204  0.2712
  830MOL0     H 9503   1.077   1.526   5.373 -1.0691  1.5249 -2.4262
  830MOL0     H 9504   1.054   1.666   5.475  1.3800  1.7668  0.5283
  830MOL0     H 9505   1.158   1.665   5.185 -0.3620 -0.1898  0.2174
  830MOL0     H 9506   1.142   1.816   5.278  0.0413 -0.2806  0.9953
  830MOL0     H 9507   0.892   1.743   5.308  2.0423 -0.6431  2.6524
  830MOL0     H 9508   0.917   1.612   5.206 -2.7007  0.4915  2.7174
  830MOL0     H 9509   1.016   1.875   5.086 -1.1585  1.7222  2.9603
  830MOL0     H 9510   0.942   1.738   4.998 -1.9312 -1.6858  2.3545
  830MOL0     H 9511   0.810   1.956   5.156  0.9115 -1.6593  2.4794
  830MOL0     H 9512   0.726   1.812   5.103 -0.6323  0.6082 -0.0499
  830MOL0     H 9513   0.911   2.119   4.928 -1.4770  2.4439  1.0738
  830MOL0     H 9514   0.702   2.209   4.622  2.0864  1.5135 -0.5975
  830MOL0     H 9515   0.831   2.261   4.725 -0.6011  2.3238  2.2976
  830MOL0     H 9516   0.699   2.401   4.843  2.5220 -0.3894 -0.9742
  830MOL0     H 9517   0.581   2.269   4.879 -1.3619  1.3001  0.1337
  830MOL0     H 9518   0.514   2.294   4.617  1.1529 -2.4793  2.2119
  830MOL0     H 9519   0.449   2.399   4.740 -1.0076  0.4106 -1.5845
  830MOL0     H 9520   0.632   2.580   4.696 -0.7415  2.6840 -1.2239
  830MOL0     H 9521   0.513   2.546   4.574 -1.2136 -1.7471  0.2476
  830MOL0     H 9522   0.915   2.519   4.377 -1.4650 -0.6136  1.5288
  830MOL0     H 9523   0.960   2.701   4.222 -0.6763 -1.4821 -0.3955
  830MOL0     H 9524   1.049   3.167   4.148  0.2507 -0.0761 -0.5942
  830MOL0     H 9525   1.147   3.294   3.976 -0.2182  0.1920  2.2039
  830MOL0     H 9526   1.003   3.203   3.574  0.3421  3.0812 -2.9301
  830MOL0     H 9527   1.155   3.100   3.565  1.7837 -1.1987  5.0802
  830MOL0     H 9528   1.142   3.411   3.512 -0.9315 -0.0061 -1.5544
  830MOL0     H 9529   1.138   3.283   3.393  1.8982 -0.9974 -0.2271
  830MOL0     H 9530   1.361   3.321   3.613  1.7224  3.5760 -0.0660
  830MOL0     H 9531   1.365   3.382   3.452  1.0038  1.2892  2.3370
  830MOL0     H 9532   1.503   3.177   3.514  1.4319  1.5411 -1.3601
  830MOL0     H 9533   1.341   3.091   3.513 -1.0294  3.3653  2.0677
  830MOL0     H 9534   1.465   3.243   3.273  0.5642  0.8563  0.1274
  830MOL0     H 9535   1.313   3.156   3.270  1.5772 -0.2663  0.4330
  830MOL0     H 9536   1.501   3.028   3.150  1.3826 -2.5731  0.1265
  830MOL0     H 9537   1.404   2.946   3.277  1.5186 -1.6473 -0.4892
  830MOL0     H 9538   1.662   3.072   3.336  2.3372 -1.8794 -1.4173
  830MOL0     H 9539   1.579   2.953   3.430 -1.1371  2.8152  1.3603
  830MOL0     H 9540   1.599   2.780   3.263 -1.5491  2.0948  0.8218
  830MOL0     H 9541   1.755   2.842   3.319 -0.0281  1.0037  0.9281
  830MOL0     H 9542   1.028   2.984   3.688  0.9367 -0.5708  0.8158
  830MOL0     H 9543   0.903   2.870   3.879 -1.1420  0.1573 -0.8309
  830MOL0     H 9544   0.651   2.941   4.423 -2.0695 -1.1326  0.7889
  830MOL0     H 9545   0.592   2.753   4.556 -0.8700 -1.3373  0.5121
  830MOL0     H 9546   1.549   1.872   5.739 -1.1075  1.7392 -0.0608
  830MOL0     H 9547   1.710   2.028   5.834  1.6909  0.1168  0.5758
  830MOL0     H 9548   1.926   2.426   5.661 -1.0285  1.9338 -0.1849
  830MOL0     H 9549   1.982   2.626   5.772  3.0095  0.6742  0.0888
  830MOL0     H 9550   2.237   2.581   6.134  2.1810 -2.6452 -2.8153
  830MOL0     H 9551   2.245   2.766   6.100  0.5630  0.9806 -2.4069
  830MOL0     H 9552   2.436   2.591   6.021  2.0690  1.1503 -1.0473
  830MOL0     H 9553   2.321   2.560   5.898 -0.2075  0.7717 -0.4182
  830MOL0     H 9554   2.459   2.736   5.803  0.1689 -0.3078 -0.8096
  830MOL0     H 9555   2.438   2.829   5.957  2.3167 -4.4765  3.2777
  830MOL0     H 9556   2.219   2.745   5.756  1.5129  2.1391 -2.3972
  830MOL0     H 9557   2.193   2.851   5.888 -0.5320 -2.2381 -0.0349
  830MOL0     H 9558   2.305   3.079   5.548  2.3253 -1.3712 -1.4469
  830MOL0     H 9559   2.133   2.416   6.113 -1.2869  2.4119  0.3979
  830MOL0     H 9560   2.096   2.205   6.005  1.5658 -0.0246 -0.7278
  831MOL0     O 9561   5.114   0.696   3.544 -0.4314  0.2528  0.3865
  831MOL0     C 9562   5.196   0.651   3.621  0.4609 -0.9582  0.0646
  831MOL0     O 9563   5.320   0.610   3.584 -0.3639 -0.2888 -0.1697
  831MOL0     C 9564   5.373   0.631   3.455  0.2658 -0.5471 -0.2694
  831MOL0     C 9565   5.339   0.723   3.362 -0.2842  0.0258 -0.3537
  831MOL0     C 9566   5.405   0.727   3.243  0.4644 -0.4581  0.7259
  831MOL0     C 9567   5.510   0.647   3.204  0.0509  0.0360  0.5896
  831MOL0     O 9568   5.570   0.657   3.081  0.3492  0.7631  0.0507
  831MOL0     C 9569   5.704   0.655   3.079 -0.0373  0.0093  0.0698
  831MOL0     C 9570   5.759   0.732   2.961 -0.4257  0.0268 -1.0799
  831MOL0     C 9571   5.775   0.884   2.992 -0.1021  0.2754  0.5955
  831MOL0     C 9572   5.642   0.951   3.000  0.1066  0.2580 -0.4034
  831MOL0     C 9573   5.654   1.101   3.012  0.4228 -0.0614 -0.3335
  831MOL0     C 9574   5.540   1.165   3.097  0.3845 -0.1503 -0.1651
  831MOL0     C 9575   5.564   1.312   3.144 -0.3563 -0.5271  0.4278
  831MOL0     C 9576   5.666   1.323   3.251  0.0376 -0.4259 -0.2277
  831MOL0     N 9577   5.654   1.458   3.321 -0.1762 -0.0750  0.5753
  831MOL0     C 9578   5.719   1.575   3.296  0.4292 -0.2653  0.9939
  831MOL0     C 9579   5.673   1.666   3.383 -0.2426  0.4904  0.7551
  831MOL0     C 9580   5.727   1.805   3.394 -0.1314 -0.8465 -0.8260
  831MOL0     C 9581   5.757   1.839   3.546  1.3260  0.6680 -0.0406
  831MOL0     C 9582   5.901   1.848   3.589 -0.9532 -0.0680 -0.9960
  831MOL0     C 9583   5.983   1.720   3.588  0.6199 -0.7315  0.3707
  831MOL0     O 9584   5.961   1.657   3.715  0.1624 -0.9845 -1.0840
  831MOL0     C 9585   6.000   1.706   3.845 -0.1812  0.1646  0.1595
  831MOL0     C 9586   6.109   1.797   3.858 -0.1073 -0.3219 -0.0595
  831MOL0     C 9587   6.146   1.844   3.985 -0.0391  0.3373 -0.8486
  831MOL0     C 9588   6.091   1.801   4.096 -0.1411 -1.0446 -0.0292
  831MOL0     C 9589   6.132   1.857   4.223 -0.1326  0.2220 -0.2919
  831MOL0     O 9590   6.205   1.968   4.227  0.4343 -0.0881  0.8870
  831MOL0     C 9591   6.273   1.990   4.340  0.4709  0.1480 -0.4728
  831MOL0     C 9592   6.259   2.114   4.409  0.0214  0.9791  0.0612
  831MOL0     C 9593   6.339   2.137   4.519  0.3396  0.5204 -0.0554
  831MOL0     C 9594   6.444   2.047   4.553 -0.0172 -0.1718 -0.5581
  831MOL0     O 9595   6.521   2.077   4.659 -0.1471 -1.8532  0.3759
  831MOL0     C 9596   6.477   2.024   4.785  0.1400 -0.3137 -0.0949
  831MOL0     C 9597   6.436   2.137   4.880 -0.5315 -0.0992 -0.0061
  831MOL0     C 9598   6.380   2.086   5.016  1.0846 -0.0886 -0.5138
  831MOL0     C 9599   6.375   2.205   5.124 -0.2068  0.0118  0.3676
  831MOL0     C 9600   6.280   2.190   5.244  0.3466  0.1175  0.2389
  831MOL0     C 9601   6.284   2.314   5.335 -0.1123 -0.4983 -0.5779
  831MOL0     C 9602   6.423   2.337   5.392 -0.0834  0.5215 -0.0677
  831MOL0     C 9603   6.415   2.391   5.539 -0.0853  0.3463 -0.0230
  831MOL0    Cl 9604   6.574   2.371   5.616 -0.8694  0.1995 -0.0275
  831MOL0     C 9605   6.464   1.933   4.486 -0.5708 -0.7487  0.9785
  831MOL0     C 9606   6.365   1.899   4.384 -0.5336 -0.4402 -0.4974
  831MOL0     O 9607   6.088   1.799   4.323 -0.4598 -0.7169  0.0999
  831MOL0     C 9608   5.974   1.720   4.085 -1.0454  0.1630 -0.4086
  831MOL0     C 9609   5.930   1.670   3.957 -0.1778  0.0495 -0.3858
  831MOL0     N 9610   5.580   1.595   3.462 -0.6976 -0.3441  0.2839
  831MOL0     N 9611   5.581   1.472   3.434 -0.6821 -0.2894 -0.4696
  831MOL0     C 9612   5.546   0.542   3.301  0.9615  0.8242 -0.3674
  831MOL0     C 9613   5.472   0.533   3.421  0.3917 -0.3326  0.5997
  831MOL0     C 9614   5.157   0.644   3.765  0.1906  0.0726  0.1779
  831MOL0     C 9615   5.050   0.724   3.821 -0.0850 -0.0606 -0.1985
  831MOL0     C 9616   5.022   0.730   3.959  0.0682  0.5167 -0.6880
  831MOL0     C 9617   5.097   0.640   4.047 -0.5404 -0.3761  0.7218
  831MOL0     O 9618   5.063   0.647   4.173  0.0886 -0.3506  0.6225
  831MOL0     C 9619   5.109   0.548   4.272  0.6255  0.0604  0.1243
  831MOL0     C 9620   5.261   0.540   4.320  1.2843  1.2958  0.7186
  831MOL0     C 9621   5.292   0.662   4.413 -1.0667  0.2903  0.0483
  831MOL0     C 9622   5.397   0.637   4.522 -0.7394  0.2143  0.5210
  831MOL0     C 9623   5.451   0.765   4.572 -0.6179 -0.1120  0.9037
  831MOL0     C 9624   5.514   0.869   4.595 -0.3021  0.1614 -0.4590
  831MOL0     C 9625   5.196   0.560   3.988  0.0808 -0.5882  0.0282
  831MOL0     C 9626   5.223   0.562   3.855 -0.5209  0.1900 -0.1981
  831MOL0     H 9627   5.244   0.772   3.381  0.0738 -0.5992  4.2006
  831MOL0     H 9628   5.372   0.807   3.177  0.8559  1.6246  2.9192
  831MOL0     H 9629   5.727   0.548   3.074  0.4120  0.1652 -1.5629
  831MOL0     H 9630   5.748   0.699   3.170  2.0092  2.0306 -1.7605
  831MOL0     H 9631   5.699   0.699   2.876 -1.1395 -0.3881 -0.4321
  831MOL0     H 9632   5.866   0.711   2.953 -0.0719  0.3238  1.7495
  831MOL0     H 9633   5.829   0.936   2.913 -1.2617 -0.2446 -0.5782
  831MOL0     H 9634   5.825   0.902   3.088  4.5729 -0.2216 -1.4738
  831MOL0     H 9635   5.587   0.920   2.911  0.4107 -0.1320 -0.4588
  831MOL0     H 9636   5.588   0.918   3.089 -0.2716  0.9582 -0.3680
  831MOL0     H 9637   5.651   1.152   2.914 -1.1705  0.7382  0.0900
  831MOL0     H 9638   5.754   1.124   3.050  0.8324 -2.2956  0.0420
  831MOL0     H 9639   5.525   1.100   3.183  0.0205 -2.1860 -1.6892
  831MOL0     H 9640   5.457   1.163   3.026  2.1153  0.2306 -2.3134
  831MOL0     H 9641   5.596   1.368   3.056  1.6060 -1.4552  0.4859
  831MOL0     H 9642   5.476   1.355   3.192  1.3918  0.9053  2.5440
  831MOL0     H 9643   5.769   1.311   3.216  1.3071 -0.7259  3.2117
  831MOL0     H 9644   5.654   1.248   3.330  3.5057 -0.4925  0.3812
  831MOL0     H 9645   5.782   1.591   3.209  1.3400  0.3384  1.7527
  831MOL0     H 9646   5.652   1.872   3.351  0.7794  1.4714  0.9833
  831MOL0     H 9647   5.821   1.814   3.339  1.9994 -3.4017  2.0241
  831MOL0     H 9648   5.693   1.780   3.613 -0.7815  1.1731 -1.5223
  831MOL0     H 9649   5.723   1.942   3.556  0.3246  0.2876  0.5582
  831MOL0     H 9650   5.946   1.911   3.512 -1.4310  1.1219 -0.3294
  831MOL0     H 9651   5.917   1.897   3.685  1.3636 -3.3702  0.5125
  831MOL0     H 9652   6.084   1.761   3.578  1.4786 -2.9276 -0.5208
  831MOL0     H 9653   5.967   1.670   3.492 -3.2754  1.2097 -0.1911
  831MOL0     H 9654   6.167   1.824   3.770 -1.5979  3.6954 -0.0124
  831MOL0     H 9655   6.222   1.920   3.972  1.5522 -1.3167 -1.7786
  831MOL0     H 9656   6.180   2.183   4.380 -2.1968 -1.1547  0.6046
  831MOL0     H 9657   6.304   2.218   4.581  0.8861 -0.5249  1.6986
  831MOL0     H 9658   6.560   1.967   4.828  0.2520 -0.2198 -0.1863
  831MOL0     H 9659   6.398   1.948   4.780 -0.2287 -0.0577  1.4043
  831MOL0     H 9660   6.366   2.208   4.837 -2.1771  0.4028  3.1866
  831MOL0     H 9661   6.524   2.195   4.907 -0.4212 -0.1667 -0.2165
  831MOL0     H 9662   6.434   1.998   5.050 -0.0713 -0.7399 -0.2995
  831MOL0     H 9663   6.280   2.044   5.001  0.4231  0.0462  2.8098
  831MOL0     H 9664   6.478   2.226   5.155  0.9206 -0.4984 -2.7156
  831MOL0     H 9665   6.344   2.297   5.075  2.6102  1.3862  0.9594
  831MOL0     H 9666   6.298   2.100   5.304  2.9913  0.4622  0.0687
  831MOL0     H 9667   6.174   2.183   5.217  0.2329 -1.6122  0.9691
  831MOL0     H 9668   6.216   2.295   5.419  0.4856  2.3494  0.6710
  831MOL0     H 9669   6.253   2.404   5.281 -2.0568 -0.7790 -0.0331
  831MOL0     H 9670   6.472   2.239   5.389 -2.0353 -0.5594  1.2795
  831MOL0     H 9671   6.474   2.412   5.330  0.7479 -0.2210 -0.2992
  831MOL0     H 9672   6.347   2.329   5.598  2.9641 -1.7693  1.5614
  831MOL0     H 9673   6.375   2.493   5.545  2.5880  1.4676  0.6666
  831MOL0     H 9674   6.559   1.882   4.497  0.0489  0.1619 -0.0339
  831MOL0     H 9675   6.398   1.808   4.334  1.7928  0.6371 -1.0554
  831MOL0     H 9676   5.930   1.690   4.180  0.2875 -1.8093 -0.3448
  831MOL0     H 9677   5.847   1.602   3.941  0.5900 -1.0899  0.3071
  831MOL0     H 9678   5.629   0.475   3.286  0.6130 -0.0280  1.2727
  831MOL0     H 9679   5.478   0.455   3.497  0.8102 -1.4393 -0.5314
  831MOL0     H 9680   4.973   0.774   3.762  0.6491  0.7979 -0.4450
  831MOL0     H 9681   4.938   0.785   4.000 -1.2246 -0.7376 -1.5272
  831MOL0     H 9682   5.085   0.452   4.226  0.8616 -1.8118  3.5059
  831MOL0     H 9683   5.050   0.548   4.364  1.9588  0.5173  1.0185
  831MOL0     H 9684   5.279   0.443   4.367 -1.5512  1.7756  3.0850
  831MOL0     H 9685   5.331   0.544   4.236  1.6602  0.2648  0.9681
  831MOL0     H 9686   5.210   0.698   4.475 -1.4478  1.2712 -0.9964
  831MOL0     H 9687   5.330   0.739   4.346  1.5894 -1.8162 -1.0453
  831MOL0     H 9688   5.362   0.575   4.605  0.3936  0.3493  1.1114
  831MOL0     H 9689   5.483   0.587   4.476  1.6268  2.0406  2.6888
  831MOL0     H 9690   5.577   0.954   4.612 -1.0365  0.3828  1.3599
  831MOL0     H 9691   5.254   0.491   4.048  1.1608 -1.0281 -1.4340
  831MOL0     H 9692   5.310   0.504   3.824 -0.6114  0.4088 -0.8803
  832MOL0     O 9693   4.377   0.015  11.032  0.8278 -0.6348 -0.4390
  832MOL0     C 9694   4.412  -0.082  11.105 -0.3480  0.1180 -0.4176
  832MOL0     O 9695   4.545  -0.114  11.146  0.2710  0.2490  0.1701
  832MOL0     C 9696   4.662  -0.038  11.104  0.1250 -0.2233  0.3700
  832MOL0     C 9697   4.667   0.045  10.984  0.1328  0.3599  0.4781
  832MOL0     C 9698   4.781   0.108  10.940  0.3586 -0.2953  0.1468
  832MOL0     C 9699   4.901   0.074  11.003 -0.2153 -0.5686  0.4954
  832MOL0     O 9700   5.015   0.127  10.962  0.1586  0.2598 -0.1378
  832MOL0     C 9701   5.078   0.032  10.880 -0.1964  1.2951 -0.5957
  832MOL0     C 9702   5.190   0.104  10.815 -0.6346  0.6716  1.4561
  832MOL0     C 9703   5.268  -0.005  10.731 -0.0347  0.3754 -0.0272
  832MOL0     C 9704   5.391  -0.060  10.805  0.6208  0.2460  0.7288
  832MOL0     C 9705   5.492  -0.121  10.716  0.4727  0.3909 -1.3281
  832MOL0     C 9706   5.442  -0.232  10.624  0.1881  0.8275 -0.3164
  832MOL0     C 9707   5.545  -0.274  10.511  0.9036 -0.0119 -0.1043
  832MOL0     C 9708   5.561  -0.171  10.400  0.0083 -0.2704 -0.7739
  832MOL0     N 9709   5.658  -0.231  10.306  0.9467 -0.5385  0.2766
  832MOL0     C 9710   5.788  -0.195  10.286 -0.4435  0.2474 -0.2328
  832MOL0     C 9711   5.831  -0.272  10.182  1.1157  0.1141 -0.3411
  832MOL0     C 9712   5.972  -0.258  10.129  0.2987 -0.5778  0.3931
  832MOL0     C 9713   6.076  -0.335  10.212 -0.1078 -0.2432  0.4650
  832MOL0     C 9714   6.062  -0.486  10.187  0.4781  0.9570 -0.4079
  832MOL0     C 9715   6.102  -0.522  10.053  0.2946  1.4669  0.6606
  832MOL0     O 9716   6.213  -0.454   9.988  0.3091 -0.1045 -0.2921
  832MOL0     C 9717   6.298  -0.528   9.900  0.3786  0.0368  0.5151
  832MOL0     C 9718   6.423  -0.566   9.949  0.1352  0.3679  0.6909
  832MOL0     C 9719   6.517  -0.622   9.863 -0.8690  1.5089  0.0316
  832MOL0     C 9720   6.478  -0.657   9.731 -0.0801 -0.4714  0.5502
  832MOL0     C 9721   6.570  -0.729   9.632  0.0436 -0.1657 -0.5915
  832MOL0     O 9722   6.518  -0.751   9.511 -0.2682 -0.2664  0.2537
  832MOL0     C 9723   6.601  -0.836   9.436 -0.1789  0.8194  0.0321
  832MOL0     C 9724   6.700  -0.784   9.351 -0.1807  1.1092  0.8560
  832MOL0     C 9725   6.781  -0.873   9.273  0.2803  0.1576 -0.5379
  832MOL0     C 9726   6.768  -1.008   9.282  1.3419  1.2175  0.5666
  832MOL0     O 9727   6.833  -1.091   9.187  0.3270 -0.2519  0.1372
  832MOL0     C 9728   6.766  -1.202   9.137 -0.0556  1.1549  0.6078
  832MOL0     C 9729   6.794  -1.334   9.212  0.0537  0.8142  0.5204
  832MOL0     C 9730   6.731  -1.470   9.162  0.1327 -1.2030 -0.4322
  832MOL0     C 9731   6.777  -1.573   9.266 -0.4348 -0.2467 -0.1807
  832MOL0     C 9732   6.716  -1.707   9.245 -0.0697 -0.3467  0.6349
  832MOL0     C 9733   6.797  -1.798   9.151 -0.1637 -1.4804 -0.1780
  832MOL0     C 9734   6.787  -1.935   9.195  0.0401  0.3322 -0.6063
  832MOL0     C 9735   6.924  -1.960   9.271  0.3335 -0.1994 -0.0351
  832MOL0    Cl 9736   6.890  -2.079   9.400  0.3351 -0.0991 -0.0572
  832MOL0     C 9737   6.670  -1.066   9.375 -0.3036  0.3579 -0.4054
  832MOL0     C 9738   6.591  -0.974   9.447 -0.2205 -0.5062 -0.4489
  832MOL0     O 9739   6.689  -0.751   9.660 -0.5363 -0.9619  0.5094
  832MOL0     C 9740   6.351  -0.615   9.681  0.1513 -0.3250  0.2830
  832MOL0     C 9741   6.267  -0.546   9.768  0.0260  0.4368 -0.2767
  832MOL0     N 9742   5.731  -0.360  10.157 -0.0535  0.1565 -0.3358
  832MOL0     N 9743   5.629  -0.326  10.216  0.4206 -0.0360  0.3332
  832MOL0     C 9744   4.898  -0.009  11.109  0.5220  0.4970  0.0935
  832MOL0     C 9745   4.786  -0.070  11.159  1.4168  0.0566  0.8373
  832MOL0     C 9746   4.299  -0.173  11.155 -0.3904  0.2500  0.9018
  832MOL0     C 9747   4.325  -0.306  11.180  0.5545 -0.6830  0.3566
  832MOL0     C 9748   4.224  -0.404  11.190 -0.0525  0.3304  0.2400
  832MOL0     C 9749   4.090  -0.371  11.191 -0.4568 -0.2722  1.1440
  832MOL0     O 9750   3.996  -0.475  11.199 -0.8709 -0.5223 -0.5291
  832MOL0     C 9751   3.851  -0.441  11.223 -0.2047 -0.1965  0.2691
  832MOL0     C 9752   3.769  -0.571  11.194  0.3385 -0.3972 -0.0194
  832MOL0     C 9753   3.620  -0.544  11.172  0.0638  0.3248  0.0140
  832MOL0     C 9754   3.548  -0.689  11.159 -0.7952 -0.4120  0.1899
  832MOL0     C 9755   3.406  -0.655  11.163 -0.5983  0.3623  0.4121
  832MOL0     C 9756   3.297  -0.606  11.183  0.0489 -1.7114 -0.4026
  832MOL0     C 9757   4.054  -0.235  11.169  0.7022  0.8360  1.2516
  832MOL0     C 9758   4.162  -0.138  11.145 -0.8827 -0.2067  0.6986
  832MOL0     H 9759   4.582   0.056  10.917 -0.3478 -3.6154  0.2001
  832MOL0     H 9760   4.785   0.175  10.854  1.0759 -1.2300 -0.5653
  832MOL0     H 9761   5.006   0.003  10.802 -1.5694  0.5367  0.9008
  832MOL0     H 9762   5.112  -0.055  10.937 -0.4923  0.5927 -1.4699
  832MOL0     H 9763   5.256   0.141  10.893  2.2261 -0.5192 -0.2323
  832MOL0     H 9764   5.140   0.184  10.759 -0.4651  0.6535  1.2775
  832MOL0     H 9765   5.311   0.042  10.642 -2.2758 -0.3747 -1.5924
  832MOL0     H 9766   5.202  -0.086  10.700 -0.0108  1.1192 -2.1808
  832MOL0     H 9767   5.426   0.027  10.862  1.0402  0.5334  0.0497
  832MOL0     H 9768   5.365  -0.133  10.882 -0.5808 -1.2233 -0.9721
  832MOL0     H 9769   5.576  -0.146  10.781  0.1363  0.3580 -0.8962
  832MOL0     H 9770   5.529  -0.043  10.649 -1.8923 -0.2039 -3.5087
  832MOL0     H 9771   5.354  -0.190  10.575 -0.1161  2.7529  1.6912
  832MOL0     H 9772   5.413  -0.321  10.680 -0.8397  1.6581  0.5064
  832MOL0     H 9773   5.637  -0.308  10.560  1.0984 -2.9719 -2.2507
  832MOL0     H 9774   5.514  -0.372  10.472 -1.4558 -0.2994  2.1845
  832MOL0     H 9775   5.587  -0.072  10.438 -0.5578  0.1174 -1.3666
  832MOL0     H 9776   5.461  -0.152  10.360 -0.3172 -3.0111 -1.4390
  832MOL0     H 9777   5.839  -0.119  10.344  3.3801 -2.0482 -0.2390
  832MOL0     H 9778   5.991  -0.151  10.116 -1.1441 -0.3078  0.4062
  832MOL0     H 9779   5.975  -0.299  10.028  0.8741 -0.9554  0.5568
  832MOL0     H 9780   6.077  -0.323  10.321  4.5358 -1.6537  0.8153
  832MOL0     H 9781   6.178  -0.313  10.178 -0.2500 -3.1132 -2.2754
  832MOL0     H 9782   6.137  -0.531  10.252  1.3697  0.1868 -1.9108
  832MOL0     H 9783   5.961  -0.516  10.217  0.5421  0.4880 -0.6569
  832MOL0     H 9784   6.005  -0.511  10.002 -0.1561 -0.7781  0.9370
  832MOL0     H 9785   6.127  -0.628  10.060 -0.6085  1.1941  0.0193
  832MOL0     H 9786   6.462  -0.539  10.047  1.3985  0.7626  0.0969
  832MOL0     H 9787   6.618  -0.643   9.898 -0.7058  1.0414 -0.6867
  832MOL0     H 9788   6.708  -0.678   9.334 -0.8330  1.0055 -0.1994
  832MOL0     H 9789   6.854  -0.846   9.196  0.9234 -0.6248 -0.2182
  832MOL0     H 9790   6.795  -1.208   9.032  0.5562  2.0310  0.7158
  832MOL0     H 9791   6.658  -1.184   9.147 -0.6462 -2.0855  1.3166
  832MOL0     H 9792   6.783  -1.317   9.319  1.9610  1.4039  0.6684
  832MOL0     H 9793   6.897  -1.362   9.187 -0.6067 -1.9661  0.6294
  832MOL0     H 9794   6.772  -1.480   9.061  1.8401  2.3669 -0.2377
  832MOL0     H 9795   6.622  -1.461   9.153  0.3789  1.7421 -1.3672
  832MOL0     H 9796   6.886  -1.579   9.258 -0.2436  1.8475  0.3537
  832MOL0     H 9797   6.752  -1.526   9.361 -2.1281  2.4731 -1.8190
  832MOL0     H 9798   6.616  -1.708   9.200  0.2027  1.5001 -0.0912
  832MOL0     H 9799   6.709  -1.743   9.348 -0.3574  1.5118  1.3042
  832MOL0     H 9800   6.900  -1.769   9.126  0.0152 -1.6883  0.3181
  832MOL0     H 9801   6.745  -1.779   9.056 -1.6757 -0.5621  0.7938
  832MOL0     H 9802   6.697  -1.945   9.257  0.7790  2.0979  0.8397
  832MOL0     H 9803   6.783  -1.982   9.096  1.7181  1.0508 -1.0554
  832MOL0     H 9804   6.950  -1.870   9.327  3.8045 -1.5521  0.7935
  832MOL0     H 9805   7.012  -1.985   9.211  1.0050 -0.4535  1.0301
  832MOL0     H 9806   6.641  -1.170   9.376  0.5341  0.1019  1.7264
  832MOL0     H 9807   6.503  -1.013   9.498 -2.1163  2.7217 -0.9812
  832MOL0     H 9808   6.324  -0.608   9.576 -2.6164 -0.3130  0.9237
  832MOL0     H 9809   6.176  -0.502   9.729 -1.8403 -3.4779 -0.7066
  832MOL0     H 9810   4.997  -0.042  11.137 -0.6990 -3.4627  0.3316
  832MOL0     H 9811   4.794  -0.139  11.242  0.3014 -2.2674 -0.8479
  832MOL0     H 9812   4.428  -0.334  11.159  1.4221  0.6579  2.4277
  832MOL0     H 9813   4.233  -0.512  11.198 -0.9871  0.0870 -1.5371
  832MOL0     H 9814   3.829  -0.353  11.161 -3.8184 -1.4084 -0.4096
  832MOL0     H 9815   3.838  -0.405  11.325  1.6205 -2.1799  1.2668
  832MOL0     H 9816   3.819  -0.612  11.106  0.0221 -0.0911 -0.3468
  832MOL0     H 9817   3.783  -0.636  11.281 -1.4567  2.6208  2.7402
  832MOL0     H 9818   3.610  -0.494  11.076  3.0272  0.0027 -0.5622
  832MOL0     H 9819   3.575  -0.476  11.245  2.8485  2.5313 -0.1452
  832MOL0     H 9820   3.567  -0.728  11.059  0.4911 -0.8541  0.5813
  832MOL0     H 9821   3.590  -0.757  11.234 -1.6987 -2.7952 -1.3331
  832MOL0     H 9822   3.201  -0.564  11.208  0.9241  0.3366 -0.2233
  832MOL0     H 9823   3.952  -0.203  11.153 -1.1428 -4.6744  0.0730
  832MOL0     H 9824   4.129  -0.038  11.123 -0.5178 -0.4240 -1.0009
  833MOL0     O 9825   9.440   3.389   5.805  0.4780 -0.3633  0.2340
  833MOL0     C 9826   9.432   3.277   5.747 -0.2139 -0.1293  0.6470
  833MOL0     O 9827   9.464   3.150   5.793  0.2570  0.6506 -0.6009
  833MOL0     C 9828   9.553   3.143   5.900  0.8773 -0.5679  0.3032
  833MOL0     C 9829   9.655   3.228   5.936 -0.2307  0.2430  0.0293
  833MOL0     C 9830   9.744   3.205   6.040  1.0195 -0.5342 -0.3652
  833MOL0     C 9831   9.722   3.099   6.120 -1.0879  0.4647 -1.2544
  833MOL0     O 9832   9.804   3.063   6.215  0.0587  0.5907 -0.3835
  833MOL0     C 9833   9.867   3.163   6.300 -0.7400  0.5452 -0.0189
  833MOL0     C 9834   9.893   3.116   6.443 -0.2342  0.5742  0.8508
  833MOL0     C 9835   9.761   3.115   6.525 -0.0260 -0.8999  0.2898
  833MOL0     C 9836   9.772   3.021   6.645  0.3794 -0.2230 -0.4116
  833MOL0     C 9837   9.628   3.034   6.709  0.1601  0.1717 -0.6558
  833MOL0     C 9838   9.621   3.163   6.799 -0.2122  0.3824 -0.4518
  833MOL0     C 9839   9.484   3.198   6.854  0.5566  0.6894  0.3087
  833MOL0     C 9840   9.454   3.341   6.869  0.4636 -0.2753  0.2710
  833MOL0     N 9841   9.363   3.389   6.767  0.5403 -0.5076 -0.1601
  833MOL0     C 9842   9.388   3.407   6.634  0.7539  0.4863  0.7547
  833MOL0     C 9843   9.288   3.482   6.590  0.6396  0.8768 -0.2602
  833MOL0     C 9844   9.281   3.554   6.458  0.7127  0.5748  0.3129
  833MOL0     C 9845   9.168   3.522   6.352  0.0678  0.3635  0.0682
  833MOL0     C 9846   9.063   3.635   6.324 -0.3039 -0.2515 -0.0455
  833MOL0     C 9847   8.964   3.600   6.206  0.3709  0.4364 -0.6602
  833MOL0     O 9848   8.821   3.629   6.233 -0.6679  0.1721 -0.2485
  833MOL0     C 9849   8.725   3.613   6.132 -0.0334  0.1463  1.1014
  833MOL0     C 9850   8.588   3.628   6.159 -1.5734 -0.4638  0.3491
  833MOL0     C 9851   8.491   3.623   6.057  0.6644  0.5941  0.2798
  833MOL0     C 9852   8.519   3.570   5.925 -0.2955 -0.3631  0.1383
  833MOL0     C 9853   8.424   3.593   5.814 -0.2079 -0.0922  0.3561
  833MOL0     O 9854   8.310   3.659   5.864  0.1740  0.1003 -0.2608
  833MOL0     C 9855   8.203   3.686   5.781  0.4044 -0.1931 -0.2348
  833MOL0     C 9856   8.148   3.589   5.690  0.4963  0.0583  0.4278
  833MOL0     C 9857   8.049   3.633   5.593 -0.0991  0.6064  0.2185
  833MOL0     C 9858   8.000   3.763   5.595 -0.1571  0.8847  0.6796
  833MOL0     O 9859   7.909   3.806   5.510 -0.5624  0.4093 -0.5003
  833MOL0     C 9860   7.790   3.730   5.518 -0.2209  1.3277 -0.4321
  833MOL0     C 9861   7.684   3.799   5.429  0.8996  0.3125  1.0523
  833MOL0     C 9862   7.643   3.932   5.492  0.6095 -0.4796 -0.4065
  833MOL0     C 9863   7.543   4.005   5.404 -0.4724 -0.0764 -0.4612
  833MOL0     C 9864   7.472   4.125   5.478  0.3805 -0.0960 -0.5578
  833MOL0     C 9865   7.375   4.200   5.396  0.2502  1.2197  0.0246
  833MOL0     C 9866   7.254   4.111   5.366  0.3358 -0.0504  0.1188
  833MOL0     C 9867   7.148   4.199   5.286  0.5000 -0.4820  0.3495
  833MOL0    Cl 9868   7.017   4.079   5.232 -0.1396 -0.3985 -0.1602
  833MOL0     C 9869   8.052   3.857   5.697  0.9880  0.9571 -0.4622
  833MOL0     C 9870   8.149   3.819   5.785  0.2485  0.2283 -0.4307
  833MOL0     O 9871   8.453   3.576   5.698 -0.2740 -0.4237 -0.6993
  833MOL0     C 9872   8.653   3.548   5.902 -0.7149  0.0818  0.6612
  833MOL0     C 9873   8.756   3.568   5.997  0.6433 -0.0024 -0.7586
  833MOL0     N 9874   9.196   3.514   6.696 -0.4769 -1.2060  0.2801
  833MOL0     N 9875   9.245   3.455   6.802 -0.4935  0.0099  0.1698
  833MOL0     C 9876   9.630   3.006   6.078 -0.1157 -0.9236 -0.4257
  833MOL0     C 9877   9.549   3.030   5.965  0.5931  0.3221 -0.1836
  833MOL0     C 9878   9.374   3.282   5.602 -0.2234 -0.7635 -1.0307
  833MOL0     C 9879   9.370   3.168   5.526 -0.0325  0.7767 -0.7156
  833MOL0     C 9880   9.305   3.160   5.403 -0.5025  0.0156 -0.1844
  833MOL0     C 9881   9.249   3.271   5.345  0.9590 -0.6212 -1.5922
  833MOL0     O 9882   9.170   3.272   5.239  0.6360 -0.6868  0.0131
  833MOL0     C 9883   9.171   3.156   5.148  0.1815 -0.2520  0.4364
  833MOL0     C 9884   9.304   3.123   5.094  0.6792 -0.0382 -0.0313
  833MOL0     C 9885   9.288   3.086   4.947 -0.5047  0.6838  0.2306
  833MOL0     C 9886   9.201   2.957   4.916  0.1742 -0.1862  0.7761
  833MOL0     C 9887   9.224   2.906   4.778  0.6848 -0.4695  0.7304
  833MOL0     C 9888   9.252   2.869   4.663 -0.1105 -0.3119 -0.0905
  833MOL0     C 9889   9.260   3.392   5.419  0.6879 -0.0877 -0.1910
  833MOL0     C 9890   9.317   3.400   5.545 -0.2636 -0.0556 -0.4061
  833MOL0     H 9891   9.668   3.323   5.884 -2.2246 -0.3538 -1.7111
  833MOL0     H 9892   9.821   3.277   6.062  1.3933 -0.7348 -0.9867
  833MOL0     H 9893   9.812   3.258   6.296  0.0264  0.9727 -2.4890
  833MOL0     H 9894   9.956   3.194   6.245 -0.1668 -0.6250  0.2305
  833MOL0     H 9895   9.973   3.175   6.490  0.7766  1.1359 -1.4527
  833MOL0     H 9896   9.921   3.010   6.446 -1.4556  0.2365  3.6781
  833MOL0     H 9897   9.684   3.072   6.461 -1.1426  1.4801 -0.0607
  833MOL0     H 9898   9.727   3.215   6.550 -3.1077 -2.2544  2.0776
  833MOL0     H 9899   9.793   2.916   6.625 -1.9063 -1.0576  1.1107
  833MOL0     H 9900   9.849   3.055   6.716 -0.4560 -0.9320  0.8773
  833MOL0     H 9901   9.594   2.952   6.772  0.3776 -0.9170 -1.9121
  833MOL0     H 9902   9.548   3.054   6.636  1.9545  3.8179 -1.8858
  833MOL0     H 9903   9.653   3.249   6.739 -0.5944 -1.1804 -3.0380
  833MOL0     H 9904   9.690   3.154   6.884 -0.5803 -0.7177 -0.2613
  833MOL0     H 9905   9.405   3.152   6.794 -0.7045  1.8548  1.0114
  833MOL0     H 9906   9.479   3.157   6.956  0.8720  1.9986  0.8671
  833MOL0     H 9907   9.546   3.399   6.882  1.3258 -1.7145  0.8767
  833MOL0     H 9908   9.403   3.352   6.966  0.9872  1.0905  0.4171
  833MOL0     H 9909   9.473   3.380   6.573  1.2991  1.4568  1.0774
  833MOL0     H 9910   9.365   3.507   6.407 -0.9552 -0.4406 -1.6640
  833MOL0     H 9911   9.293   3.662   6.471 -1.6524  0.8910  0.4000
  833MOL0     H 9912   9.103   3.436   6.373 -2.0343  1.6753 -0.7514
  833MOL0     H 9913   9.221   3.493   6.261 -0.1295  3.3451 -1.1041
  833MOL0     H 9914   9.013   3.641   6.422  0.0763  1.4257  0.0846
  833MOL0     H 9915   9.092   3.738   6.301  0.8384 -0.9245 -1.7566
  833MOL0     H 9916   8.968   3.492   6.191 -2.3533  0.1785 -0.0506
  833MOL0     H 9917   8.988   3.650   6.111 -0.0573 -0.2966 -1.1650
  833MOL0     H 9918   8.549   3.668   6.252 -2.1644  0.7615 -0.4008
  833MOL0     H 9919   8.386   3.640   6.081  0.6442 -0.8964  1.4315
  833MOL0     H 9920   8.186   3.489   5.671  2.8119  1.3298 -2.2105
  833MOL0     H 9921   8.017   3.559   5.520  3.4135 -2.6597  1.6199
  833MOL0     H 9922   7.757   3.725   5.622  1.0565  1.5038  0.0018
  833MOL0     H 9923   7.806   3.626   5.488 -1.3549  0.6949  1.0399
  833MOL0     H 9924   7.589   3.745   5.427  0.6021  0.8565 -0.3932
  833MOL0     H 9925   7.728   3.802   5.329 -0.8176  0.7946  0.2635
  833MOL0     H 9926   7.736   3.988   5.499 -0.7135  1.8926 -0.9409
  833MOL0     H 9927   7.607   3.920   5.595 -2.7701  2.2089 -1.0794
  833MOL0     H 9928   7.591   4.022   5.307 -2.4387  0.5539 -1.3596
  833MOL0     H 9929   7.464   3.935   5.377 -0.8147 -0.7314  1.9478
  833MOL0     H 9930   7.555   4.192   5.501 -0.5526  1.0468 -0.4370
  833MOL0     H 9931   7.424   4.089   5.569 -2.4938 -0.4402 -2.0868
  833MOL0     H 9932   7.441   4.222   5.312  1.1982 -3.9033 -0.9024
  833MOL0     H 9933   7.337   4.291   5.443 -1.6443 -0.9537  3.0697
  833MOL0     H 9934   7.284   4.025   5.306 -0.5200  0.3456 -0.8993
  833MOL0     H 9935   7.211   4.079   5.462  0.4673  0.1564  0.2465
  833MOL0     H 9936   7.201   4.234   5.196 -3.3355  0.8404 -1.6311
  833MOL0     H 9937   7.113   4.286   5.341 -2.0755 -0.3833 -1.2975
  833MOL0     H 9938   8.016   3.958   5.716 -2.2920  0.3959 -2.8419
  833MOL0     H 9939   8.200   3.887   5.854 -1.5509 -0.8292  2.1211
  833MOL0     H 9940   8.683   3.515   5.803 -1.1441  0.1457  0.5100
  833MOL0     H 9941   8.856   3.546   5.962  0.6791 -0.4681 -0.3740
  833MOL0     H 9942   9.610   2.917   6.137 -3.1032  1.5674  2.7359
  833MOL0     H 9943   9.481   2.953   5.930  1.4382  0.4382 -2.1571
  833MOL0     H 9944   9.416   3.077   5.563  1.5432  1.8302  0.0489
  833MOL0     H 9945   9.299   3.061   5.360 -0.7409  0.3729 -0.9894
  833MOL0     H 9946   9.107   3.188   5.066  2.6299 -0.9115 -1.8444
  833MOL0     H 9947   9.125   3.068   5.194 -0.6626 -1.2498 -2.1613
  833MOL0     H 9948   9.366   3.213   5.095  1.3859 -0.5110 -0.4011
  833MOL0     H 9949   9.359   3.043   5.145  0.8808 -0.1200 -0.3773
  833MOL0     H 9950   9.393   3.068   4.923 -0.7031 -1.1454  0.5488
  833MOL0     H 9951   9.252   3.176   4.896  1.4646  2.8656  2.4512
  833MOL0     H 9952   9.220   2.870   4.981  3.1064  1.2924  2.0931
  833MOL0     H 9953   9.097   2.985   4.934  0.3127  1.1771 -0.3997
  833MOL0     H 9954   9.272   2.822   4.569 -2.9726  1.2797 -1.6179
  833MOL0     H 9955   9.222   3.485   5.378  2.6355  2.6108  3.4653
  833MOL0     H 9956   9.331   3.495   5.596 -1.3200 -1.2707  2.3883
  834MOL0     O 9957   1.336   6.100   7.040  0.5912 -0.2583  0.0431
  834MOL0     C 9958   1.260   6.089   7.131 -0.6781  1.2703 -0.6100
  834MOL0     O 9959   1.165   6.179   7.171  0.2174 -0.4182 -0.6627
  834MOL0     C 9960   1.128   6.294   7.099 -0.0641  1.0144 -0.0638
  834MOL0     C 9961   1.081   6.405   7.172 -0.9734  0.2267  0.5135
  834MOL0     C 9962   1.045   6.519   7.112  0.5118 -0.4636 -0.2791
  834MOL0     C 9963   1.038   6.535   6.975 -0.3754  0.8656 -0.6135
  834MOL0     O 9964   1.002   6.651   6.914  0.0159  0.8426  0.9272
  834MOL0     C 9965   0.925   6.757   6.973 -0.7752  0.2642 -0.1807
  834MOL0     C 9966   1.033   6.844   7.072 -0.2364 -0.4293  0.4339
  834MOL0     C 9967   1.094   6.948   6.977 -0.3296  0.1981 -0.2599
  834MOL0     C 9968   1.201   7.044   7.045  0.9626  0.5584  0.4439
  834MOL0     C 9969   1.283   7.120   6.936  0.1883 -0.4778  0.4043
  834MOL0     C 9970   1.365   7.225   7.012 -1.2966 -0.3406  0.5530
  834MOL0     C 9971   1.298   7.352   7.061 -0.2264 -0.3641 -1.1457
  834MOL0     C 9972   1.240   7.443   6.958  0.4584  0.6760 -0.1484
  834MOL0     N 9973   1.302   7.448   6.822 -0.3506 -1.0037  0.7599
  834MOL0     C 9974   1.262   7.383   6.707  0.1613 -0.7224 -0.8002
  834MOL0     C 9975   1.340   7.428   6.605  0.8209  0.0437  1.1560
  834MOL0     C 9976   1.344   7.356   6.467 -0.4480  0.6782  0.2563
  834MOL0     C 9977   1.460   7.252   6.476 -0.6793 -0.3957  0.7078
  834MOL0     C 9978   1.445   7.161   6.353 -0.1687  0.0508  0.2291
  834MOL0     C 9979   1.566   7.163   6.254  0.2367 -0.2020  0.0503
  834MOL0     O 9980   1.679   7.098   6.310  0.4278  0.3262  0.4566
  834MOL0     C 9981   1.687   6.972   6.351 -0.1004  0.7107  0.2374
  834MOL0     C 9982   1.697   6.869   6.254  0.5394  0.4183 -0.2663
  834MOL0     C 9983   1.709   6.740   6.287 -0.5402  0.6987  0.0042
  834MOL0     C 9984   1.736   6.706   6.424 -0.6884 -0.7230  0.9655
  834MOL0     C 9985   1.762   6.567   6.458 -0.0839 -1.4926  0.7593
  834MOL0     O 9986   1.826   6.553   6.575 -0.2291  0.2508 -0.1532
  834MOL0     C 9987   1.868   6.425   6.620  0.0626 -0.8191  0.2817
  834MOL0     C 9988   1.771   6.330   6.650  0.2217  0.5674 -0.0094
  834MOL0     C 9989   1.806   6.214   6.724  0.3754  0.2557 -0.7916
  834MOL0     C 9990   1.938   6.189   6.767 -0.3550  0.1512  0.3398
  834MOL0     O 9991   1.995   6.078   6.832  0.2221 -0.1394  0.6573
  834MOL0     C 9992   1.900   5.980   6.877  0.9680 -0.3846 -0.2228
  834MOL0     C 9993   1.968   5.882   6.978 -0.4967 -0.2352  0.7231
  834MOL0     C 9994   2.010   5.745   6.922 -0.1976 -0.1949 -0.0068
  834MOL0     C 9995   2.083   5.672   7.032 -0.2074  0.4644  0.6428
  834MOL0     C 9996   2.234   5.707   7.012  0.0302  0.3469  0.1577
  834MOL0     C 9997   2.300   5.632   6.905  0.2930 -0.5252  0.6469
  834MOL0     C 9998   2.456   5.650   6.908  0.6160  0.1227  0.1879
  834MOL0     C 9999   2.506   5.551   6.812 -0.3326 -0.4914 -0.3948
  834MOL0    Cl10000   2.470   5.393   6.877 -0.1115  0.0814  0.1677
  834MOL0     C10001   2.030   6.273   6.701  0.4611  0.5770  0.1447
  834MOL0     C10002   1.997   6.391   6.639 -0.1911  0.2701  0.4219
  834MOL0     O10003   1.720   6.479   6.379 -0.2358  0.0475 -0.2557
  834MOL0     C10004   1.741   6.811   6.522 -0.6840  0.3592  0.2459
  834MOL0     C10005   1.719   6.944   6.483  0.5444  0.6873 -0.5072
  834MOL0     N10006   1.414   7.524   6.659  1.3748  0.5328  0.8801
  834MOL0     N10007   1.397   7.529   6.783  0.1226  0.4970  0.0903
  834MOL0     C10008   1.074   6.420   6.896  0.1307 -0.0754 -0.3888
  834MOL0     C10009   1.118   6.301   6.957 -0.0202  0.0953  0.2637
  834MOL0     C10010   1.273   5.978   7.225 -0.1640  0.6303 -0.1839
  834MOL0     C10011   1.177   5.954   7.325 -0.9924  0.2412 -0.7275
  834MOL0     C10012   1.184   5.838   7.403  0.0384  0.7936 -0.0173
  834MOL0     C10013   1.286   5.741   7.396  0.2772 -0.0558  0.1332
  834MOL0     O10014   1.293   5.650   7.501  0.4209  0.1927 -0.2049
  834MOL0     C10015   1.370   5.525   7.491 -0.0037 -0.5513  0.2291
  834MOL0     C10016   1.497   5.538   7.564  0.3248 -0.1272 -0.1882
  834MOL0     C10017   1.592   5.432   7.520  0.0319 -0.7193  0.2361
  834MOL0     C10018   1.562   5.292   7.586  0.2945 -0.1268  0.1744
  834MOL0     C10019   1.591   5.297   7.727 -0.2600  0.3645  1.3418
  834MOL0     C10020   1.629   5.300   7.845  0.8437  0.6827  0.6210
  834MOL0     C10021   1.380   5.765   7.298  0.1724  0.1698 -0.5176
  834MOL0     C10022   1.363   5.874   7.211 -0.9272  0.2427  0.5457
  834MOL0     H10023   1.084   6.408   7.280  0.6810  1.4806  0.4613
  834MOL0     H10024   1.011   6.591   7.186  0.8819 -1.1307  0.5475
  834MOL0     H10025   0.842   6.716   7.031 -0.6775 -0.9318 -0.8551
  834MOL0     H10026   0.893   6.828   6.896  2.4058 -0.4737 -2.3697
  834MOL0     H10027   1.102   6.773   7.119 -0.6853 -0.8024  0.5389
  834MOL0     H10028   0.991   6.900   7.156 -0.1512  0.7683 -0.3054
  834MOL0     H10029   1.010   7.012   6.946 -0.4646  0.4873  0.6742
  834MOL0     H10030   1.139   6.890   6.896 -1.7973 -1.2094 -0.1212
  834MOL0     H10031   1.156   7.109   7.121 -0.0985  0.6030 -0.2166
  834MOL0     H10032   1.281   6.988   7.095 -0.7352 -1.3510  1.1741
  834MOL0     H10033   1.215   7.171   6.867  0.5240 -0.0681  0.3673
  834MOL0     H10034   1.350   7.063   6.871  1.6455  2.8688 -1.2560
  834MOL0     H10035   1.447   7.256   6.946 -1.1882 -0.9126  0.4127
  834MOL0     H10036   1.425   7.174   7.087  1.0863  1.6392  0.1309
  834MOL0     H10037   1.227   7.330   7.141  0.7013  0.4343 -0.0826
  834MOL0     H10038   1.383   7.400   7.110  0.8803 -0.9423 -2.4251
  834MOL0     H10039   1.241   7.546   6.993  0.6289  0.2508  1.1259
  834MOL0     H10040   1.137   7.407   6.946 -0.1753  1.7915  1.6567
  834MOL0     H10041   1.179   7.314   6.703  0.1674 -0.9628  1.7024
  834MOL0     H10042   1.357   7.442   6.401 -1.6366  2.6335  2.3960
  834MOL0     H10043   1.245   7.314   6.449  0.8727 -2.6287 -0.0645
  834MOL0     H10044   1.451   7.191   6.566 -2.6858 -0.5941  0.4251
  834MOL0     H10045   1.553   7.307   6.489 -1.4060  1.2462 -0.6761
  834MOL0     H10046   1.428   7.061   6.392  1.4404 -0.4409 -0.2736
  834MOL0     H10047   1.347   7.185   6.310 -0.0302  1.3100  0.5623
  834MOL0     H10048   1.593   7.260   6.212  0.1070 -1.7405 -4.1265
  834MOL0     H10049   1.539   7.113   6.160  2.5076 -1.6334  0.0902
  834MOL0     H10050   1.682   6.903   6.152  2.4274  0.7009 -0.4727
  834MOL0     H10051   1.706   6.669   6.205  0.5990  1.4261 -0.6994
  834MOL0     H10052   1.669   6.350   6.619  0.0070 -1.8308 -1.0039
  834MOL0     H10053   1.721   6.156   6.759  1.6207 -0.7485  0.7057
  834MOL0     H10054   1.852   5.930   6.793  1.5628  0.0737 -0.8531
  834MOL0     H10055   1.819   6.036   6.924 -0.2568 -0.4779 -2.1265
  834MOL0     H10056   1.897   5.861   7.059  1.8978 -0.8139  2.8014
  834MOL0     H10057   2.057   5.934   7.014  0.5272 -1.3642 -0.0827
  834MOL0     H10058   2.057   5.748   6.824  0.0112 -1.2847  0.0484
  834MOL0     H10059   1.917   5.689   6.904 -0.9803  1.3052 -0.8081
  834MOL0     H10060   2.054   5.701   7.134 -0.2871 -0.0935  0.7814
  834MOL0     H10061   2.059   5.566   7.027  1.2692 -0.1733  4.0898
  834MOL0     H10062   2.288   5.687   7.105 -1.7710  0.4129  1.2798
  834MOL0     H10063   2.250   5.814   6.998  4.2659 -0.2289 -0.5909
  834MOL0     H10064   2.272   5.677   6.810  0.8450 -0.9338  0.2877
  834MOL0     H10065   2.259   5.532   6.924 -0.2712 -0.3744  0.2459
  834MOL0     H10066   2.484   5.748   6.868  0.9364  0.7380  1.8220
  834MOL0     H10067   2.500   5.641   7.008 -1.2772 -1.3709  0.9471
  834MOL0     H10068   2.613   5.574   6.817 -0.5967  0.5807  1.0103
  834MOL0     H10069   2.460   5.557   6.713 -0.2182  0.2483 -0.4038
  834MOL0     H10070   2.137   6.259   6.717  0.6553  1.4644 -0.2876
  834MOL0     H10071   2.080   6.448   6.600 -0.5500 -0.0110 -0.8026
  834MOL0     H10072   1.755   6.782   6.625  0.1253  0.4998  0.1894
  834MOL0     H10073   1.711   7.020   6.561  0.5316 -0.7357  0.9289
  834MOL0     H10074   1.064   6.430   6.788 -2.1665 -0.7472 -0.2835
  834MOL0     H10075   1.148   6.215   6.898 -0.3057 -1.5737  2.4253
  834MOL0     H10076   1.104   6.032   7.342  1.8548  3.2187 -1.2563
  834MOL0     H10077   1.110   5.818   7.479  1.5254  1.4448  1.6956
  834MOL0     H10078   1.395   5.508   7.385  1.3851  1.4539  0.1812
  834MOL0     H10079   1.317   5.442   7.539  1.5842 -2.8586 -1.7274
  834MOL0     H10080   1.540   5.636   7.542 -0.6128  0.3927  0.1971
  834MOL0     H10081   1.480   5.533   7.672 -3.5102  2.5920 -0.4393
  834MOL0     H10082   1.693   5.461   7.551 -1.3069  1.4754  2.9377
  834MOL0     H10083   1.600   5.420   7.411 -0.4331  5.0075 -0.7531
  834MOL0     H10084   1.457   5.270   7.570 -0.1312  0.1399  2.3676
  834MOL0     H10085   1.628   5.215   7.544  1.2122 -0.2119  1.6850
  834MOL0     H10086   1.664   5.299   7.946 -1.0955  3.6003  1.4574
  834MOL0     H10087   1.469   5.704   7.285 -0.2888 -0.5557 -0.3325
  834MOL0     H10088   1.437   5.887   7.133 -1.1598 -1.4276  0.0212
  835MOL0     O10089  11.331   1.110   8.796  0.0534  0.1904 -0.8126
  835MOL0     C10090  11.273   1.156   8.692 -0.3720 -0.4717 -1.2008
  835MOL0     O10091  11.244   1.288   8.669 -0.2157 -0.3611 -0.6940
  835MOL0     C10092  11.283   1.392   8.745 -0.4634 -1.2255 -0.3183
  835MOL0     C10093  11.419   1.415   8.759  0.8721 -0.6272  0.1112
  835MOL0     C10094  11.462   1.526   8.840 -0.7495  0.2075 -0.9216
  835MOL0     C10095  11.364   1.597   8.910 -0.1464 -0.1593 -0.2574
  835MOL0     O10096  11.406   1.698   8.976 -0.1083  0.5933  0.6206
  835MOL0     C10097  11.425   1.830   8.909 -0.2525  0.6132 -0.0010
  835MOL0     C10098  11.324   1.932   8.946  0.0171  0.1967  0.4872
  835MOL0     C10099  11.196   1.939   8.858  0.0431  0.5544 -0.1686
  835MOL0     C10100  11.233   1.996   8.719  0.9805  0.3727  0.7717
  835MOL0     C10101  11.104   2.045   8.641  0.8872 -0.2938  0.1924
  835MOL0     C10102  10.995   1.927   8.642  0.5505 -0.3804  0.1028
  835MOL0     C10103  10.877   1.968   8.556 -0.1431 -0.9685 -0.3003
  835MOL0     C10104  10.748   1.890   8.574  0.0125  0.2334  0.1578
  835MOL0     N10105  10.763   1.746   8.529  0.3423 -0.0212 -0.4475
  835MOL0     C10106  10.769   1.700   8.403 -0.3855 -0.1724  0.2991
  835MOL0     C10107  10.762   1.565   8.405 -0.1156 -0.5133 -0.0094
  835MOL0     C10108  10.777   1.478   8.291 -0.8989  0.2875  0.6091
  835MOL0     C10109  10.933   1.475   8.242 -0.1467 -0.8617 -1.0089
  835MOL0     C10110  11.027   1.431   8.355  0.0805  0.2106 -0.1104
  835MOL0     C10111  11.146   1.358   8.312  0.3362  0.0498 -0.1435
  835MOL0     O10112  11.224   1.432   8.215  0.4098  0.2802  0.3087
  835MOL0     C10113  11.350   1.381   8.187  0.4316 -0.0344 -0.6442
  835MOL0     C10114  11.422   1.446   8.095 -0.2685  1.6678  0.4897
  835MOL0     C10115  11.558   1.418   8.066  0.7032 -0.2157  0.4155
  835MOL0     C10116  11.619   1.305   8.128  0.8122 -0.0778 -0.1016
  835MOL0     C10117  11.755   1.264   8.096  1.1175  0.3704  0.3081
  835MOL0     O10118  11.785   1.133   8.147 -0.1354 -0.5010  0.0182
  835MOL0     C10119  11.914   1.082   8.167  0.2298  0.8276 -0.0342
  835MOL0     C10120  11.935   0.947   8.139 -0.9736  0.5197  0.5199
  835MOL0     C10121  12.065   0.885   8.156 -0.2039 -0.3886  0.1287
  835MOL0     C10122  12.179   0.959   8.187 -0.5893  0.6984 -0.4756
  835MOL0     O10123  12.295   0.890   8.213 -0.3024  0.5017 -0.0658
  835MOL0     C10124  12.419   0.957   8.195 -0.7572  0.1410 -0.3342
  835MOL0     C10125  12.533   0.858   8.188  0.8445 -0.5329 -0.3029
  835MOL0     C10126  12.588   0.845   8.339  0.9897 -0.1740  0.5095
  835MOL0     C10127  12.673   0.718   8.368  0.2359 -0.0311  0.3987
  835MOL0     C10128  12.743   0.722   8.501  0.0970  0.8771 -0.1737
  835MOL0     C10129  12.815   0.582   8.524 -0.4204 -0.3629 -0.1769
  835MOL0     C10130  12.914   0.585   8.635 -1.2599 -0.9648 -0.1665
  835MOL0     C10131  12.998   0.455   8.647  0.4596  0.3914 -0.2019
  835MOL0    Cl10132  13.093   0.476   8.798 -0.4963 -0.6033 -0.3985
  835MOL0     C10133  12.151   1.094   8.222 -0.6674 -0.2615  0.0857
  835MOL0     C10134  12.020   1.154   8.212 -0.6316 -0.9416  0.1642
  835MOL0     O10135  11.822   1.322   8.007  0.0268  0.2549  0.2609
  835MOL0     C10136  11.538   1.230   8.222  0.5555 -0.5157 -0.2518
  835MOL0     C10137  11.404   1.263   8.239  0.1288  0.6736 -0.7741
  835MOL0     N10138  10.752   1.535   8.542 -0.3485  0.2322 -0.7389
  835MOL0     N10139  10.749   1.643   8.616  0.9655  0.1030  0.0759
  835MOL0     C10140  11.224   1.571   8.908 -0.6055  0.2362  1.2895
  835MOL0     C10141  11.185   1.466   8.822 -0.1613  0.7758 -0.4287
  835MOL0     C10142  11.229   1.062   8.590  0.7486 -0.3173  0.1901
  835MOL0     C10143  11.314   0.959   8.564  0.4040  0.4429  0.0158
  835MOL0     C10144  11.275   0.868   8.471  0.2610 -0.0986 -0.4410
  835MOL0     C10145  11.160   0.889   8.391 -0.4307 -0.1808 -0.4131
  835MOL0     O10146  11.120   0.802   8.299  0.7931 -0.3134  0.3928
  835MOL0     C10147  11.184   0.672   8.282 -0.7367  0.3332 -0.2000
  835MOL0     C10148  11.117   0.582   8.191  0.3971  0.3649  0.4998
  835MOL0     C10149  11.136   0.438   8.208 -1.1962 -0.6467  0.6167
  835MOL0     C10150  11.267   0.378   8.164  0.2578 -0.2996  0.0285
  835MOL0     C10151  11.315   0.392   8.021 -0.1799 -0.0438 -0.6389
  835MOL0     C10152  11.354   0.395   7.902 -0.6787  0.7639 -0.6008
  835MOL0     C10153  11.073   0.998   8.416 -1.0401  0.2197  0.5657
  835MOL0     C10154  11.105   1.085   8.519 -0.5751 -0.1986  0.7896
  835MOL0     H10155  11.488   1.355   8.702  0.4591  0.5286 -1.6730
  835MOL0     H10156  11.569   1.542   8.853 -0.5428 -3.2134  5.0732
  835MOL0     H10157  11.446   1.819   8.802  2.2086 -0.3963  0.5025
  835MOL0     H10158  11.520   1.871   8.945  0.6089  1.4878 -2.9806
  835MOL0     H10159  11.359   2.035   8.950 -0.5546  0.5112 -1.4945
  835MOL0     H10160  11.294   1.904   9.048  0.4551 -0.9207  0.3202
  835MOL0     H10161  11.117   1.998   8.904 -1.4421  0.2025 -2.1338
  835MOL0     H10162  11.152   1.840   8.840 -1.6919  0.7587  2.4458
  835MOL0     H10163  11.304   2.079   8.724  1.8917 -0.1661 -1.6234
  835MOL0     H10164  11.282   1.923   8.655 -1.3761 -1.9734  1.4543
  835MOL0     H10165  11.133   2.068   8.538 -0.8849 -0.0828 -0.3043
  835MOL0     H10166  11.057   2.132   8.689 -0.3625 -1.4831  1.2157
  835MOL0     H10167  10.967   1.902   8.745 -2.9620  0.0954 -0.6169
  835MOL0     H10168  11.032   1.836   8.595  0.3570  0.9597 -2.8994
  835MOL0     H10169  10.855   2.072   8.582  1.0936  0.5971 -4.7310
  835MOL0     H10170  10.907   1.959   8.452 -0.0737  2.2844 -0.6678
  835MOL0     H10171  10.665   1.940   8.523 -0.6141 -1.6881 -0.7602
  835MOL0     H10172  10.729   1.892   8.682 -0.1420 -1.3967  0.1856
  835MOL0     H10173  10.796   1.759   8.315 -2.6081 -2.2031 -1.8983
  835MOL0     H10174  10.724   1.515   8.203 -0.8802 -1.9736 -0.4167
  835MOL0     H10175  10.746   1.376   8.317  0.5995 -0.1115  0.9320
  835MOL0     H10176  10.959   1.580   8.228  0.2854 -0.7862  0.2391
  835MOL0     H10177  10.947   1.412   8.154 -0.0331 -1.5829 -0.4929
  835MOL0     H10178  11.061   1.517   8.413 -0.0986 -0.1014  0.4757
  835MOL0     H10179  10.963   1.378   8.426  0.0458  3.3602  2.4395
  835MOL0     H10180  11.102   1.267   8.272 -0.0119  0.0186  0.3061
  835MOL0     H10181  11.207   1.348   8.401  1.8530  0.2159 -1.1201
  835MOL0     H10182  11.375   1.515   8.025 -0.2277  0.3974 -0.8292
  835MOL0     H10183  11.599   1.470   7.981 -1.1011 -0.3695 -0.6047
  835MOL0     H10184  11.856   0.886   8.098 -0.3956  0.9801 -1.3824
  835MOL0     H10185  12.084   0.779   8.144  0.3552 -0.1351 -1.3808
  835MOL0     H10186  12.436   1.031   8.274  2.1160 -0.2784 -0.4428
  835MOL0     H10187  12.417   1.010   8.100 -3.1403  0.9802  0.1188
  835MOL0     H10188  12.611   0.897   8.122 -0.7471 -0.4620 -2.1852
  835MOL0     H10189  12.493   0.763   8.152  0.5075 -0.2275 -0.7358
  835MOL0     H10190  12.501   0.841   8.405  1.5132  1.8251  1.3778
  835MOL0     H10191  12.633   0.938   8.373  0.7907  0.1770 -0.1731
  835MOL0     H10192  12.611   0.628   8.376  2.1421 -1.3461  1.1216
  835MOL0     H10193  12.745   0.706   8.285 -0.1497 -1.0480  0.1922
  835MOL0     H10194  12.670   0.741   8.580 -0.7784  2.9290 -1.3968
  835MOL0     H10195  12.806   0.811   8.487 -0.3769  1.4029  0.9152
  835MOL0     H10196  12.879   0.571   8.436 -0.3924 -0.5666 -0.1313
  835MOL0     H10197  12.756   0.491   8.539  1.7976 -1.9728 -0.6099
  835MOL0     H10198  12.979   0.671   8.619 -2.5232 -0.6061 -4.8831
  835MOL0     H10199  12.870   0.601   8.734  0.2061 -1.5293  0.5986
  835MOL0     H10200  13.063   0.431   8.563 -0.3847 -2.3913 -0.1672
  835MOL0     H10201  12.938   0.364   8.647  2.2516 -1.0516 -4.7656
  835MOL0     H10202  12.221   1.160   8.273 -0.0545  1.4744 -2.7659
  835MOL0     H10203  12.011   1.261   8.232  0.7833 -0.5900 -0.8964
  835MOL0     H10204  11.585   1.150   8.278  0.8141  0.8021  1.4718
  835MOL0     H10205  11.354   1.203   8.314  4.2188 -0.5530  1.2932
  835MOL0     H10206  11.152   1.636   8.956 -2.3083  0.4985 -1.4510
  835MOL0     H10207  11.078   1.454   8.807 -0.4022  1.4489  0.5850
  835MOL0     H10208  11.401   0.951   8.628 -0.4987 -0.2083  1.2124
  835MOL0     H10209  11.350   0.789   8.462 -0.7964 -1.0607 -1.0130
  835MOL0     H10210  11.191   0.626   8.381  2.2309  0.9121 -0.0430
  835MOL0     H10211  11.287   0.684   8.247 -0.9940 -1.2602 -1.6823
  835MOL0     H10212  11.009   0.596   8.203  0.1207 -0.9760 -0.1744
  835MOL0     H10213  11.152   0.621   8.095 -0.9537  1.7050  0.5316
  835MOL0     H10214  11.058   0.387   8.150 -1.6332  0.5195  0.1570
  835MOL0     H10215  11.134   0.423   8.317  0.4418 -0.4722  0.6893
  835MOL0     H10216  11.348   0.418   8.225 -0.6934 -0.9136  1.7624
  835MOL0     H10217  11.269   0.272   8.188 -2.1295 -0.7441 -1.3329
  835MOL0     H10218  11.379   0.393   7.798 -3.0058 -1.2050 -1.1997
  835MOL0     H10219  10.981   1.018   8.363 -1.6747  1.4733  2.0380
  835MOL0     H10220  11.047   1.173   8.545  1.1872  1.4008 -0.3964
  836MOL0     O10221   0.662   3.096   4.743  0.0761 -0.7752  0.3346
  836MOL0     C10222   0.563   3.134   4.797 -0.0390 -0.2423 -0.4413
  836MOL0     O10223   0.435   3.120   4.742 -0.2288  0.1012 -0.7364
  836MOL0     C10224   0.423   3.069   4.612 -0.2923  0.5458  0.2234
  836MOL0     C10225   0.343   2.958   4.588  0.1765  0.6672  0.3125
  836MOL0     C10226   0.317   2.906   4.456 -0.5804 -0.8251 -0.0404
  836MOL0     C10227   0.363   2.975   4.349 -0.0566 -0.4589 -0.2708
  836MOL0     O10228   0.342   2.938   4.216 -0.2986  0.3419 -0.4483
  836MOL0     C10229   0.212   2.954   4.165  0.3422  0.2859  0.7105
  836MOL0     C10230   0.190   3.109   4.127 -0.5266  0.7466  0.0669
  836MOL0     C10231   0.274   3.166   4.010  0.3491 -1.1267 -0.8679
  836MOL0     C10232   0.200   3.289   3.953 -0.1196  0.6536 -0.1124
  836MOL0     C10233   0.224   3.309   3.804  0.3133 -0.1559  0.0498
  836MOL0     C10234   0.336   3.404   3.775  0.1769  0.2645  0.4905
  836MOL0     C10235   0.366   3.422   3.627 -0.0847 -0.2492 -0.4794
  836MOL0     C10236   0.247   3.500   3.565 -0.2288  0.7846  0.2615
  836MOL0     N10237   0.277   3.580   3.439 -0.4090  0.9618  0.7145
  836MOL0     C10238   0.360   3.535   3.332 -0.3516 -0.0571  0.0153
  836MOL0     C10239   0.395   3.650   3.262  0.6509  0.0188 -0.5283
  836MOL0     C10240   0.506   3.660   3.158  0.0589  0.0688 -0.4650
  836MOL0     C10241   0.457   3.759   3.048 -0.5520  0.2690 -0.2323
  836MOL0     C10242   0.544   3.872   3.015  0.8394 -0.8352 -0.0131
  836MOL0     C10243   0.499   3.963   2.888  0.3506  1.1313  0.1709
  836MOL0     O10244   0.461   3.867   2.789  0.6118 -1.4116  0.1400
  836MOL0     C10245   0.366   3.915   2.695  0.0093  0.9692 -0.0668
  836MOL0     C10246   0.285   3.820   2.633 -0.4521 -0.1050  0.4899
  836MOL0     C10247   0.168   3.858   2.552 -0.6006  0.3105  0.7476
  836MOL0     C10248   0.138   3.992   2.540  0.0485 -0.4911  0.3301
  836MOL0     C10249   0.042   4.038   2.431  0.1102  0.1699 -0.4980
  836MOL0     O10250  -0.023   3.946   2.364 -0.1307 -0.2867 -0.7740
  836MOL0     C10251  -0.138   3.992   2.302 -0.3891 -0.7877  0.8400
  836MOL0     C10252  -0.131   4.056   2.181 -0.3284  0.7188  0.0988
  836MOL0     C10253  -0.233   4.073   2.102  0.3483  0.9614  0.2815
  836MOL0     C10254  -0.364   4.041   2.137 -0.5315 -0.6303  0.2358
  836MOL0     O10255  -0.468   4.070   2.056 -0.4521  0.0221 -0.2571
  836MOL0     C10256  -0.448   4.084   1.913  0.3656  0.1297 -0.3435
  836MOL0     C10257  -0.583   4.076   1.834 -1.0326  1.0931 -0.2944
  836MOL0     C10258  -0.643   3.928   1.841 -0.3194 -1.3442 -0.0303
  836MOL0     C10259  -0.778   3.933   1.782  1.5056 -0.0302 -0.0880
  836MOL0     C10260  -0.831   3.796   1.740 -0.2052 -0.7230 -0.2992
  836MOL0     C10261  -0.978   3.792   1.695  0.3244 -0.2051 -0.3462
  836MOL0     C10262  -1.013   3.876   1.565 -0.3604 -0.4704  0.0721
  836MOL0     C10263  -1.152   3.845   1.504 -0.2052 -0.0360 -0.6879
  836MOL0    Cl10264  -1.278   3.864   1.629  0.2173 -0.2443 -0.0267
  836MOL0     C10265  -0.378   3.985   2.266  0.5259  0.0419 -0.9951
  836MOL0     C10266  -0.267   3.968   2.352  0.5525  0.8905  0.1184
  836MOL0     O10267   0.019   4.159   2.421 -0.1153 -1.2771  0.6014
  836MOL0     C10268   0.220   4.091   2.601 -0.0485  0.1127  0.5469
  836MOL0     C10269   0.338   4.047   2.670  0.9833  0.1730 -0.8552
  836MOL0     N10270   0.349   3.761   3.328  0.3107  0.1066 -0.0034
  836MOL0     N10271   0.276   3.713   3.424  0.0926  0.1238  0.0803
  836MOL0     C10272   0.450   3.084   4.377  0.7921  0.4106 -0.4223
  836MOL0     C10273   0.476   3.131   4.504 -0.5126 -0.0916 -0.3887
  836MOL0     C10274   0.583   3.190   4.935 -0.1775 -0.6068  1.0731
  836MOL0     C10275   0.720   3.188   4.979  0.0112  0.2374  0.2166
  836MOL0     C10276   0.740   3.234   5.107 -0.1988 -0.2461 -0.3180
  836MOL0     C10277   0.637   3.271   5.195  0.6551 -0.0559  0.4175
  836MOL0     O10278   0.669   3.317   5.319  0.1214  0.0810 -0.2736
  836MOL0     C10279   0.753   3.234   5.402  0.7945 -0.2706 -0.6909
  836MOL0     C10280   0.745   3.277   5.554  0.6120 -0.3150  0.4052
  836MOL0     C10281   0.759   3.433   5.575  0.2352  0.1593 -0.2080
  836MOL0     C10282   0.802   3.471   5.714  0.4844  0.9966  0.2579
  836MOL0     C10283   0.867   3.602   5.717  0.2854 -0.0968  0.0653
  836MOL0     C10284   0.939   3.696   5.729  0.2637  0.5144 -0.3251
  836MOL0     C10285   0.508   3.275   5.141  0.0472  0.5780 -0.1898
  836MOL0     C10286   0.480   3.241   5.011 -0.3682 -0.1309  0.3161
  836MOL0     H10287   0.292   2.911   4.672  1.8282 -1.7073  0.0814
  836MOL0     H10288   0.255   2.821   4.429  0.0161 -0.2371 -3.7632
  836MOL0     H10289   0.131   2.930   4.235 -1.6407 -3.0586 -2.3772
  836MOL0     H10290   0.190   2.887   4.081  3.3815  1.7936 -1.4696
  836MOL0     H10291   0.206   3.170   4.216  2.3296  1.7198 -0.9717
  836MOL0     H10292   0.084   3.116   4.100 -1.3408  0.6373  2.9637
  836MOL0     H10293   0.284   3.088   3.935  1.2985 -1.0283 -0.8593
  836MOL0     H10294   0.368   3.188   4.060  0.0559 -1.3214 -0.2152
  836MOL0     H10295   0.093   3.271   3.969 -0.2849  0.2210 -1.5646
  836MOL0     H10296   0.237   3.380   4.001  1.3828  0.7238 -1.3275
  836MOL0     H10297   0.135   3.359   3.764  0.3801 -0.8831 -1.0725
  836MOL0     H10298   0.240   3.220   3.742 -2.5581 -0.7940  0.0482
  836MOL0     H10299   0.423   3.364   3.828  2.2503  3.8410  0.0843
  836MOL0     H10300   0.318   3.501   3.822  0.0813  0.0743  0.8482
  836MOL0     H10301   0.454   3.487   3.633 -1.6098  1.8125  1.0414
  836MOL0     H10302   0.381   3.331   3.569 -1.3055  0.9421 -2.8197
  836MOL0     H10303   0.207   3.566   3.642 -2.2038 -0.5978  0.5008
  836MOL0     H10304   0.170   3.427   3.537  0.6122  0.7369 -2.2073
  836MOL0     H10305   0.418   3.445   3.314  2.3108  0.9543  2.6263
  836MOL0     H10306   0.529   3.561   3.119 -0.9478 -1.5535  2.7612
  836MOL0     H10307   0.595   3.702   3.205 -0.6504  2.0631 -0.7699
  836MOL0     H10308   0.354   3.790   3.062  0.0133  0.8958  3.6489
  836MOL0     H10309   0.471   3.702   2.955  0.2057  0.9601 -0.5537
  836MOL0     H10310   0.551   3.945   3.096  0.9705  0.7419 -1.3950
  836MOL0     H10311   0.646   3.831   3.008  2.2720  1.4235  4.0176
  836MOL0     H10312   0.587   4.013   2.846  2.6399 -2.3576  0.3648
  836MOL0     H10313   0.420   4.033   2.914 -1.4499 -0.1134 -1.6150
  836MOL0     H10314   0.288   3.715   2.657 -0.0940  0.2531  2.1371
  836MOL0     H10315   0.101   3.786   2.505 -0.3820  0.1138  0.7309
  836MOL0     H10316  -0.029   4.074   2.148  0.5054 -3.9625 -0.5992
  836MOL0     H10317  -0.215   4.120   2.007 -1.6233  2.8580  0.7751
  836MOL0     H10318  -0.392   4.002   1.867 -0.0707 -0.3771  0.0158
  836MOL0     H10319  -0.405   4.182   1.888  1.5802 -0.5188 -0.8926
  836MOL0     H10320  -0.577   4.116   1.733  0.8778  2.7454  0.4058
  836MOL0     H10321  -0.651   4.147   1.883  0.0333  2.3616 -0.5998
  836MOL0     H10322  -0.642   3.904   1.947 -1.5546  2.6075  1.0153
  836MOL0     H10323  -0.585   3.852   1.787 -1.2422 -2.3083  0.3025
  836MOL0     H10324  -0.849   3.978   1.853 -0.0375 -0.5697 -1.2270
  836MOL0     H10325  -0.775   3.992   1.690  0.8006 -2.4088 -1.7224
  836MOL0     H10326  -0.828   3.722   1.821  0.0279 -2.2008 -1.6254
  836MOL0     H10327  -0.765   3.762   1.660  1.6102  2.4031 -0.2727
  836MOL0     H10328  -1.046   3.803   1.780 -0.0033 -3.8076 -0.0021
  836MOL0     H10329  -0.990   3.689   1.662  0.8522 -0.3824  0.0050
  836MOL0     H10330  -1.023   3.982   1.592  1.7787  0.5429 -2.6914
  836MOL0     H10331  -0.938   3.874   1.486 -0.6657  2.0029 -0.3568
  836MOL0     H10332  -1.158   3.741   1.471  1.4008 -0.5148  0.4085
  836MOL0     H10333  -1.167   3.915   1.422 -0.6071  0.0220 -0.5682
  836MOL0     H10334  -0.479   3.968   2.302  0.5832  0.5614 -0.5737
  836MOL0     H10335  -0.277   3.928   2.452 -1.7702 -1.6471 -0.9772
  836MOL0     H10336   0.201   4.197   2.583 -1.1808  0.4064  3.0283
  836MOL0     H10337   0.411   4.117   2.708 -1.5557  1.9203  1.1896
  836MOL0     H10338   0.496   3.139   4.295  2.4628  1.5692  1.2169
  836MOL0     H10339   0.534   3.220   4.525  1.7770 -1.3481 -1.0506
  836MOL0     H10340   0.801   3.147   4.920 -1.5799  0.2440 -2.1156
  836MOL0     H10341   0.842   3.239   5.142 -0.7154  0.5100  1.1874
  836MOL0     H10342   0.857   3.235   5.367  1.2709  1.7550  0.5737
  836MOL0     H10343   0.716   3.132   5.391 -0.8340  0.2900 -0.6376
  836MOL0     H10344   0.643   3.255   5.585  0.6709 -0.7076  0.3139
  836MOL0     H10345   0.803   3.212   5.619  1.7369 -2.0790 -2.2102
  836MOL0     H10346   0.665   3.485   5.553 -0.3583 -0.8611 -0.1246
  836MOL0     H10347   0.846   3.457   5.514  0.6304 -1.2503 -0.2328
  836MOL0     H10348   0.715   3.480   5.779  0.8906  0.9057  0.8195
  836MOL0     H10349   0.865   3.398   5.767 -1.6830  2.1343  4.8590
  836MOL0     H10350   0.995   3.786   5.744 -0.2914  0.9161 -0.6477
  836MOL0     H10351   0.433   3.316   5.208  1.1739  5.4098 -1.5324
  836MOL0     H10352   0.383   3.260   4.967 -0.4795  1.6246  1.2047
  837MOL0     O10353  11.342   5.667  10.545  0.4337  0.1300 -0.4479
  837MOL0     C10354  11.380   5.760  10.474 -0.1678 -0.4684 -0.5514
  837MOL0     O10355  11.315   5.878  10.444 -0.3602  0.7512  0.1508
  837MOL0     C10356  11.178   5.871  10.471  0.6256  0.8340  0.1773
  837MOL0     C10357  11.118   5.852  10.592  0.1331  0.3133  0.6270
  837MOL0     C10358  10.980   5.826  10.586  0.9328 -0.6077 -0.2161
  837MOL0     C10359  10.897   5.840  10.473 -0.6570 -0.4394  1.3800
  837MOL0     O10360  10.761   5.814  10.469 -0.8180  0.5399 -0.3396
  837MOL0     C10361  10.692   5.756  10.577  0.2342 -0.2754  0.0978
  837MOL0     C10362  10.548   5.721  10.534 -0.7120 -0.6017  0.3398
  837MOL0     C10363  10.462   5.631  10.628  0.3803  0.5231 -0.1649
  837MOL0     C10364  10.331   5.589  10.555 -0.3115  0.1047  1.1441
  837MOL0     C10365  10.228   5.496  10.621  0.0707 -0.0885 -0.4239
  837MOL0     C10366  10.117   5.435  10.532 -1.4729  0.2794  0.7796
  837MOL0     C10367  10.033   5.340  10.603 -0.1115  0.1679  0.6055
  837MOL0     C10368  10.089   5.202  10.633 -0.8174 -1.2345  0.0696
  837MOL0     N10369   9.979   5.123  10.691  0.1533 -0.7195  0.4429
  837MOL0     C10370   9.858   5.091  10.622  0.3085  0.1699  0.5951
  837MOL0     C10371   9.771   5.062  10.725  0.9575 -0.2072 -0.3741
  837MOL0     C10372   9.640   4.987  10.710  0.0090 -1.0622 -0.3536
  837MOL0     C10373   9.662   4.846  10.671  0.3359 -0.8138 -0.0407
  837MOL0     C10374   9.535   4.770  10.645  0.3587 -0.3876  0.0467
  837MOL0     C10375   9.547   4.640  10.561 -0.0177  0.0281  0.0107
  837MOL0     O10376   9.637   4.551  10.625 -0.0836 -0.5110 -0.2230
  837MOL0     C10377   9.668   4.425  10.584  0.0940  0.7442 -0.6952
  837MOL0     C10378   9.795   4.374  10.612  0.1121  0.1988 -0.1780
  837MOL0     C10379   9.835   4.251  10.575 -0.3023  0.1985  0.4603
  837MOL0     C10380   9.741   4.162  10.514 -0.1313  0.2801 -0.1167
  837MOL0     C10381   9.771   4.025  10.478  0.4500  0.8250  0.0019
  837MOL0     O10382   9.674   3.940  10.421  1.0549  0.0105 -0.2478
  837MOL0     C10383   9.708   3.818  10.362  0.7001  1.0985  0.7022
  837MOL0     C10384   9.711   3.694  10.439 -1.2540  0.6040  0.0718
  837MOL0     C10385   9.751   3.578  10.376 -0.6512  0.3283  0.9995
  837MOL0     C10386   9.798   3.580  10.241  1.1453  1.0623 -0.2014
  837MOL0     O10387   9.856   3.467  10.178  0.2624 -0.2771 -0.5849
  837MOL0     C10388   9.885   3.356  10.263  0.3101  1.1627  0.3615
  837MOL0     C10389   9.915   3.235  10.171 -0.3763  0.2093  0.4078
  837MOL0     C10390   9.829   3.121  10.201 -0.5383  0.9208 -0.1003
  837MOL0     C10391   9.826   3.028  10.083 -0.2701  0.3038 -0.2082
  837MOL0     C10392   9.766   2.887  10.110  0.2451 -0.0252  0.3387
  837MOL0     C10393   9.758   2.799   9.979  0.5912 -0.3926 -0.7758
  837MOL0     C10394   9.882   2.715   9.966  0.4594 -0.2462 -0.3265
  837MOL0     C10395   9.885   2.646   9.821  0.6601 -0.0837  0.1520
  837MOL0    Cl10396   9.900   2.773   9.698  0.2020  0.3129  0.3700
  837MOL0     C10397   9.786   3.688  10.166 -0.7371  0.4605 -0.0664
  837MOL0     C10398   9.754   3.811  10.227 -0.5850 -0.0854  0.3597
  837MOL0     O10399   9.887   3.994  10.501  0.2863  0.4930  0.2030
  837MOL0     C10400   9.610   4.207  10.495  0.1710  0.2321  0.5819
  837MOL0     C10401   9.573   4.339  10.529 -0.1625  0.7059  1.4371
  837MOL0     N10402   9.847   5.054  10.844  0.0863  0.6410 -0.5149
  837MOL0     N10403   9.970   5.081  10.818 -0.0660  0.5690 -0.4098
  837MOL0     C10404  10.959   5.865  10.355 -0.6369 -0.0730 -0.4559
  837MOL0     C10405  11.104   5.883  10.355  0.6760 -0.3810 -0.0941
  837MOL0     C10406  11.522   5.757  10.420 -0.4434  0.7038 -0.8442
  837MOL0     C10407  11.600   5.658  10.470  0.3823  0.2961  0.1689
  837MOL0     C10408  11.740   5.673  10.440 -0.7980 -0.1437  0.0446
  837MOL0     C10409  11.797   5.779  10.358 -0.4376  1.4018 -0.6188
  837MOL0     O10410  11.920   5.803  10.305  0.5791 -0.8180  0.5431
  837MOL0     C10411  12.032   5.711  10.327  0.0974 -0.3155 -0.2743
  837MOL0     C10412  12.162   5.782  10.297 -0.5092 -0.4418  0.2195
  837MOL0     C10413  12.167   5.828  10.149 -0.2003 -0.0993  0.2385
  837MOL0     C10414  12.305   5.890  10.107 -0.2104  0.5442 -0.9051
  837MOL0     C10415  12.333   6.023  10.168  0.7266 -0.6884  0.7216
  837MOL0     C10416  12.326   6.132  10.227 -0.6329 -0.2172  0.2696
  837MOL0     C10417  11.706   5.877  10.321  0.2933 -0.4235 -0.4309
  837MOL0     C10418  11.572   5.869  10.356 -0.4699 -0.4890  0.1982
  837MOL0     H10419  11.161   5.839  10.691 -0.0871 -0.9184  0.5795
  837MOL0     H10420  10.937   5.791  10.680  0.8701 -1.3408 -0.5124
  837MOL0     H10421  10.696   5.828  10.659  4.9920  3.7251 -3.0969
  837MOL0     H10422  10.743   5.662  10.601 -0.5047 -0.2456  1.9997
  837MOL0     H10423  10.557   5.683  10.432  4.2460  1.2049 -0.1549
  837MOL0     H10424  10.501   5.818  10.522  3.0896  1.2901 -0.8305
  837MOL0     H10425  10.438   5.691  10.716  0.6908 -2.2091  1.9198
  837MOL0     H10426  10.524   5.553  10.674 -1.6049 -0.9089  0.2059
  837MOL0     H10427  10.270   5.679  10.541 -0.6905 -0.2538  0.4691
  837MOL0     H10428  10.359   5.556  10.454 -3.0780 -0.4540  0.4737
  837MOL0     H10429  10.177   5.551  10.701 -0.4288 -1.5789  0.3108
  837MOL0     H10430  10.298   5.430  10.673  2.0648  3.6204  2.0135
  837MOL0     H10431  10.156   5.399  10.436  0.5707  3.8301  0.0904
  837MOL0     H10432  10.057   5.523  10.507 -1.9563 -0.3554 -0.3887
  837MOL0     H10433   9.991   5.373  10.698  1.0793  1.2917  0.7800
  837MOL0     H10434   9.954   5.312  10.533  0.2808 -0.6231  0.4630
  837MOL0     H10435  10.161   5.207  10.715  0.2765 -0.0845 -0.9188
  837MOL0     H10436  10.116   5.151  10.540 -1.5720  1.9442 -2.0465
  837MOL0     H10437   9.838   5.119  10.519 -0.8642 -0.9982  0.4696
  837MOL0     H10438   9.579   5.043  10.639 -0.5827  1.4546  1.9661
  837MOL0     H10439   9.593   5.005  10.807 -1.0833  1.7678 -1.3101
  837MOL0     H10440   9.717   4.795  10.751  1.0542  3.4788  2.5381
  837MOL0     H10441   9.716   4.842  10.576 -1.3115  1.1590 -1.1405
  837MOL0     H10442   9.480   4.748  10.738 -0.2890 -0.0576 -0.2479
  837MOL0     H10443   9.461   4.823  10.584 -0.4367 -0.7870  0.6372
  837MOL0     H10444   9.605   4.657  10.470 -0.3521 -1.8141 -0.5918
  837MOL0     H10445   9.452   4.595  10.530 -1.2922  2.4703  0.1578
  837MOL0     H10446   9.863   4.443  10.661  0.5149  0.2903 -0.8539
  837MOL0     H10447   9.932   4.214  10.604  1.0374  2.6730 -0.5170
  837MOL0     H10448   9.671   3.690  10.540 -1.3897 -2.3249 -0.0274
  837MOL0     H10449   9.743   3.490  10.439  1.6395 -2.6391 -2.4768
  837MOL0     H10450   9.802   3.326  10.328  0.1023  1.1137  0.0739
  837MOL0     H10451   9.972   3.372  10.328  0.3391 -0.3035  0.7303
  837MOL0     H10452  10.019   3.204  10.183 -0.9435 -1.9417  0.2556
  837MOL0     H10453   9.911   3.270  10.067 -1.6265  0.7407  0.6125
  837MOL0     H10454   9.723   3.145  10.209 -1.6307 -2.9806 -0.8045
  837MOL0     H10455   9.861   3.066  10.290 -0.3278  0.3232 -0.5353
  837MOL0     H10456   9.778   3.082  10.001  0.0560  2.9465  1.2330
  837MOL0     H10457   9.927   3.013  10.044 -0.3118  2.9202 -1.5022
  837MOL0     H10458   9.662   2.898  10.143  0.0327 -2.3490  0.6147
  837MOL0     H10459   9.825   2.833  10.185  0.5705 -0.4200 -0.1956
  837MOL0     H10460   9.739   2.868   9.896  1.5910  1.7106  0.6513
  837MOL0     H10461   9.672   2.733   9.994 -0.5316  1.3395  0.8776
  837MOL0     H10462   9.964   2.785   9.980 -2.4525  3.2724  0.7736
  837MOL0     H10463   9.877   2.639  10.045  2.1389  1.2987  1.3826
  837MOL0     H10464   9.788   2.600   9.803  1.1419 -0.0155 -3.1862
  837MOL0     H10465   9.963   2.572   9.806  0.2573 -0.2181 -1.4253
  837MOL0     H10466   9.813   3.667  10.062  0.7116 -1.0738  0.5636
  837MOL0     H10467   9.752   3.899  10.165 -1.7669 -0.2588  0.1235
  837MOL0     H10468   9.536   4.146  10.444 -0.5753 -0.5813  2.5374
  837MOL0     H10469   9.473   4.378  10.512 -1.1498 -2.9619 -3.3536
  837MOL0     H10470  10.915   5.848  10.258  2.6976 -2.1518 -1.7957
  837MOL0     H10471  11.147   5.900  10.257  0.4493  1.3763  0.0742
  837MOL0     H10472  11.562   5.570  10.521  1.8111 -0.9217 -0.8161
  837MOL0     H10473  11.821   5.614  10.481  1.0337  2.2331  0.0828
  837MOL0     H10474  12.023   5.623  10.263  1.0980 -0.8841  0.3347
  837MOL0     H10475  12.028   5.681  10.432  1.4821  2.2225  0.6081
  837MOL0     H10476  12.180   5.863  10.367 -3.0651  0.5396 -0.1479
  837MOL0     H10477  12.245   5.711  10.297  0.6932  0.7678 -2.8070
  837MOL0     H10478  12.088   5.903  10.140 -1.7005 -1.8620 -3.1004
  837MOL0     H10479  12.146   5.742  10.085 -2.2618  0.1333  0.5328
  837MOL0     H10480  12.385   5.828  10.149  1.7107  2.9406 -0.7774
  837MOL0     H10481  12.309   5.894   9.998  0.7933  0.7063 -0.8727
  837MOL0     H10482  12.321   6.234  10.259  1.3196 -0.5956  2.0311
  837MOL0     H10483  11.743   5.964  10.268  3.9799 -0.7782  1.2317
  837MOL0     H10484  11.513   5.957  10.330 -0.5748 -1.3055 -2.7153
  838MOL0     O10485   2.661   5.085   6.668  0.1173  0.0156  0.3893
  838MOL0     C10486   2.722   5.090   6.560  0.9273 -0.8799  1.0338
  838MOL0     O10487   2.838   5.021   6.524  0.1471  0.0947 -0.3025
  838MOL0     C10488   2.861   4.918   6.608 -0.1246  0.1044 -0.1194
  838MOL0     C10489   2.813   4.792   6.586  0.0909 -0.0831 -0.2122
  838MOL0     C10490   2.828   4.698   6.693  1.1815 -0.2966  0.6224
  838MOL0     C10491   2.901   4.729   6.810  0.7030  0.4682 -0.3858
  838MOL0     O10492   2.918   4.631   6.902  0.8984  0.3090  1.1819
  838MOL0     C10493   3.025   4.629   7.004  1.0354 -0.3586  0.9169
  838MOL0     C10494   3.079   4.487   7.028  0.1432 -0.2770 -0.9359
  838MOL0     C10495   2.969   4.391   7.080 -1.0178  0.9483 -0.3897
  838MOL0     C10496   2.918   4.297   6.967  0.0801  1.0290  0.0098
  838MOL0     C10497   2.857   4.161   7.020  0.2690  0.4983 -0.1740
  838MOL0     C10498   2.734   4.173   7.113 -0.4581  0.1378  0.1589
  838MOL0     C10499   2.654   4.043   7.112 -0.2437  0.5133  0.0724
  838MOL0     C10500   2.734   3.916   7.161 -0.1298  0.1129 -0.8537
  838MOL0     N10501   2.668   3.805   7.230  0.3888 -0.4054 -0.2995
  838MOL0     C10502   2.602   3.810   7.353 -0.2314  0.0344  0.0372
  838MOL0     C10503   2.556   3.688   7.385 -0.4160  0.3887  0.4811
  838MOL0     C10504   2.462   3.647   7.488  1.1435  0.5440 -0.3200
  838MOL0     C10505   2.472   3.720   7.626  0.4238  0.9749 -0.0435
  838MOL0     C10506   2.410   3.629   7.732 -0.0715  0.7045  0.1666
  838MOL0     C10507   2.398   3.696   7.867  0.4380  0.3779 -0.4830
  838MOL0     O10508   2.521   3.675   7.944  0.6374 -0.5199 -0.6361
  838MOL0     C10509   2.517   3.733   8.068  0.2814 -0.2380 -0.6088
  838MOL0     C10510   2.629   3.715   8.150 -0.0943  0.1755  0.3303
  838MOL0     C10511   2.629   3.730   8.286  0.0358 -0.3310 -0.5330
  838MOL0     C10512   2.513   3.788   8.353  0.1546 -0.0052 -0.1030
  838MOL0     C10513   2.508   3.820   8.493 -0.6191  0.2585  1.6101
  838MOL0     O10514   2.626   3.847   8.555 -0.7945 -0.2296  1.0250
  838MOL0     C10515   2.625   3.862   8.695 -0.3242  0.6960  0.7995
  838MOL0     C10516   2.730   3.935   8.744 -1.0673  0.2609 -0.8277
  838MOL0     C10517   2.756   3.945   8.883  0.0207  0.5676  0.1956
  838MOL0     C10518   2.668   3.894   8.977  0.0145  0.3672 -0.0699
  838MOL0     O10519   2.696   3.914   9.118 -0.5899 -0.1201  0.8646
  838MOL0     C10520   2.589   3.905   9.208 -0.7324  0.1001 -0.3073
  838MOL0     C10521   2.630   3.905   9.354 -0.1648 -0.6097 -0.4011
  838MOL0     C10522   2.731   4.015   9.386 -1.4910 -1.4428 -0.5557
  838MOL0     C10523   2.686   4.156   9.364  1.1532  0.5845 -0.3269
  838MOL0     C10524   2.782   4.262   9.394  0.0747  0.1800  0.3032
  838MOL0     C10525   2.711   4.396   9.390  0.5054 -0.3475 -0.0523
  838MOL0     C10526   2.810   4.510   9.373  0.2471  0.6908  0.6239
  838MOL0     C10527   2.739   4.647   9.349  0.1322 -0.6546 -0.3119
  838MOL0    Cl10528   2.573   4.698   9.409 -0.6501  0.0534  0.0954
  838MOL0     C10529   2.551   3.830   8.927 -0.3860 -0.1825 -0.6413
  838MOL0     C10530   2.532   3.815   8.795  0.0887 -0.1026  1.3901
  838MOL0     O10531   2.393   3.820   8.545 -0.3226  0.3762 -0.3319
  838MOL0     C10532   2.396   3.810   8.257 -0.6370 -0.1031 -0.5523
  838MOL0     C10533   2.401   3.783   8.127  0.7111  0.5201 -0.8286
  838MOL0     N10534   2.607   3.606   7.284  0.8891 -0.5591 -0.0882
  838MOL0     N10535   2.680   3.673   7.198  0.0472  0.1586 -0.8915
  838MOL0     C10536   2.947   4.861   6.828  0.5845  0.1201  0.1516
  838MOL0     C10537   2.919   4.951   6.730  0.8492 -0.3894 -0.1882
  838MOL0     C10538   2.656   5.165   6.448  0.2341  0.6644  1.2922
  838MOL0     C10539   2.705   5.154   6.315 -0.1059  0.5345  0.0864
  838MOL0     C10540   2.651   5.222   6.211  0.4104 -0.3626 -0.0061
  838MOL0     C10541   2.539   5.301   6.232  0.3429 -0.7341  0.3503
  838MOL0     O10542   2.499   5.378   6.125 -0.1837  0.1976  0.4399
  838MOL0     C10543   2.392   5.462   6.133  0.9689 -1.0116 -0.2726
  838MOL0     C10544   2.356   5.522   5.995 -0.2444  0.3722  0.1064
  838MOL0     C10545   2.222   5.591   5.981  0.1787 -0.5774 -0.5695
  838MOL0     C10546   2.212   5.647   5.846  0.1182  0.1821  0.6945
  838MOL0     C10547   2.321   5.736   5.820 -0.3922 -1.0600 -0.9033
  838MOL0     C10548   2.413   5.813   5.789  0.6353 -0.6809 -0.1329
  838MOL0     C10549   2.481   5.302   6.359  0.3727 -0.0198  0.5670
  838MOL0     C10550   2.533   5.234   6.465 -0.1756  0.8216 -0.5734
  838MOL0     H10551   2.754   4.786   6.495 -1.3835  0.9509  0.6401
  838MOL0     H10552   2.788   4.599   6.674  0.8292 -0.0011 -0.2043
  838MOL0     H10553   2.994   4.666   7.102 -0.9135  0.7321 -0.0659
  838MOL0     H10554   3.110   4.688   6.968  1.5185 -0.9658  1.0330
  838MOL0     H10555   3.167   4.492   7.093 -0.1047  0.1891 -0.6267
  838MOL0     H10556   3.112   4.451   6.930 -1.5202  1.0477 -2.0236
  838MOL0     H10557   2.893   4.456   7.125  0.2093  3.5544 -1.8841
  838MOL0     H10558   3.009   4.323   7.156 -0.0270  0.7346 -1.0941
  838MOL0     H10559   2.834   4.348   6.918 -3.0848 -3.4509  0.1875
  838MOL0     H10560   2.995   4.267   6.896 -2.4436 -0.9284 -2.1153
  838MOL0     H10561   2.940   4.107   7.066 -0.4835  0.7031  1.4714
  838MOL0     H10562   2.838   4.107   6.927 -0.4682  3.0887 -1.6401
  838MOL0     H10563   2.676   4.255   7.070  1.8337  0.2605 -3.0729
  838MOL0     H10564   2.766   4.179   7.218 -1.3503  1.6702  0.3709
  838MOL0     H10565   2.571   4.071   7.178 -0.8550  0.1404 -0.5196
  838MOL0     H10566   2.625   4.015   7.011  0.8110  0.1306 -0.1278
  838MOL0     H10567   2.797   3.963   7.237 -2.8531  2.6626 -0.0019
  838MOL0     H10568   2.795   3.883   7.076 -2.1793 -1.6705 -1.7232
  838MOL0     H10569   2.584   3.897   7.415 -1.9539 -0.4553  0.2833
  838MOL0     H10570   2.471   3.538   7.487  0.5211  0.4248  1.9343
  838MOL0     H10571   2.366   3.677   7.446  1.0400  0.9449  0.2005
  838MOL0     H10572   2.416   3.814   7.617  0.7481  1.0644 -1.3497
  838MOL0     H10573   2.574   3.744   7.658 -0.5737  3.6158  1.5056
  838MOL0     H10574   2.317   3.589   7.692  0.2633  0.6440 -0.5645
  838MOL0     H10575   2.474   3.541   7.739  0.5498  0.8201 -2.8389
  838MOL0     H10576   2.312   3.650   7.917 -0.6208 -2.4314 -4.4053
  838MOL0     H10577   2.363   3.800   7.857 -2.7743 -0.1314  3.0184
  838MOL0     H10578   2.711   3.670   8.095  0.3693  1.4023 -0.0216
  838MOL0     H10579   2.715   3.708   8.347 -0.6722 -0.4119  0.4616
  838MOL0     H10580   2.795   3.969   8.664 -0.6843 -0.9998 -1.0774
  838MOL0     H10581   2.846   3.996   8.917  0.6189 -0.6877  0.5811
  838MOL0     H10582   2.534   3.811   9.198 -2.0311  0.8422 -0.4739
  838MOL0     H10583   2.523   3.990   9.186  0.1826  0.7805 -0.4675
  838MOL0     H10584   2.675   3.810   9.385  1.8097 -0.4012 -2.3670
  838MOL0     H10585   2.547   3.923   9.423 -0.5215 -1.7286 -0.5176
  838MOL0     H10586   2.820   3.996   9.326 -0.6903  0.4122 -0.0410
  838MOL0     H10587   2.761   4.001   9.490 -1.1362  2.6544  0.0852
  838MOL0     H10588   2.660   4.162   9.257  1.2396 -1.8094 -0.5229
  838MOL0     H10589   2.597   4.155   9.428  2.0887 -1.5870  1.0499
  838MOL0     H10590   2.860   4.253   9.318 -1.5450  0.7236 -1.5051
  838MOL0     H10591   2.842   4.256   9.485 -0.2484  0.9711  0.5746
  838MOL0     H10592   2.669   4.401   9.491 -0.8475 -0.2477 -0.6030
  838MOL0     H10593   2.625   4.387   9.324 -1.1095  0.3786  1.8554
  838MOL0     H10594   2.871   4.514   9.464 -0.4162  1.4560  1.0483
  838MOL0     H10595   2.876   4.496   9.287  0.4837  2.1208  0.5512
  838MOL0     H10596   2.728   4.653   9.240  0.3786  1.2579 -0.2709
  838MOL0     H10597   2.806   4.730   9.373 -2.6367  1.4727  0.6654
  838MOL0     H10598   2.479   3.785   8.995  2.1437  0.1475  2.5164
  838MOL0     H10599   2.437   3.765   8.777  0.1518 -0.9760  3.3012
  838MOL0     H10600   2.302   3.842   8.303  0.5129 -0.4385  2.2441
  838MOL0     H10601   2.298   3.780   8.093 -0.2015 -0.4884  1.7901
  838MOL0     H10602   2.985   4.889   6.925 -0.0263 -2.4249  1.2186
  838MOL0     H10603   2.951   5.054   6.744 -2.4225  0.3601  3.2859
  838MOL0     H10604   2.798   5.100   6.295 -1.7186 -3.6023  2.4381
  838MOL0     H10605   2.685   5.223   6.108 -1.4651  0.6732 -0.6668
  838MOL0     H10606   2.414   5.544   6.202 -1.8292 -0.8312  0.5118
  838MOL0     H10607   2.306   5.407   6.171  0.3670 -2.9230 -3.8840
  838MOL0     H10608   2.440   5.592   5.992  2.0761 -2.1730  1.2325
  838MOL0     H10609   2.368   5.440   5.923  0.2392 -1.7687  2.5062
  838MOL0     H10610   2.203   5.667   6.058  0.5045 -2.0607  1.0374
  838MOL0     H10611   2.148   5.513   6.000  0.9971 -1.1274  0.5040
  838MOL0     H10612   2.234   5.567   5.775  3.4533  1.4439  0.1394
  838MOL0     H10613   2.113   5.692   5.832 -0.6484 -1.8227 -0.7815
  838MOL0     H10614   2.498   5.873   5.764  0.9163 -1.6680 -1.6739
  838MOL0     H10615   2.388   5.352   6.383  0.7877  1.9550 -1.5763
  838MOL0     H10616   2.483   5.223   6.561  0.9239 -0.8265 -0.1535
  839MOL0     O10617   1.214   5.356   2.973 -0.1791  0.8814 -0.1951
  839MOL0     C10618   1.232   5.234   2.943 -0.9055 -0.4673  0.6793
  839MOL0     O10619   1.171   5.129   3.013 -0.2965  0.0577 -0.0616
  839MOL0     C10620   1.089   5.166   3.114 -0.3717  0.2010  0.3781
  839MOL0     C10621   1.133   5.165   3.248  0.4274  1.4813  0.9325
  839MOL0     C10622   1.046   5.200   3.353  0.6755 -0.2342  0.1687
  839MOL0     C10623   0.905   5.218   3.327 -0.1012 -0.4144 -1.3665
  839MOL0     O10624   0.835   5.226   3.444  0.4274 -0.4870 -0.8071
  839MOL0     C10625   0.721   5.314   3.459 -0.8122  0.3247  1.0603
  839MOL0     C10626   0.651   5.295   3.590 -0.1070  0.4622  0.4078
  839MOL0     C10627   0.545   5.399   3.603  0.6419  0.7060 -0.1008
  839MOL0     C10628   0.488   5.383   3.743 -0.4397 -0.3022  0.0307
  839MOL0     C10629   0.373   5.482   3.773  0.3242  0.6233 -0.3319
  839MOL0     C10630   0.329   5.466   3.910  0.3127 -0.5153  0.6915
  839MOL0     C10631   0.208   5.560   3.957  0.2635  0.1751  0.7812
  839MOL0     C10632   0.251   5.705   3.994 -0.7329 -0.4404  0.1109
  839MOL0     N10633   0.147   5.778   4.067  0.3612 -0.1318  0.7297
  839MOL0     C10634   0.026   5.838   4.024 -0.9374  0.9747 -0.0153
  839MOL0     C10635  -0.019   5.898   4.125  0.5685 -1.1874 -0.7233
  839MOL0     C10636  -0.155   5.959   4.141  0.3689 -0.5375  0.2177
  839MOL0     C10637  -0.149   6.107   4.094  0.8035  0.5764  0.2724
  839MOL0     C10638  -0.101   6.119   3.949  0.0737  0.0372 -0.7411
  839MOL0     C10639  -0.129   6.262   3.895 -0.5948 -0.1626 -0.1230
  839MOL0     O10640  -0.267   6.280   3.892  0.0680 -0.0764 -0.2866
  839MOL0     C10641  -0.314   6.414   3.876  0.2187  0.9959 -0.1592
  839MOL0     C10642  -0.448   6.431   3.907  0.3370  0.9582  0.7922
  839MOL0     C10643  -0.510   6.545   3.867  0.4373  0.3874  0.2237
  839MOL0     C10644  -0.443   6.644   3.805  0.1796  0.2620  0.1251
  839MOL0     C10645  -0.515   6.767   3.773 -0.6079  0.7522  0.2104
  839MOL0     O10646  -0.618   6.759   3.680 -0.1426 -0.3772 -0.0403
  839MOL0     C10647  -0.679   6.868   3.635 -0.9455 -0.2652 -0.3359
  839MOL0     C10648  -0.611   6.944   3.534  0.1100  0.2627 -0.4317
  839MOL0     C10649  -0.681   7.046   3.467  0.5358 -0.3599 -0.6811
  839MOL0     C10650  -0.803   7.091   3.508  0.4055  0.4855  0.0129
  839MOL0     O10651  -0.864   7.195   3.451  0.0991 -0.1827 -0.3150
  839MOL0     C10652  -0.803   7.264   3.343 -0.0337 -0.0998  0.0433
  839MOL0     C10653  -0.903   7.356   3.282  0.2162  0.5037 -0.0038
  839MOL0     C10654  -0.930   7.482   3.370  0.0416  0.4574 -0.1724
  839MOL0     C10655  -1.058   7.539   3.310  0.4350  0.3669  0.8401
  839MOL0     C10656  -1.120   7.670   3.360 -0.3228 -0.0438 -0.2767
  839MOL0     C10657  -1.025   7.791   3.337 -0.0364 -0.2617  0.7224
  839MOL0     C10658  -1.066   7.921   3.413 -1.1297 -0.4812 -0.6299
  839MOL0     C10659  -0.992   8.046   3.351 -1.5196  1.2816 -0.0889
  839MOL0    Cl10660  -1.006   8.066   3.182 -0.4431  0.1509  0.0064
  839MOL0     C10661  -0.873   7.033   3.619 -0.5407 -0.7166  1.0768
  839MOL0     C10662  -0.809   6.915   3.678 -0.6036 -0.7389  0.7491
  839MOL0     O10663  -0.479   6.864   3.833 -0.5421  0.6784 -1.0556
  839MOL0     C10664  -0.302   6.631   3.781  0.6043  0.1757 -0.7658
  839MOL0     C10665  -0.244   6.510   3.818  0.4672 -0.3751 -0.2148
  839MOL0     N10666   0.070   5.894   4.230 -0.1128 -0.1330  0.2693
  839MOL0     N10667   0.167   5.822   4.196 -0.4578 -1.1808 -0.0523
  839MOL0     C10668   0.864   5.228   3.200 -1.2875  0.0197  0.8391
  839MOL0     C10669   0.953   5.203   3.089  0.3799  0.1863 -0.1572
  839MOL0     C10670   1.331   5.196   2.840 -0.0126 -0.1436  0.0047
  839MOL0     C10671   1.401   5.292   2.769 -0.7024 -0.1128 -0.2084
  839MOL0     C10672   1.492   5.248   2.665 -0.5449  0.8192  0.1015
  839MOL0     C10673   1.503   5.114   2.628  0.4224 -0.2581  0.2994
  839MOL0     O10674   1.592   5.079   2.527 -0.1514 -0.0063 -0.3812
  839MOL0     C10675   1.662   4.956   2.534  0.0595  0.5140  0.0007
  839MOL0     C10676   1.792   4.964   2.629  0.5714  0.4564  0.1874
  839MOL0     C10677   1.865   4.833   2.624 -0.5132 -0.3367 -0.2396
  839MOL0     C10678   1.996   4.835   2.708  1.0576  0.3158  0.6885
  839MOL0     C10679   1.972   4.831   2.850 -0.0116 -0.0618  0.8225
  839MOL0     C10680   1.951   4.839   2.964  1.1489  0.5388 -0.4264
  839MOL0     C10681   1.416   5.022   2.699 -0.0888  0.6442  0.7101
  839MOL0     C10682   1.333   5.065   2.798  0.4863  0.3272  0.2636
  839MOL0     H10683   1.232   5.121   3.255 -0.2486 -0.4632 -0.6728
  839MOL0     H10684   1.073   5.199   3.458  4.0561  1.2547 -0.5677
  839MOL0     H10685   0.652   5.320   3.375 -3.5946 -1.7271  3.0359
  839MOL0     H10686   0.767   5.413   3.459 -1.7737  0.8831 -2.0326
  839MOL0     H10687   0.731   5.294   3.665  1.3389 -2.9765 -0.9560
  839MOL0     H10688   0.601   5.198   3.596 -0.3993  0.4721 -1.4578
  839MOL0     H10689   0.476   5.359   3.528  1.9962 -0.4182 -0.8132
  839MOL0     H10690   0.587   5.498   3.583  0.5998  0.5879 -0.8168
  839MOL0     H10691   0.464   5.278   3.765 -1.9703  0.2075  0.9509
  839MOL0     H10692   0.566   5.405   3.816 -1.0827 -1.1577  1.0081
  839MOL0     H10693   0.289   5.459   3.708  0.6764 -1.2225 -0.1856
  839MOL0     H10694   0.394   5.588   3.754  0.3043  0.4195 -1.6170
  839MOL0     H10695   0.410   5.482   3.982 -1.7278 -3.2848  3.9109
  839MOL0     H10696   0.299   5.361   3.916  1.3038 -0.8705 -0.2857
  839MOL0     H10697   0.127   5.568   3.883 -0.2193  1.5622  1.4188
  839MOL0     H10698   0.163   5.517   4.047  1.9213 -0.0824  1.5269
  839MOL0     H10699   0.291   5.757   3.906  1.4622 -0.4423  1.0374
  839MOL0     H10700   0.341   5.697   4.055  0.2562 -0.7930 -1.3171
  839MOL0     H10701  -0.030   5.804   3.938 -0.1214  0.7706 -0.4802
  839MOL0     H10702  -0.187   5.959   4.245  1.1141  0.6296  0.4631
  839MOL0     H10703  -0.229   5.891   4.098 -0.4646 -0.5552  1.6174
  839MOL0     H10704  -0.074   6.162   4.153  0.2374  0.7266  0.8682
  839MOL0     H10705  -0.251   6.143   4.108 -0.7853 -2.2301 -2.9007
  839MOL0     H10706   0.004   6.094   3.931  0.8154  3.5930 -2.1928
  839MOL0     H10707  -0.160   6.046   3.892  0.3199 -0.8965  0.1723
  839MOL0     H10708  -0.080   6.270   3.797  0.8207 -1.8720  0.3990
  839MOL0     H10709  -0.081   6.344   3.949  3.1629  0.4773 -3.9186
  839MOL0     H10710  -0.497   6.346   3.953  0.6921  0.9192  1.0979
  839MOL0     H10711  -0.614   6.559   3.895  0.0204 -1.2148 -0.3871
  839MOL0     H10712  -0.512   6.911   3.506  0.2364 -1.1400  1.4095
  839MOL0     H10713  -0.619   7.100   3.396  1.3226  1.9535  1.6037
  839MOL0     H10714  -0.766   7.194   3.268  0.8457  0.3655  0.0365
  839MOL0     H10715  -0.724   7.324   3.388  0.4989 -1.8799  1.6415
  839MOL0     H10716  -0.990   7.292   3.265  0.4418 -0.0420  0.8367
  839MOL0     H10717  -0.847   7.381   3.191 -0.6852 -3.1421 -1.7701
  839MOL0     H10718  -0.849   7.551   3.345  0.1126 -0.2279 -2.0068
  839MOL0     H10719  -0.933   7.460   3.478  3.2291  1.1846  0.1757
  839MOL0     H10720  -1.040   7.545   3.202  0.5436 -1.4074  0.7383
  839MOL0     H10721  -1.130   7.457   3.321 -0.2183  0.3072 -2.6892
  839MOL0     H10722  -1.154   7.664   3.464 -1.5018  2.0723 -0.4606
  839MOL0     H10723  -1.213   7.686   3.304 -1.5215  2.1332  2.0985
  839MOL0     H10724  -1.018   7.812   3.230  1.9565 -2.5601  0.3381
  839MOL0     H10725  -0.926   7.760   3.371  0.2884  2.2740  2.4024
  839MOL0     H10726  -1.169   7.923   3.449 -0.6542  2.8068  0.9070
  839MOL0     H10727  -1.010   7.922   3.508 -1.9678  3.7781  0.0120
  839MOL0     H10728  -0.889   8.031   3.383 -2.2279  0.1047  1.7580
  839MOL0     H10729  -1.040   8.132   3.399 -0.7835  2.2512 -1.0289
  839MOL0     H10730  -0.961   7.079   3.661 -0.7158 -1.0411  1.0677
  839MOL0     H10731  -0.868   6.866   3.755  0.5967 -1.3074  1.3349
  839MOL0     H10732  -0.242   6.699   3.722  0.9816 -0.9635 -1.7468
  839MOL0     H10733  -0.138   6.508   3.795  0.9629  0.2614  1.8132
  839MOL0     H10734   0.757   5.246   3.190 -1.2747 -1.0004 -2.1807
  839MOL0     H10735   0.910   5.205   2.989  0.6404  0.9442 -0.2651
  839MOL0     H10736   1.408   5.397   2.794  2.6170  0.9247 -4.3808
  839MOL0     H10737   1.557   5.315   2.610  0.8773 -1.9761 -1.8977
  839MOL0     H10738   1.711   4.923   2.442  0.3804  0.5587  0.1544
  839MOL0     H10739   1.602   4.867   2.557  2.0049 -1.1538 -0.9827
  839MOL0     H10740   1.858   5.042   2.589 -1.6108  1.8246 -0.9490
  839MOL0     H10741   1.756   5.007   2.722  2.2424  1.0358  0.5958
  839MOL0     H10742   1.885   4.815   2.518 -1.4018  0.5522 -0.5792
  839MOL0     H10743   1.804   4.746   2.649  1.8452 -2.1767 -0.5638
  839MOL0     H10744   2.067   4.756   2.680  0.3775 -1.4923  3.6275
  839MOL0     H10745   2.050   4.927   2.685  4.3581 -0.5995  3.8479
  839MOL0     H10746   1.929   4.845   3.069  2.9767 -1.8613  0.1854
  839MOL0     H10747   1.414   4.919   2.666 -1.3525  1.3838 -1.7878
  839MOL0     H10748   1.272   4.993   2.851  0.1853 -0.2662 -0.8548
  840MOL0     O10749   3.650   3.516   8.107 -0.8175  0.4427  0.3588
  840MOL0     C10750   3.680   3.429   8.019 -0.2923  0.7598 -0.1160
  840MOL0     O10751   3.659   3.290   8.032 -0.2636 -0.1515 -0.0647
  840MOL0     C10752   3.611   3.260   8.157  0.4378 -0.0788 -0.3064
  840MOL0     C10753   3.694   3.273   8.283  0.2447  0.1442 -0.2585
  840MOL0     C10754   3.652   3.218   8.406  0.2912  0.6591 -0.2380
  840MOL0     C10755   3.529   3.146   8.413 -0.2318 -1.1663  0.2773
  840MOL0     O10756   3.496   3.089   8.528 -0.4904  0.3928 -0.4043
  840MOL0     C10757   3.423   2.962   8.513  0.2072  0.0556  0.4573
  840MOL0     C10758   3.363   2.921   8.641  0.8261 -0.1636 -0.0870
  840MOL0     C10759   3.237   2.985   8.689 -0.3560  0.4679 -0.3732
  840MOL0     C10760   3.163   2.910   8.793  0.0100  0.0369  0.0699
  840MOL0     C10761   3.031   2.982   8.812  0.9569 -0.1990  0.1419
  840MOL0     C10762   2.928   2.914   8.907 -0.3995  0.2100  0.3543
  840MOL0     C10763   2.986   2.855   9.033  0.8297  0.0562  0.9898
  840MOL0     C10764   2.881   2.781   9.114  0.2544  0.1099 -0.6183
  840MOL0     N10765   2.803   2.859   9.213  0.3230 -0.1318 -0.0499
  840MOL0     C10766   2.682   2.930   9.191  0.9891 -0.0359  0.5640
  840MOL0     C10767   2.671   3.005   9.299  0.1612  0.2890  0.7084
  840MOL0     C10768   2.564   3.109   9.312  0.4835 -1.2386 -0.0577
  840MOL0     C10769   2.421   3.058   9.345 -1.0940 -0.2228 -1.8018
  840MOL0     C10770   2.412   2.997   9.483  0.4007  0.0586 -0.3150
  840MOL0     C10771   2.403   3.104   9.597  0.5548 -0.1796  0.1914
  840MOL0     O10772   2.295   3.209   9.568  0.7826 -0.7074 -0.4209
  840MOL0     C10773   2.161   3.171   9.553 -1.3070 -0.1098 -1.0663
  840MOL0     C10774   2.096   3.093   9.647  0.1362 -0.8838 -0.4008
  840MOL0     C10775   1.958   3.077   9.652 -0.6243 -0.4989  1.0381
  840MOL0     C10776   1.879   3.137   9.546 -0.5643 -0.3745  0.3669
  840MOL0     C10777   1.732   3.118   9.542  0.4489  1.0365 -0.3506
  840MOL0     O10778   1.652   3.157   9.433  0.1206  0.7401 -1.0144
  840MOL0     C10779   1.517   3.128   9.467 -0.5138 -0.2318  0.0374
  840MOL0     C10780   1.447   3.236   9.511 -0.7245  0.3204  0.3939
  840MOL0     C10781   1.304   3.233   9.528 -0.9691 -0.1497 -0.4373
  840MOL0     C10782   1.250   3.104   9.530  0.1316 -0.8474 -0.3216
  840MOL0     O10783   1.116   3.088   9.554  0.3832  0.7581  0.0256
  840MOL0     C10784   1.050   3.152   9.662  0.3314  0.0089  0.2142
  840MOL0     C10785   1.035   3.069   9.783  0.3301  0.0088 -0.1194
  840MOL0     C10786   0.898   2.994   9.774 -0.2042 -0.5201 -0.5845
  840MOL0     C10787   0.861   2.899   9.883 -1.5013 -0.5465 -1.1426
  840MOL0     C10788   0.711   2.884   9.902 -0.5082  0.8793  0.4662
  840MOL0     C10789   0.709   2.834  10.050 -0.2693  0.3378 -0.1256
  840MOL0     C10790   0.576   2.773  10.081  0.3865  0.2625  1.0356
  840MOL0     C10791   0.559   2.710  10.219 -0.4975  0.7124 -0.3962
  840MOL0    Cl10792   0.677   2.581  10.249  0.0664 -0.0701 -0.1035
  840MOL0     C10793   1.327   2.995   9.490 -0.2932  0.3937 -0.9052
  840MOL0     C10794   1.458   3.006   9.457 -0.4737  0.0925 -0.1290
  840MOL0     O10795   1.686   3.068   9.644 -0.8906 -0.5763  0.5279
  840MOL0     C10796   1.945   3.211   9.447 -0.8097 -0.6727 -0.2138
  840MOL0     C10797   2.081   3.239   9.460 -0.2137  1.0015  0.2315
  840MOL0     N10798   2.780   2.985   9.378 -0.2789 -0.5386  0.1054
  840MOL0     N10799   2.856   2.893   9.327  0.1021 -0.3044  0.6845
  840MOL0     C10800   3.446   3.149   8.297 -0.4749 -0.2749  0.4475
  840MOL0     C10801   3.488   3.201   8.176  0.3302 -0.9576 -0.1060
  840MOL0     C10802   3.726   3.483   7.886 -0.6781 -0.4635  0.4573
  840MOL0     C10803   3.758   3.622   7.868 -0.1178 -0.8012 -0.7550
  840MOL0     C10804   3.793   3.663   7.738 -0.3546 -0.2519  0.6573
  840MOL0     C10805   3.788   3.572   7.627 -0.6786 -0.7298 -0.4646
  840MOL0     O10806   3.816   3.609   7.498 -0.1745  0.0882  0.0720
  840MOL0     C10807   3.818   3.746   7.460 -0.3115 -0.0726  0.1172
  840MOL0     C10808   3.869   3.761   7.319  0.4779 -0.0398  0.1383
  840MOL0     C10809   3.864   3.900   7.259 -0.5302 -0.5812 -0.3022
  840MOL0     C10810   3.742   3.980   7.281 -0.2093 -0.2628 -0.7705
  840MOL0     C10811   3.628   3.902   7.223 -0.4264 -0.0393  0.6764
  840MOL0     C10812   3.538   3.838   7.174 -0.1065 -0.7189  0.0081
  840MOL0     C10813   3.748   3.441   7.652 -0.2338 -0.5087  0.7353
  840MOL0     C10814   3.735   3.390   7.781 -0.0426 -0.0192  0.9001
  840MOL0     H10815   3.797   3.302   8.266 -0.4475  2.1971 -1.2720
  840MOL0     H10816   3.713   3.215   8.495  0.6092  2.3403 -0.3784
  840MOL0     H10817   3.492   2.895   8.461  0.7507  0.3568  0.7796
  840MOL0     H10818   3.329   2.974   8.457  0.2568 -0.3647  0.2753
  840MOL0     H10819   3.431   2.946   8.722 -1.7668  3.7585  1.1447
  840MOL0     H10820   3.328   2.819   8.621  1.3490 -0.1677 -1.0559
  840MOL0     H10821   3.168   3.011   8.608  1.9534  3.0246 -1.7105
  840MOL0     H10822   3.259   3.087   8.723  2.3170 -0.2566  0.3276
  840MOL0     H10823   3.131   2.811   8.758 -0.9025  0.9827 -1.9721
  840MOL0     H10824   3.219   2.897   8.886 -1.0729 -2.7253  0.4419
  840MOL0     H10825   2.987   3.002   8.714  3.6579  0.7119 -0.9641
  840MOL0     H10826   3.051   3.082   8.850  1.8363  0.2990 -1.5446
  840MOL0     H10827   2.885   2.838   8.842  1.5570  0.4920 -1.3977
  840MOL0     H10828   2.842   2.975   8.934 -0.7015 -0.6329  1.3803
  840MOL0     H10829   3.071   2.791   9.010  0.0059 -0.7027 -0.0749
  840MOL0     H10830   3.025   2.940   9.089 -5.0067  2.4041  2.2544
  840MOL0     H10831   2.934   2.702   9.167 -0.6313 -0.3926 -0.4585
  840MOL0     H10832   2.810   2.733   9.046  2.4030 -1.2501 -2.0127
  840MOL0     H10833   2.615   2.938   9.106  2.1042  0.2128 -0.3179
  840MOL0     H10834   2.554   3.155   9.213 -0.3882  3.2501  1.8718
  840MOL0     H10835   2.608   3.181   9.382  4.6692 -0.4815 -3.1192
  840MOL0     H10836   2.407   2.972   9.278  1.2736 -3.0961  1.0700
  840MOL0     H10837   2.343   3.132   9.327 -1.7784 -0.7471 -1.0615
  840MOL0     H10838   2.318   2.941   9.487 -0.6238  1.7486  3.1910
  840MOL0     H10839   2.503   2.940   9.504  0.8737  0.1774 -1.8998
  840MOL0     H10840   2.499   3.157   9.605  0.6563 -0.6323  2.7809
  840MOL0     H10841   2.385   3.051   9.691  2.0315  0.3111  0.7771
  840MOL0     H10842   2.149   3.046   9.730  2.0749  1.6422 -0.0947
  840MOL0     H10843   1.917   3.022   9.736 -2.0535 -1.3186 -0.1480
  840MOL0     H10844   1.491   3.334   9.521  0.4206  0.0920 -1.7541
  840MOL0     H10845   1.238   3.317   9.552 -1.4535 -0.8961  0.9976
  840MOL0     H10846   0.949   3.187   9.637 -1.5583 -3.6095  2.0233
  840MOL0     H10847   1.107   3.239   9.698 -0.5929  0.8149 -0.2070
  840MOL0     H10848   1.039   3.126   9.876  4.1648 -1.8671  1.0585
  840MOL0     H10849   1.123   3.005   9.795  0.7186  0.8394  1.6610
  840MOL0     H10850   0.899   2.935   9.682 -1.1766  1.4562 -1.9412
  840MOL0     H10851   0.821   3.067   9.748 -0.6794 -0.8214 -0.0241
  840MOL0     H10852   0.908   2.802   9.863 -1.0188 -1.1330  2.1430
  840MOL0     H10853   0.922   2.938   9.966 -2.8476  0.9299 -0.7937
  840MOL0     H10854   0.679   2.804   9.834 -4.4005  0.9161  1.9999
  840MOL0     H10855   0.637   2.962   9.884 -0.6709  0.7982  0.7890
  840MOL0     H10856   0.728   2.922  10.112 -1.4056 -1.0472  2.3320
  840MOL0     H10857   0.784   2.758  10.074 -0.3419 -0.3198 -1.8610
  840MOL0     H10858   0.497   2.849  10.073  1.8695  1.6441 -2.1818
  840MOL0     H10859   0.557   2.689  10.013  0.7367  1.6538 -0.8489
  840MOL0     H10860   0.455   2.677  10.227  0.3530 -2.0945  0.1680
  840MOL0     H10861   0.572   2.778  10.303 -0.7429 -1.4494  1.4659
  840MOL0     H10862   1.277   2.899   9.501  2.0882 -0.8369  0.0260
  840MOL0     H10863   1.512   2.916   9.431 -1.0376  0.3447 -2.3527
  840MOL0     H10864   1.896   3.232   9.352  1.0831 -1.3073 -1.3970
  840MOL0     H10865   2.126   3.305   9.386 -1.9296  0.4765 -1.3467
  840MOL0     H10866   3.342   3.127   8.317 -0.7504 -0.4047 -1.0285
  840MOL0     H10867   3.416   3.190   8.096  0.2198  2.1857 -0.5496
  840MOL0     H10868   3.760   3.679   7.960 -0.2710 -0.7868 -0.7599
  840MOL0     H10869   3.811   3.769   7.730  1.4916 -0.4707  1.4067
  840MOL0     H10870   3.892   3.800   7.520 -0.1665  1.4622 -1.3672
  840MOL0     H10871   3.718   3.789   7.470 -1.2985 -1.7985 -1.5971
  840MOL0     H10872   3.975   3.736   7.313  1.2357  2.5399  1.1428
  840MOL0     H10873   3.819   3.692   7.251  2.4672 -1.4644  0.0151
  840MOL0     H10874   3.874   3.898   7.150 -0.3567  0.8546 -0.3379
  840MOL0     H10875   3.950   3.959   7.291 -2.0616  0.9194  1.2530
  840MOL0     H10876   3.728   4.004   7.387 -0.6222  1.1205 -1.1227
  840MOL0     H10877   3.761   4.077   7.236  1.5891  0.3673  1.1541
  840MOL0     H10878   3.458   3.777   7.139 -1.8535 -0.6483  3.3948
  840MOL0     H10879   3.747   3.373   7.567  0.5657  1.1554 -0.6469
  840MOL0     H10880   3.732   3.282   7.789 -0.1041 -0.4747 -3.1887
  841MOL0     O10881   1.271   1.215  10.467  0.9027  0.1867 -0.0068
  841MOL0     C10882   1.303   1.238  10.581 -0.4632 -0.7074 -0.5736
  841MOL0     O10883   1.291   1.153  10.684 -0.1146 -0.8870 -0.3459
  841MOL0     C10884   1.256   1.024  10.656  0.8840 -0.0727  0.9136
  841MOL0     C10885   1.349   0.927  10.623  0.4426  0.7823 -0.8971
  841MOL0     C10886   1.306   0.800  10.583 -0.3563 -0.6522 -0.8167
  841MOL0     C10887   1.180   0.762  10.574  0.0827 -0.3079 -0.5348
  841MOL0     O10888   1.149   0.635  10.535 -0.6905  0.2505 -0.7263
  841MOL0     C10889   1.244   0.542  10.461  0.1667  0.8799  0.9271
  841MOL0     C10890   1.181   0.406  10.431 -0.0373  0.2344  0.3659
  841MOL0     C10891   1.267   0.317  10.340  0.2092  0.5825  0.6306
  841MOL0     C10892   1.189   0.193  10.291  0.6912  0.1101  0.3038
  841MOL0     C10893   1.268   0.077  10.229  0.1082 -0.3527  0.8280
  841MOL0     C10894   1.373   0.019  10.321  1.0900 -0.1868 -0.4851
  841MOL0     C10895   1.446  -0.096  10.260 -0.0063  0.5500  0.0201
  841MOL0     C10896   1.373  -0.226  10.246 -0.4539  0.0437  0.9498
  841MOL0     N10897   1.465  -0.336  10.216  0.5540 -0.1691 -0.3448
  841MOL0     C10898   1.545  -0.358  10.110 -1.1638  0.2425  0.0061
  841MOL0     C10899   1.624  -0.458  10.147  0.0003  0.4103  0.2522
  841MOL0     C10900   1.725  -0.518  10.055  0.3182 -0.2082 -0.9560
  841MOL0     C10901   1.844  -0.423  10.040 -1.2318 -0.5463 -0.1477
  841MOL0     C10902   1.920  -0.397  10.175 -0.0497 -0.1489 -0.0861
  841MOL0     C10903   2.006  -0.505  10.222 -0.0140  1.2057 -0.0727
  841MOL0     O10904   1.939  -0.608  10.305  0.1934  0.6557 -0.3816
  841MOL0     C10905   2.008  -0.674  10.401 -1.1089 -0.5466  0.4160
  841MOL0     C10906   1.932  -0.751  10.486  0.9556 -0.1837 -0.2674
  841MOL0     C10907   1.997  -0.820  10.594 -0.1111 -0.3104 -0.4467
  841MOL0     C10908   2.131  -0.814  10.613  0.7275  0.3955 -0.8483
  841MOL0     C10909   2.207  -0.901  10.710 -0.1516  1.0987  0.1753
  841MOL0     O10910   2.327  -0.865  10.762 -0.9371  0.0424 -0.1842
  841MOL0     C10911   2.414  -0.944  10.841  0.0224 -0.1469 -0.6452
  841MOL0     C10912   2.554  -0.925  10.816  0.8534 -0.1759 -0.8451
  841MOL0     C10913   2.643  -1.015  10.871 -0.7612 -0.0021  0.6526
  841MOL0     C10914   2.611  -1.130  10.950 -0.0944  0.2280  1.0707
  841MOL0     O10915   2.701  -1.208  11.015 -0.5726 -0.5285 -0.4472
  841MOL0     C10916   2.845  -1.196  10.993 -0.5067  0.3653 -0.3583
  841MOL0     C10917   2.902  -1.282  11.113 -0.3739  1.0160 -0.0962
  841MOL0     C10918   3.055  -1.289  11.121 -0.6057  0.2898 -0.3454
  841MOL0     C10919   3.098  -1.413  11.202  0.5258  0.2278  0.0872
  841MOL0     C10920   3.244  -1.426  11.184 -0.5649 -0.5474 -0.7388
  841MOL0     C10921   3.285  -1.536  11.277  0.2123 -0.4652  0.5201
  841MOL0     C10922   3.434  -1.569  11.262  0.6347 -0.3333  0.4648
  841MOL0     C10923   3.506  -1.665  11.369  0.4914  0.5189  0.7031
  841MOL0    Cl10924   3.666  -1.673  11.306 -0.4642 -0.2164  0.1270
  841MOL0     C10925   2.470  -1.141  10.974 -0.4632 -0.0290 -0.2850
  841MOL0     C10926   2.378  -1.054  10.916  0.1296  0.2062 -1.3349
  841MOL0     O10927   2.155  -1.007  10.733  0.4308 -0.1446 -0.6712
  841MOL0     C10928   2.210  -0.733  10.526  0.2412 -0.6644  0.2085
  841MOL0     C10929   2.149  -0.670  10.413 -0.2324 -0.3800  0.3197
  841MOL0     N10930   1.576  -0.509  10.264  0.5101  0.4802 -0.4641
  841MOL0     N10931   1.486  -0.429  10.307 -0.0219  0.7971  0.3680
  841MOL0     C10932   1.082   0.864  10.602  0.8042 -0.2175 -0.1972
  841MOL0     C10933   1.116   0.991  10.641 -0.8834 -0.6394 -0.1558
  841MOL0     C10934   1.336   1.380  10.609 -0.6867 -0.1262  0.2361
  841MOL0     C10935   1.369   1.414  10.744 -0.0917  0.3635 -0.2706
  841MOL0     C10936   1.403   1.544  10.770  1.2447  0.2690 -0.7937
  841MOL0     C10937   1.379   1.646  10.672  0.2546 -0.0541 -0.8956
  841MOL0     O10938   1.409   1.784  10.688 -0.2744  0.3609  0.5890
  841MOL0     C10939   1.499   1.811  10.800 -0.2946  1.6451  0.4674
  841MOL0     C10940   1.551   1.952  10.820  0.1629 -0.8588 -0.1274
  841MOL0     C10941   1.593   1.976  10.973 -0.6167  0.0165 -0.5582
  841MOL0     C10942   1.733   1.920  11.012  0.3432 -0.4408 -0.4916
  841MOL0     C10943   1.832   2.009  10.960 -0.6693 -2.1425  0.7082
  841MOL0     C10944   1.921   2.079  10.906 -1.4296  0.7524 -0.7569
  841MOL0     C10945   1.330   1.616  10.545 -0.2246 -0.4611 -0.5559
  841MOL0     C10946   1.307   1.482  10.512 -0.5097 -0.0261 -0.1811
  841MOL0     H10947   1.456   0.948  10.626  0.2406  2.3944 -2.9330
  841MOL0     H10948   1.381   0.725  10.558 -1.4182 -3.0972  2.5775
  841MOL0     H10949   1.340   0.518  10.509 -0.6409 -5.6243  0.2336
  841MOL0     H10950   1.263   0.585  10.362 -0.1976 -1.3139 -0.1516
  841MOL0     H10951   1.080   0.417  10.390  1.6552 -2.5801 -5.7757
  841MOL0     H10952   1.175   0.353  10.526 -2.5519  2.0736  1.3353
  841MOL0     H10953   1.362   0.287  10.384  0.3173  0.9583  0.6517
  841MOL0     H10954   1.287   0.378  10.252 -0.9763 -0.4574 -0.4142
  841MOL0     H10955   1.127   0.153  10.372 -0.5698  1.8709  0.2748
  841MOL0     H10956   1.109   0.231  10.226  0.3671 -2.3417 -0.8349
  841MOL0     H10957   1.302   0.112  10.131 -0.5600 -1.1145  0.3060
  841MOL0     H10958   1.191   0.000  10.216 -0.5429  0.0827  1.9838
  841MOL0     H10959   1.324  -0.009  10.415  1.2820  0.8775 -0.0615
  841MOL0     H10960   1.450   0.091  10.348 -0.1476  0.6901  0.8517
  841MOL0     H10961   1.487  -0.074  10.162  2.1141 -2.5831  0.0381
  841MOL0     H10962   1.528  -0.115  10.329 -0.2496 -2.5786 -0.4055
  841MOL0     H10963   1.293  -0.226  10.172 -0.5052  0.3076  1.0037
  841MOL0     H10964   1.321  -0.236  10.342 -0.1953  1.1716  1.2199
  841MOL0     H10965   1.555  -0.300  10.019 -0.9470  0.1476 -0.0308
  841MOL0     H10966   1.670  -0.544   9.964  2.0442 -1.5613 -1.6734
  841MOL0     H10967   1.780  -0.609  10.080  0.6083  0.4229  0.8242
  841MOL0     H10968   1.800  -0.325  10.019 -0.0787  0.9754  3.6571
  841MOL0     H10969   1.911  -0.444   9.957 -1.3263  3.1802 -1.3472
  841MOL0     H10970   1.987  -0.312  10.158  0.7036 -0.8700 -0.8053
  841MOL0     H10971   1.847  -0.366  10.250 -0.0897  2.2080 -1.0242
  841MOL0     H10972   2.082  -0.467  10.291  2.3583 -2.6568 -0.2198
  841MOL0     H10973   2.059  -0.555  10.141 -0.5653  1.4231 -0.5745
  841MOL0     H10974   1.826  -0.750  10.466  0.5405  0.8010  1.7186
  841MOL0     H10975   1.940  -0.885  10.660  3.0566 -3.0123 -0.1180
  841MOL0     H10976   2.596  -0.856  10.744  1.1695  1.8351  1.1356
  841MOL0     H10977   2.747  -0.997  10.849 -0.5934 -1.9305 -0.3027
  841MOL0     H10978   2.893  -1.098  10.993 -0.9572  0.5927 -0.9014
  841MOL0     H10979   2.871  -1.232  10.894 -0.4520  2.5246 -1.1888
  841MOL0     H10980   2.868  -1.384  11.094  0.6205  0.1168  2.4826
  841MOL0     H10981   2.866  -1.255  11.212  1.9665 -0.5064  1.2583
  841MOL0     H10982   3.101  -1.199  11.162  1.5319 -0.0103 -1.9044
  841MOL0     H10983   3.083  -1.297  11.015  0.2141  1.2188 -0.2132
  841MOL0     H10984   3.068  -1.390  11.305 -0.0822 -0.9951  0.2074
  841MOL0     H10985   3.056  -1.504  11.158  3.1262 -1.4571  0.8470
  841MOL0     H10986   3.293  -1.336  11.223  0.1801 -1.5884  0.8122
  841MOL0     H10987   3.279  -1.449  11.083 -2.1086 -0.6411 -1.2792
  841MOL0     H10988   3.222  -1.621  11.247 -2.0970  1.5875 -0.8416
  841MOL0     H10989   3.271  -1.519  11.384 -1.2345 -3.8894  1.0275
  841MOL0     H10990   3.445  -1.613  11.162  0.4098  2.4062 -0.8469
  841MOL0     H10991   3.492  -1.477  11.258  1.0738 -0.4980  2.3175
  841MOL0     H10992   3.458  -1.764  11.367  1.6353 -0.3289  5.1534
  841MOL0     H10993   3.510  -1.626  11.471  0.7938  2.2483  0.0573
  841MOL0     H10994   2.453  -1.224  11.041  2.2424  1.5493  2.6167
  841MOL0     H10995   2.276  -1.077  10.945  0.1398  0.9112 -0.6802
  841MOL0     H10996   2.318  -0.718  10.532  0.1659  0.4759 -0.8701
  841MOL0     H10997   2.206  -0.617  10.338 -1.8764  2.7757  1.0859
  841MOL0     H10998   0.975   0.849  10.611  0.3004  1.1238 -2.7351
  841MOL0     H10999   1.041   1.069  10.651  0.0192 -0.0103  2.5840
  841MOL0     H11000   1.389   1.326  10.804 -0.7854  0.8502  0.6974
  841MOL0     H11001   1.452   1.569  10.864  0.2080 -0.5545 -0.0041
  841MOL0     H11002   1.589   1.749  10.797 -1.9804 -1.0344  1.6929
  841MOL0     H11003   1.439   1.777  10.885 -0.0831 -1.3930 -0.5058
  841MOL0     H11004   1.627   1.976  10.745 -1.8807 -0.2460 -2.1038
  841MOL0     H11005   1.472   2.026  10.807  0.2614 -1.3203 -5.8363
  841MOL0     H11006   1.510   1.943  11.036  0.4030  1.2416  1.5299
  841MOL0     H11007   1.602   2.084  10.992 -1.7805 -0.1812  1.3131
  841MOL0     H11008   1.740   1.909  11.121  0.0753  0.6022 -0.3604
  841MOL0     H11009   1.745   1.816  10.980 -4.6912 -1.9081  1.3791
  841MOL0     H11010   1.997   2.130  10.849  1.2824 -2.1153  0.0067
  841MOL0     H11011   1.328   1.700  10.477 -0.8297  0.7235  0.8678
  841MOL0     H11012   1.282   1.465  10.408 -1.7895 -0.3179  0.1664
  842MOL0     O11013   5.588   0.326   8.437 -0.1182 -0.0283  0.6664
  842MOL0     C11014   5.704   0.363   8.418 -1.6227  1.2888 -0.0883
  842MOL0     O11015   5.785   0.430   8.506  0.1332  0.0437  0.3027
  842MOL0     C11016   5.721   0.492   8.612 -0.2166  0.3246  0.6424
  842MOL0     C11017   5.697   0.416   8.737  0.4351  0.4076 -0.1836
  842MOL0     C11018   5.633   0.498   8.837 -0.8765  0.2926  0.9163
  842MOL0     C11019   5.598   0.634   8.834  0.3406  0.2926  0.4375
  842MOL0     O11020   5.557   0.695   8.953 -0.3921  0.1936 -1.0018
  842MOL0     C11021   5.510   0.828   8.942  0.0326 -0.4619  1.4576
  842MOL0     C11022   5.450   0.885   9.069  0.6607  0.6381 -0.2222
  842MOL0     C11023   5.320   0.806   9.110  0.2982 -0.5165  0.1280
  842MOL0     C11024   5.218   0.899   9.177  0.4699 -0.6888  0.1307
  842MOL0     C11025   5.259   0.939   9.323 -0.2979  1.5230  0.0248
  842MOL0     C11026   5.183   1.063   9.373  0.7166 -0.2089 -0.2977
  842MOL0     C11027   5.203   1.093   9.524 -0.7871 -0.1834  0.4377
  842MOL0     C11028   5.358   1.135   9.554  0.1426 -0.2544 -0.3633
  842MOL0     N11029   5.373   1.184   9.691 -0.6309  0.0388 -0.3569
  842MOL0     C11030   5.477   1.164   9.778 -0.1025 -0.0371 -0.3900
  842MOL0     C11031   5.430   1.200   9.902 -0.1322  0.5490 -0.4444
  842MOL0     C11032   5.511   1.215  10.030  0.2394 -0.2245  0.6591
  842MOL0     C11033   5.465   1.144  10.161  0.0281 -0.3212  0.6078
  842MOL0     C11034   5.323   1.182  10.191 -0.0841 -0.2083 -0.7681
  842MOL0     C11035   5.317   1.332  10.197 -0.9479  0.3150  0.3929
  842MOL0     O11036   5.404   1.389  10.297  0.3667  0.9091  0.9117
  842MOL0     C11037   5.379   1.368  10.432  0.5651  0.2184  1.0811
  842MOL0     C11038   5.487   1.355  10.507 -0.7978 -0.3653 -0.2363
  842MOL0     C11039   5.476   1.377  10.647  0.1747 -0.3971 -0.1685
  842MOL0     C11040   5.352   1.397  10.713  0.4407 -0.6300  0.6123
  842MOL0     C11041   5.335   1.393  10.861 -0.1689 -0.0784 -0.1060
  842MOL0     O11042   5.216   1.426  10.913 -0.4162  0.3389 -0.3840
  842MOL0     C11043   5.189   1.417  11.048  0.3365  0.5632  0.3765
  842MOL0     C11044   5.128   1.299  11.097  1.1443 -0.3143 -0.0237
  842MOL0     C11045   5.071   1.303  11.229  0.3223 -0.2795 -0.9122
  842MOL0     C11046   5.093   1.411  11.314 -0.0104 -0.5469 -0.2236
  842MOL0     O11047   5.059   1.421  11.438  0.0459 -0.8584 -0.0775
  842MOL0     C11048   5.161   1.374  11.523  0.3702  0.2065 -0.1457
  842MOL0     C11049   5.126   1.421  11.662  0.0033  0.0755 -0.2510
  842MOL0     C11050   5.110   1.578  11.665  0.8232 -0.4266 -0.3041
  842MOL0     C11051   5.083   1.625  11.807  0.6596  0.2356  0.5848
  842MOL0     C11052   5.094   1.774  11.826 -0.7452  1.4771 -0.3057
  842MOL0     C11053   5.117   1.808  11.968 -0.1224 -0.3755  0.2757
  842MOL0     C11054   4.999   1.765  12.046 -0.2405 -0.7094  0.6266
  842MOL0     C11055   5.007   1.802  12.200  0.2488 -0.1768  0.3467
  842MOL0    Cl11056   5.137   1.696  12.270  0.1406 -0.1847  0.1925
  842MOL0     C11057   5.171   1.513  11.255  1.4610  0.3863  0.6605
  842MOL0     C11058   5.219   1.526  11.125 -0.3756  1.1623 -0.0389
  842MOL0     O11059   5.442   1.388  10.928 -0.3842 -0.5059  0.7144
  842MOL0     C11060   5.232   1.382  10.629 -0.3516 -0.3807 -0.7681
  842MOL0     C11061   5.255   1.362  10.495 -0.5784  0.2898  0.3028
  842MOL0     N11062   5.311   1.251   9.882 -0.8138 -0.1329  0.5395
  842MOL0     N11063   5.276   1.239   9.764 -0.9369  1.1151 -0.2635
  842MOL0     C11064   5.618   0.690   8.712  0.0391 -0.4916 -0.7331
  842MOL0     C11065   5.689   0.630   8.599  0.2251 -0.6291 -0.2483
  842MOL0     C11066   5.781   0.298   8.316  1.0093 -0.5491  1.0096
  842MOL0     C11067   5.738   0.173   8.266  0.5716  1.0837  1.2223
  842MOL0     C11068   5.805   0.107   8.167  0.7683  0.0943 -1.4307
  842MOL0     C11069   5.921   0.161   8.114  0.4159  0.5309 -0.0432
  842MOL0     O11070   5.991   0.104   8.005 -0.5677 -0.1612 -0.2594
  842MOL0     C11071   5.975  -0.039   7.983 -0.7538 -1.1246 -0.0270
  842MOL0     C11072   6.048  -0.124   8.091  0.2338  0.1498 -0.3791
  842MOL0     C11073   6.201  -0.101   8.097  0.4870 -0.7331  0.5722
  842MOL0     C11074   6.279  -0.178   7.995 -0.4560  0.4421  0.5235
  842MOL0     C11075   6.290  -0.122   7.853  0.6950  0.2148  0.2278
  842MOL0     C11076   6.294  -0.078   7.743 -0.2786 -0.2298  0.3781
  842MOL0     C11077   5.959   0.290   8.152 -0.0769  0.3601  0.1881
  842MOL0     C11078   5.895   0.361   8.255 -0.4255 -0.6024 -0.3157
  842MOL0     H11079   5.712   0.311   8.762  1.4706  0.7809  0.8731
  842MOL0     H11080   5.616   0.446   8.931  0.9598 -0.5177  0.8324
  842MOL0     H11081   5.435   0.818   8.863  0.2170 -2.1738  1.4727
  842MOL0     H11082   5.592   0.887   8.898 -0.9115  0.2452  0.5805
  842MOL0     H11083   5.411   0.983   9.038 -0.1644  0.0617 -1.0697
  842MOL0     H11084   5.526   0.895   9.146  0.5725 -0.4521  0.0194
  842MOL0     H11085   5.344   0.721   9.174 -1.1231  0.8042  2.5593
  842MOL0     H11086   5.273   0.764   9.020 -0.8190  1.9189 -0.5124
  842MOL0     H11087   5.221   0.984   9.109 -0.0831  0.4613  1.5082
  842MOL0     H11088   5.116   0.861   9.184  0.1022  0.5663  2.5782
  842MOL0     H11089   5.366   0.959   9.335 -0.2991  1.1716  0.6681
  842MOL0     H11090   5.226   0.857   9.388 -0.8125  1.2849 -0.5331
  842MOL0     H11091   5.076   1.044   9.356  1.2398 -2.0073 -1.9767
  842MOL0     H11092   5.203   1.150   9.309 -0.2166 -0.5589 -1.0953
  842MOL0     H11093   5.135   1.172   9.558 -3.4915 -1.4385 -1.6624
  842MOL0     H11094   5.180   1.005   9.584  0.3213  0.6073  2.0857
  842MOL0     H11095   5.376   1.216   9.482 -4.8977 -0.5355 -2.3684
  842MOL0     H11096   5.428   1.052   9.544  0.0066 -1.2000  4.4250
  842MOL0     H11097   5.581   1.138   9.765  1.4654  4.0753  1.9069
  842MOL0     H11098   5.529   1.322  10.049 -1.4527  0.2069  0.0657
  842MOL0     H11099   5.609   1.180   9.998 -2.0750 -3.6780 -3.5586
  842MOL0     H11100   5.533   1.159  10.245 -0.3348  2.3622  0.5128
  842MOL0     H11101   5.460   1.040  10.127 -2.4195  0.6614 -2.6049
  842MOL0     H11102   5.253   1.137  10.119 -0.7642 -0.3808 -0.0093
  842MOL0     H11103   5.309   1.141  10.291  0.8269 -0.6260 -0.8087
  842MOL0     H11104   5.215   1.360  10.226 -0.7886 -0.4894  1.8673
  842MOL0     H11105   5.347   1.388  10.109  2.8672 -0.0888  1.2662
  842MOL0     H11106   5.581   1.361  10.454 -0.2734  1.3362  0.8079
  842MOL0     H11107   5.564   1.375  10.710 -0.6007  0.2673  0.9762
  842MOL0     H11108   5.108   1.223  11.023 -1.9411 -0.8339  1.1845
  842MOL0     H11109   5.013   1.222  11.272  0.5571  0.1148  0.1809
  842MOL0     H11110   5.256   1.426  11.508  0.6487 -0.1596  0.3147
  842MOL0     H11111   5.173   1.266  11.532  0.1200  0.3477  3.1787
  842MOL0     H11112   5.204   1.388  11.731 -2.6945 -2.6000  1.7703
  842MOL0     H11113   5.032   1.377  11.698  0.4735  0.6533  1.8141
  842MOL0     H11114   5.018   1.603  11.612  0.4338  0.9225  0.9257
  842MOL0     H11115   5.202   1.630  11.637  0.3758 -0.5758 -2.1444
  842MOL0     H11116   4.991   1.580  11.846  1.1261 -1.9585 -0.7059
  842MOL0     H11117   5.168   1.584  11.862 -1.3312 -2.4876  1.8979
  842MOL0     H11118   5.001   1.828  11.803 -2.1880  0.3016  2.4041
  842MOL0     H11119   5.172   1.810  11.758 -0.6481  0.2568 -0.8690
  842MOL0     H11120   5.126   1.916  11.983 -1.3375 -0.5212  2.4809
  842MOL0     H11121   5.207   1.763  12.011 -0.0515 -1.0262 -0.5256
  842MOL0     H11122   4.914   1.821  12.006  0.4668 -0.4443 -0.5783
  842MOL0     H11123   4.997   1.656  12.042  3.2983 -0.8869 -1.3828
  842MOL0     H11124   4.916   1.769  12.251 -0.1848 -3.4771 -2.2777
  842MOL0     H11125   5.027   1.908  12.221  1.6762 -0.3016 -0.2889
  842MOL0     H11126   5.201   1.589  11.326  0.3935  0.9917  0.4929
  842MOL0     H11127   5.266   1.615  11.085 -2.7841  1.6812 -1.9663
  842MOL0     H11128   5.135   1.372  10.677  0.2201 -2.1279  0.1181
  842MOL0     H11129   5.166   1.342  10.435  0.0674 -1.0073 -0.2738
  842MOL0     H11130   5.592   0.795   8.705  1.5478  0.5236  4.7637
  842MOL0     H11131   5.689   0.688   8.507  1.7467  4.5626  2.6298
  842MOL0     H11132   5.655   0.115   8.305  1.7784 -3.0817 -1.6393
  842MOL0     H11133   5.777   0.006   8.138  2.8586 -1.2702  0.8912
  842MOL0     H11134   6.032  -0.043   7.890 -0.1261  0.9645  0.2323
  842MOL0     H11135   5.872  -0.076   7.978 -0.8113 -1.3037  1.8310
  842MOL0     H11136   6.003  -0.092   8.186  1.0790 -1.3466  0.5595
  842MOL0     H11137   6.030  -0.232   8.097  2.4875 -0.3192 -1.2672
  842MOL0     H11138   6.245  -0.120   8.196 -2.3363 -2.8785  1.5693
  842MOL0     H11139   6.217   0.006   8.082 -2.4805 -0.5434 -2.1066
  842MOL0     H11140   6.380  -0.192   8.035 -0.5280 -3.4649 -0.2819
  842MOL0     H11141   6.235  -0.276   7.975 -3.2627  1.0959  2.8863
  842MOL0     H11142   6.309  -0.030   7.648  0.8118 -1.5365 -0.1339
  842MOL0     H11143   6.023   0.345   8.084  1.8691  0.1075  1.7149
  842MOL0     H11144   5.916   0.464   8.280 -0.3838 -1.2999  3.0323
  843MOL0     O11145   5.046   6.167   6.266  1.1969  0.2435 -0.3352
  843MOL0     C11146   5.016   6.136   6.152 -0.2383  1.0284  0.1480
  843MOL0     O11147   4.986   6.014   6.110  0.1740  0.6056 -0.2071
  843MOL0     C11148   4.974   5.918   6.203 -0.1135 -0.0150  0.2383
  843MOL0     C11149   4.858   5.913   6.283  0.3519 -0.1349  0.3316
  843MOL0     C11150   4.817   5.808   6.364 -0.0566  0.0689 -0.2269
  843MOL0     C11151   4.917   5.709   6.382  0.1479  0.4963  0.4759
  843MOL0     O11152   4.906   5.608   6.474 -0.0721  0.0286 -0.0295
  843MOL0     C11153   4.804   5.512   6.473  0.2242 -0.3816  1.0790
  843MOL0     C11154   4.851   5.380   6.533 -0.4982  0.5135  0.6594
  843MOL0     C11155   4.986   5.329   6.479 -1.0401  0.2525  0.0966
  843MOL0     C11156   4.990   5.322   6.324  1.1950 -0.0590  0.3831
  843MOL0     C11157   5.130   5.302   6.273  0.7253  0.0843  0.0106
  843MOL0     C11158   5.150   5.307   6.114  0.6817  0.3646  0.2277
  843MOL0     C11159   5.129   5.450   6.066  0.7701 -0.5177  0.2152
  843MOL0     C11160   5.159   5.472   5.917 -0.3985  0.3401 -0.9827
  843MOL0     N11161   5.155   5.613   5.857  0.0542  0.3398 -0.8441
  843MOL0     C11162   5.085   5.641   5.739  1.1421  0.3066 -0.1114
  843MOL0     C11163   5.108   5.770   5.722  0.4371 -0.6443  0.1953
  843MOL0     C11164   5.072   5.836   5.592  0.4508  0.0263 -0.0497
  843MOL0     C11165   5.122   5.984   5.587  0.0206  0.2314 -0.1917
  843MOL0     C11166   5.124   6.029   5.444  0.2596  0.1641 -0.4982
  843MOL0     C11167   5.139   6.180   5.428 -0.5543  1.3605  0.2977
  843MOL0     O11168   5.032   6.245   5.497  0.2338 -0.1471  0.7625
  843MOL0     C11169   4.972   6.343   5.413 -0.1948 -0.1298  0.1260
  843MOL0     C11170   4.840   6.390   5.459 -0.6578 -0.2325  0.5866
  843MOL0     C11171   4.773   6.497   5.399 -1.3453 -0.2223  0.6441
  843MOL0     C11172   4.834   6.568   5.291 -0.3752 -0.9866  0.6406
  843MOL0     C11173   4.762   6.677   5.222 -0.5996 -0.2628  0.8995
  843MOL0     O11174   4.630   6.679   5.254 -0.1113  0.1862  0.7651
  843MOL0     C11175   4.552   6.772   5.182  0.1216 -0.3493  0.7469
  843MOL0     C11176   4.496   6.870   5.272 -0.7641 -0.5875 -0.6313
  843MOL0     C11177   4.421   6.976   5.211 -0.1459  0.3021 -0.2562
  843MOL0     C11178   4.385   6.981   5.074  0.2096  0.6955  0.1604
  843MOL0     O11179   4.287   7.061   5.024  0.5132  0.1175  0.6461
  843MOL0     C11180   4.235   7.182   5.081 -0.1635 -0.2400 -1.0262
  843MOL0     C11181   4.337   7.298   5.108 -0.5191  0.0078 -0.3668
  843MOL0     C11182   4.265   7.411   5.175  0.2163 -0.0811 -0.3785
  843MOL0     C11183   4.361   7.533   5.196  0.0236  1.2049  0.0084
  843MOL0     C11184   4.307   7.642   5.278 -0.7987  0.1424 -0.7122
  843MOL0     C11185   4.216   7.604   5.398 -0.8902  0.6645 -0.3111
  843MOL0     C11186   4.289   7.512   5.496 -0.4057  0.2715  0.2344
  843MOL0     C11187   4.276   7.568   5.639 -0.0829  0.0174 -0.2058
  843MOL0    Cl11188   4.111   7.554   5.712 -0.0024 -0.0366 -0.1052
  843MOL0     C11189   4.450   6.883   4.993 -0.3231 -0.6838 -0.3303
  843MOL0     C11190   4.521   6.773   5.047  0.8508  0.5671  0.2144
  843MOL0     O11191   4.817   6.743   5.127 -0.1416  0.7769  0.4155
  843MOL0     C11192   4.966   6.539   5.256  0.2138 -0.0931  1.3267
  843MOL0     C11193   5.035   6.427   5.313  0.6475 -0.1760  0.8150
  843MOL0     N11194   5.186   5.824   5.828  0.3137 -0.6163 -0.8776
  843MOL0     N11195   5.218   5.725   5.913  0.1150  0.4950  0.4942
  843MOL0     C11196   5.039   5.718   6.309  0.8907  0.1537 -0.0684
  843MOL0     C11197   5.066   5.819   6.217  0.2142  0.3889 -0.3038
  843MOL0     C11198   4.996   6.247   6.047  1.0827  0.1659 -0.2428
  843MOL0     C11199   5.007   6.380   6.084  0.3940 -0.6138 -0.2766
  843MOL0     C11200   4.998   6.488   5.991  0.1672  0.7766 -0.7882
  843MOL0     C11201   4.965   6.456   5.861 -0.7223 -0.4714 -0.2098
  843MOL0     O11202   4.973   6.546   5.754  0.0655  0.2862  0.0324
  843MOL0     C11203   5.108   6.534   5.702 -0.1721  0.5765  0.6484
  843MOL0     C11204   5.148   6.646   5.604 -0.6100  0.3402  0.3784
  843MOL0     C11205   5.280   6.615   5.523 -0.0463  0.1605 -0.4258
  843MOL0     C11206   5.340   6.743   5.470 -0.1803  0.3825 -0.2782
  843MOL0     C11207   5.472   6.732   5.409 -0.5122 -0.0686 -0.8602
  843MOL0     C11208   5.586   6.726   5.339  1.2994 -0.1116  0.3225
  843MOL0     C11209   4.946   6.316   5.822 -0.2449  0.2160  0.1626
  843MOL0     C11210   4.967   6.213   5.914 -0.5970 -0.4659  0.5104
  843MOL0     H11211   4.805   6.007   6.278  1.8971  0.7148 -0.6846
  843MOL0     H11212   4.728   5.825   6.424  1.1921  0.0978  1.7293
  843MOL0     H11213   4.755   5.501   6.375  2.4276 -0.3745 -0.0997
  843MOL0     H11214   4.727   5.554   6.537 -0.0021 -2.7233  2.4361
  843MOL0     H11215   4.771   5.309   6.508 -0.2917  0.6127 -0.2981
  843MOL0     H11216   4.866   5.396   6.640 -1.1239  0.5268  0.7515
  843MOL0     H11217   5.006   5.228   6.517 -2.8417  0.4988  1.8439
  843MOL0     H11218   5.068   5.394   6.512 -0.2586 -1.0752  0.8309
  843MOL0     H11219   4.915   5.246   6.301  1.2880 -1.2427  3.5072
  843MOL0     H11220   4.943   5.405   6.271 -0.6087 -1.4941 -0.3664
  843MOL0     H11221   5.164   5.201   6.299 -1.0769 -0.4670  0.3574
  843MOL0     H11222   5.193   5.377   6.322  0.5764 -0.0168  0.3591
  843MOL0     H11223   5.084   5.238   6.061 -1.1868  3.9531 -2.6140
  843MOL0     H11224   5.255   5.286   6.093  0.2999 -0.2977 -1.1562
  843MOL0     H11225   5.025   5.481   6.081  0.7304 -0.2502 -0.5697
  843MOL0     H11226   5.200   5.515   6.118 -0.5119  0.6582  0.5512
  843MOL0     H11227   5.075   5.426   5.866 -0.3196  0.0266 -0.8299
  843MOL0     H11228   5.252   5.422   5.888 -1.0570 -0.9794 -0.8483
  843MOL0     H11229   5.028   5.584   5.667  2.6469  0.8025 -1.7783
  843MOL0     H11230   4.962   5.842   5.588  0.4669  0.3277 -0.0530
  843MOL0     H11231   5.101   5.783   5.501 -0.3535  1.2931 -1.0715
  843MOL0     H11232   5.226   5.983   5.622 -0.9010  1.6429  2.9306
  843MOL0     H11233   5.087   6.058   5.659  1.5670 -1.4799  2.4734
  843MOL0     H11234   5.210   5.982   5.396  1.9154  1.7160  0.8252
  843MOL0     H11235   5.030   6.007   5.393 -0.5135  0.2376  0.8337
  843MOL0     H11236   5.154   6.200   5.322 -2.1430  0.0343 -0.2250
  843MOL0     H11237   5.233   6.212   5.474 -0.2757  0.5797  0.2751
  843MOL0     H11238   4.801   6.356   5.554 -0.3145  1.7747  1.4976
  843MOL0     H11239   4.690   6.534   5.457 -2.1675  0.8862 -1.1481
  843MOL0     H11240   4.515   6.887   5.377 -0.9899 -0.1351 -0.6579
  843MOL0     H11241   4.370   7.037   5.285  5.1297  3.1325  1.5770
  843MOL0     H11242   4.185   7.158   5.175  0.2088  1.7739 -0.2705
  843MOL0     H11243   4.157   7.222   5.015  0.0241  0.1699 -0.9988
  843MOL0     H11244   4.380   7.331   5.013 -2.5677  1.7027 -0.7746
  843MOL0     H11245   4.419   7.267   5.173  0.8018  0.2178 -1.8568
  843MOL0     H11246   4.232   7.366   5.269  1.6679 -0.0375  0.1728
  843MOL0     H11247   4.188   7.453   5.110  0.5720  3.0263  1.0591
  843MOL0     H11248   4.452   7.508   5.251 -1.6505  2.2379  3.5491
  843MOL0     H11249   4.404   7.560   5.099  1.8397 -1.4302 -0.0181
  843MOL0     H11250   4.238   7.694   5.210  1.3187  0.2245 -2.9436
  843MOL0     H11251   4.380   7.716   5.310 -0.4183 -1.4865  2.4981
  843MOL0     H11252   4.126   7.555   5.361  0.7528 -1.4517 -1.7608
  843MOL0     H11253   4.168   7.690   5.445 -2.5047 -0.1985 -0.2953
  843MOL0     H11254   4.253   7.409   5.501 -2.4446  0.7867 -2.0654
  843MOL0     H11255   4.397   7.519   5.477 -0.8760  0.0777 -3.1021
  843MOL0     H11256   4.301   7.675   5.639 -0.7943  0.1897 -0.3347
  843MOL0     H11257   4.356   7.524   5.699  2.1154 -1.6505 -3.9688
  843MOL0     H11258   4.440   6.891   4.885 -0.6203  2.5260 -0.1507
  843MOL0     H11259   4.551   6.702   4.972 -4.1917 -2.1467  0.3653
  843MOL0     H11260   5.001   6.611   5.184 -0.6344  0.0004  1.0038
  843MOL0     H11261   5.136   6.423   5.274  0.3103  0.4713 -0.1707
  843MOL0     H11262   5.109   5.644   6.345 -0.1435 -1.7888 -1.8526
  843MOL0     H11263   5.148   5.823   6.146  0.0935  4.0574 -0.4134
  843MOL0     H11264   5.050   6.404   6.180 -2.6877  0.8014  0.8919
  843MOL0     H11265   5.032   6.588   6.013  1.2679  0.5424 -1.3390
  843MOL0     H11266   5.120   6.438   5.652 -0.2617  1.7693 -1.8335
  843MOL0     H11267   5.179   6.522   5.784  1.4672 -0.4003 -0.8526
  843MOL0     H11268   5.076   6.666   5.525  0.0649 -1.4821 -0.7598
  843MOL0     H11269   5.159   6.739   5.660  2.7819  0.7537 -0.7705
  843MOL0     H11270   5.264   6.547   5.439 -1.6227 -2.9450  2.1690
  843MOL0     H11271   5.356   6.555   5.575  1.0158  0.1149 -1.9471
  843MOL0     H11272   5.272   6.792   5.399 -3.0962 -0.5010  1.7203
  843MOL0     H11273   5.337   6.818   5.549  2.3171 -1.3603  1.6186
  843MOL0     H11274   5.678   6.725   5.284  0.9482  0.7549 -0.3016
  843MOL0     H11275   4.935   6.288   5.717  1.8081 -1.9795  0.4354
  843MOL0     H11276   4.962   6.109   5.881 -1.2567  0.3361 -2.1090
  844MOL0     O11277   8.003  10.832  10.751  0.1445 -0.2410  0.3745
  844MOL0     C11278   8.001  10.708  10.733 -0.1524  0.0877  0.7283
  844MOL0     O11279   7.950  10.648  10.623  0.4614  0.1872  0.0533
  844MOL0     C11280   7.947  10.715  10.500  0.5523 -0.8677 -0.7561
  844MOL0     C11281   7.841  10.674  10.412 -0.3695  0.7142 -0.4511
  844MOL0     C11282   7.812  10.735  10.288 -0.8885  0.4505 -0.3422
  844MOL0     C11283   7.888  10.849  10.259 -0.0951 -0.9360  0.7833
  844MOL0     O11284   7.846  10.934  10.164 -0.7894  0.5055 -0.6236
  844MOL0     C11285   7.893  11.072  10.164  0.3233  0.0371  0.0585
  844MOL0     C11286   7.784  11.156  10.101  0.0658 -0.7025  0.5313
  844MOL0     C11287   7.640  11.140  10.143  1.6317 -0.6164 -1.0362
  844MOL0     C11288   7.538  11.210  10.055 -0.0773  0.4506  0.2906
  844MOL0     C11289   7.392  11.191  10.113  0.4505  0.3748  0.7235
  844MOL0     C11290   7.292  11.259  10.021 -0.7462 -0.4358  0.4019
  844MOL0     C11291   7.151  11.220  10.075 -0.6514  0.3365  0.0051
  844MOL0     C11292   7.101  11.089  10.024 -0.7782  0.7031 -0.3280
  844MOL0     N11293   6.962  11.072  10.050 -0.8605  0.1337 -0.7335
  844MOL0     C11294   6.904  11.002  10.155 -0.4032 -0.3344  0.4746
  844MOL0     C11295   6.774  11.042  10.151  0.3638  0.1777  0.2424
  844MOL0     C11296   6.672  11.014  10.253  0.4956  0.5161  0.1456
  844MOL0     C11297   6.702  11.017  10.406 -0.1583 -0.9425 -0.3646
  844MOL0     C11298   6.723  11.160  10.445  0.0746  0.0955  0.1437
  844MOL0     C11299   6.777  11.161  10.593  0.7107 -0.4290  0.4299
  844MOL0     O11300   6.738  11.273  10.677 -0.1389 -0.2771  0.0972
  844MOL0     C11301   6.797  11.401  10.663 -1.0614 -0.3151 -0.2191
  844MOL0     C11302   6.738  11.509  10.736 -0.5448  0.5891  0.2982
  844MOL0     C11303   6.795  11.633  10.739  0.5626 -0.4224 -0.2333
  844MOL0     C11304   6.915  11.667  10.666  0.4256  0.6129  0.5980
  844MOL0     C11305   6.962  11.806  10.647 -0.4827  0.2498 -0.7976
  844MOL0     O11306   7.045  11.841  10.549 -0.3459 -0.4408 -0.6270
  844MOL0     C11307   7.056  11.976  10.516 -0.9313  1.4076 -0.1749
  844MOL0     C11308   6.946  12.061  10.506 -0.9147  0.5364 -0.9700
  844MOL0     C11309   6.969  12.193  10.470  1.0347  0.1574 -0.0958
  844MOL0     C11310   7.103  12.240  10.446 -1.5253 -0.6249 -0.0630
  844MOL0     O11311   7.133  12.369  10.406  0.0793 -0.4430 -0.1665
  844MOL0     C11312   7.056  12.472  10.478 -1.3368 -0.1856 -0.0242
  844MOL0     C11313   6.933  12.528  10.399 -0.5860  0.8482 -0.1919
  844MOL0     C11314   6.869  12.633  10.486 -0.4094  0.0008 -0.9385
  844MOL0     C11315   6.948  12.767  10.495  0.5452 -0.7987  0.0254
  844MOL0     C11316   6.897  12.880  10.582 -0.4705  0.3727 -0.1432
  844MOL0     C11317   6.913  12.841  10.732  0.7060 -0.4251 -0.3422
  844MOL0     C11318   6.779  12.822  10.803  0.1352 -0.8020  2.0321
  844MOL0     C11319   6.774  12.823  10.945 -0.3384  0.5269  0.4081
  844MOL0    Cl11320   6.642  12.710  10.994 -0.2093  0.1106 -0.5000
  844MOL0     C11321   7.214  12.151  10.449 -0.1442  0.1771  0.0328
  844MOL0     C11322   7.185  12.020  10.493  0.3042  0.1205  0.2277
  844MOL0     O11323   6.919  11.878  10.738 -0.2297  0.1205 -0.1969
  844MOL0     C11324   6.970  11.558  10.598 -0.7020  1.1950  0.1642
  844MOL0     C11325   6.918  11.434  10.595  0.5357  0.6899 -0.2997
  844MOL0     N11326   6.756  11.122  10.039  0.8992  0.3222 -0.0980
  844MOL0     N11327   6.871  11.135   9.974 -0.4255  0.5799 -0.4287
  844MOL0     C11328   7.996  10.883  10.338  0.0875  0.5298 -1.8483
  844MOL0     C11329   8.024  10.825  10.463  0.5158  0.7304 -0.5943
  844MOL0     C11330   8.081  10.633  10.836  0.2432  0.3081  0.0774
  844MOL0     C11331   8.108  10.692  10.964  0.2167  0.6983  0.9719
  844MOL0     C11332   8.165  10.617  11.062 -1.4583  0.2081 -0.2974
  844MOL0     C11333   8.199  10.480  11.047  0.3547 -0.5102  0.2056
  844MOL0     O11334   8.252  10.408  11.157 -0.1556 -0.3560 -0.2865
  844MOL0     C11335   8.256  10.264  11.144  0.7455  0.1811 -0.9791
  844MOL0     C11336   8.219  10.207  11.284  0.6324  0.1696  0.1052
  844MOL0     C11337   8.072  10.234  11.323 -0.4080  0.2528  0.6892
  844MOL0     C11338   8.050  10.214  11.475 -0.2517  0.3023  0.5909
  844MOL0     C11339   8.069  10.078  11.528 -0.5580 -0.0133 -0.4707
  844MOL0     C11340   8.095   9.969  11.572  0.3379  0.3055 -0.0777
  844MOL0     C11341   8.178  10.426  10.918 -0.3088  0.0283  1.1616
  844MOL0     C11342   8.123  10.502  10.815  0.2073  1.0429  0.1468
  844MOL0     H11343   7.786  10.586  10.444  2.7292 -1.6043 -1.0622
  844MOL0     H11344   7.727  10.709  10.227  0.4049 -1.2332 -1.5093
  844MOL0     H11345   7.992  11.081  10.120  1.1839 -1.1378  1.6688
  844MOL0     H11346   7.900  11.111  10.266  2.8922 -0.8962  0.2918
  844MOL0     H11347   7.803  11.126   9.997  0.0834  2.2144 -0.4037
  844MOL0     H11348   7.811  11.262  10.103 -1.8804 -0.1079 -1.2411
  844MOL0     H11349   7.618  11.180  10.243 -3.7982  0.7428 -2.4042
  844MOL0     H11350   7.613  11.034  10.136 -0.9881 -0.1680  0.8138
  844MOL0     H11351   7.549  11.319  10.059 -2.9103  0.8109  0.8910
  844MOL0     H11352   7.546  11.192   9.947  0.9321  2.3446  0.0022
  844MOL0     H11353   7.383  11.223  10.217  0.4876 -1.5656  1.3562
  844MOL0     H11354   7.353  11.088  10.114 -0.1180  0.5715  0.0811
  844MOL0     H11355   7.301  11.239   9.914  0.6120 -2.6050  0.8633
  844MOL0     H11356   7.311  11.366  10.037  0.3036 -0.5176 -0.1838
  844MOL0     H11357   7.153  11.215  10.184  2.0102  2.2648  0.1441
  844MOL0     H11358   7.078  11.295  10.045 -3.0786 -1.6016  0.7525
  844MOL0     H11359   7.154  11.013  10.083 -0.4282  2.1721  1.3339
  844MOL0     H11360   7.110  11.068   9.917 -3.1055 -2.6743 -0.0162
  844MOL0     H11361   6.959  10.969  10.243 -0.5966  0.1476  0.7755
  844MOL0     H11362   6.630  10.921  10.213  0.7326  0.7868 -0.7465
  844MOL0     H11363   6.582  11.077  10.249 -0.5685 -0.8115  1.6368
  844MOL0     H11364   6.787  10.957  10.441  0.1635 -0.3797 -0.1756
  844MOL0     H11365   6.611  10.974  10.449 -0.3131  1.6758  2.2426
  844MOL0     H11366   6.792  11.216  10.382  0.4204 -0.4212  0.0525
  844MOL0     H11367   6.621  11.200  10.451 -0.0368 -0.2970  1.1375
  844MOL0     H11368   6.881  11.129  10.595  1.5215  2.0246 -0.0427
  844MOL0     H11369   6.736  11.077  10.651  4.6502 -2.4177  0.6535
  844MOL0     H11370   6.644  11.493  10.788 -0.5686 -1.6136 -0.3280
  844MOL0     H11371   6.738  11.710  10.791 -2.5326 -3.2020  0.8296
  844MOL0     H11372   6.846  12.024  10.524 -0.9090  1.3927  1.1457
  844MOL0     H11373   6.873  12.243  10.469  0.9835  0.0591 -0.9340
  844MOL0     H11374   7.123  12.558  10.492 -1.2945  0.2016 -2.1925
  844MOL0     H11375   7.022  12.427  10.571 -2.4131 -1.7647 -1.1289
  844MOL0     H11376   6.854  12.453  10.397  2.0411 -2.1613  1.3505
  844MOL0     H11377   6.946  12.565  10.297 -1.0041  1.3104 -0.0847
  844MOL0     H11378   6.845  12.582  10.580  3.2624  4.3882  2.9057
  844MOL0     H11379   6.775  12.664  10.439 -0.2343  2.4544  0.1945
  844MOL0     H11380   7.055  12.769  10.518  0.4048  0.2484  0.6945
  844MOL0     H11381   6.950  12.818  10.398  1.0717  0.1191  0.5063
  844MOL0     H11382   6.791  12.889  10.560 -0.5827 -2.0972 -0.9185
  844MOL0     H11383   6.933  12.982  10.564 -3.2240  1.9604  2.5331
  844MOL0     H11384   6.966  12.916  10.791 -3.4356  1.5459  1.2544
  844MOL0     H11385   6.965  12.744  10.726  1.6992 -0.6981  5.9146
  844MOL0     H11386   6.721  12.910  10.775  1.5410 -0.9220 -1.9009
  844MOL0     H11387   6.734  12.731  10.763 -1.1407  0.5061  0.3547
  844MOL0     H11388   6.751  12.919  10.992  4.8292  3.3671 -2.0344
  844MOL0     H11389   6.873  12.794  10.983  0.1404  0.3855 -0.8957
  844MOL0     H11390   7.314  12.177  10.418 -1.1104  0.6711 -2.9677
  844MOL0     H11391   7.262  11.944  10.492 -0.0185 -0.2296 -1.0905
  844MOL0     H11392   7.049  11.590  10.531 -1.2371  2.9749  0.3328
  844MOL0     H11393   6.969  11.361  10.534  0.0389 -1.0015  1.2023
  844MOL0     H11394   8.065  10.965  10.322 -0.7717  1.4714 -0.8287
  844MOL0     H11395   8.098  10.866  10.532 -1.9724  0.8472  2.2068
  844MOL0     H11396   8.071  10.790  10.990 -1.9928  0.6021 -1.4357
  844MOL0     H11397   8.181  10.663  11.160  1.8139 -0.2266 -0.5172
  844MOL0     H11398   8.357  10.234  11.116 -0.2330 -2.1555 -2.2981
  844MOL0     H11399   8.182  10.230  11.071 -0.0239  0.9898 -0.6032
  844MOL0     H11400   8.232  10.099  11.270 -2.5816 -0.4811  1.2255
  844MOL0     H11401   8.289  10.234  11.363 -1.9672  1.3608  2.1442
  844MOL0     H11402   7.996  10.173  11.272 -2.9462  1.0630  3.2505
  844MOL0     H11403   8.042  10.336  11.299 -0.0295 -0.0490 -1.2775
  844MOL0     H11404   8.126  10.273  11.527  1.8661 -2.2127  0.5774
  844MOL0     H11405   7.952  10.250  11.506  0.6595  1.4386  2.3024
  844MOL0     H11406   8.122   9.875  11.616 -4.5851 -1.1703  0.4030
  844MOL0     H11407   8.216  10.328  10.890  1.6202  1.7689 -3.2416
  844MOL0     H11408   8.124  10.463  10.714  3.6173 -1.1819  0.8448
  845MOL0     O11409   7.964   8.897   7.382  0.4587 -0.5561 -0.2287
  845MOL0     C11410   7.854   8.893   7.442 -0.2923  0.2117  0.3966
  845MOL0     O11411   7.782   9.004   7.484  0.1560  0.4840  0.6472
  845MOL0     C11412   7.852   9.121   7.482 -0.0275  0.3193  0.8798
  845MOL0     C11413   7.828   9.232   7.394  0.4347 -0.1385 -0.8886
  845MOL0     C11414   7.915   9.337   7.385  0.0931  0.1176 -0.5305
  845MOL0     C11415   8.034   9.330   7.455 -0.0634  0.2721 -0.7357
  845MOL0     O11416   8.137   9.425   7.456  0.1909 -0.1872  0.5061
  845MOL0     C11417   8.119   9.538   7.363 -0.4259  0.2360 -0.4512
  845MOL0     C11418   8.143   9.495   7.213 -0.2128  0.6358 -0.4406
  845MOL0     C11419   8.186   9.619   7.137 -0.6806 -0.1654 -0.6516
  845MOL0     C11420   8.098   9.748   7.156 -0.1365  0.0270  0.6663
  845MOL0     C11421   7.960   9.710   7.094 -0.2524  0.0246 -0.5690
  845MOL0     C11422   7.869   9.816   7.149  0.5540  0.8358 -0.8842
  845MOL0     C11423   7.720   9.775   7.130 -0.2736  0.0918  0.6954
  845MOL0     C11424   7.662   9.785   6.986  0.3597 -0.7581 -0.3877
  845MOL0     N11425   7.606   9.918   6.960 -0.5331 -0.2213 -0.2076
  845MOL0     C11426   7.686  10.036   6.964  0.6990  1.0722 -0.5881
  845MOL0     C11427   7.603  10.135   6.942  0.0390  0.2747 -0.1917
  845MOL0     C11428   7.651  10.281   6.940 -0.3340  1.0295 -0.1505
  845MOL0     C11429   7.712  10.302   7.085  0.0227 -1.5015 -0.5472
  845MOL0     C11430   7.750  10.452   7.105 -0.1555  0.4268 -0.0409
  845MOL0     C11431   7.884  10.490   7.037 -0.1362 -0.5183 -0.3912
  845MOL0     O11432   7.946  10.608   7.099 -0.0936  0.0221  0.4676
  845MOL0     C11433   8.059  10.590   7.183 -0.2643 -0.0046  0.1126
  845MOL0     C11434   8.149  10.690   7.178 -0.7847 -0.4158  0.6518
  845MOL0     C11435   8.256  10.695   7.266 -0.3378 -0.6047 -0.8758
  845MOL0     C11436   8.276  10.595   7.367 -0.0244 -0.6460 -0.3073
  845MOL0     C11437   8.385  10.598   7.468 -1.3434  0.1513 -0.8981
  845MOL0     O11438   8.455  10.713   7.473  0.1303  0.8760  0.2512
  845MOL0     C11439   8.538  10.748   7.581 -0.1478 -0.4084  0.5657
  845MOL0     C11440   8.538  10.694   7.710 -0.6100  0.9972  0.4370
  845MOL0     C11441   8.642  10.720   7.800  0.3996 -0.4186 -0.0331
  845MOL0     C11442   8.749  10.807   7.764 -0.1932  0.6242  0.0050
  845MOL0     O11443   8.845  10.837   7.861 -0.9149  0.1420  0.0905
  845MOL0     C11444   8.947  10.928   7.825  0.1115  0.2137  1.1168
  845MOL0     C11445   9.063  10.958   7.921 -0.1863  0.5868  0.5540
  845MOL0     C11446   9.127  10.827   7.968 -0.6343 -0.2000  0.2754
  845MOL0     C11447   9.279  10.842   7.979 -0.1339 -0.2020 -0.1732
  845MOL0     C11448   9.368  10.720   7.996  0.4070  0.1885  0.4881
  845MOL0     C11449   9.329  10.647   8.130  1.1254 -0.4248  0.0118
  845MOL0     C11450   9.394  10.517   8.125  0.0748 -0.2335 -0.2579
  845MOL0     C11451   9.480  10.484   8.246 -0.0816 -0.0193  0.2078
  845MOL0    Cl11452   9.613  10.620   8.270 -0.0121 -0.1876  0.2356
  845MOL0     C11453   8.744  10.870   7.637 -0.7378  0.2906 -0.7106
  845MOL0     C11454   8.645  10.834   7.544  0.6543 -0.3188 -0.0058
  845MOL0     O11455   8.411  10.492   7.537 -0.1309 -0.4912  0.2749
  845MOL0     C11456   8.193  10.481   7.362 -0.4552 -0.3046  0.7645
  845MOL0     C11457   8.090  10.480   7.268 -1.0045  0.4613  0.3478
  845MOL0     N11458   7.471  10.088   6.929 -1.0456  0.0063 -0.4013
  845MOL0     N11459   7.475   9.952   6.936  0.1499 -0.1978 -0.8661
  845MOL0     C11460   8.051   9.240   7.551  0.0913  0.9208  0.5009
  845MOL0     C11461   7.963   9.125   7.565 -0.7131 -0.1791 -0.5103
  845MOL0     C11462   7.792   8.757   7.462  0.5758  0.7363 -0.3020
  845MOL0     C11463   7.860   8.641   7.423  0.5540  0.0062 -0.8253
  845MOL0     C11464   7.814   8.512   7.449  0.4000  0.6261  0.7326
  845MOL0     C11465   7.687   8.501   7.510  0.5955  0.3662  0.3614
  845MOL0     O11466   7.624   8.385   7.543  0.0144  0.1773  0.0475
  845MOL0     C11467   7.675   8.252   7.515  0.8903  0.2628 -0.1374
  845MOL0     C11468   7.796   8.209   7.598  0.2713  0.8603  0.6032
  845MOL0     C11469   7.869   8.097   7.520  0.1228  0.3375 -1.3891
  845MOL0     C11470   7.985   8.146   7.441 -1.3194 -0.3066  0.6251
  845MOL0     C11471   8.019   8.061   7.332 -0.1725 -0.0886 -0.8550
  845MOL0     C11472   8.063   7.979   7.253  0.9546 -0.6218  0.1968
  845MOL0     C11473   7.612   8.611   7.545 -0.3240  1.0800 -0.8192
  845MOL0     C11474   7.663   8.734   7.516 -0.3100 -0.3180  0.1557
  845MOL0     H11475   7.745   9.235   7.324 -0.3567  2.2475  0.0635
  845MOL0     H11476   7.886   9.418   7.318  0.9749  0.0413 -1.0180
  845MOL0     H11477   8.187   9.620   7.389 -0.5554  0.2576 -0.1693
  845MOL0     H11478   8.020   9.580   7.380  0.9401  2.5508  3.0149
  845MOL0     H11479   8.053   9.454   7.165  0.4346 -0.6992 -0.5561
  845MOL0     H11480   8.223   9.421   7.216  0.2994  1.1350  3.4379
  845MOL0     H11481   8.197   9.589   7.032 -1.2039  0.4137 -0.8743
  845MOL0     H11482   8.288   9.649   7.163 -0.5980  1.5818 -2.7299
  845MOL0     H11483   8.081   9.772   7.261 -0.3630  1.8081  0.2606
  845MOL0     H11484   8.139   9.838   7.108 -1.1161  0.6219  0.9080
  845MOL0     H11485   7.920   9.614   7.130 -1.5459 -0.2255 -2.5302
  845MOL0     H11486   7.947   9.710   6.986 -1.6353 -2.2140 -0.4685
  845MOL0     H11487   7.878   9.918   7.110 -6.6004  2.1928 -0.3119
  845MOL0     H11488   7.879   9.823   7.258 -1.0426 -0.5487 -0.6160
  845MOL0     H11489   7.708   9.672   7.165  1.4547 -0.5261 -0.3817
  845MOL0     H11490   7.668   9.846   7.195  1.9441 -1.0300  3.9843
  845MOL0     H11491   7.578   9.715   6.978 -0.1688  0.0605 -3.0357
  845MOL0     H11492   7.744   9.756   6.918  0.2184 -2.2826  0.0436
  845MOL0     H11493   7.794  10.035   6.982  0.3463 -2.4565  2.5839
  845MOL0     H11494   7.574  10.355   6.915 -0.6105  0.0227 -2.5178
  845MOL0     H11495   7.733  10.288   6.868 -0.6532 -0.7454 -0.7206
  845MOL0     H11496   7.800  10.239   7.103 -0.2007 -1.2709  1.6892
  845MOL0     H11497   7.640  10.265   7.159 -2.9557 -1.9067 -3.4414
  845MOL0     H11498   7.671  10.506   7.053  1.8583 -0.3385 -4.3206
  845MOL0     H11499   7.750  10.480   7.211 -0.5517  2.6021 -0.5659
  845MOL0     H11500   7.873  10.518   6.932  2.2344  1.0641 -0.2855
  845MOL0     H11501   7.958  10.411   7.052  2.2703  1.4438 -1.3001
  845MOL0     H11502   8.136  10.765   7.100 -0.6424  1.3421  2.2314
  845MOL0     H11503   8.318  10.784   7.272  0.0739 -0.9036 -0.5246
  845MOL0     H11504   8.468  10.614   7.733  1.4218 -1.2760 -0.7947
  845MOL0     H11505   8.631  10.683   7.902 -2.5193  0.7266  0.1736
  845MOL0     H11506   8.902  11.024   7.799  1.0776  0.6369  0.9997
  845MOL0     H11507   8.997  10.878   7.741  0.1889  1.5804  0.3281
  845MOL0     H11508   9.039  11.012   8.013  3.1258  0.4887  1.6151
  845MOL0     H11509   9.132  11.022   7.866  0.4408  0.6966  1.4422
  845MOL0     H11510   9.111  10.753   7.889 -0.5889  0.4743 -0.3782
  845MOL0     H11511   9.095  10.792   8.066 -2.8300  2.1716  0.5038
  845MOL0     H11512   9.314  10.896   7.891  0.9213  1.7321  1.3431
  845MOL0     H11513   9.279  10.915   8.060 -0.7743 -0.3368 -0.0496
  845MOL0     H11514   9.476  10.736   7.996  0.5048 -0.4083 -0.1328
  845MOL0     H11515   9.338  10.662   7.908 -1.7936  0.0681  1.2452
  845MOL0     H11516   9.223  10.626   8.141  0.8881  1.2295  1.2653
  845MOL0     H11517   9.371  10.704   8.213  0.0048 -1.6276  1.4650
  845MOL0     H11518   9.315  10.442   8.119 -1.7228  1.2778  2.3482
  845MOL0     H11519   9.465  10.519   8.042  1.5941  2.3862  0.9678
  845MOL0     H11520   9.526  10.388   8.218 -0.9331 -0.3104 -0.2345
  845MOL0     H11521   9.408  10.484   8.327 -1.6799  1.1991 -1.1433
  845MOL0     H11522   8.804  10.958   7.618  0.2229  0.1399  1.3009
  845MOL0     H11523   8.645  10.884   7.448 -0.4465  0.4309  0.3524
  845MOL0     H11524   8.215  10.403   7.434  1.1372 -1.6361 -1.0507
  845MOL0     H11525   8.026  10.392   7.265  1.0936 -1.1591 -2.5789
  845MOL0     H11526   8.144   9.252   7.607  2.6863  0.1559 -3.2696
  845MOL0     H11527   7.969   9.046   7.639 -1.4253  0.1367 -0.1128
  845MOL0     H11528   7.960   8.657   7.385  0.5017 -3.1327 -2.6220
  845MOL0     H11529   7.880   8.427   7.433  3.1897  2.5650  1.2759
  845MOL0     H11530   7.692   8.254   7.407 -1.5301  2.5419 -0.5701
  845MOL0     H11531   7.588   8.187   7.532  0.9013  0.2952  0.0375
  845MOL0     H11532   7.860   8.297   7.610 -0.2006  1.6913 -2.3179
  845MOL0     H11533   7.760   8.195   7.701  2.4418  0.8842  1.4298
  845MOL0     H11534   7.801   8.049   7.450  0.2099  0.4683 -1.5643
  845MOL0     H11535   7.907   8.022   7.590 -0.0930  1.5636  0.0958
  845MOL0     H11536   7.970   8.249   7.405  0.7940 -0.8945 -2.2212
  845MOL0     H11537   8.082   8.152   7.490 -1.0209 -2.7650  0.4594
  845MOL0     H11538   8.112   7.907   7.190  1.4566 -0.8798  0.8748
  845MOL0     H11539   7.519   8.594   7.599  0.4132  0.1779  0.1846
  845MOL0     H11540   7.607   8.824   7.540  3.6604  1.5057  4.0202
  846MOL0     O11541  11.381   5.683   9.616 -0.0972  0.2646  0.4676
  846MOL0     C11542  11.278   5.744   9.649 -0.2947 -1.2410  0.3845
  846MOL0     O11543  11.156   5.703   9.605  0.4800 -0.1284 -0.1323
  846MOL0     C11544  11.136   5.604   9.504  0.3607 -1.0573 -0.0871
  846MOL0     C11545  11.222   5.587   9.399 -0.1043 -0.5193  0.8663
  846MOL0     C11546  11.203   5.486   9.304 -0.3447 -0.0570  0.7500
  846MOL0     C11547  11.090   5.397   9.313 -0.2466  0.6858 -1.1423
  846MOL0     O11548  11.061   5.289   9.229  0.1041  0.1865 -0.6271
  846MOL0     C11549  11.169   5.242   9.153  0.3393  0.1452  1.2008
  846MOL0     C11550  11.122   5.125   9.060  0.1827 -0.3725  0.3149
  846MOL0     C11551  11.003   5.154   8.973 -0.1355 -0.4987 -0.5994
  846MOL0     C11552  10.957   5.028   8.886 -1.1700 -0.3578  0.4411
  846MOL0     C11553  10.851   5.081   8.789  0.8258  0.4570  0.2435
  846MOL0     C11554  10.809   4.961   8.698  0.7188  0.1017  1.0971
  846MOL0     C11555  10.709   4.998   8.586 -0.2305 -0.3003 -0.5127
  846MOL0     C11556  10.668   4.880   8.496 -0.3506 -0.2243  0.0705
  846MOL0     N11557  10.597   4.774   8.574 -0.3062  0.6511  0.4356
  846MOL0     C11558  10.661   4.662   8.611 -0.8111  0.4888  0.0301
  846MOL0     C11559  10.564   4.572   8.653 -0.5243  0.1503 -0.0430
  846MOL0     C11560  10.588   4.435   8.728 -0.5102 -0.5076 -0.5948
  846MOL0     C11561  10.577   4.311   8.642 -0.4319 -0.2631  0.2329
  846MOL0     C11562  10.451   4.314   8.567 -0.4811 -0.6701 -0.6164
  846MOL0     C11563  10.433   4.184   8.478 -0.1502  0.2110  0.0143
  846MOL0     O11564  10.526   4.176   8.379  0.1906  0.8842 -0.4640
  846MOL0     C11565  10.516   4.067   8.290  0.1958  0.1244  0.1057
  846MOL0     C11566  10.445   3.954   8.313  0.6446 -0.0228  0.6836
  846MOL0     C11567  10.440   3.861   8.202  0.3123  0.2473  0.4838
  846MOL0     C11568  10.509   3.883   8.080 -0.0315  0.1201  0.1018
  846MOL0     C11569  10.502   3.783   7.969 -1.0878  0.3757  0.0220
  846MOL0     O11570  10.411   3.696   7.983  0.8667  0.1721 -0.1191
  846MOL0     C11571  10.406   3.591   7.897 -0.1036 -0.8377 -0.1067
  846MOL0     C11572  10.321   3.585   7.787  0.0434 -0.0183 -0.1239
  846MOL0     C11573  10.338   3.484   7.691  0.7379  0.8944  0.4753
  846MOL0     C11574  10.448   3.389   7.696  0.0828 -0.1741 -0.6472
  846MOL0     O11575  10.467   3.300   7.595 -0.0856  0.0397  0.2918
  846MOL0     C11576  10.572   3.199   7.584  0.4750 -0.2775  0.3056
  846MOL0     C11577  10.521   3.057   7.621  0.5045  0.2631  0.6307
  846MOL0     C11578  10.619   2.945   7.586  0.5128  0.5939  0.1902
  846MOL0     C11579  10.553   2.804   7.590 -0.2008  0.2280 -0.4143
  846MOL0     C11580  10.625   2.716   7.486  0.0155 -0.1614  0.2832
  846MOL0     C11581  10.559   2.575   7.469 -0.0099 -0.4605 -0.5234
  846MOL0     C11582  10.645   2.467   7.395 -0.1464 -0.6649  0.2631
  846MOL0     C11583  10.650   2.511   7.245  0.6404  0.2408  0.4310
  846MOL0    Cl11584  10.770   2.442   7.139 -0.0005  0.3014  0.5294
  846MOL0     C11585  10.517   3.386   7.817 -0.2229 -0.5093 -1.2550
  846MOL0     C11586  10.489   3.482   7.920 -0.1629  0.1750 -0.6815
  846MOL0     O11587  10.591   3.783   7.882  0.2851  0.3607  0.3154
  846MOL0     C11588  10.590   3.999   8.068 -0.1708 -0.3796 -1.6774
  846MOL0     C11589  10.591   4.081   8.173  0.2221 -0.2130 -0.1129
  846MOL0     N11590  10.443   4.640   8.650 -0.3912  0.1519 -0.4766
  846MOL0     N11591  10.457   4.759   8.599  0.0830 -0.5404 -0.5755
  846MOL0     C11592  10.996   5.427   9.423  1.0616  0.1533  1.0285
  846MOL0     C11593  11.020   5.531   9.511 -0.4598  0.2224  0.4411
  846MOL0     C11594  11.278   5.868   9.735  0.2088 -0.9589 -0.7134
  846MOL0     C11595  11.391   5.920   9.793 -0.1776 -0.3986  0.2819
  846MOL0     C11596  11.398   6.032   9.878 -0.5581 -0.1129 -0.9803
  846MOL0     C11597  11.279   6.094   9.919  0.2823 -0.3190 -0.8178
  846MOL0     O11598  11.264   6.197  10.000  0.3276  0.7630  0.0099
  846MOL0     C11599  11.211   6.184  10.138 -0.5204  1.1721  1.0039
  846MOL0     C11600  11.333   6.154  10.233  0.3595  0.0497  0.5390
  846MOL0     C11601  11.444   6.255  10.259  0.3283  0.2020 -0.7313
  846MOL0     C11602  11.522   6.314  10.137  0.2756  0.0968  0.1502
  846MOL0     C11603  11.627   6.225  10.089 -1.1006 -0.5861 -0.5681
  846MOL0     C11604  11.704   6.156  10.044 -0.3059  0.1350 -0.2495
  846MOL0     C11605  11.160   6.044   9.865  0.1200 -0.1706 -0.6946
  846MOL0     C11606  11.158   5.934   9.784  0.0172  0.3443  0.3881
  846MOL0     H11607  11.289   5.667   9.369  1.4855 -1.7543  1.0184
  846MOL0     H11608  11.270   5.477   9.219 -1.1768 -1.2188  0.1859
  846MOL0     H11609  11.256   5.219   9.216 -0.3011  1.8356  2.7790
  846MOL0     H11610  11.200   5.326   9.090 -0.0805 -0.5382  0.0429
  846MOL0     H11611  11.089   5.041   9.122 -3.1091  0.5641  0.0409
  846MOL0     H11612  11.203   5.095   8.993  0.4243  0.5023  0.2143
  846MOL0     H11613  11.030   5.234   8.904  1.9475 -0.8506 -0.2778
  846MOL0     H11614  10.921   5.199   9.029 -0.2633  1.1913 -2.0525
  846MOL0     H11615  11.034   4.977   8.828 -2.0973 -1.9883  0.5604
  846MOL0     H11616  10.912   4.953   8.952 -1.6934  1.4660  2.2792
  846MOL0     H11617  10.894   5.152   8.717 -1.7688  0.5910 -1.2883
  846MOL0     H11618  10.761   5.113   8.843  0.4710 -3.2414  2.0997
  846MOL0     H11619  10.759   4.879   8.750 -2.7223 -0.4008 -2.5049
  846MOL0     H11620  10.901   4.927   8.650  0.5616 -0.4550  1.1798
  846MOL0     H11621  10.620   5.034   8.638  2.6188  2.5840  2.8380
  846MOL0     H11622  10.751   5.076   8.521  0.6620 -0.6644 -0.3900
  846MOL0     H11623  10.758   4.845   8.445 -0.3327 -0.5800  0.3436
  846MOL0     H11624  10.601   4.926   8.423 -0.3383  0.0632  0.2383
  846MOL0     H11625  10.768   4.645   8.602 -0.7676  1.6107 -2.4848
  846MOL0     H11626  10.522   4.421   8.814 -0.1109 -0.4586 -0.2748
  846MOL0     H11627  10.696   4.438   8.747 -0.1432 -1.5954 -2.3182
  846MOL0     H11628  10.583   4.227   8.712 -0.6213  1.0739  1.9001
  846MOL0     H11629  10.648   4.303   8.559  0.3515  1.1432  0.7337
  846MOL0     H11630  10.363   4.323   8.631  0.1320  3.6355 -0.1395
  846MOL0     H11631  10.467   4.404   8.507  0.3151  1.3529  2.4608
  846MOL0     H11632  10.329   4.189   8.445  0.6171 -0.5139 -2.7326
  846MOL0     H11633  10.447   4.097   8.543 -1.3898 -0.4511 -0.5739
  846MOL0     H11634  10.386   3.935   8.402 -0.8515 -0.9141 -0.4617
  846MOL0     H11635  10.384   3.769   8.209 -0.6796  0.5729 -2.1909
  846MOL0     H11636  10.257   3.672   7.781  1.9891  1.7104  2.1642
  846MOL0     H11637  10.269   3.474   7.607  0.3520  0.9500  0.7843
  846MOL0     H11638  10.657   3.217   7.651  0.6409  0.2057 -0.0259
  846MOL0     H11639  10.598   3.198   7.478  0.5178  0.2405  0.3101
  846MOL0     H11640  10.429   3.051   7.564 -1.3867  4.7486  2.6682
  846MOL0     H11641  10.486   3.048   7.724 -2.2039 -1.2417 -0.3396
  846MOL0     H11642  10.704   2.942   7.655  0.9350  2.3391 -0.2044
  846MOL0     H11643  10.663   2.960   7.487  2.2732 -1.2603  0.6461
  846MOL0     H11644  10.552   2.748   7.683 -1.8941  1.5636  0.4286
  846MOL0     H11645  10.450   2.816   7.553  0.3361  0.9665 -1.7323
  846MOL0     H11646  10.725   2.694   7.524  0.9366  0.2948 -1.7574
  846MOL0     H11647  10.615   2.772   7.393 -1.9513  1.4009  1.3736
  846MOL0     H11648  10.463   2.589   7.418 -0.0654  3.1212  0.2670
  846MOL0     H11649  10.544   2.543   7.573  2.0686 -2.4907 -0.7592
  846MOL0     H11650  10.743   2.456   7.443 -0.3437  0.1632  0.8929
  846MOL0     H11651  10.591   2.373   7.408  3.1958 -2.5131  2.4387
  846MOL0     H11652  10.662   2.618   7.230 -0.9294  0.2490 -1.0358
  846MOL0     H11653  10.555   2.484   7.199  0.0463  1.2392  1.0465
  846MOL0     H11654  10.592   3.315   7.850  2.1443  2.3689  0.0575
  846MOL0     H11655  10.550   3.488   8.010 -0.4791  0.9598 -0.5146
  846MOL0     H11656  10.650   4.016   7.979 -1.0709  2.1246 -1.8986
  846MOL0     H11657  10.648   4.172   8.158  2.2293 -0.9466  2.4274
  846MOL0     H11658  10.898   5.381   9.415  1.8867 -1.6079  0.4451
  846MOL0     H11659  10.948   5.557   9.588  0.5204  1.1428  1.0886
  846MOL0     H11660  11.482   5.863   9.778  0.2241  0.5249 -0.9342
  846MOL0     H11661  11.491   6.068   9.920 -1.4138 -2.8675  4.0142
  846MOL0     H11662  11.145   6.098  10.153  1.1050 -0.5168 -0.9720
  846MOL0     H11663  11.162   6.282  10.148 -4.1040 -0.0011 -2.4286
  846MOL0     H11664  11.286   6.151  10.331 -2.4669  2.3909 -0.6007
  846MOL0     H11665  11.378   6.057  10.208 -0.1264 -0.8185  2.7856
  846MOL0     H11666  11.515   6.215  10.332  0.3605  1.8190  0.1638
  846MOL0     H11667  11.389   6.327  10.319 -3.3147 -2.5542 -0.4133
  846MOL0     H11668  11.460   6.344  10.052  1.6781  1.1344 -0.5352
  846MOL0     H11669  11.581   6.397  10.177  0.5497  1.3229 -2.6089
  846MOL0     H11670  11.772   6.081  10.008  1.2928  0.7673  1.3027
  846MOL0     H11671  11.072   6.104   9.889  1.4824  1.0115  1.8061
  846MOL0     H11672  11.061   5.911   9.741 -0.8109  2.0567  1.2276
  847MOL0     O11673   9.093   7.654   6.175 -0.1731 -0.4107 -0.7466
  847MOL0     C11674   9.092   7.755   6.249 -0.9781 -0.0207  0.1517
  847MOL0     O11675   9.177   7.862   6.247  0.1215  0.6591  0.2433
  847MOL0     C11676   9.261   7.871   6.141  0.4466  0.5742  0.8869
  847MOL0     C11677   9.394   7.838   6.141 -0.0543 -0.3000  0.9869
  847MOL0     C11678   9.465   7.845   6.016 -0.1099  0.1970 -0.4205
  847MOL0     C11679   9.394   7.885   5.897  0.5091 -0.6653 -0.8072
  847MOL0     O11680   9.421   7.857   5.770  0.7723 -1.0397  0.1877
  847MOL0     C11681   9.454   7.724   5.734 -0.5794  0.0383  0.3936
  847MOL0     C11682   9.385   7.668   5.612  0.4849  0.0905 -0.7080
  847MOL0     C11683   9.233   7.670   5.626 -0.6479  0.5477  0.8535
  847MOL0     C11684   9.181   7.598   5.748  0.4417 -0.3167  0.1126
  847MOL0     C11685   9.032   7.616   5.755 -0.2035 -0.0215  0.4194
  847MOL0     C11686   8.941   7.557   5.641  0.0090 -0.2713  0.4511
  847MOL0     C11687   8.793   7.601   5.665 -0.7911  0.3643 -0.1892
  847MOL0     C11688   8.754   7.753   5.676 -0.1672 -0.8754  0.0686
  847MOL0     N11689   8.774   7.828   5.549  0.0126 -0.1385 -0.8830
  847MOL0     C11690   8.698   7.822   5.430 -0.1666 -1.2539 -0.2490
  847MOL0     C11691   8.773   7.909   5.358 -0.0449  0.4496 -1.0028
  847MOL0     C11692   8.737   7.925   5.212 -0.2249 -0.6283  0.0603
  847MOL0     C11693   8.841   8.006   5.141  1.5196  0.6024 -0.3930
  847MOL0     C11694   8.816   8.150   5.156 -0.9682 -1.0771 -0.2161
  847MOL0     C11695   8.929   8.230   5.086  0.5552 -0.8602  0.1019
  847MOL0     O11696   8.928   8.215   4.943  0.7339  0.1825 -0.6809
  847MOL0     C11697   8.825   8.274   4.870 -0.7787 -0.0424 -0.6102
  847MOL0     C11698   8.746   8.383   4.918  0.7049  0.8869 -0.3422
  847MOL0     C11699   8.643   8.438   4.853 -0.4342 -0.4336  0.2934
  847MOL0     C11700   8.600   8.394   4.728 -0.4651  0.0128  0.2163
  847MOL0     C11701   8.480   8.460   4.665  0.5318  1.3611  0.5051
  847MOL0     O11702   8.416   8.559   4.735  0.6101 -0.6398 -0.2147
  847MOL0     C11703   8.291   8.607   4.700  0.2169 -0.5365 -0.2098
  847MOL0     C11704   8.263   8.743   4.732 -0.8828  0.4701 -0.5788
  847MOL0     C11705   8.140   8.804   4.711 -0.2037  0.4992  0.7438
  847MOL0     C11706   8.035   8.720   4.662 -0.1658  0.3280 -0.0327
  847MOL0     O11707   7.920   8.786   4.620 -0.8119 -0.4992 -0.9658
  847MOL0     C11708   7.843   8.732   4.518  0.0362 -0.5155  0.3293
  847MOL0     C11709   7.714   8.809   4.498  0.4740  1.5578 -0.7304
  847MOL0     C11710   7.615   8.782   4.620  0.4471 -0.1397 -0.4334
  847MOL0     C11711   7.554   8.632   4.640  0.2467 -1.2947 -0.1026
  847MOL0     C11712   7.462   8.617   4.762 -0.6132 -0.3421  0.3698
  847MOL0     C11713   7.412   8.476   4.768  0.0940 -0.9905  0.1363
  847MOL0     C11714   7.312   8.458   4.892 -0.2856 -0.0943  0.5017
  847MOL0     C11715   7.289   8.311   4.943  0.5595 -0.2915  0.0917
  847MOL0    Cl11716   7.445   8.217   4.996  0.2827 -0.0776  0.2693
  847MOL0     C11717   8.061   8.584   4.627  0.0309  0.4179  0.2823
  847MOL0     C11718   8.186   8.527   4.657 -0.2845 -0.0707 -0.2090
  847MOL0     O11719   8.447   8.419   4.549 -1.1286 -0.2530  0.4205
  847MOL0     C11720   8.673   8.284   4.670 -0.0025  0.5022  0.2261
  847MOL0     C11721   8.787   8.233   4.741  0.1072  0.1849  0.1380
  847MOL0     N11722   8.891   7.947   5.423 -0.7301  0.3365  0.2415
  847MOL0     N11723   8.881   7.906   5.538  0.4444  0.2621  0.2083
  847MOL0     C11724   9.268   7.945   5.911  0.5085  0.0641  0.1424
  847MOL0     C11725   9.197   7.929   6.030 -0.6147 -0.7315  0.4172
  847MOL0     C11726   8.994   7.748   6.353 -0.3535 -0.3327  0.2898
  847MOL0     C11727   8.914   7.637   6.373 -0.5203 -0.5202 -0.7313
  847MOL0     C11728   8.816   7.635   6.477 -0.2368  0.9016  0.0237
  847MOL0     C11729   8.816   7.737   6.576  0.2685  0.1112  0.7232
  847MOL0     O11730   8.732   7.726   6.683  0.2169 -0.3724  0.0316
  847MOL0     C11731   8.729   7.821   6.788 -0.2578  0.2316  0.4136
  847MOL0     C11732   8.591   7.798   6.857 -0.7308 -0.0243 -0.1537
  847MOL0     C11733   8.575   7.896   6.977 -0.5549  0.1452 -0.5551
  847MOL0     C11734   8.428   7.911   7.011  0.0155 -0.9007  0.5406
  847MOL0     C11735   8.356   7.981   6.898  0.6016 -0.5588  0.4265
  847MOL0     C11736   8.334   8.050   6.801 -0.0010  0.3873  0.9302
  847MOL0     C11737   8.918   7.835   6.567 -0.0003 -0.1133 -0.7804
  847MOL0     C11738   8.991   7.846   6.447 -0.5882  0.0535  0.3264
  847MOL0     H11739   9.450   7.811   6.229 -0.8051 -2.2074  0.9088
  847MOL0     H11740   9.568   7.811   6.010  0.9170  2.3556  2.5450
  847MOL0     H11741   9.426   7.661   5.819  0.2337  0.5786  1.0781
  847MOL0     H11742   9.562   7.722   5.715 -0.3953 -1.4158  1.4799
  847MOL0     H11743   9.423   7.566   5.620  0.9927  0.3653  0.8319
  847MOL0     H11744   9.413   7.725   5.523  1.1310 -1.1220 -1.3055
  847MOL0     H11745   9.201   7.620   5.535  0.9143  2.2146 -0.6934
  847MOL0     H11746   9.201   7.774   5.622  2.0754  1.4387 -2.6347
  847MOL0     H11747   9.205   7.492   5.760  1.7617  0.0673  1.0964
  847MOL0     H11748   9.217   7.654   5.835 -2.1952  3.1592 -0.7905
  847MOL0     H11749   9.007   7.720   5.779 -1.0163  0.0131 -0.5314
  847MOL0     H11750   9.002   7.562   5.846 -2.8190 -1.1461 -1.0082
  847MOL0     H11751   8.954   7.449   5.638 -0.7622 -0.4689 -4.3078
  847MOL0     H11752   8.974   7.595   5.543  0.7554 -0.9489  0.4269
  847MOL0     H11753   8.730   7.552   5.590  1.3765 -2.6646 -0.2126
  847MOL0     H11754   8.767   7.553   5.760  1.0754 -1.4992 -0.5574
  847MOL0     H11755   8.803   7.785   5.768 -1.4861 -0.3608  0.6215
  847MOL0     H11756   8.647   7.766   5.693  0.1086  1.0864  0.5453
  847MOL0     H11757   8.599   7.786   5.403 -0.5920  2.2063 -4.3547
  847MOL0     H11758   8.646   7.985   5.212  1.0044  1.6033 -4.0884
  847MOL0     H11759   8.721   7.827   5.165  2.3930 -0.2617 -1.8343
  847MOL0     H11760   8.820   7.977   5.038 -0.9794 -1.9815  0.6788
  847MOL0     H11761   8.947   7.987   5.160  1.5889  2.0307  0.9164
  847MOL0     H11762   8.715   8.175   5.124 -1.3688 -0.4299  1.4692
  847MOL0     H11763   8.828   8.183   5.260 -0.9440  0.6939 -0.7443
  847MOL0     H11764   9.024   8.188   5.121  1.6713  1.5344  0.1724
  847MOL0     H11765   8.915   8.333   5.121 -0.6941 -0.8010 -0.5289
  847MOL0     H11766   8.776   8.441   5.005  0.0028  1.5606 -0.5407
  847MOL0     H11767   8.590   8.519   4.901 -1.1568 -2.2215  2.7156
  847MOL0     H11768   8.351   8.802   4.752 -0.4986 -0.4872  0.7088
  847MOL0     H11769   8.127   8.911   4.724  2.6516  1.3473 -2.1752
  847MOL0     H11770   7.822   8.629   4.548  1.7497 -0.5817  1.4884
  847MOL0     H11771   7.902   8.733   4.425  0.0035  2.5993  0.2378
  847MOL0     H11772   7.653   8.773   4.414 -1.5705  1.3206  0.7675
  847MOL0     H11773   7.728   8.916   4.478 -2.0497  1.5510 -3.1633
  847MOL0     H11774   7.535   8.856   4.623  1.7013  1.2867 -0.6536
  847MOL0     H11775   7.663   8.801   4.716 -0.3171 -3.3409  0.6684
  847MOL0     H11776   7.489   8.610   4.555  1.2139 -4.7591 -0.0816
  847MOL0     H11777   7.635   8.559   4.636  1.3358 -0.2666  1.7743
  847MOL0     H11778   7.377   8.686   4.754  0.6299  1.1338 -0.7524
  847MOL0     H11779   7.529   8.633   4.846  1.3141 -2.3549 -0.6960
  847MOL0     H11780   7.499   8.411   4.776  3.4292  2.3897 -3.8120
  847MOL0     H11781   7.361   8.449   4.675 -1.2886  1.6787  0.0173
  847MOL0     H11782   7.351   8.521   4.972 -0.4562  0.2715  0.3003
  847MOL0     H11783   7.214   8.499   4.863 -1.8066 -2.9364  1.2514
  847MOL0     H11784   7.233   8.249   4.872 -0.6122 -0.3469  1.0236
  847MOL0     H11785   7.226   8.318   5.032  1.4395  4.0202  0.5912
  847MOL0     H11786   7.986   8.509   4.603 -0.4103  0.3232  1.8014
  847MOL0     H11787   8.192   8.419   4.657  1.1373 -0.1920 -4.4993
  847MOL0     H11788   8.634   8.233   4.582  0.4505 -1.3687  1.0438
  847MOL0     H11789   8.847   8.155   4.695 -0.8738 -0.8957  0.6609
  847MOL0     H11790   9.206   7.970   5.825 -1.1981  2.2065  1.8779
  847MOL0     H11791   9.094   7.962   6.044 -0.9802 -0.5768 -2.2014
  847MOL0     H11792   8.925   7.553   6.306  1.7631 -0.7032 -0.1988
  847MOL0     H11793   8.763   7.543   6.502 -0.5673  0.9542 -0.4769
  847MOL0     H11794   8.733   7.914   6.731 -3.3581  0.4510  0.3861
  847MOL0     H11795   8.814   7.822   6.855 -0.1374 -1.0170  0.3118
  847MOL0     H11796   8.514   7.823   6.783 -0.5515  2.1995  0.3494
  847MOL0     H11797   8.582   7.694   6.889  2.9106  0.3900  2.8276
  847MOL0     H11798   8.617   7.996   6.961  0.4538 -0.6663 -3.6841
  847MOL0     H11799   8.618   7.841   7.061  0.1772 -2.2528 -2.3880
  847MOL0     H11800   8.380   7.813   7.017  0.5129 -1.0703  3.3863
  847MOL0     H11801   8.430   7.955   7.111 -1.7105 -3.6368  1.9023
  847MOL0     H11802   8.321   8.123   6.723 -1.0581  1.1763  1.8314
  847MOL0     H11803   8.927   7.920   6.635 -2.9349 -0.3420  0.0357
  847MOL0     H11804   9.051   7.936   6.437  1.0582 -0.6829  2.5384
  848MOL0     O11805  10.886   1.981  10.399  0.2653 -0.2175 -0.0824
  848MOL0     C11806  10.907   1.862  10.381  0.1418  0.6354  0.1073
  848MOL0     O11807  10.947   1.773  10.478 -0.4129  0.6929 -0.4092
  848MOL0     C11808  10.921   1.822  10.602 -0.8791  0.2738  0.1323
  848MOL0     C11809  11.037   1.855  10.677 -0.2953 -0.7141 -0.3231
  848MOL0     C11810  11.024   1.911  10.809  0.6097  0.5459  0.1695
  848MOL0     C11811  10.894   1.940  10.857  0.6588  0.2642 -0.5366
  848MOL0     O11812  10.854   1.998  10.974 -0.1470 -0.7520  0.1026
  848MOL0     C11813  10.948   2.069  11.047 -0.0751  0.1827 -0.3484
  848MOL0     C11814  10.905   2.182  11.141 -1.0218 -0.6335  0.4632
  848MOL0     C11815  10.850   2.130  11.281  0.3182 -0.9780 -0.1190
  848MOL0     C11816  10.768   2.236  11.359  0.4681 -0.3135  0.0904
  848MOL0     C11817  10.715   2.174  11.488  0.3947  0.2823  0.4860
  848MOL0     C11818  10.622   2.260  11.580 -0.1972 -0.0006 -1.1391
  848MOL0     C11819  10.694   2.399  11.609  0.8323 -0.2646  0.4247
  848MOL0     C11820  10.830   2.391  11.670 -0.2229 -0.0748  0.4779
  848MOL0     N11821  10.861   2.277  11.759  0.0658 -0.0067 -0.1753
  848MOL0     C11822  10.807   2.265  11.887 -0.6825  0.4538  0.1865
  848MOL0     C11823  10.878   2.171  11.950 -0.9753 -0.9115  0.4100
  848MOL0     C11824  10.893   2.134  12.092  0.7980 -0.9343 -0.3113
  848MOL0     C11825  10.796   2.036  12.146 -0.1497  0.3409  0.0482
  848MOL0     C11826  10.866   1.961  12.269  0.0498  0.0400 -0.6493
  848MOL0     C11827  10.779   1.865  12.348  0.9460 -1.0681  0.0208
  848MOL0     O11828  10.839   1.822  12.462  0.6262 -0.4065 -0.1406
  848MOL0     C11829  10.760   1.800  12.570 -0.1698 -0.5587  0.4152
  848MOL0     C11830  10.802   1.798  12.708  0.1930 -0.0551  0.4359
  848MOL0     C11831  10.723   1.764  12.822 -0.7973 -0.3881  0.1719
  848MOL0     C11832  10.585   1.746  12.804 -0.3687 -0.2345  0.5982
  848MOL0     C11833  10.506   1.720  12.921 -0.8182  0.3968  0.4387
  848MOL0     O11834  10.377   1.689  12.901 -0.5467  1.2056  0.4419
  848MOL0     C11835  10.288   1.649  12.992  0.4056  0.4783 -0.2904
  848MOL0     C11836  10.309   1.577  13.109  0.2452  0.3490  0.1178
  848MOL0     C11837  10.215   1.541  13.210  0.1245 -0.2983  1.0874
  848MOL0     C11838  10.086   1.599  13.193 -1.0023 -0.0859  0.4973
  848MOL0     O11839   9.976   1.589  13.282  0.6489  0.7777  0.2416
  848MOL0     C11840   9.990   1.501  13.401  0.7578  0.2487 -0.4975
  848MOL0     C11841   9.854   1.488  13.482  0.0792 -0.4494 -0.4325
  848MOL0     C11842   9.764   1.404  13.386  0.2157 -0.1512 -0.3531
  848MOL0     C11843   9.620   1.379  13.436  0.0027  0.1207 -1.1691
  848MOL0     C11844   9.528   1.339  13.315  0.2494  0.3709  0.3884
  848MOL0     C11845   9.378   1.362  13.331  0.6784 -0.0791 -0.0170
  848MOL0     C11846   9.330   1.278  13.452 -0.3717  0.5442  0.5784
  848MOL0     C11847   9.177   1.258  13.446 -0.4255  0.0939  0.1019
  848MOL0    Cl11848   9.152   1.140  13.321 -0.3551 -0.6225  0.2411
  848MOL0     C11849  10.068   1.678  13.079 -0.2674  0.1771 -0.8011
  848MOL0     C11850  10.162   1.701  12.986  0.2728 -0.0600  0.9534
  848MOL0     O11851  10.568   1.714  13.031 -0.3224 -0.6588  0.2335
  848MOL0     C11852  10.525   1.750  12.678  0.3127 -0.0408  0.7814
  848MOL0     C11853  10.617   1.768  12.565 -0.7580 -0.1309 -0.1508
  848MOL0     N11854  10.959   2.115  11.853 -1.7806  0.0720  0.9771
  848MOL0     N11855  10.951   2.179  11.742 -0.1897 -1.0163 -0.5329
  848MOL0     C11856  10.786   1.901  10.780  0.3627 -0.4482  0.4470
  848MOL0     C11857  10.795   1.844  10.656  0.1013  0.6470  0.0234
  848MOL0     C11858  10.885   1.811  10.244  0.4859  0.1235 -0.8178
  848MOL0     C11859  10.946   1.686  10.203  0.1501  0.5873  0.2889
  848MOL0     C11860  10.924   1.644  10.071  0.0242 -0.2595 -0.5134
  848MOL0     C11861  10.856   1.723   9.970  0.3578 -0.0760  0.1043
  848MOL0     O11862  10.842   1.698   9.834  0.1637  0.2584  0.4515
  848MOL0     C11863  10.843   1.549   9.815  0.2777 -0.3582  0.2371
  848MOL0     C11864  10.804   1.504   9.685 -0.2413  0.4414 -0.3041
  848MOL0     C11865  10.651   1.523   9.659 -0.4971 -0.2932 -0.8170
  848MOL0     C11866  10.604   1.471   9.518  0.2067  0.4561  0.5744
  848MOL0     C11867  10.462   1.520   9.500  0.1520  0.4062  0.1007
  848MOL0     C11868  10.367   1.586   9.474 -0.5345  1.2634  0.4737
  848MOL0     C11869  10.795   1.843  10.016 -1.3479  1.0843  0.0202
  848MOL0     C11870  10.800   1.881  10.154 -0.9851  0.0701 -0.6902
  848MOL0     H11871  11.134   1.845  10.629 -0.7558 -2.6370 -0.9498
  848MOL0     H11872  11.114   1.923  10.868 -0.1195  1.4798  1.1295
  848MOL0     H11873  11.017   2.117  10.977  0.0619  1.5503  0.6860
  848MOL0     H11874  11.005   2.007  11.117  0.4206  2.5102  1.4385
  848MOL0     H11875  10.832   2.247  11.093 -0.0876  0.6851  0.7945
  848MOL0     H11876  10.993   2.241  11.166 -0.8136 -1.2346  1.1767
  848MOL0     H11877  10.936   2.116  11.348 -0.6229  1.4450  1.7413
  848MOL0     H11878  10.788   2.040  11.271  2.9059 -2.9737  0.6268
  848MOL0     H11879  10.837   2.319  11.378  2.0759 -1.3006 -1.1253
  848MOL0     H11880  10.686   2.265  11.294 -0.5668 -1.5863  0.7761
  848MOL0     H11881  10.801   2.140  11.546 -0.4961  1.1008  2.3721
  848MOL0     H11882  10.663   2.088  11.447  1.9094  0.0059 -0.9946
  848MOL0     H11883  10.600   2.213  11.676  1.6251 -0.7109 -1.0106
  848MOL0     H11884  10.532   2.286  11.525  0.2309  1.1194 -1.3432
  848MOL0     H11885  10.703   2.453  11.514  0.9395 -0.9995  0.0154
  848MOL0     H11886  10.623   2.459  11.667  0.7742  1.7814 -1.5939
  848MOL0     H11887  10.837   2.475  11.739  0.3620  1.5054 -1.4128
  848MOL0     H11888  10.898   2.413  11.587 -1.6247  1.5605 -0.3065
  848MOL0     H11889  10.735   2.336  11.927 -0.6062 -0.9383  3.0640
  848MOL0     H11890  10.889   2.228  12.148  0.2958 -0.1789 -1.5949
  848MOL0     H11891  10.987   2.077  12.093  0.2877 -1.8054  0.4235
  848MOL0     H11892  10.784   1.973  12.057 -0.1411  1.6657 -0.9283
  848MOL0     H11893  10.702   2.074  12.187 -3.0523 -2.9805 -2.7730
  848MOL0     H11894  10.964   1.915  12.252  1.1433  1.4171  1.4022
  848MOL0     H11895  10.890   2.038  12.344 -0.4376  0.6566 -1.1086
  848MOL0     H11896  10.737   1.787  12.284 -0.1362  0.7227 -1.5154
  848MOL0     H11897  10.686   1.915  12.379  1.9219  0.3388  0.7733
  848MOL0     H11898  10.910   1.808  12.716  0.2546  4.2824 -2.4023
  848MOL0     H11899  10.780   1.757  12.914 -0.6373 -0.4673  0.0662
  848MOL0     H11900  10.411   1.548  13.132  1.7001  2.8726 -2.4829
  848MOL0     H11901  10.239   1.490  13.302  0.0176 -1.4650  0.4826
  848MOL0     H11902  10.054   1.559  13.468  0.9949  0.0813 -0.5785
  848MOL0     H11903  10.023   1.398  13.385 -1.6198 -0.6043 -0.2230
  848MOL0     H11904   9.817   1.591  13.493 -1.0687 -0.9629  0.7491
  848MOL0     H11905   9.859   1.433  13.576  1.6880  0.0866 -0.1622
  848MOL0     H11906   9.811   1.309  13.359 -1.3022 -0.1907 -3.3413
  848MOL0     H11907   9.737   1.465  13.299 -2.5797 -2.6939 -1.4602
  848MOL0     H11908   9.611   1.301  13.513 -3.2955  3.2579  2.0062
  848MOL0     H11909   9.580   1.469  13.483 -0.4772 -0.2521 -0.8484
  848MOL0     H11910   9.553   1.242  13.272 -1.3571 -0.1708  0.6115
  848MOL0     H11911   9.551   1.411  13.236  1.1373 -0.9813 -0.6275
  848MOL0     H11912   9.323   1.337  13.240  0.2807  3.3947 -0.8698
  848MOL0     H11913   9.373   1.471  13.340  2.9817  0.0699  0.0985
  848MOL0     H11914   9.376   1.179  13.466 -0.9034  0.5819  3.0824
  848MOL0     H11915   9.374   1.319  13.544  1.3252 -2.5200  1.2782
  848MOL0     H11916   9.124   1.348  13.415 -1.3605 -0.2705  0.5886
  848MOL0     H11917   9.135   1.225  13.542 -0.3400  3.5549  1.4922
  848MOL0     H11918   9.967   1.715  13.094  0.3649  1.5971  0.1665
  848MOL0     H11919  10.142   1.775  12.909 -2.1585 -0.9480  0.6500
  848MOL0     H11920  10.420   1.740  12.654  0.6291  0.6428 -1.1003
  848MOL0     H11921  10.567   1.765  12.468 -0.3758  1.8041 -0.4370
  848MOL0     H11922  10.685   1.920  10.816 -0.7916 -0.5383 -2.5154
  848MOL0     H11923  10.701   1.818  10.607 -1.0869  0.4673  2.2973
  848MOL0     H11924  11.002   1.627  10.274 -0.3078  0.4641  0.5519
  848MOL0     H11925  10.962   1.543  10.061 -0.0442 -0.3878  0.4313
  848MOL0     H11926  10.781   1.492   9.884 -0.8970  0.7576  0.1383
  848MOL0     H11927  10.943   1.510   9.838 -0.1186 -1.7643 -0.2949
  848MOL0     H11928  10.859   1.573   9.619 -1.3724  0.4508 -1.2555
  848MOL0     H11929  10.829   1.402   9.657 -0.0937  0.6940 -1.1152
  848MOL0     H11930  10.634   1.631   9.667  0.5841 -0.1633 -0.0984
  848MOL0     H11931  10.591   1.472   9.735  0.4175 -1.2976 -0.7528
  848MOL0     H11932  10.671   1.492   9.435 -0.6418 -1.4149 -0.6620
  848MOL0     H11933  10.602   1.361   9.520  0.2827  0.3487 -1.9773
  848MOL0     H11934  10.282   1.648   9.453 -0.6131  0.6730 -1.1413
  848MOL0     H11935  10.739   1.891   9.937  0.7545  1.3633 -1.3921
  848MOL0     H11936  10.752   1.969  10.196 -0.8943  0.4357 -1.3282
  849MOL0     O11937   9.693   3.728   5.103  0.5596 -0.3204  0.3281
  849MOL0     C11938   9.780   3.658   5.059  0.4197  0.8072 -0.6546
  849MOL0     O11939   9.785   3.575   4.944  0.2677 -0.3470  0.8091
  849MOL0     C11940   9.677   3.566   4.860  0.4232  0.9517  0.2103
  849MOL0     C11941   9.569   3.482   4.899 -0.4935  0.4126 -0.6960
  849MOL0     C11942   9.465   3.445   4.823  0.6897 -0.0652  0.9901
  849MOL0     C11943   9.459   3.491   4.693 -0.5536 -0.3682  0.8298
  849MOL0     O11944   9.364   3.456   4.601 -0.6434 -0.3338  0.1314
  849MOL0     C11945   9.357   3.315   4.598 -0.2169  0.2936  0.3954
  849MOL0     C11946   9.271   3.256   4.488  0.4156  0.3899  0.9452
  849MOL0     C11947   9.344   3.285   4.351 -0.6768  0.9399  0.2280
  849MOL0     C11948   9.252   3.231   4.243  0.3734  0.4540  0.7697
  849MOL0     C11949   9.299   3.288   4.105  0.0435 -0.0211 -0.1389
  849MOL0     C11950   9.186   3.269   3.995 -0.4917 -0.2361  0.5598
  849MOL0     C11951   9.224   3.311   3.850  0.2767  0.3317  0.5743
  849MOL0     C11952   9.109   3.299   3.749 -0.5482 -0.9893 -0.8481
  849MOL0     N11953   9.064   3.159   3.722 -0.5813 -1.1147  1.0081
  849MOL0     C11954   9.148   3.067   3.663 -0.2021 -0.1133  0.9312
  849MOL0     C11955   9.094   2.948   3.690 -0.0966  1.0082 -0.4099
  849MOL0     C11956   9.140   2.817   3.635  0.2825 -0.2985  0.2935
  849MOL0     C11957   9.036   2.719   3.575  0.1697 -0.3172 -0.0937
  849MOL0     C11958   8.925   2.670   3.675  0.4552  0.3757  1.1322
  849MOL0     C11959   8.969   2.609   3.810  0.5190  0.0027 -0.1108
  849MOL0     O11960   8.874   2.546   3.899  0.9841 -0.1452  0.1209
  849MOL0     C11961   8.745   2.604   3.910 -0.6913  0.3318  0.0914
  849MOL0     C11962   8.631   2.527   3.919  0.0881  0.4465  0.9625
  849MOL0     C11963   8.507   2.587   3.925 -1.1315  0.0081  1.0303
  849MOL0     C11964   8.488   2.726   3.911 -0.2447 -0.4135  0.1344
  849MOL0     C11965   8.351   2.788   3.927  0.5383  1.2023 -0.1436
  849MOL0     O11966   8.332   2.911   3.981 -0.4279 -0.3490  0.4320
  849MOL0     C11967   8.204   2.969   4.000 -0.4146  0.1649  0.4813
  849MOL0     C11968   8.074   2.934   3.949 -0.4780 -0.7807  0.1779
  849MOL0     C11969   7.956   3.004   3.977  0.0396 -0.7154 -0.4848
  849MOL0     C11970   7.967   3.115   4.062  0.0752 -1.6321 -0.4505
  849MOL0     O11971   7.856   3.193   4.095  0.0910  0.0035  1.1600
  849MOL0     C11972   7.783   3.252   3.986 -0.0614 -0.5578 -0.1263
  849MOL0     C11973   7.652   3.320   4.048 -0.2070  0.5736 -0.6357
  849MOL0     C11974   7.555   3.375   3.940 -0.3537  1.2111 -0.5525
  849MOL0     C11975   7.495   3.265   3.839 -0.4339 -0.5381 -0.3885
  849MOL0     C11976   7.400   3.334   3.730 -0.6422 -0.8866  0.3610
  849MOL0     C11977   7.370   3.213   3.635  0.5653 -0.4551  0.0130
  849MOL0     C11978   7.280   3.245   3.518 -0.2464  0.2647  0.3145
  849MOL0     C11979   7.330   3.350   3.419 -0.4394 -0.1817  0.9720
  849MOL0    Cl11980   7.470   3.296   3.341 -0.0724  0.2174  0.2906
  849MOL0     C11981   8.090   3.158   4.122 -0.2202  0.6207 -0.1376
  849MOL0     C11982   8.211   3.084   4.086 -0.2903  0.2782 -0.1078
  849MOL0     O11983   8.264   2.721   3.870  0.0499  0.3798  0.2839
  849MOL0     C11984   8.597   2.806   3.893 -0.9822  0.1789  0.2507
  849MOL0     C11985   8.731   2.743   3.907  0.2133  0.3554  0.6101
  849MOL0     N11986   8.977   2.968   3.761 -0.0414 -0.0009  0.3293
  849MOL0     N11987   8.962   3.094   3.787  0.3299 -0.5954 -0.0123
  849MOL0     C11988   9.559   3.577   4.646 -0.6227  0.1318  0.0168
  849MOL0     C11989   9.661   3.617   4.735  0.1978 -0.6333  0.1707
  849MOL0     C11990   9.896   3.644   5.148  0.6822 -0.5913  0.3709
  849MOL0     C11991   9.891   3.674   5.289  1.2093 -0.0437  0.5208
  849MOL0     C11992   9.991   3.627   5.369  1.6317 -1.1175 -0.2443
  849MOL0     C11993  10.101   3.572   5.317  0.1810  0.2153  0.1684
  849MOL0     O11994  10.194   3.540   5.413  0.0839 -0.1844 -0.1583
  849MOL0     C11995  10.259   3.412   5.424 -0.6659  0.0118  0.8328
  849MOL0     C11996  10.400   3.442   5.475  0.2788 -0.4734 -0.4319
  849MOL0     C11997  10.502   3.439   5.362 -0.2039  0.0583  0.1890
  849MOL0     C11998  10.527   3.300   5.295 -1.6488  0.4026  0.7052
  849MOL0     C11999  10.617   3.224   5.388  0.4893  0.8581  1.2159
  849MOL0     C12000  10.687   3.154   5.463 -0.0243 -0.2317 -0.5112
  849MOL0     C12001  10.116   3.544   5.178 -0.6130 -0.0040 -0.2853
  849MOL0     C12002  10.014   3.589   5.095  0.0651  0.4417  0.4271
  849MOL0     H12003   9.562   3.447   5.002  1.4249 -1.2117 -1.0632
  849MOL0     H12004   9.385   3.384   4.865  0.9383 -0.5566  0.7672
  849MOL0     H12005   9.329   3.269   4.693  1.3407 -1.0392  0.2467
  849MOL0     H12006   9.459   3.276   4.594 -0.2024  0.2056  1.3725
  849MOL0     H12007   9.173   3.306   4.484  0.5400  0.6587  1.1665
  849MOL0     H12008   9.248   3.151   4.510 -2.4171  0.6482 -0.3031
  849MOL0     H12009   9.436   3.226   4.347 -2.6992 -2.3823 -1.5091
  849MOL0     H12010   9.353   3.394   4.342 -1.4905  1.0614  0.7611
  849MOL0     H12011   9.242   3.122   4.244  3.6792  0.0623  1.0725
  849MOL0     H12012   9.152   3.274   4.256  0.5535  1.1571 -0.0778
  849MOL0     H12013   9.392   3.247   4.066 -0.4795  1.8514 -3.7360
  849MOL0     H12014   9.312   3.396   4.117 -1.1169  0.6858 -3.8668
  849MOL0     H12015   9.093   3.323   4.017  0.1361  0.7065  0.9395
  849MOL0     H12016   9.163   3.162   3.994 -4.0898  0.4007 -0.1454
  849MOL0     H12017   9.267   3.411   3.851  4.6892 -1.3396  1.8803
  849MOL0     H12018   9.314   3.253   3.825  1.2491  1.5941  1.0539
  849MOL0     H12019   9.140   3.344   3.654  1.2164  0.9683  0.5556
  849MOL0     H12020   9.021   3.356   3.781 -0.6129  0.5055 -3.4243
  849MOL0     H12021   9.242   3.080   3.610 -0.2672  1.9907  1.2668
  849MOL0     H12022   9.196   2.757   3.708 -3.5197 -0.4315  3.3906
  849MOL0     H12023   9.206   2.842   3.552 -0.7653 -1.9984 -1.1228
  849MOL0     H12024   9.081   2.631   3.528  0.9086  0.6621 -1.2939
  849MOL0     H12025   8.997   2.767   3.484  2.3022  4.3420  1.1574
  849MOL0     H12026   8.853   2.752   3.689 -1.3791 -0.7419 -1.0334
  849MOL0     H12027   8.878   2.592   3.615 -1.1149 -0.8854  3.8094
  849MOL0     H12028   9.028   2.685   3.862  1.0865  0.4123 -1.2896
  849MOL0     H12029   9.036   2.529   3.779  2.1600  0.0919  2.9250
  849MOL0     H12030   8.655   2.422   3.932 -1.7450 -0.7849 -3.6312
  849MOL0     H12031   8.418   2.526   3.934 -2.2566  0.8618 -2.6342
  849MOL0     H12032   8.072   2.859   3.871  0.6600 -0.3656 -0.2701
  849MOL0     H12033   7.864   2.987   3.921 -0.3611  0.1299 -0.1048
  849MOL0     H12034   7.741   3.178   3.917  0.7029  0.0835 -1.2904
  849MOL0     H12035   7.842   3.326   3.933  0.4944 -0.0818  1.1117
  849MOL0     H12036   7.692   3.406   4.101  2.1478 -1.1885  0.5898
  849MOL0     H12037   7.586   3.251   4.101 -3.0735  1.8086 -2.3429
  849MOL0     H12038   7.625   3.445   3.895  0.7471  1.4278  1.3749
  849MOL0     H12039   7.465   3.428   3.974 -0.0131  1.5795 -0.2196
  849MOL0     H12040   7.579   3.211   3.794 -0.8440 -0.1568 -1.6712
  849MOL0     H12041   7.440   3.191   3.895 -2.2658 -0.3607 -1.8581
  849MOL0     H12042   7.444   3.414   3.670 -1.7740  2.4901  3.6850
  849MOL0     H12043   7.310   3.380   3.771 -1.6407 -1.2752 -1.3073
  849MOL0     H12044   7.331   3.124   3.685  0.2815 -1.6696 -2.2660
  849MOL0     H12045   7.469   3.185   3.599  2.3060  0.8014  3.3275
  849MOL0     H12046   7.269   3.152   3.463  0.1714 -0.0187  0.7058
  849MOL0     H12047   7.177   3.264   3.551 -0.4837 -1.0590  0.3934
  849MOL0     H12048   7.344   3.450   3.462  1.1660 -0.0872  0.3204
  849MOL0     H12049   7.258   3.364   3.338 -1.2164  2.3785  1.9926
  849MOL0     H12050   8.087   3.247   4.183  1.1728  2.2810 -2.3476
  849MOL0     H12051   8.298   3.138   4.123 -1.2766  0.7940  1.6047
  849MOL0     H12052   8.597   2.910   3.863  0.7966  0.4469  1.0103
  849MOL0     H12053   8.809   2.819   3.909  0.9256  0.6213 -7.1785
  849MOL0     H12054   9.558   3.617   4.545  0.3524 -2.2940 -1.0332
  849MOL0     H12055   9.715   3.708   4.713  1.2944 -0.3882  3.3604
  849MOL0     H12056   9.803   3.727   5.323 -1.5633 -0.9677 -4.2391
  849MOL0     H12057   9.973   3.628   5.476 -1.0225  3.3019 -0.4846
  849MOL0     H12058  10.246   3.345   5.338 -0.3789  1.0875 -0.0616
  849MOL0     H12059  10.200   3.361   5.501  0.8149  0.0060  2.0062
  849MOL0     H12060  10.402   3.545   5.513  1.0642 -0.2015 -1.1798
  849MOL0     H12061  10.429   3.377   5.558  1.2957  1.9535  1.2319
  849MOL0     H12062  10.592   3.486   5.403  0.1886 -1.6668  1.3991
  849MOL0     H12063  10.471   3.515   5.290  0.9793  1.6466  1.2703
  849MOL0     H12064  10.441   3.244   5.258  1.4389 -2.4677 -3.0112
  849MOL0     H12065  10.586   3.308   5.204 -1.9672  0.3952  0.4985
  849MOL0     H12066  10.749   3.081   5.512 -1.5083 -0.8376  0.5442
  849MOL0     H12067  10.211   3.503   5.145  0.3839  1.5703  0.5671
  849MOL0     H12068  10.011   3.552   4.993  0.0954  2.1834 -0.2426
  850MOL0     O12069   8.373   8.310   6.466  0.2844 -0.3359  0.2211
  850MOL0     C12070   8.467   8.392   6.465  0.1744 -0.0322  0.4205
  850MOL0     O12071   8.452   8.527   6.461  0.2359  0.2137 -0.3669
  850MOL0     C12072   8.323   8.579   6.428  0.1228  0.3463 -1.1021
  850MOL0     C12073   8.208   8.531   6.481  0.1593 -0.2496  0.6839
  850MOL0     C12074   8.083   8.587   6.443  0.7167 -0.3487 -0.5483
  850MOL0     C12075   8.076   8.695   6.341 -0.3416 -0.1878 -0.8589
  850MOL0     O12076   7.967   8.767   6.293  0.2143  0.9808 -0.0598
  850MOL0     C12077   7.845   8.698   6.322  0.0619 -0.4067  0.7403
  850MOL0     C12078   7.719   8.765   6.279  0.8636  0.2719 -0.4500
  850MOL0     C12079   7.600   8.692   6.357  0.0360  0.1486 -1.0968
  850MOL0     C12080   7.581   8.543   6.310 -0.5096  0.2190  0.4221
  850MOL0     C12081   7.442   8.497   6.319 -0.5527  0.6453  1.4749
  850MOL0     C12082   7.423   8.348   6.270  0.2651  0.6251 -0.3710
  850MOL0     C12083   7.461   8.255   6.386 -0.3081 -0.6588 -0.3922
  850MOL0     C12084   7.442   8.109   6.338  0.0166  0.3217 -0.0143
  850MOL0     N12085   7.515   8.009   6.421 -0.8662 -0.2622 -0.2358
  850MOL0     C12086   7.648   8.021   6.463  0.1351 -0.2383  0.6591
  850MOL0     C12087   7.690   7.898   6.511 -0.3939  0.0133  0.4498
  850MOL0     C12088   7.829   7.860   6.552 -0.4340  0.0354  0.0450
  850MOL0     C12089   7.880   7.924   6.690  1.1323  1.9191  0.5464
  850MOL0     C12090   7.938   8.071   6.676 -0.2060  0.0227 -0.3194
  850MOL0     C12091   7.972   8.124   6.812 -0.7450  0.1542  0.7482
  850MOL0     O12092   7.961   8.260   6.824 -0.2206  0.1387 -0.3906
  850MOL0     C12093   7.846   8.323   6.794 -0.8606  0.0373 -0.4240
  850MOL0     C12094   7.724   8.265   6.779  0.0687 -0.2169 -0.1892
  850MOL0     C12095   7.606   8.343   6.769  0.1428 -0.1889  0.4743
  850MOL0     C12096   7.623   8.486   6.750 -0.2283  0.3698 -0.0643
  850MOL0     C12097   7.499   8.565   6.722  0.7681  0.0842  0.0499
  850MOL0     O12098   7.520   8.699   6.693  0.3341  0.5400 -0.6139
  850MOL0     C12099   7.420   8.793   6.671 -0.0362  0.7340 -0.2136
  850MOL0     C12100   7.279   8.776   6.661  0.3473  0.3235  0.0876
  850MOL0     C12101   7.196   8.895   6.655 -0.1053  0.8043 -0.5686
  850MOL0     C12102   7.247   9.019   6.669 -0.6922 -0.9687 -0.7573
  850MOL0     O12103   7.171   9.130   6.686 -0.3698  0.6242 -0.3861
  850MOL0     C12104   7.086   9.170   6.571 -1.0401 -0.1350 -0.4655
  850MOL0     C12105   7.032   9.296   6.614 -0.3877 -0.4446 -0.5713
  850MOL0     C12106   6.968   9.362   6.489 -0.3866  0.6052 -0.4104
  850MOL0     C12107   6.887   9.497   6.527 -0.3674  0.3406 -0.0015
  850MOL0     C12108   6.855   9.592   6.415  0.7018 -0.6988  0.5180
  850MOL0     C12109   6.776   9.528   6.301  0.2870  0.1814 -0.5389
  850MOL0     C12110   6.743   9.625   6.185 -0.7424  0.6305 -0.9503
  850MOL0     C12111   6.858   9.697   6.132 -0.9935  0.4940 -0.3380
  850MOL0    Cl12112   6.808   9.786   5.990  0.1335  0.3553 -0.2289
  850MOL0     C12113   7.383   9.031   6.675 -0.1288 -0.3305  0.5820
  850MOL0     C12114   7.468   8.925   6.671 -0.6477  0.7792  0.2105
  850MOL0     O12115   7.382   8.507   6.729  0.1416 -0.3711 -0.4028
  850MOL0     C12116   7.751   8.542   6.760  0.9384  0.3191  0.3308
  850MOL0     C12117   7.859   8.466   6.789 -0.6350 -0.5318  0.3637
  850MOL0     N12118   7.576   7.814   6.499 -0.4779  0.4845 -0.4081
  850MOL0     N12119   7.479   7.879   6.442  1.0270  0.1799  0.7383
  850MOL0     C12120   8.202   8.733   6.292  0.9337 -0.8395  0.2535
  850MOL0     C12121   8.315   8.677   6.328 -1.0881  0.5569 -0.3574
  850MOL0     C12122   8.607   8.343   6.470 -0.2310  0.8126 -0.3562
  850MOL0     C12123   8.642   8.208   6.512  0.2669 -0.9722  0.8067
  850MOL0     C12124   8.773   8.167   6.528 -0.6491  0.7481  0.1081
  850MOL0     C12125   8.880   8.251   6.507 -1.5275 -0.9484  0.2856
  850MOL0     O12126   9.008   8.202   6.499 -0.1347 -0.0344 -0.6261
  850MOL0     C12127   9.116   8.301   6.508  0.1416  0.4629 -0.2896
  850MOL0     C12128   9.226   8.256   6.421 -0.8698  0.7012  0.3689
  850MOL0     C12129   9.187   8.239   6.277  0.1901 -0.0996  0.6417
  850MOL0     C12130   9.315   8.246   6.183 -1.0834  0.2970 -0.3413
  850MOL0     C12131   9.352   8.387   6.154 -1.3755 -0.3171 -0.5086
  850MOL0     C12132   9.379   8.500   6.133 -0.2300 -0.9734 -0.0567
  850MOL0     C12133   8.846   8.387   6.482 -0.2153  0.3631 -0.4279
  850MOL0     C12134   8.718   8.426   6.462 -0.2002 -0.5458 -0.9108
  850MOL0     H12135   8.207   8.445   6.546 -0.7653 -1.1855 -0.5186
  850MOL0     H12136   7.998   8.547   6.497  0.6595  1.1405  0.5397
  850MOL0     H12137   7.841   8.680   6.430  0.8496 -2.2973  0.4876
  850MOL0     H12138   7.856   8.595   6.289  1.6443 -0.1270  0.2756
  850MOL0     H12139   7.716   8.756   6.170 -0.1726 -0.7021 -0.3597
  850MOL0     H12140   7.716   8.873   6.296 -2.5164 -0.0289  1.8432
  850MOL0     H12141   7.509   8.751   6.341 -1.2982 -1.4247  0.3518
  850MOL0     H12142   7.628   8.686   6.462  1.2713 -0.7893 -1.4506
  850MOL0     H12143   7.625   8.527   6.211 -0.4824 -3.4103  0.8859
  850MOL0     H12144   7.645   8.492   6.382 -2.6521  0.5792  2.7146
  850MOL0     H12145   7.381   8.555   6.248  1.6687  1.8425  0.4428
  850MOL0     H12146   7.397   8.510   6.418 -1.5595  2.1844  0.8583
  850MOL0     H12147   7.459   8.320   6.171 -1.3390  0.7786 -1.0260
  850MOL0     H12148   7.316   8.329   6.274  0.7411 -2.6741 -0.5534
  850MOL0     H12149   7.565   8.276   6.413 -0.1494 -1.6089 -0.2070
  850MOL0     H12150   7.398   8.290   6.468 -0.8471  2.4657 -2.0181
  850MOL0     H12151   7.476   8.109   6.234 -1.7765  2.4023 -0.6846
  850MOL0     H12152   7.339   8.073   6.332  0.6280 -2.2793  2.7629
  850MOL0     H12153   7.719   8.100   6.442  0.3338 -0.3288  0.9850
  850MOL0     H12154   7.894   7.889   6.468  0.1812 -2.1523 -0.3188
  850MOL0     H12155   7.840   7.751   6.549 -2.0092 -0.1418  0.1905
  850MOL0     H12156   7.960   7.863   6.733  0.9321  1.7027  0.6170
  850MOL0     H12157   7.793   7.917   6.756 -1.8041 -0.0273 -3.1520
  850MOL0     H12158   8.036   8.068   6.627  0.0867 -0.0742  0.2585
  850MOL0     H12159   7.860   8.125   6.623 -0.5541  1.0314  1.1453
  850MOL0     H12160   8.075   8.106   6.845 -0.3211  4.0561  1.9796
  850MOL0     H12161   7.919   8.072   6.893  0.3341 -0.3328  1.1732
  850MOL0     H12162   7.705   8.161   6.803  1.5532 -0.7256 -1.0662
  850MOL0     H12163   7.511   8.291   6.768 -1.0133  1.8333  0.1688
  850MOL0     H12164   7.234   8.677   6.651 -0.0708  0.7229 -2.7552
  850MOL0     H12165   7.088   8.883   6.643  0.1031 -1.2889 -0.7883
  850MOL0     H12166   7.012   9.094   6.543  1.1391 -1.2876 -3.8282
  850MOL0     H12167   7.140   9.179   6.476 -2.6706  1.7982 -1.2708
  850MOL0     H12168   7.112   9.357   6.656  2.3571 -1.9957 -3.0907
  850MOL0     H12169   6.947   9.290   6.682  0.3819 -1.1792  0.3520
  850MOL0     H12170   6.901   9.291   6.440  0.7746 -2.1506  1.7025
  850MOL0     H12171   7.053   9.387   6.424 -0.5765  0.6244 -0.6487
  850MOL0     H12172   6.793   9.468   6.575  0.1264  2.9941  2.9133
  850MOL0     H12173   6.922   9.558   6.610 -3.3656  0.2733  1.4205
  850MOL0     H12174   6.946   9.641   6.379  0.3612  1.1149  1.9754
  850MOL0     H12175   6.788   9.661   6.466  2.0873 -0.5257  2.1927
  850MOL0     H12176   6.676   9.505   6.339  0.6241 -0.6175 -0.1014
  850MOL0     H12177   6.825   9.434   6.276  1.4111  0.0292  1.9299
  850MOL0     H12178   6.710   9.565   6.100  0.0001 -1.9476  0.4598
  850MOL0     H12179   6.652   9.683   6.198 -1.2802 -0.6972  2.3271
  850MOL0     H12180   6.936   9.634   6.087 -1.8339 -0.6721 -0.1978
  850MOL0     H12181   6.890   9.778   6.197 -1.5327  1.5314 -1.3221
  850MOL0     H12182   7.422   9.132   6.680  1.0589 -0.7597  0.2060
  850MOL0     H12183   7.575   8.919   6.683 -0.7998  1.4267  2.2786
  850MOL0     H12184   7.761   8.650   6.761 -0.7777  0.5240 -0.7460
  850MOL0     H12185   7.955   8.516   6.798 -0.6904 -0.2290 -0.6002
  850MOL0     H12186   8.197   8.811   6.217 -3.7822 -0.9206  0.1944
  850MOL0     H12187   8.397   8.723   6.275 -0.9666  0.6206 -0.1132
  850MOL0     H12188   8.570   8.130   6.536  0.3040 -0.8188  1.4331
  850MOL0     H12189   8.778   8.059   6.535 -5.9063 -0.1227 -3.4246
  850MOL0     H12190   9.161   8.309   6.608  1.6338 -3.1507 -0.5364
  850MOL0     H12191   9.089   8.395   6.460 -1.6272  1.6389  2.7228
  850MOL0     H12192   9.305   8.332   6.418  1.7813 -1.8322  1.4903
  850MOL0     H12193   9.267   8.162   6.459 -0.9050  0.2500 -0.6898
  850MOL0     H12194   9.124   8.324   6.247 -2.2350 -2.0168  0.0325
  850MOL0     H12195   9.133   8.146   6.261  0.1098  0.0979 -0.3031
  850MOL0     H12196   9.398   8.199   6.237  0.0558 -0.9397 -2.9865
  850MOL0     H12197   9.300   8.193   6.088 -1.5929 -3.3236  1.5873
  850MOL0     H12198   9.406   8.603   6.116  0.9825 -1.3537 -0.5134
  850MOL0     H12199   8.918   8.465   6.503  1.8351 -0.4749 -3.6311
  850MOL0     H12200   8.711   8.531   6.435  1.1272 -0.4779 -1.0860
  851MOL0     O12201   1.606   6.021   3.272 -0.3792 -0.4626 -0.2920
  851MOL0     C12202   1.568   6.052   3.385  0.8743  0.2177  0.4952
  851MOL0     O12203   1.452   6.121   3.412 -0.6784  0.2566 -0.0852
  851MOL0     C12204   1.359   6.149   3.313 -0.6192  0.2736  0.0082
  851MOL0     C12205   1.372   6.161   3.178 -0.3223  0.5338 -0.5278
  851MOL0     C12206   1.259   6.176   3.093 -1.0054 -1.1286  0.3815
  851MOL0     C12207   1.124   6.188   3.147 -0.1864  0.7192 -0.5849
  851MOL0     O12208   1.035   6.222   3.056 -0.1228  0.2329 -0.1612
  851MOL0     C12209   0.897   6.225   3.105 -0.4230 -0.0092 -0.7450
  851MOL0     C12210   0.795   6.242   2.996  0.3073 -0.0160 -0.0612
  851MOL0     C12211   0.713   6.120   2.961 -0.1091  0.1352  0.3639
  851MOL0     C12212   0.801   6.013   2.898 -0.7857 -0.8614 -0.2580
  851MOL0     C12213   0.749   5.870   2.908 -0.4612  0.2334  0.0673
  851MOL0     C12214   0.863   5.766   2.868  0.3285  0.2027  0.5072
  851MOL0     C12215   0.810   5.625   2.888 -0.2242 -0.5078 -0.3651
  851MOL0     C12216   0.915   5.516   2.874 -0.0576  0.5642  0.6768
  851MOL0     N12217   0.950   5.485   2.734 -1.0507  0.1202  0.3699
  851MOL0     C12218   1.037   5.573   2.658  1.1396 -0.0109 -0.3650
  851MOL0     C12219   1.099   5.485   2.570 -0.1655  0.2384 -0.4027
  851MOL0     C12220   1.206   5.530   2.475 -0.8338 -0.1611 -1.0632
  851MOL0     C12221   1.252   5.417   2.393  0.1297  1.0303 -0.2607
  851MOL0     C12222   1.317   5.463   2.270  0.5679  0.9911  0.3778
  851MOL0     C12223   1.422   5.368   2.215  0.5310  0.1116 -0.8456
  851MOL0     O12224   1.502   5.440   2.116  0.5048  0.5141 -0.7040
  851MOL0     C12225   1.601   5.360   2.069  0.1243 -0.0393 -0.0131
  851MOL0     C12226   1.698   5.427   1.988  0.6729 -0.2912 -0.5596
  851MOL0     C12227   1.796   5.359   1.929 -0.9347 -0.0317 -0.0579
  851MOL0     C12228   1.807   5.224   1.945  0.7423  1.4550  0.3441
  851MOL0     C12229   1.902   5.146   1.867 -0.3065  0.8002  0.6237
  851MOL0     O12230   1.970   5.202   1.775 -0.1905 -0.1494  0.5719
  851MOL0     C12231   2.045   5.129   1.682  0.3438  0.2384 -0.4828
  851MOL0     C12232   1.991   5.114   1.557  0.3612  0.5294 -0.4252
  851MOL0     C12233   2.058   5.043   1.463 -0.2832 -0.3805 -0.2612
  851MOL0     C12234   2.181   4.984   1.493  0.1116 -0.0832  0.4374
  851MOL0     O12235   2.260   4.934   1.390  0.3651 -0.6023  1.3045
  851MOL0     C12236   2.268   4.803   1.347  0.3670  1.4944  0.0428
  851MOL0     C12237   2.288   4.811   1.197  0.3134 -0.5660  0.1462
  851MOL0     C12238   2.335   4.675   1.140  0.0560 -0.2223 -0.2852
  851MOL0     C12239   2.307   4.672   0.993  0.7566 -0.3468  1.0401
  851MOL0     C12240   2.314   4.532   0.923  0.0909 -1.1781 -0.4905
  851MOL0     C12241   2.453   4.466   0.909 -0.3063  0.4847  0.5885
  851MOL0     C12242   2.560   4.546   0.834  0.1580  0.0982 -0.0896
  851MOL0     C12243   2.653   4.613   0.938  1.3323 -0.4198  0.4698
  851MOL0    Cl12244   2.754   4.513   1.032  0.0599  0.4546  0.4191
  851MOL0     C12245   2.245   5.015   1.604  0.3978 -0.9803  0.3328
  851MOL0     C12246   2.178   5.083   1.706 -0.0970 -0.1552 -0.6170
  851MOL0     O12247   1.919   5.023   1.899  0.4768 -0.3325  0.0611
  851MOL0     C12248   1.726   5.156   2.037 -0.0805  0.6694 -0.6000
  851MOL0     C12249   1.623   5.227   2.101  0.5743  0.3619  0.7335
  851MOL0     N12250   1.040   5.359   2.587 -0.2358  0.2339 -0.2378
  851MOL0     N12251   0.951   5.359   2.678 -0.2840 -0.3132  0.1586
  851MOL0     C12252   1.122   6.189   3.288 -0.3833 -1.1949  0.2020
  851MOL0     C12253   1.232   6.155   3.361  0.6023  0.3301 -0.1768
  851MOL0     C12254   1.646   6.013   3.503  0.8039  0.1441  0.3601
  851MOL0     C12255   1.752   5.915   3.505  0.3512  0.2342  0.2870
  851MOL0     C12256   1.810   5.884   3.624  0.6535 -0.2712 -0.4637
  851MOL0     C12257   1.779   5.947   3.745 -0.1357 -0.6384  0.4819
  851MOL0     O12258   1.833   5.925   3.865  0.7885 -0.6027  1.2264
  851MOL0     C12259   1.926   5.814   3.884  0.6370 -0.2291 -0.2806
  851MOL0     C12260   2.062   5.836   3.834 -1.0927 -0.0574 -0.9914
  851MOL0     C12261   2.145   5.941   3.918  0.1779 -0.2985  0.4736
  851MOL0     C12262   2.285   5.973   3.875 -0.0837 -0.1617  0.3931
  851MOL0     C12263   2.382   5.866   3.870 -0.3824 -0.5626  0.3943
  851MOL0     C12264   2.461   5.775   3.871  0.5566  0.1319 -0.9046
  851MOL0     C12265   1.683   6.066   3.738  0.2583  0.1679  0.2069
  851MOL0     C12266   1.613   6.075   3.621 -0.1381 -0.4685  0.4074
  851MOL0     H12267   1.472   6.162   3.136  0.7877  2.8125  1.8846
  851MOL0     H12268   1.289   6.194   2.990  0.3922  0.9277  1.0881
  851MOL0     H12269   0.891   6.305   3.179  0.9792  0.6746 -1.3290
  851MOL0     H12270   0.873   6.131   3.155  0.4536 -0.1206 -0.5149
  851MOL0     H12271   0.833   6.287   2.905  1.7372 -2.1931 -0.6253
  851MOL0     H12272   0.714   6.307   3.030 -2.3092 -2.1590 -1.7367
  851MOL0     H12273   0.623   6.132   2.900 -0.3206 -0.3167  0.5807
  851MOL0     H12274   0.682   6.078   3.058 -2.5174 -0.1194 -0.4611
  851MOL0     H12275   0.825   6.037   2.794  0.1795 -1.8287 -0.2689
  851MOL0     H12276   0.904   6.013   2.934 -0.7648  0.4294 -0.2681
  851MOL0     H12277   0.671   5.845   2.835  1.0335 -0.0252 -1.5048
  851MOL0     H12278   0.711   5.857   3.010 -0.3005 -0.0759  0.0888
  851MOL0     H12279   0.949   5.778   2.936  2.2845  0.3973 -1.8619
  851MOL0     H12280   0.887   5.777   2.762 -2.7160 -1.4962 -0.4645
  851MOL0     H12281   0.781   5.624   2.994  2.4729  2.2028  0.5730
  851MOL0     H12282   0.727   5.592   2.826 -0.9557  0.9077 -0.1753
  851MOL0     H12283   0.874   5.427   2.922 -0.3359  1.4688  2.1806
  851MOL0     H12284   1.004   5.558   2.920  2.7114 -2.4270 -1.4811
  851MOL0     H12285   1.058   5.677   2.678  0.8444  0.3272 -1.7664
  851MOL0     H12286   1.279   5.584   2.537 -2.6181  2.9245 -1.4157
  851MOL0     H12287   1.156   5.602   2.410 -1.7399  0.8953  0.7129
  851MOL0     H12288   1.165   5.356   2.368 -2.5851  4.7173 -0.6865
  851MOL0     H12289   1.330   5.370   2.453  0.4309  0.1868 -1.2792
  851MOL0     H12290   1.237   5.475   2.196 -0.9825  0.8916  1.9649
  851MOL0     H12291   1.372   5.555   2.290  0.1430  1.0817  1.1912
  851MOL0     H12292   1.373   5.275   2.184  0.6332 -1.0462  2.1394
  851MOL0     H12293   1.484   5.346   2.302  0.7967  0.6133 -0.9062
  851MOL0     H12294   1.679   5.531   1.964 -1.7431  0.0205  2.1270
  851MOL0     H12295   1.848   5.418   1.854 -1.7612 -0.1729 -0.7676
  851MOL0     H12296   1.892   5.155   1.541  0.0330 -1.1115 -3.3324
  851MOL0     H12297   2.008   5.033   1.367 -1.4781  5.3283 -0.6224
  851MOL0     H12298   2.180   4.741   1.366  1.2474  0.8111  2.2965
  851MOL0     H12299   2.365   4.763   1.380  1.5460  2.9959 -1.4007
  851MOL0     H12300   2.359   4.889   1.171 -1.8936  1.3000 -0.5945
  851MOL0     H12301   2.196   4.845   1.149 -0.2231  2.8822  3.1487
  851MOL0     H12302   2.283   4.592   1.187  0.9886 -0.5673  0.1712
  851MOL0     H12303   2.441   4.654   1.156 -0.0733 -0.0575  0.9293
  851MOL0     H12304   2.205   4.710   0.983  0.3856 -0.5672  3.3229
  851MOL0     H12305   2.365   4.744   0.936 -0.2547  0.0371  0.4592
  851MOL0     H12306   2.254   4.540   0.832 -0.9145  0.6096  0.2701
  851MOL0     H12307   2.250   4.464   0.980 -0.7208 -0.2731 -0.2853
  851MOL0     H12308   2.448   4.373   0.852 -1.1255  1.6322 -1.2784
  851MOL0     H12309   2.495   4.440   1.007 -1.2996  1.3009  1.2528
  851MOL0     H12310   2.612   4.476   0.767 -2.3873 -1.5912 -0.4670
  851MOL0     H12311   2.509   4.630   0.786 -0.3895  0.9084  1.8008
  851MOL0     H12312   2.605   4.679   1.011 -0.8599 -2.8671  1.4050
  851MOL0     H12313   2.709   4.683   0.875 -0.7924 -0.7049 -1.8688
  851MOL0     H12314   2.351   4.999   1.615  1.0008  2.2075  0.2127
  851MOL0     H12315   2.224   5.107   1.802 -2.6144  1.2750  0.3428
  851MOL0     H12316   1.734   5.049   2.056  0.9099  0.9505  0.7479
  851MOL0     H12317   1.572   5.163   2.172  3.1418 -0.7497  1.6812
  851MOL0     H12318   1.026   6.214   3.332  0.3423  1.2483  0.5516
  851MOL0     H12319   1.213   6.138   3.467  1.7354 -0.1656 -0.0360
  851MOL0     H12320   1.782   5.852   3.422  5.4027 -0.6640  2.3828
  851MOL0     H12321   1.873   5.795   3.625  1.0748 -0.2061  4.5708
  851MOL0     H12322   1.876   5.723   3.848 -0.5745 -0.1906  1.2172
  851MOL0     H12323   1.939   5.795   3.991  1.1847 -0.5565 -0.4055
  851MOL0     H12324   2.111   5.738   3.830  0.3051  0.4502  1.6557
  851MOL0     H12325   2.050   5.880   3.734 -3.6562  2.1903  0.1847
  851MOL0     H12326   2.146   5.913   4.023 -1.6335 -0.6907  0.4155
  851MOL0     H12327   2.089   6.035   3.906 -1.0921 -0.9331  1.2723
  851MOL0     H12328   2.287   6.023   3.777  0.1944  0.5514  0.7541
  851MOL0     H12329   2.338   6.045   3.937  2.1514 -2.2506  1.0730
  851MOL0     H12330   2.537   5.703   3.850  0.9470 -0.1382  1.2227
  851MOL0     H12331   1.667   6.131   3.823 -0.0819 -1.8122  1.7154
  851MOL0     H12332   1.534   6.149   3.622  1.3239  1.1612  0.4087
  852MOL0     O12333   9.488   9.991   5.542  0.8388  0.2996  0.2947
  852MOL0     C12334   9.438  10.070   5.459  0.2700 -0.3749 -0.0141
  852MOL0     O12335   9.500  10.187   5.416  0.0168  0.3133 -0.0199
  852MOL0     C12336   9.633  10.205   5.460  0.3635 -1.4709  0.9607
  852MOL0     C12337   9.740  10.119   5.447 -0.5017 -1.0378  0.0682
  852MOL0     C12338   9.875  10.158   5.470 -0.0601 -0.5117  1.3533
  852MOL0     C12339   9.903  10.285   5.520  0.1734  0.1582  0.0828
  852MOL0     O12340  10.023  10.336   5.564 -0.2824 -0.4388 -0.5697
  852MOL0     C12341  10.132  10.277   5.491 -0.8728  0.4352 -0.3669
  852MOL0     C12342  10.265  10.327   5.544 -0.1015  0.0146  0.5286
  852MOL0     C12343  10.383  10.229   5.560  0.2761 -0.2997 -0.3475
  852MOL0     C12344  10.506  10.288   5.623  0.1499  0.3394 -0.0962
  852MOL0     C12345  10.617  10.193   5.586  0.4812  0.3372 -0.2159
  852MOL0     C12346  10.743  10.201   5.670 -1.2613  0.1423  0.6658
  852MOL0     C12347  10.812  10.339   5.649 -0.3321  0.5651  0.2059
  852MOL0     C12348  10.834  10.367   5.501  0.9173  0.3119 -0.9593
  852MOL0     N12349  10.898  10.501   5.472 -0.1448 -1.0014 -0.5549
  852MOL0     C12350  10.872  10.589   5.368  0.0841  0.3889  0.3974
  852MOL0     C12351  10.938  10.703   5.405 -0.3831  0.0800  0.2239
  852MOL0     C12352  10.938  10.824   5.318 -0.5451 -0.4528 -0.2437
  852MOL0     C12353  10.852  10.939   5.381  0.3543  1.7508  0.7813
  852MOL0     C12354  10.702  10.901   5.412 -0.5788 -1.3403 -0.1758
  852MOL0     C12355  10.607  10.886   5.288  0.3921 -0.9360 -1.1539
  852MOL0     O12356  10.615  10.760   5.230  0.4200  0.5396  0.6523
  852MOL0     C12357  10.493  10.692   5.196 -1.1265  0.8933 -0.3913
  852MOL0     C12358  10.388  10.764   5.130  0.3172  0.1278  0.5350
  852MOL0     C12359  10.260  10.702   5.087  0.9943  0.2613 -0.3201
  852MOL0     C12360  10.248  10.563   5.116 -0.0256  0.3986  0.6397
  852MOL0     C12361  10.127  10.484   5.076  0.5439  0.1815  0.1616
  852MOL0     O12362  10.024  10.558   5.021 -0.4363 -0.7158  1.0904
  852MOL0     C12363   9.917  10.509   4.955 -1.1415 -1.0541 -0.0393
  852MOL0     C12364   9.934  10.409   4.862 -0.0193 -0.1395 -0.6421
  852MOL0     C12365   9.834  10.372   4.781  0.8329  0.5251  0.2646
  852MOL0     C12366   9.706  10.436   4.785  1.2979 -0.0865 -0.5227
  852MOL0     O12367   9.597  10.382   4.710 -0.0234 -0.2170  0.0381
  852MOL0     C12368   9.475  10.462   4.714  0.3500 -0.1850  0.8199
  852MOL0     C12369   9.360  10.382   4.802  0.2616 -0.3973  0.2323
  852MOL0     C12370   9.226  10.458   4.800  0.2271  0.3814  0.5066
  852MOL0     C12371   9.110  10.366   4.835  0.0116 -0.3033 -0.8137
  852MOL0     C12372   8.974  10.419   4.789  0.6120 -0.1582  0.3966
  852MOL0     C12373   8.919  10.555   4.847  1.1155  0.2070  0.2639
  852MOL0     C12374   8.928  10.578   5.000  0.7865 -0.5105 -0.3083
  852MOL0     C12375   8.835  10.479   5.070 -0.6036  0.2703 -0.2137
  852MOL0    Cl12376   8.897  10.444   5.238  0.2648 -0.6110  0.3992
  852MOL0     C12377   9.685  10.535   4.881 -1.0677  0.2153 -0.7028
  852MOL0     C12378   9.795  10.570   4.962 -0.4828  0.0533  0.5304
  852MOL0     O12379  10.119  10.370   5.112 -0.2544  0.8350  0.2383
  852MOL0     C12380  10.360  10.493   5.180 -0.0710  0.9773  0.4898
  852MOL0     C12381  10.476  10.555   5.214  0.3094  0.6675  0.0279
  852MOL0     N12382  11.021  10.676   5.517 -0.2782  1.2906 -0.6757
  852MOL0     N12383  10.993  10.553   5.554 -0.0747  0.3137 -0.2594
  852MOL0     C12384   9.792  10.372   5.539 -0.9909 -0.0189 -0.2955
  852MOL0     C12385   9.658  10.339   5.502 -0.0036  0.1158 -0.3836
  852MOL0     C12386   9.304  10.033   5.396 -0.2873  0.4146  0.5108
  852MOL0     C12387   9.233  10.129   5.328 -0.2372  0.1100  0.1927
  852MOL0     C12388   9.111  10.102   5.262  0.7714  0.3003 -1.4003
  852MOL0     C12389   9.055   9.974   5.273  0.5582  0.0772 -0.1495
  852MOL0     O12390   8.924   9.950   5.235  0.4386 -0.4013  0.2916
  852MOL0     C12391   8.848  10.031   5.130  0.2907  0.3952 -0.6302
  852MOL0     C12392   8.911  10.064   5.003  0.5256  0.4823  0.0418
  852MOL0     C12393   8.933   9.952   4.905 -0.2099 -0.2103 -0.6931
  852MOL0     C12394   8.813   9.856   4.888  0.3478 -0.3406  0.0259
  852MOL0     C12395   8.809   9.804   4.750 -0.7065  0.2420  0.5013
  852MOL0     C12396   8.791   9.765   4.632  0.0537  0.5122 -0.8723
  852MOL0     C12397   9.129   9.883   5.332  0.6439 -0.2242  0.7669
  852MOL0     C12398   9.243   9.906   5.405 -1.2665 -0.1730  0.6564
  852MOL0     H12399   9.721  10.024   5.397  1.2949 -1.8342  0.7947
  852MOL0     H12400   9.966  10.103   5.449  1.3633  2.1091  0.0659
  852MOL0     H12401  10.112  10.305   5.387 -1.2648  1.5920  0.0057
  852MOL0     H12402  10.140  10.169   5.509 -1.1462  0.4593 -0.0978
  852MOL0     H12403  10.244  10.356   5.648 -0.7665  0.6029  0.2293
  852MOL0     H12404  10.293  10.420   5.494  0.3215 -2.1015 -3.6069
  852MOL0     H12405  10.404  10.184   5.463 -0.8616 -1.1939 -0.1931
  852MOL0     H12406  10.354  10.146   5.624  0.7951 -1.2088 -1.2745
  852MOL0     H12407  10.524  10.388   5.582  0.7840 -0.5512 -2.1070
  852MOL0     H12408  10.500  10.292   5.732  3.0293  0.8532  0.1284
  852MOL0     H12409  10.629  10.202   5.478 -0.3976 -0.3929 -0.3804
  852MOL0     H12410  10.582  10.092   5.611 -0.9334  0.8462 -0.0889
  852MOL0     H12411  10.813  10.125   5.635  0.0114  1.2852  0.6615
  852MOL0     H12412  10.726  10.177   5.776 -4.8965 -1.3383 -0.1003
  852MOL0     H12413  10.755  10.426   5.682 -0.4247 -0.4693  3.0339
  852MOL0     H12414  10.909  10.343   5.700 -0.3368 -1.4268  0.4533
  852MOL0     H12415  10.740  10.372   5.445  0.9170 -1.5185 -1.1746
  852MOL0     H12416  10.893  10.283   5.465  0.3806 -1.4754  2.0004
  852MOL0     H12417  10.794  10.570   5.296 -0.8086  1.9733  0.9011
  852MOL0     H12418  10.903  10.787   5.221 -0.9955 -2.1721  0.5311
  852MOL0     H12419  11.040  10.861   5.305  0.1869 -2.2111  0.1437
  852MOL0     H12420  10.848  11.025   5.314 -1.0454  0.9021 -0.2794
  852MOL0     H12421  10.900  10.985   5.467  0.3221  3.2042  0.0593
  852MOL0     H12422  10.701  10.813   5.477 -0.5083 -2.0169 -1.0729
  852MOL0     H12423  10.657  10.975   5.479  3.6852  0.5386  0.9230
  852MOL0     H12424  10.635  10.962   5.215  5.3487 -2.1437 -0.8831
  852MOL0     H12425  10.506  10.907   5.324  1.8027  0.3787  2.5977
  852MOL0     H12426  10.393  10.872   5.115 -1.2867  0.1037 -0.4450
  852MOL0     H12427  10.183  10.771   5.053  0.7765  1.0058  1.5517
  852MOL0     H12428  10.032  10.366   4.848  0.1255  0.8657 -3.3629
  852MOL0     H12429   9.845  10.287   4.714  2.0351  0.4191  0.5687
  852MOL0     H12430   9.446  10.457   4.608 -0.4405  2.1049  0.8850
  852MOL0     H12431   9.493  10.567   4.738 -0.3250  0.0626  0.2900
  852MOL0     H12432   9.402  10.364   4.901  0.2924  0.2313  0.3370
  852MOL0     H12433   9.339  10.285   4.756  1.2772 -0.5519  0.0904
  852MOL0     H12434   9.218  10.494   4.697 -1.9653  1.8540  1.1188
  852MOL0     H12435   9.228  10.546   4.864 -0.8459  0.0511  1.0113
  852MOL0     H12436   9.129  10.266   4.794 -3.1302 -0.5745 -1.8783
  852MOL0     H12437   9.100  10.351   4.943  1.2195  1.9010 -0.3361
  852MOL0     H12438   8.896  10.352   4.828  1.0774 -2.2624 -1.9695
  852MOL0     H12439   8.985  10.397   4.682  2.9501 -0.7516  0.7143
  852MOL0     H12440   8.813  10.562   4.823  1.4735  1.3909 -1.1153
  852MOL0     H12441   8.972  10.627   4.784  0.5923  0.5098  0.1721
  852MOL0     H12442   9.029  10.581   5.043  0.5807 -3.3312  0.5686
  852MOL0     H12443   8.880  10.675   5.016  0.8918 -0.2534 -1.4123
  852MOL0     H12444   8.834  10.379   5.027  2.8831  0.5153 -1.2066
  852MOL0     H12445   8.736  10.522   5.089  0.1248  1.1259  1.9870
  852MOL0     H12446   9.598  10.590   4.916 -1.3562 -1.9256  2.4239
  852MOL0     H12447   9.796  10.650   5.035 -1.2976 -0.8287  1.5455
  852MOL0     H12448  10.352  10.385   5.188  1.4955  0.9555  2.3335
  852MOL0     H12449  10.547  10.479   5.245  1.3275  1.0407 -1.3359
  852MOL0     H12450   9.815  10.475   5.562 -2.7106  0.4884 -0.7218
  852MOL0     H12451   9.585  10.419   5.500  0.7464  0.9579  2.1602
  852MOL0     H12452   9.272  10.229   5.318  0.9492 -0.2204  1.1906
  852MOL0     H12453   9.049  10.172   5.207 -0.6718 -1.3756 -1.9967
  852MOL0     H12454   8.827  10.124   5.182 -0.8920 -0.1765 -0.0392
  852MOL0     H12455   8.747   9.993   5.110  0.2360  1.2304 -2.1145
  852MOL0     H12456   8.842  10.139   4.963  1.3811  1.5709  0.5534
  852MOL0     H12457   9.004  10.122   5.006  1.6129 -1.2378  2.0003
  852MOL0     H12458   9.020   9.890   4.925  0.3277  0.6740 -0.2353
  852MOL0     H12459   8.946  10.006   4.811  0.3965 -1.1003 -1.1379
  852MOL0     H12460   8.824   9.773   4.958  1.4214 -0.7709 -0.6259
  852MOL0     H12461   8.724   9.918   4.898  0.8478  0.2222  1.3391
  852MOL0     H12462   8.787   9.726   4.532 -1.9110 -2.6792  0.3110
  852MOL0     H12463   9.086   9.783   5.340  1.7138 -0.8010 -0.3730
  852MOL0     H12464   9.298   9.839   5.471  2.5781  2.6369  0.6755
  853MOL0     O12465   2.142   0.923   3.333  0.1855  0.2492 -0.0308
  853MOL0     C12466   2.086   0.850   3.253  0.5214 -0.2172  0.9834
  853MOL0     O12467   2.023   0.734   3.285  0.0823 -0.4511  0.5563
  853MOL0     C12468   2.040   0.666   3.402  0.0747 -0.2710  0.0880
  853MOL0     C12469   2.007   0.717   3.523 -0.1528 -0.9195  0.4087
  853MOL0     C12470   2.028   0.644   3.641 -0.2303  0.8980  0.5560
  853MOL0     C12471   2.063   0.507   3.639  0.4441  0.2607 -0.8832
  853MOL0     O12472   2.080   0.424   3.751 -0.9483 -0.0189  0.4388
  853MOL0     C12473   2.061   0.484   3.879 -0.0948 -0.2697  0.4180
  853MOL0     C12474   2.070   0.386   4.003  0.1683 -0.9124 -1.2972
  853MOL0     C12475   2.210   0.329   4.011  0.3439  0.0169  0.5121
  853MOL0     C12476   2.236   0.230   4.120  0.2372 -0.2327 -0.0367
  853MOL0     C12477   2.246   0.287   4.261  0.3027 -0.2745  0.4170
  853MOL0     C12478   2.196   0.196   4.364  0.4680  0.1977 -0.0278
  853MOL0     C12479   2.253   0.204   4.507 -0.0517 -0.1778 -0.0626
  853MOL0     C12480   2.175   0.098   4.590  0.6917  0.0476 -0.1582
  853MOL0     N12481   2.182  -0.048   4.549 -0.3028  0.3002 -0.0744
  853MOL0     C12482   2.282  -0.135   4.582  0.1156  0.4235 -1.5016
  853MOL0     C12483   2.236  -0.251   4.553 -0.6318  0.6712  0.2845
  853MOL0     C12484   2.313  -0.373   4.569 -0.2570 -0.0734  0.2617
  853MOL0     C12485   2.431  -0.366   4.469  0.9748 -0.0256  0.2262
  853MOL0     C12486   2.505  -0.504   4.464 -0.7298 -0.4658 -0.0535
  853MOL0     C12487   2.518  -0.572   4.601  0.2544  0.3176 -0.2257
  853MOL0     O12488   2.597  -0.691   4.590 -0.6817  0.4531 -0.1428
  853MOL0     C12489   2.585  -0.789   4.686 -0.1828 -0.5760  0.9835
  853MOL0     C12490   2.521  -0.774   4.805 -0.6184 -0.0051 -1.0773
  853MOL0     C12491   2.512  -0.883   4.889  0.2089  1.0000  0.1911
  853MOL0     C12492   2.582  -1.007   4.873  0.3983 -0.7662 -0.4300
  853MOL0     C12493   2.575  -1.109   4.974  0.3879  0.5000  0.4429
  853MOL0     O12494   2.642  -1.230   4.937 -0.5064 -0.6411 -0.3245
  853MOL0     C12495   2.631  -1.347   5.007 -0.4312  0.8588 -0.1235
  853MOL0     C12496   2.531  -1.374   5.111 -0.5911 -0.1312  1.3329
  853MOL0     C12497   2.532  -1.493   5.184 -0.6476  0.0763 -0.2706
  853MOL0     C12498   2.618  -1.598   5.148  0.2208  0.9648 -0.2705
  853MOL0     O12499   2.616  -1.723   5.207  0.7116  0.0273 -1.0404
  853MOL0     C12500   2.523  -1.752   5.320  0.0621  0.2659  0.7453
  853MOL0     C12501   2.491  -1.896   5.325  0.0267 -0.4873 -0.3980
  853MOL0     C12502   2.444  -1.959   5.193 -0.8489  0.2150  0.6287
  853MOL0     C12503   2.456  -2.109   5.198  0.7110  0.7495 -1.0862
  853MOL0     C12504   2.408  -2.182   5.068 -0.7120  0.8817 -0.1635
  853MOL0     C12505   2.412  -2.337   5.072 -0.2547 -0.1943 -0.0831
  853MOL0     C12506   2.293  -2.392   5.160 -1.0015  0.5504 -0.7883
  853MOL0     C12507   2.313  -2.543   5.200 -0.3788 -0.0079 -0.0026
  853MOL0    Cl12508   2.317  -2.651   5.047  0.2635 -0.2638  0.2762
  853MOL0     C12509   2.705  -1.579   5.037 -0.1445 -0.3854  0.1172
  853MOL0     C12510   2.713  -1.454   4.970  0.5962  1.5058 -0.3200
  853MOL0     O12511   2.525  -1.078   5.081 -0.3634 -0.1304  0.6867
  853MOL0     C12512   2.666  -1.011   4.766  0.1391  0.1119  0.5100
  853MOL0     C12513   2.660  -0.902   4.666 -0.1271 -0.1686  0.5170
  853MOL0     N12514   2.107  -0.243   4.503  0.0724 -0.4266  0.1911
  853MOL0     N12515   2.080  -0.119   4.502 -0.5668  0.6856  1.5092
  853MOL0     C12516   2.091   0.449   3.515  0.6736  0.1317  0.1293
  853MOL0     C12517   2.084   0.534   3.399 -0.5623  0.8685  0.4067
  853MOL0     C12518   2.082   0.887   3.114  1.5881 -1.1021 -0.4955
  853MOL0     C12519   2.034   0.802   3.007  0.9689  0.1307 -0.3103
  853MOL0     C12520   2.032   0.838   2.877  1.1390 -0.2985 -0.1558
  853MOL0     C12521   2.064   0.964   2.835  0.0947 -0.8428 -0.2737
  853MOL0     O12522   2.019   1.030   2.724 -0.4000  1.7272 -0.2056
  853MOL0     C12523   1.957   0.943   2.620  0.1016  0.5622  0.0606
  853MOL0     C12524   1.901   1.033   2.508 -0.5355  1.0053  0.3000
  853MOL0     C12525   2.016   1.100   2.428  0.3241  0.5159  0.3074
  853MOL0     C12526   2.043   1.049   2.289 -0.8428 -0.0812 -0.3680
  853MOL0     C12527   2.141   1.131   2.216  0.1191  0.2740  0.3333
  853MOL0     C12528   2.227   1.199   2.157  0.8059  0.4846  0.2519
  853MOL0     C12529   2.116   1.057   2.935  1.1928  0.4509 -0.2024
  853MOL0     C12530   2.127   1.017   3.070  0.5935 -0.6332 -0.1051
  853MOL0     H12531   1.976   0.821   3.530 -1.7538 -1.4078  0.8794
  853MOL0     H12532   2.009   0.697   3.734  0.6526  0.0742  1.2275
  853MOL0     H12533   1.962   0.531   3.883 -1.5268 -2.9308 -0.7755
  853MOL0     H12534   2.133   0.565   3.891 -4.3119  3.9900 -0.1405
  853MOL0     H12535   1.998   0.303   3.999 -1.7019  0.6693 -2.4217
  853MOL0     H12536   2.037   0.438   4.093  2.4120 -0.1880 -0.8504
  853MOL0     H12537   2.273   0.414   4.039 -1.1267  0.4699  2.6628
  853MOL0     H12538   2.240   0.279   3.918  0.5175 -1.1767  1.1807
  853MOL0     H12539   2.153   0.159   4.123  1.4322 -1.6553  1.1183
  853MOL0     H12540   2.329   0.174   4.107  1.2480  1.1232  1.0849
  853MOL0     H12541   2.189   0.380   4.267  0.2779 -0.1906 -0.8001
  853MOL0     H12542   2.353   0.308   4.271  0.5625 -1.5896  0.6093
  853MOL0     H12543   2.224   0.100   4.320  0.5982  0.1625  0.1274
  853MOL0     H12544   2.087   0.204   4.369  0.3665 -0.3415 -1.0657
  853MOL0     H12545   2.362   0.192   4.507  0.5770  4.0539 -0.7265
  853MOL0     H12546   2.241   0.307   4.542  0.5298  0.2007 -0.9383
  853MOL0     H12547   2.070   0.131   4.589  0.0044 -1.9569 -1.3314
  853MOL0     H12548   2.222   0.104   4.688  2.9970 -3.5911 -0.8865
  853MOL0     H12549   2.382  -0.116   4.618  0.6313 -2.2147 -1.3933
  853MOL0     H12550   2.246  -0.457   4.545  1.3652 -1.0157 -1.1653
  853MOL0     H12551   2.334  -0.395   4.674 -2.0878 -2.8685  0.1665
  853MOL0     H12552   2.491  -0.286   4.513 -0.1837  1.9283 -1.5873
  853MOL0     H12553   2.399  -0.338   4.369 -2.4069 -1.3225  0.8071
  853MOL0     H12554   2.440  -0.566   4.400  0.8053 -1.4699 -0.6898
  853MOL0     H12555   2.605  -0.499   4.422 -0.1039  0.7403  1.4932
  853MOL0     H12556   2.416  -0.593   4.635  0.5700  0.5650  0.8900
  853MOL0     H12557   2.559  -0.492   4.664  0.2874  0.9904 -1.0744
  853MOL0     H12558   2.461  -0.689   4.838  0.4105  0.1126  0.6136
  853MOL0     H12559   2.444  -0.882   4.973  0.6695 -0.3775  0.6209
  853MOL0     H12560   2.456  -1.305   5.148 -0.7226 -1.2901  3.3728
  853MOL0     H12561   2.471  -1.497   5.274  1.1380  1.4418  1.0822
  853MOL0     H12562   2.435  -1.694   5.292  0.1899 -0.0517 -0.3959
  853MOL0     H12563   2.563  -1.722   5.417  0.2549  0.7421  0.5223
  853MOL0     H12564   2.410  -1.895   5.399  1.2509 -0.6084  0.9698
  853MOL0     H12565   2.573  -1.955   5.368 -0.0897  0.1204  0.6928
  853MOL0     H12566   2.501  -1.932   5.104 -0.4784 -1.0872  0.4427
  853MOL0     H12567   2.339  -1.932   5.180 -0.3355  2.2065  0.2651
  853MOL0     H12568   2.558  -2.131   5.231  0.2688  1.9570  1.3615
  853MOL0     H12569   2.389  -2.145   5.277  1.2941  1.3207 -0.3025
  853MOL0     H12570   2.465  -2.160   4.977  2.8756 -2.7597  0.8666
  853MOL0     H12571   2.306  -2.143   5.060  0.4106  4.0907 -0.1840
  853MOL0     H12572   2.507  -2.371   5.116 -1.2706  0.8647  3.2345
  853MOL0     H12573   2.411  -2.364   4.966 -0.8625  3.5903 -1.1971
  853MOL0     H12574   2.311  -2.338   5.254  0.5309  4.4127 -3.0231
  853MOL0     H12575   2.192  -2.369   5.127 -2.1537  1.0820  2.6593
  853MOL0     H12576   2.232  -2.577   5.264 -0.3988  1.9316  1.0660
  853MOL0     H12577   2.414  -2.551   5.242  0.0207  1.7791 -0.5324
  853MOL0     H12578   2.758  -1.668   5.003 -3.7066 -2.9728  0.7019
  853MOL0     H12579   2.791  -1.442   4.896 -0.6410 -0.1347 -1.9943
  853MOL0     H12580   2.737  -1.093   4.758  1.0938  0.9900 -0.3440
  853MOL0     H12581   2.716  -0.913   4.574 -0.5960 -2.2684  0.4353
  853MOL0     H12582   2.120   0.344   3.514  0.6513 -0.0917 -4.9224
  853MOL0     H12583   2.113   0.495   3.302  2.3587  1.2779  1.0274
  853MOL0     H12584   2.003   0.700   3.025 -0.8859  0.9159  1.3343
  853MOL0     H12585   1.993   0.767   2.805 -1.1303 -1.3407  1.9323
  853MOL0     H12586   1.877   0.883   2.664  0.7413  0.0644  0.5868
  853MOL0     H12587   2.025   0.867   2.580  0.7854  2.0889 -1.7960
  853MOL0     H12588   1.842   0.965   2.447 -0.5371 -1.4424  2.8370
  853MOL0     H12589   1.851   1.118   2.555  2.6344  4.4637 -2.0271
  853MOL0     H12590   2.114   1.087   2.475  0.9761 -1.4930 -1.4413
  853MOL0     H12591   1.989   1.206   2.428  1.2874  0.7799 -0.9094
  853MOL0     H12592   2.075   0.945   2.285  0.3756  0.2658 -0.1515
  853MOL0     H12593   1.950   1.040   2.233  0.1840 -2.6645 -1.8065
  853MOL0     H12594   2.306   1.263   2.123  3.1350 -1.2398  2.0881
  853MOL0     H12595   2.143   1.153   2.893 -1.1052  0.1552 -2.6145
  853MOL0     H12596   2.175   1.078   3.146  1.1564 -1.3581  0.1274
  854MOL0     O12597   3.220   8.214   7.597 -0.1638  0.3622  0.4827
  854MOL0     C12598   3.164   8.098   7.607 -0.1967 -0.3146 -0.0943
  854MOL0     O12599   3.078   8.066   7.705 -0.3209  0.6097 -0.6879
  854MOL0     C12600   3.039   8.167   7.792 -0.2797  0.1274 -0.4882
  854MOL0     C12601   2.918   8.234   7.761  0.3283  0.5479  0.3705
  854MOL0     C12602   2.856   8.324   7.844 -0.2253 -0.3071  0.3681
  854MOL0     C12603   2.921   8.353   7.965 -1.0775  1.1072 -0.0998
  854MOL0     O12604   2.850   8.432   8.053 -1.0680 -0.7100 -0.1286
  854MOL0     C12605   2.916   8.464   8.175  0.1557 -0.6649 -0.1505
  854MOL0     C12606   2.807   8.553   8.243  0.3771 -0.4434 -0.4424
  854MOL0     C12607   2.885   8.654   8.322  0.3905  0.2031 -0.3832
  854MOL0     C12608   2.806   8.775   8.392  0.3463 -0.7634 -0.7335
  854MOL0     C12609   2.680   8.742   8.467 -0.4086 -0.2652  0.0027
  854MOL0     C12610   2.609   8.866   8.535  0.0701  0.4404 -0.0349
  854MOL0     C12611   2.678   8.888   8.682 -0.0247  0.1180  0.1941
  854MOL0     C12612   2.626   9.020   8.726 -0.1922  0.1141 -0.4125
  854MOL0     N12613   2.479   9.037   8.727 -0.2788  0.1143 -0.2013
  854MOL0     C12614   2.403   9.130   8.661 -0.1601 -0.1175 -0.1372
  854MOL0     C12615   2.282   9.118   8.695  0.2161 -0.1255  0.6011
  854MOL0     C12616   2.166   9.191   8.633  0.2993  0.8528 -0.1174
  854MOL0     C12617   2.152   9.331   8.689 -0.0613  0.0490  0.1033
  854MOL0     C12618   2.021   9.390   8.638 -0.1457  0.4248  0.4299
  854MOL0     C12619   2.016   9.523   8.713 -0.5427 -0.8417  0.1448
  854MOL0     O12620   1.909   9.603   8.656  0.4520  0.2838  0.1008
  854MOL0     C12621   1.854   9.715   8.724  0.4745 -0.2574  0.7833
  854MOL0     C12622   1.912   9.773   8.836 -0.2456  0.1074  0.3787
  854MOL0     C12623   1.844   9.875   8.907 -0.5523  0.2002 -0.3589
  854MOL0     C12624   1.719   9.923   8.869 -0.0781 -1.0532 -0.1592
  854MOL0     C12625   1.647  10.043   8.927  0.2272  0.1266 -1.0170
  854MOL0     O12626   1.709  10.115   9.020  0.3776  0.5457 -0.2998
  854MOL0     C12627   1.644  10.175   9.129  0.5713 -0.9653  0.1616
  854MOL0     C12628   1.518  10.131   9.174 -0.1698 -0.9991 -0.4390
  854MOL0     C12629   1.452  10.192   9.279 -0.1185  0.7351  0.7128
  854MOL0     C12630   1.504  10.305   9.336  0.3879  0.0340 -1.1062
  854MOL0     O12631   1.412  10.363   9.425 -0.1536 -0.1776 -0.7900
  854MOL0     C12632   1.472  10.482   9.488  0.5110  0.0869 -0.1692
  854MOL0     C12633   1.349  10.564   9.549 -0.1450 -0.8263  0.2352
  854MOL0     C12634   1.344  10.531   9.701 -0.6812  0.0979  0.3624
  854MOL0     C12635   1.245  10.618   9.780  0.7952 -0.4712 -0.7735
  854MOL0     C12636   1.260  10.631   9.933 -0.1349  0.0309  0.6627
  854MOL0     C12637   1.154  10.716   9.992  0.2445 -0.5253 -0.1426
  854MOL0     C12638   1.202  10.781  10.122  0.4047  0.7346  0.7214
  854MOL0     C12639   1.098  10.884  10.175 -0.4051  0.4285  0.9300
  854MOL0    Cl12640   0.931  10.814  10.161 -0.2157 -0.4537 -0.1120
  854MOL0     C12641   1.640  10.334   9.314 -0.5957 -0.1827 -0.5901
  854MOL0     C12642   1.702  10.282   9.207 -0.4183 -0.2437  0.8439
  854MOL0     O12643   1.535  10.069   8.891  0.1549  0.5782 -0.3483
  854MOL0     C12644   1.661   9.864   8.757 -1.2990  0.0542  0.4737
  854MOL0     C12645   1.729   9.763   8.683 -0.5924  0.7379 -1.3349
  854MOL0     N12646   2.274   9.015   8.788 -0.7070  0.6078  0.0439
  854MOL0     N12647   2.395   8.963   8.804 -0.7142  0.4598  1.1315
  854MOL0     C12648   3.045   8.281   8.000 -0.2650 -0.7935  0.0080
  854MOL0     C12649   3.109   8.179   7.913  0.3486  0.1522  0.2119
  854MOL0     C12650   3.212   7.982   7.525 -0.1702  0.1460 -0.0762
  854MOL0     C12651   3.307   7.997   7.430 -0.1068  0.4919 -0.6701
  854MOL0     C12652   3.343   7.897   7.339 -0.2859 -0.2432  0.0127
  854MOL0     C12653   3.270   7.782   7.326 -0.3174  0.4275 -0.0964
  854MOL0     O12654   3.299   7.699   7.224 -0.3904 -0.7258 -0.2515
  854MOL0     C12655   3.243   7.565   7.233  0.4923  0.6279  0.9854
  854MOL0     C12656   3.124   7.549   7.164  0.5580  0.0593  0.0042
  854MOL0     C12657   3.034   7.432   7.203 -0.1617  0.0793 -0.4638
  854MOL0     C12658   2.945   7.367   7.084 -0.5052 -0.9332 -0.2412
  854MOL0     C12659   2.820   7.315   7.141 -0.4764  0.3607  0.1700
  854MOL0     C12660   2.716   7.250   7.161 -0.7359  0.0403 -0.6074
  854MOL0     C12661   3.176   7.759   7.428 -0.6517  0.6237 -0.8461
  854MOL0     C12662   3.153   7.861   7.527 -0.3007  0.2372 -0.3270
  854MOL0     H12663   2.864   8.223   7.667  1.4711 -3.2997 -0.0175
  854MOL0     H12664   2.758   8.356   7.810  0.0971  2.4597  1.6801
  854MOL0     H12665   3.008   8.519   8.153  2.1663 -2.7877  2.3694
  854MOL0     H12666   2.940   8.376   8.235 -2.4053 -1.6999 -0.4886
  854MOL0     H12667   2.744   8.497   8.314  0.0387  1.1331  0.5418
  854MOL0     H12668   2.744   8.608   8.172 -1.1056  0.1493  1.2483
  854MOL0     H12669   2.962   8.704   8.262  1.9128 -2.3214 -0.7026
  854MOL0     H12670   2.933   8.611   8.410 -2.4777  1.8492  2.1792
  854MOL0     H12671   2.862   8.827   8.470  0.2230  0.8852 -1.6798
  854MOL0     H12672   2.781   8.856   8.323 -0.5463 -0.2544  0.1614
  854MOL0     H12673   2.716   8.672   8.544 -0.3845  0.1248  0.3486
  854MOL0     H12674   2.616   8.691   8.395  1.2389  1.1219 -2.6137
  854MOL0     H12675   2.504   8.846   8.554  0.2678  1.1575  2.0593
  854MOL0     H12676   2.622   8.955   8.472  2.9594  2.3876  3.0042
  854MOL0     H12677   2.639   8.809   8.746 -0.6280  1.0172  0.9591
  854MOL0     H12678   2.788   8.887   8.679  0.0589 -3.0359  0.8609
  854MOL0     H12679   2.669   9.093   8.656  3.9715 -0.7272  0.9822
  854MOL0     H12680   2.674   9.041   8.822 -2.0775 -1.3479  0.9150
  854MOL0     H12681   2.435   9.205   8.589  0.6845 -1.1926 -0.9089
  854MOL0     H12682   2.083   9.122   8.651  1.8279 -0.8099  0.9533
  854MOL0     H12683   2.172   9.197   8.524  0.7697  0.1616 -0.1375
  854MOL0     H12684   2.238   9.388   8.654 -0.4684  0.7592  0.2305
  854MOL0     H12685   2.148   9.328   8.798 -0.0743  1.1819  0.1454
  854MOL0     H12686   2.031   9.400   8.529 -1.5876  4.3264  0.4695
  854MOL0     H12687   1.935   9.327   8.662 -1.5585  1.0583 -2.4885
  854MOL0     H12688   2.109   9.579   8.700  0.3211 -2.5771 -1.8712
  854MOL0     H12689   2.005   9.511   8.821  3.9542  0.5795  0.9378
  854MOL0     H12690   2.012   9.749   8.871  0.4372  0.8057 -1.0211
  854MOL0     H12691   1.892   9.919   8.994 -1.2182  1.4271 -0.5939
  854MOL0     H12692   1.465  10.046   9.133  0.4100 -1.3363 -0.4976
  854MOL0     H12693   1.356  10.151   9.308 -0.0123 -0.3947 -0.4717
  854MOL0     H12694   1.531  10.545   9.421  1.2267  0.0086  0.3766
  854MOL0     H12695   1.544  10.442   9.561  1.2909 -0.1271 -1.0418
  854MOL0     H12696   1.248  10.539   9.513 -0.8123 -1.3740  2.3317
  854MOL0     H12697   1.367  10.670   9.532  1.2769 -1.0591  0.1804
  854MOL0     H12698   1.443  10.563   9.735 -0.5250 -1.9801  2.0639
  854MOL0     H12699   1.330  10.425   9.723  1.6426 -0.7976 -1.9023
  854MOL0     H12700   1.229  10.719   9.742  1.0471 -1.2191 -3.0182
  854MOL0     H12701   1.149  10.568   9.765  0.6120  0.6335 -3.9686
  854MOL0     H12702   1.360  10.673   9.949  0.2524  0.0578 -1.5302
  854MOL0     H12703   1.264  10.532   9.980  2.5928 -0.1351  0.2329
  854MOL0     H12704   1.068  10.651  10.006 -0.2013 -0.6607 -3.0122
  854MOL0     H12705   1.127  10.798   9.925 -2.7453 -1.8441 -0.6904
  854MOL0     H12706   1.226  10.705  10.197 -0.7817 -1.6750 -1.2140
  854MOL0     H12707   1.289  10.842  10.099 -1.3467  2.9006 -0.6390
  854MOL0     H12708   1.108  10.974  10.114  3.8376  0.1610  0.8718
  854MOL0     H12709   1.128  10.901  10.279 -0.0327 -1.0174  1.0842
  854MOL0     H12710   1.690  10.409   9.374 -0.0466  0.4261 -1.7757
  854MOL0     H12711   1.800  10.312   9.171 -0.8028  4.3201  2.9877
  854MOL0     H12712   1.570   9.908   8.718 -0.6997  1.0218  0.1406
  854MOL0     H12713   1.674   9.734   8.594 -0.0274 -0.2902 -1.3577
  854MOL0     H12714   3.096   8.278   8.096 -0.2616 -0.4277  0.0199
  854MOL0     H12715   3.205   8.132   7.935 -0.9517 -2.4217  0.7804
  854MOL0     H12716   3.365   8.089   7.434  0.6648 -0.0186  0.6615
  854MOL0     H12717   3.433   7.907   7.279 -2.1326  1.5286 -2.6448
  854MOL0     H12718   3.217   7.537   7.336  1.5862  2.5842  1.8534
  854MOL0     H12719   3.303   7.484   7.190 -1.5113  0.3442 -1.5028
  854MOL0     H12720   3.068   7.643   7.170  2.2921  1.1714 -0.5881
  854MOL0     H12721   3.152   7.541   7.059  1.7840 -4.5820  0.4852
  854MOL0     H12722   2.970   7.469   7.284  1.2845  1.5447  0.0554
  854MOL0     H12723   3.091   7.350   7.246 -0.0628  0.0239 -0.6988
  854MOL0     H12724   2.916   7.439   7.007  1.2153 -0.3443 -0.3779
  854MOL0     H12725   2.999   7.286   7.035  0.5548  0.3876 -1.3278
  854MOL0     H12726   2.628   7.188   7.164 -1.0912  0.3527 -2.6077
  854MOL0     H12727   3.108   7.674   7.423  1.3703 -1.1447  0.1118
  854MOL0     H12728   3.064   7.836   7.584 -1.5329 -0.9330 -2.6466
  855MOL0     O12729   6.834   8.555   4.795 -0.7940 -0.2779 -0.3623
  855MOL0     C12730   6.733   8.609   4.845 -0.6646  0.2840  0.1870
  855MOL0     O12731   6.736   8.727   4.920 -0.4878  0.4217 -0.0634
  855MOL0     C12732   6.849   8.810   4.921  0.0585 -0.4543 -0.3774
  855MOL0     C12733   6.830   8.954   4.939 -1.1933 -0.0272  0.3025
  855MOL0     C12734   6.933   9.050   4.913 -0.5530  0.3565 -0.2818
  855MOL0     C12735   7.073   9.004   4.881 -0.1009  0.0030 -0.5308
  855MOL0     O12736   7.171   9.100   4.871 -0.6413 -0.4325 -0.5353
  855MOL0     C12737   7.275   9.072   4.776  0.0470  1.0882 -0.6473
  855MOL0     C12738   7.427   9.109   4.812  0.0041  0.6521 -0.2718
  855MOL0     C12739   7.472   9.012   4.921 -0.2894 -0.1170  0.4917
  855MOL0     C12740   7.615   9.056   4.978 -0.0496  0.1070  0.3935
  855MOL0     C12741   7.666   8.969   5.094  0.7004 -0.3202  0.2643
  855MOL0     C12742   7.805   9.002   5.152  0.6322 -0.3865 -0.7665
  855MOL0     C12743   7.920   8.988   5.044 -0.2856  0.8551  0.2092
  855MOL0     C12744   8.025   8.883   5.075 -0.8145  0.1251 -1.2757
  855MOL0     N12745   7.976   8.743   5.083  0.2329  0.2719 -0.1811
  855MOL0     C12746   7.901   8.670   4.996 -0.3804  0.3618  0.1896
  855MOL0     C12747   7.864   8.555   5.054  0.4894  0.1605  0.3792
  855MOL0     C12748   7.780   8.443   5.000  0.5918 -0.4504 -0.1251
  855MOL0     C12749   7.820   8.391   4.856  0.4327  0.6746  0.6734
  855MOL0     C12750   7.766   8.253   4.830 -0.8675  1.2923  0.2967
  855MOL0     C12751   7.800   8.190   4.693 -0.4411  0.5456  0.4772
  855MOL0     O12752   7.707   8.250   4.604  0.6041  0.5741 -0.0231
  855MOL0     C12753   7.690   8.186   4.484  0.1045  0.5513 -0.1196
  855MOL0     C12754   7.563   8.185   4.424 -0.7087 -0.5584  0.6310
  855MOL0     C12755   7.538   8.140   4.291  0.0538  0.3067 -0.1484
  855MOL0     C12756   7.654   8.077   4.222  0.5437  0.8421  0.0172
  855MOL0     C12757   7.631   8.004   4.097  0.1758 -0.2890  0.7811
  855MOL0     O12758   7.743   7.958   4.042  0.1504 -0.2539  0.2547
  855MOL0     C12759   7.743   7.923   3.908 -0.8523 -0.0883  0.0861
  855MOL0     C12760   7.804   7.800   3.864  0.9188 -0.5231  0.7101
  855MOL0     C12761   7.810   7.775   3.721  0.3170 -0.1306  1.3705
  855MOL0     C12762   7.759   7.866   3.626  0.7809 -1.0801  1.0600
  855MOL0     O12763   7.758   7.831   3.489 -0.4430  0.0075  0.1001
  855MOL0     C12764   7.634   7.860   3.420 -0.0442 -0.2721  0.3476
  855MOL0     C12765   7.613   7.815   3.270 -0.4277 -0.7690 -0.0798
  855MOL0     C12766   7.616   7.668   3.234 -0.0241  0.6802  0.2299
  855MOL0     C12767   7.591   7.656   3.087  0.1946  0.7587  0.1715
  855MOL0     C12768   7.569   7.507   3.058  0.6999 -0.2621  0.5531
  855MOL0     C12769   7.588   7.475   2.916 -0.4564 -0.0084  0.4251
  855MOL0     C12770   7.607   7.324   2.883  0.1023 -0.3248 -0.7038
  855MOL0     C12771   7.645   7.302   2.740  0.1754  0.1018 -0.2642
  855MOL0    Cl12772   7.698   7.132   2.705  0.1827 -0.4618 -0.1705
  855MOL0     C12773   7.702   7.987   3.667 -0.8200  0.7502 -0.6265
  855MOL0     C12774   7.703   8.019   3.808 -0.5733 -0.4085 -0.8102
  855MOL0     O12775   7.518   7.999   4.046 -1.0336  0.0347 -0.4028
  855MOL0     C12776   7.781   8.082   4.284 -0.1697  0.0669 -0.5759
  855MOL0     C12777   7.801   8.131   4.412  0.7776 -0.2335  0.2454
  855MOL0     N12778   7.928   8.547   5.175 -0.1945 -0.4276 -0.6573
  855MOL0     N12779   7.994   8.659   5.191 -0.1264  0.9078 -0.1517
  855MOL0     C12780   7.091   8.865   4.895  0.5614  1.6912 -0.0368
  855MOL0     C12781   6.987   8.768   4.909 -0.5183  0.0947  0.0980
  855MOL0     C12782   6.604   8.543   4.833 -0.7306 -0.1549  0.7538
  855MOL0     C12783   6.483   8.604   4.847  0.5421 -0.3090  0.2632
  855MOL0     C12784   6.363   8.537   4.822  0.0496 -0.3564  0.6417
  855MOL0     C12785   6.358   8.414   4.745 -0.0486 -0.9873  0.3102
  855MOL0     O12786   6.236   8.356   4.706 -0.3861 -0.7598 -0.3654
  855MOL0     C12787   6.225   8.251   4.614 -0.6022  0.5462  0.1836
  855MOL0     C12788   6.255   8.117   4.679  0.4921  0.4973 -0.3185
  855MOL0     C12789   6.120   8.071   4.751 -0.1089 -0.6184 -0.6873
  855MOL0     C12790   6.139   7.925   4.809 -0.0277  0.2459 -0.3250
  855MOL0     C12791   6.271   7.908   4.881 -0.8561  0.5248  1.0165
  855MOL0     C12792   6.378   7.872   4.933 -0.0629  0.1107 -0.1462
  855MOL0     C12793   6.485   8.358   4.703 -0.6123  0.0349  0.7946
  855MOL0     C12794   6.602   8.427   4.753 -0.1808 -0.3461 -0.0017
  855MOL0     H12795   6.736   9.006   4.952  1.1010  4.1055  2.3956
  855MOL0     H12796   6.906   9.155   4.919 -1.8143  0.0526 -0.2369
  855MOL0     H12797   7.257   9.139   4.692  0.9233  2.2063  0.0316
  855MOL0     H12798   7.271   8.967   4.744  0.2555  0.9898 -0.3601
  855MOL0     H12799   7.430   9.217   4.829  1.4936  0.5587  0.2493
  855MOL0     H12800   7.491   9.086   4.726  1.5296 -5.7105  2.0301
  855MOL0     H12801   7.497   8.911   4.886  2.9729  0.4296  0.8730
  855MOL0     H12802   7.392   9.008   4.996  0.3369 -0.6193  1.1521
  855MOL0     H12803   7.693   9.055   4.901  0.8925  4.0498  1.0912
  855MOL0     H12804   7.610   9.156   5.022  1.8853 -0.1631  1.3193
  855MOL0     H12805   7.662   8.866   5.058  0.9254  0.6055 -2.6652
  855MOL0     H12806   7.591   8.984   5.172  0.7256  2.3904 -0.1368
  855MOL0     H12807   7.831   8.945   5.242 -0.9975 -2.5947 -1.5907
  855MOL0     H12808   7.802   9.109   5.173 -2.1032 -0.3764 -0.8115
  855MOL0     H12809   7.873   8.948   4.954  0.3003  1.1527 -0.2333
  855MOL0     H12810   7.951   9.090   5.023 -1.2526  1.1052 -0.0513
  855MOL0     H12811   8.070   8.910   5.171 -3.1584 -0.2323  0.0079
  855MOL0     H12812   8.108   8.880   5.004 -0.0041 -0.7113 -0.3198
  855MOL0     H12813   7.879   8.700   4.894  0.5449  3.7689  0.8840
  855MOL0     H12814   7.680   8.485   4.990  0.4019 -1.0694 -0.9056
  855MOL0     H12815   7.789   8.356   5.067  3.2138 -1.6870 -1.8983
  855MOL0     H12816   7.928   8.389   4.836  0.3288 -0.9953  0.1362
  855MOL0     H12817   7.786   8.462   4.781 -1.2971  0.5714  1.3144
  855MOL0     H12818   7.801   8.185   4.909 -0.2171 -1.0739 -1.8809
  855MOL0     H12819   7.659   8.264   4.846 -0.5118  1.0154  3.4155
  855MOL0     H12820   7.791   8.081   4.690  1.3295  0.3740 -2.8574
  855MOL0     H12821   7.897   8.228   4.658 -1.2654  1.1648 -1.2393
  855MOL0     H12822   7.486   8.232   4.484 -0.6370  1.0442 -0.4690
  855MOL0     H12823   7.437   8.135   4.252 -0.5293  1.0535  1.1759
  855MOL0     H12824   7.839   7.728   3.937  1.9892  0.3372  1.0764
  855MOL0     H12825   7.851   7.681   3.683  0.7056  0.3008  0.6807
  855MOL0     H12826   7.597   7.963   3.418 -1.1233 -0.6388  0.8185
  855MOL0     H12827   7.550   7.806   3.463 -2.8934  2.6137 -1.1118
  855MOL0     H12828   7.695   7.866   3.217 -1.0300 -0.1783 -0.4577
  855MOL0     H12829   7.517   7.856   3.236 -0.1371  0.0232  0.0155
  855MOL0     H12830   7.547   7.614   3.300 -1.1698  0.7882 -0.8411
  855MOL0     H12831   7.716   7.631   3.257  0.6384  3.2790  2.0991
  855MOL0     H12832   7.494   7.703   3.073 -0.4210 -0.4625  0.2694
  855MOL0     H12833   7.672   7.705   3.032 -0.6676 -1.8263 -3.8527
  855MOL0     H12834   7.469   7.468   3.082  1.3508 -4.1181 -2.0425
  855MOL0     H12835   7.651   7.456   3.110  1.1607  2.6592  2.9730
  855MOL0     H12836   7.675   7.531   2.881 -0.2869 -1.1818 -1.2108
  855MOL0     H12837   7.509   7.509   2.847  0.1359  0.5342  0.0045
  855MOL0     H12838   7.668   7.267   2.953  0.5427  2.2260  1.1198
  855MOL0     H12839   7.512   7.272   2.870  1.5378 -3.4986  0.3691
  855MOL0     H12840   7.740   7.355   2.724  1.1371 -1.6305 -0.5004
  855MOL0     H12841   7.571   7.339   2.669 -1.1371 -2.8056 -0.5429
  855MOL0     H12842   7.666   8.058   3.593  3.5758  1.1199 -2.7209
  855MOL0     H12843   7.661   8.118   3.828  2.6352  0.7363  0.8958
  855MOL0     H12844   7.863   8.023   4.243  0.3638  1.3081 -1.3625
  855MOL0     H12845   7.900   8.139   4.454  1.6123 -2.9666 -0.9331
  855MOL0     H12846   7.191   8.822   4.897 -0.6634 -1.4075 -0.3999
  855MOL0     H12847   7.020   8.664   4.903 -0.3520  0.1719 -0.4004
  855MOL0     H12848   6.472   8.697   4.902  0.0597 -0.8199  1.0549
  855MOL0     H12849   6.267   8.568   4.861  1.4423  2.5774  2.0898
  855MOL0     H12850   6.302   8.261   4.538  0.3366 -2.0099  0.7070
  855MOL0     H12851   6.131   8.256   4.558  0.3138 -0.2139 -1.4889
  855MOL0     H12852   6.285   8.039   4.608 -2.0619 -1.8140  0.9061
  855MOL0     H12853   6.336   8.125   4.752  1.3573 -1.2181 -1.0175
  855MOL0     H12854   6.030   8.080   4.690  1.5903  3.9123 -3.0011
  855MOL0     H12855   6.112   8.136   4.838 -0.6278 -1.4906 -0.0634
  855MOL0     H12856   6.051   7.905   4.871  1.0413 -0.5050  1.0031
  855MOL0     H12857   6.137   7.852   4.728 -0.5074 -0.8900  0.6751
  855MOL0     H12858   6.461   7.824   4.980 -1.8876 -2.5132  0.6438
  855MOL0     H12859   6.500   8.266   4.647 -1.8995 -1.7589  3.2121
  855MOL0     H12860   6.695   8.382   4.719 -0.7754 -1.2227 -0.4985
  856MOL0     O12861   4.846   0.519   3.334  0.7575  0.6898  0.1900
  856MOL0     C12862   4.915   0.432   3.390  0.3271 -0.2262 -0.3344
  856MOL0     O12863   5.017   0.363   3.331  0.2758  0.2667  0.0891
  856MOL0     C12864   5.059   0.393   3.206  0.1706  0.7064  0.1994
  856MOL0     C12865   5.204   0.384   3.181  0.2338 -0.6820 -0.1269
  856MOL0     C12866   5.258   0.420   3.052  0.7864  0.4495  0.2158
  856MOL0     C12867   5.168   0.456   2.955  0.3899  0.8513  0.1017
  856MOL0     O12868   5.219   0.477   2.832 -0.5438 -0.6925 -0.1641
  856MOL0     C12869   5.256   0.612   2.825  0.3949  0.0709 -0.8260
  856MOL0     C12870   5.274   0.642   2.677  0.4210 -1.0576  0.4720
  856MOL0     C12871   5.161   0.601   2.579 -0.9373 -0.0481 -0.9492
  856MOL0     C12872   5.198   0.614   2.430 -0.3985 -0.2392 -0.4830
  856MOL0     C12873   5.092   0.556   2.346 -0.9396 -0.2519  0.1800
  856MOL0     C12874   5.123   0.548   2.197 -0.9947 -0.3575  0.4231
  856MOL0     C12875   5.197   0.416   2.149 -0.2711 -0.6125 -0.3434
  856MOL0     C12876   5.107   0.291   2.148 -0.0927 -0.1920  0.1000
  856MOL0     N12877   4.986   0.327   2.070 -0.1821  0.4515 -0.6847
  856MOL0     C12878   4.978   0.294   1.937 -0.4346 -0.9998  0.2154
  856MOL0     C12879   4.845   0.305   1.906 -0.3832  0.4522  0.1174
  856MOL0     C12880   4.791   0.276   1.764  0.1233 -0.7239 -0.3147
  856MOL0     C12881   4.870   0.347   1.651 -0.6813  0.2696  0.2798
  856MOL0     C12882   4.786   0.351   1.528 -0.6910  0.4498 -0.3155
  856MOL0     C12883   4.757   0.214   1.471  0.6575  0.6229  0.2413
  856MOL0     O12884   4.698   0.233   1.340  0.8777 -0.0761 -0.2514
  856MOL0     C12885   4.771   0.224   1.227  0.2567  0.0906 -0.3861
  856MOL0     C12886   4.912   0.235   1.211  0.4322 -0.1436 -0.4123
  856MOL0     C12887   4.979   0.192   1.093  0.2854  0.1469 -0.6492
  856MOL0     C12888   4.904   0.145   0.982 -0.2203  0.3203  0.2875
  856MOL0     C12889   4.970   0.095   0.859 -0.4742  0.2610  0.1552
  856MOL0     O12890   5.106   0.076   0.858 -0.2698 -1.1093  0.1178
  856MOL0     C12891   5.176   0.039   0.744 -0.3411 -0.3082  0.1021
  856MOL0     C12892   5.255   0.129   0.679 -0.2048 -0.1171 -0.5349
  856MOL0     C12893   5.335   0.097   0.570  0.2770  0.4642 -0.6349
  856MOL0     C12894   5.332  -0.036   0.518 -1.2337 -0.1902 -0.4830
  856MOL0     O12895   5.412  -0.076   0.411 -0.5639  0.3159 -0.0909
  856MOL0     C12896   5.492   0.017   0.334  0.0078 -0.3752  0.0108
  856MOL0     C12897   5.563  -0.063   0.218  1.2362 -0.2149 -0.5156
  856MOL0     C12898   5.645   0.036   0.138  0.0873  0.2070 -0.1787
  856MOL0     C12899   5.752  -0.040   0.051 -0.4004 -0.3411 -0.0337
  856MOL0     C12900   5.884   0.028   0.034 -0.0326 -0.2873  0.2729
  856MOL0     C12901   5.976  -0.043  -0.061  0.4961 -0.2907 -0.5411
  856MOL0     C12902   6.037  -0.168   0.013 -0.2461 -0.6914 -0.8459
  856MOL0     C12903   6.150  -0.130   0.118 -0.7490 -0.1464  0.0239
  856MOL0    Cl12904   6.297  -0.218   0.074  0.2383  0.5926 -0.1051
  856MOL0     C12905   5.263  -0.134   0.587  0.2013 -0.3245  0.4356
  856MOL0     C12906   5.183  -0.099   0.697  0.3517 -0.3925 -0.4974
  856MOL0     O12907   4.903   0.055   0.764  0.6751 -0.7725 -0.1942
  856MOL0     C12908   4.767   0.154   0.989  0.0500 -0.4090  0.8432
  856MOL0     C12909   4.698   0.188   1.114 -0.6400  0.2490  0.8324
  856MOL0     N12910   4.769   0.335   2.020 -0.0211  0.0516 -0.6222
  856MOL0     N12911   4.854   0.337   2.122  0.5250  0.4557 -0.0179
  856MOL0     C12912   5.023   0.449   2.975 -0.3289 -0.6802 -0.0226
  856MOL0     C12913   4.968   0.418   3.102 -0.9310 -0.0883 -0.4872
  856MOL0     C12914   4.883   0.400   3.532 -0.5921 -0.4012  0.1250
  856MOL0     C12915   4.752   0.425   3.573 -0.0798  0.2159 -1.1503
  856MOL0     C12916   4.722   0.414   3.715 -0.2429 -1.1142  0.5525
  856MOL0     C12917   4.814   0.353   3.804 -0.2008  0.1597 -0.6172
  856MOL0     O12918   4.791   0.323   3.937 -0.3547  0.0413 -0.5061
  856MOL0     C12919   4.662   0.311   3.990 -0.2916 -0.1592 -0.0558
  856MOL0     C12920   4.605   0.442   4.045 -0.3605 -0.3153 -0.5506
  856MOL0     C12921   4.696   0.484   4.164 -0.3661 -0.7071  0.0721
  856MOL0     C12922   4.634   0.595   4.234 -0.6641 -0.0626 -0.3048
  856MOL0     C12923   4.628   0.722   4.157  0.4280 -0.7937  0.4499
  856MOL0     C12924   4.619   0.839   4.127 -0.1352  0.2283 -0.2482
  856MOL0     C12925   4.944   0.332   3.761  0.2449  0.3067 -0.4716
  856MOL0     C12926   4.974   0.340   3.632 -0.1383 -0.2184  0.4540
  856MOL0     H12927   5.281   0.373   3.256  0.0045  0.5362  0.3147
  856MOL0     H12928   5.365   0.432   3.036  0.4983  0.9998 -1.6137
  856MOL0     H12929   5.345   0.636   2.884 -2.2724 -0.2757  3.8310
  856MOL0     H12930   5.178   0.683   2.853 -0.3379 -0.5409 -1.2915
  856MOL0     H12931   5.367   0.593   2.644  1.4892  0.6122  0.8471
  856MOL0     H12932   5.290   0.749   2.663  1.1642 -1.1035  0.9332
  856MOL0     H12933   5.069   0.658   2.596 -0.6935  0.7877 -2.3051
  856MOL0     H12934   5.132   0.499   2.609 -1.3414  0.5267  0.7236
  856MOL0     H12935   5.207   0.720   2.405  0.5490 -1.1500 -4.6918
  856MOL0     H12936   5.295   0.566   2.416  0.1650  1.2784 -2.1061
  856MOL0     H12937   5.004   0.619   2.362 -1.3051 -1.0246  1.4242
  856MOL0     H12938   5.066   0.459   2.392  2.9919 -1.3732  0.3751
  856MOL0     H12939   5.181   0.638   2.179 -4.5036  2.1084  0.4257
  856MOL0     H12940   5.030   0.569   2.143 -0.8085 -0.6986 -0.0341
  856MOL0     H12941   5.246   0.439   2.054  0.6968 -3.5850 -0.6534
  856MOL0     H12942   5.274   0.392   2.223 -1.7478 -0.1810  1.4182
  856MOL0     H12943   5.073   0.258   2.247  1.4633  0.3114  0.8421
  856MOL0     H12944   5.155   0.199   2.112 -0.6808 -0.7900  0.7963
  856MOL0     H12945   5.058   0.254   1.875  1.7389  1.0883  1.5038
  856MOL0     H12946   4.690   0.313   1.742  0.8527  0.0520 -2.6600
  856MOL0     H12947   4.781   0.168   1.750  0.7975 -0.7535 -0.6084
  856MOL0     H12948   4.963   0.294   1.631 -1.7023 -2.0613  1.3856
  856MOL0     H12949   4.896   0.450   1.677 -0.1998  0.6176 -1.4573
  856MOL0     H12950   4.691   0.404   1.536  0.2767  2.4546 -1.3044
  856MOL0     H12951   4.845   0.406   1.453  4.2029 -1.1171  1.9685
  856MOL0     H12952   4.679   0.166   1.532  0.3784 -0.0528 -0.6277
  856MOL0     H12953   4.846   0.151   1.469  2.2096  2.6038  2.0558
  856MOL0     H12954   4.975   0.256   1.297 -0.2316  1.2692 -0.2514
  856MOL0     H12955   5.085   0.214   1.088  0.7118 -0.6364  2.6720
  856MOL0     H12956   5.259   0.233   0.709 -0.7546  0.7222 -3.1327
  856MOL0     H12957   5.383   0.180   0.518  3.4022  0.0492  1.3552
  856MOL0     H12958   5.572   0.074   0.383 -1.2556  1.6025 -0.1411
  856MOL0     H12959   5.423   0.087   0.287  1.1395  1.0234  0.3582
  856MOL0     H12960   5.480  -0.115   0.170  0.4639  2.1137 -1.9143
  856MOL0     H12961   5.629  -0.129   0.275 -1.9719  0.0710  4.1401
  856MOL0     H12962   5.701   0.107   0.199  0.4101 -0.7437  0.6631
  856MOL0     H12963   5.583   0.096   0.071  1.9069  0.6483 -1.5514
  856MOL0     H12964   5.770  -0.132   0.108  1.4486  1.6196  2.7778
  856MOL0     H12965   5.707  -0.058  -0.048 -0.9926  0.9415 -0.0235
  856MOL0     H12966   5.933   0.021   0.131 -1.5434 -0.5660  1.0420
  856MOL0     H12967   5.876   0.137   0.029  1.4607  0.0369  3.0412
  856MOL0     H12968   6.053   0.030  -0.087  0.2894  0.6052  1.1905
  856MOL0     H12969   5.937  -0.087  -0.153  3.1100 -0.6669 -1.5788
  856MOL0     H12970   5.960  -0.228   0.062 -1.8692  0.5873 -1.7356
  856MOL0     H12971   6.089  -0.238  -0.054  0.0969 -0.0942 -1.2239
  856MOL0     H12972   6.120  -0.153   0.221  0.9134  2.0215  1.0823
  856MOL0     H12973   6.183  -0.026   0.120 -2.6219  0.4747  0.4087
  856MOL0     H12974   5.266  -0.240   0.566 -0.7381 -0.6583  1.8212
  856MOL0     H12975   5.120  -0.170   0.750 -1.1116  0.4329 -1.0768
  856MOL0     H12976   4.715   0.126   0.898  0.9883 -1.4370  0.6015
  856MOL0     H12977   4.590   0.178   1.109 -0.4316 -2.2158 -3.2608
  856MOL0     H12978   4.969   0.458   2.881  0.4483 -0.3104 -0.4470
  856MOL0     H12979   4.861   0.399   3.110 -0.6867 -1.0629  0.9525
  856MOL0     H12980   4.684   0.477   3.507  0.6964  1.0042 -1.3570
  856MOL0     H12981   4.617   0.434   3.733 -0.2321  0.4386 -0.8846
  856MOL0     H12982   4.678   0.240   4.071  0.2853 -0.9697 -0.8565
  856MOL0     H12983   4.588   0.273   3.919  0.0864 -0.3443 -0.3604
  856MOL0     H12984   4.619   0.520   3.969  0.0092 -1.3984 -1.6241
  856MOL0     H12985   4.496   0.440   4.056 -0.4929 -1.4453 -1.9256
  856MOL0     H12986   4.786   0.527   4.118 -1.2530  2.0080  0.6810
  856MOL0     H12987   4.720   0.401   4.231  0.6304 -0.9800 -0.6113
  856MOL0     H12988   4.541   0.556   4.276  1.5260 -1.7140  3.5167
  856MOL0     H12989   4.706   0.615   4.314  1.6431 -2.0098 -1.7254
  856MOL0     H12990   4.609   0.946   4.117 -1.6723  0.2838  1.4261
  856MOL0     H12991   5.022   0.316   3.835 -2.2472  1.6416  2.6626
  856MOL0     H12992   5.073   0.314   3.595  0.9905  1.9909  1.6666
  857MOL0     O12993   2.151   7.535   0.354 -0.0802  0.1665  0.6300
  857MOL0     C12994   2.277   7.529   0.349  0.3277 -0.2603  0.4688
  857MOL0     O12995   2.355   7.629   0.306  0.0589 -0.5502 -0.0550
  857MOL0     C12996   2.312   7.735   0.227 -0.4379  0.2559  0.3011
  857MOL0     C12997   2.313   7.873   0.274  0.0165  0.4600  0.3014
  857MOL0     C12998   2.276   7.974   0.186  0.2177  0.5889  0.9089
  857MOL0     C12999   2.246   7.948   0.053 -0.1586 -0.1868 -0.1466
  857MOL0     O13000   2.178   8.055  -0.006 -0.2616 -0.9166  1.3613
  857MOL0     C13001   2.130   8.028  -0.142  0.7232  0.5681 -0.6220
  857MOL0     C13002   2.060   8.156  -0.190 -0.2950 -0.9685 -0.1462
  857MOL0     C13003   1.914   8.183  -0.135 -0.2709  0.2806  0.1141
  857MOL0     C13004   1.818   8.067  -0.148 -0.0816  0.9022 -0.6127
  857MOL0     C13005   1.674   8.115  -0.117 -0.2691  0.8451  0.4277
  857MOL0     C13006   1.651   8.155   0.028 -0.8345  0.0998  0.7407
  857MOL0     C13007   1.509   8.211   0.040 -0.3485  0.5283 -0.3878
  857MOL0     C13008   1.449   8.249   0.176  0.8953 -0.7963  0.1415
  857MOL0     N13009   1.428   8.159   0.281 -0.2225  0.0839 -0.6395
  857MOL0     C13010   1.450   8.022   0.289  0.2489 -1.2507 -0.1430
  857MOL0     C13011   1.413   7.980   0.411  0.2734 -0.5264  0.6518
  857MOL0     C13012   1.405   7.840   0.459  0.8802  0.2765 -0.3332
  857MOL0     C13013   1.258   7.793   0.452 -0.5089  0.2151  0.3048
  857MOL0     C13014   1.157   7.857   0.544  1.6161  0.2256 -0.9974
  857MOL0     C13015   1.171   7.832   0.696  0.8637  0.1634  1.0563
  857MOL0     O13016   1.049   7.867   0.761  0.2354  0.3807 -0.0581
  857MOL0     C13017   1.046   7.882   0.891 -0.3429  0.6903 -0.5169
  857MOL0     C13018   1.166   7.878   0.970  0.0120 -0.0669 -0.8628
  857MOL0     C13019   1.170   7.935   1.105 -0.5365  0.3482  0.5522
  857MOL0     C13020   1.053   7.981   1.167 -0.7781 -0.6672 -0.2305
  857MOL0     C13021   1.069   8.016   1.317  0.2575 -1.0888 -0.5248
  857MOL0     O13022   0.960   8.084   1.378  0.1219 -0.1922 -0.4011
  857MOL0     C13023   0.978   8.127   1.504  0.3028 -0.0309  0.9833
  857MOL0     C13024   0.974   8.037   1.613  0.5648  0.2386 -0.1867
  857MOL0     C13025   0.976   8.080   1.744  0.4247 -0.6369  0.0710
  857MOL0     C13026   0.980   8.225   1.764 -0.6172  1.1257 -0.2057
  857MOL0     O13027   0.984   8.274   1.896  1.1524  0.3386  0.2005
  857MOL0     C13028   1.043   8.199   1.998  0.1318  0.7357 -0.6473
  857MOL0     C13029   1.095   8.310   2.087 -0.2392  0.3652  0.7224
  857MOL0     C13030   1.182   8.263   2.203 -0.1819 -0.1976  0.8319
  857MOL0     C13031   1.303   8.197   2.165 -0.4728  0.0746 -0.5185
  857MOL0     C13032   1.430   8.256   2.226 -0.1079  0.3033  0.2017
  857MOL0     C13033   1.443   8.251   2.378 -0.1641 -0.3330  0.4542
  857MOL0     C13034   1.546   8.357   2.420  0.0830 -0.5424 -0.5377
  857MOL0     C13035   1.679   8.319   2.357 -0.0976 -0.7930  0.3861
  857MOL0    Cl13036   1.746   8.159   2.417  0.2726  0.0543  0.3416
  857MOL0     C13037   0.975   8.312   1.654 -0.1262 -0.8261  0.0839
  857MOL0     C13038   0.975   8.265   1.521 -0.1720 -0.2575  0.0289
  857MOL0     O13039   1.169   7.984   1.373  0.2747  0.6944 -0.4324
  857MOL0     C13040   0.937   7.986   1.090 -0.2799 -0.4578 -0.9122
  857MOL0     C13041   0.927   7.935   0.957  0.0352  0.1901 -0.5116
  857MOL0     N13042   1.366   8.091   0.468  0.1947 -0.0544  0.1281
  857MOL0     N13043   1.373   8.192   0.398  0.7132 -0.1094  0.1916
  857MOL0     C13044   2.270   7.817   0.003  0.9825  0.3796 -0.4194
  857MOL0     C13045   2.292   7.711   0.092 -0.3872 -0.3435 -0.2876
  857MOL0     C13046   2.325   7.422   0.430  0.5035 -0.2474  0.4108
  857MOL0     C13047   2.275   7.292   0.421 -0.0942 -0.2377 -0.4489
  857MOL0     C13048   2.328   7.195   0.499 -0.3423  0.5324  0.4487
  857MOL0     C13049   2.421   7.222   0.597 -0.4546  0.0028  0.6542
  857MOL0     O13050   2.489   7.128   0.675  0.2368  0.3219  0.3652
  857MOL0     C13051   2.448   6.988   0.690 -0.0005 -0.8477  0.8275
  857MOL0     C13052   2.502   6.905   0.571 -0.0332 -0.3353  0.2986
  857MOL0     C13053   2.502   6.750   0.593 -0.2352 -0.7215  0.1068
  857MOL0     C13054   2.641   6.679   0.561 -0.5168 -0.3132  0.6039
  857MOL0     C13055   2.755   6.763   0.612 -0.0860 -0.0198  0.6487
  857MOL0     C13056   2.859   6.830   0.638 -0.4092 -0.5326  0.0098
  857MOL0     C13057   2.472   7.347   0.597  0.4126  0.1499  0.8081
  857MOL0     C13058   2.423   7.452   0.524 -0.1946  0.2731 -0.0554
  857MOL0     H13059   2.344   7.902   0.374 -0.7041 -1.7088  1.2028
  857MOL0     H13060   2.253   8.080   0.188 -0.3496  0.6398 -2.4119
  857MOL0     H13061   2.062   7.943  -0.131  0.0741  1.2662  1.2572
  857MOL0     H13062   2.213   8.018  -0.212 -0.6291 -3.0991 -1.9530
  857MOL0     H13063   2.058   8.164  -0.299  1.7175  1.2363 -0.0771
  857MOL0     H13064   2.118   8.240  -0.153 -0.7276 -1.7328  2.4737
  857MOL0     H13065   1.873   8.276  -0.176 -5.4205 -0.1251  3.4019
  857MOL0     H13066   1.927   8.194  -0.027 -3.1056  1.5045  0.4027
  857MOL0     H13067   1.821   8.031  -0.251  0.1818  1.6866 -0.8845
  857MOL0     H13068   1.859   7.991  -0.081  0.9733  1.8554 -0.1353
  857MOL0     H13069   1.599   8.039  -0.140  1.8506 -1.8224  1.6989
  857MOL0     H13070   1.644   8.195  -0.184  1.6253  1.4725  0.2677
  857MOL0     H13071   1.716   8.238   0.060  0.2102  0.3738 -1.8028
  857MOL0     H13072   1.651   8.070   0.097  3.4254  0.5272  1.5331
  857MOL0     H13073   1.493   8.305  -0.015 -0.4373  0.8642  0.1970
  857MOL0     H13074   1.442   8.142  -0.012  0.5295  0.9934 -2.2220
  857MOL0     H13075   1.347   8.279   0.148  0.1568 -1.2076  2.1855
  857MOL0     H13076   1.511   8.333   0.210 -0.9335  0.5803  0.2650
  857MOL0     H13077   1.476   7.958   0.206  0.3336 -2.0600  0.4878
  857MOL0     H13078   1.435   7.845   0.564 -0.6208 -1.9599  0.2762
  857MOL0     H13079   1.478   7.781   0.404  2.7739 -0.0862  2.3766
  857MOL0     H13080   1.246   7.684   0.462 -2.6141  0.3788  0.1440
  857MOL0     H13081   1.233   7.822   0.350  0.3624  0.7824  0.2523
  857MOL0     H13082   1.160   7.966   0.543 -0.0285  0.3009 -0.7383
  857MOL0     H13083   1.053   7.838   0.513 -0.5167  4.9551  2.0414
  857MOL0     H13084   1.259   7.887   0.729  0.7438  0.4827  0.8558
  857MOL0     H13085   1.177   7.723   0.702 -0.9203 -0.3298 -2.9767
  857MOL0     H13086   1.257   7.846   0.921 -0.1823  2.4837 -3.1511
  857MOL0     H13087   1.266   7.941   1.155  0.6796 -2.4259 -1.2261
  857MOL0     H13088   0.960   7.931   1.592 -2.6695  0.4979  0.1900
  857MOL0     H13089   0.964   8.008   1.824  1.0010  0.3164  1.0431
  857MOL0     H13090   1.130   8.148   1.957 -0.4768 -0.8760 -0.0078
  857MOL0     H13091   0.963   8.130   2.027 -2.3501  2.5423 -2.7207
  857MOL0     H13092   1.001   8.354   2.122 -2.6774 -2.4190 -1.6827
  857MOL0     H13093   1.136   8.387   2.021 -0.2414 -0.6732 -0.5381
  857MOL0     H13094   1.122   8.187   2.254 -1.5571  0.0388 -0.3911
  857MOL0     H13095   1.204   8.347   2.271 -1.6952  0.5157  0.4745
  857MOL0     H13096   1.281   8.096   2.201  0.8532  0.1186  0.5023
  857MOL0     H13097   1.305   8.193   2.056 -0.1046  1.5176 -0.5861
  857MOL0     H13098   1.435   8.361   2.197  0.0705  0.8868  2.1995
  857MOL0     H13099   1.512   8.189   2.197 -0.1081 -1.2590  3.3549
  857MOL0     H13100   1.481   8.152   2.402  0.2415 -0.6739 -1.3966
  857MOL0     H13101   1.345   8.262   2.425 -0.3024  0.1927  0.0581
  857MOL0     H13102   1.514   8.456   2.388 -0.2287 -0.2030  0.7510
  857MOL0     H13103   1.560   8.354   2.529  1.1623  0.6588 -0.6298
  857MOL0     H13104   1.752   8.392   2.395 -2.5950  2.2386 -0.1709
  857MOL0     H13105   1.674   8.330   2.249 -1.1489  1.5041  0.6027
  857MOL0     H13106   0.989   8.420   1.656 -4.8609  0.0012  2.3811
  857MOL0     H13107   0.971   8.338   1.440 -0.2731  2.9839  2.7723
  857MOL0     H13108   0.853   8.032   1.140 -0.6060 -0.4370 -1.4710
  857MOL0     H13109   0.835   7.942   0.899 -1.6321  0.5251  2.0350
  857MOL0     H13110   2.258   7.792  -0.102 -1.7560  1.9686 -0.5688
  857MOL0     H13111   2.314   7.606   0.074  1.0823 -0.2449  0.7152
  857MOL0     H13112   2.194   7.258   0.356 -3.0223  2.1304  1.6697
  857MOL0     H13113   2.284   7.096   0.491  3.6963 -1.4702  0.4954
  857MOL0     H13114   2.340   6.973   0.683 -0.2984  1.6724 -1.6258
  857MOL0     H13115   2.493   6.958   0.786  0.7317 -1.2374  0.3721
  857MOL0     H13116   2.432   6.932   0.491  1.7145  3.7980 -0.1123
  857MOL0     H13117   2.593   6.950   0.530  0.0924  0.9146  1.8390
  857MOL0     H13118   2.424   6.703   0.532  1.3690 -3.1964 -0.2018
  857MOL0     H13119   2.472   6.713   0.692 -1.2098 -1.4374 -0.4376
  857MOL0     H13120   2.642   6.585   0.616 -0.4720 -1.9863 -2.0932
  857MOL0     H13121   2.664   6.661   0.455 -0.0771 -0.6428  0.7507
  857MOL0     H13122   2.934   6.895   0.677 -1.1055 -0.9666  2.1759
  857MOL0     H13123   2.558   7.373   0.657  1.2644 -0.1677 -0.2245
  857MOL0     H13124   2.465   7.550   0.539  0.4522  0.0227 -0.1966
  858MOL0     O13125  10.322   2.358   9.573 -0.8082 -0.7693 -0.0838
  858MOL0     C13126  10.282   2.334   9.461  0.1932  0.0045 -1.1065
  858MOL0     O13127  10.357   2.307   9.358 -0.8250  0.3720  0.1811
  858MOL0     C13128  10.488   2.300   9.369  0.6509 -0.1167  0.3874
  858MOL0     C13129  10.562   2.405   9.408  0.2232  0.6304  0.5306
  858MOL0     C13130  10.699   2.407   9.373 -0.5341  0.8050  0.9937
  858MOL0     C13131  10.763   2.299   9.320 -0.1644 -0.9279 -0.3197
  858MOL0     O13132  10.899   2.293   9.304 -0.1413  0.3519 -0.0611
  858MOL0     C13133  10.971   2.400   9.251 -0.2726 -0.6785 -0.4252
  858MOL0     C13134  11.108   2.338   9.209  0.8054 -0.0119 -0.5917
  858MOL0     C13135  11.200   2.284   9.322  0.6825  0.0115  0.2380
  858MOL0     C13136  11.310   2.198   9.256 -0.0509 -0.2812 -0.4713
  858MOL0     C13137  11.442   2.193   9.330 -0.6682 -0.4062  0.4407
  858MOL0     C13138  11.558   2.198   9.236 -0.8112  0.2867 -0.0031
  858MOL0     C13139  11.686   2.193   9.315  0.3956  0.1062  0.3899
  858MOL0     C13140  11.729   2.314   9.392  0.0863 -0.2763 -0.6500
  858MOL0     N13141  11.729   2.453   9.323 -0.3346 -0.0838  0.6172
  858MOL0     C13142  11.617   2.532   9.304 -0.2076 -0.0608  0.1734
  858MOL0     C13143  11.659   2.648   9.253  0.4409 -0.5014  0.6048
  858MOL0     C13144  11.560   2.757   9.223  0.3798 -0.0293  0.4050
  858MOL0     C13145  11.462   2.702   9.123  0.8511 -0.2259 -0.2879
  858MOL0     C13146  11.364   2.806   9.061 -0.1615  0.2281 -0.4420
  858MOL0     C13147  11.252   2.834   9.146 -0.0643  1.0805 -0.8163
  858MOL0     O13148  11.163   2.724   9.140 -0.5846 -0.2996  0.2077
  858MOL0     C13149  11.034   2.748   9.156  0.0190 -0.4680 -0.7062
  858MOL0     C13150  10.985   2.792   9.276  0.7489  0.9467 -0.3395
  858MOL0     C13151  10.852   2.817   9.287  0.0883 -0.4451 -0.2714
  858MOL0     C13152  10.768   2.800   9.178  0.2847  0.1500 -0.8223
  858MOL0     C13153  10.619   2.851   9.169  1.1686 -0.7164 -0.1510
  858MOL0     O13154  10.564   2.872   9.294 -0.6803  0.3704 -0.1294
  858MOL0     C13155  10.433   2.902   9.293 -0.5388  1.3017  0.0814
  858MOL0     C13156  10.387   3.029   9.245 -0.5232 -0.3229  0.0739
  858MOL0     C13157  10.249   3.050   9.248  0.8584  0.5894  0.3472
  858MOL0     C13158  10.156   2.951   9.286  0.5628 -0.0272  0.0006
  858MOL0     O13159  10.022   2.984   9.288 -0.8115 -0.4680  0.6516
  858MOL0     C13160   9.981   3.010   9.427 -0.0479 -0.3198  1.3142
  858MOL0     C13161  10.032   3.158   9.461  0.7738 -0.1742  0.1527
  858MOL0     C13162   9.943   3.211   9.577 -0.5871 -0.0700  0.1565
  858MOL0     C13163  10.003   3.348   9.606  0.1593 -0.1542  0.0611
  858MOL0     C13164   9.905   3.424   9.701  0.5948  1.1229  0.6535
  858MOL0     C13165   9.962   3.545   9.767  0.2185  0.8528  0.0746
  858MOL0     C13166  10.103   3.519   9.826  0.1687  0.9288 -0.6961
  858MOL0     C13167  10.112   3.605   9.950  0.1413 -0.4082 -0.0991
  858MOL0    Cl13168  10.151   3.763   9.900  0.4192  0.0775  0.1127
  858MOL0     C13169  10.205   2.829   9.322 -0.1054  1.0105  1.1226
  858MOL0     C13170  10.341   2.799   9.333 -0.2027 -1.0848 -0.0408
  858MOL0     O13171  10.568   2.873   9.058  0.2092 -0.2845 -0.5136
  858MOL0     C13172  10.824   2.765   9.052  0.0615  0.3786  0.4253
  858MOL0     C13173  10.957   2.735   9.038 -0.5500  0.5687 -0.6175
  858MOL0     N13174  11.795   2.642   9.233 -0.4267 -0.5758 -0.5350
  858MOL0     N13175  11.835   2.521   9.278 -0.5850  0.5513  0.7853
  858MOL0     C13176  10.688   2.184   9.290 -1.1491 -0.0236  1.0031
  858MOL0     C13177  10.553   2.191   9.311  0.1964  0.1091  0.4483
  858MOL0     C13178  10.128   2.315   9.458  0.2776 -0.2201  0.0072
  858MOL0     C13179  10.053   2.351   9.567  0.1950 -0.0670  0.1860
  858MOL0     C13180   9.911   2.341   9.556 -0.3569  0.0678  0.1719
  858MOL0     C13181   9.843   2.303   9.444  0.5051 -0.2811  0.1938
  858MOL0     O13182   9.704   2.295   9.429 -0.5385  0.0009 -0.2822
  858MOL0     C13183   9.613   2.265   9.531  0.6443 -1.2070  0.1051
  858MOL0     C13184   9.569   2.391   9.601  0.8019 -0.0496  1.3443
  858MOL0     C13185   9.444   2.343   9.686 -0.7743 -0.2355 -1.1263
  858MOL0     C13186   9.479   2.249   9.811  0.0028 -1.0262  0.3538
  858MOL0     C13187   9.358   2.178   9.844  0.4198  0.3277  0.0864
  858MOL0     C13188   9.254   2.131   9.882  0.3816  0.6726 -0.8352
  858MOL0     C13189   9.918   2.277   9.333  0.1520  0.3160  1.0319
  858MOL0     C13190  10.063   2.276   9.339  0.6729 -0.4000 -1.0624
  858MOL0     H13191  10.540   2.502   9.451 -3.0198  1.2557 -2.1088
  858MOL0     H13192  10.750   2.498   9.400  0.3059  1.2614 -1.7624
  858MOL0     H13193  10.989   2.475   9.329 -0.0251 -0.8824 -0.2811
  858MOL0     H13194  10.928   2.449   9.164 -0.3106  0.7099  0.3467
  858MOL0     H13195  11.172   2.408   9.156 -0.8773  1.9063 -0.2137
  858MOL0     H13196  11.090   2.255   9.140  5.0330 -0.6350 -1.2318
  858MOL0     H13197  11.152   2.209   9.386  0.4358 -1.5097 -1.6100
  858MOL0     H13198  11.247   2.371   9.368  1.0761  0.9066 -1.7451
  858MOL0     H13199  11.279   2.095   9.238  0.4611 -0.8387  1.5296
  858MOL0     H13200  11.331   2.250   9.162  0.3957 -1.1314 -0.8486
  858MOL0     H13201  11.439   2.099   9.385  1.0515  0.1798  1.6465
  858MOL0     H13202  11.441   2.265   9.413 -1.5750 -2.1113  1.9632
  858MOL0     H13203  11.555   2.288   9.173 -2.6712  0.1874 -0.1262
  858MOL0     H13204  11.559   2.119   9.161  1.2939 -0.7804  1.0672
  858MOL0     H13205  11.689   2.102   9.376 -0.9345  0.5521  1.1624
  858MOL0     H13206  11.760   2.167   9.239 -0.6379 -1.2891 -0.1808
  858MOL0     H13207  11.836   2.303   9.413  0.6223  0.9759 -2.4599
  858MOL0     H13208  11.666   2.335   9.479 -1.8319  0.2312 -2.0994
  858MOL0     H13209  11.519   2.502   9.338  0.1610 -0.8947  0.5422
  858MOL0     H13210  11.615   2.845   9.188 -0.8498 -0.2495 -2.3595
  858MOL0     H13211  11.508   2.794   9.312  1.8897  2.7148  0.2616
  858MOL0     H13212  11.414   2.616   9.171  0.5829 -0.3210 -0.7245
  858MOL0     H13213  11.508   2.650   9.038 -2.3217 -0.3935 -2.0401
  858MOL0     H13214  11.409   2.905   9.042  0.7195  0.4317  2.2831
  858MOL0     H13215  11.339   2.765   8.962 -2.3275  2.6397 -1.0025
  858MOL0     H13216  11.204   2.929   9.120  0.8755  1.4236 -1.3287
  858MOL0     H13217  11.287   2.850   9.248  1.8375 -0.3623 -1.1748
  858MOL0     H13218  11.057   2.815   9.353  2.5937  0.2421 -1.7554
  858MOL0     H13219  10.796   2.847   9.375 -1.1862 -1.9345 -0.5278
  858MOL0     H13220  10.444   3.115   9.208 -0.9672 -0.0542  0.0089
  858MOL0     H13221  10.217   3.144   9.206  1.3674  0.3883 -0.5132
  858MOL0     H13222  10.012   2.937   9.503 -1.3245 -1.2749  0.9603
  858MOL0     H13223   9.873   3.003   9.419  0.0913 -2.4251  0.5612
  858MOL0     H13224  10.010   3.221   9.374  1.0327 -0.5723 -0.2084
  858MOL0     H13225  10.138   3.163   9.487  0.0990  2.7849  2.9513
  858MOL0     H13226   9.944   3.136   9.656 -1.0221  0.7467  0.9609
  858MOL0     H13227   9.836   3.224   9.557 -0.2485  4.8280  0.3394
  858MOL0     H13228  10.102   3.335   9.650  1.4322  0.1124 -2.4989
  858MOL0     H13229  10.026   3.399   9.512  2.4395 -1.5370 -0.2058
  858MOL0     H13230   9.870   3.356   9.780 -1.0193 -1.3634 -2.0041
  858MOL0     H13231   9.814   3.443   9.644  0.4835 -1.3643 -0.1288
  858MOL0     H13232   9.891   3.587   9.839 -1.2144 -0.9217 -0.2227
  858MOL0     H13233   9.961   3.626   9.693 -1.7699  2.7594  2.0345
  858MOL0     H13234  10.122   3.414   9.851  0.7559  1.5869  1.8521
  858MOL0     H13235  10.181   3.544   9.753  0.4741 -0.1661 -0.7656
  858MOL0     H13236  10.186   3.563  10.019  3.1463  2.1502 -1.5181
  858MOL0     H13237  10.017   3.587  10.001 -0.3278 -0.5670 -1.0193
  858MOL0     H13238  10.129   2.757   9.352 -0.2109  1.9495  3.2919
  858MOL0     H13239  10.383   2.703   9.359  2.0459  0.1999  1.4931
  858MOL0     H13240  10.758   2.769   8.966 -3.2112  0.1457  2.7114
  858MOL0     H13241  10.992   2.697   8.942  0.0902 -3.9544  1.1420
  858MOL0     H13242  10.734   2.092   9.254  2.8556  3.0036 -2.6276
  858MOL0     H13243  10.493   2.103   9.289 -0.3903  0.3734  0.9258
  858MOL0     H13244  10.103   2.389   9.655  1.8167  4.0827 -2.2498
  858MOL0     H13245   9.859   2.376   9.645 -1.2732  1.9063 -1.0388
  858MOL0     H13246   9.664   2.204   9.606  4.1722 -0.6294 -1.6063
  858MOL0     H13247   9.527   2.207   9.494  0.0062 -0.6688  0.7106
  858MOL0     H13248   9.641   2.428   9.675  0.5096  3.0761  0.2297
  858MOL0     H13249   9.540   2.472   9.534 -1.8101 -1.7415  0.2475
  858MOL0     H13250   9.375   2.289   9.620  0.1927 -1.7880 -0.9407
  858MOL0     H13251   9.391   2.428   9.730 -1.9194  0.2104 -3.2461
  858MOL0     H13252   9.559   2.180   9.784  0.7268  0.7748 -2.5309
  858MOL0     H13253   9.505   2.312   9.896 -2.6118 -0.3746  0.7757
  858MOL0     H13254   9.162   2.089   9.916 -1.1608  0.9984 -4.1662
  858MOL0     H13255   9.870   2.256   9.238 -0.6258  3.5538  0.5712
  858MOL0     H13256  10.120   2.248   9.251  1.8620 -3.1276  0.4710
  859MOL0     O13257   5.154   3.103   8.176  0.2198 -0.1074 -0.5509
  859MOL0     C13258   5.084   3.056   8.259 -1.2641  0.1493 -0.1080
  859MOL0     O13259   4.987   3.116   8.333  0.0373  0.0737  0.6047
  859MOL0     C13260   4.959   3.234   8.285 -0.2476  0.6925  0.1974
  859MOL0     C13261   4.882   3.266   8.174 -0.1696  0.0177  0.4453
  859MOL0     C13262   4.842   3.390   8.141  0.0665 -0.1085 -0.0115
  859MOL0     C13263   4.882   3.499   8.220  0.6042  0.3621  0.7200
  859MOL0     O13264   4.836   3.630   8.212  0.0213 -0.8160 -0.1457
  859MOL0     C13265   4.714   3.666   8.150  0.5061  0.6134 -0.0898
  859MOL0     C13266   4.723   3.816   8.110  0.0370 -0.0174 -0.4759
  859MOL0     C13267   4.587   3.880   8.070 -0.0332  0.6926  0.2131
  859MOL0     C13268   4.597   4.037   8.043 -0.3103  0.2353  0.0700
  859MOL0     C13269   4.464   4.085   7.992 -0.9653  0.1867 -0.0272
  859MOL0     C13270   4.348   4.055   8.089  0.0706 -0.2349 -0.3422
  859MOL0     C13271   4.217   4.070   8.006 -0.2105  0.0864 -0.8379
  859MOL0     C13272   4.103   4.027   8.099 -0.1829  0.7053  0.4242
  859MOL0     N13273   3.967   4.042   8.053 -0.6000  0.2962  0.3755
  859MOL0     C13274   3.865   4.079   8.137  1.0233  0.5559  0.3155
  859MOL0     C13275   3.750   4.066   8.073  0.1755  0.4212  0.3632
  859MOL0     C13276   3.606   4.076   8.132 -0.5549 -0.6288 -0.1032
  859MOL0     C13277   3.578   4.193   8.226 -0.6762  0.1909  0.6496
  859MOL0     C13278   3.589   4.160   8.376 -0.2737 -0.0932  0.8377
  859MOL0     C13279   3.465   4.083   8.429 -0.4557 -0.3919 -0.2929
  859MOL0     O13280   3.448   4.057   8.575 -0.2124  0.4641  0.3442
  859MOL0     C13281   3.451   4.159   8.663  0.0696 -0.8827  0.0175
  859MOL0     C13282   3.514   4.131   8.780 -1.1211 -0.4801 -0.1091
  859MOL0     C13283   3.552   4.232   8.868  1.2617 -0.0517 -0.2011
  859MOL0     C13284   3.497   4.363   8.855  0.2891  1.3228 -0.4968
  859MOL0     C13285   3.539   4.466   8.949 -0.0575  0.6602  0.5470
  859MOL0     O13286   3.493   4.591   8.920 -0.4144 -0.2958 -0.5099
  859MOL0     C13287   3.512   4.697   9.002 -0.0008 -0.4883  0.3844
  859MOL0     C13288   3.640   4.724   9.055 -1.0542  0.2239  0.3018
  859MOL0     C13289   3.656   4.835   9.150 -0.1403  0.1531 -1.1620
  859MOL0     C13290   3.545   4.908   9.186  0.3363  0.5439  0.3125
  859MOL0     O13291   3.568   5.021   9.265  0.4156  0.0129 -0.0793
  859MOL0     C13292   3.473   5.124   9.265  0.4764 -0.8350 -0.0790
  859MOL0     C13293   3.508   5.243   9.360 -1.6144  1.2332  0.0179
  859MOL0     C13294   3.579   5.207   9.484  0.5472  0.9149 -0.2371
  859MOL0     C13295   3.606   5.339   9.548 -0.7316 -0.5138 -0.2233
  859MOL0     C13296   3.734   5.333   9.631  0.2953 -1.0448  0.1404
  859MOL0     C13297   3.752   5.463   9.710  0.4145 -0.7655  0.0123
  859MOL0     C13298   3.780   5.598   9.633  0.0623  0.2950 -0.7320
  859MOL0     C13299   3.819   5.721   9.730  1.1102  0.1010 -0.7578
  859MOL0    Cl13300   3.690   5.760   9.851 -0.4126  0.0619  0.0319
  859MOL0     C13301   3.419   4.875   9.128  0.0438  0.2640 -0.4353
  859MOL0     C13302   3.401   4.771   9.036 -0.4212 -0.3550  0.8409
  859MOL0     O13303   3.611   4.434   9.047  0.2688  0.6560 -0.7116
  859MOL0     C13304   3.436   4.391   8.733  0.2658  0.4114  0.1580
  859MOL0     C13305   3.409   4.290   8.641 -0.2577 -0.7848  1.0652
  859MOL0     N13306   3.786   4.000   7.954  0.4897  0.4094  0.0337
  859MOL0     N13307   3.914   3.986   7.946  0.0710  1.2617 -0.5503
  859MOL0     C13308   4.968   3.476   8.323 -0.2590  0.3196 -0.9719
  859MOL0     C13309   5.005   3.343   8.358  0.4741 -0.4090  0.2673
  859MOL0     C13310   5.105   2.910   8.286  0.4930  0.5815 -0.5111
  859MOL0     C13311   5.173   2.821   8.193 -0.1991  0.2570  0.1158
  859MOL0     C13312   5.208   2.687   8.224  0.2419 -0.1365  0.3959
  859MOL0     C13313   5.158   2.640   8.350 -0.3512 -0.3437  1.4084
  859MOL0     O13314   5.201   2.519   8.380  0.3970 -0.0135  0.5807
  859MOL0     C13315   5.154   2.453   8.501 -0.9231 -0.6613  0.3854
  859MOL0     C13316   5.164   2.307   8.498 -0.3097  0.2293  0.2842
  859MOL0     C13317   5.067   2.237   8.401 -0.1793 -0.3357  0.0504
  859MOL0     C13318   5.064   2.273   8.254  0.6240  0.7237 -0.4216
  859MOL0     C13319   4.992   2.172   8.181 -0.4568 -0.5277 -0.1091
  859MOL0     C13320   4.913   2.093   8.134  0.3492 -0.8374 -0.7247
  859MOL0     C13321   5.089   2.725   8.437 -0.0736 -0.2431  0.6664
  859MOL0     C13322   5.053   2.850   8.398 -0.2402 -0.1116  0.1423
  859MOL0     H13323   4.830   3.194   8.112  0.5842  1.6382 -2.2342
  859MOL0     H13324   4.760   3.398   8.071  0.0001  0.8031  0.1487
  859MOL0     H13325   4.639   3.656   8.230  1.9199  0.9077  1.3316
  859MOL0     H13326   4.694   3.606   8.061  0.8768  2.9762 -1.8410
  859MOL0     H13327   4.781   3.811   8.018 -0.2861 -1.0997 -0.6306
  859MOL0     H13328   4.775   3.878   8.185  2.1277 -1.1628 -0.9188
  859MOL0     H13329   4.528   3.858   8.159  0.2672  1.9998  0.7583
  859MOL0     H13330   4.535   3.833   7.986 -0.0349 -0.9168  1.0869
  859MOL0     H13331   4.623   4.074   8.143  1.3015 -1.4348  0.3283
  859MOL0     H13332   4.677   4.057   7.970 -0.6935 -2.0119 -1.0394
  859MOL0     H13333   4.450   4.033   7.897 -0.1518  0.5211 -0.3407
  859MOL0     H13334   4.462   4.189   7.956 -2.5009  0.0546 -0.4077
  859MOL0     H13335   4.339   4.125   8.174 -1.6585 -1.1143  0.2460
  859MOL0     H13336   4.342   3.954   8.129  0.1958  0.3636  1.2759
  859MOL0     H13337   4.190   4.175   7.995 -3.0365 -0.0014  3.3447
  859MOL0     H13338   4.204   4.005   7.919 -0.0288 -2.4314  0.9157
  859MOL0     H13339   4.123   4.090   8.186  1.8882 -0.4236  0.8387
  859MOL0     H13340   4.127   3.923   8.123 -0.9097  0.2394 -0.7801
  859MOL0     H13341   3.863   4.114   8.240  1.1944  2.3574 -0.2611
  859MOL0     H13342   3.590   3.980   8.183 -0.3891  0.3256  1.8414
  859MOL0     H13343   3.541   4.097   8.047  1.9769  0.5312 -1.8691
  859MOL0     H13344   3.486   4.246   8.200  0.3640 -0.0587 -4.7280
  859MOL0     H13345   3.657   4.260   8.193 -1.3815  1.4214  1.3884
  859MOL0     H13346   3.685   4.109   8.387  0.0148  0.1190 -0.4782
  859MOL0     H13347   3.611   4.252   8.430 -2.9196  1.9265 -1.2093
  859MOL0     H13348   3.477   3.984   8.384  0.3690  0.2095 -1.4503
  859MOL0     H13349   3.374   4.124   8.385  0.3632  0.5538 -1.1446
  859MOL0     H13350   3.558   4.033   8.797  0.8459  0.2810 -0.6036
  859MOL0     H13351   3.620   4.199   8.946  0.5713 -3.3699 -0.8437
  859MOL0     H13352   3.723   4.654   9.045 -0.3476  1.0576  0.2390
  859MOL0     H13353   3.751   4.851   9.200 -0.8296 -3.8768  1.9115
  859MOL0     H13354   3.378   5.081   9.299  0.1053 -1.7086 -2.0861
  859MOL0     H13355   3.453   5.154   9.162  0.7815 -3.5340 -0.9955
  859MOL0     H13356   3.422   5.307   9.384 -2.2481 -0.6136  3.0583
  859MOL0     H13357   3.577   5.307   9.304  0.3628  0.2433  1.2518
  859MOL0     H13358   3.672   5.161   9.449  1.1839 -0.7381  3.1744
  859MOL0     H13359   3.519   5.137   9.543 -2.4396  2.3828 -1.3749
  859MOL0     H13360   3.621   5.423   9.480  0.4892  0.3500  1.0696
  859MOL0     H13361   3.525   5.352   9.620  0.1724  1.7661  0.4510
  859MOL0     H13362   3.822   5.314   9.568 -1.7238 -1.3790 -2.7953
  859MOL0     H13363   3.729   5.253   9.706 -1.9180 -0.8641  0.2531
  859MOL0     H13364   3.834   5.445   9.781 -0.2851 -1.9710  0.5407
  859MOL0     H13365   3.660   5.472   9.768 -0.0940 -3.9966 -0.1259
  859MOL0     H13366   3.871   5.577   9.577  0.4887  0.2603 -0.0400
  859MOL0     H13367   3.702   5.632   9.564  2.8821  1.3734 -3.6249
  859MOL0     H13368   3.855   5.812   9.683  1.7435  0.4570  0.3756
  859MOL0     H13369   3.906   5.689   9.789  0.2098  1.0526  1.1664
  859MOL0     H13370   3.331   4.938   9.138 -0.1386  0.4673 -2.7752
  859MOL0     H13371   3.307   4.759   8.983 -0.2644  1.6991  0.0102
  859MOL0     H13372   3.416   4.495   8.709 -2.2285 -0.3952 -1.7223
  859MOL0     H13373   3.370   4.312   8.542 -1.1894 -3.0933  0.8683
  859MOL0     H13374   4.993   3.563   8.382  0.8525 -0.7164  0.1540
  859MOL0     H13375   5.055   3.327   8.453 -0.8049 -1.8139  0.7369
  859MOL0     H13376   5.214   2.863   8.102 -0.7206  0.3533 -0.0808
  859MOL0     H13377   5.267   2.623   8.159 -1.6112  0.7550 -2.3323
  859MOL0     H13378   5.051   2.482   8.524 -0.1484  0.7827  2.3507
  859MOL0     H13379   5.214   2.486   8.586 -1.5465  2.9496 -0.4379
  859MOL0     H13380   5.265   2.284   8.463 -1.0786 -1.0910 -1.1714
  859MOL0     H13381   5.146   2.274   8.601  2.3986 -0.2116  0.7094
  859MOL0     H13382   4.967   2.263   8.438 -0.4521 -1.9124  0.4947
  859MOL0     H13383   5.097   2.133   8.415  2.4546  0.3373 -0.1803
  859MOL0     H13384   5.006   2.365   8.236 -1.7120 -0.9903 -2.2602
  859MOL0     H13385   5.158   2.284   8.199  0.2344  0.0985 -1.2267
  859MOL0     H13386   4.836   2.019   8.120  2.4765 -4.0008  2.6160
  859MOL0     H13387   5.055   2.694   8.536 -0.5943  1.1133  0.9311
  859MOL0     H13388   5.007   2.916   8.471  2.6828  1.1584  0.9887
  860MOL0     O13389   6.193   9.186   6.333  0.4350 -0.2456  0.6869
  860MOL0     C13390   6.217   9.151   6.446 -0.0090 -0.3321  0.0817
  860MOL0     O13391   6.226   9.022   6.489  0.6831  0.0820  0.4039
  860MOL0     C13392   6.187   8.931   6.397 -0.4814  0.7893  0.0881
  860MOL0     C13393   6.282   8.863   6.311 -0.2813  0.6268  0.5290
  860MOL0     C13394   6.242   8.766   6.226 -0.1940  0.5443  0.1763
  860MOL0     C13395   6.111   8.718   6.210  0.0487  0.5470  1.2913
  860MOL0     O13396   6.083   8.624   6.115 -0.3567  0.2363 -0.4387
  860MOL0     C13397   5.987   8.531   6.162  0.1827  0.0283 -0.0818
  860MOL0     C13398   5.948   8.439   6.048 -0.5884 -0.3976  0.2924
  860MOL0     C13399   6.080   8.378   5.997  0.1021  0.5181 -0.3180
  860MOL0     C13400   6.053   8.235   5.931 -0.3382  0.4887 -0.8788
  860MOL0     C13401   6.168   8.191   5.865 -1.0182  0.6837  0.5906
  860MOL0     C13402   6.277   8.133   5.955  0.3856  0.3194  0.3536
  860MOL0     C13403   6.379   8.050   5.867 -0.4349 -0.0614  0.3465
  860MOL0     C13404   6.493   7.997   5.962 -1.0143 -0.3003  0.0019
  860MOL0     N13405   6.590   7.925   5.882 -0.4368 -0.3440  0.1032
  860MOL0     C13406   6.566   7.840   5.782  0.4404 -0.0332  0.5168
  860MOL0     C13407   6.684   7.825   5.722  0.2954 -0.0658 -1.0507
  860MOL0     C13408   6.733   7.739   5.606 -0.2295  0.0665  0.1622
  860MOL0     C13409   6.882   7.725   5.594  0.1020 -0.2922 -0.5931
  860MOL0     C13410   6.912   7.603   5.511  0.0208  0.0409 -0.1537
  860MOL0     C13411   7.058   7.558   5.509  0.2106  0.6456  0.4355
  860MOL0     O13412   7.076   7.459   5.401 -1.0869  0.0270 -1.0844
  860MOL0     C13413   7.200   7.399   5.386 -0.7346 -0.2713 -0.6291
  860MOL0     C13414   7.208   7.313   5.276 -0.5266 -0.7134 -0.1416
  860MOL0     C13415   7.328   7.235   5.250 -0.1771 -0.1482  0.5013
  860MOL0     C13416   7.437   7.250   5.336 -0.1546  0.4589 -0.5299
  860MOL0     C13417   7.551   7.159   5.326 -0.1483  0.3372  0.6461
  860MOL0     O13418   7.535   7.034   5.264  0.6006  0.7315  0.2467
  860MOL0     C13419   7.644   6.963   5.239 -0.7145  0.4884 -0.3429
  860MOL0     C13420   7.670   6.924   5.107 -0.2554  0.1433 -0.0978
  860MOL0     C13421   7.773   6.837   5.075  0.1011 -0.2964  0.4198
  860MOL0     C13422   7.853   6.787   5.174 -0.3042 -0.6229 -0.7063
  860MOL0     O13423   7.952   6.699   5.143  0.1291  0.4804 -0.2578
  860MOL0     C13424   8.074   6.753   5.090  0.3787  0.2884  0.0109
  860MOL0     C13425   8.170   6.624   5.060  0.5466  0.0598 -0.2512
  860MOL0     C13426   8.148   6.535   4.941  0.1251 -0.9113  0.6051
  860MOL0     C13427   8.123   6.608   4.812 -0.7781 -0.3371  0.6661
  860MOL0     C13428   8.119   6.503   4.701  0.2336  0.8237  0.1943
  860MOL0     C13429   8.111   6.571   4.558  0.0265 -1.0435  0.3002
  860MOL0     C13430   8.228   6.666   4.523 -0.1210 -0.1577 -1.3603
  860MOL0     C13431   8.238   6.697   4.370 -0.4226  0.8309 -0.2817
  860MOL0    Cl13432   8.364   6.819   4.335 -0.2462 -0.1945  0.0510
  860MOL0     C13433   7.835   6.823   5.305  0.0022  0.7048 -0.6238
  860MOL0     C13434   7.729   6.915   5.339  0.1567 -0.0388  0.4128
  860MOL0     O13435   7.658   7.205   5.371  0.4501  0.7833 -0.3893
  860MOL0     C13436   7.427   7.346   5.442  0.2905  0.2938  0.4146
  860MOL0     C13437   7.310   7.425   5.466  0.8206  0.1500  0.4733
  860MOL0     N13438   6.776   7.901   5.786  1.3714  0.4982 -0.5035
  860MOL0     N13439   6.725   7.958   5.887  0.2480 -0.1156  0.2270
  860MOL0     C13440   6.015   8.782   6.290 -0.4158  0.4716 -0.5317
  860MOL0     C13441   6.050   8.894   6.388 -0.7272  0.2345  1.1441
  860MOL0     C13442   6.277   9.252   6.539  0.6238 -0.0432  0.3408
  860MOL0     C13443   6.299   9.384   6.498 -0.1858 -0.2984 -0.7452
  860MOL0     C13444   6.353   9.483   6.578 -0.1084  0.1673 -1.0366
  860MOL0     C13445   6.394   9.447   6.709 -0.1199 -0.6154 -0.0688
  860MOL0     O13446   6.448   9.526   6.806  0.7542 -0.6922  0.7216
  860MOL0     C13447   6.485   9.661   6.766  0.1980 -0.5786 -0.2418
  860MOL0     C13448   6.589   9.714   6.860 -1.2219  0.6378 -0.0476
  860MOL0     C13449   6.631   9.860   6.833 -0.3647 -0.3151  0.2795
  860MOL0     C13450   6.715   9.873   6.708 -0.1755  0.4461 -0.2149
  860MOL0     C13451   6.738  10.017   6.690  0.0984 -0.0353  0.5941
  860MOL0     C13452   6.735  10.134   6.664 -0.5537 -0.3797  0.1688
  860MOL0     C13453   6.380   9.317   6.745 -0.3372  0.3333 -0.7093
  860MOL0     C13454   6.321   9.216   6.670 -0.0364 -0.6968  0.1555
  860MOL0     H13455   6.390   8.873   6.316  0.3123 -2.9723 -1.2366
  860MOL0     H13456   6.309   8.729   6.149 -0.9136  0.1346 -0.2603
  860MOL0     H13457   5.893   8.587   6.173 -0.2672  0.1217 -3.3693
  860MOL0     H13458   6.012   8.471   6.250  0.0011 -1.1860 -0.8319
  860MOL0     H13459   5.906   8.502   5.969 -0.5234 -2.3333 -1.3863
  860MOL0     H13460   5.878   8.367   6.092 -0.2038  0.4538  2.3905
  860MOL0     H13461   6.155   8.368   6.075  0.0210  1.3174 -0.1330
  860MOL0     H13462   6.117   8.443   5.917  2.2030  2.1543  1.8432
  860MOL0     H13463   6.005   8.154   5.985  2.1903 -0.3634  0.2725
  860MOL0     H13464   5.970   8.257   5.863 -0.0260  1.5400 -0.9412
  860MOL0     H13465   6.210   8.265   5.797 -1.4769  0.9830  0.6308
  860MOL0     H13466   6.134   8.112   5.798  2.0000  1.5899 -2.2253
  860MOL0     H13467   6.244   8.061   6.029 -1.4863 -3.2555 -3.5500
  860MOL0     H13468   6.333   8.216   5.999  0.6776  3.2854 -4.7946
  860MOL0     H13469   6.320   7.965   5.831  0.9866 -1.1559  0.5122
  860MOL0     H13470   6.419   8.100   5.779  1.4903  2.1070  2.3061
  860MOL0     H13471   6.442   7.938   6.038 -2.7437 -0.0966 -0.9356
  860MOL0     H13472   6.547   8.075   6.017  2.2894 -1.7400 -0.9421
  860MOL0     H13473   6.480   7.802   5.728  0.1787 -1.8645  2.1060
  860MOL0     H13474   6.696   7.779   5.511  1.8587  0.6386 -0.4708
  860MOL0     H13475   6.683   7.642   5.618 -0.2822  0.0385 -0.2594
  860MOL0     H13476   6.920   7.705   5.695 -1.2987 -0.1099 -0.0189
  860MOL0     H13477   6.934   7.811   5.551  0.3070  0.4787  1.1137
  860MOL0     H13478   6.852   7.522   5.554 -1.4050  0.5775 -1.0781
  860MOL0     H13479   6.872   7.606   5.410 -0.7059 -2.0369  0.0159
  860MOL0     H13480   7.097   7.516   5.602  1.4976 -1.4346 -0.9526
  860MOL0     H13481   7.119   7.644   5.478  1.5700 -1.1621 -2.3550
  860MOL0     H13482   7.123   7.291   5.212 -1.0274  1.0432 -0.1197
  860MOL0     H13483   7.330   7.154   5.177 -0.9197  0.7330 -0.5349
  860MOL0     H13484   7.618   6.956   5.017  2.6320 -3.4951 -3.4404
  860MOL0     H13485   7.795   6.818   4.971 -2.5492  2.8831 -0.8952
  860MOL0     H13486   8.115   6.825   5.161 -1.9679  2.2334 -0.4809
  860MOL0     H13487   8.041   6.800   4.998 -3.4773 -0.8072  0.6416
  860MOL0     H13488   8.153   6.554   5.142  1.4171  2.4875  2.1509
  860MOL0     H13489   8.271   6.667   5.062  1.1405 -1.2430 -1.1872
  860MOL0     H13490   8.059   6.478   4.969 -0.5146 -0.6638 -0.8349
  860MOL0     H13491   8.244   6.483   4.933  1.0049  0.7905 -0.2522
  860MOL0     H13492   8.028   6.663   4.810 -0.1206  0.7937 -0.0660
  860MOL0     H13493   8.208   6.675   4.798 -0.2075 -0.9639  1.0430
  860MOL0     H13494   8.038   6.430   4.703  0.3285  0.6910 -0.5381
  860MOL0     H13495   8.210   6.443   4.708 -0.9237 -1.0665 -0.2985
  860MOL0     H13496   8.018   6.628   4.557 -0.1929 -1.2851  2.6052
  860MOL0     H13497   8.102   6.496   4.479  3.5354  1.5140 -2.8879
  860MOL0     H13498   8.195   6.760   4.567 -1.7291 -1.8349  1.2986
  860MOL0     H13499   8.322   6.620   4.555  0.1613  1.6269  0.5390
  860MOL0     H13500   8.138   6.719   4.332 -0.2082  0.8534 -0.8397
  860MOL0     H13501   8.262   6.608   4.310  1.2246  2.7486 -2.6521
  860MOL0     H13502   7.892   6.775   5.385 -0.6821 -1.2408 -1.2300
  860MOL0     H13503   7.706   6.939   5.443 -3.0948  1.4537 -0.5216
  860MOL0     H13504   7.511   7.346   5.510  1.1313  1.8598 -0.5488
  860MOL0     H13505   7.306   7.487   5.555 -0.6212  1.8227 -0.6764
  860MOL0     H13506   5.914   8.742   6.297 -0.6046  1.0514  0.3477
  860MOL0     H13507   5.978   8.942   6.452 -0.9635 -0.4273  1.3865
  860MOL0     H13508   6.273   9.413   6.397 -0.0786  1.1641 -0.3711
  860MOL0     H13509   6.356   9.581   6.533 -0.1003  0.4626 -0.4046
  860MOL0     H13510   6.401   9.732   6.771  0.4739 -0.1116 -1.7182
  860MOL0     H13511   6.510   9.669   6.660 -0.0011  2.8598 -0.1578
  860MOL0     H13512   6.557   9.705   6.964 -2.5621 -1.3969 -0.5817
  860MOL0     H13513   6.677   9.651   6.844 -1.9299 -0.9452  1.9807
  860MOL0     H13514   6.675   9.895   6.927 -0.1253  1.4522 -0.4569
  860MOL0     H13515   6.543   9.923   6.817 -1.3461 -1.6617  0.1383
  860MOL0     H13516   6.807   9.816   6.724  0.0416  0.6149 -0.8388
  860MOL0     H13517   6.669   9.840   6.614  0.8916 -1.4788 -0.1029
  860MOL0     H13518   6.726  10.236   6.634 -0.5126 -1.0504 -2.3363
  860MOL0     H13519   6.403   9.287   6.847 -0.2701 -0.8680 -1.0665
  860MOL0     H13520   6.332   9.112   6.697  2.1951 -0.5639 -0.0620
  861MOL0     O13521   8.695   7.648   2.822  0.1943 -0.7431  0.6805
  861MOL0     C13522   8.620   7.598   2.738  0.8975 -0.1277 -0.9602
  861MOL0     O13523   8.512   7.521   2.764 -0.0463  0.3979 -0.3410
  861MOL0     C13524   8.474   7.495   2.893  0.3387 -0.4658 -0.7673
  861MOL0     C13525   8.530   7.389   2.961 -0.6104  0.2144 -0.9787
  861MOL0     C13526   8.470   7.356   3.081 -0.7584 -0.4582  0.1412
  861MOL0     C13527   8.368   7.435   3.140 -0.5233  0.4409  0.2982
  861MOL0     O13528   8.306   7.419   3.260  0.7537  0.5768 -0.3298
  861MOL0     C13529   8.372   7.361   3.370 -0.2290  0.2778  0.6306
  861MOL0     C13530   8.466   7.466   3.442 -0.2975  0.2568  0.5528
  861MOL0     C13531   8.395   7.578   3.519  0.0938 -0.0101 -0.0744
  861MOL0     C13532   8.352   7.525   3.654  0.2922  0.5810  0.1340
  861MOL0     C13533   8.253   7.626   3.728 -0.4579 -0.0009 -0.2184
  861MOL0     C13534   8.222   7.571   3.873  0.8311  0.8426 -0.9811
  861MOL0     C13535   8.153   7.686   3.944 -0.4974  0.7513 -1.0080
  861MOL0     C13536   8.085   7.621   4.065 -0.9713  1.1902 -0.6000
  861MOL0     N13537   8.173   7.557   4.171 -0.0812  1.0811  0.0562
  861MOL0     C13538   8.129   7.490   4.287 -0.3530 -0.5431  0.4828
  861MOL0     C13539   8.240   7.478   4.363 -0.1482 -0.9755  0.4010
  861MOL0     C13540   8.243   7.432   4.496  0.3375 -1.2970  0.1613
  861MOL0     C13541   8.142   7.502   4.583  0.1046  0.7620 -0.9955
  861MOL0     C13542   8.118   7.428   4.722 -0.7223  0.4668 -0.5460
  861MOL0     C13543   8.249   7.428   4.812 -0.4052  1.0027  0.9397
  861MOL0     O13544   8.268   7.336   4.915  0.1202 -0.0313  0.8111
  861MOL0     C13545   8.313   7.205   4.901  0.8403 -0.1531  0.6502
  861MOL0     C13546   8.313   7.133   4.773 -1.0173  0.1291 -0.1091
  861MOL0     C13547   8.354   7.002   4.761  0.2513 -0.1563  0.4316
  861MOL0     C13548   8.392   6.930   4.877  0.2620 -0.3665 -0.5071
  861MOL0     C13549   8.458   6.794   4.867 -0.2011 -0.4793 -0.2249
  861MOL0     O13550   8.486   6.737   4.993 -0.8273  0.4972 -0.0675
  861MOL0     C13551   8.572   6.629   5.005  0.0605  0.1112 -0.2404
  861MOL0     C13552   8.582   6.580   5.140 -0.7324  0.3707  0.0146
  861MOL0     C13553   8.664   6.467   5.175 -0.4942  0.1149  0.2433
  861MOL0     C13554   8.741   6.410   5.069 -0.9191  0.3179 -0.3502
  861MOL0     O13555   8.827   6.302   5.085  0.4509 -0.4485 -0.4600
  861MOL0     C13556   8.835   6.244   5.216  0.2376  1.0463  0.1582
  861MOL0     C13557   8.885   6.105   5.186  0.4303 -0.4812 -0.5216
  861MOL0     C13558   8.915   6.020   5.314  0.6917 -0.2116  0.1262
  861MOL0     C13559   8.987   6.094   5.429 -0.1015  0.3434 -0.0809
  861MOL0     C13560   9.009   5.995   5.546 -0.6565  0.8394  0.1046
  861MOL0     C13561   9.111   5.893   5.501 -0.6676  0.1219  0.1892
  861MOL0     C13562   9.179   5.802   5.601  0.9839 -0.4532  0.4095
  861MOL0     C13563   9.073   5.716   5.675 -0.2242 -0.4314  0.3231
  861MOL0    Cl13564   8.923   5.686   5.570  0.0239 -0.8632 -0.2752
  861MOL0     C13565   8.724   6.454   4.945 -0.3071  0.2765  0.6750
  861MOL0     C13566   8.640   6.561   4.900  0.1478  0.1361 -0.6121
  861MOL0     O13567   8.467   6.740   4.760 -0.1471  0.5060  0.2903
  861MOL0     C13568   8.375   6.992   5.005  0.5303  0.5546  0.2702
  861MOL0     C13569   8.329   7.124   5.017 -0.1588 -0.3064 -0.7961
  861MOL0     N13570   8.345   7.536   4.303 -0.0256 -1.0132  1.0765
  861MOL0     N13571   8.303   7.578   4.191  0.5965 -0.0043  0.7970
  861MOL0     C13572   8.321   7.537   3.070 -0.7749 -0.5626 -0.4755
  861MOL0     C13573   8.373   7.566   2.946  0.1822 -0.5283 -1.1154
  861MOL0     C13574   8.632   7.649   2.604 -0.4964 -0.3037  0.3234
  861MOL0     C13575   8.683   7.774   2.587 -0.7172  0.5010 -0.6529
  861MOL0     C13576   8.692   7.826   2.455 -0.6595 -0.9151 -0.0591
  861MOL0     C13577   8.659   7.752   2.345  1.0505  0.2113  0.8742
  861MOL0     O13578   8.662   7.819   2.221  0.1599 -0.1623 -0.4334
  861MOL0     C13579   8.585   7.780   2.103 -0.7475  0.4419  0.7546
  861MOL0     C13580   8.682   7.686   2.026 -0.7219 -0.2630 -0.9285
  861MOL0     C13581   8.646   7.663   1.884  0.0080  0.3285  1.2446
  861MOL0     C13582   8.750   7.564   1.830  0.9157  0.5885  0.5943
  861MOL0     C13583   8.746   7.526   1.693 -0.2824 -0.9801  0.4261
  861MOL0     C13584   8.719   7.495   1.578  0.5762 -0.2555 -0.8632
  861MOL0     C13585   8.618   7.620   2.363 -1.4591  0.4832 -0.4760
  861MOL0     C13586   8.604   7.572   2.495  0.6146  0.7071  0.3719
  861MOL0     H13587   8.611   7.325   2.926  1.6771  2.8496 -0.8064
  861MOL0     H13588   8.514   7.274   3.137 -1.0057 -1.3109 -0.8694
  861MOL0     H13589   8.430   7.273   3.343 -1.4087 -0.5024  0.5574
  861MOL0     H13590   8.289   7.322   3.430 -1.4820 -0.7510 -1.6413
  861MOL0     H13591   8.523   7.510   3.360  0.3383 -0.6335  0.5060
  861MOL0     H13592   8.538   7.418   3.509 -0.4208 -0.8045 -0.0647
  861MOL0     H13593   8.316   7.627   3.462  0.8965  0.7773 -0.5529
  861MOL0     H13594   8.470   7.656   3.537  0.4883  0.0030 -1.6271
  861MOL0     H13595   8.300   7.430   3.643  1.6816 -0.5338  2.3049
  861MOL0     H13596   8.435   7.504   3.723  0.5165  1.1074  0.0249
  861MOL0     H13597   8.160   7.629   3.670  0.5552  2.1071 -1.8599
  861MOL0     H13598   8.300   7.724   3.724  1.6705 -0.9791 -0.9418
  861MOL0     H13599   8.311   7.543   3.930  2.1121  0.6730 -2.9696
  861MOL0     H13600   8.162   7.483   3.852  0.7802  0.4526  0.6916
  861MOL0     H13601   8.215   7.767   3.982 -3.0229  2.0752  0.5231
  861MOL0     H13602   8.075   7.727   3.879  0.7303  1.0704 -2.3543
  861MOL0     H13603   8.027   7.540   4.020  3.1222 -1.0605 -2.3959
  861MOL0     H13604   8.019   7.698   4.107 -1.2846  0.0361  1.0666
  861MOL0     H13605   8.027   7.458   4.308 -0.8777  2.2570  2.7354
  861MOL0     H13606   8.346   7.450   4.530  0.0009 -0.2149  0.6694
  861MOL0     H13607   8.227   7.325   4.508 -1.0671 -1.4123 -2.1199
  861MOL0     H13608   8.044   7.488   4.537 -0.3909 -0.1300  0.2694
  861MOL0     H13609   8.157   7.607   4.611 -3.5767  0.8179  1.5441
  861MOL0     H13610   8.046   7.490   4.776 -1.6730  0.1090 -1.3712
  861MOL0     H13611   8.077   7.327   4.709  0.3357  0.1551 -1.5552
  861MOL0     H13612   8.259   7.528   4.854 -1.1463  1.8168 -0.7030
  861MOL0     H13613   8.336   7.415   4.747  0.1605 -0.6502  1.9741
  861MOL0     H13614   8.284   7.192   4.687 -3.3802 -0.6860  0.0440
  861MOL0     H13615   8.367   6.972   4.657  5.3130  1.8759  0.1919
  861MOL0     H13616   8.521   6.638   5.209 -1.9439  1.4474 -1.8406
  861MOL0     H13617   8.670   6.423   5.274  2.7173 -1.0613 -0.3517
  861MOL0     H13618   8.741   6.235   5.271 -0.2119 -2.2969 -0.9132
  861MOL0     H13619   8.915   6.300   5.265  1.3767  2.1882 -2.7563
  861MOL0     H13620   8.984   6.120   5.142  1.2297 -3.0734  0.2043
  861MOL0     H13621   8.823   6.048   5.117  2.4580 -2.1234 -1.1044
  861MOL0     H13622   8.974   5.931   5.290  2.1257 -0.1640  3.0997
  861MOL0     H13623   8.821   5.982   5.355  2.1176 -2.6443  1.3885
  861MOL0     H13624   9.085   6.132   5.400  0.7753 -0.9292  1.0787
  861MOL0     H13625   8.930   6.177   5.472  0.9392  0.4584  1.1227
  861MOL0     H13626   8.921   5.948   5.591  0.0176 -1.3907 -0.7391
  861MOL0     H13627   9.048   6.058   5.626  4.6018 -0.8226 -0.7210
  861MOL0     H13628   9.191   5.947   5.450 -0.2420  0.9271  1.6280
  861MOL0     H13629   9.071   5.825   5.425 -1.8738 -0.6753  1.4731
  861MOL0     H13630   9.243   5.733   5.545  0.3788  0.2150 -1.1690
  861MOL0     H13631   9.230   5.871   5.670 -2.3277 -0.3069  2.9386
  861MOL0     H13632   9.040   5.769   5.765 -0.4750  1.7386 -0.9760
  861MOL0     H13633   9.123   5.626   5.713 -2.7222 -1.5825  1.1729
  861MOL0     H13634   8.789   6.417   4.867 -1.8449 -1.5352  0.1584
  861MOL0     H13635   8.624   6.588   4.797 -1.7394 -3.7318 -1.5320
  861MOL0     H13636   8.414   6.939   5.091  1.9005  1.5889  0.3137
  861MOL0     H13637   8.317   7.157   5.120  1.7011 -0.5017 -0.4773
  861MOL0     H13638   8.237   7.591   3.115 -0.2478  1.7784 -2.1014
  861MOL0     H13639   8.335   7.655   2.898  1.3920  0.3901 -0.4193
  861MOL0     H13640   8.701   7.833   2.676 -0.1237 -1.2942  0.4690
  861MOL0     H13641   8.716   7.932   2.446 -3.2641 -0.1651  0.9140
  861MOL0     H13642   8.575   7.867   2.037  1.8116  0.0433 -0.2820
  861MOL0     H13643   8.484   7.743   2.120 -2.9113  2.7880 -4.6363
  861MOL0     H13644   8.782   7.728   2.035 -0.8920 -0.1968  1.3163
  861MOL0     H13645   8.693   7.589   2.075  2.9366  1.2691  1.7142
  861MOL0     H13646   8.630   7.741   1.810  2.1178 -1.4686 -1.2718
  861MOL0     H13647   8.557   7.599   1.889  1.0991 -1.2953  0.8634
  861MOL0     H13648   8.848   7.612   1.842  0.5920  0.9021  2.2818
  861MOL0     H13649   8.749   7.478   1.897 -1.1131 -0.0618 -0.1934
  861MOL0     H13650   8.699   7.473   1.475 -1.3243 -1.5648 -0.2657
  861MOL0     H13651   8.619   7.551   2.279  1.1733  2.7108 -2.4530
  861MOL0     H13652   8.562   7.472   2.501  0.2599  0.8910  0.9683
  862MOL0     O13653   8.436   0.271   2.870  0.1235  0.8376  0.0410
  862MOL0     C13654   8.555   0.286   2.888 -0.2379 -0.2613  0.1820
  862MOL0     O13655   8.647   0.207   2.823  0.3323  0.9491  0.4358
  862MOL0     C13656   8.634   0.071   2.797 -0.5354  0.5765 -1.1767
  862MOL0     C13657   8.752   0.013   2.738  0.9855  0.1020 -0.5040
  862MOL0     C13658   8.736  -0.121   2.691 -1.0009 -0.0636 -1.1314
  862MOL0     C13659   8.615  -0.193   2.704 -0.3200  0.1379 -0.7738
  862MOL0     O13660   8.623  -0.315   2.660  0.3072  0.2173  0.6872
  862MOL0     C13661   8.509  -0.397   2.673 -0.5188  0.4770  0.4134
  862MOL0     C13662   8.522  -0.532   2.599  0.2795 -0.6109  0.7724
  862MOL0     C13663   8.557  -0.509   2.450  0.1729  0.2423  0.0865
  862MOL0     C13664   8.450  -0.435   2.378 -0.4388  0.0463  0.3163
  862MOL0     C13665   8.443  -0.457   2.228  0.1062  0.3553 -0.0770
  862MOL0     C13666   8.559  -0.392   2.154 -0.4148  0.4602 -0.8510
  862MOL0     C13667   8.583  -0.249   2.182  1.1777 -0.9818 -0.7350
  862MOL0     C13668   8.457  -0.161   2.192  0.0654  0.0712 -0.5439
  862MOL0     N13669   8.487  -0.020   2.238 -0.5063 -0.1071 -0.7828
  862MOL0     C13670   8.543   0.010   2.359  0.6328 -0.5966 -0.2893
  862MOL0     C13671   8.558   0.143   2.351 -0.5576  0.1441  0.0640
  862MOL0     C13672   8.621   0.249   2.434  0.8793 -0.8508 -0.0586
  862MOL0     C13673   8.518   0.356   2.483 -0.1056  0.3199  0.0690
  862MOL0     C13674   8.595   0.478   2.551 -0.2511  0.1996  0.6119
  862MOL0     C13675   8.508   0.588   2.602  0.6850 -0.2697  0.0904
  862MOL0     O13676   8.584   0.655   2.701  0.0985 -0.3346 -0.0701
  862MOL0     C13677   8.559   0.784   2.730 -1.3831  0.1098  1.0310
  862MOL0     C13678   8.426   0.845   2.745  0.4867  0.1469 -0.8908
  862MOL0     C13679   8.407   0.964   2.805 -0.5021 -0.0978  0.7305
  862MOL0     C13680   8.517   1.048   2.836  0.4182 -1.0528 -0.2363
  862MOL0     C13681   8.493   1.181   2.904 -0.5323 -0.2749  0.9547
  862MOL0     O13682   8.370   1.220   2.937 -0.7192 -0.3544  0.1043
  862MOL0     C13683   8.347   1.340   2.974  0.7444 -0.3457  0.2559
  862MOL0     C13684   8.335   1.368   3.111  0.0491 -0.2399  0.0330
  862MOL0     C13685   8.315   1.496   3.156  0.5964  0.3742 -0.5888
  862MOL0     C13686   8.313   1.602   3.076  0.4161  0.6233  0.0955
  862MOL0     O13687   8.297   1.728   3.130 -0.1491 -0.1360 -0.1412
  862MOL0     C13688   8.327   1.839   3.047 -0.6355  0.1061 -0.4758
  862MOL0     C13689   8.314   1.969   3.127 -0.0814  1.1744  0.7093
  862MOL0     C13690   8.433   2.000   3.221  0.7847 -0.0953  0.1214
  862MOL0     C13691   8.401   2.114   3.316  0.4979  0.1600 -0.5509
  862MOL0     C13692   8.516   2.164   3.413 -0.1489 -0.9065 -0.5002
  862MOL0     C13693   8.464   2.250   3.537  0.1938 -0.4577 -0.3331
  862MOL0     C13694   8.410   2.394   3.499 -1.0408  0.5055 -0.6214
  862MOL0     C13695   8.403   2.490   3.611  1.6382 -0.6450 -0.3754
  862MOL0    Cl13696   8.305   2.631   3.567 -0.0313  0.0249  0.2819
  862MOL0     C13697   8.327   1.578   2.941  0.0644  0.6139  0.1409
  862MOL0     C13698   8.361   1.448   2.892 -0.3017 -0.0041  0.2883
  862MOL0     O13699   8.593   1.256   2.896 -0.5019  0.3925 -0.4095
  862MOL0     C13700   8.645   0.992   2.812 -0.0621 -0.1892  1.0110
  862MOL0     C13701   8.668   0.861   2.766  0.8905 -0.8940  0.1319
  862MOL0     N13702   8.533   0.181   2.222 -0.8383  0.0544 -0.2768
  862MOL0     N13703   8.478   0.092   2.158 -0.1480  0.9688 -0.7765
  862MOL0     C13704   8.499  -0.126   2.753  0.7141 -0.0156 -0.1893
  862MOL0     C13705   8.511   0.005   2.800 -0.9487  0.0779 -0.8478
  862MOL0     C13706   8.617   0.402   2.954  0.1528  0.3767 -0.0775
  862MOL0     C13707   8.752   0.436   2.933  0.2622  0.3080 -0.3884
  862MOL0     C13708   8.808   0.536   3.011 -0.5397  0.4212 -0.4405
  862MOL0     C13709   8.744   0.609   3.107  0.8703 -0.4207  0.6013
  862MOL0     O13710   8.821   0.697   3.174 -1.3548 -0.8744  0.8476
  862MOL0     C13711   8.749   0.799   3.243 -0.4980 -0.5140  0.0750
  862MOL0     C13712   8.662   0.890   3.155  0.1663 -0.2660  0.5476
  862MOL0     C13713   8.517   0.911   3.209 -0.6883  0.0335 -0.5270
  862MOL0     C13714   8.514   0.987   3.341 -0.7578  1.0928  1.3948
  862MOL0     C13715   8.574   1.130   3.303 -0.0133 -1.0746 -0.4787
  862MOL0     C13716   8.624   1.236   3.265 -0.0357 -0.2712  1.4082
  862MOL0     C13717   8.603   0.584   3.107 -0.4594 -0.0242 -0.9663
  862MOL0     C13718   8.539   0.478   3.048 -1.2535 -0.1936  0.3275
  862MOL0     H13719   8.841   0.074   2.737  1.2696 -0.1924  1.5986
  862MOL0     H13720   8.825  -0.172   2.657 -0.2003 -0.2209  1.0114
  862MOL0     H13721   8.432  -0.338   2.622 -0.1624 -0.2466 -0.9951
  862MOL0     H13722   8.490  -0.400   2.781  1.0954  4.6639  1.0165
  862MOL0     H13723   8.427  -0.587   2.593 -0.5220  0.8761 -3.9466
  862MOL0     H13724   8.598  -0.601   2.638  0.3812  1.1124  3.9678
  862MOL0     H13725   8.579  -0.607   2.407  1.2016  0.0011  1.1331
  862MOL0     H13726   8.654  -0.458   2.451 -0.5874  1.7863  2.4393
  862MOL0     H13727   8.349  -0.454   2.416 -1.3298  0.5685 -1.6560
  862MOL0     H13728   8.473  -0.332   2.406  3.5578 -0.8497  0.8981
  862MOL0     H13729   8.347  -0.414   2.197  1.0639  2.1976 -0.6107
  862MOL0     H13730   8.430  -0.565   2.213 -1.1955  0.4634  0.0976
  862MOL0     H13731   8.553  -0.413   2.047  0.4706 -0.2443 -0.7877
  862MOL0     H13732   8.649  -0.443   2.191  1.4116  3.1313 -1.2998
  862MOL0     H13733   8.627  -0.230   2.280 -3.0502 -2.9075  1.8641
  862MOL0     H13734   8.644  -0.220   2.096 -0.3221  0.1252 -1.4667
  862MOL0     H13735   8.397  -0.186   2.280  1.0736  0.1326  0.1805
  862MOL0     H13736   8.396  -0.171   2.101 -0.0036  1.0099 -0.6149
  862MOL0     H13737   8.571  -0.047   2.447 -4.5929 -2.8071  0.2885
  862MOL0     H13738   8.698   0.292   2.369 -0.3579  0.4078 -0.7446
  862MOL0     H13739   8.677   0.207   2.518  1.6566 -1.3049 -0.7891
  862MOL0     H13740   8.451   0.308   2.555  1.4119  1.1728  2.1767
  862MOL0     H13741   8.469   0.388   2.391 -1.9335 -1.1784  0.4709
  862MOL0     H13742   8.652   0.452   2.640  2.3739  1.0665 -0.7167
  862MOL0     H13743   8.660   0.523   2.475  0.8900 -0.2403  1.3119
  862MOL0     H13744   8.422   0.543   2.653 -1.3230  3.8454  0.7780
  862MOL0     H13745   8.480   0.649   2.515 -1.2851 -0.9104  0.2116
  862MOL0     H13746   8.337   0.784   2.739 -0.0335  0.8564 -0.5177
  862MOL0     H13747   8.305   0.994   2.829 -1.0758 -2.3151  1.2246
  862MOL0     H13748   8.337   1.293   3.189  0.4081 -1.3343 -0.9914
  862MOL0     H13749   8.319   1.507   3.264 -0.5770 -2.5399 -0.1605
  862MOL0     H13750   8.257   1.843   2.964 -0.8391  0.5476 -0.2848
  862MOL0     H13751   8.432   1.834   3.016 -1.2089  0.8748 -2.7409
  862MOL0     H13752   8.214   1.954   3.171 -0.6599 -0.7329 -1.0889
  862MOL0     H13753   8.296   2.054   3.061 -0.8639  2.0768  2.0372
  862MOL0     H13754   8.521   2.022   3.160  0.7955 -0.7135 -0.0893
  862MOL0     H13755   8.451   1.909   3.279  2.1538 -0.1862 -0.4033
  862MOL0     H13756   8.362   2.199   3.257  1.7663  1.4856  0.4544
  862MOL0     H13757   8.308   2.092   3.370  1.0270 -4.9251 -1.2770
  862MOL0     H13758   8.597   2.215   3.358 -0.4998 -0.9613 -1.0809
  862MOL0     H13759   8.553   2.070   3.453  0.2318 -1.3767 -1.8869
  862MOL0     H13760   8.546   2.271   3.607  0.4550  2.7294 -1.4507
  862MOL0     H13761   8.383   2.200   3.590 -1.4106  1.2492 -1.0893
  862MOL0     H13762   8.476   2.428   3.418  2.6340  1.8622  2.5875
  862MOL0     H13763   8.309   2.383   3.459 -0.1873 -0.7740 -2.5406
  862MOL0     H13764   8.502   2.507   3.656  0.4839 -1.8870  2.9030
  862MOL0     H13765   8.344   2.435   3.685 -0.5064 -0.2812 -1.7321
  862MOL0     H13766   8.326   1.657   2.867  0.1818  1.5882  1.1574
  862MOL0     H13767   8.380   1.416   2.791 -0.6168  0.1982  0.1635
  862MOL0     H13768   8.734   1.047   2.841 -0.3896 -0.2938  2.2926
  862MOL0     H13769   8.774   0.849   2.749  1.2884  0.3042  1.4653
  862MOL0     H13770   8.410  -0.187   2.751  1.1520 -0.6743 -0.1470
  862MOL0     H13771   8.419   0.040   2.846  0.1075 -1.4350  2.8047
  862MOL0     H13772   8.802   0.398   2.844  0.0574 -0.6914 -0.0901
  862MOL0     H13773   8.912   0.557   2.986 -0.0614 -1.2589  0.0440
  862MOL0     H13774   8.825   0.855   3.298  0.4681 -2.5738  0.9484
  862MOL0     H13775   8.698   0.754   3.328 -2.2923  0.1598 -0.5909
  862MOL0     H13776   8.711   0.988   3.150  1.1256 -0.7025  1.1273
  862MOL0     H13777   8.669   0.843   3.057 -0.7582 -1.8084  1.1730
  862MOL0     H13778   8.475   0.812   3.231  1.1185 -0.2496  2.2627
  862MOL0     H13779   8.452   0.960   3.136  1.6578  2.8969 -0.9076
  862MOL0     H13780   8.416   0.987   3.389 -0.3658 -1.1524  2.2932
  862MOL0     H13781   8.583   0.947   3.416  1.5086  0.2333 -0.9986
  862MOL0     H13782   8.667   1.330   3.237  0.9444 -1.6157 -1.9964
  862MOL0     H13783   8.555   0.640   3.186  1.1954 -1.0317  0.8484
  862MOL0     H13784   8.436   0.455   3.075 -1.1190  0.4010  1.3823
  863MOL0     O13785   8.234   1.458   5.309  0.5749 -0.1210  0.2947
  863MOL0     C13786   8.161   1.440   5.409 -0.4552  0.4589  0.5705
  863MOL0     O13787   8.172   1.503   5.526 -0.1363  0.1644 -0.8712
  863MOL0     C13788   8.285   1.575   5.555  0.1614 -0.3956  0.3824
  863MOL0     C13789   8.345   1.569   5.679 -0.4728  0.1015  0.0737
  863MOL0     C13790   8.445   1.658   5.717  0.1995  0.1494  0.7946
  863MOL0     C13791   8.477   1.767   5.629  1.0954 -0.0762 -0.3851
  863MOL0     O13792   8.575   1.843   5.679  0.1563 -0.0626  0.1146
  863MOL0     C13793   8.646   1.923   5.589 -0.5611  0.2296 -0.1858
  863MOL0     C13794   8.748   2.008   5.668  1.0912 -0.4894 -0.6073
  863MOL0     C13795   8.830   1.939   5.776 -0.2158  0.2562 -0.4097
  863MOL0     C13796   8.940   2.036   5.825  0.0024 -0.2878 -0.4696
  863MOL0     C13797   9.032   2.108   5.720 -0.0140  0.5319  0.0499
  863MOL0     C13798   9.124   2.221   5.773 -0.0925 -1.3036 -0.1932
  863MOL0     C13799   9.055   2.358   5.840  0.6599  0.6396  0.4145
  863MOL0     C13800   9.003   2.462   5.742  0.9797 -0.1508  0.3203
  863MOL0     N13801   8.909   2.557   5.805 -0.8693 -0.8921 -0.9146
  863MOL0     C13802   8.775   2.530   5.820  0.1977  0.2798 -1.1290
  863MOL0     C13803   8.740   2.632   5.906 -0.4412 -0.0518  0.0701
  863MOL0     C13804   8.587   2.652   5.925 -1.2835 -0.0555 -0.5667
  863MOL0     C13805   8.516   2.743   5.831  0.1142  0.0525  0.0941
  863MOL0     C13806   8.557   2.726   5.685  0.1346  0.0125  0.0813
  863MOL0     C13807   8.531   2.847   5.598 -1.0688  0.5444 -0.0219
  863MOL0     O13808   8.558   2.800   5.464  0.6424 -0.5125 -0.6617
  863MOL0     C13809   8.455   2.746   5.390 -0.3166  0.1848  0.1829
  863MOL0     C13810   8.322   2.739   5.431  0.3679  0.2029 -0.2891
  863MOL0     C13811   8.236   2.674   5.346  1.2990 -0.2505 -0.1858
  863MOL0     C13812   8.271   2.619   5.221  0.1926  0.0712 -1.0812
  863MOL0     C13813   8.165   2.552   5.134  0.5951  0.5150  0.2901
  863MOL0     O13814   8.223   2.472   5.049  0.3296  0.4308  0.2127
  863MOL0     C13815   8.149   2.396   4.956  0.0732  1.2650 -1.0732
  863MOL0     C13816   8.066   2.461   4.867 -0.1964 -0.6338 -0.1188
  863MOL0     C13817   8.008   2.391   4.752 -0.9799  0.6459 -0.3445
  863MOL0     C13818   8.026   2.256   4.745 -0.2609 -0.3460  0.7566
  863MOL0     O13819   7.974   2.209   4.620  0.6645  0.2990 -0.3436
  863MOL0     C13820   7.876   2.106   4.627  0.3817  0.1350 -1.0284
  863MOL0     C13821   7.824   2.074   4.489 -0.3374 -0.4470  0.2397
  863MOL0     C13822   7.924   1.975   4.415  0.2375  0.2468  0.6441
  863MOL0     C13823   7.853   1.951   4.274  0.8170  0.2781  0.4017
  863MOL0     C13824   7.936   1.899   4.162  0.3014 -0.1865  1.1225
  863MOL0     C13825   7.850   1.844   4.043  0.3064 -1.0566 -0.0669
  863MOL0     C13826   7.920   1.769   3.945 -0.1268  0.2674  0.3254
  863MOL0     C13827   7.832   1.696   3.841  0.4962  0.3075 -1.3216
  863MOL0    Cl13828   7.721   1.564   3.919 -0.1294 -0.1205  0.1217
  863MOL0     C13829   8.106   2.189   4.836 -0.0512  0.2443  0.4984
  863MOL0     C13830   8.159   2.262   4.941  0.8079  0.2462 -0.6905
  863MOL0     O13831   8.043   2.578   5.159 -0.3717 -0.4781 -0.4664
  863MOL0     C13832   8.409   2.622   5.191 -0.9792 -0.2510 -0.5566
  863MOL0     C13833   8.500   2.690   5.277 -0.2370 -0.4451  0.5499
  863MOL0     N13834   8.853   2.706   5.938  0.0677  0.5328  0.1571
  863MOL0     N13835   8.957   2.660   5.886  0.2315 -0.7729  0.4866
  863MOL0     C13836   8.417   1.776   5.496 -0.8936  0.4847  0.0201
  863MOL0     C13837   8.318   1.685   5.467 -0.5854  0.1745  0.2228
  863MOL0     C13838   8.029   1.379   5.390 -0.1862  0.7159 -0.3709
  863MOL0     C13839   7.917   1.395   5.480 -0.6556 -0.0721  0.4943
  863MOL0     C13840   7.797   1.317   5.473  0.4426 -1.3571 -0.1338
  863MOL0     C13841   7.778   1.240   5.355 -0.0478  0.2779 -0.6702
  863MOL0     O13842   7.672   1.165   5.332  0.2337  0.6214 -0.0612
  863MOL0     C13843   7.560   1.162   5.425 -0.2198 -0.0851  0.1898
  863MOL0     C13844   7.486   1.028   5.396 -0.1321 -0.2960  0.1233
  863MOL0     C13845   7.378   1.038   5.287  0.9609  0.3318 -0.9773
  863MOL0     C13846   7.383   0.919   5.198  0.4514 -0.4618 -0.4487
  863MOL0     C13847   7.260   0.910   5.121  0.7916 -0.5811 -0.1258
  863MOL0     C13848   7.151   0.902   5.064  0.2943 -0.7654  0.4432
  863MOL0     C13849   7.882   1.235   5.262 -0.0945 -0.0599  0.1780
  863MOL0     C13850   8.007   1.296   5.293 -0.2449 -0.2448  0.0881
  863MOL0     H13851   8.310   1.496   5.750 -1.5770  1.3621  0.8573
  863MOL0     H13852   8.489   1.655   5.816  2.6769  3.2739 -0.0403
  863MOL0     H13853   8.591   1.998   5.531 -1.4231 -0.3991 -0.2098
  863MOL0     H13854   8.699   1.849   5.529  0.9852 -0.8676  2.3578
  863MOL0     H13855   8.698   2.092   5.718 -1.5365 -0.9064 -2.3300
  863MOL0     H13856   8.808   2.056   5.590 -0.0335  1.0749 -0.5641
  863MOL0     H13857   8.877   1.846   5.744  0.6967  0.1015  1.2935
  863MOL0     H13858   8.755   1.907   5.850 -0.6025  0.7894 -0.5600
  863MOL0     H13859   8.889   2.119   5.874  0.9692 -0.3148  0.6189
  863MOL0     H13860   8.998   1.987   5.904  1.1935  3.9096  1.5070
  863MOL0     H13861   8.970   2.152   5.641 -1.3810 -1.7401 -0.2370
  863MOL0     H13862   9.093   2.025   5.681  1.4644  1.6941 -0.1848
  863MOL0     H13863   9.188   2.245   5.687  0.8962  0.6548  1.0022
  863MOL0     H13864   9.191   2.176   5.847  0.0268 -0.0343  0.5042
  863MOL0     H13865   8.969   2.322   5.897 -0.2741  1.1733 -0.5994
  863MOL0     H13866   9.118   2.404   5.916  3.1590 -2.5260  0.4465
  863MOL0     H13867   8.945   2.416   5.661 -1.3745  2.9220  0.0819
  863MOL0     H13868   9.091   2.502   5.690  2.1469 -2.0165  0.7705
  863MOL0     H13869   8.708   2.470   5.760 -0.8902  0.3055  0.0179
  863MOL0     H13870   8.574   2.690   6.027 -0.2554 -0.5529 -0.2325
  863MOL0     H13871   8.537   2.555   5.922  0.9968 -1.4990  2.5676
  863MOL0     H13872   8.525   2.847   5.863 -0.3929  0.1908 -0.1949
  863MOL0     H13873   8.411   2.709   5.830  0.7684 -2.1320 -0.2942
  863MOL0     H13874   8.664   2.706   5.673  0.0981 -0.1341 -0.0129
  863MOL0     H13875   8.498   2.645   5.639 -1.3809  0.3720  1.2963
  863MOL0     H13876   8.604   2.923   5.629 -0.0435  0.8831 -3.0014
  863MOL0     H13877   8.430   2.887   5.611 -1.0657  1.1218 -1.5480
  863MOL0     H13878   8.287   2.793   5.518 -0.0419  2.1650 -1.6025
  863MOL0     H13879   8.129   2.675   5.364  1.5017 -1.1783  1.2491
  863MOL0     H13880   8.049   2.566   4.888 -2.8016 -0.9738 -0.2516
  863MOL0     H13881   7.948   2.437   4.675  0.6006  0.3802 -1.8017
  863MOL0     H13882   7.797   2.136   4.695 -0.8223 -1.3127 -1.7404
  863MOL0     H13883   7.909   2.014   4.675 -0.0703 -0.1303 -1.2188
  863MOL0     H13884   7.815   2.173   4.445 -0.3536  0.2682  1.7877
  863MOL0     H13885   7.719   2.045   4.498 -0.8897  1.5820  0.8080
  863MOL0     H13886   7.943   1.886   4.476 -2.7968 -0.2538  1.0368
  863MOL0     H13887   8.018   2.030   4.406  1.5630 -2.0352 -0.1430
  863MOL0     H13888   7.770   1.881   4.281  0.4602  0.6928  0.4004
  863MOL0     H13889   7.803   2.041   4.236  0.5198 -1.2585 -3.2558
  863MOL0     H13890   7.993   1.816   4.204  2.6388  0.9019  0.2595
  863MOL0     H13891   7.998   1.981   4.126  1.2992 -1.2010  0.4735
  863MOL0     H13892   7.794   1.924   3.993 -0.0314 -0.0957  1.7566
  863MOL0     H13893   7.787   1.764   4.084  0.8632 -2.9477 -2.6799
  863MOL0     H13894   7.988   1.844   3.904 -1.1734  1.4326  0.6440
  863MOL0     H13895   7.978   1.691   3.996 -0.2962 -0.9817 -1.3323
  863MOL0     H13896   7.887   1.650   3.759 -2.0026 -0.4403 -2.6831
  863MOL0     H13897   7.769   1.776   3.803 -2.5870  0.6690  3.5903
  863MOL0     H13898   8.129   2.084   4.823 -0.9723 -0.1948  2.1377
  863MOL0     H13899   8.234   2.220   5.007  0.3408 -0.3356 -0.5134
  863MOL0     H13900   8.439   2.583   5.094 -1.9450  0.2339 -1.0719
  863MOL0     H13901   8.606   2.694   5.254 -0.6053 -3.5492 -2.5995
  863MOL0     H13902   8.445   1.845   5.417  1.0148 -3.0986 -2.7632
  863MOL0     H13903   8.266   1.691   5.372  1.9051  0.6842 -1.1947
  863MOL0     H13904   7.946   1.451   5.569 -0.1063  0.7621 -0.2009
  863MOL0     H13905   7.715   1.323   5.544  1.1954  0.6587  0.6337
  863MOL0     H13906   7.501   1.254   5.417 -1.0559 -0.5647  0.7572
  863MOL0     H13907   7.579   1.144   5.531 -2.0730 -0.0811  0.5516
  863MOL0     H13908   7.558   0.951   5.367  1.4591  1.5823 -1.2166
  863MOL0     H13909   7.445   0.986   5.488 -0.2809 -0.3771  0.0207
  863MOL0     H13910   7.398   1.130   5.231  1.7636  0.8548  0.1404
  863MOL0     H13911   7.279   1.043   5.332  1.7892 -3.3904  1.7073
  863MOL0     H13912   7.471   0.926   5.132  4.1171  0.2616  4.0386
  863MOL0     H13913   7.391   0.834   5.266 -0.9587 -1.1584 -1.1102
  863MOL0     H13914   7.053   0.911   5.021  0.5134 -2.6216 -0.5473
  863MOL0     H13915   7.878   1.171   5.174 -1.3040  3.4357 -2.5392
  863MOL0     H13916   8.086   1.267   5.225  0.6458  0.8953  0.5974
  864MOL0     O13917   3.438   8.833   6.551 -0.2558 -0.4894 -0.0877
  864MOL0     C13918   3.550   8.877   6.568  0.2561 -0.8789 -0.3843
  864MOL0     O13919   3.661   8.816   6.544 -0.0246 -0.2643 -0.6487
  864MOL0     C13920   3.646   8.706   6.458  0.5401 -1.1100  0.3644
  864MOL0     C13921   3.706   8.584   6.496  0.0959  0.7371  0.3160
  864MOL0     C13922   3.724   8.485   6.406  0.2448  0.2462  0.3988
  864MOL0     C13923   3.668   8.488   6.281 -0.5356  0.3351 -0.4100
  864MOL0     O13924   3.673   8.380   6.197 -0.2612  0.2632  0.1858
  864MOL0     C13925   3.715   8.402   6.062 -0.7005 -0.4693  0.1157
  864MOL0     C13926   3.752   8.265   6.001  0.1945 -0.2483 -0.7961
  864MOL0     C13927   3.890   8.260   5.945 -0.3138 -0.1434  1.3233
  864MOL0     C13928   3.907   8.347   5.809  0.3270 -0.1707  0.2696
  864MOL0     C13929   4.034   8.317   5.737 -1.4092 -1.2610 -0.2048
  864MOL0     C13930   4.155   8.360   5.820  0.0246  0.2315 -0.2785
  864MOL0     C13931   4.291   8.346   5.740  0.0889  0.9207 -0.4371
  864MOL0     C13932   4.415   8.338   5.841 -0.4720  0.1645 -0.0322
  864MOL0     N13933   4.552   8.328   5.771 -0.2112 -0.2695  0.7452
  864MOL0     C13934   4.660   8.326   5.860 -0.0011  1.4294  0.1907
  864MOL0     C13935   4.761   8.391   5.808 -0.1121  0.6223  0.4241
  864MOL0     C13936   4.898   8.423   5.860 -0.2258  0.5069 -0.4621
  864MOL0     C13937   4.917   8.493   6.001  0.0578 -0.2925 -0.7004
  864MOL0     C13938   4.800   8.582   6.045  1.1951 -0.8253 -1.0656
  864MOL0     C13939   4.821   8.635   6.178  0.3643  0.4228  0.1438
  864MOL0     O13940   4.920   8.740   6.172  0.7801  0.0281  0.6962
  864MOL0     C13941   4.990   8.752   6.283 -0.6088 -0.6190 -0.5748
  864MOL0     C13942   5.121   8.706   6.311  0.3041 -0.8519  1.1496
  864MOL0     C13943   5.187   8.726   6.428 -0.4574  0.2134 -0.2915
  864MOL0     C13944   5.132   8.800   6.534  0.2769 -0.1526  0.3590
  864MOL0     C13945   5.178   8.820   6.669  0.4393 -0.0030  0.1852
  864MOL0     O13946   5.244   8.714   6.724  0.6635 -0.2965  0.0471
  864MOL0     C13947   5.303   8.713   6.847 -0.1642  0.5049  0.2880
  864MOL0     C13948   5.443   8.722   6.860 -0.0911 -0.0173  0.9196
  864MOL0     C13949   5.496   8.739   6.990 -0.3171  0.7572  1.1617
  864MOL0     C13950   5.426   8.736   7.107  0.8137  1.2745  0.7954
  864MOL0     O13951   5.490   8.772   7.222  0.3022  0.6478 -0.0505
  864MOL0     C13952   5.435   8.749   7.350 -0.2664  0.9924  0.0454
  864MOL0     C13953   5.372   8.875   7.403 -0.5189 -0.5102  0.3254
  864MOL0     C13954   5.349   8.860   7.553 -0.6136  0.4779  0.6666
  864MOL0     C13955   5.318   8.999   7.615  0.7715  0.2217 -0.0259
  864MOL0     C13956   5.302   9.002   7.765  1.0302  0.3453  0.7043
  864MOL0     C13957   5.180   8.922   7.811  0.7584  0.9480  0.3114
  864MOL0     C13958   5.143   8.923   7.958 -0.3416 -0.3093  0.0862
  864MOL0     C13959   5.018   8.851   7.995 -0.7923  0.0660  0.3575
  864MOL0    Cl13960   5.001   8.854   8.170 -0.1295 -0.2414 -0.5539
  864MOL0     C13961   5.279   8.718   7.088 -1.1829  0.6950  0.6947
  864MOL0     C13962   5.225   8.696   6.963  0.8252  0.8302 -0.7934
  864MOL0     O13963   5.151   8.921   6.730  0.0404  0.2585 -0.0426
  864MOL0     C13964   5.004   8.862   6.500 -0.6374  0.5957 -0.5158
  864MOL0     C13965   4.934   8.828   6.382 -0.6227  0.9407 -0.8645
  864MOL0     N13966   4.716   8.441   5.693  0.5360  0.8958 -0.1661
  864MOL0     N13967   4.595   8.415   5.684 -0.0236 -0.1137  0.4013
  864MOL0     C13968   3.605   8.602   6.247 -0.2107  0.2152 -0.0820
  864MOL0     C13969   3.603   8.716   6.328  0.0876  0.2690 -0.0350
  864MOL0     C13970   3.557   9.016   6.627 -0.0079 -0.0515 -0.3520
  864MOL0     C13971   3.443   9.088   6.641  0.3231  0.2278 -0.0963
  864MOL0     C13972   3.451   9.227   6.669 -0.1011  0.5095 -0.5816
  864MOL0     C13973   3.573   9.291   6.690 -0.1302  0.1422 -0.8194
  864MOL0     O13974   3.580   9.425   6.714 -0.1314 -0.2598  0.4074
  864MOL0     C13975   3.466   9.503   6.715  0.3209  0.0905 -0.5763
  864MOL0     C13976   3.489   9.634   6.786  0.5039  0.2972 -0.1715
  864MOL0     C13977   3.545   9.742   6.706 -0.2060  0.9573  0.3061
  864MOL0     C13978   3.584   9.867   6.790 -0.2425  0.3993 -0.2601
  864MOL0     C13979   3.605   9.979   6.699  0.1232 -0.2662  0.3265
  864MOL0     C13980   3.624  10.085   6.645 -0.0839  0.1226  0.2259
  864MOL0     C13981   3.687   9.210   6.691 -0.0074 -0.0847 -1.3230
  864MOL0     C13982   3.681   9.073   6.654  0.3307  0.2623  0.1286
  864MOL0     H13983   3.759   8.566   6.589 -1.5846 -0.0944  1.1593
  864MOL0     H13984   3.772   8.390   6.427  0.1188 -0.2257 -1.3248
  864MOL0     H13985   3.796   8.476   6.066  1.3566 -2.6100  0.4445
  864MOL0     H13986   3.631   8.442   6.004  0.3641  1.2362 -0.3469
  864MOL0     H13987   3.676   8.237   5.928  0.2076 -0.7979 -0.6040
  864MOL0     H13988   3.755   8.193   6.083  1.8813 -0.1469 -0.7234
  864MOL0     H13989   3.903   8.155   5.918  2.2619  0.1451  1.1923
  864MOL0     H13990   3.967   8.290   6.017  0.3677 -0.9586  0.9445
  864MOL0     H13991   3.829   8.320   5.737  0.0277  3.1595 -0.8244
  864MOL0     H13992   3.891   8.452   5.836 -1.4266 -0.8226  1.9613
  864MOL0     H13993   4.027   8.373   5.643 -0.3231  0.0435  0.4647
  864MOL0     H13994   4.045   8.211   5.714  2.8739 -1.4506  1.8767
  864MOL0     H13995   4.155   8.288   5.903 -2.7683 -0.9572 -1.1846
  864MOL0     H13996   4.148   8.461   5.861 -3.2768 -0.7274  1.8874
  864MOL0     H13997   4.284   8.253   5.683 -1.0086  1.6405 -1.5223
  864MOL0     H13998   4.312   8.427   5.669 -0.0004 -1.7291 -3.6869
  864MOL0     H13999   4.399   8.252   5.906  1.5535 -1.3055 -1.3629
  864MOL0     H14000   4.422   8.431   5.898 -0.0641 -0.7457  1.4591
  864MOL0     H14001   4.658   8.273   5.955  2.0326  0.9686  0.0127
  864MOL0     H14002   4.953   8.483   5.786 -1.5700 -1.1335 -2.9609
  864MOL0     H14003   4.947   8.325   5.865 -2.0358 -0.3842  0.5799
  864MOL0     H14004   5.012   8.547   5.994  0.5761 -1.3009 -2.0514
  864MOL0     H14005   4.935   8.412   6.073  2.0865  0.3620 -0.3937
  864MOL0     H14006   4.776   8.663   5.975 -3.8384  0.4325  1.5984
  864MOL0     H14007   4.713   8.515   6.051  3.1531 -3.3881  0.5655
  864MOL0     H14008   4.858   8.560   6.248  3.0276  2.6214  1.3145
  864MOL0     H14009   4.722   8.663   6.215 -1.4145 -2.7866 -1.7867
  864MOL0     H14010   5.153   8.641   6.230 -0.6405  0.0009  0.0556
  864MOL0     H14011   5.283   8.677   6.440 -0.8078 -0.2031  0.9232
  864MOL0     H14012   5.492   8.732   6.763 -1.9361  6.6097  0.2000
  864MOL0     H14013   5.597   8.775   7.008 -0.3915  0.0521  3.3852
  864MOL0     H14014   5.519   8.719   7.414  2.0217  0.8696 -2.8042
  864MOL0     H14015   5.347   8.685   7.342 -1.7660  2.4581  3.0596
  864MOL0     H14016   5.283   8.909   7.350  0.1957 -0.4321 -0.8501
  864MOL0     H14017   5.437   8.957   7.374  2.8875 -3.7960 -2.2454
  864MOL0     H14018   5.439   8.828   7.607 -1.1136  1.1331  1.9176
  864MOL0     H14019   5.274   8.781   7.563  1.4188 -1.9124 -1.4892
  864MOL0     H14020   5.396   9.069   7.583  0.0366  0.4597 -1.3685
  864MOL0     H14021   5.223   9.040   7.580  0.6704  0.6435  0.7119
  864MOL0     H14022   5.277   9.102   7.802 -0.1670  0.2487  0.2121
  864MOL0     H14023   5.390   8.959   7.813  0.2841  0.1762  1.9621
  864MOL0     H14024   5.198   8.820   7.776  0.6752  0.5867  1.2678
  864MOL0     H14025   5.091   8.957   7.757  0.7940  0.4200 -0.0967
  864MOL0     H14026   5.230   8.883   8.010  0.8770 -0.0364 -1.6609
  864MOL0     H14027   5.128   9.028   7.986  0.7212  0.3501 -1.6807
  864MOL0     H14028   5.013   8.750   7.955  0.1269  0.0658  0.2329
  864MOL0     H14029   4.945   8.906   7.936 -0.8761  1.2934  1.5440
  864MOL0     H14030   5.213   8.721   7.174 -0.1681 -1.9610  1.6862
  864MOL0     H14031   5.118   8.687   6.946  0.7135  2.5217 -1.1882
  864MOL0     H14032   4.955   8.930   6.569 -1.1285 -1.7505  1.5966
  864MOL0     H14033   4.837   8.877   6.380 -0.5576  1.0313 -2.2489
  864MOL0     H14034   3.547   8.594   6.156 -2.5193 -0.4865  1.3675
  864MOL0     H14035   3.564   8.811   6.292  0.9945  0.2589 -1.1027
  864MOL0     H14036   3.351   9.034   6.623  0.7926 -0.0701 -1.7661
  864MOL0     H14037   3.353   9.273   6.675 -0.8312 -1.1099  3.5284
  864MOL0     H14038   3.398   9.452   6.783 -0.0408  1.4857  0.1527
  864MOL0     H14039   3.413   9.519   6.621 -4.6276  0.8110  2.0015
  864MOL0     H14040   3.390   9.671   6.813  0.2152  0.2148 -1.0668
  864MOL0     H14041   3.548   9.620   6.877  0.0227  1.8762  0.4129
  864MOL0     H14042   3.469   9.769   6.633 -0.5316 -3.1997 -1.1939
  864MOL0     H14043   3.640   9.718   6.656  1.1813  1.5326  2.5074
  864MOL0     H14044   3.499   9.883   6.856 -0.8905 -1.4610 -0.5722
  864MOL0     H14045   3.680   9.841   6.835  1.2005 -0.9121 -3.7435
  864MOL0     H14046   3.602  10.180   6.601  2.2542  0.4470 -0.3691
  864MOL0     H14047   3.793   9.231   6.701 -0.5108  1.8825  0.9516
  864MOL0     H14048   3.773   9.018   6.641 -0.1618 -0.6768  0.4949
  865MOL0     O14049   6.962   5.905  11.098 -0.2340  0.6062  0.7773
  865MOL0     C14050   6.929   6.016  11.132 -0.3460 -0.2836 -0.5503
  865MOL0     O14051   6.998   6.104  11.207  0.1895  0.2183  0.8108
  865MOL0     C14052   7.123   6.089  11.258 -0.0172 -0.5655 -0.0949
  865MOL0     C14053   7.207   6.201  11.256  0.4105 -0.9238  0.1736
  865MOL0     C14054   7.335   6.205  11.314  0.1839 -0.3536 -0.3186
  865MOL0     C14055   7.374   6.087  11.371  0.4692 -0.6496 -0.6026
  865MOL0     O14056   7.482   6.103  11.455  0.2757 -0.1135  0.3329
  865MOL0     C14057   7.514   6.030  11.577 -0.2706 -0.0663  0.1405
  865MOL0     C14058   7.593   5.909  11.514 -0.2355 -0.1608 -0.6789
  865MOL0     C14059   7.642   5.806  11.617  0.1382 -0.3689 -0.2274
  865MOL0     C14060   7.521   5.740  11.668  0.8608 -0.8827  0.2566
  865MOL0     C14061   7.537   5.617  11.760 -0.5999 -0.7173 -0.2350
  865MOL0     C14062   7.639   5.655  11.881 -0.9154 -0.7843  0.2575
  865MOL0     C14063   7.667   5.528  11.965  0.5718  0.4682 -0.3088
  865MOL0     C14064   7.543   5.475  12.030 -0.5500 -0.6673 -0.9227
  865MOL0     N14065   7.582   5.367  12.124 -0.0498  1.1522  0.1515
  865MOL0     C14066   7.642   5.252  12.081  0.0551 -0.4782 -0.2376
  865MOL0     C14067   7.644   5.173  12.188  0.4229 -0.3629 -0.4735
  865MOL0     C14068   7.705   5.039  12.204  0.8684  0.9870  0.5138
  865MOL0     C14069   7.859   5.033  12.210 -0.2146 -0.9345  0.1315
  865MOL0     C14070   7.898   5.066  12.361  0.2865  0.5421  0.4114
  865MOL0     C14071   8.049   5.032  12.392  0.2413  0.3221 -1.1394
  865MOL0     O14072   8.077   4.899  12.370 -0.4472  0.6589  0.6125
  865MOL0     C14073   8.193   4.842  12.422 -0.3254 -0.0149 -1.1893
  865MOL0     C14074   8.305   4.916  12.468  1.6809 -0.1103 -0.6736
  865MOL0     C14075   8.417   4.853  12.511 -0.3108  0.8474 -0.1965
  865MOL0     C14076   8.427   4.707  12.515  0.6514 -0.0120  0.4318
  865MOL0     C14077   8.549   4.638  12.543 -0.3870 -0.4263 -0.5523
  865MOL0     O14078   8.658   4.722  12.554  0.3904 -0.5990 -0.0489
  865MOL0     C14079   8.771   4.676  12.604 -0.6444 -0.3371 -1.5737
  865MOL0     C14080   8.889   4.691  12.540 -0.2618 -0.0373  0.9704
  865MOL0     C14081   9.015   4.637  12.580  0.2280  0.4831 -0.0480
  865MOL0     C14082   9.027   4.579  12.699  0.2091  0.4220 -0.6697
  865MOL0     O14083   9.138   4.511  12.750 -0.0266  0.2044  0.2904
  865MOL0     C14084   9.237   4.462  12.665 -0.2984  0.2791  1.1400
  865MOL0     C14085   9.359   4.549  12.661 -0.9035  0.1077 -0.0396
  865MOL0     C14086   9.463   4.512  12.556  0.1498 -0.9439  0.1144
  865MOL0     C14087   9.531   4.376  12.571 -0.3487  1.4119 -0.2564
  865MOL0     C14088   9.575   4.352  12.722 -0.8600  0.1243 -0.0543
  865MOL0     C14089   9.678   4.235  12.727  0.0869 -0.0719  0.0956
  865MOL0     C14090   9.719   4.204  12.869  0.6494 -0.0427 -0.7115
  865MOL0     C14091   9.802   4.069  12.874 -0.2522 -1.2527  1.0626
  865MOL0    Cl14092   9.975   4.102  12.851 -0.3298  0.3482  0.1698
  865MOL0     C14093   8.907   4.567  12.776  0.2627  0.2905 -0.8595
  865MOL0     C14094   8.781   4.618  12.735 -0.7726  1.0461  1.0161
  865MOL0     O14095   8.541   4.517  12.561 -0.3132 -0.8472  0.1008
  865MOL0     C14096   8.310   4.640  12.481  0.4329 -0.1984 -0.1364
  865MOL0     C14097   8.195   4.701  12.436 -0.2555  0.1379  1.2258
  865MOL0     N14098   7.584   5.234  12.296  0.8223  0.3970  0.9534
  865MOL0     N14099   7.546   5.354  12.254 -0.2591  0.5194 -0.5724
  865MOL0     C14100   7.298   5.971  11.372  0.3640  0.7133 -0.4837
  865MOL0     C14101   7.170   5.969  11.315 -1.0891 -0.0568  0.6381
  865MOL0     C14102   6.816   6.076  11.062  0.6666 -0.8872 -0.0033
  865MOL0     C14103   6.800   6.214  11.039  0.0658 -0.6847  0.4480
  865MOL0     C14104   6.692   6.263  10.968  0.1401  0.2759 -0.2250
  865MOL0     C14105   6.616   6.174  10.901 -0.4529 -0.0956  0.9340
  865MOL0     O14106   6.516   6.222  10.831  0.0138 -0.4259  0.3430
  865MOL0     C14107   6.566   6.277  10.705 -0.5548  0.5997 -1.1691
  865MOL0     C14108   6.478   6.263  10.585  0.4246  0.0621 -0.2995
  865MOL0     C14109   6.462   6.114  10.534 -0.9909  0.1782  0.8808
  865MOL0     C14110   6.590   6.038  10.489 -0.6097 -0.0221 -0.7371
  865MOL0     C14111   6.654   6.109  10.376  0.9933  0.4281  0.0306
  865MOL0     C14112   6.702   6.165  10.281  0.1020  0.0855  0.0484
  865MOL0     C14113   6.626   6.036  10.924  0.4597  0.2965 -0.3807
  865MOL0     C14114   6.725   5.978  11.005 -0.3545 -0.7016 -0.1395
  865MOL0     H14115   7.165   6.288  11.207 -1.4185  0.1743  3.3654
  865MOL0     H14116   7.393   6.297  11.311  0.3739 -0.1334  3.9858
  865MOL0     H14117   7.421   6.004  11.630 -0.8630  0.0087 -0.8231
  865MOL0     H14118   7.577   6.092  11.641 -0.1285  2.0037 -1.8836
  865MOL0     H14119   7.685   5.946  11.469 -0.8552  1.1167 -0.9316
  865MOL0     H14120   7.540   5.857  11.433 -2.4529  1.1956 -0.1861
  865MOL0     H14121   7.685   5.855  11.704 -1.2674 -1.7830  1.3387
  865MOL0     H14122   7.719   5.739  11.577  0.3651  0.7332 -1.6949
  865MOL0     H14123   7.456   5.810  11.720  0.6544 -2.2599  1.9334
  865MOL0     H14124   7.469   5.691  11.585  0.4550 -1.4702  0.8486
  865MOL0     H14125   7.583   5.530  11.713  1.3248 -0.2019  0.5957
  865MOL0     H14126   7.435   5.593  11.791  0.0668  0.6941  3.5115
  865MOL0     H14127   7.619   5.744  11.941  2.5373  1.8287 -2.0388
  865MOL0     H14128   7.736   5.672  11.833 -1.3132  0.5210 -0.1191
  865MOL0     H14129   7.710   5.443  11.911 -0.5954 -0.1072 -0.3487
  865MOL0     H14130   7.733   5.555  12.048  0.3118 -2.5241  0.9976
  865MOL0     H14131   7.470   5.445  11.954 -3.1227  3.3288 -0.3200
  865MOL0     H14132   7.502   5.553  12.095 -0.3188  0.1713 -1.7591
  865MOL0     H14133   7.688   5.230  11.985 -1.0893 -2.7392 -0.3514
  865MOL0     H14134   7.681   4.984  12.112 -0.3225  0.2208  1.2479
  865MOL0     H14135   7.652   4.981  12.281 -1.4721  0.8526 -1.0973
  865MOL0     H14136   7.905   5.113  12.151  0.8306 -0.0367  2.0662
  865MOL0     H14137   7.890   4.937  12.169 -1.1038 -0.4874 -1.7213
  865MOL0     H14138   7.858   5.167  12.371 -4.7464 -1.1691  0.1911
  865MOL0     H14139   7.837   5.009  12.432  1.7861 -0.3213  1.0677
  865MOL0     H14140   8.065   5.063  12.495  2.6206 -0.4954 -1.1995
  865MOL0     H14141   8.116   5.095  12.333 -1.0211  1.9792 -0.8800
  865MOL0     H14142   8.306   5.025  12.464 -1.5646  0.0018 -1.3977
  865MOL0     H14143   8.499   4.923  12.523 -0.1547  0.7562 -0.6997
  865MOL0     H14144   8.885   4.739  12.443  0.8511  0.3452  1.0983
  865MOL0     H14145   9.095   4.660  12.511 -0.5997  0.6293 -0.9783
  865MOL0     H14146   9.211   4.462  12.559  1.8165 -0.4558  0.5733
  865MOL0     H14147   9.256   4.356  12.683  2.1652 -0.2780 -3.1459
  865MOL0     H14148   9.409   4.548  12.759  1.3298  1.9599 -1.0716
  865MOL0     H14149   9.323   4.647  12.630 -3.1383 -0.2993  1.0613
  865MOL0     H14150   9.536   4.593  12.560 -1.8946  0.9805  1.3698
  865MOL0     H14151   9.408   4.520  12.461  0.4920  2.8315  0.0712
  865MOL0     H14152   9.467   4.295  12.535 -1.3986  2.9250 -1.9468
  865MOL0     H14153   9.622   4.375  12.510  1.1777 -4.0554  1.4685
  865MOL0     H14154   9.490   4.341  12.790  2.3800 -1.0310  4.2482
  865MOL0     H14155   9.623   4.443  12.759 -1.8741  1.2170 -1.2850
  865MOL0     H14156   9.765   4.269  12.670 -0.8806  0.1054 -1.3337
  865MOL0     H14157   9.646   4.140  12.684 -3.0516  0.5604  0.7645
  865MOL0     H14158   9.783   4.287  12.899  2.3382 -0.4428 -2.8990
  865MOL0     H14159   9.635   4.195  12.939  0.2240 -0.3573 -1.2500
  865MOL0     H14160   9.773   4.004  12.791 -0.6025 -0.5101  0.5925
  865MOL0     H14161   9.798   4.022  12.973  1.9058  1.2094  2.4315
  865MOL0     H14162   8.925   4.513  12.869  0.9843  0.2962 -0.9853
  865MOL0     H14163   8.696   4.614  12.802 -1.7055  2.3406 -0.0426
  865MOL0     H14164   8.304   4.532  12.464  0.3369 -0.4226  1.2081
  865MOL0     H14165   8.111   4.652  12.388  0.7664  1.3280 -2.0733
  865MOL0     H14166   7.337   5.890  11.432 -0.1504  0.0543 -1.0226
  865MOL0     H14167   7.110   5.879  11.326  0.6250 -1.1684  1.1778
  865MOL0     H14168   6.867   6.286  11.084 -0.4009  0.8518 -1.1972
  865MOL0     H14169   6.673   6.369  10.960  1.9621  0.6155 -0.3773
  865MOL0     H14170   6.666   6.243  10.677 -1.1259 -0.6602 -1.7320
  865MOL0     H14171   6.579   6.383  10.729 -2.3664  0.2525  1.9263
  865MOL0     H14172   6.377   6.294  10.616  0.0139 -1.9050  0.4696
  865MOL0     H14173   6.507   6.330  10.503  1.9937 -1.0844 -0.7071
  865MOL0     H14174   6.414   6.112  10.436  2.5564  0.2822 -1.0413
  865MOL0     H14175   6.403   6.047  10.596 -1.8531  0.6813  0.6195
  865MOL0     H14176   6.645   6.017  10.581 -2.6216 -0.5126  0.4233
  865MOL0     H14177   6.555   5.941  10.454  1.9782 -0.8510 -1.1637
  865MOL0     H14178   6.753   6.212  10.199 -0.1425 -4.0927 -2.8232
  865MOL0     H14179   6.550   5.977  10.876  0.2653  1.7410 -1.9476
  865MOL0     H14180   6.749   5.876  11.032 -0.0345  0.1033  3.0487
  866MOL0     O14181  10.862   7.209  11.374  0.2822 -0.3883  0.1605
  866MOL0     C14182  10.760   7.209  11.444  0.2821  0.4558  0.1024
  866MOL0     O14183  10.727   7.303  11.546 -0.1717 -0.1397 -0.0088
  866MOL0     C14184  10.799   7.413  11.533  0.1695 -0.3644 -0.5334
  866MOL0     C14185  10.896   7.439  11.628  2.0387  0.2362  0.4072
  866MOL0     C14186  10.960   7.565  11.625 -0.5484  0.2676  0.8577
  866MOL0     C14187  10.935   7.663  11.532 -0.5252 -0.4454  0.0626
  866MOL0     O14188  11.007   7.781  11.545 -0.7156  1.4137 -0.7391
  866MOL0     C14189  10.989   7.896  11.457 -0.0647 -0.8426  1.0572
  866MOL0     C14190  10.886   7.999  11.530 -0.3095 -0.1478  0.5481
  866MOL0     C14191  10.934   8.024  11.674  0.1490 -1.3629  0.2923
  866MOL0     C14192  10.881   8.156  11.740  0.7880  0.1290  0.5624
  866MOL0     C14193  10.732   8.138  11.776 -1.0849 -0.0396 -0.4053
  866MOL0     C14194  10.684   8.244  11.867 -0.5337 -0.0573 -0.1269
  866MOL0     C14195  10.533   8.270  11.871 -1.0892 -0.0974  0.0259
  866MOL0     C14196  10.450   8.144  11.868 -0.1089 -0.6924 -0.7422
  866MOL0     N14197  10.309   8.171  11.902  0.3759 -0.4865 -0.1949
  866MOL0     C14198  10.249   8.139  12.017  0.4508  0.1524  0.4732
  866MOL0     C14199  10.115   8.154  11.982 -0.5956 -0.0090 -0.2173
  866MOL0     C14200  10.006   8.149  12.085  1.1545  0.3203 -0.6094
  866MOL0     C14201   9.905   8.031  12.072  0.0742  1.0173 -0.0407
  866MOL0     C14202   9.815   8.037  11.950  0.0576 -0.1615 -0.2982
  866MOL0     C14203   9.727   7.922  11.933  0.3177 -0.4880  0.3227
  866MOL0     O14204   9.601   7.939  12.006  0.4107  0.2491 -0.0834
  866MOL0     C14205   9.496   7.858  11.973 -1.1311 -0.9784 -0.2916
  866MOL0     C14206   9.385   7.922  11.927  1.0659 -0.2814  0.1501
  866MOL0     C14207   9.261   7.862  11.914  0.6000 -0.1217  0.0277
  866MOL0     C14208   9.246   7.722  11.944 -0.1714 -0.1892  0.5948
  866MOL0     C14209   9.121   7.654  11.908  0.9678  0.7918 -0.0582
  866MOL0     O14210   9.014   7.738  11.901  0.0714 -0.0021 -0.3675
  866MOL0     C14211   8.881   7.704  11.879  0.6841  0.5669 -0.4611
  866MOL0     C14212   8.814   7.581  11.916  0.0627 -0.6314  0.0572
  866MOL0     C14213   8.678   7.561  11.879 -0.8810 -0.4075  0.6662
  866MOL0     C14214   8.607   7.658  11.809 -0.9247 -1.3429 -0.2782
  866MOL0     O14215   8.482   7.636  11.757 -0.0907  0.5720  0.2884
  866MOL0     C14216   8.473   7.542  11.644 -0.1112  0.2076 -0.2299
  866MOL0     C14217   8.448   7.394  11.670 -0.6646 -0.0208  0.4365
  866MOL0     C14218   8.462   7.331  11.535  0.8029  0.4483  1.0570
  866MOL0     C14219   8.415   7.182  11.521  0.1050  0.2587 -0.0892
  866MOL0     C14220   8.496   7.111  11.421 -0.1999 -0.3874 -0.1775
  866MOL0     C14221   8.499   7.164  11.274  0.4296 -0.2050 -0.1357
  866MOL0     C14222   8.368   7.133  11.203 -0.0795  0.3420  0.5006
  866MOL0     C14223   8.379   7.156  11.050  0.1309  0.1487 -0.8290
  866MOL0    Cl14224   8.435   7.313  10.996 -0.4135  0.4930 -0.2477
  866MOL0     C14225   8.657   7.787  11.801 -0.7240  0.4592 -0.0140
  866MOL0     C14226   8.796   7.805  11.837 -0.4048 -1.0259  0.7400
  866MOL0     O14227   9.123   7.529  11.889  0.0412 -0.1820  0.3719
  866MOL0     C14228   9.356   7.654  12.003  0.0091 -0.3080  0.0997
  866MOL0     C14229   9.476   7.728  12.024 -0.1254 -0.4060  0.1781
  866MOL0     N14230  10.104   8.180  11.844 -0.6092  0.9532  0.3445
  866MOL0     N14231  10.221   8.193  11.793  0.5958 -0.8128 -0.8953
  866MOL0     C14232  10.831   7.629  11.447  0.1649  0.2280 -0.2444
  866MOL0     C14233  10.764   7.510  11.442 -0.0178 -0.2873 -0.7638
  866MOL0     C14234  10.660   7.113  11.420  0.3436  0.2101  0.2805
  866MOL0     C14235  10.524   7.150  11.435  0.1512 -0.3616  0.3620
  866MOL0     C14236  10.417   7.058  11.413 -0.3440  0.4283  0.2389
  866MOL0     C14237  10.443   6.931  11.366 -0.5487 -0.2823 -0.4118
  866MOL0     O14238  10.349   6.836  11.337 -0.0285  0.1220  0.1914
  866MOL0     C14239  10.204   6.848  11.367 -0.0042  0.3881  0.8326
  866MOL0     C14240  10.183   6.786  11.511  0.3971 -0.0304  1.0027
  866MOL0     C14241  10.265   6.852  11.621  0.9012 -0.2087 -0.2212
  866MOL0     C14242  10.245   6.785  11.759  0.0697  0.3060  0.2688
  866MOL0     C14243  10.318   6.854  11.870  0.4396  0.2474  0.2123
  866MOL0     C14244  10.386   6.903  11.961 -0.2175  0.7604 -0.2129
  866MOL0     C14245  10.577   6.885  11.359  0.5112  0.2680 -0.3798
  866MOL0     C14246  10.686   6.979  11.383  0.0800 -0.5274 -0.0487
  866MOL0     H14247  10.935   7.357  11.688 -0.4145  0.8004  2.9931
  866MOL0     H14248  11.050   7.582  11.683  1.2008 -3.2572 -0.5000
  866MOL0     H14249  10.957   7.872  11.355  2.8123 -1.8647  0.3280
  866MOL0     H14250  11.083   7.948  11.441  0.4018 -1.6115  1.2770
  866MOL0     H14251  10.782   7.969  11.517  0.0851 -1.4434  0.1920
  866MOL0     H14252  10.891   8.093  11.475 -0.6469  1.4022  3.0366
  866MOL0     H14253  11.043   8.026  11.666  0.1287  1.7952 -0.1528
  866MOL0     H14254  10.906   7.938  11.736 -1.1531 -1.5306 -0.4855
  866MOL0     H14255  10.931   8.177  11.835  0.8657 -3.7684  1.5829
  866MOL0     H14256  10.898   8.243  11.676  2.6041  0.4789  1.4710
  866MOL0     H14257  10.717   8.045  11.832 -2.7095 -0.3845 -1.3114
  866MOL0     H14258  10.661   8.138  11.692 -1.4669 -0.3177 -0.0878
  866MOL0     H14259  10.741   8.334  11.842 -0.1972 -0.7716 -2.0992
  866MOL0     H14260  10.721   8.221  11.968 -1.7023  2.4240  0.9542
  866MOL0     H14261  10.510   8.346  11.946 -0.6932 -0.0275  0.0812
  866MOL0     H14262  10.520   8.323  11.776 -0.0003  2.4674  1.1956
  866MOL0     H14263  10.493   8.083  11.948 -1.7947 -1.8753 -0.6885
  866MOL0     H14264  10.457   8.095  11.770  0.7873 -2.5167  0.1833
  866MOL0     H14265  10.310   8.114  12.103  0.7360  1.8718  0.8112
  866MOL0     H14266   9.958   8.247  12.082  0.9562  0.2024 -2.1623
  866MOL0     H14267  10.058   8.134  12.180  0.5221  1.9344  0.0342
  866MOL0     H14268   9.837   8.022  12.158  0.3966 -0.5657  0.0851
  866MOL0     H14269   9.971   7.944  12.071 -0.2665  0.7052 -2.6623
  866MOL0     H14270   9.751   8.125  11.965  1.9534  1.3972 -0.9831
  866MOL0     H14271   9.866   8.050  11.854  2.3536  0.5010  0.9548
  866MOL0     H14272   9.788   7.835  11.954  0.1381 -1.0748 -1.4074
  866MOL0     H14273   9.690   7.907  11.831  0.4490  0.0928  0.1858
  866MOL0     H14274   9.382   8.027  11.901  1.9478 -0.4868 -0.8432
  866MOL0     H14275   9.178   7.923  11.879 -0.7349 -2.4288 -1.0189
  866MOL0     H14276   8.864   7.497  11.964  0.0796 -0.9075 -0.4372
  866MOL0     H14277   8.636   7.463  11.899  1.6264 -1.5172  0.8479
  866MOL0     H14278   8.559   7.550  11.576 -1.2657 -1.6092 -1.9986
  866MOL0     H14279   8.395   7.579  11.578 -0.5364 -0.7749 -0.2953
  866MOL0     H14280   8.351   7.386  11.720  1.5543  2.0032  5.7637
  866MOL0     H14281   8.517   7.349  11.742 -1.1483  0.8001  1.4329
  866MOL0     H14282   8.567   7.322  11.507  0.1238 -0.3052 -1.4925
  866MOL0     H14283   8.404   7.394  11.468 -0.4567  0.1759  1.8450
  866MOL0     H14284   8.441   7.127  11.612 -2.7360 -0.4495  0.3999
  866MOL0     H14285   8.309   7.165  11.501  0.2788  0.7311 -1.5055
  866MOL0     H14286   8.450   7.011  11.422 -1.8263  0.3262 -0.3642
  866MOL0     H14287   8.596   7.103  11.465 -1.0294 -3.1493  1.5224
  866MOL0     H14288   8.585   7.118  11.223  0.8312 -3.8781  3.3409
  866MOL0     H14289   8.507   7.274  11.272  1.0452 -0.2495 -0.6383
  866MOL0     H14290   8.323   7.038  11.232 -0.3917 -0.4544 -2.3200
  866MOL0     H14291   8.300   7.214  11.232  1.1339  0.7911  2.2322
  866MOL0     H14292   8.275   7.141  11.020 -0.9070 -2.2323  3.2348
  866MOL0     H14293   8.442   7.078  11.006 -0.0325 -0.8569  0.6795
  866MOL0     H14294   8.593   7.870  11.773 -0.0385  1.5028  1.4009
  866MOL0     H14295   8.829   7.903  11.803 -1.3069 -1.2503 -0.8879
  866MOL0     H14296   9.341   7.551  12.032 -0.0338 -0.5460 -0.7388
  866MOL0     H14297   9.551   7.677  12.084 -1.4115  0.1668  2.4008
  866MOL0     H14298  10.802   7.708  11.378  1.0980  2.0609  1.3893
  866MOL0     H14299  10.683   7.488  11.373  0.4628 -0.4447 -1.2849
  866MOL0     H14300  10.506   7.253  11.464  0.3264 -0.8085  2.1877
  866MOL0     H14301  10.317   7.101  11.415 -0.3307  0.4511  0.3776
  866MOL0     H14302  10.143   6.791  11.295 -0.8795  1.1926  0.9083
  866MOL0     H14303  10.168   6.952  11.368 -0.9733  0.0802  0.1049
  866MOL0     H14304  10.075   6.790  11.524  0.3794  1.3613  0.5684
  866MOL0     H14305  10.208   6.679  11.506 -1.1480 -0.3839  0.1018
  866MOL0     H14306  10.229   6.955  11.624  3.6257  0.8478  3.8427
  866MOL0     H14307  10.372   6.855  11.601  1.2206  4.7819  0.8673
  866MOL0     H14308  10.141   6.761  11.782  0.7009 -1.6969  1.2856
  866MOL0     H14309  10.294   6.687  11.757 -0.0032  0.2348  1.3993
  866MOL0     H14310  10.421   6.927  12.059  1.5065 -0.1927 -0.5597
  866MOL0     H14311  10.575   6.780  11.331  0.3027 -0.0545  0.8090
  866MOL0     H14312  10.790   6.948  11.385  0.0302 -0.7576  2.2442
  867MOL0     O14313   4.614   7.934   7.696 -0.6816  0.6272  0.7279
  867MOL0     C14314   4.735   7.932   7.683 -0.3313  0.3232 -0.4161
  867MOL0     O14315   4.807   7.989   7.590  0.1831  0.2283  0.2148
  867MOL0     C14316   4.742   8.071   7.500  0.5054  0.3297  1.1283
  867MOL0     C14317   4.720   8.209   7.517 -0.9035 -0.2600 -1.5222
  867MOL0     C14318   4.638   8.285   7.436  0.4553 -0.0550  0.6887
  867MOL0     C14319   4.588   8.227   7.320 -0.0158  0.5689  0.1516
  867MOL0     O14320   4.510   8.299   7.236  0.1764  0.6889 -0.1593
  867MOL0     C14321   4.556   8.340   7.105  0.3530 -0.2639 -0.0280
  867MOL0     C14322   4.659   8.452   7.098  0.4377  0.3395 -0.2963
  867MOL0     C14323   4.686   8.498   6.957  0.2728 -0.8779  0.4917
  867MOL0     C14324   4.816   8.582   6.941  0.7614  0.5380 -0.2242
  867MOL0     C14325   4.859   8.601   6.793  0.5675  0.4960  0.8636
  867MOL0     C14326   4.932   8.475   6.737  0.2650 -0.4462  0.3317
  867MOL0     C14327   4.936   8.474   6.583  0.1637  0.1062 -0.4750
  867MOL0     C14328   5.003   8.354   6.514  0.8657  0.2598 -0.9385
  867MOL0     N14329   5.105   8.290   6.595  0.1213 -0.6385 -0.9813
  867MOL0     C14330   5.220   8.348   6.647  0.1525 -0.1679  0.4555
  867MOL0     C14331   5.281   8.252   6.716  0.7484  0.1566 -0.1923
  867MOL0     C14332   5.416   8.290   6.779  0.4712 -0.2102  0.5246
  867MOL0     C14333   5.406   8.319   6.933 -0.3349  0.6304  0.4909
  867MOL0     C14334   5.531   8.371   7.015 -1.0635  0.2776  1.6289
  867MOL0     C14335   5.514   8.362   7.166  0.4985  1.0906  1.1827
  867MOL0     O14336   5.512   8.220   7.195  0.8286 -0.1736  0.0895
  867MOL0     C14337   5.465   8.188   7.318  0.6631  0.2537  0.0200
  867MOL0     C14338   5.379   8.081   7.337  1.1999  0.5147  0.2798
  867MOL0     C14339   5.332   8.045   7.462  0.5001 -0.4893  0.2600
  867MOL0     C14340   5.358   8.131   7.573 -0.0695 -0.3826  0.4785
  867MOL0     C14341   5.325   8.101   7.717 -0.1729 -0.6247 -0.3586
  867MOL0     O14342   5.351   8.201   7.810 -0.6972  0.3840  0.0324
  867MOL0     C14343   5.351   8.168   7.940 -0.4129 -0.8890  0.7373
  867MOL0     C14344   5.253   8.093   8.003  0.2570  0.7673 -0.2051
  867MOL0     C14345   5.258   8.076   8.143  0.7633  0.3159  0.4713
  867MOL0     C14346   5.352   8.140   8.222 -0.2760 -0.2764  0.3691
  867MOL0     O14347   5.342   8.091   8.353 -0.2304  0.0992  0.0807
  867MOL0     C14348   5.430   8.158   8.445  0.5470  0.2122 -0.9538
  867MOL0     C14349   5.390   8.127   8.595 -1.3564  0.0437  0.6548
  867MOL0     C14350   5.270   8.208   8.629 -0.3364 -0.3956 -0.2369
  867MOL0     C14351   5.207   8.158   8.765  1.1418  0.3569  0.6787
  867MOL0     C14352   5.079   8.234   8.799  0.8050  0.2837 -0.5043
  867MOL0     C14353   5.026   8.203   8.939  0.2131 -0.1395 -0.6648
  867MOL0     C14354   4.885   8.269   8.956 -0.7842  0.4647  0.6005
  867MOL0     C14355   4.766   8.197   8.880  0.2968  0.0716 -0.0990
  867MOL0    Cl14356   4.606   8.274   8.890  0.2846 -0.4532  0.2845
  867MOL0     C14357   5.452   8.220   8.154  0.5416  0.6585 -0.3396
  867MOL0     C14358   5.445   8.235   8.016  0.3721 -0.9510  0.3617
  867MOL0     O14359   5.285   7.992   7.739 -0.4456  0.3054  0.1120
  867MOL0     C14360   5.428   8.250   7.547 -0.2844 -0.0251 -0.2048
  867MOL0     C14361   5.483   8.280   7.424  0.4195  0.1575  0.2810
  867MOL0     N14362   5.199   8.146   6.718  0.5429  0.0060  0.5445
  867MOL0     N14363   5.089   8.165   6.650 -0.1855  0.8337 -0.0658
  867MOL0     C14364   4.610   8.087   7.303 -0.3119 -0.0267  0.2719
  867MOL0     C14365   4.673   8.006   7.397  0.4114  0.5090  0.1952
  867MOL0     C14366   4.803   7.861   7.794 -0.2569 -0.9831  0.0810
  867MOL0     C14367   4.746   7.787   7.898 -0.0502  0.5784 -0.6448
  867MOL0     C14368   4.837   7.724   7.993 -0.3712 -1.3019  0.2408
  867MOL0     C14369   4.970   7.731   7.983 -0.2970 -0.5699 -1.0089
  867MOL0     O14370   5.063   7.675   8.061 -0.4834  0.2625  0.7748
  867MOL0     C14371   5.032   7.655   8.193 -0.1500  0.2359  0.2398
  867MOL0     C14372   5.140   7.580   8.273  0.3958 -0.2258 -0.2563
  867MOL0     C14373   5.193   7.451   8.202  1.0271  0.8306  0.1929
  867MOL0     C14374   5.324   7.407   8.266  0.3267  0.6061 -1.2441
  867MOL0     C14375   5.317   7.351   8.401 -0.1406  0.0155 -0.3228
  867MOL0     C14376   5.291   7.303   8.503 -0.1603  0.2611 -1.1258
  867MOL0     C14377   5.026   7.805   7.881 -0.1636 -0.0499 -0.7543
  867MOL0     C14378   4.944   7.868   7.783  0.0233  0.7987  0.0977
  867MOL0     H14379   4.776   8.262   7.593 -0.1334 -0.5291 -1.8927
  867MOL0     H14380   4.622   8.390   7.457 -3.1441 -0.2544 -0.3568
  867MOL0     H14381   4.465   8.366   7.049  0.6911  0.6574 -0.1667
  867MOL0     H14382   4.585   8.248   7.053  0.2206  1.2523 -3.0006
  867MOL0     H14383   4.753   8.421   7.145  0.4303 -0.3272 -0.7110
  867MOL0     H14384   4.617   8.530   7.162 -2.7055 -1.1934 -0.3055
  867MOL0     H14385   4.605   8.561   6.920  1.1685 -0.7029 -1.2355
  867MOL0     H14386   4.689   8.413   6.888 -3.0503  0.6225 -1.7488
  867MOL0     H14387   4.795   8.685   6.973  1.9527  0.7780 -0.1987
  867MOL0     H14388   4.901   8.536   6.991 -0.0819 -0.1390  0.6386
  867MOL0     H14389   4.919   8.692   6.795 -2.0927  2.3552  1.4403
  867MOL0     H14390   4.771   8.624   6.731 -0.4528  1.3792  2.5786
  867MOL0     H14391   4.884   8.383   6.773 -1.4341  0.7057  1.2155
  867MOL0     H14392   5.032   8.478   6.781 -1.1418  2.0333  3.8858
  867MOL0     H14393   4.837   8.472   6.536  0.8982  0.4483 -2.0671
  867MOL0     H14394   4.976   8.566   6.541 -1.3830  1.1736  0.2941
  867MOL0     H14395   5.031   8.400   6.419 -0.3576  4.2186  0.4052
  867MOL0     H14396   4.931   8.276   6.488  0.6714  0.9222 -2.5302
  867MOL0     H14397   5.253   8.450   6.629  2.1156 -0.4240  2.1570
  867MOL0     H14398   5.452   8.387   6.744 -3.0979  2.0312  2.4188
  867MOL0     H14399   5.491   8.215   6.757 -2.2022 -3.0502  0.4510
  867MOL0     H14400   5.368   8.235   6.993 -2.0456  1.5563  0.7653
  867MOL0     H14401   5.329   8.396   6.950 -1.2962  0.8640 -3.7798
  867MOL0     H14402   5.619   8.307   7.000 -1.5886 -0.0920 -0.1572
  867MOL0     H14403   5.565   8.473   6.994  2.5951 -1.3677 -1.9134
  867MOL0     H14404   5.431   8.422   7.205 -1.7374 -1.5525  0.8486
  867MOL0     H14405   5.604   8.401   7.213  0.6193  2.3164  0.0183
  867MOL0     H14406   5.367   8.012   7.254  0.6649  1.8621 -0.8105
  867MOL0     H14407   5.274   7.957   7.486  1.3059 -1.4085 -1.0507
  867MOL0     H14408   5.169   8.054   7.947  0.5524  0.9708 -0.8015
  867MOL0     H14409   5.189   8.011   8.194  0.2908  1.3233  1.1476
  867MOL0     H14410   5.426   8.266   8.427 -1.3191  0.5612  0.9776
  867MOL0     H14411   5.530   8.120   8.426 -0.3793 -2.0245 -1.6205
  867MOL0     H14412   5.467   8.132   8.673 -2.3078 -0.3258  1.6375
  867MOL0     H14413   5.370   8.020   8.592  2.7721 -0.8976  0.8501
  867MOL0     H14414   5.201   8.187   8.548  1.0068 -1.2329 -1.2067
  867MOL0     H14415   5.294   8.315   8.638  1.3518 -0.8283  1.2262
  867MOL0     H14416   5.175   8.055   8.748 -0.9293  1.3672 -2.2229
  867MOL0     H14417   5.288   8.165   8.838  2.9948 -3.0093 -0.8153
  867MOL0     H14418   5.008   8.202   8.722  3.0183  1.2085 -3.0843
  867MOL0     H14419   5.095   8.342   8.797  0.1367  0.3823 -1.4596
  867MOL0     H14420   5.100   8.245   9.008 -1.6664 -0.5155  1.6658
  867MOL0     H14421   5.027   8.097   8.962  1.7889  0.3101  1.7511
  867MOL0     H14422   4.858   8.289   9.060 -1.0386  3.5657  0.0487
  867MOL0     H14423   4.901   8.369   8.914  1.2742 -0.3427 -0.6940
  867MOL0     H14424   4.754   8.094   8.916 -2.8385 -0.4425 -2.2271
  867MOL0     H14425   4.788   8.180   8.774 -0.3523 -0.7160 -0.1253
  867MOL0     H14426   5.522   8.276   8.215  0.3886 -1.9429  2.4490
  867MOL0     H14427   5.516   8.297   7.963 -0.8248 -0.2745 -0.4831
  867MOL0     H14428   5.444   8.325   7.624  1.8610 -1.0187  0.4165
  867MOL0     H14429   5.560   8.357   7.420  0.6143 -0.0591 -0.0873
  867MOL0     H14430   4.555   8.048   7.218 -2.0587 -0.7572  1.6925
  867MOL0     H14431   4.667   7.898   7.388  0.0868  0.6347 -1.6611
  867MOL0     H14432   4.638   7.772   7.907  0.1177  0.5502  2.2345
  867MOL0     H14433   4.795   7.665   8.074 -0.3580 -2.2799 -0.4497
  867MOL0     H14434   4.942   7.594   8.209  0.0566  0.4638  2.7551
  867MOL0     H14435   5.019   7.756   8.234  2.9956  1.0290 -0.4536
  867MOL0     H14436   5.223   7.649   8.289 -0.8375  0.9137  1.5511
  867MOL0     H14437   5.091   7.558   8.368 -0.0225  3.2248  0.4231
  867MOL0     H14438   5.196   7.467   8.094 -2.0197  0.9166  0.0264
  867MOL0     H14439   5.116   7.373   8.211  0.8235  0.6876 -2.1597
  867MOL0     H14440   5.379   7.349   8.192 -1.3265  1.1119 -2.9607
  867MOL0     H14441   5.380   7.499   8.286 -1.0807  0.9888  1.3772
  867MOL0     H14442   5.285   7.277   8.607  2.4389 -0.0339 -0.9791
  867MOL0     H14443   5.134   7.814   7.875  0.0847 -2.5860 -1.2275
  867MOL0     H14444   4.986   7.921   7.698 -0.9048  2.7455  0.7771
  868MOL0     O14445   8.652   9.217   0.054  0.0191 -0.2458  0.4263
  868MOL0     C14446   8.683   9.271  -0.057 -0.4480  0.2851  0.9283
  868MOL0     O14447   8.622   9.376  -0.112 -0.4228 -0.5802  0.0712
  868MOL0     C14448   8.489   9.400  -0.091 -0.9111 -1.1025  0.2792
  868MOL0     C14449   8.446   9.523  -0.027 -0.2548  0.3722 -1.0455
  868MOL0     C14450   8.311   9.557  -0.005 -0.6233  0.1754  0.2683
  868MOL0     C14451   8.211   9.471  -0.056  0.3350 -1.0469 -0.0595
  868MOL0     O14452   8.076   9.499  -0.039 -0.0107 -0.1793  0.1532
  868MOL0     C14453   8.022   9.398   0.046  0.4106 -0.1447 -0.0836
  868MOL0     C14454   7.865   9.410   0.030 -0.3342 -0.4632  0.8981
  868MOL0     C14455   7.801   9.280   0.067  0.9364  0.5802 -0.0240
  868MOL0     C14456   7.640   9.285   0.061 -0.1179  1.1863 -0.6304
  868MOL0     C14457   7.573   9.146   0.057  0.5268 -0.1319 -0.4596
  868MOL0     C14458   7.430   9.179   0.032  0.6890 -0.3166  0.0169
  868MOL0     C14459   7.337   9.054   0.033 -0.2408  0.4359  0.5609
  868MOL0     C14460   7.323   9.017   0.174  0.0393  0.1910  0.2042
  868MOL0     N14461   7.210   8.923   0.193 -0.9340 -0.1382  0.5579
  868MOL0     C14462   7.203   8.786   0.153  0.3216  0.3011  0.3456
  868MOL0     C14463   7.077   8.757   0.202  0.1016  0.6423 -0.0476
  868MOL0     C14464   7.010   8.620   0.192 -0.0495  1.1911  0.6178
  868MOL0     C14465   6.975   8.588   0.043  0.2468  0.2610  0.3450
  868MOL0     C14466   6.857   8.675   0.005  0.1876  0.1032  0.2226
  868MOL0     C14467   6.831   8.661  -0.146  0.2783  0.4438 -0.4009
  868MOL0     O14468   6.837   8.534  -0.191  0.3157 -0.2110 -0.1097
  868MOL0     C14469   6.750   8.437  -0.156  0.1265  1.1535  0.3476
  868MOL0     C14470   6.804   8.310  -0.193  0.0426 -0.9494  0.5979
  868MOL0     C14471   6.720   8.198  -0.187  0.4670 -0.8018  0.7183
  868MOL0     C14472   6.582   8.203  -0.148 -0.7526  0.7287  0.9468
  868MOL0     C14473   6.505   8.078  -0.132 -0.3404  0.1426  0.3459
  868MOL0     O14474   6.575   7.965  -0.112  0.3647  0.5989 -0.1810
  868MOL0     C14475   6.526   7.835  -0.132  0.3784 -0.1163 -0.5993
  868MOL0     C14476   6.408   7.792  -0.194  0.3847 -0.8477  0.2570
  868MOL0     C14477   6.362   7.659  -0.200  1.1455  0.3057 -0.2279
  868MOL0     C14478   6.430   7.555  -0.137 -0.2649 -0.2906 -1.0142
  868MOL0     O14479   6.385   7.422  -0.152 -0.5017 -0.8766  0.3719
  868MOL0     C14480   6.428   7.328  -0.054 -0.9056  0.3062 -0.6534
  868MOL0     C14481   6.354   7.334   0.076  0.1333  0.6059  0.0612
  868MOL0     C14482   6.212   7.285   0.048  0.2890 -0.6020  0.3392
  868MOL0     C14483   6.136   7.265   0.186 -0.1950  0.3074  0.6324
  868MOL0     C14484   5.988   7.214   0.185 -0.2166  1.0847 -0.1905
  868MOL0     C14485   5.947   7.141   0.317 -0.1587 -0.0396 -0.1641
  868MOL0     C14486   5.833   7.029   0.313 -0.7179 -0.2301  0.2258
  868MOL0     C14487   5.853   6.938   0.435  0.5350 -0.8939 -0.4320
  868MOL0    Cl14488   5.788   7.030   0.579 -0.4595 -0.4120  0.1022
  868MOL0     C14489   6.553   7.591  -0.080 -0.1874  0.5797 -0.4279
  868MOL0     C14490   6.589   7.725  -0.071 -0.9157  0.4351 -0.2153
  868MOL0     O14491   6.384   8.092  -0.137 -0.6576  0.6502  0.4880
  868MOL0     C14492   6.530   8.331  -0.110  0.6077  0.0348 -0.2062
  868MOL0     C14493   6.616   8.444  -0.112 -0.3525 -0.9919  0.4522
  868MOL0     N14494   7.016   8.860   0.280 -0.7551  0.5889 -1.4541
  868MOL0     N14495   7.103   8.962   0.261 -0.0892  0.3566  0.1535
  868MOL0     C14496   8.255   9.354  -0.123  0.1813 -1.0259  0.2611
  868MOL0     C14497   8.387   9.322  -0.147 -0.1494  0.5329  0.0494
  868MOL0     C14498   8.793   9.215  -0.145 -0.1354 -0.0462 -0.5961
  868MOL0     C14499   8.900   9.149  -0.087 -0.5627  0.1474 -0.1168
  868MOL0     C14500   9.005   9.092  -0.158 -0.7666  0.3597  0.3770
  868MOL0     C14501   9.016   9.126  -0.296  0.0496 -0.7890  1.1251
  868MOL0     O14502   9.118   9.069  -0.369 -0.9797  0.7287  0.2770
  868MOL0     C14503   9.149   9.100  -0.509  0.5695  0.8916  0.4489
  868MOL0     C14504   9.077   9.012  -0.607  0.2204  0.1608 -1.1277
  868MOL0     C14505   9.120   9.028  -0.757 -0.0206  1.0015  0.1580
  868MOL0     C14506   9.085   9.159  -0.825  1.4799 -0.1622 -0.5382
  868MOL0     C14507   8.957   9.214  -0.761 -0.2149 -0.5196  0.6623
  868MOL0     C14508   8.863   9.287  -0.736  0.7987  0.3831 -0.3563
  868MOL0     C14509   8.918   9.215  -0.354 -0.0384  1.1201 -0.4022
  868MOL0     C14510   8.809   9.261  -0.282 -0.9725 -0.0253  0.9600
  868MOL0     H14511   8.513   9.599   0.014  1.2143 -0.6799 -1.4013
  868MOL0     H14512   8.273   9.628   0.068 -3.1729 -1.7570  0.9904
  868MOL0     H14513   8.049   9.424   0.149  1.8393 -2.9615  0.3558
  868MOL0     H14514   8.051   9.292   0.037  1.7031  0.2513 -0.8988
  868MOL0     H14515   7.854   9.432  -0.076 -0.1331 -0.2547  0.9194
  868MOL0     H14516   7.819   9.493   0.083 -1.1187 -0.9887  1.0640
  868MOL0     H14517   7.829   9.257   0.171  1.3773  2.8196  0.3958
  868MOL0     H14518   7.840   9.197   0.007  0.3827  0.0316  0.3585
  868MOL0     H14519   7.606   9.340   0.149 -2.0664 -0.9064  0.0129
  868MOL0     H14520   7.619   9.341  -0.030  1.0000  0.3580 -1.4288
  868MOL0     H14521   7.579   9.095   0.153 -0.1612  2.4424  1.0464
  868MOL0     H14522   7.608   9.076  -0.019 -1.2261 -2.4222  0.7315
  868MOL0     H14523   7.430   9.223  -0.068 -0.6226 -3.6102 -1.5826
  868MOL0     H14524   7.384   9.247   0.105 -2.5849  0.1226 -2.2278
  868MOL0     H14525   7.236   9.084   0.004  0.2512  1.4916 -0.1016
  868MOL0     H14526   7.360   8.967  -0.030  0.1059  0.1830  1.0331
  868MOL0     H14527   7.283   9.106   0.223  2.5201  2.4486 -1.5889
  868MOL0     H14528   7.407   8.971   0.227  0.2130 -2.5029 -2.1726
  868MOL0     H14529   7.264   8.722   0.089 -1.6854 -2.1752  0.7511
  868MOL0     H14530   6.921   8.628   0.256  0.3022  0.2175  1.2337
  868MOL0     H14531   7.061   8.535   0.237 -2.1912 -1.8275 -2.1750
  868MOL0     H14532   6.947   8.483   0.032 -1.2141  0.7578 -0.8836
  868MOL0     H14533   7.051   8.608  -0.033 -0.8874 -0.8268 -1.1232
  868MOL0     H14534   6.761   8.642   0.046 -0.7781 -0.8762 -2.5478
  868MOL0     H14535   6.871   8.780   0.031 -0.3882 -0.3532  2.6291
  868MOL0     H14536   6.898   8.723  -0.206 -0.0606 -1.3963 -2.8822
  868MOL0     H14537   6.728   8.694  -0.161  0.2123 -0.6762 -3.1487
  868MOL0     H14538   6.904   8.311  -0.236 -0.2200 -2.3449 -0.1063
  868MOL0     H14539   6.747   8.101  -0.227 -2.9108 -2.1986  1.5198
  868MOL0     H14540   6.360   7.868  -0.254  1.1079 -2.0210 -1.9292
  868MOL0     H14541   6.273   7.645  -0.260  1.7017  1.6965 -1.4504
  868MOL0     H14542   6.533   7.314  -0.027 -2.0553 -2.5013  3.4204
  868MOL0     H14543   6.423   7.225  -0.091  2.9257 -0.6558  0.9893
  868MOL0     H14544   6.359   7.431   0.127 -1.7315 -0.2715  2.0758
  868MOL0     H14545   6.387   7.259   0.149 -4.4765 -0.0317  1.8294
  868MOL0     H14546   6.200   7.192  -0.008 -3.3305  0.8042 -1.5810
  868MOL0     H14547   6.159   7.367  -0.002 -2.1776 -0.6710  2.5803
  868MOL0     H14548   6.189   7.190   0.246  1.4556  0.7936 -0.1628
  868MOL0     H14549   6.149   7.356   0.244 -1.4554 -1.0471  3.2014
  868MOL0     H14550   5.982   7.127   0.119  0.4968 -1.5039  2.8929
  868MOL0     H14551   5.920   7.290   0.146 -3.1908 -1.9991 -1.5516
  868MOL0     H14552   5.932   7.213   0.397  1.0294 -0.0377  0.0737
  868MOL0     H14553   6.034   7.087   0.354  0.3199  2.5621  2.8640
  868MOL0     H14554   5.734   7.075   0.320 -0.8497 -0.7274  2.3469
  868MOL0     H14555   5.843   6.969   0.222  2.9769 -1.1480  1.0756
  868MOL0     H14556   5.952   6.896   0.450  0.9953  0.2226 -0.2238
  868MOL0     H14557   5.785   6.853   0.429 -0.8310 -0.3695  3.8230
  868MOL0     H14558   6.624   7.521  -0.037 -0.7006  0.6001  0.4773
  868MOL0     H14559   6.679   7.750  -0.016 -2.5538  0.8398  2.4975
  868MOL0     H14560   6.430   8.336  -0.069  1.5894 -0.3786  2.4484
  868MOL0     H14561   6.572   8.540  -0.089  0.0014 -1.2447  2.3210
  868MOL0     H14562   8.182   9.284  -0.163  0.7958 -1.9734  0.7603
  868MOL0     H14563   8.429   9.229  -0.184 -1.4136  0.1237 -0.4071
  868MOL0     H14564   8.907   9.127   0.019  0.6630 -1.2149 -0.4534
  868MOL0     H14565   9.081   9.031  -0.111 -2.5233 -1.4233  1.0265
  868MOL0     H14566   9.253   9.076  -0.530  0.3218  0.4758 -0.3676
  868MOL0     H14567   9.144   9.207  -0.534 -2.1753  0.4224 -1.5817
  868MOL0     H14568   9.091   8.908  -0.575  0.8065  0.1278 -1.4824
  868MOL0     H14569   8.970   9.028  -0.587  0.8381  3.3996  0.1958
  868MOL0     H14570   9.062   8.949  -0.806  0.3451 -1.3893  3.2807
  868MOL0     H14571   9.227   9.008  -0.755 -0.5679 -2.7349  3.2957
  868MOL0     H14572   9.164   9.232  -0.809  2.3686 -1.6585  2.7573
  868MOL0     H14573   9.076   9.153  -0.934 -0.8080  0.2194 -0.4333
  868MOL0     H14574   8.782   9.354  -0.717  0.9072  0.4462 -0.1220
  868MOL0     H14575   8.946   9.255  -0.451 -0.2500  1.1961 -0.4304
  868MOL0     H14576   8.735   9.320  -0.336  2.9457  3.8312 -0.7997
  869MOL0     O14577   9.845   7.075   8.487  0.3926 -0.1502  0.0418
  869MOL0     C14578   9.873   7.187   8.538 -0.2722  0.1163 -0.4470
  869MOL0     O14579   9.920   7.298   8.475  0.3771  0.6450  0.4243
  869MOL0     C14580   9.932   7.284   8.338 -0.0924  0.6519  0.3589
  869MOL0     C14581  10.049   7.227   8.286 -0.3733 -0.5121  0.8102
  869MOL0     C14582  10.066   7.254   8.147 -0.0324  0.8718 -0.0376
  869MOL0     C14583   9.975   7.326   8.068  0.1427 -0.1936 -0.1864
  869MOL0     O14584   9.980   7.344   7.934  0.0104  0.0831  0.1518
  869MOL0     C14585  10.100   7.332   7.860  0.6244 -0.2378 -0.2525
  869MOL0     C14586  10.107   7.422   7.737 -0.0122  0.6132  0.3213
  869MOL0     C14587  10.129   7.567   7.789 -0.5038  0.7126 -0.1609
  869MOL0     C14588  10.193   7.645   7.682 -1.0363  0.0174  0.2497
  869MOL0     C14589  10.347   7.617   7.673 -0.2026 -1.0412 -0.6229
  869MOL0     C14590  10.423   7.728   7.585 -0.1840  0.0441 -0.6953
  869MOL0     C14591  10.396   7.739   7.432  0.6317  0.4804  0.7211
  869MOL0     C14592  10.486   7.826   7.337 -0.9760  0.9313 -0.1648
  869MOL0     N14593  10.604   7.747   7.302 -0.5430 -0.5993  0.4370
  869MOL0     C14594  10.707   7.787   7.213  0.1631 -0.5210 -1.1994
  869MOL0     C14595  10.775   7.679   7.182  0.3091 -0.1802  0.3262
  869MOL0     C14596  10.884   7.663   7.081 -0.2495 -0.6938 -0.2891
  869MOL0     C14597  10.817   7.655   6.940  0.0067  0.0650 -1.1278
  869MOL0     C14598  10.886   7.574   6.827  0.8093 -1.0504 -0.3830
  869MOL0     C14599  10.778   7.541   6.719 -0.8706  0.3143 -0.3329
  869MOL0     O14600  10.837   7.455   6.616  0.6779 -0.1440 -1.0738
  869MOL0     C14601  10.851   7.322   6.630  0.0263 -1.4434  0.9298
  869MOL0     C14602  10.782   7.241   6.730  0.4462  0.3109 -0.0870
  869MOL0     C14603  10.809   7.104   6.711 -0.4409 -0.2184  0.5232
  869MOL0     C14604  10.887   7.051   6.617  0.0806 -0.4141  0.6121
  869MOL0     C14605  10.910   6.911   6.610 -0.7832  0.0191  0.9235
  869MOL0     O14606  10.913   6.837   6.726  0.0203  0.2333  0.6467
  869MOL0     C14607  10.943   6.702   6.713  0.4347 -0.1181 -0.0228
  869MOL0     C14608  11.048   6.645   6.789  0.1984  0.2397 -0.9058
  869MOL0     C14609  11.082   6.512   6.781  0.7510  0.2294 -0.3435
  869MOL0     C14610  11.016   6.442   6.690  0.1825  0.2545  0.0566
  869MOL0     O14611  11.045   6.310   6.674  0.2018 -0.0580 -0.0147
  869MOL0     C14612  11.047   6.226   6.803  0.9663 -0.0521  0.8348
  869MOL0     C14613  11.118   6.094   6.770 -0.7340  0.7454 -1.0408
  869MOL0     C14614  11.137   6.007   6.901  0.4171 -0.0424 -0.1270
  869MOL0     C14615  11.015   5.975   6.987  0.4026 -0.9059  0.5068
  869MOL0     C14616  11.050   5.923   7.123 -0.9535  0.5132  0.4385
  869MOL0     C14617  11.151   5.818   7.133 -0.4161  1.2741  0.2974
  869MOL0     C14618  11.124   5.745   7.265  0.7748 -0.2847  1.2984
  869MOL0     C14619  11.233   5.644   7.317  0.0874  0.2687  0.2122
  869MOL0    Cl14620  11.401   5.696   7.280 -0.2396 -0.0584 -0.1336
  869MOL0     C14621  10.908   6.488   6.611 -0.3326  0.3734  0.2329
  869MOL0     C14622  10.869   6.616   6.632  0.4469  0.3617 -0.5592
  869MOL0     O14623  10.937   6.862   6.498  0.0061  0.2593 -0.6126
  869MOL0     C14624  10.948   7.137   6.524  0.1068  0.0082  0.4869
  869MOL0     C14625  10.932   7.273   6.525 -0.3608  0.1958  1.0465
  869MOL0     N14626  10.720   7.571   7.242  0.1043  0.9657 -0.6962
  869MOL0     N14627  10.611   7.610   7.296 -0.9960 -0.1044  0.1745
  869MOL0     C14628   9.867   7.386   8.133  0.2197 -0.0845  0.0533
  869MOL0     C14629   9.837   7.361   8.258 -0.4950 -0.1972 -0.0456
  869MOL0     C14630   9.886   7.200   8.684 -0.2301 -0.1599 -0.1240
  869MOL0     C14631   9.919   7.087   8.765 -0.0050 -0.5078  0.1560
  869MOL0     C14632   9.943   7.103   8.902 -0.8828  0.3747  0.1956
  869MOL0     C14633   9.937   7.232   8.964 -0.7179  0.6802  0.6973
  869MOL0     O14634   9.988   7.261   9.085 -0.5179 -0.3401  0.1905
  869MOL0     C14635  10.067   7.165   9.155 -0.6028  0.8936 -0.6884
  869MOL0     C14636   9.967   7.067   9.242 -0.4507  0.1603  0.3294
  869MOL0     C14637  10.031   6.957   9.328 -0.3516  0.2828 -0.1755
  869MOL0     C14638   9.926   6.862   9.380 -0.3168  0.1918 -0.1791
  869MOL0     C14639   9.827   6.929   9.467  0.0633  0.2764  0.6130
  869MOL0     C14640   9.741   6.979   9.536  0.8259 -0.7074  0.4421
  869MOL0     C14641   9.882   7.328   8.890  0.2842  0.4227  0.4112
  869MOL0     C14642   9.862   7.320   8.753 -0.6558 -0.3238  0.0265
  869MOL0     H14643  10.124   7.176   8.346 -1.1909 -0.9787  1.4635
  869MOL0     H14644  10.142   7.203   8.090 -1.0766 -2.5741  1.3754
  869MOL0     H14645  10.103   7.232   7.815  0.5816  1.1388 -3.6429
  869MOL0     H14646  10.183   7.354   7.926  2.1786 -1.7447 -1.6060
  869MOL0     H14647  10.013   7.422   7.680 -0.9329 -1.0576  1.7447
  869MOL0     H14648  10.193   7.389   7.679  0.3967 -1.3214  1.9280
  869MOL0     H14649  10.191   7.573   7.879 -0.6043 -0.1225 -0.0279
  869MOL0     H14650  10.034   7.618   7.807 -0.4944  0.8727 -0.5706
  869MOL0     H14651  10.137   7.629   7.589 -1.5188  2.1117  0.1280
  869MOL0     H14652  10.187   7.753   7.702  1.2013  0.1913  0.2640
  869MOL0     H14653  10.367   7.514   7.643  0.6946 -0.5411 -1.7987
  869MOL0     H14654  10.377   7.623   7.778 -2.3367  1.1544 -0.0221
  869MOL0     H14655  10.532   7.728   7.592 -0.0984 -1.5933 -1.6363
  869MOL0     H14656  10.394   7.823   7.631 -1.6460 -0.6258 -0.1744
  869MOL0     H14657  10.390   7.637   7.393  3.5798  0.3778  0.3115
  869MOL0     H14658  10.295   7.781   7.428  0.3285 -0.3127 -1.0190
  869MOL0     H14659  10.516   7.918   7.388 -0.8018  0.1045  1.2507
  869MOL0     H14660  10.429   7.855   7.248 -0.7715 -0.0596 -0.6393
  869MOL0     H14661  10.721   7.889   7.177  3.5891 -0.6728 -0.5987
  869MOL0     H14662  10.938   7.572   7.108 -0.8365 -1.1733 -0.7237
  869MOL0     H14663  10.950   7.750   7.083  1.4113 -1.8683 -1.3535
  869MOL0     H14664  10.798   7.758   6.910  0.5967  1.3757  2.5044
  869MOL0     H14665  10.719   7.608   6.954  0.1325 -0.6158 -2.4013
  869MOL0     H14666  10.966   7.632   6.781 -1.7979  3.2792 -0.0227
  869MOL0     H14667  10.939   7.494   6.879  0.1772 -3.5512 -3.2491
  869MOL0     H14668  10.738   7.634   6.677  1.0146  1.6756  0.7409
  869MOL0     H14669  10.701   7.492   6.779  1.1830 -1.3531  1.1142
  869MOL0     H14670  10.717   7.272   6.811  1.1806  0.8682  0.3016
  869MOL0     H14671  10.768   7.044   6.791  0.9028 -0.0572  1.3603
  869MOL0     H14672  11.104   6.710   6.856 -4.5896  0.5012  3.5025
  869MOL0     H14673  11.168   6.468   6.831  1.2734  0.8424 -0.6979
  869MOL0     H14674  10.943   6.205   6.828  2.0812 -2.7483  3.8417
  869MOL0     H14675  11.088   6.276   6.891 -3.5266  2.6923  1.6607
  869MOL0     H14676  11.216   6.125   6.731 -0.0883 -0.4878 -0.4662
  869MOL0     H14677  11.061   6.042   6.693 -3.3399  0.8521  0.6794
  869MOL0     H14678  11.210   6.060   6.964  2.6575 -0.0763 -2.5144
  869MOL0     H14679  11.192   5.915   6.879 -0.9967 -0.2159 -3.3865
  869MOL0     H14680  10.962   6.069   7.004  1.7379 -0.1348  0.5096
  869MOL0     H14681  10.953   5.912   6.922  2.2948  0.1710 -2.5475
  869MOL0     H14682  10.955   5.881   7.157 -0.9137  0.0948  0.0289
  869MOL0     H14683  11.072   6.006   7.191  2.3290  0.0570  0.0741
  869MOL0     H14684  11.251   5.860   7.121 -0.7665  2.2833  0.8616
  869MOL0     H14685  11.149   5.744   7.051  0.2176 -0.0292  1.4130
  869MOL0     H14686  11.099   5.817   7.344 -3.9748  1.4392 -1.3678
  869MOL0     H14687  11.030   5.690   7.259  0.5660  0.1127  0.8945
  869MOL0     H14688  11.220   5.545   7.273  1.6616  0.2306 -0.2123
  869MOL0     H14689  11.221   5.624   7.424  3.7381 -0.5134  0.6138
  869MOL0     H14690  10.849   6.427   6.543 -1.9480  1.6804  0.3966
  869MOL0     H14691  10.783   6.659   6.582 -0.5758  0.0108  0.8333
  869MOL0     H14692  11.008   7.096   6.444 -3.2283 -3.7539 -0.4204
  869MOL0     H14693  10.978   7.340   6.453 -2.0085 -0.0997 -0.3439
  869MOL0     H14694   9.793   7.445   8.080  0.8079  3.4248  2.7446
  869MOL0     H14695   9.750   7.404   8.305  1.2624  2.4764  1.0053
  869MOL0     H14696   9.927   6.989   8.719 -0.0283  0.2025 -1.4492
  869MOL0     H14697   9.978   7.013   8.952 -0.5423  0.5483  0.2760
  869MOL0     H14698  10.141   7.221   9.211  2.2508 -1.4686 -1.8223
  869MOL0     H14699  10.144   7.121   9.091  0.2162  1.5928 -0.1956
  869MOL0     H14700   9.917   7.126   9.319 -2.3161 -2.4273  1.2371
  869MOL0     H14701   9.897   7.017   9.174  0.3566  1.4105 -1.5070
  869MOL0     H14702  10.088   7.008   9.406 -1.0780  0.9024 -0.0300
  869MOL0     H14703  10.099   6.894   9.270 -1.3734 -1.6618  0.6654
  869MOL0     H14704   9.879   6.808   9.297 -0.9184  1.6805 -0.8467
  869MOL0     H14705   9.968   6.787   9.447  2.8176 -0.7499 -2.9244
  869MOL0     H14706   9.661   7.030   9.586  1.8160  0.9253  0.4412
  869MOL0     H14707   9.868   7.423   8.941  3.2699 -0.2853  2.8235
  869MOL0     H14708   9.852   7.409   8.692  0.4778  0.9557  1.6392
  870MOL0     O14709   0.120   6.699   3.545  1.0178 -0.2141 -0.0746
  870MOL0     C14710   0.151   6.729   3.659  0.2125  0.5274  0.4211
  870MOL0     O14711   0.074   6.804   3.737 -0.3647  0.0036 -0.2224
  870MOL0     C14712  -0.020   6.897   3.694  0.6773 -0.0831  0.7161
  870MOL0     C14713  -0.073   6.962   3.801  0.7271 -0.6865 -0.1637
  870MOL0     C14714  -0.171   7.063   3.783  0.4065 -0.7574  0.9930
  870MOL0     C14715  -0.200   7.108   3.649  0.4236  0.3047  0.3042
  870MOL0     O14716  -0.295   7.205   3.624 -0.5980 -0.5072  0.5551
  870MOL0     C14717  -0.391   7.219   3.716 -0.2265 -0.3461  0.1390
  870MOL0     C14718  -0.518   7.295   3.655  0.0946  0.6908 -0.3802
  870MOL0     C14719  -0.622   7.320   3.767 -0.4208 -0.2918 -0.4701
  870MOL0     C14720  -0.718   7.435   3.710  0.1023  0.1522  0.3558
  870MOL0     C14721  -0.805   7.471   3.830 -0.2615 -0.1087  0.3764
  870MOL0     C14722  -0.926   7.385   3.870  0.0206  0.7090  0.4662
  870MOL0     C14723  -1.031   7.371   3.765  0.2317 -0.6274  0.5661
  870MOL0     C14724  -1.139   7.270   3.793  1.2473  0.8537 -0.2557
  870MOL0     N14725  -1.229   7.248   3.671  0.0009 -0.0680 -0.6693
  870MOL0     C14726  -1.184   7.233   3.549 -0.8558  0.2804  0.5740
  870MOL0     C14727  -1.297   7.217   3.467 -0.1861 -0.4214 -0.0253
  870MOL0     C14728  -1.311   7.187   3.323 -0.6022  0.3711  1.1383
  870MOL0     C14729  -1.359   7.052   3.285 -0.1498  0.6330  0.2737
  870MOL0     C14730  -1.444   7.031   3.148 -1.0888  0.6975 -1.1093
  870MOL0     C14731  -1.512   6.893   3.141  0.4484  0.0287  0.2791
  870MOL0     O14732  -1.657   6.891   3.141  0.0771  0.2562 -0.2066
  870MOL0     C14733  -1.694   6.762   3.187 -0.3593 -0.5604  1.2503
  870MOL0     C14734  -1.689   6.741   3.323 -0.1892  0.1288  0.3806
  870MOL0     C14735  -1.737   6.623   3.377  0.2128  0.7119 -0.0279
  870MOL0     C14736  -1.767   6.516   3.288  0.2156 -0.2335 -0.9658
  870MOL0     C14737  -1.781   6.380   3.339 -0.4351  0.7860 -0.6391
  870MOL0     O14738  -1.806   6.371   3.473  0.4410  0.0278  0.5208
  870MOL0     C14739  -1.841   6.247   3.527 -0.4256  0.5509 -0.0698
  870MOL0     C14740  -1.966   6.190   3.498 -0.6879 -0.4464 -0.5557
  870MOL0     C14741  -2.005   6.063   3.540 -0.0328  0.2568 -0.3018
  870MOL0     C14742  -1.922   5.986   3.621  0.1616 -0.0403 -0.1600
  870MOL0     O14743  -1.962   5.869   3.665  0.5692  0.1298  0.1440
  870MOL0     C14744  -1.867   5.773   3.714 -0.6744  0.8504  0.0485
  870MOL0     C14745  -1.937   5.649   3.758 -1.0648  0.2495  0.4810
  870MOL0     C14746  -1.924   5.528   3.658 -0.2616 -0.5088 -0.6196
  870MOL0     C14747  -1.908   5.394   3.736  0.4750 -0.0190 -0.0314
  870MOL0     C14748  -1.894   5.276   3.633 -0.3909 -0.3904 -0.2853
  870MOL0     C14749  -2.007   5.254   3.537 -0.0243  0.5009 -0.3975
  870MOL0     C14750  -2.070   5.120   3.544 -0.8297  0.0752 -0.8884
  870MOL0     C14751  -1.972   5.006   3.507  0.6662 -0.2215 -0.4110
  870MOL0    Cl14752  -2.038   4.851   3.569 -0.2070 -0.6423 -0.1712
  870MOL0     C14753  -1.803   6.050   3.661 -0.5312  0.5473  0.1521
  870MOL0     C14754  -1.756   6.170   3.615  0.2469  0.6340  0.7627
  870MOL0     O14755  -1.798   6.287   3.264 -0.5497  0.1499  0.4722
  870MOL0     C14756  -1.770   6.545   3.155  0.0566 -0.0769 -0.0083
  870MOL0     C14757  -1.724   6.665   3.094  0.0501  0.7686 -0.6448
  870MOL0     N14758  -1.407   7.215   3.549  0.4433  0.1442  0.6235
  870MOL0     N14759  -1.364   7.235   3.671  0.1333 -0.0679 -0.4708
  870MOL0     C14760  -0.152   7.032   3.545 -0.6455 -0.0867  0.0476
  870MOL0     C14761  -0.060   6.932   3.562  0.2245 -0.2534 -0.5669
  870MOL0     C14762   0.288   6.698   3.704 -0.2738 -0.4649  0.3362
  870MOL0     C14763   0.373   6.614   3.636 -0.4373  0.1530 -0.0410
  870MOL0     C14764   0.510   6.596   3.676 -0.4068  0.8092  0.7033
  870MOL0     C14765   0.562   6.665   3.789  0.4351 -0.3918 -0.3319
  870MOL0     O14766   0.694   6.631   3.819  0.2391 -0.4062 -0.3792
  870MOL0     C14767   0.726   6.641   3.963  0.4543 -0.5549 -0.7835
  870MOL0     C14768   0.870   6.600   3.997  0.4056  0.9968  0.1260
  870MOL0     C14769   0.972   6.694   3.929 -0.7049 -0.2659  0.6937
  870MOL0     C14770   1.113   6.652   3.953 -1.4320  0.1186  0.8922
  870MOL0     C14771   1.134   6.671   4.095 -0.6462  0.3194  0.1358
  870MOL0     C14772   1.173   6.672   4.214 -0.2714  0.6812 -0.3047
  870MOL0     C14773   0.462   6.738   3.876 -0.2111  0.1515  0.4315
  870MOL0     C14774   0.334   6.758   3.830 -1.0626  0.0992 -0.8175
  870MOL0     H14775  -0.040   6.933   3.900 -1.2775 -0.1234  0.7236
  870MOL0     H14776  -0.208   7.103   3.877 -2.6266 -1.6043  0.2867
  870MOL0     H14777  -0.356   7.270   3.806 -2.7772 -2.1028  2.2847
  870MOL0     H14778  -0.427   7.120   3.743 -1.0681 -1.5114 -4.3696
  870MOL0     H14779  -0.566   7.241   3.573 -2.4837  1.2252  0.6601
  870MOL0     H14780  -0.481   7.391   3.620  3.0993 -1.2611 -3.0194
  870MOL0     H14781  -0.571   7.357   3.857 -2.2458  1.8648 -0.2134
  870MOL0     H14782  -0.669   7.221   3.773 -0.8587 -0.0085  1.4971
  870MOL0     H14783  -0.666   7.519   3.665 -0.6450 -1.1464 -3.3204
  870MOL0     H14784  -0.772   7.381   3.631  1.7424 -0.3428 -0.4681
  870MOL0     H14785  -0.852   7.564   3.798  0.4279 -0.1175 -0.6840
  870MOL0     H14786  -0.737   7.487   3.914  0.8957  1.0056 -0.7400
  870MOL0     H14787  -0.976   7.432   3.955 -3.2432 -1.3520 -0.1381
  870MOL0     H14788  -0.894   7.287   3.908  0.6819  0.7098 -0.0646
  870MOL0     H14789  -1.084   7.467   3.764  0.9049 -0.2539 -0.4564
  870MOL0     H14790  -0.987   7.352   3.667 -0.0765  1.1568  0.0301
  870MOL0     H14791  -1.193   7.309   3.879  2.0998 -0.6424  0.9954
  870MOL0     H14792  -1.096   7.170   3.802 -3.8881 -1.8632 -1.7892
  870MOL0     H14793  -1.082   7.254   3.517 -0.1803  0.8912  2.8974
  870MOL0     H14794  -1.214   7.214   3.281 -2.1958  2.6462 -1.4397
  870MOL0     H14795  -1.392   7.256   3.296 -1.1802 -0.0308  1.8107
  870MOL0     H14796  -1.422   7.015   3.366  0.8862 -1.1728  0.3084
  870MOL0     H14797  -1.275   6.983   3.295  1.2922  2.5582  2.5874
  870MOL0     H14798  -1.514   7.114   3.154 -1.6886  0.1128  1.2474
  870MOL0     H14799  -1.378   7.051   3.063  1.1614  0.4383  0.4710
  870MOL0     H14800  -1.455   6.833   3.212 -0.0949 -0.7995  0.0339
  870MOL0     H14801  -1.472   6.846   3.050  3.7433  1.3086  0.9469
  870MOL0     H14802  -1.648   6.809   3.396  2.3840 -2.0681  1.1591
  870MOL0     H14803  -1.734   6.625   3.485  0.4068  3.2890 -0.0191
  870MOL0     H14804  -2.032   6.255   3.441  2.5211  2.1964 -1.5637
  870MOL0     H14805  -2.106   6.026   3.525  0.3973 -1.6749  1.1346
  870MOL0     H14806  -1.797   5.807   3.791  2.4178  1.2217 -2.7085
  870MOL0     H14807  -1.796   5.740   3.637  0.7136 -0.4764  1.8211
  870MOL0     H14808  -2.044   5.670   3.773 -0.7613  1.2515  1.3713
  870MOL0     H14809  -1.901   5.634   3.860 -0.7009  2.6839  0.7776
  870MOL0     H14810  -1.832   5.527   3.598  1.3332 -1.7391  1.7073
  870MOL0     H14811  -1.996   5.527   3.575 -1.1871 -2.4088  0.1532
  870MOL0     H14812  -1.821   5.405   3.801  0.9986  0.4212 -0.7931
  870MOL0     H14813  -1.997   5.370   3.795 -1.5956  2.7732 -1.7560
  870MOL0     H14814  -1.886   5.191   3.702 -0.9867 -0.8437 -0.7731
  870MOL0     H14815  -1.806   5.278   3.568 -1.4885 -2.9141 -1.9939
  870MOL0     H14816  -1.964   5.259   3.437 -4.3567 -1.5984 -2.6658
  870MOL0     H14817  -2.089   5.323   3.561 -1.0788 -0.9063  0.1491
  870MOL0     H14818  -2.115   5.112   3.643  0.0311 -0.5141 -0.5345
  870MOL0     H14819  -2.146   5.138   3.467 -1.0511  3.1303 -0.0817
  870MOL0     H14820  -1.874   5.031   3.548  2.2090  0.3018 -4.0561
  870MOL0     H14821  -1.963   4.991   3.399 -0.2412 -0.7814 -0.4147
  870MOL0     H14822  -1.742   5.995   3.732  0.8834 -0.2038 -1.5627
  870MOL0     H14823  -1.651   6.188   3.636  0.7780 -1.6736  0.2893
  870MOL0     H14824  -1.807   6.466   3.089 -3.9009 -0.8958  2.8262
  870MOL0     H14825  -1.740   6.679   2.988 -0.6251 -0.0615 -0.6618
  870MOL0     H14826  -0.178   7.065   3.445 -0.7579 -1.9847 -0.5841
  870MOL0     H14827  -0.006   6.890   3.478 -0.1305  2.0982 -2.0472
  870MOL0     H14828   0.339   6.563   3.547 -2.6204 -2.8014  2.2575
  870MOL0     H14829   0.570   6.524   3.622 -0.6840  0.4508  0.8704
  870MOL0     H14830   0.657   6.580   4.022  0.6653 -1.3327 -1.3300
  870MOL0     H14831   0.714   6.744   3.997  0.2463 -0.4016 -1.3161
  870MOL0     H14832   0.888   6.598   4.105 -0.0623 -0.5026  0.1956
  870MOL0     H14833   0.880   6.501   3.952 -1.7638  1.4071 -1.4337
  870MOL0     H14834   0.958   6.794   3.970 -1.5346 -1.0772  2.5100
  870MOL0     H14835   0.943   6.704   3.824 -0.0616 -1.0838  0.4228
  870MOL0     H14836   1.144   6.552   3.920  0.2108  1.7280 -2.9884
  870MOL0     H14837   1.182   6.715   3.898  0.3086 -1.0510  1.6581
  870MOL0     H14838   1.193   6.695   4.317 -2.1382 -0.1477  0.2692
  870MOL0     H14839   0.484   6.780   3.973  5.7690 -1.0375  0.0156
  870MOL0     H14840   0.262   6.809   3.893 -2.3891 -0.0145 -2.2116
  871MOL0     O14841   1.566   5.206   9.277  0.4152  0.0658  0.1376
  871MOL0     C14842   1.624   5.114   9.337  0.1014 -0.9216 -1.2751
  871MOL0     O14843   1.697   5.014   9.290 -0.1118 -0.5119  0.2553
  871MOL0     C14844   1.709   4.990   9.158 -0.3215  0.5842  0.2508
  871MOL0     C14845   1.822   4.916   9.122 -0.5136 -0.3655 -0.2685
  871MOL0     C14846   1.839   4.876   8.983 -0.2231  0.0122  0.4938
  871MOL0     C14847   1.744   4.908   8.892 -0.3721  0.2152  0.0956
  871MOL0     O14848   1.772   4.883   8.761  0.6129 -0.2463  0.1205
  871MOL0     C14849   1.656   4.874   8.669  0.5580 -0.3480 -0.2961
  871MOL0     C14850   1.701   4.792   8.553 -0.8163  0.7532 -1.1275
  871MOL0     C14851   1.778   4.857   8.441 -0.5566 -0.3076  0.5958
  871MOL0     C14852   1.922   4.883   8.474  0.4253  0.2359  0.7312
  871MOL0     C14853   2.017   4.929   8.355  0.4058 -0.2692  0.0402
  871MOL0     C14854   1.966   5.052   8.286 -0.4546  0.6475 -0.6494
  871MOL0     C14855   2.077   5.125   8.205  0.5894  0.5829 -0.2721
  871MOL0     C14856   2.189   5.183   8.298 -0.0238  0.2069 -0.2861
  871MOL0     N14857   2.271   5.269   8.218  0.1834 -1.0916  0.0780
  871MOL0     C14858   2.407   5.294   8.237 -1.0476 -0.2650  0.0028
  871MOL0     C14859   2.449   5.374   8.134  0.4217 -0.2413 -0.9153
  871MOL0     C14860   2.586   5.439   8.125 -0.0595  0.2499 -0.1317
  871MOL0     C14861   2.646   5.420   7.980  0.2092  0.4466 -1.1769
  871MOL0     C14862   2.664   5.283   7.927 -0.2934 -0.5073  0.7627
  871MOL0     C14863   2.782   5.215   7.985  0.0596 -1.2059  0.5055
  871MOL0     O14864   2.770   5.186   8.128  0.2704 -0.6130 -0.3327
  871MOL0     C14865   2.880   5.121   8.191  0.6596 -1.0417  0.4268
  871MOL0     C14866   2.852   5.105   8.329 -0.1840 -0.2714  0.8566
  871MOL0     C14867   2.951   5.035   8.409  0.1850 -0.1681  0.7226
  871MOL0     C14868   3.071   4.994   8.356  0.5929  0.4046  0.4119
  871MOL0     C14869   3.161   4.895   8.427 -0.1418 -0.9109 -0.4523
  871MOL0     O14870   3.246   4.832   8.347 -0.3187  0.0212  0.2775
  871MOL0     C14871   3.346   4.752   8.402  0.0197  0.1078  0.5809
  871MOL0     C14872   3.393   4.654   8.316 -0.9921 -0.4741 -0.0206
  871MOL0     C14873   3.498   4.569   8.362  0.6703  0.3332 -0.3952
  871MOL0     C14874   3.575   4.594   8.476  0.3730  0.0305  0.6613
  871MOL0     O14875   3.677   4.515   8.521 -0.2479 -0.0747 -0.5969
  871MOL0     C14876   3.782   4.500   8.416 -0.5829  0.2498 -0.9326
  871MOL0     C14877   3.878   4.621   8.434  0.4613 -0.2071  0.8274
  871MOL0     C14878   3.965   4.620   8.556 -1.1226 -0.2588 -1.1199
  871MOL0     C14879   4.000   4.758   8.616 -0.9005 -0.7728  0.6247
  871MOL0     C14880   3.913   4.773   8.747  0.2886 -0.3030  0.3203
  871MOL0     C14881   3.961   4.907   8.795  0.6541  1.0082  0.3154
  871MOL0     C14882   3.888   4.949   8.917 -0.6971 -0.2448  0.1652
  871MOL0     C14883   3.955   5.070   8.981  0.0634  0.8222 -0.3551
  871MOL0    Cl14884   3.832   5.131   9.100  0.4371  0.2667  0.1822
  871MOL0     C14885   3.523   4.698   8.560  0.2020  1.0928 -0.0248
  871MOL0     C14886   3.415   4.775   8.528 -0.8673 -0.7039  0.1326
  871MOL0     O14887   3.144   4.890   8.550  0.1186  0.8076 -0.3485
  871MOL0     C14888   3.101   5.043   8.227 -0.1394  0.8622  0.1457
  871MOL0     C14889   3.011   5.100   8.144  0.6446  0.5379  0.0817
  871MOL0     N14890   2.339   5.416   8.057  0.1079 -0.4863 -0.0698
  871MOL0     N14891   2.233   5.358   8.115 -0.5514  0.0997 -0.0484
  871MOL0     C14892   1.618   4.957   8.939 -0.0848  1.0227  0.4335
  871MOL0     C14893   1.608   5.004   9.066 -0.5900 -0.0626  0.2772
  871MOL0     C14894   1.614   5.109   9.488 -0.3289  0.3192  1.0421
  871MOL0     C14895   1.697   5.008   9.567  0.3169 -0.6447 -0.5089
  871MOL0     C14896   1.704   5.018   9.710  0.9288  0.3441  0.3887
  871MOL0     C14897   1.618   5.112   9.766 -0.7806 -1.2232 -0.3129
  871MOL0     O14898   1.611   5.132   9.900 -0.0296 -0.4780  0.2474
  871MOL0     C14899   1.737   5.170   9.954  0.4809 -0.5183 -1.0912
  871MOL0     C14900   1.709   5.273  10.079 -0.7368  1.1275  0.3232
  871MOL0     C14901   1.618   5.214  10.183  0.5261  0.2080  0.1520
  871MOL0     C14902   1.487   5.285  10.190 -0.3251  0.4010  0.0690
  871MOL0     C14903   1.373   5.213  10.257  0.0950 -0.6959 -0.3113
  871MOL0     C14904   1.293   5.160  10.330 -0.8357  0.2612 -0.8131
  871MOL0     C14905   1.541   5.200   9.695  0.2451  0.4720  0.3434
  871MOL0     C14906   1.528   5.184   9.559  0.2110  0.5156 -0.6732
  871MOL0     H14907   1.907   4.907   9.189 -0.8598 -2.9554 -0.0941
  871MOL0     H14908   1.933   4.829   8.956 -0.6405 -0.9436  0.6806
  871MOL0     H14909   1.628   4.974   8.633 -1.0384 -0.8715 -0.6032
  871MOL0     H14910   1.565   4.825   8.705 -0.7599  0.9826 -1.6378
  871MOL0     H14911   1.610   4.748   8.512 -0.4815 -0.7368 -0.3532
  871MOL0     H14912   1.760   4.713   8.600 -0.6216 -0.1668 -2.8461
  871MOL0     H14913   1.721   4.944   8.407  1.0458  0.0642 -1.3754
  871MOL0     H14914   1.776   4.791   8.353 -0.6286 -1.2794  1.3075
  871MOL0     H14915   1.928   4.965   8.546  2.4347  3.4092 -2.6781
  871MOL0     H14916   1.970   4.799   8.526  0.8799 -0.1254 -0.2388
  871MOL0     H14917   2.021   4.848   8.281  1.4082  0.0813 -0.3084
  871MOL0     H14918   2.119   4.934   8.395  2.5406 -2.6609 -4.2931
  871MOL0     H14919   1.926   5.114   8.366  3.0324 -0.7433  2.4395
  871MOL0     H14920   1.891   5.007   8.220  0.7920 -0.5307 -1.3141
  871MOL0     H14921   2.124   5.066   8.125  1.4757  1.9514 -0.7929
  871MOL0     H14922   2.023   5.204   8.151 -1.9668 -1.5148 -1.0046
  871MOL0     H14923   2.244   5.099   8.341 -2.4650  0.1636  3.1738
  871MOL0     H14924   2.135   5.221   8.385  1.4675  1.1667  0.2392
  871MOL0     H14925   2.464   5.266   8.324 -0.8910 -3.2347 -0.9426
  871MOL0     H14926   2.648   5.403   8.208 -1.5094 -0.0766  0.8520
  871MOL0     H14927   2.577   5.547   8.141 -0.8329 -0.0804  2.1017
  871MOL0     H14928   2.734   5.485   7.972  0.8612 -0.0240  1.3012
  871MOL0     H14929   2.567   5.452   7.911 -0.2491  0.1460 -0.7969
  871MOL0     H14930   2.574   5.222   7.942 -0.7357 -0.1054 -0.1723
  871MOL0     H14931   2.685   5.289   7.820  3.8206 -2.4016  1.2487
  871MOL0     H14932   2.867   5.284   7.995  0.3177 -1.5954  1.0736
  871MOL0     H14933   2.806   5.125   7.928 -0.6497 -2.5707  2.2700
  871MOL0     H14934   2.752   5.116   8.371  1.4074  2.4381  4.5603
  871MOL0     H14935   2.932   5.017   8.515  1.0081 -2.4406  0.5400
  871MOL0     H14936   3.345   4.633   8.221 -0.4423 -1.9582  0.0057
  871MOL0     H14937   3.532   4.492   8.294 -0.6093  2.1799 -3.3331
  871MOL0     H14938   3.742   4.485   8.316  1.0768 -0.3613 -1.5389
  871MOL0     H14939   3.844   4.411   8.433 -1.5388 -0.3455 -0.4416
  871MOL0     H14940   3.810   4.705   8.448  1.0599  0.8247 -1.8048
  871MOL0     H14941   3.950   4.631   8.352  1.9966  0.2116  2.1669
  871MOL0     H14942   4.057   4.573   8.521 -0.9118 -0.2252 -0.6269
  871MOL0     H14943   3.922   4.561   8.637 -0.7140  1.6212  0.5595
  871MOL0     H14944   4.109   4.767   8.625 -0.7515  1.4825 -1.9164
  871MOL0     H14945   3.977   4.837   8.544 -2.4270 -1.2166  0.6067
  871MOL0     H14946   3.941   4.698   8.822 -0.0491  1.9624  2.8488
  871MOL0     H14947   3.808   4.773   8.716 -0.1715 -3.8090  1.3627
  871MOL0     H14948   3.949   4.984   8.718  0.4708  0.3558 -0.3218
  871MOL0     H14949   4.067   4.888   8.812 -0.1500 -3.9725  1.3041
  871MOL0     H14950   3.788   4.981   8.889 -0.2382  1.1827  0.0732
  871MOL0     H14951   3.883   4.872   8.994 -1.0104 -1.4661 -1.0385
  871MOL0     H14952   3.971   5.155   8.914  0.1565  0.5980 -0.6191
  871MOL0     H14953   4.046   5.039   9.032 -0.2938 -2.6369 -1.5421
  871MOL0     H14954   3.574   4.713   8.655  0.6001  0.4493 -0.1322
  871MOL0     H14955   3.381   4.843   8.605 -0.1502 -1.2003  0.9180
  871MOL0     H14956   3.194   5.027   8.175 -1.6044 -1.0700 -2.0380
  871MOL0     H14957   3.033   5.136   8.044 -0.7272  0.7657 -0.1582
  871MOL0     H14958   1.529   4.964   8.877  0.4200 -2.0204 -0.8362
  871MOL0     H14959   1.506   5.035   9.090 -1.8594 -0.5383 -3.6551
  871MOL0     H14960   1.754   4.943   9.502 -1.7840 -0.1934 -2.9447
  871MOL0     H14961   1.766   4.950   9.767  1.5915  1.1994  0.7243
  871MOL0     H14962   1.796   5.226   9.880 -2.7151  1.0337 -2.6591
  871MOL0     H14963   1.801   5.088   9.987 -0.0204 -0.6134 -0.3562
  871MOL0     H14964   1.806   5.305  10.118  1.2115  0.0163 -3.2067
  871MOL0     H14965   1.674   5.365  10.031 -2.0860  0.1871 -0.5450
  871MOL0     H14966   1.673   5.226  10.277 -0.2362 -0.0051  0.6253
  871MOL0     H14967   1.596   5.110  10.160 -1.6554  0.8306 -0.7958
  871MOL0     H14968   1.506   5.373  10.252  2.0495  0.8745 -1.2263
  871MOL0     H14969   1.450   5.307  10.090  0.2449 -0.0754 -0.2522
  871MOL0     H14970   1.224   5.119  10.401 -3.4133  2.4161 -1.8792
  871MOL0     H14971   1.475   5.275   9.738 -2.1628  0.0088 -2.2403
  871MOL0     H14972   1.451   5.239   9.505 -1.8643 -0.9712  0.6335
  872MOL0     O14973   1.197   2.189  10.523 -1.3958 -1.0262 -0.3082
  872MOL0     C14974   1.203   2.093  10.443  0.2718 -0.3414  0.1325
  872MOL0     O14975   1.299   2.073  10.347  0.2594  0.2039  0.0144
  872MOL0     C14976   1.401   2.162  10.329  0.1139  0.4211  0.3452
  872MOL0     C14977   1.534   2.142  10.372 -0.1999 -0.2622  0.5706
  872MOL0     C14978   1.626   2.241  10.342 -0.8463 -0.0006  0.3579
  872MOL0     C14979   1.596   2.359  10.277  0.1338 -0.3780 -0.4473
  872MOL0     O14980   1.692   2.454  10.256  0.1616 -0.7843 -0.9182
  872MOL0     C14981   1.797   2.484  10.356 -0.5906  0.4233  0.1044
  872MOL0     C14982   1.932   2.423  10.317  0.9198  0.0419  0.2734
  872MOL0     C14983   2.055   2.478  10.385 -1.1519  0.2774 -1.2889
  872MOL0     C14984   2.039   2.430  10.533 -0.0273 -0.1414  0.3447
  872MOL0     C14985   2.154   2.482  10.620 -0.0829  0.0646 -0.0481
  872MOL0     C14986   2.166   2.414  10.759 -0.4908 -0.0396  0.0120
  872MOL0     C14987   2.269   2.485  10.847  0.1150 -0.2177 -0.6637
  872MOL0     C14988   2.230   2.510  10.990  0.7108 -0.1830 -0.5932
  872MOL0     N14989   2.252   2.381  11.064  0.8589 -0.1759  0.4248
  872MOL0     C14990   2.296   2.372  11.191  0.8556  0.6570  0.5827
  872MOL0     C14991   2.245   2.263  11.250  1.0614 -1.0442  0.8176
  872MOL0     C14992   2.270   2.217  11.386 -0.0164 -0.0324 -0.4636
  872MOL0     C14993   2.277   2.331  11.494  0.9681  0.9354 -0.3755
  872MOL0     C14994   2.149   2.321  11.555  0.2869  0.0322  0.0139
  872MOL0     C14995   2.030   2.389  11.482  0.3286 -0.1266 -0.8109
  872MOL0     O14996   2.060   2.525  11.446  0.4007 -0.8674  0.6464
  872MOL0     C14997   2.016   2.580  11.322  0.4968  0.4967  0.4765
  872MOL0     C14998   2.039   2.718  11.304 -0.1356 -0.4533 -0.2398
  872MOL0     C14999   1.995   2.783  11.189  0.7450  1.1623 -0.5125
  872MOL0     C15000   1.911   2.714  11.098 -1.5982 -0.2832 -0.1753
  872MOL0     C15001   1.846   2.792  10.981  0.4605 -0.5521  0.4005
  872MOL0     O15002   1.747   2.720  10.923 -0.3448 -0.1946  0.3354
  872MOL0     C15003   1.715   2.763  10.799 -0.1786  0.3882 -1.1322
  872MOL0     C15004   1.809   2.770  10.697 -0.4884  0.5926  0.3737
  872MOL0     C15005   1.769   2.824  10.576  0.2601 -0.2179 -0.0903
  872MOL0     C15006   1.639   2.876  10.556  0.3850 -0.4355  0.6162
  872MOL0     O15007   1.599   2.944  10.437  0.1207  0.5236  0.6991
  872MOL0     C15008   1.630   2.873  10.313 -1.1007  0.6400 -0.6864
  872MOL0     C15009   1.524   2.771  10.282 -0.2757  0.3143 -0.2776
  872MOL0     C15010   1.381   2.827  10.298  0.0641  0.3343 -1.2657
  872MOL0     C15011   1.343   2.953  10.211 -0.4564  1.0279  0.0875
  872MOL0     C15012   1.207   2.985  10.223 -0.7266 -0.9039 -0.6872
  872MOL0     C15013   1.189   3.128  10.238 -0.2969 -0.8695 -0.0602
  872MOL0     C15014   1.045   3.152  10.262  1.2603 -0.3654  0.0053
  872MOL0     C15015   1.000   3.286  10.201 -0.3155 -0.4918 -0.1205
  872MOL0    Cl15016   1.079   3.418  10.316 -0.2632  0.1619 -0.2075
  872MOL0     C15017   1.545   2.852  10.657  0.5814 -0.3404 -0.1654
  872MOL0     C15018   1.580   2.795  10.782 -0.1648 -0.4179 -1.2306
  872MOL0     O15019   1.877   2.906  10.947 -0.0523  0.9195  0.0454
  872MOL0     C15020   1.886   2.575  11.112  0.0210  0.3114 -0.4597
  872MOL0     C15021   1.949   2.509  11.216  0.0965 -0.2734  0.5523
  872MOL0     N15022   2.161   2.207  11.147 -0.6486 -0.9443  0.3327
  872MOL0     N15023   2.172   2.276  11.044 -0.0716  0.5034  0.6130
  872MOL0     C15024   1.466   2.386  10.228  1.4917 -0.2990  0.0072
  872MOL0     C15025   1.374   2.280  10.245 -0.0921 -0.1974  0.2433
  872MOL0     C15026   1.102   1.988  10.466 -0.1743 -0.6525 -0.0324
  872MOL0     C15027   1.097   1.875  10.372 -0.2188  0.2849 -1.0931
  872MOL0     C15028   1.000   1.786  10.388 -0.6698  0.3700  0.5011
  872MOL0     C15029   0.923   1.780  10.504 -0.2170 -0.0077 -0.0525
  872MOL0     O15030   0.839   1.670  10.534 -0.6070 -0.6810 -0.2452
  872MOL0     C15031   0.820   1.556  10.451  0.7028 -0.3895 -0.2044
  872MOL0     C15032   0.928   1.452  10.442 -0.9148  0.0324  0.1509
  872MOL0     C15033   0.897   1.313  10.389 -0.7782 -0.4914  0.2949
  872MOL0     C15034   0.808   1.216  10.472  0.2365 -0.4516 -0.8908
  872MOL0     C15035   0.789   1.092  10.402  0.0202 -0.1297 -0.6516
  872MOL0     C15036   0.784   0.984  10.347 -0.0622  0.6829 -1.2469
  872MOL0     C15037   0.922   1.883  10.598  0.0186  0.1836  0.2070
  872MOL0     C15038   1.014   1.993  10.575 -0.2173  0.1559  0.4790
  872MOL0     H15039   1.572   2.058  10.429  2.4306  2.1128  2.6703
  872MOL0     H15040   1.727   2.239  10.383 -0.6620  0.5983 -0.0554
  872MOL0     H15041   1.767   2.464  10.460  0.3335 -1.5557  0.0151
  872MOL0     H15042   1.810   2.593  10.356 -0.0203  0.3608  0.6208
  872MOL0     H15043   1.953   2.449  10.213 -4.5969 -2.9606 -2.0058
  872MOL0     H15044   1.919   2.316  10.334 -1.1481  0.5972  2.7828
  872MOL0     H15045   2.073   2.586  10.380 -1.1819  0.2966 -0.9855
  872MOL0     H15046   2.138   2.421  10.341 -0.6354  0.7449 -0.9323
  872MOL0     H15047   1.947   2.477  10.569 -0.0808  0.5318 -0.6439
  872MOL0     H15048   2.037   2.321  10.541 -0.9551 -0.2754 -1.2923
  872MOL0     H15049   2.139   2.589  10.640 -0.3206  0.1690 -0.7569
  872MOL0     H15050   2.250   2.469  10.570  0.1891  1.3938  0.0712
  872MOL0     H15051   2.184   2.306  10.750 -0.4277  0.0329 -0.8723
  872MOL0     H15052   2.071   2.414  10.811 -0.2210  0.2548  0.5070
  872MOL0     H15053   2.365   2.432  10.842  1.1454  1.4669  0.2877
  872MOL0     H15054   2.295   2.584  10.807  2.3915 -0.9157 -1.0869
  872MOL0     H15055   2.123   2.534  10.997  0.6917 -0.3461 -0.3060
  872MOL0     H15056   2.291   2.589  11.034 -0.2545 -0.0161  0.5077
  872MOL0     H15057   2.378   2.426  11.237  0.2053  2.0148  0.2029
  872MOL0     H15058   2.366   2.165  11.383 -1.6806 -3.3816 -1.5949
  872MOL0     H15059   2.200   2.135  11.404  1.6221 -1.3662  0.0990
  872MOL0     H15060   2.305   2.428  11.452  2.0333  0.7879 -0.0286
  872MOL0     H15061   2.361   2.304  11.559 -0.6236 -1.4549  0.8365
  872MOL0     H15062   2.111   2.222  11.580  0.5735  0.2425  1.3422
  872MOL0     H15063   2.160   2.382  11.645 -4.5483  2.8083 -0.8872
  872MOL0     H15064   1.948   2.379  11.554  1.2754 -4.5002 -0.0390
  872MOL0     H15065   1.999   2.322  11.401 -0.6338 -1.8791  0.9206
  872MOL0     H15066   2.094   2.766  11.385  1.5154  1.9885 -2.6499
  872MOL0     H15067   2.021   2.888  11.182 -0.9036  1.8823  2.5497
  872MOL0     H15068   1.905   2.723  10.717  0.4526  2.7876  1.3256
  872MOL0     H15069   1.829   2.851  10.489  1.9199 -0.5636  0.8886
  872MOL0     H15070   1.731   2.832  10.313 -0.6207  1.7109  1.4942
  872MOL0     H15071   1.621   2.945  10.231 -3.6825  1.4993  0.2576
  872MOL0     H15072   1.528   2.678  10.338 -2.4557 -0.3671 -1.1840
  872MOL0     H15073   1.548   2.745  10.178  1.1744 -3.5926  0.8892
  872MOL0     H15074   1.359   2.850  10.403 -4.2797  1.7899 -2.2525
  872MOL0     H15075   1.309   2.745  10.283 -2.8015  1.8988  2.2331
  872MOL0     H15076   1.410   3.034  10.240  0.2989  0.2189  0.6554
  872MOL0     H15077   1.374   2.936  10.108  1.9794  0.9935  0.7602
  872MOL0     H15078   1.165   2.940  10.313 -0.3300  0.3877  0.1773
  872MOL0     H15079   1.155   2.942  10.137 -1.1534 -1.8380  0.0105
  872MOL0     H15080   1.216   3.181  10.146  1.9394  1.9299  2.0021
  872MOL0     H15081   1.249   3.166  10.322 -2.2102 -1.0013  1.4507
  872MOL0     H15082   0.985   3.077  10.211  0.9033 -0.3008  0.3249
  872MOL0     H15083   1.023   3.161  10.369 -2.6787  3.2059 -0.8181
  872MOL0     H15084   0.891   3.288  10.197 -0.3658  0.3918  1.1085
  872MOL0     H15085   1.032   3.297  10.097 -0.0470 -0.8589 -0.0789
  872MOL0     H15086   1.449   2.901  10.668 -0.7182 -2.9587  1.3617
  872MOL0     H15087   1.518   2.800  10.871  1.8708  0.6195  0.2290
  872MOL0     H15088   1.837   2.512  11.038  0.7049  0.2063 -0.8238
  872MOL0     H15089   1.918   2.404  11.218  0.0419 -0.4199 -2.7134
  872MOL0     H15090   1.470   2.474  10.166  0.5495 -1.3519 -1.6212
  872MOL0     H15091   1.275   2.303  10.206  0.0039  0.6989  0.4988
  872MOL0     H15092   1.157   1.865  10.282 -1.3844  1.1673 -2.0028
  872MOL0     H15093   0.989   1.703  10.319  1.5113  1.2496 -1.0295
  872MOL0     H15094   0.797   1.586  10.348 -0.9545  0.1188  0.2928
  872MOL0     H15095   0.729   1.507  10.485 -1.4713  2.8615 -0.9158
  872MOL0     H15096   1.005   1.495  10.378 -1.5151  0.2979 -0.4041
  872MOL0     H15097   0.980   1.445  10.538 -2.1716 -1.9713  0.7500
  872MOL0     H15098   0.994   1.262  10.390 -0.7353 -0.4061  0.9368
  872MOL0     H15099   0.851   1.330  10.291 -0.7333 -0.7587  0.2257
  872MOL0     H15100   0.848   1.212  10.574  1.3623 -0.5971 -1.3336
  872MOL0     H15101   0.707   1.257  10.488  0.9077  1.0152 -0.2716
  872MOL0     H15102   0.789   0.891  10.294 -2.1387 -4.2788  5.7780
  872MOL0     H15103   0.856   1.879  10.684 -1.1519  2.2100 -0.5259
  872MOL0     H15104   1.015   2.084  10.635  2.1103  0.8372 -0.4669
  873MOL0     O15105   7.286   0.088  11.204 -0.4673  0.2540 -0.0401
  873MOL0     C15106   7.198   0.068  11.121  0.2527  0.4804  0.4541
  873MOL0     O15107   7.092   0.148  11.102  0.1132  0.5802 -0.2864
  873MOL0     C15108   7.085   0.268  11.165  0.1406  0.4131  0.0395
  873MOL0     C15109   7.102   0.280  11.300  0.3466  0.3786  0.2611
  873MOL0     C15110   7.101   0.409  11.357 -0.6921  0.5589  0.2445
  873MOL0     C15111   7.099   0.522  11.274  0.6931 -0.9676  0.2709
  873MOL0     O15112   7.126   0.655  11.312  0.4796  0.2971  0.4040
  873MOL0     C15113   7.217   0.665  11.417  0.2476  1.2886  0.5610
  873MOL0     C15114   7.246   0.819  11.436 -0.2695 -0.4185 -0.0860
  873MOL0     C15115   7.329   0.883  11.321 -0.3058  0.4239 -0.4520
  873MOL0     C15116   7.468   0.823  11.305 -0.2472  0.1119  0.8420
  873MOL0     C15117   7.533   0.841  11.166 -0.3673 -0.1305  0.0553
  873MOL0     C15118   7.674   0.796  11.169 -0.8015  0.4474  0.7847
  873MOL0     C15119   7.772   0.853  11.280 -0.0894  0.5740 -0.3833
  873MOL0     C15120   7.919   0.818  11.248  0.8909 -0.6636 -0.7545
  873MOL0     N15121   8.014   0.884  11.332 -0.1785 -0.0891  0.5249
  873MOL0     C15122   8.018   1.018  11.361 -0.3769 -1.0326 -0.7886
  873MOL0     C15123   8.091   1.027  11.473 -0.5097 -0.1714 -0.5309
  873MOL0     C15124   8.128   1.156  11.540 -0.2064 -0.1065 -0.8481
  873MOL0     C15125   8.141   1.126  11.703 -0.4428  0.2352  0.0104
  873MOL0     C15126   8.279   1.173  11.747  0.2535 -0.1363 -0.2472
  873MOL0     C15127   8.381   1.064  11.729 -0.4721 -0.7267  0.4177
  873MOL0     O15128   8.500   1.085  11.799 -0.0668  0.0607 -0.0749
  873MOL0     C15129   8.574   0.971  11.809 -1.4261 -0.2907  0.7028
  873MOL0     C15130   8.554   0.840  11.744  0.0240 -0.4734  0.3335
  873MOL0     C15131   8.624   0.722  11.777  0.2847  0.1095 -0.8657
  873MOL0     C15132   8.730   0.726  11.867  0.2927 -0.5088 -0.8023
  873MOL0     C15133   8.820   0.606  11.879  1.1113 -0.9827  0.1914
  873MOL0     O15134   8.914   0.612  11.968  0.5826 -0.8115  0.2605
  873MOL0     C15135   9.000   0.512  11.987  0.3309 -0.2043  0.5527
  873MOL0     C15136   9.071   0.460  11.887  0.0979 -0.2759  0.7130
  873MOL0     C15137   9.181   0.377  11.910  0.4092  0.1476  0.0276
  873MOL0     C15138   9.235   0.346  12.036  0.4034  0.3006 -0.0200
  873MOL0     O15139   9.344   0.269  12.060  0.4310 -0.5222  0.0302
  873MOL0     C15140   9.436   0.291  12.165  0.2926 -0.2526 -0.8516
  873MOL0     C15141   9.567   0.213  12.168  0.2467 -0.0155  0.1616
  873MOL0     C15142   9.643   0.222  12.308  0.8112  0.9032  1.4822
  873MOL0     C15143   9.771   0.145  12.309  0.7507 -0.1063 -0.3660
  873MOL0     C15144   9.792   0.073  12.442  1.0695  0.3344 -0.0044
  873MOL0     C15145   9.930   0.002  12.458  0.1812  0.6268  0.1941
  873MOL0     C15146   9.927  -0.033  12.615  0.2875 -0.3471 -0.7485
  873MOL0     C15147  10.037  -0.139  12.653  0.4172 -0.9241 -0.0574
  873MOL0    Cl15148  10.023  -0.295  12.563  0.2210 -0.2176  0.1251
  873MOL0     C15149   9.159   0.399  12.139  0.1791  0.1911 -0.0589
  873MOL0     C15150   9.052   0.485  12.118  0.4564 -0.1342  0.1952
  873MOL0     O15151   8.797   0.519  11.798  0.3995  0.4742 -0.5336
  873MOL0     C15152   8.760   0.852  11.938  0.0026  1.4145  1.1579
  873MOL0     C15153   8.680   0.964  11.903 -0.3362  0.4265  0.2813
  873MOL0     N15154   8.159   0.908  11.490  0.4397 -0.5618 -0.5481
  873MOL0     N15155   8.112   0.826  11.405  0.2948 -0.3788 -0.3884
  873MOL0     C15156   7.066   0.505  11.140  0.0097  0.6150  0.5451
  873MOL0     C15157   7.058   0.379  11.088 -0.5329  0.1732  1.0777
  873MOL0     C15158   7.221  -0.046  11.028  0.8355 -0.2247 -0.4116
  873MOL0     C15159   7.134  -0.062  10.916  0.1484  0.8762 -1.3808
  873MOL0     C15160   7.168  -0.160  10.819 -0.1299 -0.2714 -0.4558
  873MOL0     C15161   7.286  -0.243  10.834  0.1047 -0.7895  0.7866
  873MOL0     O15162   7.321  -0.342  10.752 -0.5979  0.2282  0.3426
  873MOL0     C15163   7.260  -0.341  10.625 -0.4235 -0.2648 -1.0029
  873MOL0     C15164   7.367  -0.384  10.530  0.1738 -0.2907  0.7838
  873MOL0     C15165   7.407  -0.534  10.551  0.7296  0.8689  0.2296
  873MOL0     C15166   7.508  -0.577  10.451 -0.1578  0.1927  0.1836
  873MOL0     C15167   7.452  -0.590  10.321  0.0745 -1.2210  0.3933
  873MOL0     C15168   7.394  -0.610  10.214 -0.5335 -1.0488 -0.0071
  873MOL0     C15169   7.351  -0.243  10.951 -0.0727  0.2193 -0.3871
  873MOL0     C15170   7.321  -0.142  11.041  0.8222  0.7704  0.3353
  873MOL0     H15171   7.089   0.188  11.355  1.2751 -0.8270 -1.4410
  873MOL0     H15172   7.101   0.421  11.465  0.7000 -0.4851  0.3980
  873MOL0     H15173   7.304   0.605  11.394 -4.0781 -4.7881 -2.6877
  873MOL0     H15174   7.171   0.621  11.507  0.4525  0.2256  0.1556
  873MOL0     H15175   7.294   0.836  11.533 -0.2694 -0.8994  0.0016
  873MOL0     H15176   7.151   0.872  11.435  0.1447  0.5163 -3.5507
  873MOL0     H15177   7.323   0.991  11.335 -2.2700  0.7665 -3.2563
  873MOL0     H15178   7.276   0.868  11.227  2.0173 -0.9064 -1.6584
  873MOL0     H15179   7.541   0.871  11.371  3.2428 -3.1433 -0.2572
  873MOL0     H15180   7.467   0.717  11.328 -4.0752  0.4785  3.0632
  873MOL0     H15181   7.529   0.942  11.125 -1.7129  0.0458  0.5783
  873MOL0     H15182   7.488   0.777  11.088  2.5963 -0.1926 -1.7655
  873MOL0     H15183   7.713   0.845  11.079  0.2962  2.4971  2.2878
  873MOL0     H15184   7.671   0.687  11.157 -1.6603  0.6671 -1.4195
  873MOL0     H15185   7.772   0.959  11.307  2.5859  0.1939  1.5610
  873MOL0     H15186   7.754   0.808  11.379 -1.3020  1.4071 -0.2003
  873MOL0     H15187   7.941   0.851  11.146 -2.1699  1.5355 -0.8306
  873MOL0     H15188   7.928   0.710  11.264  1.0150 -0.4255  0.9420
  873MOL0     H15189   7.967   1.098  11.307  0.1971 -0.8694 -1.0942
  873MOL0     H15190   8.056   1.237  11.526  0.4629  0.2061 -2.8899
  873MOL0     H15191   8.213   1.205  11.492  0.0669 -2.0977 -2.5639
  873MOL0     H15192   8.118   1.023  11.731 -0.2637  1.3384  5.3336
  873MOL0     H15193   8.062   1.176  11.760 -0.4797 -0.4503  0.5727
  873MOL0     H15194   8.313   1.268  11.703  1.1408 -0.6450 -0.6785
  873MOL0     H15195   8.284   1.199  11.853 -2.8020  0.4958 -0.1527
  873MOL0     H15196   8.406   1.067  11.623 -2.1682  3.1668 -0.0711
  873MOL0     H15197   8.340   0.965  11.748 -0.0086 -1.4431 -2.0084
  873MOL0     H15198   8.488   0.828  11.659 -2.2492 -0.9741  2.0693
  873MOL0     H15199   8.587   0.631  11.732 -0.1484 -1.1332  1.7706
  873MOL0     H15200   9.048   0.477  11.782  1.3890  2.2935  0.7668
  873MOL0     H15201   9.227   0.338  11.820  1.1827 -1.0656  0.9156
  873MOL0     H15202   9.383   0.262  12.256 -1.8087  1.1039 -1.5722
  873MOL0     H15203   9.455   0.399  12.169 -1.0143  0.0102 -1.2604
  873MOL0     H15204   9.622   0.254  12.083 -0.0666 -0.9858 -0.5305
  873MOL0     H15205   9.550   0.107  12.146 -0.7172  0.2596 -0.5004
  873MOL0     H15206   9.574   0.186  12.386 -2.8501  1.1996 -1.3303
  873MOL0     H15207   9.672   0.324  12.336 -0.8980  2.9203 -3.0679
  873MOL0     H15208   9.778   0.060  12.240  1.2207 -1.3948  1.2041
  873MOL0     H15209   9.846   0.224  12.302  0.5680  0.2295  1.0611
  873MOL0     H15210   9.710   0.001  12.451 -0.6088  2.0860 -0.6497
  873MOL0     H15211   9.780   0.142  12.526 -1.1811 -0.3032  0.2706
  873MOL0     H15212  10.023   0.052  12.428  1.5350 -1.9590 -0.1667
  873MOL0     H15213   9.943  -0.093  12.406  0.6592 -0.3585  1.9971
  873MOL0     H15214   9.921   0.053  12.682 -1.1250  0.6976 -2.1526
  873MOL0     H15215   9.833  -0.085  12.634 -0.2508 -0.0317 -2.3918
  873MOL0     H15216  10.059  -0.150  12.759  2.7499  2.4704 -0.0215
  873MOL0     H15217  10.131  -0.094  12.620  1.1936 -1.8017  0.9119
  873MOL0     H15218   9.177   0.371  12.243 -0.6998  1.6947  0.5271
  873MOL0     H15219   9.000   0.538  12.198  1.2653  2.1309 -0.7079
  873MOL0     H15220   8.844   0.848  12.007 -0.2719  0.5971  1.4555
  873MOL0     H15221   8.710   1.060  11.944 -0.3774  0.2240  0.7950
  873MOL0     H15222   7.060   0.596  11.081  1.7189  0.9897  0.8835
  873MOL0     H15223   7.022   0.358  10.988  0.3999  0.5966  0.6383
  873MOL0     H15224   7.049   0.005  10.918 -0.0898  0.5717 -0.7289
  873MOL0     H15225   7.108  -0.163  10.728  0.7825  1.6930 -1.1814
  873MOL0     H15226   7.210  -0.248  10.595 -0.2118  0.9721  2.1583
  873MOL0     H15227   7.179  -0.416  10.629 -1.5863  1.0044  0.3693
  873MOL0     H15228   7.322  -0.374  10.431 -2.6636  3.1878  2.1984
  873MOL0     H15229   7.449  -0.312  10.527 -1.4898  1.6682 -0.0473
  873MOL0     H15230   7.323  -0.602  10.563  2.4750 -1.1629  1.6565
  873MOL0     H15231   7.458  -0.540  10.648  0.1803  1.1038  0.5386
  873MOL0     H15232   7.585  -0.501  10.436  1.3504 -1.2928  0.0821
  873MOL0     H15233   7.562  -0.667  10.479 -0.3251  0.4804  1.4645
  873MOL0     H15234   7.368  -0.642  10.115  2.2519 -3.8181  0.0263
  873MOL0     H15235   7.437  -0.305  10.970  0.8064  1.0660 -1.5115
  873MOL0     H15236   7.358  -0.155  11.143  1.1402 -0.6761  0.0586
  874MOL0     O15237   6.459  10.732   6.684  0.2564  0.4170 -0.4872
  874MOL0     C15238   6.462  10.638   6.605 -0.4539  0.5169  0.2167
  874MOL0     O15239   6.477  10.502   6.637 -0.6687 -0.0024  0.1927
  874MOL0     C15240   6.522  10.471   6.763  0.3094  0.9357 -0.5700
  874MOL0     C15241   6.423  10.461   6.859 -0.3432 -0.2699  0.3567
  874MOL0     C15242   6.457  10.414   6.994  0.7691  0.5192  0.0530
  874MOL0     C15243   6.584  10.390   7.026  0.8619 -0.1529 -0.5347
  874MOL0     O15244   6.601  10.336   7.146  0.3473 -0.3931 -0.3868
  874MOL0     C15245   6.613  10.417   7.262 -0.0519 -0.2581 -0.6039
  874MOL0     C15246   6.542  10.330   7.362  0.1017 -0.1958  0.5185
  874MOL0     C15247   6.530  10.411   7.496  0.3712  0.7492  0.4462
  874MOL0     C15248   6.431  10.331   7.583  0.1557  0.1800  0.4321
  874MOL0     C15249   6.407  10.395   7.727  0.5511 -0.2529  0.5908
  874MOL0     C15250   6.541  10.382   7.798 -0.0380  0.0285 -0.1008
  874MOL0     C15251   6.521  10.370   7.945  0.3565 -0.2688 -0.0425
  874MOL0     C15252   6.506  10.223   7.986  0.2039  0.2068  0.0898
  874MOL0     N15253   6.472  10.206   8.130  0.3610 -0.6714  0.6313
  874MOL0     C15254   6.368  10.244   8.203  0.1631 -0.2030  1.0255
  874MOL0     C15255   6.382  10.204   8.328 -0.6348  0.0785 -0.3729
  874MOL0     C15256   6.283  10.241   8.436 -0.2080  0.2922  0.2096
  874MOL0     C15257   6.357  10.287   8.565 -0.0245  0.9012  0.5553
  874MOL0     C15258   6.272  10.365   8.664 -0.5632  0.3300 -0.5368
  874MOL0     C15259   6.163  10.300   8.745  1.0262  0.0983  0.4325
  874MOL0     O15260   6.049  10.271   8.653 -0.4047  0.2713 -0.0372
  874MOL0     C15261   5.967  10.175   8.712  0.4064 -0.2533  0.8942
  874MOL0     C15262   5.985  10.033   8.698  0.1918 -0.5276 -0.5182
  874MOL0     C15263   5.933   9.946   8.779  0.8092  0.3823 -0.3752
  874MOL0     C15264   5.832   9.983   8.867 -0.2755 -0.2515 -0.0930
  874MOL0     C15265   5.762   9.894   8.960  0.0757  0.4319  0.0913
  874MOL0     O15266   5.814   9.766   8.979  0.2793  0.0984  1.2849
  874MOL0     C15267   5.784   9.717   9.105 -0.8684  0.1599 -0.4218
  874MOL0     C15268   5.681   9.625   9.114  0.3351  0.0345 -0.8644
  874MOL0     C15269   5.654   9.578   9.244 -0.0733 -1.2825  0.4636
  874MOL0     C15270   5.729   9.616   9.363  0.1061 -0.1388  1.0481
  874MOL0     O15271   5.702   9.558   9.478 -0.1839  0.6006 -0.8406
  874MOL0     C15272   5.808   9.489   9.549 -0.1545 -0.6056  0.8635
  874MOL0     C15273   5.754   9.395   9.648 -0.5443  0.5276 -1.5610
  874MOL0     C15274   5.862   9.338   9.745 -1.2371 -0.7874 -0.8310
  874MOL0     C15275   5.817   9.232   9.846  0.4397 -0.7213 -0.0234
  874MOL0     C15276   5.925   9.187   9.944  0.0921  1.5214  0.3510
  874MOL0     C15277   5.920   9.041   9.977  0.3703  0.9117  0.0396
  874MOL0     C15278   5.786   9.004  10.038 -0.5130 -0.3090  0.1183
  874MOL0     C15279   5.797   8.897  10.146  0.7502  0.4470  0.0156
  874MOL0    Cl15280   5.834   8.740  10.067  0.3903 -0.6088 -0.2455
  874MOL0     C15281   5.829   9.706   9.345 -0.4574 -0.5049 -0.1897
  874MOL0     C15282   5.862   9.758   9.217 -0.1995  0.1947 -0.1499
  874MOL0     O15283   5.665   9.946   9.017  0.6235 -0.7864 -0.0667
  874MOL0     C15284   5.793  10.121   8.871  0.3973  1.2422  0.4326
  874MOL0     C15285   5.865  10.211   8.788  0.5007 -0.7650 -0.4992
  874MOL0     N15286   6.516  10.157   8.330 -0.1929  0.2492 -0.3523
  874MOL0     N15287   6.565  10.156   8.216  0.1707  0.8667 -0.2424
  874MOL0     C15288   6.687  10.412   6.928  0.2096 -0.3122  0.1541
  874MOL0     C15289   6.657  10.455   6.796  0.7238 -0.2481  0.3993
  874MOL0     C15290   6.443  10.679   6.467 -0.0566 -1.6475  0.4173
  874MOL0     C15291   6.445  10.589   6.360  0.2208  0.0219 -0.4663
  874MOL0     C15292   6.441  10.628   6.228  1.0392 -1.4860  0.8043
  874MOL0     C15293   6.427  10.773   6.193  0.3877 -0.6606 -0.8245
  874MOL0     O15294   6.416  10.831   6.069  0.2994 -0.3461 -0.5292
  874MOL0     C15295   6.427  10.752   5.952  0.3825 -0.4847  0.4054
  874MOL0     C15296   6.368  10.835   5.836 -0.5214  0.6854 -0.5323
  874MOL0     C15297   6.221  10.807   5.819 -1.2640  0.8792  0.0070
  874MOL0     C15298   6.166  10.849   5.685 -0.0394  0.7680 -0.7898
  874MOL0     C15299   6.022  10.868   5.690  0.0077 -0.4853 -0.2222
  874MOL0     C15300   5.901  10.893   5.678  0.1456 -0.3136 -0.4969
  874MOL0     C15301   6.409  10.862   6.306  0.4248 -0.9941  0.1072
  874MOL0     C15302   6.423  10.821   6.439 -0.3583 -0.1712 -0.3693
  874MOL0     H15303   6.318  10.473   6.835 -0.4013 -2.8124 -0.9782
  874MOL0     H15304   6.369  10.388   7.052  0.5841 -1.4923 -1.0680
  874MOL0     H15305   6.559  10.512   7.256  0.9482  0.7226  3.2406
  874MOL0     H15306   6.717  10.433   7.288  0.9193 -4.1398 -1.4135
  874MOL0     H15307   6.607  10.244   7.374  0.4324  0.3813  3.6157
  874MOL0     H15308   6.437  10.314   7.336 -0.5831  1.8727  1.7730
  874MOL0     H15309   6.480  10.507   7.478 -0.7757  0.0391 -0.2751
  874MOL0     H15310   6.627  10.437   7.539  0.5026  1.8858 -0.4596
  874MOL0     H15311   6.336  10.325   7.529  1.6598  1.8278 -2.7053
  874MOL0     H15312   6.458  10.228   7.605 -0.7695  0.3680  2.7106
  874MOL0     H15313   6.325  10.346   7.780 -0.1669 -0.8215 -0.9971
  874MOL0     H15314   6.378  10.501   7.725 -0.7856 -0.5996 -1.7998
  874MOL0     H15315   6.602  10.468   7.770  2.1790 -2.1158 -2.3571
  874MOL0     H15316   6.593  10.290   7.768 -0.4212 -1.2220  2.6730
  874MOL0     H15317   6.603  10.396   8.012  0.5479  1.0317 -0.7737
  874MOL0     H15318   6.422  10.411   7.969  0.5331 -0.5683  1.2788
  874MOL0     H15319   6.598  10.164   7.981 -0.1486 -0.2645 -1.4144
  874MOL0     H15320   6.429  10.178   7.922  0.5954  0.8676 -0.8661
  874MOL0     H15321   6.279  10.297   8.173 -1.3208 -0.7627  4.0781
  874MOL0     H15322   6.222  10.150   8.441  1.0020 -0.5193  1.0660
  874MOL0     H15323   6.218  10.321   8.402 -0.1925  0.3829  0.3979
  874MOL0     H15324   6.447  10.342   8.537 -0.0153 -0.3274 -2.1647
  874MOL0     H15325   6.391  10.194   8.613  1.5069  0.3234 -1.5412
  874MOL0     H15326   6.349  10.401   8.733  0.4396 -2.4755 -0.0472
  874MOL0     H15327   6.228  10.451   8.612 -0.9179  0.7178  0.3894
  874MOL0     H15328   6.120  10.363   8.823 -0.6622 -1.3225  0.7018
  874MOL0     H15329   6.201  10.210   8.794  1.5067  0.8580  1.4937
  874MOL0     H15330   6.070  10.004   8.638  0.3815  3.5222 -2.5656
  874MOL0     H15331   5.960   9.841   8.775  0.3635 -0.0218  3.2642
  874MOL0     H15332   5.616   9.599   9.031 -2.7671  1.3742  0.9599
  874MOL0     H15333   5.560   9.524   9.244 -1.2734  0.7100 -0.0155
  874MOL0     H15334   5.857   9.566   9.609 -2.2092  0.7567  0.9270
  874MOL0     H15335   5.886   9.460   9.478  0.6739  2.7616  0.1947
  874MOL0     H15336   5.722   9.317   9.578  0.8146 -0.1713 -1.4355
  874MOL0     H15337   5.674   9.426   9.716  0.7482 -0.1659  0.3459
  874MOL0     H15338   5.905   9.413   9.812 -4.5874 -0.9545  1.7408
  874MOL0     H15339   5.941   9.297   9.681  0.2497 -1.2847  1.1988
  874MOL0     H15340   5.746   9.288   9.909  2.8246  1.5716  0.8077
  874MOL0     H15341   5.776   9.150   9.787  0.7446  0.9887 -2.8237
  874MOL0     H15342   5.920   9.245  10.037 -1.9520  1.4003  0.3668
  874MOL0     H15343   6.018   9.212   9.893 -0.9607  0.5353 -2.1926
  874MOL0     H15344   6.000   9.034  10.051  0.8211  0.9925 -0.4312
  874MOL0     H15345   5.951   8.970   9.899 -0.2816 -1.3405  1.7232
  874MOL0     H15346   5.731   9.092  10.072 -0.7607  0.4674 -2.1254
  874MOL0     H15347   5.724   8.960   9.960 -0.6329 -1.3723  0.7961
  874MOL0     H15348   5.700   8.899  10.196 -0.6932  1.9017 -2.6624
  874MOL0     H15349   5.878   8.925  10.215  0.7472  1.4049 -0.3515
  874MOL0     H15350   5.890   9.730   9.432  1.5087  0.1190 -1.6749
  874MOL0     H15351   5.944   9.828   9.213 -1.0080  1.1253 -1.0385
  874MOL0     H15352   5.716  10.156   8.940  1.1993 -0.1960  2.1367
  874MOL0     H15353   5.836  10.316   8.780 -0.2935 -0.5792  2.9776
  874MOL0     H15354   6.790  10.389   6.956 -0.1696 -3.4357 -0.6752
  874MOL0     H15355   6.748  10.472   6.739  1.5084  0.7253  1.8763
  874MOL0     H15356   6.447  10.483   6.383  0.6324 -0.6975 -3.4265
  874MOL0     H15357   6.455  10.560   6.145  0.1394 -0.3806 -0.2810
  874MOL0     H15358   6.371  10.659   5.966 -1.8205  0.6726 -0.2151
  874MOL0     H15359   6.526  10.731   5.910  0.3112 -1.5021  0.7012
  874MOL0     H15360   6.399  10.938   5.851 -2.1157  1.1024  0.0699
  874MOL0     H15361   6.418  10.802   5.745 -1.5040 -3.2581  0.1360
  874MOL0     H15362   6.167  10.867   5.893 -2.8190 -1.4550  0.8848
  874MOL0     H15363   6.203  10.701   5.838  1.3827  0.3058 -0.2203
  874MOL0     H15364   6.224  10.934   5.647  0.7487  0.7767  0.3875
  874MOL0     H15365   6.186  10.763   5.620  1.3643 -0.6082  1.3442
  874MOL0     H15366   5.795  10.879   5.670  0.2137 -0.1675 -1.8731
  874MOL0     H15367   6.386  10.966   6.285  3.0157  0.6666  4.2943
  874MOL0     H15368   6.410  10.892   6.520 -1.0590 -1.1637  0.4285
  875MOL0     O15369   3.970   3.882   9.874  0.1853 -0.3237 -0.1314
  875MOL0     C15370   3.960   3.833   9.978 -0.1554  0.6582  0.2097
  875MOL0     O15371   3.991   3.702  10.011 -0.0111 -0.4843 -0.4375
  875MOL0     C15372   4.051   3.610   9.934  0.0562 -1.6313  0.8615
  875MOL0     C15373   3.998   3.485   9.948 -1.8142  0.5318 -0.6733
  875MOL0     C15374   4.054   3.385   9.867 -0.6577  0.1096  0.5421
  875MOL0     C15375   4.155   3.406   9.775  0.4528  1.3963 -1.9727
  875MOL0     O15376   4.181   3.294   9.693  0.0693 -0.5332  0.6263
  875MOL0     C15377   4.256   3.310   9.571 -0.2189 -0.4456 -0.5912
  875MOL0     C15378   4.293   3.171   9.531 -0.9207 -0.7039  0.0050
  875MOL0     C15379   4.412   3.117   9.620  0.7405  0.2676  0.0470
  875MOL0     C15380   4.460   2.983   9.568 -0.6763  0.3088  0.7999
  875MOL0     C15381   4.599   2.954   9.633  0.0731 -0.6929 -0.1999
  875MOL0     C15382   4.592   2.924   9.782 -0.0645  0.6674  0.1997
  875MOL0     C15383   4.715   2.841   9.827  0.0534 -0.9972 -0.2739
  875MOL0     C15384   4.680   2.772   9.958 -0.3679  0.3160  0.2518
  875MOL0     N15385   4.796   2.698  10.005  0.0024  0.0554 -0.2602
  875MOL0     C15386   4.797   2.561  10.030  0.7557 -0.0731 -0.2766
  875MOL0     C15387   4.929   2.539  10.049 -0.2407 -0.0272 -0.6817
  875MOL0     C15388   4.987   2.403  10.086 -0.2827  0.2369  0.3122
  875MOL0     C15389   5.034   2.336   9.964  0.4515  0.6073  0.2046
  875MOL0     C15390   4.923   2.248   9.906  0.1444 -1.2525 -0.1962
  875MOL0     C15391   4.941   2.163   9.776 -0.3055  0.0925 -0.0877
  875MOL0     O15392   5.009   2.037   9.803  0.2064 -0.4001 -0.1588
  875MOL0     C15393   5.000   1.949   9.698 -0.5983  0.4963  0.2398
  875MOL0     C15394   5.108   1.949   9.604  0.1319  0.3113  1.0106
  875MOL0     C15395   5.106   1.859   9.498  0.7424  0.2075  0.6447
  875MOL0     C15396   5.003   1.762   9.482 -0.2248 -0.6709  0.1808
  875MOL0     C15397   4.992   1.684   9.349  0.3212  0.4017 -0.1811
  875MOL0     O15398   5.102   1.676   9.261  0.1475 -0.5476 -0.1650
  875MOL0     C15399   5.104   1.614   9.138  0.0189  0.8092 -0.1740
  875MOL0     C15400   5.227   1.639   9.070  0.1095  0.3907 -0.7308
  875MOL0     C15401   5.252   1.568   8.954 -1.2200  0.2236 -0.3082
  875MOL0     C15402   5.166   1.481   8.894 -0.3760  0.0529 -0.0470
  875MOL0     O15403   5.207   1.421   8.779 -0.2512 -0.0121 -0.2880
  875MOL0     C15404   5.168   1.294   8.734  0.0305  0.0843 -0.7066
  875MOL0     C15405   5.273   1.238   8.635 -0.2050 -0.2903  0.6017
  875MOL0     C15406   5.241   1.092   8.587  0.2501 -0.1327  0.0320
  875MOL0     C15407   5.350   1.028   8.506 -0.0168  0.7022  0.9871
  875MOL0     C15408   5.334   0.877   8.499 -0.5598 -0.4063 -0.4096
  875MOL0     C15409   5.403   0.812   8.378 -0.6738 -0.5063  0.4299
  875MOL0     C15410   5.381   0.656   8.374 -0.4110 -0.0820  0.1428
  875MOL0     C15411   5.457   0.592   8.247  0.9039  0.0969  0.5733
  875MOL0    Cl15412   5.373   0.600   8.093 -0.1614 -0.1141  0.2222
  875MOL0     C15413   5.047   1.461   8.963  0.5762 -0.3702 -0.7431
  875MOL0     C15414   5.012   1.520   9.091 -0.1672 -0.4590  1.0438
  875MOL0     O15415   4.880   1.643   9.321 -0.2678 -0.2952  0.3744
  875MOL0     C15416   4.909   1.751   9.578  0.4603 -0.5301 -0.2836
  875MOL0     C15417   4.897   1.852   9.683  0.0527  0.4269 -0.1790
  875MOL0     N15418   5.006   2.650  10.025  0.1707  0.0664 -0.7245
  875MOL0     N15419   4.919   2.747  10.015  0.6221  0.0660 -0.1054
  875MOL0     C15420   4.206   3.536   9.769 -0.5526  0.5470  0.4153
  875MOL0     C15421   4.158   3.639   9.846  0.8291 -0.1363 -0.4145
  875MOL0     C15422   3.925   3.927  10.082  0.0418 -0.0197  0.3377
  875MOL0     C15423   3.985   4.054  10.086 -0.9002  0.0162 -0.2725
  875MOL0     C15424   3.966   4.145  10.196  0.1037 -0.7595  0.0557
  875MOL0     C15425   3.870   4.108  10.292 -0.3921  0.7654 -0.1620
  875MOL0     O15426   3.833   4.182  10.404 -0.3766  0.6375  0.0000
  875MOL0     C15427   3.893   4.306  10.441 -0.2437 -0.0247  0.1160
  875MOL0     C15428   3.810   4.361  10.557 -0.6504  0.0137  0.1309
  875MOL0     C15429   3.661   4.382  10.515 -0.1161 -0.6526  0.1998
  875MOL0     C15430   3.582   4.424  10.637  0.7995  0.3152 -0.3913
  875MOL0     C15431   3.580   4.320  10.733  0.0495 -0.7317 -0.6062
  875MOL0     C15432   3.587   4.238  10.822 -0.0506  0.0313  0.2319
  875MOL0     C15433   3.811   3.986  10.289 -0.3102  0.3214  0.1347
  875MOL0     C15434   3.835   3.887  10.189  0.0736 -0.2703  0.4274
  875MOL0     H15435   3.920   3.460  10.019 -3.4681  2.1301 -1.8309
  875MOL0     H15436   4.011   3.287   9.888 -2.3523  0.6844 -0.0464
  875MOL0     H15437   4.350   3.363   9.590 -0.5554 -0.1483  0.3206
  875MOL0     H15438   4.210   3.350   9.480 -2.1387 -0.4900  0.3100
  875MOL0     H15439   4.333   3.179   9.429 -3.6502  1.4703 -1.0334
  875MOL0     H15440   4.207   3.104   9.538 -1.7389  0.3779  0.6146
  875MOL0     H15441   4.375   3.115   9.723  0.4340 -0.6037 -0.0668
  875MOL0     H15442   4.500   3.182   9.621  0.7792  0.6225  5.5515
  875MOL0     H15443   4.388   2.901   9.563 -2.6352  1.9853 -3.1358
  875MOL0     H15444   4.484   2.995   9.461 -2.7527  1.5784  0.4220
  875MOL0     H15445   4.666   3.038   9.615 -0.3388 -0.2602  0.2510
  875MOL0     H15446   4.644   2.868   9.583  0.8581  0.0284 -0.7549
  875MOL0     H15447   4.496   2.872   9.792  0.5007 -0.4219  0.1693
  875MOL0     H15448   4.599   3.005   9.856  1.4342 -3.5456  5.3001
  875MOL0     H15449   4.725   2.766   9.748  0.2359  0.3539 -1.5833
  875MOL0     H15450   4.801   2.907   9.835  1.3051 -2.3194 -2.0665
  875MOL0     H15451   4.599   2.699   9.965  0.6791 -0.7196  2.5316
  875MOL0     H15452   4.672   2.858  10.024 -3.8445 -0.6066  1.2366
  875MOL0     H15453   4.717   2.494  10.063 -1.7413  2.0725 -1.6442
  875MOL0     H15454   4.930   2.344  10.158  1.0143 -1.5479 -0.0409
  875MOL0     H15455   5.072   2.434  10.148 -0.3886 -1.3251  1.2969
  875MOL0     H15456   5.115   2.264   9.981  1.3024  0.6365 -3.0054
  875MOL0     H15457   5.063   2.404   9.883  1.6349  0.1732  0.2548
  875MOL0     H15458   4.887   2.184   9.987  0.1329 -3.4305 -1.8458
  875MOL0     H15459   4.839   2.315   9.885 -1.4792 -3.2547 -0.3758
  875MOL0     H15460   4.989   2.218   9.695  2.1287 -0.3151  0.9764
  875MOL0     H15461   4.836   2.141   9.754 -0.0071 -0.1092 -1.3707
  875MOL0     H15462   5.195   2.010   9.627  0.4056 -0.2041  1.3546
  875MOL0     H15463   5.195   1.863   9.435  0.2881 -3.1914 -0.4142
  875MOL0     H15464   5.288   1.717   9.114  0.2637 -1.1531  2.0290
  875MOL0     H15465   5.350   1.592   8.914 -0.3185 -2.9346 -0.3037
  875MOL0     H15466   5.071   1.287   8.684  0.1982  0.1703 -1.0484
  875MOL0     H15467   5.171   1.233   8.825  0.5803  0.3235 -0.5604
  875MOL0     H15468   5.376   1.244   8.672 -0.0126 -1.3641  0.2764
  875MOL0     H15469   5.279   1.319   8.562  1.5627 -0.3767  0.6221
  875MOL0     H15470   5.148   1.075   8.532  1.6692  0.9074 -2.8922
  875MOL0     H15471   5.223   1.027   8.673 -2.5256 -0.5309 -0.7659
  875MOL0     H15472   5.328   1.063   8.405 -0.3713 -1.8328  0.1285
  875MOL0     H15473   5.453   1.060   8.523  0.3986  0.3506 -0.7271
  875MOL0     H15474   5.228   0.852   8.489  0.1890 -2.7513 -5.5700
  875MOL0     H15475   5.381   0.829   8.585  3.1448  1.3137 -1.3018
  875MOL0     H15476   5.510   0.821   8.397 -0.1057 -3.8495 -0.6124
  875MOL0     H15477   5.379   0.863   8.284  0.3920  0.1681  0.5011
  875MOL0     H15478   5.413   0.596   8.459  0.4054 -1.9587 -1.4025
  875MOL0     H15479   5.273   0.640   8.374 -0.6033  1.1106  1.1301
  875MOL0     H15480   5.473   0.486   8.270 -1.2417 -0.2660  0.5691
  875MOL0     H15481   5.552   0.647   8.243  0.6612  0.6765  2.0460
  875MOL0     H15482   4.978   1.387   8.924 -0.9292  0.3670  0.3961
  875MOL0     H15483   4.917   1.500   9.140 -0.4227 -0.9897  0.3533
  875MOL0     H15484   4.840   1.667   9.579 -0.2119  0.0010  1.2032
  875MOL0     H15485   4.810   1.849   9.749 -0.2033  2.4678 -0.3698
  875MOL0     H15486   4.289   3.560   9.703  1.6635 -4.6675  0.8060
  875MOL0     H15487   4.203   3.738   9.837 -1.1828  0.6799 -2.3186
  875MOL0     H15488   4.066   4.080  10.018  3.4781 -1.1234  3.9579
  875MOL0     H15489   4.024   4.236  10.204  0.5933 -1.0469 -0.1834
  875MOL0     H15490   3.906   4.384  10.366 -1.5804  0.5224  0.4234
  875MOL0     H15491   3.994   4.277  10.475 -0.6341 -1.6697 -0.0120
  875MOL0     H15492   3.813   4.300  10.648  2.4147 -0.6260 -0.2797
  875MOL0     H15493   3.839   4.462  10.589 -0.2995  0.3516 -1.1663
  875MOL0     H15494   3.631   4.282  10.480  2.4988 -1.6743  0.6458
  875MOL0     H15495   3.645   4.460  10.440 -2.8872  1.5242  2.8063
  875MOL0     H15496   3.631   4.517  10.666 -1.6636  1.3693  0.6920
  875MOL0     H15497   3.478   4.444  10.608 -0.9330 -2.7552  2.9818
  875MOL0     H15498   3.593   4.139  10.864  1.5795  0.2272  0.4962
  875MOL0     H15499   3.739   3.963  10.367 -1.7812  2.8931 -0.3434
  875MOL0     H15500   3.789   3.790  10.177  3.4214 -1.6521 -4.1157
  876MOL0     O15501   6.709   1.618   4.298  0.0287 -0.1185  0.0161
  876MOL0     C15502   6.678   1.526   4.375  0.6731  0.6716 -0.8989
  876MOL0     O15503   6.772   1.452   4.449  0.4848 -0.0441 -0.7252
  876MOL0     C15504   6.903   1.448   4.406  0.2021  0.0349 -0.4266
  876MOL0     C15505   6.926   1.384   4.287 -0.3227  0.3859 -0.0554
  876MOL0     C15506   7.047   1.377   4.224 -0.7765  0.0030  0.0562
  876MOL0     C15507   7.155   1.442   4.284  0.4730  0.1699 -0.5249
  876MOL0     O15508   7.277   1.431   4.225 -0.6819 -0.2132 -0.5782
  876MOL0     C15509   7.315   1.291   4.221 -0.3095  0.2069  0.2020
  876MOL0     C15510   7.458   1.284   4.261 -0.0136 -0.5669 -0.2586
  876MOL0     C15511   7.500   1.138   4.279  0.0848  0.3677 -0.0271
  876MOL0     C15512   7.652   1.126   4.279  0.5242 -1.4653  0.8010
  876MOL0     C15513   7.710   0.985   4.289 -0.3789  0.7928  0.7018
  876MOL0     C15514   7.850   0.969   4.218 -0.6213 -1.0581  0.7544
  876MOL0     C15515   7.930   0.840   4.253  1.2918  0.4503 -0.2001
  876MOL0     C15516   8.054   0.818   4.164 -0.5375  0.4755 -0.1236
  876MOL0     N15517   8.125   0.692   4.190  0.0823  0.5585  0.0579
  876MOL0     C15518   8.254   0.677   4.146  0.0156 -0.2113 -0.0209
  876MOL0     C15519   8.280   0.548   4.155 -0.3341 -0.2256  0.5640
  876MOL0     C15520   8.401   0.482   4.102  0.8630  0.1653 -1.0776
  876MOL0     C15521   8.513   0.484   4.204 -0.1073  1.0864  0.3242
  876MOL0     C15522   8.610   0.608   4.191  0.7052  0.6849  0.2057
  876MOL0     C15523   8.710   0.595   4.313 -0.1731 -0.6863  0.1256
  876MOL0     O15524   8.635   0.616   4.432  0.3006 -0.2074 -0.1179
  876MOL0     C15525   8.701   0.640   4.552 -0.7498  0.3535  0.9535
  876MOL0     C15526   8.608   0.659   4.653  0.1606  0.1576 -0.4828
  876MOL0     C15527   8.651   0.722   4.768 -0.4608  0.3894  0.7125
  876MOL0     C15528   8.785   0.744   4.794 -0.1591  0.5050  0.9562
  876MOL0     C15529   8.826   0.806   4.917 -0.1953  0.1566  0.1373
  876MOL0     O15530   8.741   0.889   4.984  0.8323 -0.2633  0.2210
  876MOL0     C15531   8.757   0.924   5.118 -0.0848  0.4209 -0.7024
  876MOL0     C15532   8.678   0.850   5.202  0.4797 -0.3087 -0.4362
  876MOL0     C15533   8.685   0.878   5.343 -0.8840  0.2357 -0.3349
  876MOL0     C15534   8.772   0.978   5.397 -0.4186 -0.1095 -0.4296
  876MOL0     O15535   8.769   1.037   5.523  0.3731  0.2776 -0.3940
  876MOL0     C15536   8.718   0.953   5.636  0.5524 -0.2733 -0.0574
  876MOL0     C15537   8.786   0.822   5.660 -0.1204 -0.0564  0.7778
  876MOL0     C15538   8.762   0.768   5.796  0.3259  0.5104  0.4223
  876MOL0     C15539   8.813   0.619   5.800 -0.2238 -0.0148 -0.0777
  876MOL0     C15540   8.830   0.583   5.948  0.6600  1.2542  1.1770
  876MOL0     C15541   8.692   0.579   6.035  0.2144 -0.4095 -0.0636
  876MOL0     C15542   8.716   0.530   6.181  0.5112  0.0335  0.8216
  876MOL0     C15543   8.735   0.641   6.284 -0.6937  0.1019  0.0650
  876MOL0    Cl15544   8.787   0.567   6.430 -0.1435 -0.2325 -0.0151
  876MOL0     C15545   8.859   1.035   5.311  0.3082 -0.4781  0.0341
  876MOL0     C15546   8.850   1.016   5.168 -0.3067  0.1131 -1.0830
  876MOL0     O15547   8.933   0.770   4.968 -0.1357 -0.0428 -0.1374
  876MOL0     C15548   8.881   0.712   4.693  0.1388  0.0798  0.1299
  876MOL0     C15549   8.836   0.674   4.570  0.1482 -0.1351  0.6693
  876MOL0     N15550   8.172   0.488   4.209 -0.5618  0.1597 -1.1479
  876MOL0     N15551   8.070   0.569   4.242  0.5123 -0.4120  0.0895
  876MOL0     C15552   7.141   1.500   4.408 -0.1078  0.3740  0.6299
  876MOL0     C15553   7.013   1.515   4.471  0.4897 -0.3242  0.0325
  876MOL0     C15554   6.531   1.497   4.387 -0.1068  0.3093  0.3079
  876MOL0     C15555   6.446   1.519   4.275  0.0268  1.1011  0.2266
  876MOL0     C15556   6.306   1.494   4.279  0.1213  0.7688  0.3607
  876MOL0     C15557   6.250   1.445   4.396 -1.2422  0.4891  0.6452
  876MOL0     O15558   6.113   1.418   4.392 -0.1031 -0.2182 -0.3495
  876MOL0     C15559   6.025   1.402   4.517 -0.8241  0.4343  0.2284
  876MOL0     C15560   5.958   1.522   4.569 -0.4846  0.5884  0.2758
  876MOL0     C15561   5.852   1.561   4.477 -0.8958 -0.9035 -0.4197
  876MOL0     C15562   5.800   1.702   4.496  0.5712  0.3127  0.3636
  876MOL0     C15563   5.741   1.722   4.629  0.1867  0.4329  0.0798
  876MOL0     C15564   5.703   1.736   4.741  0.6937  0.3157  1.2450
  876MOL0     C15565   6.338   1.414   4.507  0.4322  0.3787  0.0851
  876MOL0     C15566   6.477   1.434   4.498 -0.1681  0.3470 -0.6677
  876MOL0     H15567   6.843   1.339   4.233  1.8388 -3.6460 -0.3735
  876MOL0     H15568   7.069   1.333   4.127  2.5330 -2.3722  1.6697
  876MOL0     H15569   7.305   1.260   4.117  1.2329 -0.8906  0.3477
  876MOL0     H15570   7.249   1.225   4.278 -0.8870 -1.5904 -2.3603
  876MOL0     H15571   7.478   1.342   4.352  1.6860  0.6292 -1.3317
  876MOL0     H15572   7.513   1.334   4.180 -1.3526 -1.1203 -1.5561
  876MOL0     H15573   7.463   1.078   4.195  0.0439 -0.9025  0.8728
  876MOL0     H15574   7.478   1.096   4.377  1.2361 -0.1894  0.0059
  876MOL0     H15575   7.680   1.188   4.194 -0.6552  1.2564  2.2392
  876MOL0     H15576   7.693   1.178   4.367  2.0779 -2.2272  0.5539
  876MOL0     H15577   7.638   0.912   4.251  0.4127  1.0933 -1.5393
  876MOL0     H15578   7.716   0.967   4.396 -2.2771  2.0569  1.0740
  876MOL0     H15579   7.927   1.041   4.247 -2.8486  0.3446  3.6677
  876MOL0     H15580   7.841   0.976   4.109  1.5262 -4.5894  0.1665
  876MOL0     H15581   7.956   0.837   4.359  1.2935 -0.5236 -0.2168
  876MOL0     H15582   7.880   0.744   4.237  0.6075  0.6912  0.3882
  876MOL0     H15583   8.120   0.905   4.173  0.8689 -0.4360 -1.1881
  876MOL0     H15584   8.018   0.814   4.061 -0.5284 -1.7595 -0.0780
  876MOL0     H15585   8.311   0.751   4.091 -0.9538 -2.2426 -4.1654
  876MOL0     H15586   8.431   0.533   4.009 -1.8168  1.2385 -1.4335
  876MOL0     H15587   8.380   0.378   4.078  3.3643 -1.2844  2.2895
  876MOL0     H15588   8.581   0.402   4.179  2.2941  2.4842  1.8887
  876MOL0     H15589   8.479   0.483   4.308 -1.3993  0.5118 -0.0785
  876MOL0     H15590   8.648   0.615   4.089 -3.7304  1.5323 -1.6159
  876MOL0     H15591   8.555   0.702   4.206  0.4959  0.0671  4.5986
  876MOL0     H15592   8.782   0.673   4.289  1.4127 -1.7739  1.1253
  876MOL0     H15593   8.763   0.499   4.317 -0.1987 -0.6934  0.3346
  876MOL0     H15594   8.503   0.643   4.632 -0.3111  3.5739 -1.2435
  876MOL0     H15595   8.584   0.751   4.848  1.3828  1.5966  1.8959
  876MOL0     H15596   8.599   0.786   5.162  0.0955 -1.6527  2.2200
  876MOL0     H15597   8.601   0.849   5.406  0.2782  1.1926  1.7418
  876MOL0     H15598   8.612   0.932   5.621  0.3018  1.2392 -0.5716
  876MOL0     H15599   8.734   1.013   5.725 -3.7279  2.1320 -0.6604
  876MOL0     H15600   8.895   0.829   5.649  0.0627 -2.1680  0.8544
  876MOL0     H15601   8.737   0.747   5.598  0.3563  0.1485  0.1459
  876MOL0     H15602   8.656   0.791   5.814 -0.3223  0.2251 -2.4395
  876MOL0     H15603   8.816   0.825   5.870 -1.8661 -0.5391  3.0021
  876MOL0     H15604   8.732   0.564   5.750 -1.7960  2.4165 -0.3885
  876MOL0     H15605   8.904   0.596   5.743  0.5284  0.1506  1.0273
  876MOL0     H15606   8.890   0.661   5.995  0.3649  1.4756  1.1860
  876MOL0     H15607   8.873   0.483   5.960 -3.2457 -0.3596  4.1183
  876MOL0     H15608   8.620   0.514   5.985  0.4097  0.3290 -1.3642
  876MOL0     H15609   8.643   0.677   6.045 -2.5757 -1.6407 -0.5825
  876MOL0     H15610   8.637   0.460   6.210 -1.1161  2.1345  1.7118
  876MOL0     H15611   8.808   0.471   6.183  1.3491  1.0976 -1.8483
  876MOL0     H15612   8.648   0.706   6.299 -0.8457  0.2562 -1.3277
  876MOL0     H15613   8.823   0.700   6.257  1.3390 -2.1756  1.2810
  876MOL0     H15614   8.909   1.130   5.329  0.7279 -0.6666 -0.1350
  876MOL0     H15615   8.912   1.075   5.101  0.9383 -1.8869 -1.7999
  876MOL0     H15616   8.987   0.727   4.713  0.5029 -0.0270 -1.6237
  876MOL0     H15617   8.898   0.662   4.481 -1.2759  1.2497 -0.5704
  876MOL0     H15618   7.230   1.546   4.450 -1.8456  0.7165  4.3306
  876MOL0     H15619   6.992   1.560   4.568 -2.3446 -0.8487 -0.2725
  876MOL0     H15620   6.487   1.561   4.185 -0.5932  0.4905 -0.3554
  876MOL0     H15621   6.255   1.513   4.185  0.6837  0.3928 -0.0259
  876MOL0     H15622   6.087   1.371   4.602 -1.3220 -0.1653  0.3841
  876MOL0     H15623   5.956   1.319   4.498  0.5061 -0.8272  0.7115
  876MOL0     H15624   5.908   1.500   4.663  0.2212 -0.1535  0.4872
  876MOL0     H15625   6.043   1.591   4.577  0.4820 -0.0714 -2.7276
  876MOL0     H15626   5.776   1.485   4.497 -2.2879  1.0417  2.3817
  876MOL0     H15627   5.897   1.549   4.378  4.3042 -1.5892  1.7065
  876MOL0     H15628   5.872   1.783   4.484 -1.0706  2.0088  1.4480
  876MOL0     H15629   5.729   1.715   4.413 -0.0235 -1.0874  0.6330
  876MOL0     H15630   5.640   1.740   4.827 -1.7705  0.4020 -0.4428
  876MOL0     H15631   6.305   1.367   4.599  1.5819 -3.2340 -1.1322
  876MOL0     H15632   6.530   1.396   4.585 -0.3958  0.4076 -0.5026
  877MOL0     O15633   4.325   8.841   0.391  0.2288  0.6075 -0.7613
  877MOL0     C15634   4.422   8.904   0.345  0.7386 -0.1084 -0.5996
  877MOL0     O15635   4.477   9.013   0.399 -0.6484 -0.3185 -0.7182
  877MOL0     C15636   4.432   9.084   0.505  0.4307 -0.3361 -0.1659
  877MOL0     C15637   4.333   9.044   0.600  0.1287 -0.3333  0.0818
  877MOL0     C15638   4.304   9.117   0.717  0.2112  0.3103  0.1729
  877MOL0     C15639   4.371   9.234   0.736  0.4548  0.1876  0.6220
  877MOL0     O15640   4.343   9.324   0.834  0.0454 -0.1337  0.0311
  877MOL0     C15641   4.216   9.330   0.900 -1.1201  0.3744  0.3920
  877MOL0     C15642   4.212   9.471   0.967 -0.1457  0.3037  0.8611
  877MOL0     C15643   4.071   9.517   0.977  0.1718 -0.3372 -0.6370
  877MOL0     C15644   4.077   9.644   1.065 -0.0465  0.9942 -0.1945
  877MOL0     C15645   3.936   9.719   1.068  0.7786 -0.7915  0.8790
  877MOL0     C15646   3.928   9.820   1.187 -0.0378 -0.3900 -1.0177
  877MOL0     C15647   4.033   9.937   1.177  0.1095  0.6422  0.2191
  877MOL0     C15648   4.023  10.051   1.271 -0.7087 -0.4807 -0.1416
  877MOL0     N15649   4.045  10.030   1.412 -0.2389 -1.1215  0.2481
  877MOL0     C15650   4.163  10.023   1.479  0.8569  0.0735 -0.1350
  877MOL0     C15651   4.130   9.979   1.597 -0.3997  0.3777  0.0687
  877MOL0     C15652   4.241   9.949   1.716  0.8503  0.9955  0.5440
  877MOL0     C15653   4.311   9.817   1.681 -0.4096 -0.2922 -0.4335
  877MOL0     C15654   4.224   9.698   1.653  0.3030  0.2484  0.6435
  877MOL0     C15655   4.303   9.584   1.592  0.3517  0.0260  0.0011
  877MOL0     O15656   4.372   9.621   1.469  0.3027  1.1114 -0.8253
  877MOL0     C15657   4.409   9.523   1.387 -0.0313  0.0292 -0.1082
  877MOL0     C15658   4.488   9.579   1.286  0.6340 -0.6637  0.6584
  877MOL0     C15659   4.550   9.490   1.196  0.1637 -0.1247  0.6274
  877MOL0     C15660   4.518   9.352   1.199 -0.5593 -0.3483  0.5813
  877MOL0     C15661   4.597   9.258   1.119 -0.3920  0.1017  0.7906
  877MOL0     O15662   4.689   9.310   1.033  0.6259 -1.2769  0.3183
  877MOL0     C15663   4.767   9.241   0.941  0.9462  0.2937  0.0916
  877MOL0     C15664   4.849   9.322   0.860  0.0919  0.7014  0.2433
  877MOL0     C15665   4.930   9.277   0.755 -0.3675 -0.4300 -0.0565
  877MOL0     C15666   4.930   9.136   0.731  0.0341  0.9707 -0.4812
  877MOL0     O15667   4.999   9.087   0.619  1.0960  0.6978  0.1868
  877MOL0     C15668   5.005   8.948   0.600 -0.6395  0.2622  0.3224
  877MOL0     C15669   5.096   8.897   0.483 -0.3922 -1.1464 -0.0456
  877MOL0     C15670   5.159   8.768   0.540  0.1944  0.5034  0.5354
  877MOL0     C15671   5.258   8.692   0.456 -0.1042 -0.7925 -0.8031
  877MOL0     C15672   5.400   8.745   0.477 -0.7498 -0.8215  0.0034
  877MOL0     C15673   5.483   8.653   0.580  1.0674 -0.4987  0.1770
  877MOL0     C15674   5.623   8.697   0.605 -0.2505  0.1199  0.1541
  877MOL0     C15675   5.692   8.650   0.740  0.1536  0.0376 -0.3167
  877MOL0    Cl15676   5.689   8.473   0.759 -0.0231  0.1394 -0.3849
  877MOL0     C15677   4.847   9.047   0.818 -0.1989  0.1014  0.2069
  877MOL0     C15678   4.760   9.102   0.916 -0.6460 -0.3901  0.0502
  877MOL0     O15679   4.591   9.137   1.141  0.7065 -0.1845  0.0720
  877MOL0     C15680   4.419   9.305   1.282  0.1392  0.8880 -0.8484
  877MOL0     C15681   4.361   9.390   1.382  1.3642 -0.3962  0.1790
  877MOL0     N15682   3.993   9.977   1.605 -0.6385  0.5212  0.1917
  877MOL0     N15683   3.939  10.013   1.490  0.1006  0.8464  0.5478
  877MOL0     C15684   4.466   9.282   0.645 -0.2143  0.6199 -1.3934
  877MOL0     C15685   4.502   9.208   0.539 -0.5842  0.3920  0.8694
  877MOL0     C15686   4.458   8.850   0.210 -0.0963 -0.7424  0.1539
  877MOL0     C15687   4.507   8.928   0.107 -0.7172  0.0357 -0.2518
  877MOL0     C15688   4.528   8.882  -0.018  0.0168 -0.1110  0.2656
  877MOL0     C15689   4.501   8.748  -0.057  1.0949  0.5857 -1.0660
  877MOL0     O15690   4.508   8.712  -0.186  0.2041  0.3576  0.4309
  877MOL0     C15691   4.522   8.578  -0.240  0.7292 -0.2440  1.2457
  877MOL0     C15692   4.462   8.566  -0.383  0.3203  0.0077 -0.7551
  877MOL0     C15693   4.552   8.657  -0.479 -0.0755 -0.0542 -0.0793
  877MOL0     C15694   4.473   8.778  -0.536  0.2962 -0.2317  0.3406
  877MOL0     C15695   4.567   8.846  -0.622  0.6164 -0.2043 -0.3235
  877MOL0     C15696   4.639   8.913  -0.684 -0.5442 -0.6159 -0.2218
  877MOL0     C15697   4.475   8.659   0.055 -0.6572 -0.7746  0.2531
  877MOL0     C15698   4.447   8.721   0.180  0.5412  0.4798  0.2818
  877MOL0     H15699   4.280   8.950   0.605 -0.2002 -0.0909  1.7898
  877MOL0     H15700   4.234   9.078   0.790  0.5543  0.0680  0.3779
  877MOL0     H15701   4.213   9.256   0.981  1.0581  0.7844  0.9016
  877MOL0     H15702   4.129   9.300   0.841 -0.6588 -1.8406  0.7735
  877MOL0     H15703   4.271   9.545   0.912  5.0330 -4.0400 -0.3288
  877MOL0     H15704   4.249   9.468   1.069  2.3267 -0.7825  0.0050
  877MOL0     H15705   4.008   9.443   1.027 -0.2445  0.2376 -0.2851
  877MOL0     H15706   4.022   9.545   0.884  1.1400  0.9198 -0.7919
  877MOL0     H15707   4.115   9.602   1.159  1.1445 -0.9089 -1.4442
  877MOL0     H15708   4.156   9.711   1.031 -0.9823  3.4966  2.2455
  877MOL0     H15709   3.852   9.649   1.067  0.3019 -0.3132 -1.9753
  877MOL0     H15710   3.926   9.776   0.975 -1.0970 -3.9866 -1.0865
  877MOL0     H15711   3.940   9.755   1.275  1.0050  0.6589 -0.3586
  877MOL0     H15712   3.826   9.858   1.187 -0.4016 -1.3238 -0.5226
  877MOL0     H15713   4.135   9.904   1.199  0.2254  1.1498  0.4570
  877MOL0     H15714   4.028   9.964   1.071 -1.4544  2.2907  0.6619
  877MOL0     H15715   3.924  10.093   1.253 -0.7959 -0.6365 -0.0248
  877MOL0     H15716   4.102  10.123   1.246 -1.6700 -0.0937 -2.2650
  877MOL0     H15717   4.265  10.039   1.445  1.0480  0.9327  0.8249
  877MOL0     H15718   4.196   9.942   1.815  0.5448 -3.5087  0.3204
  877MOL0     H15719   4.302  10.039   1.718 -0.9754  2.4809 -2.6735
  877MOL0     H15720   4.370   9.806   1.773 -3.5397  0.4872  1.8041
  877MOL0     H15721   4.379   9.842   1.598 -0.6215  4.2437  0.5102
  877MOL0     H15722   4.166   9.677   1.744 -2.5852  0.2822 -1.0474
  877MOL0     H15723   4.151   9.721   1.575  0.5697  0.0379  0.3306
  877MOL0     H15724   4.232   9.503   1.576 -0.8392  1.0690 -0.0631
  877MOL0     H15725   4.378   9.547   1.662  0.0789  1.2092  0.9521
  877MOL0     H15726   4.505   9.686   1.291  1.9188 -0.8563  0.6023
  877MOL0     H15727   4.632   9.532   1.139 -0.4923 -0.2433 -0.4289
  877MOL0     H15728   4.841   9.429   0.876 -1.8014  0.4115  1.6202
  877MOL0     H15729   4.992   9.345   0.697  0.8050 -0.8339  0.6931
  877MOL0     H15730   4.905   8.910   0.575 -0.3629  0.2386 -0.8337
  877MOL0     H15731   5.041   8.911   0.696  0.6720 -0.6947 -0.5081
  877MOL0     H15732   5.170   8.974   0.460 -0.1612 -0.9110  1.4063
  877MOL0     H15733   5.031   8.876   0.397 -1.6276  2.1862 -0.0454
  877MOL0     H15734   5.081   8.692   0.554  0.1977  0.3356 -0.2920
  877MOL0     H15735   5.201   8.786   0.639  0.2672  1.7008  0.2937
  877MOL0     H15736   5.257   8.587   0.488 -2.6182  0.5433  4.6491
  877MOL0     H15737   5.224   8.700   0.352  0.6342  0.9657 -0.9420
  877MOL0     H15738   5.396   8.850   0.506  3.7295 -0.3827 -0.2013
  877MOL0     H15739   5.449   8.752   0.380 -0.7527  0.1699  0.0611
  877MOL0     H15740   5.489   8.550   0.544 -0.1490 -0.1953 -0.9865
  877MOL0     H15741   5.436   8.639   0.678 -0.3979 -0.5616 -0.5052
  877MOL0     H15742   5.676   8.648   0.523 -1.2918  0.1757 -0.5791
  877MOL0     H15743   5.637   8.806   0.606  0.4177  0.0741  2.3801
  877MOL0     H15744   5.644   8.707   0.820  1.4990  1.3311 -0.3739
  877MOL0     H15745   5.795   8.686   0.741  1.2992 -2.8005  2.7262
  877MOL0     H15746   4.832   8.941   0.800 -0.0672 -0.2107  1.8122
  877MOL0     H15747   4.701   9.036   0.978 -1.5897 -1.6100 -2.0359
  877MOL0     H15748   4.369   9.210   1.268 -2.3780  1.8496  0.8443
  877MOL0     H15749   4.279   9.342   1.436 -0.0242 -2.0426 -3.0967
  877MOL0     H15750   4.518   9.376   0.662  1.5920 -0.5279 -0.2133
  877MOL0     H15751   4.586   9.248   0.482 -0.6966  0.3484  0.6710
  877MOL0     H15752   4.522   9.036   0.111 -0.9565  0.0507  0.2560
  877MOL0     H15753   4.571   8.944  -0.097 -0.1345  2.9511  2.4425
  877MOL0     H15754   4.477   8.500  -0.178 -1.0141  0.2988  0.7184
  877MOL0     H15755   4.628   8.551  -0.245  1.1027  1.2759 -0.0553
  877MOL0     H15756   4.465   8.464  -0.421 -2.9533 -0.3350 -0.3607
  877MOL0     H15757   4.355   8.587  -0.385 -0.1537 -1.7429  1.5080
  877MOL0     H15758   4.587   8.597  -0.564 -3.6143 -0.3012 -1.5336
  877MOL0     H15759   4.640   8.698  -0.428 -1.7914  2.0909  1.3550
  877MOL0     H15760   4.379   8.746  -0.583  1.5304  0.5620 -2.9389
  877MOL0     H15761   4.445   8.849  -0.458 -0.7643  0.5486 -0.7044
  877MOL0     H15762   4.713   8.984  -0.714 -2.3573  1.3384 -0.2892
  877MOL0     H15763   4.457   8.552   0.041 -2.0339 -0.7127  1.3286
  877MOL0     H15764   4.398   8.660   0.255 -2.4700  3.1529  0.6905
  878MOL0     O15765  10.012   6.192   7.482  0.2025 -0.7117  0.3790
  878MOL0     C15766   9.950   6.242   7.570  0.7193 -0.3215 -0.3219
  878MOL0     O15767   9.910   6.365   7.582 -0.1055  0.1781  0.3250
  878MOL0     C15768   9.958   6.453   7.492 -0.4155 -0.3057  0.9560
  878MOL0     C15769   9.856   6.528   7.418  0.4836 -1.2672 -0.9640
  878MOL0     C15770   9.894   6.628   7.324 -0.4049 -0.4506  0.0126
  878MOL0     C15771  10.029   6.650   7.300 -0.5120  0.4422  0.3902
  878MOL0     O15772  10.049   6.742   7.204  0.1688 -0.2097 -0.1280
  878MOL0     C15773  10.165   6.740   7.132 -1.3261 -0.2735  0.3582
  878MOL0     C15774  10.144   6.828   7.006  0.0592 -0.6720  0.1555
  878MOL0     C15775  10.028   6.790   6.917 -0.9571  0.6859  0.2151
  878MOL0     C15776   9.987   6.900   6.827  0.8989 -0.0645 -0.1959
  878MOL0     C15777  10.077   6.922   6.702  0.3475  0.2714 -0.6315
  878MOL0     C15778  10.153   7.054   6.709  0.7513  0.3364 -0.2845
  878MOL0     C15779  10.079   7.195   6.708 -0.5740  0.0667  0.1774
  878MOL0     C15780  10.170   7.307   6.669 -0.2845 -0.1352 -0.6185
  878MOL0     N15781  10.277   7.329   6.772 -0.0909  0.5661 -0.9642
  878MOL0     C15782  10.277   7.303   6.908 -0.3941 -0.5275 -0.6807
  878MOL0     C15783  10.399   7.336   6.959 -0.2165  0.7490 -0.4709
  878MOL0     C15784  10.442   7.300   7.096  0.5576  0.5801  0.1645
  878MOL0     C15785  10.355   7.341   7.209  0.0786  1.1295  0.2556
  878MOL0     C15786  10.425   7.284   7.342  0.1042  0.4893  0.2145
  878MOL0     C15787  10.347   7.171   7.426  0.5144  0.6268  0.8934
  878MOL0     O15788  10.384   7.185   7.567 -0.0356  0.1002  0.0485
  878MOL0     C15789  10.512   7.200   7.615 -0.1213 -0.8220 -0.8152
  878MOL0     C15790  10.625   7.148   7.552 -0.8922 -0.6300  0.4892
  878MOL0     C15791  10.752   7.180   7.594  0.2680 -0.3981  0.9034
  878MOL0     C15792  10.773   7.258   7.709  0.4541 -1.4842 -0.4929
  878MOL0     C15793  10.904   7.303   7.771  0.2919 -0.1092  0.3164
  878MOL0     O15794  11.011   7.248   7.709  0.2095  0.1520 -0.5488
  878MOL0     C15795  11.139   7.241   7.763  0.2193  0.6728  0.4077
  878MOL0     C15796  11.183   7.272   7.893  0.3967 -0.7520  0.3646
  878MOL0     C15797  11.308   7.245   7.948  1.1151  0.1640  1.2537
  878MOL0     C15798  11.396   7.167   7.864  0.0500  0.2088  0.6050
  878MOL0     O15799  11.518   7.119   7.896 -0.2041  0.8858  0.6363
  878MOL0     C15800  11.570   7.165   8.028 -0.1401 -0.1832  0.4296
  878MOL0     C15801  11.692   7.083   8.067 -0.4151  0.0807  0.7006
  878MOL0     C15802  11.804   7.144   7.993 -0.1052  0.1297 -0.1992
  878MOL0     C15803  11.940   7.077   8.020  0.7748  0.3617 -0.3953
  878MOL0     C15804  12.062   7.133   7.953  0.0433 -0.3023 -0.0294
  878MOL0     C15805  12.167   7.034   7.955  0.3312 -0.2069  0.2487
  878MOL0     C15806  12.163   6.930   7.845 -0.1663  0.3865 -0.3141
  878MOL0     C15807  12.296   6.863   7.837  0.3411 -0.5722 -0.2173
  878MOL0    Cl15808  12.278   6.730   7.726  0.3153 -0.2091 -0.1591
  878MOL0     C15809  11.353   7.131   7.735  0.2523  0.3561 -0.6904
  878MOL0     C15810  11.228   7.162   7.686  0.7224  0.3288 -0.1075
  878MOL0     O15811  10.902   7.387   7.862 -0.4137 -0.2307  0.1088
  878MOL0     C15812  10.657   7.293   7.787  0.5941  0.1892 -0.1787
  878MOL0     C15813  10.528   7.276   7.733 -0.4000 -0.9170  0.9654
  878MOL0     N15814  10.478   7.367   6.852  0.8381  0.4228  0.4854
  878MOL0     N15815  10.404   7.374   6.746  0.0973 -0.3259 -0.4298
  878MOL0     C15816  10.130   6.579   7.375  0.0551  0.6174  0.6692
  878MOL0     C15817  10.089   6.482   7.465 -0.5653  0.3632  0.1741
  878MOL0     C15818   9.891   6.147   7.673 -0.2334 -0.9050  0.4476
  878MOL0     C15819   9.902   6.004   7.656  0.6529 -0.6906  0.4970
  878MOL0     C15820   9.862   5.915   7.745  0.4918 -0.3447  0.0003
  878MOL0     C15821   9.798   5.970   7.864 -0.6092  0.6864 -0.4825
  878MOL0     O15822   9.747   5.872   7.952 -0.0336  0.2991  0.3197
  878MOL0     C15823   9.615   5.897   8.009  0.0467 -0.2534 -0.0054
  878MOL0     C15824   9.604   5.815   8.138  0.1210  0.9773  0.4315
  878MOL0     C15825   9.690   5.865   8.253 -0.1662  0.2323 -0.1567
  878MOL0     C15826   9.676   5.773   8.376  0.4795  0.5876 -0.1741
  878MOL0     C15827   9.544   5.785   8.443 -1.4792 -1.0175  0.3388
  878MOL0     C15828   9.438   5.794   8.490  0.6246 -0.3574 -0.2329
  878MOL0     C15829   9.792   6.113   7.884 -0.3734  0.0522  1.0953
  878MOL0     C15830   9.833   6.202   7.791  0.2960 -0.7172  1.1963
  878MOL0     H15831   9.750   6.519   7.440  0.0798  0.2745 -2.1023
  878MOL0     H15832   9.832   6.695   7.265  3.0703  1.6919 -1.5299
  878MOL0     H15833  10.177   6.638   7.095 -0.1694 -0.5398  1.4045
  878MOL0     H15834  10.250   6.774   7.192 -1.5375  3.1926 -1.0578
  878MOL0     H15835  10.244   6.841   6.965  0.5714 -0.3961  1.4305
  878MOL0     H15836  10.121   6.924   7.054  1.4546 -0.4801  0.4844
  878MOL0     H15837   9.952   6.770   6.993 -0.8344  1.0801  0.4380
  878MOL0     H15838  10.030   6.697   6.858 -3.5994  0.7653 -0.1369
  878MOL0     H15839   9.893   6.879   6.775 -0.6011  4.4827  0.2397
  878MOL0     H15840   9.962   6.992   6.880 -3.2841 -1.2368  0.2538
  878MOL0     H15841  10.015   6.919   6.612 -1.0084  1.1507  0.2202
  878MOL0     H15842  10.142   6.835   6.693 -0.0472  0.2120 -3.7204
  878MOL0     H15843  10.221   7.057   6.623  1.5673 -1.1349  0.2777
  878MOL0     H15844  10.214   7.054   6.800  1.4291  1.1232 -0.7186
  878MOL0     H15845   9.995   7.193   6.637  0.0856  3.7358 -0.9619
  878MOL0     H15846  10.040   7.217   6.808  1.9965  1.4216  0.9732
  878MOL0     H15847  10.110   7.399   6.666 -0.6814 -0.2525  1.6746
  878MOL0     H15848  10.223   7.292   6.575 -0.7189 -4.1532 -0.3806
  878MOL0     H15849  10.200   7.259   6.970  0.1113  1.4017  1.4665
  878MOL0     H15850  10.542   7.340   7.113  0.8692 -0.2977  0.4205
  878MOL0     H15851  10.447   7.191   7.094 -0.0868  0.2590  4.8800
  878MOL0     H15852  10.261   7.288   7.193 -1.0186  2.9451  0.3711
  878MOL0     H15853  10.342   7.448   7.229  1.7816  1.5679 -0.8065
  878MOL0     H15854  10.526   7.248   7.320  1.3011  2.1541  2.6276
  878MOL0     H15855  10.440   7.364   7.414  0.5795  1.0000 -0.4413
  878MOL0     H15856  10.376   7.071   7.392 -4.0107 -0.9920  1.0735
  878MOL0     H15857  10.240   7.187   7.411  0.4070 -0.6403  0.1333
  878MOL0     H15858  10.620   7.099   7.455 -0.2671  1.2472 -0.5597
  878MOL0     H15859  10.836   7.127   7.550 -1.4606 -2.1428 -0.4091
  878MOL0     H15860  11.119   7.332   7.956  0.5828  1.6643 -1.5837
  878MOL0     H15861  11.335   7.280   8.047  2.5982 -0.3770  1.0616
  878MOL0     H15862  11.505   7.133   8.110  0.2415  0.4091  0.9677
  878MOL0     H15863  11.583   7.274   8.026  0.4270 -0.2342  1.0218
  878MOL0     H15864  11.684   6.976   8.048 -0.7478  0.4386 -1.4041
  878MOL0     H15865  11.719   7.094   8.173  1.3821  1.8080  0.1310
  878MOL0     H15866  11.818   7.249   8.019 -1.3174  0.3725 -0.5023
  878MOL0     H15867  11.778   7.143   7.887 -0.1321  1.0035 -0.2061
  878MOL0     H15868  11.943   7.089   8.128 -1.3735  0.5087 -0.3034
  878MOL0     H15869  11.934   6.972   7.993  2.9127  0.3359 -0.9800
  878MOL0     H15870  12.081   7.224   8.010  0.0065  0.6230 -1.4683
  878MOL0     H15871  12.063   7.166   7.849  0.6481 -0.2663 -0.0131
  878MOL0     H15872  12.156   6.981   8.050 -1.4531 -1.1626 -0.4449
  878MOL0     H15873  12.268   7.077   7.957  0.8727 -1.3493 -0.9132
  878MOL0     H15874  12.092   6.849   7.865  1.0891 -0.0831  2.6974
  878MOL0     H15875  12.136   6.979   7.751 -3.6778 -1.3826 -0.3961
  878MOL0     H15876  12.329   6.837   7.938 -1.5861  2.2744  1.2840
  878MOL0     H15877  12.365   6.935   7.792  3.7025 -3.5256 -0.2848
  878MOL0     H15878  11.428   7.073   7.682  3.2208  3.5665 -0.3923
  878MOL0     H15879  11.203   7.123   7.588  1.7652 -1.5479  0.3269
  878MOL0     H15880  10.654   7.347   7.881 -0.3438 -0.8611  0.4077
  878MOL0     H15881  10.438   7.316   7.778 -1.0122 -1.7525  0.4917
  878MOL0     H15882  10.234   6.604   7.361 -0.6710  2.1640 -3.3494
  878MOL0     H15883  10.158   6.424   7.526 -2.8634 -1.8452  0.8447
  878MOL0     H15884   9.951   5.964   7.568  0.7585  2.6766 -1.1347
  878MOL0     H15885   9.878   5.808   7.733  4.2060 -0.2543  2.3928
  878MOL0     H15886   9.542   5.876   7.930  0.9338 -0.5393 -0.7651
  878MOL0     H15887   9.601   6.001   8.040 -0.0489  1.0401 -3.9016
  878MOL0     H15888   9.501   5.830   8.171 -0.8507  1.8229 -2.6600
  878MOL0     H15889   9.622   5.709   8.116  0.0238  0.3596  2.9175
  878MOL0     H15890   9.668   5.971   8.266  1.9832  0.5096  1.7518
  878MOL0     H15891   9.797   5.860   8.231  0.0677 -0.9246  1.1236
  878MOL0     H15892   9.687   5.673   8.334 -0.8036 -0.5121  1.9081
  878MOL0     H15893   9.750   5.788   8.455 -0.7242  1.6766  0.8053
  878MOL0     H15894   9.340   5.775   8.530  1.6738 -0.7224  2.3524
  878MOL0     H15895   9.759   6.145   7.983 -0.9239  0.6286  0.7317
  878MOL0     H15896   9.810   6.308   7.800 -1.6235 -0.9314 -0.4077
  879MOL0     O15897   3.489   5.535   4.879  0.2391  0.1991  0.1653
  879MOL0     C15898   3.570   5.488   4.800  0.6600 -0.2362  0.2545
  879MOL0     O15899   3.661   5.402   4.823  0.0360  0.4578 -0.1271
  879MOL0     C15900   3.680   5.368   4.959  0.5279 -0.1439  0.4669
  879MOL0     C15901   3.647   5.239   5.000  0.1675  0.9079 -0.5146
  879MOL0     C15902   3.674   5.198   5.130  0.0371 -0.1022  0.7973
  879MOL0     C15903   3.726   5.290   5.225  0.1958 -0.0254  0.0951
  879MOL0     O15904   3.764   5.261   5.359 -0.8235  0.1711  0.2546
  879MOL0     C15905   3.714   5.145   5.425  0.3844 -0.3736  0.3102
  879MOL0     C15906   3.771   5.129   5.560 -1.1955 -0.9126 -0.2320
  879MOL0     C15907   3.923   5.113   5.553 -0.7096 -0.0806 -0.5623
  879MOL0     C15908   3.994   5.159   5.691  0.1253  0.2148 -0.4919
  879MOL0     C15909   3.935   5.089   5.817  0.4172  0.3719  0.2473
  879MOL0     C15910   3.962   4.938   5.797 -1.2503  1.0528 -0.7466
  879MOL0     C15911   4.112   4.894   5.814 -0.7428  0.8420 -0.2290
  879MOL0     C15912   4.119   4.743   5.805  0.0160  0.3788 -0.7479
  879MOL0     N15913   4.252   4.685   5.835  0.6548  0.4046  0.7496
  879MOL0     C15914   4.280   4.560   5.790  0.1866 -0.5889 -0.4151
  879MOL0     C15915   4.407   4.541   5.822  0.8331  0.0959  0.1100
  879MOL0     C15916   4.489   4.415   5.786  0.6881 -0.1387 -0.6128
  879MOL0     C15917   4.456   4.289   5.864  0.3889  1.0545  0.0091
  879MOL0     C15918   4.320   4.213   5.819 -1.1968  0.3233 -0.4920
  879MOL0     C15919   4.309   4.098   5.909 -0.0313 -0.6543 -0.2902
  879MOL0     O15920   4.215   4.007   5.847  0.2436  0.3813 -0.4698
  879MOL0     C15921   4.244   3.932   5.734 -0.3808  0.4602 -0.5573
  879MOL0     C15922   4.133   3.852   5.700  0.4072  0.7820 -0.7029
  879MOL0     C15923   4.147   3.768   5.589 -0.6734  0.1033  0.9129
  879MOL0     C15924   4.266   3.763   5.514  0.2502  0.0202  0.1490
  879MOL0     C15925   4.298   3.667   5.405  0.2365 -0.9544  0.5662
  879MOL0     O15926   4.378   3.721   5.308 -0.2416 -0.6043  0.5740
  879MOL0     C15927   4.406   3.636   5.199 -0.1719 -0.1550 -0.4244
  879MOL0     C15928   4.362   3.679   5.077 -0.1371 -0.7266 -0.8469
  879MOL0     C15929   4.395   3.603   4.967  0.5353  0.4919  0.1061
  879MOL0     C15930   4.477   3.494   4.979 -0.0873 -0.2158 -1.1359
  879MOL0     O15931   4.533   3.427   4.877  0.5818 -0.3089 -0.4310
  879MOL0     C15932   4.492   3.451   4.739 -0.4517 -0.7611  0.1815
  879MOL0     C15933   4.358   3.392   4.705  0.1974  0.5109 -0.1969
  879MOL0     C15934   4.296   3.444   4.574 -0.0300  0.0693  0.4563
  879MOL0     C15935   4.248   3.595   4.574 -0.1179  0.3750 -0.2220
  879MOL0     C15936   4.193   3.635   4.447 -0.1212  0.0309 -0.8721
  879MOL0     C15937   4.300   3.641   4.338 -0.1528  0.2625 -0.9275
  879MOL0     C15938   4.236   3.739   4.239  0.0346 -0.1470  0.3510
  879MOL0     C15939   4.343   3.788   4.147 -0.0397  1.2942 -1.0612
  879MOL0    Cl15940   4.263   3.833   4.000 -0.0756 -1.0934 -0.2909
  879MOL0     C15941   4.521   3.454   5.107 -0.9190 -0.0250 -0.4922
  879MOL0     C15942   4.486   3.526   5.218  0.8993 -0.1451  0.6297
  879MOL0     O15943   4.243   3.560   5.400  0.3913 -0.1580  0.1531
  879MOL0     C15944   4.376   3.848   5.548  1.5162  0.5588 -0.9738
  879MOL0     C15945   4.368   3.929   5.658 -0.8745  0.0988 -0.6304
  879MOL0     N15946   4.450   4.656   5.898  0.0639  0.5283 -0.3781
  879MOL0     N15947   4.354   4.740   5.905  0.2742 -0.6097  0.6056
  879MOL0     C15948   3.757   5.423   5.189 -0.0954  0.1952  0.2971
  879MOL0     C15949   3.729   5.465   5.057  0.0706  0.7327  0.2003
  879MOL0     C15950   3.571   5.543   4.664 -0.5457  0.1575  0.5276
  879MOL0     C15951   3.457   5.595   4.607  0.1066 -0.3351 -0.2112
  879MOL0     C15952   3.467   5.659   4.487  0.5937 -0.1200 -0.6116
  879MOL0     C15953   3.587   5.676   4.417  0.0211  0.1775 -0.4049
  879MOL0     O15954   3.595   5.737   4.297 -0.8086 -0.2667 -0.5694
  879MOL0     C15955   3.490   5.817   4.247  0.5354 -0.6850  0.7935
  879MOL0     C15956   3.522   5.867   4.106 -0.7596  0.1033 -1.0764
  879MOL0     C15957   3.502   5.754   4.005 -0.4276  1.4444  0.0165
  879MOL0     C15958   3.353   5.731   3.987  2.0171  1.3160 -0.2537
  879MOL0     C15959   3.346   5.635   3.869  0.7389  0.5243 -1.2334
  879MOL0     C15960   3.323   5.550   3.784  0.0266 -1.0466  0.6514
  879MOL0     C15961   3.704   5.607   4.460  0.0207 -0.5697 -0.5542
  879MOL0     C15962   3.695   5.544   4.588 -0.2002 -0.5285 -0.7554
  879MOL0     H15963   3.603   5.172   4.927  2.2824 -3.8844  2.0864
  879MOL0     H15964   3.641   5.096   5.147 -2.5729  0.1928 -1.7000
  879MOL0     H15965   3.736   5.056   5.366  0.9675 -2.0261  2.8492
  879MOL0     H15966   3.607   5.169   5.430 -0.3592 -2.4630 -2.9035
  879MOL0     H15967   3.738   5.038   5.612 -0.3841 -2.0577 -1.6565
  879MOL0     H15968   3.755   5.218   5.621  2.5386 -0.2905  0.0653
  879MOL0     H15969   3.955   5.187   5.478 -4.6111  1.5513 -0.8583
  879MOL0     H15970   3.962   5.018   5.516  2.9156  0.4257  1.5036
  879MOL0     H15971   4.103   5.146   5.685  0.0342  0.1008 -2.9743
  879MOL0     H15972   3.976   5.266   5.691 -2.3869 -0.0012  3.6813
  879MOL0     H15973   3.834   5.127   5.831 -0.0445 -0.1721 -1.3785
  879MOL0     H15974   3.994   5.116   5.905  1.1102  0.6182 -0.2863
  879MOL0     H15975   3.923   4.906   5.700 -3.0395  1.1341 -0.0933
  879MOL0     H15976   3.898   4.891   5.872  3.6353  0.1198  3.3904
  879MOL0     H15977   4.171   4.939   5.735  3.3852 -0.2675  1.9035
  879MOL0     H15978   4.144   4.937   5.910 -2.6771  0.2911  0.7190
  879MOL0     H15979   4.090   4.706   5.707  1.4220 -0.1144 -1.0062
  879MOL0     H15980   4.057   4.709   5.888  1.5075 -0.5881  0.0277
  879MOL0     H15981   4.209   4.490   5.746  0.3716 -0.7881 -0.3993
  879MOL0     H15982   4.588   4.449   5.817 -0.5524  3.0805  0.1198
  879MOL0     H15983   4.491   4.406   5.677  0.2210 -0.3620 -0.6041
  879MOL0     H15984   4.454   4.320   5.969  0.4529 -0.0201  0.3422
  879MOL0     H15985   4.539   4.217   5.857 -0.5365  0.0551 -1.1239
  879MOL0     H15986   4.229   4.272   5.834 -1.7774 -0.8361  0.7512
  879MOL0     H15987   4.343   4.183   5.716 -0.0151 -0.4833 -0.0192
  879MOL0     H15988   4.287   4.125   6.013 -0.6974 -0.8156 -0.3862
  879MOL0     H15989   4.407   4.050   5.905 -0.2659 -1.1113 -0.5667
  879MOL0     H15990   4.041   3.867   5.756 -0.2946  0.9343 -1.8678
  879MOL0     H15991   4.067   3.700   5.560  1.3918 -2.1196  0.1051
  879MOL0     H15992   4.323   3.779   5.065 -0.5688 -0.9698 -1.5001
  879MOL0     H15993   4.367   3.630   4.866  2.3764  2.0984 -0.0416
  879MOL0     H15994   4.570   3.403   4.678 -0.9632 -4.4022  2.0884
  879MOL0     H15995   4.499   3.556   4.711 -3.5755  0.5712  3.6515
  879MOL0     H15996   4.302   3.421   4.794  0.4188 -2.0917  0.8888
  879MOL0     H15997   4.358   3.284   4.718  1.7157  0.7726  2.8349
  879MOL0     H15998   4.215   3.379   4.539 -1.0524  2.2800 -1.5931
  879MOL0     H15999   4.371   3.426   4.496 -2.2472 -0.2960 -1.7171
  879MOL0     H16000   4.171   3.602   4.652  0.8866  2.6672  0.6361
  879MOL0     H16001   4.328   3.666   4.597  1.9298 -1.1621 -2.1524
  879MOL0     H16002   4.158   3.736   4.470 -2.5744 -0.9100 -0.1935
  879MOL0     H16003   4.112   3.568   4.419 -0.0844 -1.6498  2.4860
  879MOL0     H16004   4.316   3.541   4.296 -1.7723 -0.8729  0.9374
  879MOL0     H16005   4.391   3.682   4.382 -0.1902 -1.2675  0.7223
  879MOL0     H16006   4.172   3.681   4.173  0.8383 -0.0732 -0.5237
  879MOL0     H16007   4.178   3.824   4.277  0.2606  1.1893 -2.0475
  879MOL0     H16008   4.415   3.708   4.132 -0.3663 -0.1327  3.5861
  879MOL0     H16009   4.396   3.876   4.186 -0.1588  1.3191 -0.9552
  879MOL0     H16010   4.587   3.367   5.107  2.7918  2.5444  0.6581
  879MOL0     H16011   4.521   3.505   5.319 -0.0400  1.2880  1.2797
  879MOL0     H16012   4.456   3.868   5.476  0.0186 -1.6554 -3.4449
  879MOL0     H16013   4.452   3.989   5.693 -0.5466 -2.6834  4.2800
  879MOL0     H16014   3.791   5.500   5.258 -2.0433 -0.0084  1.5787
  879MOL0     H16015   3.752   5.567   5.028  0.3156  0.6612  0.1346
  879MOL0     H16016   3.359   5.576   4.649 -1.1518 -2.1544 -3.5286
  879MOL0     H16017   3.379   5.702   4.441  3.0289  2.7595 -3.0903
  879MOL0     H16018   3.496   5.911   4.303 -0.6829 -0.1761  0.0994
  879MOL0     H16019   3.390   5.775   4.256  0.1236  0.0041 -0.3319
  879MOL0     H16020   3.468   5.958   4.078  0.0906  0.1927 -2.5303
  879MOL0     H16021   3.631   5.881   4.112 -0.7408 -0.4303  2.5977
  879MOL0     H16022   3.543   5.665   4.053  0.5093  0.6989 -2.0315
  879MOL0     H16023   3.566   5.775   3.919  0.5092  0.8601  0.5577
  879MOL0     H16024   3.309   5.678   4.072  0.1772  1.5337 -1.0221
  879MOL0     H16025   3.296   5.821   3.962 -1.5235 -1.0827 -1.5983
  879MOL0     H16026   3.307   5.494   3.694  0.5432  2.5023 -1.8666
  879MOL0     H16027   3.797   5.599   4.404 -1.0877 -3.3344 -2.1600
  879MOL0     H16028   3.781   5.493   4.628 -2.0377 -2.6053  0.7691
  880MOL0     O16029   2.954   5.466   4.642  0.3729 -0.1087  0.5244
  880MOL0     C16030   2.984   5.351   4.599 -0.5212 -0.3185 -0.1394
  880MOL0     O16031   2.927   5.286   4.509  0.6781 -0.5626  0.3047
  880MOL0     C16032   2.832   5.326   4.419 -0.5657 -0.0125  0.4490
  880MOL0     C16033   2.795   5.455   4.375 -0.6572  0.2607 -0.8805
  880MOL0     C16034   2.714   5.482   4.272  0.7493  0.1404 -0.3264
  880MOL0     C16035   2.654   5.383   4.203  0.8262 -0.3705 -0.5662
  880MOL0     O16036   2.561   5.416   4.105 -0.0252 -0.2811 -0.5391
  880MOL0     C16037   2.467   5.320   4.065 -0.4288 -0.1327 -0.7533
  880MOL0     C16038   2.373   5.400   3.976 -0.5705 -0.0875 -0.5893
  880MOL0     C16039   2.290   5.496   4.057  0.2890 -0.4321  0.9130
  880MOL0     C16040   2.158   5.443   4.128  0.3953 -0.5731 -0.4718
  880MOL0     C16041   2.085   5.579   4.170 -0.1625 -0.4066  0.1643
  880MOL0     C16042   1.968   5.551   4.259 -0.0144 -1.0743  0.9658
  880MOL0     C16043   1.899   5.688   4.292 -0.2013 -0.3219  0.1164
  880MOL0     C16044   1.798   5.699   4.407  0.8850  0.8985 -0.7668
  880MOL0     N16045   1.722   5.833   4.396  0.6035 -0.2126  0.8703
  880MOL0     C16046   1.596   5.853   4.445 -0.0890 -0.3350  0.8830
  880MOL0     C16047   1.569   5.987   4.419  1.2713  0.6974 -0.2430
  880MOL0     C16048   1.443   6.059   4.468  0.3305 -0.3141 -0.1357
  880MOL0     C16049   1.444   6.130   4.603 -0.9465  0.6924  0.5914
  880MOL0     C16050   1.307   6.188   4.648 -0.5808  0.1088  1.1568
  880MOL0     C16051   1.314   6.252   4.783 -0.4891  0.4213 -0.5651
  880MOL0     O16052   1.394   6.369   4.775 -0.5992 -0.5440 -0.8385
  880MOL0     C16053   1.343   6.491   4.724 -0.0316 -0.4058 -0.2546
  880MOL0     C16054   1.430   6.596   4.723  0.6771 -0.0951 -0.2532
  880MOL0     C16055   1.393   6.724   4.692  0.2116  0.4052  0.3602
  880MOL0     C16056   1.268   6.745   4.643 -1.2112  0.9046  0.2103
  880MOL0     C16057   1.230   6.871   4.599 -0.0934 -0.6954 -0.3728
  880MOL0     O16058   1.281   6.976   4.669  0.1076 -0.3556  0.1443
  880MOL0     C16059   1.283   7.095   4.604 -0.1258  0.3916  0.1976
  880MOL0     C16060   1.174   7.179   4.588  0.0586  0.9521  0.1350
  880MOL0     C16061   1.184   7.304   4.527  0.2302  0.4953  0.7794
  880MOL0     C16062   1.309   7.349   4.486  0.7234  0.1051  0.4617
  880MOL0     O16063   1.335   7.460   4.413  0.6377 -0.3925 -0.8653
  880MOL0     C16064   1.256   7.571   4.425  0.4300  0.4542  0.0777
  880MOL0     C16065   1.309   7.663   4.309  0.6232  0.2131 -0.3651
  880MOL0     C16066   1.449   7.719   4.327 -0.2180  0.5733 -0.0226
  880MOL0     C16067   1.491   7.801   4.212  0.0895  0.1687 -0.4566
  880MOL0     C16068   1.640   7.834   4.213 -0.1000  0.6658  0.7006
  880MOL0     C16069   1.659   7.940   4.105  0.4967  0.6414 -0.1976
  880MOL0     C16070   1.665   7.885   3.961 -0.0925  0.2950 -0.3401
  880MOL0     C16071   1.777   7.778   3.937  0.4013 -0.1752 -0.9194
  880MOL0    Cl16072   1.931   7.814   4.036  0.0388 -0.4495 -0.6284
  880MOL0     C16073   1.422   7.263   4.495 -0.3217 -0.9906 -0.3334
  880MOL0     C16074   1.412   7.143   4.561 -0.1764  0.2024 -0.5574
  880MOL0     O16075   1.150   6.873   4.505 -0.4012 -0.5017 -0.4450
  880MOL0     C16076   1.185   6.642   4.624  0.3768 -0.6640 -0.5907
  880MOL0     C16077   1.217   6.516   4.670  0.7168  0.1132  0.2301
  880MOL0     N16078   1.678   6.044   4.370  0.1843  0.2998 -0.0147
  880MOL0     N16079   1.766   5.946   4.346 -0.1680  0.5833  0.1004
  880MOL0     C16080   2.690   5.249   4.226 -0.3541 -0.4350 -0.1983
  880MOL0     C16081   2.784   5.227   4.326 -0.3163  0.3690 -0.4618
  880MOL0     C16082   3.107   5.287   4.652  0.3006 -0.4325  0.0723
  880MOL0     C16083   3.134   5.153   4.624 -0.6175 -0.1742  1.1814
  880MOL0     C16084   3.233   5.077   4.685 -0.1822 -0.0471  0.2565
  880MOL0     C16085   3.319   5.133   4.775  0.7133 -0.4768 -0.9771
  880MOL0     O16086   3.397   5.053   4.851 -0.7217 -0.1459  0.3598
  880MOL0     C16087   3.464   4.936   4.799  0.5270  0.5195 -0.6004
  880MOL0     C16088   3.374   4.823   4.847  0.3999 -0.9270 -0.3413
  880MOL0     C16089   3.407   4.698   4.783  0.4107 -0.0240 -0.4464
  880MOL0     C16090   3.334   4.578   4.844 -0.7274  0.3169  0.4283
  880MOL0     C16091   3.404   4.551   4.967  0.9901  0.2467 -0.3935
  880MOL0     C16092   3.426   4.540   5.089 -1.0037  0.0875 -0.1435
  880MOL0     C16093   3.290   5.266   4.808 -0.4270 -1.1877 -0.9826
  880MOL0     C16094   3.190   5.345   4.749  0.4806 -0.1552  0.8980
  880MOL0     H16095   2.845   5.535   4.429 -0.0833 -2.6544  3.4288
  880MOL0     H16096   2.705   5.589   4.261  2.9581  0.4710  0.5166
  880MOL0     H16097   2.415   5.293   4.157 -0.0906  2.0882  0.1556
  880MOL0     H16098   2.501   5.235   4.006 -2.8333  0.9736 -4.0431
  880MOL0     H16099   2.296   5.335   3.935 -0.5071  1.0569 -2.6815
  880MOL0     H16100   2.425   5.449   3.893 -0.6082  0.2367 -0.4226
  880MOL0     H16101   2.264   5.577   3.989  2.9153 -0.6585 -0.4875
  880MOL0     H16102   2.352   5.552   4.128  1.5828  1.6681 -1.6754
  880MOL0     H16103   2.088   5.391   4.063 -0.6700 -2.5712  2.1163
  880MOL0     H16104   2.182   5.391   4.221 -0.4957  0.2474  0.2409
  880MOL0     H16105   2.049   5.627   4.079  0.4051  1.4756  0.8918
  880MOL0     H16106   2.157   5.654   4.205  2.3588 -0.1413 -4.7539
  880MOL0     H16107   2.017   5.541   4.357 -1.4845 -0.6598  1.7742
  880MOL0     H16108   1.908   5.465   4.227 -1.6083  0.5122 -0.5578
  880MOL0     H16109   1.973   5.766   4.312  1.2566 -2.0623  1.7833
  880MOL0     H16110   1.839   5.710   4.203  1.6518 -2.3990 -1.7565
  880MOL0     H16111   1.848   5.693   4.505 -0.9890 -0.2029  0.1810
  880MOL0     H16112   1.736   5.609   4.406  1.6789  0.3255 -2.3957
  880MOL0     H16113   1.536   5.780   4.498 -0.9279  1.3473  2.3495
  880MOL0     H16114   1.364   5.985   4.477 -0.5593  0.6659  0.2775
  880MOL0     H16115   1.418   6.130   4.389  0.7910  0.3726  0.3249
  880MOL0     H16116   1.518   6.210   4.594  0.8069 -0.6020  2.6175
  880MOL0     H16117   1.480   6.063   4.682  0.2438  0.4962 -0.0910
  880MOL0     H16118   1.270   6.258   4.572  1.8267  0.8512  0.5790
  880MOL0     H16119   1.240   6.102   4.655  1.2780 -1.4900  0.3729
  880MOL0     H16120   1.369   6.181   4.846 -0.0322  1.4908  0.2854
  880MOL0     H16121   1.220   6.276   4.833  0.5933 -0.2017  1.9204
  880MOL0     H16122   1.535   6.571   4.732  0.8095 -0.4899 -2.3910
  880MOL0     H16123   1.475   6.795   4.692  1.2077 -0.6638  2.5448
  880MOL0     H16124   1.083   7.143   4.636  0.7303 -1.1387 -0.0772
  880MOL0     H16125   1.094   7.364   4.515 -0.7612 -0.7021  1.8924
  880MOL0     H16126   1.276   7.612   4.525  1.8367 -1.6204  0.7002
  880MOL0     H16127   1.150   7.547   4.413  0.7687 -1.0077 -0.1861
  880MOL0     H16128   1.247   7.753   4.316 -2.9517 -2.0653 -0.6030
  880MOL0     H16129   1.311   7.611   4.213 -3.8514 -1.1916  0.0765
  880MOL0     H16130   1.521   7.640   4.350  0.7020  1.6464  0.9863
  880MOL0     H16131   1.468   7.784   4.413  0.7577 -1.6008  1.4957
  880MOL0     H16132   1.483   7.742   4.120  0.4763 -0.8715  0.1655
  880MOL0     H16133   1.431   7.891   4.193  0.5277  0.1352 -2.2390
  880MOL0     H16134   1.705   7.748   4.193  1.5991  2.1667 -0.5172
  880MOL0     H16135   1.685   7.870   4.306  1.5402 -1.0300  0.6174
  880MOL0     H16136   1.755   7.988   4.123 -0.3140  1.7270  1.5282
  880MOL0     H16137   1.581   8.016   4.117 -1.1877 -1.2794  1.8081
  880MOL0     H16138   1.566   7.844   3.939 -2.3003  2.8108  3.5667
  880MOL0     H16139   1.694   7.968   3.896  0.0236 -0.8581 -1.7976
  880MOL0     H16140   1.803   7.762   3.832 -1.2938  2.2966 -1.8048
  880MOL0     H16141   1.738   7.686   3.980 -0.2820  0.1694 -0.7844
  880MOL0     H16142   1.522   7.293   4.465  0.0811 -1.5614  0.4034
  880MOL0     H16143   1.493   7.082   4.599 -0.3072  1.3835  1.7817
  880MOL0     H16144   1.082   6.654   4.591  0.4476 -0.0191 -0.5872
  880MOL0     H16145   1.140   6.440   4.666 -0.3892  0.7630  4.0908
  880MOL0     H16146   2.643   5.164   4.177  1.3706 -0.9077 -1.1153
  880MOL0     H16147   2.813   5.126   4.352  1.4709  1.3950  1.9066
  880MOL0     H16148   3.072   5.104   4.549  0.0957  1.5418 -0.6129
  880MOL0     H16149   3.237   4.971   4.661 -1.8311 -1.0971  3.9155
  880MOL0     H16150   3.563   4.918   4.842  0.3193  0.1869 -0.2613
  880MOL0     H16151   3.471   4.931   4.690 -1.2290  1.9763 -0.8319
  880MOL0     H16152   3.402   4.813   4.952 -0.7320  0.2872  0.0992
  880MOL0     H16153   3.267   4.842   4.834  0.1938 -1.0845  0.9444
  880MOL0     H16154   3.514   4.671   4.787  1.4201  3.6319  1.4120
  880MOL0     H16155   3.389   4.719   4.678 -1.0781 -0.3861 -0.2761
  880MOL0     H16156   3.225   4.572   4.854 -0.9193 -2.5472 -1.7490
  880MOL0     H16157   3.349   4.486   4.786 -4.5263 -0.7447  0.8216
  880MOL0     H16158   3.467   4.533   5.187  1.5592  0.8996 -1.0725
  880MOL0     H16159   3.347   5.302   4.892  0.1502  0.0384 -1.8816
  880MOL0     H16160   3.171   5.445   4.786 -0.9522  0.0047 -0.1806
  881MOL0     O16161  10.177   0.090   9.978  0.4055 -1.0216  0.2535
  881MOL0     C16162  10.232  -0.018   9.965  0.3490 -0.3409  0.8463
  881MOL0     O16163  10.287  -0.073   9.845  0.0348 -0.6448  0.0231
  881MOL0     C16164  10.257   0.015   9.737 -0.1621 -0.0324 -0.4262
  881MOL0     C16165  10.321   0.141   9.718 -0.2445  0.0498 -0.8249
  881MOL0     C16166  10.308   0.218   9.607  0.5650 -1.1438  0.0642
  881MOL0     C16167  10.213   0.165   9.511 -0.0507  0.9132 -0.3593
  881MOL0     O16168  10.177   0.231   9.400 -0.2511  1.0216  0.4870
  881MOL0     C16169  10.266   0.326   9.343 -0.7986 -0.3125 -0.2337
  881MOL0     C16170  10.179   0.363   9.212  0.8372 -0.3973 -0.6697
  881MOL0     C16171  10.231   0.478   9.117 -0.3042  0.3905  0.3543
  881MOL0     C16172  10.139   0.487   8.991  0.1285 -0.5456 -0.0768
  881MOL0     C16173  10.195   0.577   8.886  0.0452  0.0204  0.2638
  881MOL0     C16174  10.336   0.558   8.831 -0.4325  0.2094 -0.5799
  881MOL0     C16175  10.361   0.419   8.760  0.7517  0.1722  0.4653
  881MOL0     C16176  10.515   0.400   8.727  0.0982 -0.1579  0.1696
  881MOL0     N16177  10.598   0.391   8.846 -0.4394  0.2069  0.3455
  881MOL0     C16178  10.596   0.283   8.931 -0.4514 -0.4819 -0.8519
  881MOL0     C16179  10.657   0.325   9.048 -0.1783  0.6961  0.2400
  881MOL0     C16180  10.665   0.229   9.164 -0.1530 -0.2627 -0.4283
  881MOL0     C16181  10.733   0.100   9.132 -0.5226  0.3951 -0.3675
  881MOL0     C16182  10.885   0.111   9.120  0.5736 -0.1819  0.3025
  881MOL0     C16183  10.948  -0.017   9.068  0.2331  0.1965  0.1612
  881MOL0     O16184  10.904  -0.066   8.941  0.5986 -0.2110 -0.1607
  881MOL0     C16185  10.937  -0.198   8.902 -0.0448  0.2685  0.7822
  881MOL0     C16186  10.980  -0.302   8.988 -0.5877 -0.3945 -0.5231
  881MOL0     C16187  11.012  -0.428   8.939  0.2367  0.0726  0.0641
  881MOL0     C16188  10.992  -0.456   8.801 -0.4142  0.2069  0.1461
  881MOL0     C16189  11.005  -0.590   8.754  0.2899  0.9546 -0.2302
  881MOL0     O16190  10.969  -0.615   8.623  0.5935 -0.2093  0.5649
  881MOL0     C16191  11.019  -0.725   8.557  0.4122 -0.4195 -0.1223
  881MOL0     C16192  10.927  -0.808   8.489 -0.6757 -0.9470  0.5294
  881MOL0     C16193  10.982  -0.913   8.414  0.6815  0.2764  0.5476
  881MOL0     C16194  11.114  -0.945   8.409 -0.6079 -0.1393  0.0228
  881MOL0     O16195  11.163  -1.055   8.339 -0.8567  0.1298 -0.2672
  881MOL0     C16196  11.126  -1.070   8.203  0.3145 -0.1537 -0.1748
  881MOL0     C16197  11.112  -1.225   8.175  0.1403 -0.2116 -1.0173
  881MOL0     C16198  10.980  -1.276   8.228  0.2819  0.8525 -0.7207
  881MOL0     C16199  10.964  -1.436   8.248  0.0573 -0.5566 -0.4912
  881MOL0     C16200  10.819  -1.458   8.314  0.2519 -1.0350  0.5555
  881MOL0     C16201  10.819  -1.600   8.373 -0.2151 -0.0560 -1.2065
  881MOL0     C16202  10.682  -1.634   8.430 -0.5513  0.2690 -0.4453
  881MOL0     C16203  10.585  -1.705   8.328  0.6806 -0.6691 -0.1234
  881MOL0    Cl16204  10.642  -1.868   8.290 -0.2747  0.0437 -0.1684
  881MOL0     C16205  11.193  -0.868   8.489 -0.6626 -0.0426 -0.0257
  881MOL0     C16206  11.151  -0.756   8.567 -0.7492  0.0773 -0.4277
  881MOL0     O16207  11.065  -0.665   8.823  0.2229 -0.1604 -0.0945
  881MOL0     C16208  10.953  -0.360   8.712 -0.4639  0.3920  0.0696
  881MOL0     C16209  10.928  -0.233   8.765  0.6163 -0.0781 -0.3290
  881MOL0     N16210  10.697   0.455   9.031 -0.1959 -0.5600  0.8384
  881MOL0     N16211  10.671   0.484   8.906 -0.6690 -0.4739  0.3254
  881MOL0     C16212  10.147   0.048   9.532  0.7070 -0.1292 -0.2370
  881MOL0     C16213  10.168  -0.033   9.645 -0.1600 -1.0074 -0.4778
  881MOL0     C16214  10.246  -0.094  10.085 -0.6250  0.6315 -0.2847
  881MOL0     C16215  10.357  -0.180  10.094  0.0165  0.5401 -1.0837
  881MOL0     C16216  10.384  -0.261  10.206 -0.1511 -0.0241 -1.1672
  881MOL0     C16217  10.291  -0.264  10.305  0.9676 -0.4330 -0.5470
  881MOL0     O16218  10.307  -0.351  10.418 -0.0876 -0.4017  0.2199
  881MOL0     C16219  10.429  -0.431  10.449  0.6946  0.0117 -0.0590
  881MOL0     C16220  10.430  -0.569  10.366  0.0249 -1.2558 -0.8074
  881MOL0     C16221  10.314  -0.651  10.393  0.7117  0.1344  0.2020
  881MOL0     C16222  10.302  -0.722  10.524  0.2344  0.1217  0.3362
  881MOL0     C16223  10.169  -0.761  10.563  0.4254 -0.6859 -0.0364
  881MOL0     C16224  10.051  -0.780  10.602 -1.2785  0.6087 -0.4141
  881MOL0     C16225  10.172  -0.180  10.304  0.3944  0.8911 -0.8753
  881MOL0     C16226  10.153  -0.098  10.189  0.4939  0.6890  0.9990
  881MOL0     H16227  10.385   0.173   9.800 -1.5932 -0.7734  0.5761
  881MOL0     H16228  10.339   0.322   9.607 -0.0903 -0.8716 -2.8528
  881MOL0     H16229  10.358   0.272   9.318  0.4405  1.0058  1.2993
  881MOL0     H16230  10.292   0.410   9.408  2.0591  0.3199 -1.9782
  881MOL0     H16231  10.083   0.397   9.250  0.0629 -0.2465 -2.6160
  881MOL0     H16232  10.159   0.269   9.160 -4.2054  0.1298 -0.1378
  881MOL0     H16233  10.334   0.445   9.097  0.2679  2.9455 -1.4670
  881MOL0     H16234  10.229   0.576   9.167 -2.0685 -0.4771  2.1003
  881MOL0     H16235  10.126   0.386   8.953  2.0850 -0.5155 -0.9002
  881MOL0     H16236  10.040   0.521   9.025 -0.4622 -2.3813  0.1204
  881MOL0     H16237  10.199   0.679   8.926  1.9854  0.3712 -0.7223
  881MOL0     H16238  10.131   0.567   8.798  0.5664  1.7547 -0.3606
  881MOL0     H16239  10.407   0.557   8.914  0.8964  2.1392 -1.6177
  881MOL0     H16240  10.352   0.652   8.777 -1.1833  0.6531 -0.0413
  881MOL0     H16241  10.317   0.339   8.821 -0.6496  0.2129 -0.4425
  881MOL0     H16242  10.303   0.429   8.668  0.9881  0.4957  0.3512
  881MOL0     H16243  10.555   0.470   8.654 -2.0006 -2.2600 -3.2834
  881MOL0     H16244  10.532   0.301   8.682 -2.5226 -0.3761 -0.5206
  881MOL0     H16245  10.534   0.194   8.929 -2.2137  0.5990  0.9520
  881MOL0     H16246  10.571   0.208   9.215 -0.9760 -2.3980 -2.6360
  881MOL0     H16247  10.744   0.283   9.217 -0.0065  1.4378 -2.2326
  881MOL0     H16248  10.681   0.060   9.044 -0.3497  0.1291 -0.3505
  881MOL0     H16249  10.706   0.016   9.197  0.3445  1.5228  1.5261
  881MOL0     H16250  10.904   0.194   9.052 -0.9996 -0.9963 -1.2175
  881MOL0     H16251  10.922   0.130   9.221  3.2857  0.1348 -0.6736
  881MOL0     H16252  10.927  -0.092   9.145 -0.7466 -0.1717 -0.4492
  881MOL0     H16253  11.057  -0.026   9.074  0.5300  2.1592 -1.4782
  881MOL0     H16254  10.997  -0.287   9.094 -2.4748  0.0911 -0.2492
  881MOL0     H16255  11.060  -0.505   8.999 -0.5782 -0.1583  0.4251
  881MOL0     H16256  10.823  -0.776   8.498  0.5443  3.7138  0.4675
  881MOL0     H16257  10.919  -0.983   8.360 -0.2089 -0.5414  2.5274
  881MOL0     H16258  11.203  -1.044   8.129  0.9639  0.3213  0.6408
  881MOL0     H16259  11.029  -1.022   8.186 -0.4077 -1.4564  0.1575
  881MOL0     H16260  11.188  -1.281   8.230  0.3232  1.7885  0.9183
  881MOL0     H16261  11.105  -1.238   8.067 -1.5664  2.5816 -1.3296
  881MOL0     H16262  10.893  -1.241   8.171 -0.0474  1.5773  0.2011
  881MOL0     H16263  10.971  -1.239   8.330 -3.1805  2.5579 -1.4838
  881MOL0     H16264  10.976  -1.487   8.152  0.4213 -1.3244 -0.0484
  881MOL0     H16265  11.036  -1.470   8.323 -2.2277 -1.9960  1.1915
  881MOL0     H16266  10.745  -1.458   8.233  0.4456  4.5323  0.0156
  881MOL0     H16267  10.787  -1.377   8.380  0.3172 -0.0055 -0.6353
  881MOL0     H16268  10.899  -1.611   8.447 -2.0751 -2.6497  0.5914
  881MOL0     H16269  10.838  -1.679   8.299  0.6080 -2.1264  1.0625
  881MOL0     H16270  10.679  -1.700   8.517  0.0163  0.3012 -0.4011
  881MOL0     H16271  10.639  -1.538   8.459 -0.0039  0.4215 -0.1307
  881MOL0     H16272  10.569  -1.647   8.237  1.3636 -1.3420 -0.6808
  881MOL0     H16273  10.483  -1.728   8.359  0.9428 -3.2727 -0.9849
  881MOL0     H16274  11.301  -0.881   8.493 -0.1208  3.5883  0.7311
  881MOL0     H16275  11.219  -0.695   8.625 -1.0737 -0.3660  0.4387
  881MOL0     H16276  10.939  -0.382   8.607 -0.9204  0.1799  0.1724
  881MOL0     H16277  10.895  -0.161   8.691 -0.8963 -0.2391  0.1538
  881MOL0     H16278  10.074   0.020   9.457  1.7600  0.8680 -1.6941
  881MOL0     H16279  10.126  -0.133   9.657  2.1893 -1.8079  2.4225
  881MOL0     H16280  10.430  -0.207  10.019  0.9370 -0.1493  0.0132
  881MOL0     H16281  10.470  -0.326  10.223 -3.0062 -4.1134 -1.0449
  881MOL0     H16282  10.455  -0.465  10.550 -0.0807  0.4299  0.2912
  881MOL0     H16283  10.506  -0.362  10.414 -0.1359  0.5000 -0.9808
  881MOL0     H16284  10.439  -0.546  10.259  0.9904  1.1452 -0.2665
  881MOL0     H16285  10.524  -0.623  10.381  0.6010 -0.9333 -2.9035
  881MOL0     H16286  10.297  -0.723  10.313 -0.9433  1.3313 -0.5649
  881MOL0     H16287  10.228  -0.584  10.397 -0.4423 -1.3541  1.0890
  881MOL0     H16288  10.370  -0.806  10.539 -1.1360 -1.2348 -0.7414
  881MOL0     H16289  10.326  -0.647  10.601  1.8069 -0.0902  0.0711
  881MOL0     H16290   9.954  -0.798  10.644 -1.1247  1.1670  0.2030
  881MOL0     H16291  10.111  -0.202  10.391 -2.2310 -0.2740 -2.8904
  881MOL0     H16292  10.059  -0.045  10.178  0.4521  0.4606  0.1720
  882MOL0     O16293   1.712  10.218   5.051  0.8023 -0.1450  0.3704
  882MOL0     C16294   1.618  10.138   5.079  0.1801 -0.1932  0.1882
  882MOL0     O16295   1.599  10.069   5.194  0.6298  0.7956  0.1090
  882MOL0     C16296   1.650  10.119   5.318  0.0154 -0.7153  0.0177
  882MOL0     C16297   1.667  10.258   5.344 -0.0824  0.8714  0.4743
  882MOL0     C16298   1.702  10.299   5.474 -0.4542  0.0545 -0.8082
  882MOL0     C16299   1.724  10.197   5.573 -0.9552 -0.1834  1.0713
  882MOL0     O16300   1.730  10.254   5.696  0.4677  0.2522 -0.2261
  882MOL0     C16301   1.770  10.176   5.813 -0.7744  0.2125  0.1173
  882MOL0     C16302   1.638  10.124   5.882  0.5814  0.2322 -1.5309
  882MOL0     C16303   1.675  10.021   5.987  0.0127 -0.8130 -0.9938
  882MOL0     C16304   1.547   9.976   6.059 -0.4485  0.2397 -0.2853
  882MOL0     C16305   1.582   9.877   6.172  0.9012  0.2956 -0.5792
  882MOL0     C16306   1.456   9.801   6.220  1.2275  0.3433 -1.0409
  882MOL0     C16307   1.332   9.881   6.251  0.6648  0.0984 -0.1286
  882MOL0     C16308   1.341   9.998   6.345 -0.2548 -0.5776 -0.7056
  882MOL0     N16309   1.402   9.944   6.475  0.3194  1.1580  0.6300
  882MOL0     C16310   1.337   9.883   6.582  0.2172 -0.3618 -0.1517
  882MOL0     C16311   1.439   9.849   6.672  0.6509 -0.3723  0.4228
  882MOL0     C16312   1.424   9.774   6.801  0.4203  0.5953  0.4018
  882MOL0     C16313   1.346   9.858   6.899  0.7479 -0.1117 -0.4017
  882MOL0     C16314   1.335   9.817   7.043  0.4485  0.3860  0.8158
  882MOL0     C16315   1.454   9.751   7.118  0.3556  0.0231  0.0280
  882MOL0     O16316   1.401   9.710   7.246  1.0503  0.5574  0.2366
  882MOL0     C16317   1.385   9.800   7.343 -0.0931 -0.8690  0.4649
  882MOL0     C16318   1.436   9.934   7.329  1.1236 -0.3278  0.2604
  882MOL0     C16319   1.404  10.020   7.434 -0.1882  0.2941 -0.0198
  882MOL0     C16320   1.317   9.993   7.543 -0.3554 -0.1855  0.1863
  882MOL0     C16321   1.278  10.091   7.644 -0.5831  0.5871  0.5921
  882MOL0     O16322   1.220  10.040   7.758  0.5554  0.7007  0.0494
  882MOL0     C16323   1.176  10.119   7.864  0.0922 -0.3604 -0.4379
  882MOL0     C16324   1.148  10.035   7.974 -0.2523  0.3831  0.1967
  882MOL0     C16325   1.095  10.095   8.091 -0.3814 -0.2448 -0.8996
  882MOL0     C16326   1.077  10.236   8.099 -1.2650 -1.5043 -0.0396
  882MOL0     O16327   1.022  10.288   8.226 -0.0883  0.1804 -0.8806
  882MOL0     C16328   1.022  10.433   8.223  0.2092  1.0583  0.2858
  882MOL0     C16329   1.002  10.478   8.368  0.4434 -0.6066  0.5262
  882MOL0     C16330   0.868  10.433   8.426 -0.6331  0.4460 -0.0002
  882MOL0     C16331   0.830  10.493   8.564 -0.4487  0.3270  0.6068
  882MOL0     C16332   0.692  10.442   8.595  0.5273  0.1136 -0.3072
  882MOL0     C16333   0.615  10.538   8.685 -0.6394 -0.2651  0.7604
  882MOL0     C16334   0.695  10.543   8.828  0.2931  0.2094 -0.2940
  882MOL0     C16335   0.598  10.618   8.925 -0.3520  0.6406  0.0865
  882MOL0    Cl16336   0.640  10.584   9.090 -0.4263  0.5100  0.3580
  882MOL0     C16337   1.110  10.318   7.981  0.7267  0.0670  0.4105
  882MOL0     C16338   1.160  10.258   7.868 -0.3022 -0.9773 -0.1564
  882MOL0     O16339   1.291  10.207   7.617 -1.3005 -0.0794  0.4602
  882MOL0     C16340   1.269   9.865   7.554  0.6642 -0.8888  0.4027
  882MOL0     C16341   1.306   9.769   7.453  0.4640 -0.1793 -0.4281
  882MOL0     N16342   1.555   9.878   6.608  0.3260 -0.6094 -0.0432
  882MOL0     N16343   1.526   9.931   6.497  0.1293 -0.8145 -0.8648
  882MOL0     C16344   1.707  10.066   5.551  0.5857 -0.0211 -0.0755
  882MOL0     C16345   1.670  10.028   5.419  0.7724  0.3255  0.5415
  882MOL0     C16346   1.521  10.114   4.965  0.5635 -0.2228 -0.0514
  882MOL0     C16347   1.506  10.223   4.869  0.0753  0.4377  0.1387
  882MOL0     C16348   1.420  10.199   4.752 -0.8364  0.6766  0.1984
  882MOL0     C16349   1.350  10.082   4.742  0.4270 -0.4517  0.6008
  882MOL0     O16350   1.266  10.059   4.639 -0.6532  0.0974 -0.8290
  882MOL0     C16351   1.300  10.103   4.504  0.4005  0.3903 -0.9090
  882MOL0     C16352   1.418  10.032   4.436 -0.0724  0.5175  0.0952
  882MOL0     C16353   1.414   9.879   4.439 -0.1976 -0.1278 -1.1201
  882MOL0     C16354   1.307   9.822   4.340 -0.5455  0.1476  0.2056
  882MOL0     C16355   1.337   9.680   4.316 -0.0226 -0.4426 -0.1847
  882MOL0     C16356   1.370   9.558   4.298  1.0539 -0.1115  0.4460
  882MOL0     C16357   1.361   9.981   4.843 -0.1981  1.1132  0.0869
  882MOL0     C16358   1.449   9.997   4.950 -0.6075  0.6177 -0.4254
  882MOL0     H16359   1.630  10.321   5.264 -0.2994  0.5446  0.3134
  882MOL0     H16360   1.726  10.404   5.485  0.1823  0.2225 -3.1151
  882MOL0     H16361   1.823  10.236   5.888 -1.5194 -1.5311  2.1458
  882MOL0     H16362   1.834  10.090   5.793  1.3099  1.3891  1.3802
  882MOL0     H16363   1.573  10.067   5.815  0.3959  0.9804 -2.0080
  882MOL0     H16364   1.582  10.212   5.915 -0.0236  0.8845 -4.0681
  882MOL0     H16365   1.752  10.072   6.046  0.4762 -1.0269 -1.3946
  882MOL0     H16366   1.725   9.935   5.941  0.4953 -1.0306 -0.0895
  882MOL0     H16367   1.484  10.061   6.089 -2.4160 -1.5258  0.9227
  882MOL0     H16368   1.484   9.917   5.992 -1.4741 -0.8959  1.5892
  882MOL0     H16369   1.625   9.932   6.256 -0.6053 -0.6269  0.8563
  882MOL0     H16370   1.648   9.796   6.141  1.9008  0.9122 -0.1119
  882MOL0     H16371   1.482   9.757   6.317 -1.5591  3.8484  1.5768
  882MOL0     H16372   1.424   9.723   6.151  0.0239 -3.2454  3.0896
  882MOL0     H16373   1.298   9.917   6.154  0.1783  1.1212  0.4047
  882MOL0     H16374   1.260   9.812   6.296  1.8704  0.2956  2.2571
  882MOL0     H16375   1.241  10.036   6.369 -0.1411 -2.2042  3.0616
  882MOL0     H16376   1.403  10.073   6.296 -1.7857 -1.9543 -5.2084
  882MOL0     H16377   1.232   9.857   6.590  0.1434  0.0225  0.1701
  882MOL0     H16378   1.521   9.739   6.838  1.0503 -0.7041 -2.1946
  882MOL0     H16379   1.372   9.679   6.791 -1.0030  1.1775  1.9133
  882MOL0     H16380   1.244   9.873   6.863  0.1620 -3.4307 -0.4388
  882MOL0     H16381   1.377   9.962   6.907 -1.5347  0.5573  0.1924
  882MOL0     H16382   1.320   9.911   7.097  2.0480  0.4190  1.2648
  882MOL0     H16383   1.244   9.757   7.052  0.3489  0.5919  1.2053
  882MOL0     H16384   1.542   9.816   7.122  1.6668 -1.4668 -2.2115
  882MOL0     H16385   1.485   9.661   7.065  0.2144  0.6322 -1.1323
  882MOL0     H16386   1.481   9.976   7.239  0.3550  0.1613  0.0998
  882MOL0     H16387   1.446  10.118   7.415  6.6765 -2.3490 -1.4524
  882MOL0     H16388   1.158   9.929   7.956 -1.6257  0.5094 -1.5595
  882MOL0     H16389   1.061  10.045   8.181 -1.4932  4.8221  1.9366
  882MOL0     H16390   0.944  10.461   8.151  1.4445  0.0251 -1.5223
  882MOL0     H16391   1.113  10.479   8.184 -0.4374  0.1058 -2.5932
  882MOL0     H16392   1.015  10.586   8.372 -2.6457 -0.1815  1.7240
  882MOL0     H16393   1.070  10.433   8.442 -2.4658 -4.2369  1.2819
  882MOL0     H16394   0.867  10.324   8.436  3.0831  0.5154  3.6251
  882MOL0     H16395   0.791  10.461   8.353  0.5222 -1.0133 -1.8914
  882MOL0     H16396   0.901  10.465   8.643  2.1280 -0.6643 -1.9147
  882MOL0     H16397   0.840  10.602   8.555  1.8442  0.0454 -1.0796
  882MOL0     H16398   0.703  10.344   8.641 -0.4919  1.6319  3.6254
  882MOL0     H16399   0.631  10.442   8.504 -1.1664 -2.7980  0.6938
  882MOL0     H16400   0.511  10.506   8.686  0.0104 -2.6038  2.3577
  882MOL0     H16401   0.627  10.638   8.643 -3.4831  1.4231  3.6158
  882MOL0     H16402   0.714  10.444   8.869 -0.9313  0.2715  0.4911
  882MOL0     H16403   0.794  10.589   8.826  2.6740 -4.2541  1.2278
  882MOL0     H16404   0.494  10.608   8.893 -0.6942  3.5104  0.0796
  882MOL0     H16405   0.602  10.726   8.915 -1.0764  0.5038 -2.2593
  882MOL0     H16406   1.098  10.425   7.980  3.4373  0.4380 -0.4394
  882MOL0     H16407   1.196  10.335   7.799  0.4157 -0.2386  1.0052
  882MOL0     H16408   1.196   9.848   7.633 -1.1268 -0.4718 -1.0738
  882MOL0     H16409   1.270   9.666   7.457  0.7328 -0.2436  0.6562
  882MOL0     H16410   1.704   9.991   5.629 -0.0366  1.7571  1.6818
  882MOL0     H16411   1.636   9.931   5.381  2.8904  1.1057 -4.0170
  882MOL0     H16412   1.555  10.320   4.878 -1.2943  1.6621 -3.6860
  882MOL0     H16413   1.414  10.279   4.679  0.6570 -0.6127 -1.4160
  882MOL0     H16414   1.328  10.208   4.513  1.2258 -0.0441  4.5281
  882MOL0     H16415   1.212  10.089   4.439 -1.9365  1.9349  1.7205
  882MOL0     H16416   1.428  10.066   4.332 -0.0201 -1.1096 -0.4776
  882MOL0     H16417   1.508  10.062   4.490  0.9714 -2.5208  0.2514
  882MOL0     H16418   1.394   9.843   4.541  1.0769 -0.7953 -1.0876
  882MOL0     H16419   1.509   9.841   4.399 -1.0099  0.3597 -3.7110
  882MOL0     H16420   1.211   9.833   4.391 -0.2490 -0.8563  1.0159
  882MOL0     H16421   1.301   9.872   4.243  2.1636  2.3447  1.0183
  882MOL0     H16422   1.384   9.452   4.285  0.6302 -0.0576 -0.6129
  882MOL0     H16423   1.317   9.882   4.837  1.8607  0.1520  0.2083
  882MOL0     H16424   1.468   9.906   5.005 -1.8284 -0.3936 -1.6023
  883MOL0     O16425   1.852   9.489   0.484  0.1723 -0.0952  0.6475
  883MOL0     C16426   1.868   9.588   0.553  0.7757  0.4306  0.1422
  883MOL0     O16427   1.759   9.669   0.584 -0.3293 -0.2190  0.8467
  883MOL0     C16428   1.637   9.629   0.536  0.7324  0.0627 -0.5298
  883MOL0     C16429   1.589   9.496   0.525  0.5379  0.0923  0.3844
  883MOL0     C16430   1.470   9.466   0.450 -0.8417 -0.7912  0.7989
  883MOL0     C16431   1.387   9.569   0.417 -0.1855 -0.2220  0.3383
  883MOL0     O16432   1.267   9.543   0.347  0.0939  0.3795  0.3932
  883MOL0     C16433   1.220   9.413   0.316  0.1233  0.1704 -0.5897
  883MOL0     C16434   1.111   9.430   0.202  0.0645 -0.3423  0.2860
  883MOL0     C16435   1.108   9.308   0.110  0.3009 -0.1014  0.1587
  883MOL0     C16436   1.237   9.292   0.037  0.2230 -0.0585  0.8354
  883MOL0     C16437   1.215   9.214  -0.099 -0.4410  0.2103  0.1791
  883MOL0     C16438   1.326   9.244  -0.207 -0.5553  0.2053 -0.4736
  883MOL0     C16439   1.457   9.165  -0.196  0.5885  1.3172 -0.4322
  883MOL0     C16440   1.444   9.013  -0.213 -0.3540  0.0495 -0.3765
  883MOL0     N16441   1.544   8.958  -0.310 -0.1219  0.2717 -0.0766
  883MOL0     C16442   1.647   8.871  -0.288 -0.6210 -0.3025 -0.4800
  883MOL0     C16443   1.693   8.826  -0.406 -0.5272  1.2089 -0.8932
  883MOL0     C16444   1.813   8.733  -0.417 -0.6495 -0.0941  0.4594
  883MOL0     C16445   1.925   8.768  -0.331 -0.0153 -0.0555 -0.9177
  883MOL0     C16446   1.982   8.908  -0.369  1.0176  0.5530  0.9024
  883MOL0     C16447   2.092   8.953  -0.269 -0.0589  0.3751 -0.4477
  883MOL0     O16448   2.070   8.924  -0.127  0.4662  0.6515 -0.3669
  883MOL0     C16449   1.956   8.960  -0.063 -0.0135 -0.1484  0.0124
  883MOL0     C16450   1.926   8.883   0.046 -0.5136 -0.0384  0.0944
  883MOL0     C16451   1.817   8.914   0.121 -0.5773  0.6134 -0.8701
  883MOL0     C16452   1.746   9.027   0.100 -0.0148 -0.7272  0.5378
  883MOL0     C16453   1.632   9.066   0.190 -0.9273  1.0479 -0.7111
  883MOL0     O16454   1.587   8.959   0.261 -0.9672  0.3359  0.1230
  883MOL0     C16455   1.456   8.969   0.309 -0.1173 -0.6945  0.5866
  883MOL0     C16456   1.349   8.933   0.231 -1.1343 -0.4051  0.2254
  883MOL0     C16457   1.219   8.942   0.281  0.0643  0.3311  0.4605
  883MOL0     C16458   1.190   8.994   0.406 -0.3159 -0.1203  0.5320
  883MOL0     O16459   1.055   8.985   0.445 -0.2206  0.6253 -0.3758
  883MOL0     C16460   1.024   9.060   0.564 -0.0541  0.1472 -1.0998
  883MOL0     C16461   1.051   8.974   0.691 -1.1350 -0.3147 -0.5853
  883MOL0     C16462   0.951   8.870   0.722  0.7839 -0.8503  1.5014
  883MOL0     C16463   1.005   8.763   0.813 -0.4694 -0.9017 -0.5107
  883MOL0     C16464   0.920   8.634   0.802 -1.0785  0.6940  0.2755
  883MOL0     C16465   0.967   8.518   0.892  0.0091 -0.7675 -0.1250
  883MOL0     C16466   1.074   8.422   0.812  0.4676  0.8407 -0.8216
  883MOL0     C16467   1.120   8.309   0.912  0.7915  0.1471  0.4893
  883MOL0    Cl16468   1.211   8.210   0.797 -0.1983 -0.1420  0.1988
  883MOL0     C16469   1.306   9.043   0.481  0.6539  0.9944 -0.5941
  883MOL0     C16470   1.438   9.030   0.431  1.4056 -0.3963 -0.2061
  883MOL0     O16471   1.578   9.176   0.179 -0.0122 -1.0822 -0.1347
  883MOL0     C16472   1.778   9.105  -0.014 -0.6956  0.2872  0.2305
  883MOL0     C16473   1.884   9.072  -0.092 -1.0974 -0.4229  0.5286
  883MOL0     N16474   1.604   8.878  -0.502  0.2651  0.3740 -0.0959
  883MOL0     N16475   1.527   8.959  -0.446  0.5788 -0.0612 -0.2167
  883MOL0     C16476   1.421   9.699   0.448  0.2058  0.4985  0.1791
  883MOL0     C16477   1.546   9.731   0.498  1.1546 -0.6051 -0.1300
  883MOL0     C16478   2.002   9.633   0.604 -0.6246  0.0530 -0.2188
  883MOL0     C16479   2.124   9.585   0.549  1.1995 -0.3650 -0.7834
  883MOL0     C16480   2.245   9.639   0.585  0.0828  0.4529  0.4721
  883MOL0     C16481   2.261   9.730   0.683  0.2461 -0.4158  0.4323
  883MOL0     O16482   2.392   9.767   0.700  0.8391  0.6008 -0.0519
  883MOL0     C16483   2.439   9.860   0.797  0.4878 -0.0989 -0.0433
  883MOL0     C16484   2.446  10.009   0.751  0.6609 -0.6067  0.5804
  883MOL0     C16485   2.563  10.039   0.670  0.0805  0.5522  0.6930
  883MOL0     C16486   2.579   9.958   0.546 -0.3134  0.2172 -0.2641
  883MOL0     C16487   2.472   9.978   0.463  0.1559 -0.7914 -0.2273
  883MOL0     C16488   2.367   9.985   0.400  1.5812  0.7717  0.1955
  883MOL0     C16489   2.148   9.787   0.745 -0.5543  0.6215  0.3763
  883MOL0     C16490   2.023   9.740   0.705 -0.6769  0.0540 -0.7130
  883MOL0     H16491   1.646   9.406   0.546  2.8562  1.7336  1.6003
  883MOL0     H16492   1.456   9.361   0.427  1.1816 -0.5309 -2.0217
  883MOL0     H16493   1.187   9.360   0.406 -0.8199 -4.2867 -3.2665
  883MOL0     H16494   1.304   9.357   0.274 -1.4987 -1.0142 -2.4166
  883MOL0     H16495   1.139   9.514   0.139  1.8789  0.0646  1.5572
  883MOL0     H16496   1.008   9.439   0.237 -0.3105 -3.4261  0.2951
  883MOL0     H16497   1.017   9.313   0.048 -1.6481  4.3432  2.8491
  883MOL0     H16498   1.097   9.217   0.169 -2.7153  0.6622  0.9462
  883MOL0     H16499   1.262   9.396   0.012 -2.3702  0.6764  1.0069
  883MOL0     H16500   1.312   9.243   0.099 -1.2012 -0.4944  2.2795
  883MOL0     H16501   1.123   9.236  -0.153 -0.7161 -0.6984  0.2673
  883MOL0     H16502   1.209   9.109  -0.070  1.2929  0.0128 -0.0779
  883MOL0     H16503   1.351   9.350  -0.202 -0.1931  0.0705  2.7474
  883MOL0     H16504   1.281   9.225  -0.305  0.8381  0.3598 -1.1676
  883MOL0     H16505   1.522   9.207  -0.274  0.2743  2.3304 -0.1691
  883MOL0     H16506   1.504   9.191  -0.101  2.0961 -2.4727  0.0223
  883MOL0     H16507   1.345   8.983  -0.248 -0.0000 -1.3238 -0.2838
  883MOL0     H16508   1.460   8.977  -0.110 -1.1309  1.3303  0.2136
  883MOL0     H16509   1.687   8.840  -0.192  2.4881 -2.4272 -2.2786
  883MOL0     H16510   1.852   8.712  -0.517  1.8743 -1.9561  1.7196
  883MOL0     H16511   1.780   8.635  -0.379  2.8461 -1.6289 -0.1489
  883MOL0     H16512   1.996   8.687  -0.351 -1.4501 -1.0734 -2.0824
  883MOL0     H16513   1.881   8.759  -0.231 -0.5164 -0.4767 -1.1729
  883MOL0     H16514   2.020   8.893  -0.471 -1.1785 -1.8162  0.3437
  883MOL0     H16515   1.898   8.978  -0.378  0.9583  0.2587 -1.6230
  883MOL0     H16516   2.112   9.061  -0.274  1.1710  0.1105 -2.0455
  883MOL0     H16517   2.189   8.905  -0.286  1.2485  1.7370  2.4680
  883MOL0     H16518   1.986   8.796   0.068  1.3577  1.5485  1.6368
  883MOL0     H16519   1.792   8.837   0.193  0.2700  0.0114 -1.1951
  883MOL0     H16520   1.376   8.904   0.130  0.6563  0.9515  0.2719
  883MOL0     H16521   1.132   8.916   0.222 -4.2041  0.5844  5.8239
  883MOL0     H16522   0.917   9.081   0.564  0.0686  0.8249 -1.5389
  883MOL0     H16523   1.071   9.159   0.571 -1.5792  0.8873 -0.9474
  883MOL0     H16524   1.062   9.039   0.778  1.1495 -0.5491 -0.6345
  883MOL0     H16525   1.147   8.922   0.682 -1.0756 -1.3464  3.6329
  883MOL0     H16526   0.915   8.833   0.626 -1.7931  4.3110  0.0976
  883MOL0     H16527   0.862   8.921   0.761  0.2453  1.0805 -1.9074
  883MOL0     H16528   1.108   8.745   0.780 -1.1225 -2.9147 -1.6652
  883MOL0     H16529   1.003   8.794   0.918  0.9427 -1.8093 -0.1876
  883MOL0     H16530   0.907   8.607   0.697 -0.9844 -2.5892  1.0125
  883MOL0     H16531   0.821   8.661   0.839 -3.1498 -4.4824 -0.7106
  883MOL0     H16532   0.875   8.461   0.906 -0.3251 -1.0093 -2.8590
  883MOL0     H16533   1.008   8.572   0.978  2.0066 -0.3449 -1.2784
  883MOL0     H16534   1.024   8.386   0.721  0.4971  2.7281 -1.6392
  883MOL0     H16535   1.156   8.479   0.767 -0.0315 -1.2072 -4.8386
  883MOL0     H16536   1.035   8.262   0.962  1.5943 -2.0294 -0.0413
  883MOL0     H16537   1.182   8.356   0.988 -0.3338 -0.7372  2.0174
  883MOL0     H16538   1.281   9.092   0.575  0.5403 -2.6487  1.4707
  883MOL0     H16539   1.525   9.069   0.482 -1.6211  3.5083  2.5516
  883MOL0     H16540   1.714   9.180  -0.059 -3.3525 -1.9133  0.0794
  883MOL0     H16541   1.915   9.134  -0.176  0.0657 -1.3284  0.2661
  883MOL0     H16542   1.342   9.771   0.431  0.7560  1.0350 -0.1490
  883MOL0     H16543   1.572   9.832   0.527 -1.3152  0.1839 -0.4453
  883MOL0     H16544   2.113   9.529   0.457 -1.4795  0.7441 -1.2304
  883MOL0     H16545   2.333   9.607   0.530  0.9260 -1.2721  2.6933
  883MOL0     H16546   2.531   9.826   0.843 -1.6956 -3.3031  2.4003
  883MOL0     H16547   2.367   9.857   0.880 -1.4731 -1.0772 -1.6811
  883MOL0     H16548   2.356  10.048   0.702  1.1391 -0.3498 -0.1043
  883MOL0     H16549   2.451  10.076   0.837  1.0388  2.2083 -1.4897
  883MOL0     H16550   2.646  10.021   0.739 -2.0939 -0.1743  3.2791
  883MOL0     H16551   2.574  10.142   0.635  0.9530  0.2446  0.0184
  883MOL0     H16552   2.676   9.984   0.504 -0.2948  1.0771  0.2764
  883MOL0     H16553   2.596   9.854   0.574  1.1705 -0.0837 -2.0969
  883MOL0     H16554   2.276   9.995   0.345  1.0733  1.9518  1.1990
  883MOL0     H16555   2.145   9.862   0.823  2.7042  0.7264  0.5345
  883MOL0     H16556   1.939   9.800   0.738 -0.6202  0.4549 -1.2932
  884MOL0     O16557   8.584   9.206   8.703 -0.0962  0.2614 -0.2136
  884MOL0     C16558   8.686   9.192   8.638 -0.2386 -0.1486  0.3607
  884MOL0     O16559   8.812   9.215   8.678  0.3646 -0.5487  0.3751
  884MOL0     C16560   8.838   9.256   8.809 -0.1337  0.6931 -1.1549
  884MOL0     C16561   8.790   9.383   8.853 -0.4156 -0.0022 -0.1448
  884MOL0     C16562   8.818   9.430   8.983 -0.4321  0.4936  0.1770
  884MOL0     C16563   8.897   9.354   9.069  0.4504  0.1565  0.0360
  884MOL0     O16564   8.931   9.402   9.185 -0.3827 -0.5935 -0.2859
  884MOL0     C16565   9.065   9.365   9.243 -0.2355 -0.1939  0.1429
  884MOL0     C16566   9.043   9.265   9.361  0.1071 -0.6931  0.1346
  884MOL0     C16567   9.171   9.201   9.402 -0.6375  0.6167  0.4606
  884MOL0     C16568   9.145   9.094   9.519 -1.5057 -0.3097  0.7522
  884MOL0     C16569   9.271   9.062   9.589  0.5049 -1.1587 -0.7984
  884MOL0     C16570   9.241   8.968   9.711 -0.4385  0.4248  0.7539
  884MOL0     C16571   9.367   8.950   9.798  0.5976 -0.7154 -0.3791
  884MOL0     C16572   9.506   8.938   9.727  1.4525  0.5457 -0.1538
  884MOL0     N16573   9.616   8.897   9.811 -1.1328 -0.0608  0.5120
  884MOL0     C16574   9.619   8.903   9.946 -0.2354 -1.6212 -0.3056
  884MOL0     C16575   9.747   8.876   9.974 -0.3099  0.0924  0.2018
  884MOL0     C16576   9.818   8.881  10.101  0.3428  0.1613 -0.6609
  884MOL0     C16577   9.877   8.743  10.137 -0.5670 -1.0406 -0.3856
  884MOL0     C16578   9.774   8.632  10.154 -0.0701 -0.3148  0.1814
  884MOL0     C16579   9.762   8.543  10.026 -0.6150  0.0067 -0.6849
  884MOL0     O16580   9.632   8.561   9.962 -0.3100 -1.4141 -0.6540
  884MOL0     C16581   9.590   8.476   9.863  0.0482 -0.2253  0.5448
  884MOL0     C16582   9.461   8.494   9.800 -0.0108  0.6984 -0.7062
  884MOL0     C16583   9.406   8.415   9.704  0.1257 -0.1453  0.1118
  884MOL0     C16584   9.477   8.296   9.663  0.0922  0.2533 -0.6146
  884MOL0     C16585   9.414   8.193   9.573 -0.1040 -0.1535  0.6658
  884MOL0     O16586   9.490   8.074   9.540  0.8150 -0.5132 -0.1149
  884MOL0     C16587   9.434   7.987   9.456 -0.7699  0.3755 -0.9951
  884MOL0     C16588   9.308   7.934   9.470  0.0412  0.1994  0.3051
  884MOL0     C16589   9.256   7.842   9.377 -0.1973  0.6722  0.2062
  884MOL0     C16590   9.344   7.805   9.272  0.2415 -0.7515 -0.7763
  884MOL0     O16591   9.291   7.720   9.173  0.2747 -0.0485  0.6314
  884MOL0     C16592   9.200   7.612   9.220 -0.2973 -0.3282  0.0768
  884MOL0     C16593   9.171   7.512   9.117 -0.8129 -0.1885  0.0685
  884MOL0     C16594   9.077   7.569   9.010  0.4151  0.3495  0.3804
  884MOL0     C16595   9.072   7.481   8.883  0.0572 -0.4699  0.4496
  884MOL0     C16596   8.978   7.547   8.776 -0.2771  0.2309  0.1797
  884MOL0     C16597   8.992   7.464   8.647  0.2523  0.2234 -0.7054
  884MOL0     C16598   8.918   7.334   8.653 -0.3935 -0.0397 -0.4351
  884MOL0     C16599   8.966   7.238   8.546 -0.1024 -0.2072  0.9718
  884MOL0    Cl16600   8.997   7.323   8.392  0.0243 -0.3699 -0.1818
  884MOL0     C16601   9.471   7.851   9.267  1.1366  0.0073  0.5332
  884MOL0     C16602   9.517   7.949   9.356  0.0592  0.1747 -0.3333
  884MOL0     O16603   9.305   8.218   9.515 -0.4746 -0.2927 -0.3764
  884MOL0     C16604   9.609   8.276   9.723 -0.8105 -0.5217 -0.5905
  884MOL0     C16605   9.660   8.370   9.817 -0.2937 -0.0712  0.5608
  884MOL0     N16606   9.819   8.843   9.862 -0.0725 -0.2740  0.5599
  884MOL0     N16607   9.732   8.853   9.761  0.8919  0.7204 -0.5302
  884MOL0     C16608   8.950   9.232   9.029 -0.0237  0.7234 -0.1290
  884MOL0     C16609   8.919   9.195   8.895  0.1079 -0.0955 -0.8108
  884MOL0     C16610   8.664   9.148   8.497  0.5184 -0.1114 -0.3943
  884MOL0     C16611   8.530   9.143   8.443 -1.1550  0.6644 -0.1524
  884MOL0     C16612   8.516   9.087   8.314  0.1811 -0.2860  0.5072
  884MOL0     C16613   8.613   9.042   8.228 -0.1927 -0.3511 -0.6386
  884MOL0     O16614   8.591   9.008   8.097  1.3259 -0.2102 -0.1171
  884MOL0     C16615   8.677   8.919   8.035 -0.0380 -0.6489 -0.1453
  884MOL0     C16616   8.688   8.789   8.111  0.3840  0.6331 -0.6360
  884MOL0     C16617   8.740   8.679   8.019  0.7738  0.6150 -1.0315
  884MOL0     C16618   8.881   8.711   7.983 -0.6487  0.1577  0.7017
  884MOL0     C16619   8.938   8.603   7.901  0.0030  0.5247  0.2715
  884MOL0     C16620   8.998   8.523   7.835 -0.7772  0.0976 -0.6161
  884MOL0     C16621   8.740   9.051   8.280 -0.0308  0.4053 -0.5047
  884MOL0     C16622   8.769   9.119   8.406 -0.2710  0.4086 -1.2934
  884MOL0     H16623   8.749   9.452   8.778 -3.1293 -0.9562  0.3492
  884MOL0     H16624   8.780   9.524   9.024 -0.4075  0.7732 -0.4326
  884MOL0     H16625   9.118   9.455   9.275  1.8927 -0.1353 -3.0369
  884MOL0     H16626   9.129   9.313   9.171 -1.8790 -0.7132 -1.0071
  884MOL0     H16627   8.976   9.181   9.340  0.3280 -1.0732  0.9303
  884MOL0     H16628   8.990   9.326   9.435  1.3460  3.4873 -2.0862
  884MOL0     H16629   9.249   9.272   9.433  1.2074 -1.4819  0.8359
  884MOL0     H16630   9.206   9.156   9.309  0.2455  1.9894  0.0827
  884MOL0     H16631   9.078   9.142   9.590 -1.0484  0.7582  0.4884
  884MOL0     H16632   9.112   8.996   9.485  1.4974 -1.2109  0.1716
  884MOL0     H16633   9.324   9.156   9.602 -0.5208 -0.3693 -2.0388
  884MOL0     H16634   9.337   9.015   9.516  1.4073  0.8017 -1.2838
  884MOL0     H16635   9.210   8.870   9.671  0.7439  1.0744 -2.0030
  884MOL0     H16636   9.166   9.017   9.774 -1.4105 -0.5638  0.4089
  884MOL0     H16637   9.378   9.036   9.865  2.4859 -0.0023 -1.5240
  884MOL0     H16638   9.329   8.873   9.865  0.0237  2.0230  2.6899
  884MOL0     H16639   9.530   9.031   9.675 -0.8917  0.8451 -0.8535
  884MOL0     H16640   9.499   8.849   9.663 -0.2959 -0.0642  0.8177
  884MOL0     H16641   9.535   8.922  10.011 -0.4227 -1.0270 -0.7098
  884MOL0     H16642   9.757   8.922  10.181  0.8629 -0.0195 -0.1604
  884MOL0     H16643   9.898   8.950  10.072 -1.3950  2.2081 -0.8130
  884MOL0     H16644   9.927   8.756  10.234  1.2101  0.4923 -1.4495
  884MOL0     H16645   9.953   8.724  10.061  0.3659  0.3499  0.1765
  884MOL0     H16646   9.790   8.565  10.238  1.7479  1.5881  1.4493
  884MOL0     H16647   9.678   8.681  10.170 -1.8453 -3.1052 -1.2328
  884MOL0     H16648   9.762   8.439  10.059 -1.5435  0.5460  1.1147
  884MOL0     H16649   9.838   8.572   9.953 -1.6927 -0.8937 -2.2420
  884MOL0     H16650   9.412   8.584   9.835  2.6780  1.9039  0.2435
  884MOL0     H16651   9.304   8.428   9.669 -0.5826  0.4354  2.1901
  884MOL0     H16652   9.254   7.976   9.555  0.1317  2.4351 -0.6765
  884MOL0     H16653   9.158   7.797   9.391  0.2684 -2.0620 -3.5767
  884MOL0     H16654   9.103   7.657   9.238  0.7119  1.1322  2.3905
  884MOL0     H16655   9.230   7.561   9.313 -2.3467 -1.7428  0.0252
  884MOL0     H16656   9.128   7.422   9.161  0.8346 -0.8540  0.4145
  884MOL0     H16657   9.269   7.483   9.077 -0.8794 -4.8988  2.6284
  884MOL0     H16658   9.090   7.672   8.974 -1.2351 -0.1500 -1.8627
  884MOL0     H16659   8.979   7.562   9.058 -0.7753  0.1948 -1.9196
  884MOL0     H16660   9.176   7.469   8.852  1.5501  0.7840  4.3445
  884MOL0     H16661   9.041   7.382   8.918 -1.8092  0.9194  3.0405
  884MOL0     H16662   9.021   7.647   8.763 -1.1147  0.2473 -3.2995
  884MOL0     H16663   8.872   7.562   8.796 -0.0513  3.1934 -0.4119
  884MOL0     H16664   9.100   7.449   8.637  0.6107  0.3492  2.0381
  884MOL0     H16665   8.948   7.521   8.565 -0.8007  0.5357  0.0516
  884MOL0     H16666   8.925   7.284   8.750  0.9975  1.1319  0.1004
  884MOL0     H16667   8.810   7.347   8.644 -1.7019 -0.3092  7.3877
  884MOL0     H16668   8.891   7.158   8.543  1.5698 -1.8166  0.2650
  884MOL0     H16669   9.061   7.193   8.576 -0.3819 -0.0897  2.0832
  884MOL0     H16670   9.542   7.796   9.206 -0.0569  0.2276 -1.1452
  884MOL0     H16671   9.621   7.979   9.363  0.3290 -0.6868 -0.5456
  884MOL0     H16672   9.674   8.194   9.692  2.6655  1.4782  0.7967
  884MOL0     H16673   9.759   8.355   9.860  0.5728  0.2700 -1.2243
  884MOL0     H16674   9.025   9.173   9.080  1.0165  2.1048  0.0079
  884MOL0     H16675   8.966   9.106   8.853  0.5524 -0.0584 -0.3964
  884MOL0     H16676   8.454   9.185   8.508  0.5931  2.7776  0.6467
  884MOL0     H16677   8.416   9.090   8.271  1.5489 -2.9497 -3.4318
  884MOL0     H16678   8.777   8.964   8.029 -0.3233  0.0022 -0.1089
  884MOL0     H16679   8.634   8.900   7.936 -2.4187 -1.1165  0.9183
  884MOL0     H16680   8.750   8.805   8.200 -1.0547  2.8194  0.0432
  884MOL0     H16681   8.585   8.770   8.143  0.3257  1.8506 -0.0530
  884MOL0     H16682   8.675   8.685   7.931  1.6985  0.3521 -1.7559
  884MOL0     H16683   8.724   8.577   8.055 -2.4725  1.2831 -0.2579
  884MOL0     H16684   8.880   8.805   7.926 -0.9322  0.4248  1.1398
  884MOL0     H16685   8.952   8.707   8.066 -1.2249 -2.2517  1.1593
  884MOL0     H16686   9.046   8.442   7.783 -2.4088 -1.0165 -0.4424
  884MOL0     H16687   8.824   9.026   8.216  0.6188 -1.7319  1.0772
  884MOL0     H16688   8.867   9.087   8.441 -0.0817  3.1857  1.0619
  885MOL0     O16689   2.025   3.796   8.304  0.0506 -0.0271  0.4241
  885MOL0     C16690   1.923   3.756   8.244  1.1022 -0.3272 -0.0212
  885MOL0     O16691   1.800   3.739   8.309 -0.6554  0.2560  0.3579
  885MOL0     C16692   1.777   3.794   8.426  0.7683 -0.4961 -0.8751
  885MOL0     C16693   1.805   3.928   8.462 -0.0143 -0.3639  0.4973
  885MOL0     C16694   1.771   3.978   8.590 -0.6063  0.0876  0.5192
  885MOL0     C16695   1.699   3.906   8.685  0.1293  1.3952  0.4474
  885MOL0     O16696   1.665   3.950   8.811  0.0174 -0.1951  0.0396
  885MOL0     C16697   1.713   4.083   8.857 -0.1551 -0.0348 -0.5990
  885MOL0     C16698   1.685   4.110   9.005 -0.4128 -0.2264 -0.1545
  885MOL0     C16699   1.537   4.129   9.043 -0.0041 -0.2455  0.5799
  885MOL0     C16700   1.518   4.132   9.193 -0.8898  0.0341  0.1649
  885MOL0     C16701   1.368   4.139   9.237 -0.2250  0.7153 -0.1034
  885MOL0     C16702   1.333   4.082   9.373  1.0578 -0.6090  0.8903
  885MOL0     C16703   1.179   4.076   9.408  0.8920 -0.2707  0.2708
  885MOL0     C16704   1.086   3.998   9.311 -0.6311 -0.9149  0.3824
  885MOL0     N16705   1.119   3.862   9.326 -0.5503 -0.7661 -0.5536
  885MOL0     C16706   1.109   3.753   9.240 -0.0123 -0.9094 -0.3199
  885MOL0     C16707   1.150   3.641   9.312 -0.0451 -0.9129  0.8719
  885MOL0     C16708   1.145   3.499   9.275 -0.1319 -0.2158 -0.3055
  885MOL0     C16709   1.176   3.474   9.124  0.1019 -0.1054 -0.1163
  885MOL0     C16710   1.049   3.491   9.039 -0.1847 -0.9365 -0.4620
  885MOL0     C16711   1.069   3.557   8.898  0.6012 -0.0720  0.6387
  885MOL0     O16712   1.177   3.658   8.891  0.6142 -0.4136 -1.2524
  885MOL0     C16713   1.211   3.732   8.785 -0.5352 -0.0400 -0.0949
  885MOL0     C16714   1.310   3.829   8.801 -0.0495 -0.3726  0.4268
  885MOL0     C16715   1.333   3.920   8.695  0.1993  0.1030  0.1071
  885MOL0     C16716   1.276   3.900   8.570  0.2226  1.1764 -0.6472
  885MOL0     C16717   1.301   3.986   8.456 -0.4971 -0.4821  0.2824
  885MOL0     O16718   1.311   3.936   8.327  0.3083  0.4297 -0.0892
  885MOL0     C16719   1.388   3.996   8.239 -0.6023  0.3212  0.1705
  885MOL0     C16720   1.517   4.052   8.256  0.0227  0.5234  0.0594
  885MOL0     C16721   1.605   4.087   8.151 -0.2812 -0.1538  0.3638
  885MOL0     C16722   1.569   4.061   8.020 -1.0718 -0.4087 -0.4702
  885MOL0     O16723   1.663   4.081   7.924 -0.3105  0.2524 -0.1834
  885MOL0     C16724   1.674   4.000   7.805 -0.2825 -0.3231  0.0369
  885MOL0     C16725   1.811   4.031   7.750 -0.5017 -0.3106 -0.2036
  885MOL0     C16726   1.842   3.951   7.622 -0.4055  0.0169  0.5684
  885MOL0     C16727   1.990   3.968   7.593  0.6186  0.6412 -0.1839
  885MOL0     C16728   2.007   3.900   7.453  0.4934 -0.0375 -0.1860
  885MOL0     C16729   2.089   3.990   7.358 -0.5857 -1.3987 -0.4661
  885MOL0     C16730   2.234   3.992   7.423 -0.7112 -0.5607  0.9624
  885MOL0     C16731   2.341   4.071   7.331  1.1865 -0.4664  0.4534
  885MOL0    Cl16732   2.484   4.130   7.410  0.3355 -0.1985  0.3811
  885MOL0     C16733   1.441   4.010   7.997  0.0102 -0.3743 -0.4741
  885MOL0     C16734   1.353   3.980   8.102 -0.3735  0.9621 -0.1534
  885MOL0     O16735   1.312   4.103   8.480 -0.8227 -0.0251 -0.6225
  885MOL0     C16736   1.188   3.790   8.547  0.2758 -0.5230 -0.1288
  885MOL0     C16737   1.145   3.719   8.658 -0.2847 -0.5602 -0.1413
  885MOL0     N16738   1.180   3.682   9.441  0.1455  0.2407  1.5011
  885MOL0     N16739   1.164   3.813   9.442 -0.1242 -0.6713 -0.2069
  885MOL0     C16740   1.676   3.770   8.648 -0.1135 -0.5094  0.0963
  885MOL0     C16741   1.713   3.715   8.519 -0.4888 -1.0058 -1.1326
  885MOL0     C16742   1.931   3.699   8.114 -0.5360  0.4545  0.1978
  885MOL0     C16743   1.988   3.769   8.010  0.1744  0.0235 -0.4219
  885MOL0     C16744   1.990   3.708   7.884 -0.4680 -0.2722  0.3034
  885MOL0     C16745   1.945   3.580   7.861  0.0518 -0.3496  0.6325
  885MOL0     O16746   1.951   3.535   7.733 -0.0987  0.1433  0.0989
  885MOL0     C16747   1.896   3.407   7.706 -0.9947  0.0815 -0.3325
  885MOL0     C16748   1.919   3.381   7.559 -0.4739  0.1072  0.9913
  885MOL0     C16749   2.074   3.372   7.520 -0.9321 -1.2964 -0.1322
  885MOL0     C16750   2.109   3.483   7.421 -0.1532 -0.1381 -0.1325
  885MOL0     C16751   2.056   3.437   7.297 -0.1835  0.5478  0.4399
  885MOL0     C16752   1.999   3.385   7.200 -0.1256  0.1014 -0.4392
  885MOL0     C16753   1.893   3.507   7.969  0.2982 -0.4653  0.3235
  885MOL0     C16754   1.881   3.567   8.093 -0.4509  0.2199  0.3460
  885MOL0     H16755   1.845   3.995   8.386 -0.1226  0.4240  1.1213
  885MOL0     H16756   1.811   4.077   8.611  1.2826 -0.5930  0.3302
  885MOL0     H16757   1.665   4.162   8.799  2.6803  1.9334 -0.4180
  885MOL0     H16758   1.821   4.096   8.848  0.5154 -2.1829  2.4710
  885MOL0     H16759   1.722   4.212   9.021  1.4181 -0.7253 -0.9891
  885MOL0     H16760   1.736   4.042   9.074  1.2979  1.0096 -0.1637
  885MOL0     H16761   1.478   4.053   8.991  0.6779 -2.3151  2.6099
  885MOL0     H16762   1.515   4.223   8.992  0.8400  0.5097  1.5474
  885MOL0     H16763   1.545   4.034   9.233 -3.2512 -1.3397 -1.3765
  885MOL0     H16764   1.586   4.207   9.235 -0.4871  1.5049 -2.8072
  885MOL0     H16765   1.324   4.068   9.166 -1.4327 -0.2150  1.5166
  885MOL0     H16766   1.321   4.237   9.227  3.1278  3.0842  4.0541
  885MOL0     H16767   1.375   4.141   9.456 -1.6316  2.4039  0.2858
  885MOL0     H16768   1.371   3.980   9.385 -1.0293 -1.8242 -1.8223
  885MOL0     H16769   1.159   4.034   9.507  1.4908  0.3058  0.6456
  885MOL0     H16770   1.146   4.180   9.397  3.5354  0.7447  1.0917
  885MOL0     H16771   1.094   4.028   9.206 -1.4965  0.0094  0.5747
  885MOL0     H16772   0.982   4.007   9.344 -0.1148  0.6962  1.6988
  885MOL0     H16773   1.053   3.760   9.147 -2.0439  0.5322  0.9314
  885MOL0     H16774   1.048   3.455   9.300 -0.8465  0.4827 -1.7560
  885MOL0     H16775   1.215   3.444   9.339  1.0736  2.2665  0.6273
  885MOL0     H16776   1.210   3.371   9.111  2.2186  0.6433 -0.9700
  885MOL0     H16777   1.251   3.544   9.087  1.8714 -0.6219  2.2349
  885MOL0     H16778   0.994   3.399   9.019 -0.5527 -0.9554  0.5814
  885MOL0     H16779   0.978   3.560   9.085 -0.6633 -1.1704 -0.8386
  885MOL0     H16780   0.974   3.604   8.871  1.0251 -0.0205 -0.8432
  885MOL0     H16781   1.085   3.486   8.817 -0.1331  0.7114 -0.2077
  885MOL0     H16782   1.366   3.822   8.893  0.0634 -1.5031  0.2931
  885MOL0     H16783   1.394   4.009   8.711  0.2394  0.2727 -0.9441
  885MOL0     H16784   1.546   4.081   8.357 -2.4954  1.1486  0.6730
  885MOL0     H16785   1.701   4.136   8.168 -1.2005  1.2190  1.8863
  885MOL0     H16786   1.605   4.033   7.728  0.5736  0.3626 -0.4545
  885MOL0     H16787   1.657   3.895   7.830  3.1974 -1.0398 -0.0880
  885MOL0     H16788   1.872   4.004   7.836 -0.0059  2.1864  0.3148
  885MOL0     H16789   1.816   4.140   7.743  0.1070 -0.2953  0.3790
  885MOL0     H16790   1.789   3.996   7.538  0.6581  1.6371  0.7292
  885MOL0     H16791   1.809   3.847   7.638  0.4492 -0.2420  0.6981
  885MOL0     H16792   2.014   4.074   7.586 -0.9307  0.9493 -1.7511
  885MOL0     H16793   2.043   3.922   7.677 -0.2162  0.2458  0.1344
  885MOL0     H16794   1.911   3.864   7.416 -0.3332 -2.0445  3.4405
  885MOL0     H16795   2.062   3.807   7.468 -1.1063 -0.8093  1.2431
  885MOL0     H16796   2.047   4.090   7.345 -2.6035 -2.0814  0.5262
  885MOL0     H16797   2.087   3.947   7.257 -0.8711  1.3398 -1.7442
  885MOL0     H16798   2.234   4.055   7.512  1.8782  1.8777 -0.6047
  885MOL0     H16799   2.260   3.892   7.458  2.0806  0.2506  1.4417
  885MOL0     H16800   2.295   4.163   7.296  1.0653 -0.5678  0.3444
  885MOL0     H16801   2.367   4.007   7.246 -2.9733 -2.3616  0.3747
  885MOL0     H16802   1.423   3.980   7.895  0.1183 -2.8335  0.1611
  885MOL0     H16803   1.258   3.931   8.080  0.8137 -0.8522 -1.5194
  885MOL0     H16804   1.144   3.782   8.448 -0.5867  0.6571  0.1380
  885MOL0     H16805   1.069   3.642   8.644  0.1653 -1.0517  0.0668
  885MOL0     H16806   1.631   3.707   8.724 -0.3004 -0.4454  0.0387
  885MOL0     H16807   1.702   3.611   8.490 -0.2617 -1.0341 -1.1251
  885MOL0     H16808   2.022   3.870   8.032  1.2401 -0.8890  2.7002
  885MOL0     H16809   2.041   3.750   7.798  1.6480  1.5353  2.2919
  885MOL0     H16810   1.795   3.400   7.748 -0.2340  0.2335  1.6027
  885MOL0     H16811   1.945   3.328   7.764 -1.6497  0.6884  1.0948
  885MOL0     H16812   1.878   3.281   7.539  1.6062 -1.2476  3.0291
  885MOL0     H16813   1.866   3.459   7.503  1.1545  0.7866  0.3626
  885MOL0     H16814   2.105   3.274   7.484  0.0775 -1.0694  0.0663
  885MOL0     H16815   2.135   3.391   7.609 -1.4244  2.4599 -0.4411
  885MOL0     H16816   2.087   3.586   7.448  1.4596  1.1529 -3.2122
  885MOL0     H16817   2.217   3.499   7.418 -0.6014  4.8143  1.2792
  885MOL0     H16818   1.957   3.338   7.114 -4.2703 -2.0411  2.3921
  885MOL0     H16819   1.859   3.404   7.959  1.7001 -1.1431  2.0173
  885MOL0     H16820   1.844   3.504   8.173  2.0802 -0.3855  1.1601
  886MOL0     O16821  10.107   5.726  10.200 -0.2608 -1.0442 -0.1748
  886MOL0     C16822  10.120   5.848  10.170 -0.4477 -0.1159 -0.5349
  886MOL0     O16823  10.018   5.934  10.139 -0.1778  0.0888 -0.0829
  886MOL0     C16824   9.889   5.892  10.162 -1.0178  0.6596 -0.3796
  886MOL0     C16825   9.824   5.973  10.260  0.3843  0.7977 -0.3238
  886MOL0     C16826   9.688   5.950  10.291  0.5866 -0.0313  0.8758
  886MOL0     C16827   9.608   5.859  10.214  0.1759 -0.1370  0.3757
  886MOL0     O16828   9.478   5.843  10.205  0.3499 -0.0308  0.1510
  886MOL0     C16829   9.394   5.953  10.231  0.2815  0.2448 -0.6116
  886MOL0     C16830   9.250   5.904  10.199 -1.1341  0.5986 -0.0986
  886MOL0     C16831   9.140   5.979  10.276  0.1063 -0.6298 -0.6042
  886MOL0     C16832   9.001   5.967  10.212 -0.1400  0.4934 -0.5089
  886MOL0     C16833   8.924   6.089  10.231  0.0905  1.4109  0.2351
  886MOL0     C16834   8.790   6.093  10.150 -0.8799  0.6262  0.1774
  886MOL0     C16835   8.730   6.230  10.171 -0.0603 -0.6333  0.3621
  886MOL0     C16836   8.664   6.264  10.301  0.3470 -1.2075 -0.1471
  886MOL0     N16837   8.554   6.170  10.329  0.3588  0.7819 -0.0887
  886MOL0     C16838   8.432   6.175  10.254 -0.2360  1.0975 -0.1594
  886MOL0     C16839   8.367   6.064  10.297  0.7753  0.4187 -0.2692
  886MOL0     C16840   8.232   6.001  10.265 -0.7355 -0.8434 -0.4145
  886MOL0     C16841   8.250   5.898  10.160 -0.1276 -0.0009 -0.7406
  886MOL0     C16842   8.138   5.816  10.108  0.0864  0.9857 -0.1173
  886MOL0     C16843   8.056   5.727  10.198 -0.1157 -0.0035 -0.1539
  886MOL0     O16844   7.992   5.813  10.303 -0.3305  1.0515  0.5352
  886MOL0     C16845   7.879   5.878  10.257 -0.3013 -0.7956  0.5182
  886MOL0     C16846   7.798   5.842  10.147 -0.5152  0.4699 -0.9509
  886MOL0     C16847   7.687   5.924  10.120 -0.6362  0.0032  0.6871
  886MOL0     C16848   7.653   6.034  10.197 -1.0410  0.2200  0.4934
  886MOL0     C16849   7.515   6.091  10.181  0.4952  0.2559  0.2701
  886MOL0     O16850   7.422   6.026  10.106  0.0178 -0.0817  0.3494
  886MOL0     C16851   7.306   6.096  10.099  0.2656 -0.0993 -0.5014
  886MOL0     C16852   7.196   6.077  10.186  0.3373 -0.3889 -0.4317
  886MOL0     C16853   7.078   6.149  10.172 -0.3258 -0.5004  0.8130
  886MOL0     C16854   7.060   6.242  10.065 -0.6343 -0.0161  0.4812
  886MOL0     O16855   6.933   6.287  10.047 -0.4662 -0.2327 -0.0289
  886MOL0     C16856   6.909   6.355   9.921 -0.0417 -0.0474 -0.5704
  886MOL0     C16857   6.924   6.277   9.785  0.2929  0.3189  1.1044
  886MOL0     C16858   6.869   6.380   9.681 -0.1065 -0.2816  0.2009
  886MOL0     C16859   6.938   6.340   9.542  0.6402  0.1519 -0.6427
  886MOL0     C16860   6.880   6.406   9.415 -0.4319  1.1628 -0.7055
  886MOL0     C16861   6.886   6.552   9.433 -0.7018 -0.6695  0.9392
  886MOL0     C16862   6.839   6.606   9.302 -0.7333  0.9058 -0.3132
  886MOL0     C16863   6.841   6.751   9.286  0.7944  0.3452 -0.2218
  886MOL0    Cl16864   7.006   6.822   9.295 -0.0147 -0.3335  0.5528
  886MOL0     C16865   7.171   6.271   9.978  0.6849  0.9508 -0.0524
  886MOL0     C16866   7.283   6.196  10.003 -0.1843  0.7387  0.6443
  886MOL0     O16867   7.499   6.205  10.233 -0.3109 -0.4550  0.0752
  886MOL0     C16868   7.734   6.064  10.304  0.1330 -0.8345 -0.0360
  886MOL0     C16869   7.846   5.987  10.334 -0.8279 -0.2267 -0.3992
  886MOL0     N16870   8.451   5.985  10.384  0.5981 -0.7359 -0.3063
  886MOL0     N16871   8.565   6.051  10.398 -0.6966 -0.1103 -0.3049
  886MOL0     C16872   9.674   5.781  10.117 -0.1122 -0.3670 -0.2263
  886MOL0     C16873   9.810   5.794  10.102 -0.7210 -0.3401  0.1684
  886MOL0     C16874  10.259   5.901  10.165  0.0308  0.6233  0.3266
  886MOL0     C16875  10.366   5.825  10.209  0.0127 -0.9299  0.4125
  886MOL0     C16876  10.496   5.879  10.207  0.0990  0.0600 -0.6222
  886MOL0     C16877  10.516   6.006  10.169  0.4054 -1.1335  0.2292
  886MOL0     O16878  10.642   6.059  10.175  0.6761 -0.3820  0.1193
  886MOL0     C16879  10.666   6.182  10.110  0.7256 -0.2206 -0.1327
  886MOL0     C16880  10.812   6.211  10.109 -0.6009  0.1282 -0.5675
  886MOL0     C16881  10.846   6.354  10.078 -0.2802 -0.5847 -0.1206
  886MOL0     C16882  10.879   6.423  10.205 -1.0379 -0.1434  0.0198
  886MOL0     C16883  10.894   6.569  10.176  0.0655  0.4491 -1.3545
  886MOL0     C16884  10.928   6.680  10.148  0.1182 -0.5515 -1.0690
  886MOL0     C16885  10.410   6.083  10.120 -0.2482  0.5952  0.3055
  886MOL0     C16886  10.281   6.035  10.125  0.5723 -0.2135  0.1267
  886MOL0     H16887   9.881   6.047  10.316 -1.4950 -0.1256  3.0343
  886MOL0     H16888   9.630   6.026  10.340  3.8877  2.7423  0.8744
  886MOL0     H16889   9.418   6.045  10.177  0.7190 -1.6204 -3.9086
  886MOL0     H16890   9.396   5.969  10.339  0.4283  3.3537 -0.9942
  886MOL0     H16891   9.236   5.797  10.215 -2.6927  0.6133 -1.2022
  886MOL0     H16892   9.230   5.919  10.092  2.7831  0.3678 -1.0267
  886MOL0     H16893   9.159   6.087  10.276 -1.7657 -0.2768 -0.9393
  886MOL0     H16894   9.142   5.946  10.381  1.3282  1.4268  0.0788
  886MOL0     H16895   9.016   5.948  10.105  1.3876 -3.4877  0.2365
  886MOL0     H16896   8.947   5.879  10.248 -0.2686  0.5941 -0.4524
  886MOL0     H16897   8.991   6.162  10.184 -0.3284  1.3458 -0.4666
  886MOL0     H16898   8.898   6.109  10.335  0.5302 -1.2505  0.9193
  886MOL0     H16899   8.720   6.010  10.169  2.9723 -2.7934  0.9268
  886MOL0     H16900   8.814   6.090  10.043  1.8824 -2.8657  0.6989
  886MOL0     H16901   8.805   6.305  10.143 -0.7852 -0.5285 -1.4908
  886MOL0     H16902   8.658   6.250  10.091  1.8234  1.1665 -0.9986
  886MOL0     H16903   8.617   6.363  10.299 -0.2773 -1.4939 -0.1214
  886MOL0     H16904   8.747   6.269  10.371 -0.8482  1.1711  1.2359
  886MOL0     H16905   8.391   6.256  10.195 -0.6022 -0.4196 -2.0750
  886MOL0     H16906   8.152   6.073  10.244 -1.6730 -1.4818  0.7921
  886MOL0     H16907   8.191   5.958  10.357  0.6034  1.7244  1.4953
  886MOL0     H16908   8.328   5.825  10.182 -0.1918  0.0146 -0.4605
  886MOL0     H16909   8.285   5.956  10.073 -1.8609 -1.5159 -2.5326
  886MOL0     H16910   8.069   5.881  10.054 -1.1373 -1.8070 -2.1155
  886MOL0     H16911   8.180   5.745  10.037 -2.0721 -1.7432  1.1615
  886MOL0     H16912   8.116   5.657  10.257 -2.2159  0.2041  2.4458
  886MOL0     H16913   7.984   5.674  10.135 -0.8295 -1.2311  1.6110
  886MOL0     H16914   7.816   5.762  10.076  1.9930  1.3364 -1.4058
  886MOL0     H16915   7.619   5.895  10.040  1.2560 -1.6983 -0.4004
  886MOL0     H16916   7.194   6.013  10.274 -0.8131 -1.0704 -0.9221
  886MOL0     H16917   6.994   6.136  10.240  0.5811 -0.1716  2.0371
  886MOL0     H16918   6.968   6.447   9.921 -1.7456  1.6474  6.6396
  886MOL0     H16919   6.805   6.390   9.922 -0.0934 -0.1696 -1.2833
  886MOL0     H16920   6.861   6.188   9.779 -0.1062  0.6902 -4.2385
  886MOL0     H16921   7.025   6.248   9.757 -0.2133 -0.5363  0.1362
  886MOL0     H16922   6.886   6.483   9.715 -1.2069 -0.0615  0.1297
  886MOL0     H16923   6.761   6.361   9.680 -1.1984  4.6319  0.2514
  886MOL0     H16924   7.044   6.369   9.546  0.1398  1.9996  0.4175
  886MOL0     H16925   6.927   6.231   9.535 -1.9224  0.3125  0.0067
  886MOL0     H16926   6.776   6.377   9.396 -0.0101  0.2327 -1.7185
  886MOL0     H16927   6.945   6.381   9.331 -2.2100  1.0731 -2.1124
  886MOL0     H16928   6.989   6.572   9.465 -0.9513  0.5780  1.0036
  886MOL0     H16929   6.824   6.591   9.515  0.8008 -0.3933  1.9879
  886MOL0     H16930   6.916   6.579   9.229  0.2542  0.7965  0.7589
  886MOL0     H16931   6.745   6.558   9.273 -0.2759 -1.2376  1.5211
  886MOL0     H16932   6.785   6.794   9.369  2.3269  3.2243 -0.5470
  886MOL0     H16933   6.799   6.769   9.187  0.4104 -3.3768 -0.8773
  886MOL0     H16934   7.163   6.335   9.891  0.0995  0.7584 -0.1480
  886MOL0     H16935   7.366   6.203   9.934  1.2138  2.7907  2.4033
  886MOL0     H16936   7.708   6.144  10.371 -1.1466 -0.0637 -1.4025
  886MOL0     H16937   7.909   6.021  10.416 -0.9100  1.6483 -1.0759
  886MOL0     H16938   9.611   5.707  10.068 -2.0833 -0.3106  2.0601
  886MOL0     H16939   9.853   5.713  10.044 -0.2148  0.1413 -0.1325
  886MOL0     H16940  10.345   5.728  10.252 -0.8469  0.7529  4.1930
  886MOL0     H16941  10.580   5.822  10.244 -0.5216 -0.2309  0.3640
  886MOL0     H16942  10.629   6.269  10.164  2.5167 -0.6848  2.0313
  886MOL0     H16943  10.637   6.183  10.004  1.6642  2.4646 -0.4363
  886MOL0     H16944  10.859   6.179  10.202 -0.4241 -0.0406 -0.7161
  886MOL0     H16945  10.861   6.142  10.040 -1.6391 -1.6637  0.4074
  886MOL0     H16946  10.763   6.407  10.031  0.1846  0.0955 -0.1834
  886MOL0     H16947  10.929   6.354  10.007  0.6926 -0.6620  0.9886
  886MOL0     H16948  10.801   6.394  10.276  1.0739 -1.5806  1.8895
  886MOL0     H16949  10.975   6.384  10.239 -0.2296  1.6169 -0.1518
  886MOL0     H16950  10.957   6.779  10.117  0.4592 -0.3059 -0.0067
  886MOL0     H16951  10.416   6.185  10.082  2.4878 -0.0057 -1.0997
  886MOL0     H16952  10.197   6.095  10.092  0.0047 -1.8882 -1.6990
  887MOL0     O16953   2.086   8.410   3.711 -0.8422  0.6436  0.6628
  887MOL0     C16954   2.089   8.535   3.735  0.5521 -0.3331 -0.3824
  887MOL0     O16955   2.020   8.588   3.840 -0.1305 -0.0510  0.3781
  887MOL0     C16956   1.914   8.523   3.897 -0.5530  0.4612  0.4201
  887MOL0     C16957   1.902   8.401   3.966  0.4726 -0.5636 -0.6054
  887MOL0     C16958   1.773   8.348   4.009  0.5822  0.4523  1.2943
  887MOL0     C16959   1.653   8.423   3.989  0.3402  0.2684 -0.0976
  887MOL0     O16960   1.529   8.378   4.031 -0.4078 -0.6481  0.7661
  887MOL0     C16961   1.418   8.426   3.949 -0.5815  1.1933  0.2336
  887MOL0     C16962   1.299   8.326   3.977  0.9481 -0.5887  0.6331
  887MOL0     C16963   1.297   8.221   3.866  0.3678 -0.3434 -0.2539
  887MOL0     C16964   1.175   8.119   3.878  0.1442  1.1200  0.1201
  887MOL0     C16965   1.219   7.966   3.876  0.2302 -0.2688  0.8626
  887MOL0     C16966   1.104   7.875   3.917  0.3224 -0.3315 -0.3859
  887MOL0     C16967   1.145   7.725   3.912 -0.6053 -1.1297 -0.3295
  887MOL0     C16968   1.030   7.632   3.951  0.8688  0.2358  0.0026
  887MOL0     N16969   0.934   7.657   4.059 -0.2122 -0.5269  0.4615
  887MOL0     C16970   0.976   7.679   4.182 -0.6515 -1.1259  0.1865
  887MOL0     C16971   0.860   7.669   4.256  1.1106  0.5291 -1.0011
  887MOL0     C16972   0.852   7.682   4.406  0.1997  1.2404 -0.3455
  887MOL0     C16973   0.742   7.771   4.457  0.2400  0.4654 -0.0279
  887MOL0     C16974   0.774   7.836   4.589  0.0956  0.6423  1.1798
  887MOL0     C16975   0.660   7.873   4.690  0.8913  0.5036  0.6585
  887MOL0     O16976   0.555   7.959   4.645  0.5834 -1.0751  0.3050
  887MOL0     C16977   0.577   8.093   4.605  0.2582 -0.3685  0.5052
  887MOL0     C16978   0.690   8.174   4.633 -0.2484 -0.6729  0.2274
  887MOL0     C16979   0.695   8.304   4.599 -0.3926 -0.2833 -1.0656
  887MOL0     C16980   0.592   8.372   4.530  0.4990  0.7190  0.1802
  887MOL0     C16981   0.600   8.512   4.504  0.1266 -0.4224  0.9583
  887MOL0     O16982   0.719   8.569   4.496 -0.6887  0.2380  0.0590
  887MOL0     C16983   0.721   8.697   4.451  0.1885  0.6132  0.7711
  887MOL0     C16984   0.705   8.810   4.539 -1.9841 -0.0303  0.5137
  887MOL0     C16985   0.729   8.939   4.492  0.8723 -0.4364 -0.1537
  887MOL0     C16986   0.752   8.968   4.359  0.1977  0.1646  0.4262
  887MOL0     O16987   0.753   9.092   4.298 -0.4895  0.5951  0.2523
  887MOL0     C16988   0.853   9.176   4.354 -1.2140 -0.4298 -0.6360
  887MOL0     C16989   0.906   9.278   4.254  0.4517  0.7485  0.2993
  887MOL0     C16990   1.014   9.367   4.321 -0.4484  0.9037  0.2398
  887MOL0     C16991   0.977   9.420   4.456  0.4683 -0.1450  0.1245
  887MOL0     C16992   1.064   9.539   4.506 -0.9779  0.4797 -0.0888
  887MOL0     C16993   1.053   9.578   4.654 -0.3661  0.4396  0.7473
  887MOL0     C16994   0.914   9.637   4.706  0.3188 -0.0443 -1.2908
  887MOL0     C16995   0.879   9.769   4.650  0.3110  0.0365 -0.1460
  887MOL0    Cl16996   0.991   9.902   4.718  0.5975  0.5922  0.5547
  887MOL0     C16997   0.770   8.864   4.275  0.7599  1.3997  0.6547
  887MOL0     C16998   0.753   8.728   4.314  0.3856 -0.7459  0.3665
  887MOL0     O16999   0.490   8.570   4.491  0.6951 -0.4824  0.1650
  887MOL0     C17000   0.472   8.291   4.511  1.2592 -0.1600  0.2501
  887MOL0     C17001   0.468   8.155   4.551 -0.9558  0.3352 -0.2542
  887MOL0     N17002   0.747   7.663   4.173  0.3365 -0.5990  0.7134
  887MOL0     N17003   0.799   7.654   4.055  0.0711 -0.3741 -0.3236
  887MOL0     C17004   1.667   8.545   3.918  0.5257 -0.4965 -0.1175
  887MOL0     C17005   1.794   8.590   3.869 -0.2361 -0.7177 -0.6978
  887MOL0     C17006   2.179   8.621   3.648  0.4940  0.1921  0.5037
  887MOL0     C17007   2.192   8.759   3.661  0.0185  0.7421 -0.1206
  887MOL0     C17008   2.266   8.837   3.568  0.2493 -0.3060  0.2470
  887MOL0     C17009   2.330   8.772   3.460 -0.5937 -0.2139  0.0957
  887MOL0     O17010   2.404   8.840   3.369 -0.2450 -0.9006 -0.1485
  887MOL0     C17011   2.542   8.811   3.359 -0.4730 -1.0044 -0.5297
  887MOL0     C17012   2.608   8.925   3.269  0.3693  0.1131  0.7120
  887MOL0     C17013   2.725   8.893   3.187 -0.6784 -0.4368  0.1800
  887MOL0     C17014   2.731   8.765   3.103  0.1377  0.1039 -1.0744
  887MOL0     C17015   2.853   8.754   3.013  0.4488 -0.3549 -0.6044
  887MOL0     C17016   2.955   8.733   2.945  0.1109 -0.3456  0.4321
  887MOL0     C17017   2.322   8.629   3.450 -1.0132 -0.4105  0.2706
  887MOL0     C17018   2.248   8.557   3.547  0.1422 -0.5426  0.1461
  887MOL0     H17019   1.992   8.343   3.984  0.1258 -1.3717 -1.4414
  887MOL0     H17020   1.787   8.256   4.065  2.1319  0.3590  0.7947
  887MOL0     H17021   1.440   8.430   3.842  3.0538 -0.4049  0.7792
  887MOL0     H17022   1.388   8.529   3.970 -0.1670  1.5900 -1.0047
  887MOL0     H17023   1.209   8.389   3.969  1.4461 -0.1400 -3.4247
  887MOL0     H17024   1.299   8.281   4.077 -2.6306 -2.4613 -0.0277
  887MOL0     H17025   1.388   8.160   3.874  0.7849  0.4579  1.6929
  887MOL0     H17026   1.284   8.284   3.777 -1.0409  0.3914  0.4435
  887MOL0     H17027   1.121   8.141   3.970 -0.4504  0.1585  0.0237
  887MOL0     H17028   1.119   8.140   3.786 -1.2890 -1.9196  0.1556
  887MOL0     H17029   1.304   7.942   3.941  1.1892 -2.9053 -1.1816
  887MOL0     H17030   1.264   7.934   3.782  3.6710 -1.4783  2.7332
  887MOL0     H17031   1.030   7.896   3.840  1.7819 -2.0421 -2.3527
  887MOL0     H17032   1.065   7.895   4.018  2.8261 -0.7066  0.7201
  887MOL0     H17033   1.179   7.692   3.814 -1.1040 -0.4288 -0.7521
  887MOL0     H17034   1.228   7.722   3.983 -2.1167  3.0887  1.9726
  887MOL0     H17035   1.078   7.537   3.974  0.0557 -1.0102 -2.8957
  887MOL0     H17036   0.968   7.628   3.860  1.9537  2.9024 -0.9501
  887MOL0     H17037   1.079   7.671   4.216 -1.4705  0.1044  3.3479
  887MOL0     H17038   0.950   7.717   4.441  0.3024  2.0982 -1.4259
  887MOL0     H17039   0.837   7.581   4.445  2.8393  1.3905  1.3398
  887MOL0     H17040   0.650   7.715   4.476  0.4287 -0.4906 -1.7285
  887MOL0     H17041   0.715   7.845   4.380 -2.0046 -0.9478 -0.7152
  887MOL0     H17042   0.849   7.784   4.648  0.5037  1.0476  1.0232
  887MOL0     H17043   0.833   7.925   4.569  2.1954 -0.2264  3.1901
  887MOL0     H17044   0.711   7.915   4.777  0.0222  1.9824  0.4818
  887MOL0     H17045   0.614   7.777   4.717 -0.7190  0.2910 -2.3985
  887MOL0     H17046   0.774   8.130   4.687 -1.1846 -0.3732  1.9990
  887MOL0     H17047   0.787   8.358   4.623 -0.3953 -1.0892  0.9437
  887MOL0     H17048   0.700   8.792   4.646 -1.5500 -0.0293  0.5345
  887MOL0     H17049   0.740   9.007   4.576 -0.4689 -1.5010  0.9460
  887MOL0     H17050   0.942   9.126   4.392 -1.8210 -1.4731 -0.5372
  887MOL0     H17051   0.807   9.225   4.441  1.2187  0.5052  0.2067
  887MOL0     H17052   0.832   9.342   4.207  1.1401  2.2925  1.2496
  887MOL0     H17053   0.952   9.216   4.177 -0.9228  0.2661 -0.1614
  887MOL0     H17054   1.056   9.449   4.260 -1.1182  0.7116 -0.5000
  887MOL0     H17055   1.104   9.305   4.331 -1.4290 -0.4337  0.9957
  887MOL0     H17056   0.879   9.465   4.436  1.6184  3.6968  2.1309
  887MOL0     H17057   0.966   9.342   4.531 -1.6294 -0.0131  0.0196
  887MOL0     H17058   1.042   9.632   4.452  0.1287  1.1757  0.6244
  887MOL0     H17059   1.169   9.518   4.483  0.0230  0.6365  3.7116
  887MOL0     H17060   1.128   9.656   4.669 -1.7689  1.5905  2.1989
  887MOL0     H17061   1.082   9.492   4.715  0.0038  0.6341  0.8441
  887MOL0     H17062   0.820   9.583   4.695  0.9027 -1.0886 -1.2405
  887MOL0     H17063   0.919   9.653   4.814 -0.7486  1.4745 -1.4294
  887MOL0     H17064   0.776   9.795   4.678 -0.2001 -1.6251 -0.4023
  887MOL0     H17065   0.896   9.762   4.542 -1.2232 -0.1791 -0.3947
  887MOL0     H17066   0.788   8.890   4.171 -1.4905 -2.0934 -0.7929
  887MOL0     H17067   0.770   8.654   4.236 -2.1720 -0.3686 -0.6463
  887MOL0     H17068   0.370   8.310   4.481  2.0260  2.0539 -1.1636
  887MOL0     H17069   0.376   8.099   4.534  0.6678 -2.8097  0.5691
  887MOL0     H17070   1.584   8.615   3.919 -2.4933 -3.5887  3.5834
  887MOL0     H17071   1.787   8.689   3.825 -0.5854 -0.7570 -0.7366
  887MOL0     H17072   2.129   8.810   3.733 -1.0107  0.8068 -1.0403
  887MOL0     H17073   2.262   8.943   3.587 -0.9419 -0.2512 -0.2222
  887MOL0     H17074   2.562   8.713   3.316 -2.9154 -0.8224 -2.3552
  887MOL0     H17075   2.580   8.804   3.461  2.3049 -1.3695 -1.5109
  887MOL0     H17076   2.532   8.955   3.195  2.0590 -0.8705 -1.5704
  887MOL0     H17077   2.627   9.009   3.335 -3.2984  0.6545  1.2791
  887MOL0     H17078   2.814   8.900   3.249  0.8125 -1.2781 -1.7567
  887MOL0     H17079   2.742   8.971   3.112  0.7103 -3.0190 -2.3722
  887MOL0     H17080   2.738   8.688   3.180  2.1519  1.7751  0.5269
  887MOL0     H17081   2.641   8.752   3.042  1.2221 -1.7111 -2.3674
  887MOL0     H17082   3.036   8.703   2.881  0.5152 -1.0875  1.2787
  887MOL0     H17083   2.382   8.569   3.382  1.4258  1.1682  0.8837
  887MOL0     H17084   2.243   8.449   3.554 -1.3266 -0.4362  1.3263
  888MOL0     O17085   1.258   3.698   7.910  1.0392 -0.3230  0.3808
  888MOL0     C17086   1.381   3.688   7.904 -0.1470 -0.4249  0.9036
  888MOL0     O17087   1.467   3.667   8.016 -0.1604  0.1922  0.0936
  888MOL0     C17088   1.406   3.623   8.130  0.2101  0.4024  1.0977
  888MOL0     C17089   1.453   3.682   8.249  0.3721  0.1833  0.5264
  888MOL0     C17090   1.412   3.623   8.370 -0.3763 -0.4091 -0.7926
  888MOL0     C17091   1.322   3.518   8.374  0.6165 -0.4567 -0.6448
  888MOL0     O17092   1.274   3.452   8.482 -0.9303 -0.3937 -0.0246
  888MOL0     C17093   1.382   3.424   8.578 -0.0729  0.0132  0.6287
  888MOL0     C17094   1.344   3.296   8.658 -0.3094 -0.2844 -1.3530
  888MOL0     C17095   1.429   3.249   8.774 -0.9866  0.9088  0.2804
  888MOL0     C17096   1.404   3.101   8.803  0.0235  0.1715 -0.6751
  888MOL0     C17097   1.467   3.018   8.922  0.1260  0.4414  0.1353
  888MOL0     C17098   1.434   3.074   9.060 -0.5866  0.8402  0.2891
  888MOL0     C17099   1.280   3.089   9.086 -0.2636 -0.1123 -0.2707
  888MOL0     C17100   1.210   2.951   9.090  0.4063 -0.1175  0.4816
  888MOL0     N17101   1.072   2.973   9.127  0.6272 -0.3717 -0.3958
  888MOL0     C17102   1.016   2.964   9.253  0.1228  0.2047 -0.0506
  888MOL0     C17103   0.889   3.024   9.250  0.0010 -0.5035 -0.3664
  888MOL0     C17104   0.800   3.056   9.371  0.4901 -0.2347 -0.1265
  888MOL0     C17105   0.654   3.116   9.342  0.1389 -0.6808  0.0331
  888MOL0     C17106   0.578   3.126   9.481 -0.2640 -0.0549 -0.1357
  888MOL0     C17107   0.503   2.995   9.503  0.3086 -0.2805  0.0134
  888MOL0     O17108   0.405   3.002   9.611  0.6802 -0.0751 -0.3447
  888MOL0     C17109   0.364   2.885   9.658 -0.2681  0.2220 -0.1286
  888MOL0     C17110   0.380   2.765   9.583  0.0920 -0.0029 -0.1361
  888MOL0     C17111   0.340   2.637   9.633  0.3114 -0.8334  0.4376
  888MOL0     C17112   0.279   2.633   9.759 -0.6188  1.0198 -0.1313
  888MOL0     C17113   0.238   2.504   9.819  0.1484  1.3364 -0.1214
  888MOL0     O17114   0.213   2.401   9.730  0.1949  0.1101 -0.2489
  888MOL0     C17115   0.187   2.268   9.779 -0.4396 -0.6991 -0.7168
  888MOL0     C17116   0.090   2.251   9.876 -0.1858  0.7816 -0.2759
  888MOL0     C17117   0.064   2.129   9.932 -0.2843 -0.0739 -0.9953
  888MOL0     C17118   0.136   2.013   9.890 -1.0314  0.2252 -0.6186
  888MOL0     O17119   0.116   1.888   9.949 -0.2531  0.0082  0.4806
  888MOL0     C17120  -0.007   1.852   9.997  0.8162  0.8430  0.0523
  888MOL0     C17121  -0.095   1.776   9.904  0.4083 -0.2444  0.4707
  888MOL0     C17122  -0.107   1.635   9.942  0.0568  0.1211  0.1462
  888MOL0     C17123  -0.157   1.540   9.832  0.6701 -0.7833  0.8169
  888MOL0     C17124  -0.185   1.405   9.884 -0.1644 -0.9105  0.8065
  888MOL0     C17125  -0.265   1.326   9.774 -0.2512 -0.0929 -0.1048
  888MOL0     C17126  -0.314   1.193   9.821 -0.6155  0.2441 -0.5961
  888MOL0     C17127  -0.303   1.097   9.709  0.6305  0.1129 -0.6538
  888MOL0    Cl17128  -0.441   1.144   9.591 -0.1405 -0.1376 -0.0119
  888MOL0     C17129   0.240   2.030   9.792  1.3959  0.1474  0.5850
  888MOL0     C17130   0.260   2.154   9.731  0.3919  0.5311  0.1078
  888MOL0     O17131   0.219   2.493   9.937  0.0084 -0.4750  0.0062
  888MOL0     C17132   0.260   2.758   9.826  0.3868  0.6568 -0.0104
  888MOL0     C17133   0.302   2.878   9.778  0.5150 -0.1003  1.4416
  888MOL0     N17134   0.873   3.070   9.125 -0.0608 -0.3543 -0.0514
  888MOL0     N17135   0.987   3.053   9.057 -0.3082 -0.7874  0.3231
  888MOL0     C17136   1.271   3.468   8.253 -0.2101  0.2133 -0.3496
  888MOL0     C17137   1.318   3.517   8.132 -0.2709 -0.5445  0.0341
  888MOL0     C17138   1.445   3.686   7.773 -0.3697 -0.8290 -0.5448
  888MOL0     C17139   1.562   3.625   7.743  0.2963 -0.1725  0.1842
  888MOL0     C17140   1.625   3.640   7.616  0.0753 -0.0011 -0.6343
  888MOL0     C17141   1.558   3.722   7.518  0.2814  0.2102  0.0011
  888MOL0     O17142   1.619   3.745   7.396  0.1544 -0.6311 -0.1115
  888MOL0     C17143   1.686   3.630   7.341  0.4575 -0.5468 -0.6362
  888MOL0     C17144   1.699   3.635   7.185  0.4132 -0.2457  0.0537
  888MOL0     C17145   1.798   3.740   7.148 -1.2902  0.8012  0.1952
  888MOL0     C17146   1.736   3.887   7.136  0.1967  0.2005  0.2139
  888MOL0     C17147   1.832   3.981   7.094 -0.1857 -0.5035  0.4028
  888MOL0     C17148   1.921   4.043   7.048  0.3142 -0.4286 -0.8087
  888MOL0     C17149   1.441   3.787   7.545 -0.7231  0.7919 -0.4169
  888MOL0     C17150   1.389   3.769   7.678  0.5018  0.1732 -0.4279
  888MOL0     H17151   1.518   3.769   8.260 -1.7119  1.5987  2.7220
  888MOL0     H17152   1.459   3.654   8.463  0.8106 -2.5222 -0.6416
  888MOL0     H17153   1.398   3.493   8.662  0.1568 -1.0231  1.4734
  888MOL0     H17154   1.474   3.413   8.520 -0.1226  1.2392  0.3012
  888MOL0     H17155   1.339   3.218   8.581 -2.3120 -1.5928  0.0013
  888MOL0     H17156   1.246   3.312   8.705  0.6808  2.4385  0.0163
  888MOL0     H17157   1.414   3.298   8.871  2.6912  0.5209  1.1862
  888MOL0     H17158   1.534   3.251   8.745 -1.2544 -2.3979 -1.3160
  888MOL0     H17159   1.296   3.084   8.805 -0.2919  1.8498 -1.5032
  888MOL0     H17160   1.442   3.051   8.713 -0.6137 -1.8390  0.1212
  888MOL0     H17161   1.574   3.006   8.904  0.1554  0.0139  0.5572
  888MOL0     H17162   1.423   2.918   8.912 -1.4816  0.8594  2.2424
  888MOL0     H17163   1.484   3.172   9.068  0.3781  0.7836 -3.3427
  888MOL0     H17164   1.478   3.005   9.133  2.2956 -1.1970 -3.0819
  888MOL0     H17165   1.266   3.132   9.186 -0.1340 -2.6142  0.8834
  888MOL0     H17166   1.235   3.163   9.018 -2.8942 -1.9352 -0.6597
  888MOL0     H17167   1.258   2.890   9.167  0.3196 -2.3542 -1.1333
  888MOL0     H17168   1.218   2.894   8.996  1.8006 -0.7802  0.9636
  888MOL0     H17169   1.058   2.913   9.340  0.5356  0.5249 -0.0603
  888MOL0     H17170   0.841   3.129   9.441 -1.4493  0.5896  0.2268
  888MOL0     H17171   0.791   2.967   9.434  0.0102 -0.5511 -0.6211
  888MOL0     H17172   0.601   3.063   9.263  0.6236  0.2414 -0.9348
  888MOL0     H17173   0.677   3.220   9.318 -1.8035  0.2027  1.7262
  888MOL0     H17174   0.652   3.148   9.559  2.6923 -1.8084 -2.2122
  888MOL0     H17175   0.507   3.209   9.472  0.1416  0.0425 -3.9184
  888MOL0     H17176   0.569   2.909   9.514 -0.3856 -1.0170 -1.2881
  888MOL0     H17177   0.441   2.983   9.413  2.3761 -1.5549 -1.3184
  888MOL0     H17178   0.414   2.749   9.482  0.7450 -0.2653  0.1216
  888MOL0     H17179   0.353   2.551   9.568  0.1966  0.2092 -1.0074
  888MOL0     H17180   0.032   2.335   9.913  1.3195  2.9341 -2.4449
  888MOL0     H17181  -0.010   2.115  10.010 -0.1634  0.2610 -0.8154
  888MOL0     H17182  -0.060   1.943  10.026  1.1603  1.8053 -2.1342
  888MOL0     H17183   0.019   1.791  10.084 -1.0388  2.2429  1.6919
  888MOL0     H17184  -0.043   1.782   9.807  1.2725  0.8687  0.9779
  888MOL0     H17185  -0.188   1.826   9.875  0.5543 -1.1976 -1.8707
  888MOL0     H17186  -0.178   1.630  10.026  0.0991  1.1409  0.2538
  888MOL0     H17187  -0.018   1.592   9.990  0.8189  0.8935 -0.5435
  888MOL0     H17188  -0.257   1.575   9.803  0.2624 -2.4060  0.1903
  888MOL0     H17189  -0.091   1.544   9.745  0.9789  2.0461  1.0634
  888MOL0     H17190  -0.260   1.404   9.963 -0.9602  0.7716  0.1224
  888MOL0     H17191  -0.093   1.354   9.913  1.9883  3.4449  2.6011
  888MOL0     H17192  -0.192   1.310   9.694  0.9836 -1.5883  1.2597
  888MOL0     H17193  -0.345   1.389   9.735  0.6575  0.2185 -1.5448
  888MOL0     H17194  -0.260   1.162   9.911  1.1442 -2.0070 -2.2783
  888MOL0     H17195  -0.415   1.200   9.861 -1.5138  0.4056 -2.7553
  888MOL0     H17196  -0.318   0.994   9.742 -2.4269  0.4314 -0.6828
  888MOL0     H17197  -0.207   1.090   9.658  0.1424  1.9749 -1.9294
  888MOL0     H17198   0.300   1.945   9.762 -0.4352 -0.4326 -1.7337
  888MOL0     H17199   0.337   2.146   9.656  1.2063 -0.4740  1.0070
  888MOL0     H17200   0.208   2.753   9.921  0.8380 -0.7379  0.1850
  888MOL0     H17201   0.307   2.977   9.821  0.6103  0.7015 -0.3423
  888MOL0     H17202   1.213   3.376   8.266  0.5956 -0.8649 -3.5405
  888MOL0     H17203   1.285   3.480   8.036  3.8030  1.6143 -2.4371
  888MOL0     H17204   1.611   3.566   7.820 -0.0695 -1.9323 -0.8843
  888MOL0     H17205   1.723   3.594   7.604 -0.4449 -1.3650  0.1918
  888MOL0     H17206   1.629   3.545   7.378  1.0957 -0.4593  0.5964
  888MOL0     H17207   1.787   3.620   7.381 -0.6245 -2.4830  1.8366
  888MOL0     H17208   1.736   3.539   7.148  2.4797  1.6054 -3.1205
  888MOL0     H17209   1.604   3.658   7.137 -0.1591 -2.1012  0.2118
  888MOL0     H17210   1.845   3.716   7.053 -1.4810 -0.5006  0.4114
  888MOL0     H17211   1.884   3.745   7.215  0.5840  1.4314 -2.1430
  888MOL0     H17212   1.661   3.878   7.056 -0.4407  0.6563  0.7513
  888MOL0     H17213   1.688   3.923   7.227  1.8418  1.4464  0.6287
  888MOL0     H17214   2.007   4.088   7.002  0.2892  0.7158  0.2131
  888MOL0     H17215   1.392   3.846   7.468 -2.5171  1.1909  0.9613
  888MOL0     H17216   1.302   3.830   7.701  1.0235  0.5093  0.7379
  889MOL0     O17217   2.249   8.290  10.764 -0.0724 -0.4002  0.3542
  889MOL0     C17218   2.181   8.371  10.702  0.3071  0.3150  0.4065
  889MOL0     O17219   2.220   8.454  10.597  0.3847 -0.0063 -0.4053
  889MOL0     C17220   2.341   8.437  10.534  0.5691 -0.4911  0.1359
  889MOL0     C17221   2.428   8.550  10.518  0.9674 -0.2088 -0.0076
  889MOL0     C17222   2.556   8.530  10.465 -1.4444 -0.0236 -0.4186
  889MOL0     C17223   2.595   8.404  10.416 -0.4086  0.9962  0.8723
  889MOL0     O17224   2.716   8.372  10.363 -0.0024 -0.9546 -0.0572
  889MOL0     C17225   2.779   8.453  10.264 -1.0475 -0.4665  0.0672
  889MOL0     C17226   2.932   8.447  10.281 -0.3619 -0.5181  0.3316
  889MOL0     C17227   3.001   8.479  10.148  0.6472  0.6139 -0.3151
  889MOL0     C17228   3.150   8.523  10.156 -0.7336 -0.3747  0.9363
  889MOL0     C17229   3.192   8.567  10.017 -0.4532  1.0301  0.5118
  889MOL0     C17230   3.262   8.458   9.931  0.0675  0.1641 -0.5821
  889MOL0     C17231   3.382   8.391   9.993 -0.3461  0.4133 -1.2838
  889MOL0     C17232   3.446   8.287   9.898  1.6458 -0.3960 -1.0089
  889MOL0     N17233   3.382   8.159   9.927  0.2933  0.0443 -0.4553
  889MOL0     C17234   3.274   8.114   9.856  0.4212 -0.3144  0.1036
  889MOL0     C17235   3.294   7.983   9.870  0.7166 -1.1801  0.8180
  889MOL0     C17236   3.222   7.871   9.806 -0.1468  0.8427  0.0398
  889MOL0     C17237   3.108   7.828   9.909 -0.1604  0.0940 -0.2398
  889MOL0     C17238   3.053   7.691   9.859 -0.6980 -0.7239  0.6022
  889MOL0     C17239   2.956   7.636   9.964 -0.0480 -0.3786  0.1325
  889MOL0     O17240   2.844   7.721   9.960  0.1063  0.0340 -0.2621
  889MOL0     C17241   2.749   7.663  10.046 -0.0880 -0.1621  0.2877
  889MOL0     C17242   2.620   7.648   9.990 -0.2015  1.0736  0.7551
  889MOL0     C17243   2.504   7.600  10.068 -0.2983  0.5912 -0.5136
  889MOL0     C17244   2.524   7.585  10.212 -1.2049  0.2889  0.4456
  889MOL0     C17245   2.414   7.546  10.304 -0.4334  1.1019 -0.0505
  889MOL0     O17246   2.293   7.553  10.241  0.3305 -0.1428  0.9878
  889MOL0     C17247   2.174   7.553  10.300  1.1412 -1.1033  0.0263
  889MOL0     C17248   2.079   7.470  10.236  0.4153  0.8048 -0.4217
  889MOL0     C17249   1.952   7.463  10.284 -0.3478 -0.2565  0.3358
  889MOL0     C17250   1.910   7.538  10.393 -0.4675 -0.7403 -0.1361
  889MOL0     O17251   1.775   7.528  10.414 -0.2071 -0.0819  0.8442
  889MOL0     C17252   1.719   7.576  10.536  0.8085 -0.3534  0.3038
  889MOL0     C17253   1.582   7.495  10.542  0.3478 -0.0601 -0.2539
  889MOL0     C17254   1.585   7.351  10.607 -0.4293  0.1010  0.2815
  889MOL0     C17255   1.576   7.354  10.761  1.0974  0.3884 -0.6539
  889MOL0     C17256   1.585   7.201  10.821 -0.8438  0.3659  0.1253
  889MOL0     C17257   1.477   7.105  10.787 -0.5916 -0.9152 -1.2725
  889MOL0     C17258   1.343   7.136  10.868  0.0479 -0.1043  0.3268
  889MOL0     C17259   1.230   7.026  10.826 -0.2633 -0.4961  0.9182
  889MOL0    Cl17260   1.072   7.101  10.866 -0.1217  0.6276  0.4086
  889MOL0     C17261   2.005   7.624  10.455  1.4274 -0.4461 -0.9638
  889MOL0     C17262   2.129   7.630  10.410 -0.4641 -0.0486 -0.1991
  889MOL0     O17263   2.435   7.509  10.417 -0.0156  0.6682  0.7435
  889MOL0     C17264   2.651   7.605  10.264 -0.7099 -0.7139  0.4038
  889MOL0     C17265   2.759   7.648  10.179  0.3971  0.7105 -1.0272
  889MOL0     N17266   3.403   7.955   9.950 -1.0126 -0.4674  1.3285
  889MOL0     N17267   3.464   8.063   9.969 -0.0920  0.7588  0.2523
  889MOL0     C17268   2.508   8.301  10.423  0.3461  0.2586 -0.6055
  889MOL0     C17269   2.383   8.317  10.479 -0.2919 -0.5226 -1.1295
  889MOL0     C17270   2.037   8.382  10.733  0.3684 -0.4218 -0.9116
  889MOL0     C17271   1.966   8.490  10.678  0.1599  0.4353 -0.4755
  889MOL0     C17272   1.833   8.507  10.703  0.6591 -0.1603  0.1689
  889MOL0     C17273   1.772   8.423  10.795  1.0935 -0.0353 -0.0307
  889MOL0     O17274   1.644   8.449  10.824 -0.7720 -0.1220  0.6269
  889MOL0     C17275   1.552   8.359  10.748 -0.2357 -0.2220 -1.1487
  889MOL0     C17276   1.411   8.363  10.819  0.5012  1.0835 -0.0357
  889MOL0     C17277   1.321   8.471  10.774 -0.4756  0.4173 -0.1957
  889MOL0     C17278   1.182   8.466  10.811 -0.3130  0.1014 -0.4644
  889MOL0     C17279   1.119   8.338  10.785  0.8013  0.4679 -0.2162
  889MOL0     C17280   1.086   8.223  10.760 -0.1543 -0.9181 -0.0718
  889MOL0     C17281   1.838   8.318  10.852 -0.3878 -0.8657 -0.0175
  889MOL0     C17282   1.975   8.292  10.822 -0.3610  0.4293  1.1345
  889MOL0     H17283   2.391   8.643  10.560 -0.9456 -1.2337  0.6664
  889MOL0     H17284   2.619   8.617  10.446 -3.3803  1.3403 -0.9507
  889MOL0     H17285   2.744   8.556  10.277 -2.1808 -1.1591  3.3290
  889MOL0     H17286   2.757   8.412  10.165 -1.5512  0.9818 -0.4486
  889MOL0     H17287   2.971   8.347  10.302  1.7496 -0.2194 -1.7355
  889MOL0     H17288   2.962   8.528  10.349  0.8862  0.3259 -1.1540
  889MOL0     H17289   2.949   8.565  10.104  0.8458  0.5624 -0.6544
  889MOL0     H17290   2.994   8.394  10.080 -0.1364  1.0898 -0.8369
  889MOL0     H17291   3.142   8.608  10.223 -1.7171 -0.5097  1.0107
  889MOL0     H17292   3.216   8.446  10.198  0.8645  0.8519  0.7309
  889MOL0     H17293   3.278   8.634  10.026  2.8296 -2.9260  1.7788
  889MOL0     H17294   3.112   8.618   9.963 -0.3270  1.3033  0.5798
  889MOL0     H17295   3.303   8.505   9.841  1.5125 -1.2973 -0.7190
  889MOL0     H17296   3.190   8.381   9.900  0.3678  0.3607 -1.7994
  889MOL0     H17297   3.465   8.462   9.998  2.3260 -2.5632  0.4836
  889MOL0     H17298   3.356   8.339  10.085  0.4826 -2.1904 -2.4175
  889MOL0     H17299   3.550   8.275   9.930  1.2261  1.6814  1.4387
  889MOL0     H17300   3.434   8.307   9.791 -1.8511  2.5719 -0.2661
  889MOL0     H17301   3.199   8.172   9.803 -2.8008 -2.8282  1.5605
  889MOL0     H17302   3.296   7.792   9.790 -0.9424 -0.3958  2.1088
  889MOL0     H17303   3.169   7.904   9.717 -0.4334  1.0610  0.2895
  889MOL0     H17304   3.035   7.910   9.912 -0.0366  0.2405 -1.0390
  889MOL0     H17305   3.148   7.820  10.011  0.2609 -1.7968 -0.5180
  889MOL0     H17306   3.004   7.705   9.763 -0.1581  0.2532  0.4598
  889MOL0     H17307   3.140   7.626   9.842  0.5689  1.0170  0.1216
  889MOL0     H17308   3.016   7.637  10.056  1.7669  0.1847 -1.0033
  889MOL0     H17309   2.931   7.534   9.932 -0.4462  0.2443 -1.6621
  889MOL0     H17310   2.620   7.659   9.882  2.9001 -2.0404  0.3027
  889MOL0     H17311   2.407   7.589  10.020 -1.5640 -0.8692  2.1786
  889MOL0     H17312   2.114   7.399  10.161  0.0791  0.2212 -0.0346
  889MOL0     H17313   1.892   7.379  10.253 -0.8580  0.1222  0.2802
  889MOL0     H17314   1.701   7.682  10.516  0.4687 -0.6322 -1.0045
  889MOL0     H17315   1.782   7.564  10.625  1.0902 -5.0180 -0.2504
  889MOL0     H17316   1.552   7.492  10.436 -0.8708  3.6825 -0.1690
  889MOL0     H17317   1.507   7.558  10.591 -2.7564 -2.5268 -1.4345
  889MOL0     H17318   1.671   7.297  10.567  1.2148  2.1701  0.8414
  889MOL0     H17319   1.492   7.303  10.578 -1.2345  1.3996  0.6353
  889MOL0     H17320   1.650   7.424  10.799  2.0775 -1.3609  0.8233
  889MOL0     H17321   1.483   7.399  10.798 -1.2132 -3.4612 -1.1554
  889MOL0     H17322   1.599   7.189  10.929  1.9693  0.1440 -0.1829
  889MOL0     H17323   1.677   7.152  10.786 -1.5012 -0.7730 -0.0640
  889MOL0     H17324   1.510   7.001  10.794  2.9424  0.1191 -1.0537
  889MOL0     H17325   1.455   7.133  10.683  0.4162  1.9532 -0.7995
  889MOL0     H17326   1.348   7.132  10.978  0.9478 -0.6997  0.2789
  889MOL0     H17327   1.313   7.239  10.849  3.3887  0.7440 -0.8639
  889MOL0     H17328   1.256   6.928  10.866 -0.7920 -0.7434  0.6568
  889MOL0     H17329   1.237   7.003  10.719  2.9626 -1.7299  1.2647
  889MOL0     H17330   1.984   7.682  10.545  1.5674 -2.1030  0.1775
  889MOL0     H17331   2.195   7.700  10.459 -0.7060 -0.5107  0.8002
  889MOL0     H17332   2.679   7.614  10.368  2.3654  0.4323 -0.4061
  889MOL0     H17333   2.857   7.678  10.213  1.9054  0.7476 -4.9485
  889MOL0     H17334   2.530   8.201  10.387 -1.5510 -1.1636  1.8131
  889MOL0     H17335   2.318   8.233  10.501  2.0189 -1.9226  0.7124
  889MOL0     H17336   2.012   8.572  10.624  1.3106 -0.2878 -0.6328
  889MOL0     H17337   1.781   8.597  10.669  2.9168  1.2341  0.2164
  889MOL0     H17338   1.585   8.255  10.749  1.6711  0.3475  0.4027
  889MOL0     H17339   1.533   8.385  10.644 -2.2213  0.5625 -0.6391
  889MOL0     H17340   1.365   8.268  10.787  0.2172  1.7719 -1.8101
  889MOL0     H17341   1.425   8.364  10.927 -1.4872 -2.3440  0.3926
  889MOL0     H17342   1.318   8.480  10.665 -3.5488  2.7779 -0.0804
  889MOL0     H17343   1.362   8.563  10.816  2.0229 -1.6885  2.3248
  889MOL0     H17344   1.168   8.481  10.919 -2.1961  3.5218 -1.0450
  889MOL0     H17345   1.126   8.552  10.774 -1.5819  0.2046  1.5487
  889MOL0     H17346   1.068   8.117  10.765  0.6740 -1.1297 -1.1473
  889MOL0     H17347   1.787   8.265  10.932  1.1798  0.1160  1.7116
  889MOL0     H17348   2.030   8.216  10.876 -0.9475 -0.5949  0.3297
  890MOL0     O17349  11.149   1.604   6.101 -0.0432 -0.6454 -0.1337
  890MOL0     C17350  11.066   1.668   6.036 -0.5185  0.1752  0.4147
  890MOL0     O17351  11.083   1.710   5.908 -0.7128  0.1045  0.0881
  890MOL0     C17352  11.207   1.684   5.848  0.1133 -0.2730  0.4357
  890MOL0     C17353  11.290   1.782   5.804  0.0283 -0.0143 -0.2704
  890MOL0     C17354  11.394   1.748   5.717 -0.2279  0.7387  0.6871
  890MOL0     C17355  11.408   1.621   5.658  0.2583 -1.3432  0.3201
  890MOL0     O17356  11.495   1.618   5.548  0.2130 -0.9040 -0.3909
  890MOL0     C17357  11.628   1.587   5.594  0.2043  0.1558  0.3242
  890MOL0     C17358  11.727   1.654   5.503  0.3533 -0.9210 -0.7611
  890MOL0     C17359  11.724   1.606   5.357 -0.8996 -0.6464  0.1886
  890MOL0     C17360  11.864   1.611   5.305 -0.1900 -0.8318 -0.4588
  890MOL0     C17361  11.948   1.745   5.308  0.6371 -0.2699  1.0052
  890MOL0     C17362  11.874   1.854   5.236  0.1239 -1.0057 -0.0402
  890MOL0     C17363  11.942   1.992   5.271  0.2001 -0.2112 -0.2895
  890MOL0     C17364  11.904   2.089   5.152 -0.0096 -0.0459 -0.6256
  890MOL0     N17365  11.942   2.226   5.189 -0.1565  0.2097  0.2289
  890MOL0     C17366  11.865   2.303   5.266  0.3789 -0.2050 -0.5760
  890MOL0     C17367  11.935   2.423   5.281  0.3688 -1.1313  1.4374
  890MOL0     C17368  11.873   2.540   5.352  0.3580  0.4533 -0.0528
  890MOL0     C17369  11.908   2.548   5.503 -0.3525  0.4069 -0.5918
  890MOL0     C17370  11.851   2.665   5.575  0.0503  0.7493  0.2194
  890MOL0     C17371  11.703   2.710   5.555 -0.0731 -0.1400 -0.4635
  890MOL0     O17372  11.589   2.613   5.557  0.2312 -0.0166  0.2348
  890MOL0     C17373  11.465   2.674   5.565  0.2041 -0.4679 -0.8773
  890MOL0     C17374  11.424   2.796   5.515 -0.4338  0.5180  0.5916
  890MOL0     C17375  11.294   2.839   5.535  0.6846 -0.3091 -0.4178
  890MOL0     C17376  11.193   2.752   5.599 -0.4816 -0.5068 -0.1096
  890MOL0     C17377  11.057   2.796   5.592 -0.4312  0.2801  0.5609
  890MOL0     O17378  10.977   2.694   5.626  0.7859  0.0495 -0.1580
  890MOL0     C17379  10.844   2.725   5.638 -0.4406 -0.0661 -0.0289
  890MOL0     C17380  10.775   2.846   5.672  0.0618  0.6908  0.3022
  890MOL0     C17381  10.637   2.848   5.677 -0.4803  0.8089  1.2869
  890MOL0     C17382  10.560   2.737   5.633 -0.2186  0.1331 -0.2300
  890MOL0     O17383  10.420   2.738   5.624  0.3040  0.1108 -0.2023
  890MOL0     C17384  10.363   2.870   5.612  1.0277 -0.1993 -0.1546
  890MOL0     C17385  10.216   2.871   5.617  0.8118  0.3584  0.3989
  890MOL0     C17386  10.167   2.822   5.749 -0.2397  0.3408  0.0177
  890MOL0     C17387  10.027   2.870   5.775 -0.3720 -1.4355  0.9009
  890MOL0     C17388   9.975   2.872   5.913 -0.6411  0.3611 -0.2736
  890MOL0     C17389   9.937   2.734   5.969 -0.0441  0.5182 -1.1434
  890MOL0     C17390   9.920   2.746   6.128  0.0207 -1.0223  0.2280
  890MOL0     C17391   9.950   2.610   6.202 -0.1557  0.0694  0.4705
  890MOL0    Cl17392   9.903   2.461   6.126 -0.1058  0.8192 -0.0600
  890MOL0     C17393  10.633   2.618   5.602  0.4782 -1.1438 -0.7861
  890MOL0     C17394  10.767   2.608   5.623  0.5658  0.0514  0.8180
  890MOL0     O17395  11.033   2.915   5.569  0.8979  0.1749  0.1660
  890MOL0     C17396  11.232   2.623   5.628  0.6153  0.9128 -0.0706
  890MOL0     C17397  11.368   2.590   5.616 -0.0794  0.2127  0.0935
  890MOL0     N17398  12.055   2.412   5.212  0.2195  0.4144  0.9138
  890MOL0     N17399  12.058   2.296   5.155  0.5829 -0.2692  0.4046
  890MOL0     C17400  11.312   1.526   5.686  0.2999  0.1724 -0.0664
  890MOL0     C17401  11.212   1.556   5.788  0.3481 -0.6146  0.5071
  890MOL0     C17402  10.934   1.685   6.099 -0.9003  0.1820 -0.2355
  890MOL0     C17403  10.818   1.686   6.029  0.2821 -0.1462  0.3239
  890MOL0     C17404  10.690   1.713   6.089  0.0769 -0.5733  0.6458
  890MOL0     C17405  10.685   1.725   6.232 -0.4814  0.7146  0.2917
  890MOL0     O17406  10.572   1.742   6.300 -0.7671  0.4942 -0.0898
  890MOL0     C17407  10.443   1.779   6.243 -1.0523 -0.0757  0.4294
  890MOL0     C17408  10.333   1.764   6.343  0.7273 -0.3385 -0.0364
  890MOL0     C17409  10.353   1.847   6.472  0.1693  0.1670  0.4339
  890MOL0     C17410  10.259   1.800   6.585 -0.6033  0.6475  0.4347
  890MOL0     C17411  10.271   1.887   6.701 -0.1450 -0.5456 -0.4169
  890MOL0     C17412  10.246   1.964   6.795 -0.8818  0.2092 -0.1057
  890MOL0     C17413  10.807   1.722   6.301  0.9121 -0.3750 -0.0194
  890MOL0     C17414  10.924   1.697   6.236  0.0738 -0.1103 -0.1843
  890MOL0     H17415  11.271   1.880   5.847 -0.7049 -1.8368  3.9908
  890MOL0     H17416  11.458   1.826   5.675  0.6308  0.2657  1.0855
  890MOL0     H17417  11.636   1.477   5.594  1.7199  0.2126 -1.1507
  890MOL0     H17418  11.653   1.616   5.696 -1.8527  1.5942  0.4666
  890MOL0     H17419  11.820   1.623   5.552  0.1501 -2.2150 -1.1418
  890MOL0     H17420  11.722   1.763   5.507 -0.3150 -0.9194 -1.3979
  890MOL0     H17421  11.662   1.671   5.293 -1.1781 -0.3978  0.7040
  890MOL0     H17422  11.685   1.504   5.356  0.1891 -1.0816  1.1083
  890MOL0     H17423  11.919   1.541   5.368  0.0947  2.3575  3.2250
  890MOL0     H17424  11.858   1.572   5.203  0.6365 -1.6069 -0.2282
  890MOL0     H17425  12.053   1.731   5.283  0.9186 -0.9163  2.4369
  890MOL0     H17426  11.962   1.782   5.410 -0.6289 -0.1345  1.1464
  890MOL0     H17427  11.768   1.858   5.260  0.5807 -1.2811  2.2431
  890MOL0     H17428  11.879   1.829   5.130  1.0089  0.2255 -0.3205
  890MOL0     H17429  11.906   2.028   5.367  2.8411  1.8770  0.0303
  890MOL0     H17430  12.051   1.980   5.276  0.0318 -1.3237  2.7646
  890MOL0     H17431  11.796   2.075   5.151 -0.4037  2.4435  0.4019
  890MOL0     H17432  11.940   2.045   5.059 -1.2227  0.5148 -1.3773
  890MOL0     H17433  11.760   2.295   5.293  0.3094  2.6409  0.3463
  890MOL0     H17434  11.764   2.531   5.350  0.3151  0.9948 -0.7636
  890MOL0     H17435  11.912   2.627   5.298  0.0217  0.1641 -0.7890
  890MOL0     H17436  12.015   2.564   5.521 -0.5292  1.4112 -0.3856
  890MOL0     H17437  11.870   2.458   5.554  0.6205  0.8231  0.9197
  890MOL0     H17438  11.859   2.633   5.679  0.8816 -2.4837 -0.7244
  890MOL0     H17439  11.927   2.744   5.577  5.1708 -3.5849  2.3258
  890MOL0     H17440  11.707   2.753   5.454  2.6011 -3.9449 -2.2476
  890MOL0     H17441  11.691   2.786   5.632  0.1782  0.9368 -1.4536
  890MOL0     H17442  11.504   2.863   5.483  3.2688 -2.3792  2.8817
  890MOL0     H17443  11.276   2.942   5.503  3.9805  0.9516  1.3040
  890MOL0     H17444  10.822   2.942   5.691 -1.8702  2.0407 -1.1805
  890MOL0     H17445  10.593   2.946   5.696 -1.4722  1.3213 -2.7470
  890MOL0     H17446  10.407   2.928   5.530  0.8952  0.8499  0.4918
  890MOL0     H17447  10.388   2.921   5.706  1.9771 -0.4009 -0.2823
  890MOL0     H17448  10.164   2.814   5.539  0.8469 -0.6242  1.0899
  890MOL0     H17449  10.178   2.973   5.607  1.1775  0.7513  2.5685
  890MOL0     H17450  10.225   2.870   5.829  1.7080 -2.4482  0.4224
  890MOL0     H17451  10.174   2.713   5.760 -0.2740  0.4730  1.6686
  890MOL0     H17452  10.022   2.973   5.740 -1.3122 -0.1231  4.4294
  890MOL0     H17453   9.957   2.811   5.715 -1.3879  0.2817  0.3506
  890MOL0     H17454   9.885   2.930   5.935 -0.0057 -0.2202  4.9541
  890MOL0     H17455  10.056   2.911   5.975 -0.1288 -2.4826  0.9932
  890MOL0     H17456  10.014   2.665   5.936  2.9924  1.7062  2.6464
  890MOL0     H17457   9.839   2.705   5.929 -1.8180  3.6651  0.4758
  890MOL0     H17458   9.989   2.822   6.163  0.1267 -0.5558 -0.9417
  890MOL0     H17459   9.814   2.765   6.146 -0.6521 -1.4548 -2.7614
  890MOL0     H17460   9.917   2.616   6.307 -3.3584  0.3562 -0.4515
  890MOL0     H17461  10.057   2.606   6.221 -0.0150  0.8687 -0.1105
  890MOL0     H17462  10.570   2.532   5.579 -1.4231 -0.2288  0.7012
  890MOL0     H17463  10.819   2.516   5.599  0.3482  0.9910 -4.5035
  890MOL0     H17464  11.168   2.543   5.664  2.8491 -2.3444 -2.7789
  890MOL0     H17465  11.395   2.489   5.645 -1.3165 -0.4942 -1.0707
  890MOL0     H17466  11.309   1.429   5.638 -1.4733 -0.2395  0.7943
  890MOL0     H17467  11.140   1.484   5.827 -3.1370  1.9957 -0.6091
  890MOL0     H17468  10.814   1.671   5.921  0.7482 -2.5221  0.5802
  890MOL0     H17469  10.600   1.722   6.029 -0.6886  0.1004  1.8733
  890MOL0     H17470  10.422   1.723   6.151  0.9024 -0.8372  0.3893
  890MOL0     H17471  10.457   1.885   6.217  1.8977 -0.3847  0.3467
  890MOL0     H17472  10.240   1.793   6.294  1.9066  3.0528 -0.5379
  890MOL0     H17473  10.336   1.658   6.373 -0.0115 -0.2713  0.2987
  890MOL0     H17474  10.337   1.954   6.452  2.2318  0.7372  1.5623
  890MOL0     H17475  10.456   1.844   6.508  0.5395  3.7064  0.0126
  890MOL0     H17476  10.157   1.777   6.552 -0.0428 -1.6371  0.0998
  890MOL0     H17477  10.307   1.705   6.608 -1.3111 -0.1151 -1.0704
  890MOL0     H17478  10.210   2.017   6.881  3.2380  0.4475  1.6900
  890MOL0     H17479  10.802   1.735   6.409  0.3278  0.0308 -0.0943
  890MOL0     H17480  11.014   1.683   6.296 -0.6115 -0.4914  0.7783
  891MOL0     O17481   6.260   0.170   1.234  0.2610  0.0071  0.2361
  891MOL0     C17482   6.226   0.273   1.181  1.3227 -0.1912  0.0254
  891MOL0     O17483   6.092   0.326   1.197  0.1265  0.5430  0.6528
  891MOL0     C17484   5.990   0.248   1.253 -0.5757  0.5352  0.2870
  891MOL0     C17485   6.011   0.209   1.382  0.3371  0.4951 -0.5389
  891MOL0     C17486   5.921   0.134   1.457 -0.1099  0.0986  0.8785
  891MOL0     C17487   5.804   0.095   1.395  0.6549 -0.3661  0.1796
  891MOL0     O17488   5.694   0.021   1.459  0.0472 -0.9287 -0.0128
  891MOL0     C17489   5.730  -0.043   1.581 -0.7459 -0.0923 -0.9525
  891MOL0     C17490   5.587  -0.083   1.621  0.1713  0.8172  0.1723
  891MOL0     C17491   5.592  -0.170   1.749  0.8164 -0.0414  0.1098
  891MOL0     C17492   5.451  -0.241   1.737 -0.6765 -0.2888 -0.2602
  891MOL0     C17493   5.408  -0.327   1.863 -1.0039 -0.9022  0.8480
  891MOL0     C17494   5.482  -0.456   1.859 -0.1490  0.7398  0.4643
  891MOL0     C17495   5.455  -0.531   1.987  0.5032 -0.1731 -0.0732
  891MOL0     C17496   5.338  -0.638   1.981 -0.0816 -0.1432  0.7122
  891MOL0     N17497   5.327  -0.743   2.087  0.1130 -0.8239  0.0620
  891MOL0     C17498   5.304  -0.712   2.217  0.2810 -0.3330 -0.2854
  891MOL0     C17499   5.317  -0.831   2.274 -0.8274  0.4442  0.7704
  891MOL0     C17500   5.310  -0.864   2.418 -0.1876 -0.2014  1.1660
  891MOL0     C17501   5.191  -0.957   2.442 -0.6863  0.0916  0.1522
  891MOL0     C17502   5.192  -1.006   2.586 -0.3796 -0.9060  0.8640
  891MOL0     C17503   5.064  -1.057   2.629  0.7130  0.8752 -0.4810
  891MOL0     O17504   4.952  -1.016   2.544 -0.0474 -0.4400 -0.4813
  891MOL0     C17505   4.830  -1.072   2.557 -0.3203 -0.2414 -0.8517
  891MOL0     C17506   4.785  -1.173   2.641 -0.0454  0.1537 -0.2527
  891MOL0     C17507   4.653  -1.211   2.646  0.5832  0.1713  0.4992
  891MOL0     C17508   4.550  -1.152   2.563 -0.4346 -0.2419  1.1893
  891MOL0     C17509   4.406  -1.185   2.565  0.3358  0.0020  0.4872
  891MOL0     O17510   4.314  -1.079   2.553 -0.1645 -0.7354 -0.4510
  891MOL0     C17511   4.191  -1.108   2.508 -0.2537  0.6397  0.1194
  891MOL0     C17512   4.093  -1.032   2.565  0.6247 -0.2493  0.7451
  891MOL0     C17513   3.957  -1.043   2.520  0.2233 -0.0331 -0.0605
  891MOL0     C17514   3.922  -1.127   2.413  0.3530 -1.0745  0.4292
  891MOL0     O17515   3.790  -1.134   2.365 -0.1026 -0.6817  0.4152
  891MOL0     C17516   3.724  -1.007   2.347 -0.6040 -0.6236 -0.3882
  891MOL0     C17517   3.581  -1.006   2.412 -0.8120  0.6355  0.2149
  891MOL0     C17518   3.583  -1.015   2.558  0.1921 -0.1864  0.0698
  891MOL0     C17519   3.471  -0.930   2.613 -0.5645 -0.0711  0.3962
  891MOL0     C17520   3.486  -0.936   2.770  0.3787  0.3910  0.0310
  891MOL0     C17521   3.374  -0.846   2.823  0.5871 -0.7598 -0.7064
  891MOL0     C17522   3.359  -0.852   2.980  0.2637  0.0628  0.1993
  891MOL0     C17523   3.473  -0.819   3.076  0.3977 -0.7695 -0.0365
  891MOL0    Cl17524   3.596  -0.949   3.063  0.1737  0.3075  0.3035
  891MOL0     C17525   4.028  -1.199   2.354 -0.8332 -0.4016 -1.1565
  891MOL0     C17526   4.155  -1.199   2.405  0.8349  0.3039  0.4288
  891MOL0     O17527   4.375  -1.304   2.575 -0.2287  0.2219 -0.3279
  891MOL0     C17528   4.595  -1.048   2.478  0.4664 -0.6219 -0.1880
  891MOL0     C17529   4.730  -1.004   2.481 -0.4862  0.8489  0.1698
  891MOL0     N17530   5.345  -0.929   2.183 -0.0434  0.6173 -0.2532
  891MOL0     N17531   5.350  -0.869   2.067 -0.6281 -0.1326  0.5240
  891MOL0     C17532   5.784   0.128   1.261  0.9662  0.4034 -0.4611
  891MOL0     C17533   5.872   0.206   1.192  1.0439  1.3517 -0.6753
  891MOL0     C17534   6.322   0.355   1.112 -0.0372 -0.7772 -0.4305
  891MOL0     C17535   6.283   0.471   1.041 -0.7655 -0.3447 -0.2826
  891MOL0     C17536   6.367   0.553   0.964  0.2397  0.1225 -0.0841
  891MOL0     C17537   6.499   0.520   0.963 -0.5616  1.1006 -0.0917
  891MOL0     O17538   6.591   0.596   0.903 -1.0271  0.3498 -0.1198
  891MOL0     C17539   6.597   0.733   0.954 -0.1939 -0.6014 -0.1624
  891MOL0     C17540   6.518   0.813   0.865  0.4006  0.1645  0.7293
  891MOL0     C17541   6.555   0.963   0.874 -0.0454  0.4837  0.3273
  891MOL0     C17542   6.495   1.054   0.765 -0.1612  0.4339  0.5852
  891MOL0     C17543   6.352   1.031   0.736  0.1116 -0.7988  0.5542
  891MOL0     C17544   6.238   0.992   0.707  0.8578 -0.6226 -0.1380
  891MOL0     C17545   6.543   0.397   1.024  0.6658 -0.1219  0.6036
  891MOL0     C17546   6.453   0.312   1.093  0.1180  0.6016  0.0721
  891MOL0     H17547   6.098   0.244   1.437  0.9622 -2.5444  0.6047
  891MOL0     H17548   5.937   0.128   1.564  0.9045  0.3886  0.7560
  891MOL0     H17549   5.775   0.011   1.666 -0.4659  0.6979 -1.5884
  891MOL0     H17550   5.808  -0.119   1.567  1.5680  1.0952  3.3777
  891MOL0     H17551   5.537  -0.120   1.531 -0.8550  0.0948  1.0187
  891MOL0     H17552   5.541   0.010   1.657 -0.2646  0.2688  1.0568
  891MOL0     H17553   5.598  -0.115   1.843  3.0704 -2.7869  1.6968
  891MOL0     H17554   5.676  -0.239   1.756 -0.6401 -1.7969  1.3518
  891MOL0     H17555   5.381  -0.157   1.742  0.4021  0.6581 -0.6157
  891MOL0     H17556   5.449  -0.287   1.637 -1.6860  0.4319 -0.5940
  891MOL0     H17557   5.300  -0.348   1.863 -1.4759  1.1508 -0.5661
  891MOL0     H17558   5.432  -0.267   1.951  0.1591 -0.1663  0.0538
  891MOL0     H17559   5.589  -0.435   1.863  0.2180 -0.9362  0.0234
  891MOL0     H17560   5.472  -0.513   1.766 -3.0285  1.2060  0.3819
  891MOL0     H17561   5.544  -0.592   2.005  1.6867  0.6939 -2.5717
  891MOL0     H17562   5.450  -0.459   2.070  1.0910 -2.4786  2.0856
  891MOL0     H17563   5.335  -0.686   1.882 -0.8061  2.0126 -0.3936
  891MOL0     H17564   5.244  -0.582   1.974  1.0921  1.6910 -2.6425
  891MOL0     H17565   5.268  -0.618   2.259 -0.8629  1.2970 -4.4112
  891MOL0     H17566   5.317  -0.776   2.483  0.1420  0.1242  0.6973
  891MOL0     H17567   5.389  -0.935   2.443  0.0148 -0.3465  0.1451
  891MOL0     H17568   5.186  -1.045   2.377 -0.9822 -1.3039  1.9848
  891MOL0     H17569   5.096  -0.906   2.420 -1.3880 -0.5231  1.6323
  891MOL0     H17570   5.276  -1.073   2.609  0.9208  0.9187  1.6607
  891MOL0     H17571   5.200  -0.916   2.648 -2.2054  0.6275 -1.0034
  891MOL0     H17572   5.046  -1.026   2.733  0.7017 -1.9532  0.4323
  891MOL0     H17573   5.085  -1.164   2.620  0.2840  0.8425 -1.1388
  891MOL0     H17574   4.865  -1.221   2.696 -0.5075 -0.2089  0.1104
  891MOL0     H17575   4.624  -1.284   2.720  1.4009  0.6343  1.2884
  891MOL0     H17576   4.101  -0.966   2.650 -2.1431  2.5394 -0.9623
  891MOL0     H17577   3.880  -0.991   2.578  0.8955 -1.1547  1.9354
  891MOL0     H17578   3.717  -0.999   2.238  1.2156 -0.5418 -0.5317
  891MOL0     H17579   3.779  -0.923   2.392 -1.1079 -0.7573  0.4863
  891MOL0     H17580   3.515  -1.084   2.373 -1.4617 -0.6713  3.5281
  891MOL0     H17581   3.538  -0.919   2.362  0.3328  1.6917  1.0156
  891MOL0     H17582   3.671  -0.962   2.596 -1.7242  5.2526 -1.9624
  891MOL0     H17583   3.581  -1.121   2.585  0.7017 -0.0330  0.7443
  891MOL0     H17584   3.485  -0.827   2.581 -0.5869 -0.3763 -0.6159
  891MOL0     H17585   3.369  -0.961   2.589 -0.9951  1.0918  0.6760
  891MOL0     H17586   3.584  -0.903   2.807 -0.8896  3.4843  0.8623
  891MOL0     H17587   3.468  -1.035   2.814 -0.1239  0.7750  0.7076
  891MOL0     H17588   3.273  -0.877   2.794 -0.2480  0.0618  1.1849
  891MOL0     H17589   3.411  -0.748   2.789  2.3223 -0.5634  1.5073
  891MOL0     H17590   3.271  -0.794   3.009  0.1799 -0.9679  2.1578
  891MOL0     H17591   3.332  -0.955   3.007 -1.4474 -0.0265 -1.6836
  891MOL0     H17592   3.440  -0.805   3.179  0.4005 -1.2713  0.0385
  891MOL0     H17593   3.523  -0.724   3.055 -1.2743 -0.2957 -2.2109
  891MOL0     H17594   3.998  -1.273   2.280  0.4560 -1.6328 -0.4936
  891MOL0     H17595   4.216  -1.275   2.358 -0.8192 -0.1408 -1.1486
  891MOL0     H17596   4.514  -1.008   2.419 -1.4278  1.5616  3.5300
  891MOL0     H17597   4.756  -0.932   2.405 -0.3798  0.2119 -0.4026
  891MOL0     H17598   5.689   0.094   1.222  1.1328 -4.5316  2.5642
  891MOL0     H17599   5.851   0.236   1.090 -1.0426 -1.8667 -1.3391
  891MOL0     H17600   6.177   0.496   1.040 -0.4238  1.6133  1.8270
  891MOL0     H17601   6.331   0.624   0.891  1.5241 -0.1088 -0.9547
  891MOL0     H17602   6.705   0.750   0.945  0.8379 -5.6542 -0.4923
  891MOL0     H17603   6.577   0.746   1.060  1.2300  0.1952  0.0367
  891MOL0     H17604   6.537   0.767   0.768  2.5303 -0.4387  1.3570
  891MOL0     H17605   6.411   0.818   0.885 -0.1266  1.9767 -2.0775
  891MOL0     H17606   6.663   0.963   0.858 -0.5002 -0.6703 -4.5231
  891MOL0     H17607   6.533   0.999   0.974  4.9584  2.7969  0.8763
  891MOL0     H17608   6.521   1.159   0.775 -0.0198  1.1163 -4.3782
  891MOL0     H17609   6.541   1.044   0.666  0.2183  3.1709  0.4226
  891MOL0     H17610   6.137   0.971   0.676  1.4032 -1.7304 -1.2821
  891MOL0     H17611   6.647   0.365   1.025  1.6130  2.5724 -1.1012
  891MOL0     H17612   6.493   0.220   1.135  1.3734  0.6792 -0.8709
  892MOL0     O17613  10.791   5.332   3.910  0.0552 -0.0680  0.5368
  892MOL0     C17614  10.809   5.436   3.858 -0.0007 -0.1707  0.3671
  892MOL0     O17615  10.930   5.487   3.822 -0.3281  0.5825  1.0427
  892MOL0     C17616  11.035   5.395   3.816  0.6876  0.3452  0.0119
  892MOL0     C17617  11.149   5.420   3.902  0.0794  0.3105  0.2824
  892MOL0     C17618  11.257   5.330   3.894 -0.7070  0.4376 -0.5063
  892MOL0     C17619  11.250   5.216   3.802 -0.2483 -0.6327  0.0492
  892MOL0     O17620  11.346   5.127   3.796  0.1397  0.3801  0.5478
  892MOL0     C17621  11.468   5.163   3.743  0.9152 -0.2457 -0.3039
  892MOL0     C17622  11.559   5.042   3.738  0.8357 -0.2847 -0.1493
  892MOL0     C17623  11.505   4.931   3.646 -0.0387 -0.0468 -0.3051
  892MOL0     C17624  11.534   4.965   3.499  0.3831 -0.0763 -0.3178
  892MOL0     C17625  11.500   4.863   3.385  0.3763  0.4472 -0.9240
  892MOL0     C17626  11.602   4.889   3.270  0.9799  0.8537 -0.2382
  892MOL0     C17627  11.556   4.828   3.132  0.2170 -0.8237  0.1158
  892MOL0     C17628  11.582   4.682   3.110  0.4438  0.5089  0.2725
  892MOL0     N17629  11.517   4.637   2.982 -0.2288 -0.3067  0.2473
  892MOL0     C17630  11.581   4.618   2.856  0.0869 -0.8409  0.2382
  892MOL0     C17631  11.491   4.542   2.785 -0.1602 -0.3474 -0.4834
  892MOL0     C17632  11.507   4.498   2.640 -0.8311 -0.3437 -0.2717
  892MOL0     C17633  11.506   4.627   2.555 -0.9521 -0.1830 -0.0484
  892MOL0     C17634  11.561   4.605   2.416  0.5470  0.1585  0.4174
  892MOL0     C17635  11.711   4.603   2.403 -0.4369 -0.4955 -0.0319
  892MOL0     O17636  11.771   4.482   2.444 -0.2275  0.0942 -0.2893
  892MOL0     C17637  11.908   4.470   2.465  0.0960 -0.1306  0.1468
  892MOL0     C17638  11.937   4.340   2.509 -0.0187 -0.5357  0.7584
  892MOL0     C17639  12.074   4.326   2.540  0.0833  0.3064 -0.7150
  892MOL0     C17640  12.173   4.421   2.522 -0.3694  0.5930 -0.6105
  892MOL0     C17641  12.320   4.393   2.548 -0.4620  0.1595  0.0282
  892MOL0     O17642  12.414   4.395   2.437 -0.3285  0.0712 -0.0021
  892MOL0     C17643  12.367   4.415   2.313 -0.0984 -1.0077  0.4389
  892MOL0     C17644  12.287   4.327   2.236 -0.1250 -0.0962  0.4508
  892MOL0     C17645  12.235   4.370   2.114 -0.5436  0.0179  0.9438
  892MOL0     C17646  12.267   4.495   2.057 -0.5568 -0.8161 -0.7524
  892MOL0     O17647  12.206   4.516   1.930  0.9923  0.3771 -0.4904
  892MOL0     C17648  12.272   4.606   1.840  0.5162 -0.0897  0.2286
  892MOL0     C17649  12.249   4.580   1.685  0.7196  0.0662  0.2602
  892MOL0     C17650  12.096   4.610   1.659 -0.0840  0.0549  0.9973
  892MOL0     C17651  12.055   4.559   1.518  0.1926  0.5808  0.9063
  892MOL0     C17652  11.901   4.549   1.497 -0.1084  0.4641  0.1890
  892MOL0     C17653  11.855   4.413   1.542 -0.1439  0.2511 -0.5697
  892MOL0     C17654  11.714   4.394   1.503  0.6556  0.1355 -0.1338
  892MOL0     C17655  11.673   4.247   1.539  0.3315  0.6468  0.5421
  892MOL0    Cl17656  11.691   4.220   1.718  0.7203 -0.2882  0.0570
  892MOL0     C17657  12.356   4.577   2.131 -0.9611  0.0425  0.5525
  892MOL0     C17658  12.404   4.532   2.253  0.1065  0.5203 -0.2829
  892MOL0     O17659  12.345   4.357   2.662  0.6374 -0.0493  0.3682
  892MOL0     C17660  12.138   4.540   2.461  0.4589  0.7603  0.6329
  892MOL0     C17661  12.006   4.565   2.425 -0.2175  0.3060 -0.3692
  892MOL0     N17662  11.381   4.529   2.870 -0.2116 -0.1224  0.2079
  892MOL0     N17663  11.389   4.597   2.980  0.0655  0.1781  0.0108
  892MOL0     C17664  11.145   5.214   3.705  0.3731  0.6252  0.5350
  892MOL0     C17665  11.040   5.307   3.711  0.0153  0.2463 -0.1907
  892MOL0     C17666  10.696   5.520   3.808 -0.8396  0.2215  0.1957
  892MOL0     C17667  10.577   5.529   3.865 -0.1040 -0.0182  0.5136
  892MOL0     C17668  10.475   5.616   3.816  0.3516 -0.5162  0.6467
  892MOL0     C17669  10.503   5.700   3.710  0.1607  0.2683 -0.8228
  892MOL0     O17670  10.402   5.781   3.657  1.1632  0.3215  0.8530
  892MOL0     C17671  10.394   5.921   3.702 -0.3592  0.2105  0.2039
  892MOL0     C17672  10.382   5.945   3.851 -0.4489 -0.0215  0.2079
  892MOL0     C17673  10.343   6.095   3.873  0.0852  0.5284  0.8275
  892MOL0     C17674  10.301   6.126   4.018  0.3357  0.5003  0.0078
  892MOL0     C17675  10.364   6.240   4.090 -0.6772 -0.0557 -0.0124
  892MOL0     C17676  10.415   6.341   4.146  0.6750 -0.6397  0.2077
  892MOL0     C17677  10.627   5.694   3.647  1.0806  0.4165  0.0192
  892MOL0     C17678  10.724   5.615   3.704  0.0638  0.5185  0.7352
  892MOL0     H17679  11.152   5.507   3.967 -0.5313  1.1532 -0.7769
  892MOL0     H17680  11.348   5.342   3.951 -1.1276  0.1650  0.2425
  892MOL0     H17681  11.522   5.234   3.806 -0.2354  0.7449 -0.4039
  892MOL0     H17682  11.457   5.203   3.642 -0.7418 -0.4921 -0.2569
  892MOL0     H17683  11.554   4.988   3.833 -0.4692  0.2397  0.1021
  892MOL0     H17684  11.658   5.081   3.711  0.9218 -1.1574 -1.1893
  892MOL0     H17685  11.396   4.930   3.646 -0.1191 -0.5040 -3.1319
  892MOL0     H17686  11.555   4.841   3.681  1.2400  0.7979  0.1135
  892MOL0     H17687  11.480   5.054   3.468 -0.0227 -0.6382 -1.2675
  892MOL0     H17688  11.641   4.985   3.496 -0.1258  2.8275 -1.9249
  892MOL0     H17689  11.403   4.884   3.339  0.6024 -2.4266 -3.0010
  892MOL0     H17690  11.501   4.762   3.428 -3.4617  0.4345 -0.5251
  892MOL0     H17691  11.696   4.842   3.300  1.5663  2.8796  1.3498
  892MOL0     H17692  11.614   4.997   3.262  0.6381  0.8507 -0.8689
  892MOL0     H17693  11.452   4.857   3.114  0.8665  0.3353 -2.2353
  892MOL0     H17694  11.608   4.875   3.048  5.2836 -1.0644  2.7356
  892MOL0     H17695  11.538   4.626   3.193  1.2490  1.2201  1.2043
  892MOL0     H17696  11.690   4.664   3.105  0.9652  3.4184 -0.2656
  892MOL0     H17697  11.674   4.651   2.811  1.7075 -2.9729  1.8024
  892MOL0     H17698  11.417   4.439   2.620 -0.8930 -1.7076  3.3053
  892MOL0     H17699  11.599   4.440   2.627  0.5911  0.5567  4.2235
  892MOL0     H17700  11.567   4.709   2.594  1.0430 -1.4910 -0.3009
  892MOL0     H17701  11.403   4.663   2.543 -0.7995 -0.0368 -1.0589
  892MOL0     H17702  11.521   4.512   2.376 -0.9999  0.8810  0.2149
  892MOL0     H17703  11.519   4.682   2.350 -1.2748 -1.1108  0.0162
  892MOL0     H17704  11.748   4.678   2.474  0.9579 -0.8950 -0.3132
  892MOL0     H17705  11.747   4.640   2.306 -1.6984  2.1540  0.4047
  892MOL0     H17706  11.864   4.266   2.539 -1.8591  0.9688  0.1440
  892MOL0     H17707  12.089   4.234   2.596 -2.0988  0.6390  0.5416
  892MOL0     H17708  12.284   4.223   2.269  2.7952 -0.6195 -0.5902
  892MOL0     H17709  12.151   4.315   2.072  1.7515 -2.2080 -1.0099
  892MOL0     H17710  12.378   4.617   1.865 -0.2701  1.3025  3.2900
  892MOL0     H17711  12.228   4.702   1.868  0.5948 -0.6790  2.6012
  892MOL0     H17712  12.284   4.482   1.650 -4.9509 -2.6122  0.8575
  892MOL0     H17713  12.300   4.652   1.620 -0.1548  0.5421  0.0709
  892MOL0     H17714  12.081   4.718   1.666  4.2322  0.8299  0.7834
  892MOL0     H17715  12.021   4.558   1.720 -1.1626 -0.4580 -0.7000
  892MOL0     H17716  12.098   4.621   1.439 -2.7724  2.0523  0.3450
  892MOL0     H17717  12.103   4.462   1.504  1.6220  1.4647 -0.7165
  892MOL0     H17718  11.888   4.548   1.389 -1.4815 -3.2038  0.2390
  892MOL0     H17719  11.833   4.623   1.540  1.9232  1.3356  2.1242
  892MOL0     H17720  11.864   4.406   1.651  0.7336 -0.4436 -0.6824
  892MOL0     H17721  11.922   4.341   1.496 -1.0762 -0.5847 -0.6531
  892MOL0     H17722  11.647   4.457   1.562  0.2708  0.0652 -0.4913
  892MOL0     H17723  11.699   4.407   1.395 -0.1900  2.1144  0.1840
  892MOL0     H17724  11.722   4.176   1.472  0.2892  1.7224 -0.6657
  892MOL0     H17725  11.571   4.235   1.502  0.6799 -0.5799 -0.0607
  892MOL0     H17726  12.401   4.664   2.085 -2.2781 -0.2094 -1.3290
  892MOL0     H17727  12.484   4.574   2.312 -0.4418 -0.0631  0.9002
  892MOL0     H17728  12.224   4.607   2.455 -0.0943  1.9935  4.0710
  892MOL0     H17729  11.987   4.654   2.365  0.8609 -0.0591 -1.2925
  892MOL0     H17730  11.143   5.145   3.621 -2.0827  0.4796  0.6343
  892MOL0     H17731  10.964   5.284   3.637 -0.3181  0.4272  0.0944
  892MOL0     H17732  10.553   5.464   3.948  3.7528  1.0935  2.7297
  892MOL0     H17733  10.376   5.619   3.861  0.0714  1.7411  0.0136
  892MOL0     H17734  10.299   5.953   3.659  0.2847 -1.0442 -2.3932
  892MOL0     H17735  10.475   5.984   3.664 -1.3500  0.1430 -2.1938
  892MOL0     H17736  10.316   5.872   3.899  0.2877 -0.4899  0.5240
  892MOL0     H17737  10.480   5.930   3.898 -2.1252 -0.4942  3.9850
  892MOL0     H17738  10.257   6.127   3.813  1.0486  0.5658 -0.5880
  892MOL0     H17739  10.428   6.151   3.835 -1.5840  1.4173 -1.9218
  892MOL0     H17740  10.196   6.157   4.020  0.2367  0.1746 -0.1305
  892MOL0     H17741  10.313   6.035   4.076 -1.6166  0.5470  0.5578
  892MOL0     H17742  10.468   6.422   4.191  2.3927 -1.4732 -0.2226
  892MOL0     H17743  10.654   5.759   3.564  0.3906  0.9555  0.2087
  892MOL0     H17744  10.816   5.614   3.646  1.7637  2.3618  3.1912
  893MOL0     O17745  11.367   9.586   2.953 -0.0752 -0.5284  0.1904
  893MOL0     C17746  11.382   9.471   2.990  0.6981 -0.4667  0.6921
  893MOL0     O17747  11.315   9.367   2.938 -0.7063 -0.0758  0.0165
  893MOL0     C17748  11.261   9.375   2.807 -0.7896  0.1466 -0.2860
  893MOL0     C17749  11.127   9.331   2.806  0.1517 -0.5546 -0.4321
  893MOL0     C17750  11.047   9.349   2.691 -0.7857 -0.0920  0.1562
  893MOL0     C17751  11.092   9.415   2.575 -0.3545  0.3677  0.1559
  893MOL0     O17752  11.008   9.426   2.468  0.0591 -0.1013 -0.4817
  893MOL0     C17753  11.071   9.407   2.334  0.5559 -0.1564  0.4466
  893MOL0     C17754  10.957   9.393   2.229 -0.3333  1.1271  0.2797
  893MOL0     C17755  11.014   9.393   2.083  0.8381  0.0249  0.7558
  893MOL0     C17756  10.896   9.386   1.981 -0.3628 -0.3659 -0.6661
  893MOL0     C17757  10.929   9.456   1.846 -0.6428  0.0077 -0.6036
  893MOL0     C17758  10.801   9.502   1.778 -0.4247  0.4531  0.0881
  893MOL0     C17759  10.831   9.552   1.641  0.1148  0.2336  1.3592
  893MOL0     C17760  10.700   9.603   1.584  0.1256  0.3661  0.4834
  893MOL0     N17761  10.719   9.684   1.457  0.5083 -0.4325 -0.2797
  893MOL0     C17762  10.611   9.736   1.382 -0.0801 -0.3613  1.0877
  893MOL0     C17763  10.671   9.773   1.260 -0.0177 -0.2646  0.1656
  893MOL0     C17764  10.607   9.827   1.134 -0.3162  0.2786 -0.4913
  893MOL0     C17765  10.491   9.722   1.103  0.1504 -1.4546  0.3291
  893MOL0     C17766  10.425   9.749   0.970  0.0803  0.2924  0.5611
  893MOL0     C17767  10.336   9.635   0.919 -0.2906  0.8737  0.1685
  893MOL0     O17768  10.257   9.687   0.811  0.1151  0.2619  0.1446
  893MOL0     C17769  10.154   9.608   0.765  0.6637  0.1952 -0.0518
  893MOL0     C17770  10.058   9.668   0.683  0.2126 -0.2644  1.3252
  893MOL0     C17771   9.941   9.602   0.652 -0.0892 -0.9161  0.2234
  893MOL0     C17772   9.919   9.466   0.680  0.4527 -0.3267  0.2586
  893MOL0     C17773   9.792   9.393   0.653 -0.5607 -1.0167 -0.1762
  893MOL0     O17774   9.679   9.468   0.644 -0.0555 -0.9425 -0.0100
  893MOL0     C17775   9.560   9.400   0.646 -0.9478 -0.5823  0.9918
  893MOL0     C17776   9.511   9.332   0.752  0.6812 -0.0417  0.2804
  893MOL0     C17777   9.372   9.282   0.755  0.1500 -1.5669  0.3616
  893MOL0     C17778   9.309   9.286   0.631  0.1210 -0.6012  0.0941
  893MOL0     O17779   9.178   9.243   0.642  1.1728 -0.4083  0.1426
  893MOL0     C17780   9.088   9.243   0.530 -0.2848  0.1146 -1.0869
  893MOL0     C17781   8.957   9.177   0.559  0.7773 -0.1006  0.6258
  893MOL0     C17782   8.867   9.237   0.670  0.1160  0.2583  0.2805
  893MOL0     C17783   8.719   9.192   0.637 -0.1279 -0.2128  0.1093
  893MOL0     C17784   8.632   9.217   0.762  0.5175  0.3037  0.0397
  893MOL0     C17785   8.487   9.162   0.749  0.1817 -0.1487 -0.0660
  893MOL0     C17786   8.484   9.011   0.779  0.1843 -1.0895 -0.1854
  893MOL0     C17787   8.339   8.967   0.812 -0.6194  0.4632 -0.9637
  893MOL0    Cl17788   8.243   9.051   0.934  0.0242  0.6479 -0.3770
  893MOL0     C17789   9.361   9.338   0.512  0.1716  0.1462  0.2372
  893MOL0     C17790   9.490   9.390   0.522 -0.3554  0.1290 -0.1596
  893MOL0     O17791   9.800   9.270   0.652  0.3928  0.1490 -0.1189
  893MOL0     C17792  10.022   9.405   0.747  0.4281  0.0012  0.5277
  893MOL0     C17793  10.138   9.468   0.795  0.4534  0.7104  0.2389
  893MOL0     N17794  10.803   9.734   1.263 -0.1849 -0.0219 -0.4252
  893MOL0     N17795  10.821   9.676   1.372 -0.8804 -0.5110 -0.1198
  893MOL0     C17796  11.235   9.452   2.579  0.5734 -0.4965  0.2182
  893MOL0     C17797  11.313   9.431   2.688  0.2974  1.2759 -0.0377
  893MOL0     C17798  11.495   9.444   3.074  0.4474  0.1640  0.0473
  893MOL0     C17799  11.508   9.312   3.132  0.2178  0.0960 -0.8530
  893MOL0     C17800  11.623   9.281   3.203 -0.0094 -0.1274 -0.0270
  893MOL0     C17801  11.729   9.363   3.229  0.0822 -0.3205 -0.3805
  893MOL0     O17802  11.838   9.311   3.299  0.5382  0.6619 -0.4582
  893MOL0     C17803  11.966   9.369   3.285 -1.2189 -0.8408  0.5340
  893MOL0     C17804  12.059   9.333   3.407 -0.2888 -0.4927 -0.4829
  893MOL0     C17805  12.105   9.461   3.493 -0.4933 -0.5284  0.5193
  893MOL0     C17806  11.994   9.512   3.581 -0.2191 -0.0647  0.9740
  893MOL0     C17807  11.972   9.411   3.683 -0.2162 -0.0767  0.2322
  893MOL0     C17808  11.944   9.328   3.765  0.3634  0.4391 -1.1685
  893MOL0     C17809  11.713   9.501   3.178  0.4889  0.8192 -0.7194
  893MOL0     C17810  11.596   9.533   3.099  0.3935  0.4545 -0.0873
  893MOL0     H17811  11.070   9.301   2.893  1.1773  0.6003  0.6738
  893MOL0     H17812  10.945   9.311   2.687 -0.5343 -0.6932 -2.8153
  893MOL0     H17813  11.136   9.319   2.322 -0.0662 -0.6602  0.7091
  893MOL0     H17814  11.122   9.503   2.322  2.6911 -1.4743 -2.2371
  893MOL0     H17815  10.894   9.482   2.242 -1.7694  0.0146  1.3053
  893MOL0     H17816  10.895   9.304   2.244 -0.2621  1.1653  0.8318
  893MOL0     H17817  11.072   9.303   2.063 -0.1712 -0.5524  0.3106
  893MOL0     H17818  11.074   9.484   2.080  1.1676 -0.1877  0.9246
  893MOL0     H17819  10.870   9.282   1.960  1.0279 -0.5445 -1.6791
  893MOL0     H17820  10.819   9.449   2.025 -3.2789 -2.8198 -1.9181
  893MOL0     H17821  10.977   9.385   1.778 -2.0833  0.5442 -2.2600
  893MOL0     H17822  10.995   9.543   1.848 -0.7341  0.0693  1.8755
  893MOL0     H17823  10.749   9.584   1.828 -0.2683  0.5913  0.0234
  893MOL0     H17824  10.730   9.420   1.763 -1.5621  1.5075 -0.4886
  893MOL0     H17825  10.904   9.632   1.631  0.9839 -0.6981  0.0461
  893MOL0     H17826  10.862   9.466   1.581 -0.9433  0.6539  0.1674
  893MOL0     H17827  10.656   9.664   1.664  2.5937 -0.0511  2.2938
  893MOL0     H17828  10.631   9.518   1.580 -0.0817  0.5545  0.0106
  893MOL0     H17829  10.507   9.746   1.411 -0.5276 -1.2586 -0.1541
  893MOL0     H17830  10.681   9.841   1.054  0.9882 -0.2444  0.5927
  893MOL0     H17831  10.576   9.930   1.153  3.0013  1.2462  0.3622
  893MOL0     H17832  10.419   9.714   1.185 -1.4170  2.0166 -0.5414
  893MOL0     H17833  10.547   9.627   1.100  1.1475 -0.9135  1.1196
  893MOL0     H17834  10.366   9.841   0.977  0.7850  0.7265  1.0131
  893MOL0     H17835  10.494   9.772   0.889 -1.3651 -0.9711 -1.1052
  893MOL0     H17836  10.280   9.592   1.002 -0.1284 -0.8005 -0.5618
  893MOL0     H17837  10.395   9.555   0.873 -1.8215 -0.1567 -0.0688
  893MOL0     H17838  10.065   9.774   0.662 -0.1342 -0.3235  0.8940
  893MOL0     H17839   9.866   9.673   0.617 -1.1384 -1.3027  1.5721
  893MOL0     H17840   9.575   9.336   0.840  0.4924  0.5409  0.3948
  893MOL0     H17841   9.328   9.237   0.843  0.7681  1.8868  2.6179
  893MOL0     H17842   9.145   9.193   0.451 -0.5154  1.0995 -1.8903
  893MOL0     H17843   9.073   9.348   0.503 -3.0724 -0.2428 -1.1829
  893MOL0     H17844   8.979   9.074   0.592  2.4677  1.0715  3.6516
  893MOL0     H17845   8.909   9.179   0.461 -0.1434  3.6198  1.0333
  893MOL0     H17846   8.872   9.347   0.670  2.6382  0.1867  0.8339
  893MOL0     H17847   8.902   9.207   0.769  2.6669  0.3462 -0.5363
  893MOL0     H17848   8.671   9.238   0.551  0.4649  0.7705  0.2877
  893MOL0     H17849   8.730   9.084   0.621  1.3653 -0.1289  0.3782
  893MOL0     H17850   8.625   9.321   0.794  0.0807 -0.8482  4.2980
  893MOL0     H17851   8.677   9.170   0.850 -0.5479  0.3099  0.5983
  893MOL0     H17852   8.451   9.176   0.647 -0.0651  0.6636  0.1299
  893MOL0     H17853   8.426   9.210   0.826 -3.1588 -5.2304  0.9119
  893MOL0     H17854   8.511   8.947   0.695 -1.2168 -1.1512 -0.6244
  893MOL0     H17855   8.550   8.992   0.864 -1.6851  0.5782  1.7818
  893MOL0     H17856   8.344   8.859   0.832  2.7827  0.5060 -0.9487
  893MOL0     H17857   8.277   8.975   0.722  1.0966 -1.0071 -2.3635
  893MOL0     H17858   9.299   9.342   0.422 -0.1462  0.0327  0.4503
  893MOL0     H17859   9.527   9.433   0.430 -2.3291  0.6251 -0.7648
  893MOL0     H17860  10.006   9.303   0.782 -2.1191 -2.1716 -5.4918
  893MOL0     H17861  10.203   9.400   0.849 -3.1338 -1.4299  2.2871
  893MOL0     H17862  11.284   9.498   2.495 -0.2844  0.2010  0.0914
  893MOL0     H17863  11.421   9.446   2.682  0.2886  1.1116 -0.8021
  893MOL0     H17864  11.444   9.231   3.100 -3.3081  1.7924  1.3167
  893MOL0     H17865  11.624   9.184   3.251 -0.3937 -0.0961  0.0446
  893MOL0     H17866  11.956   9.476   3.264 -0.0207 -1.0146 -1.0912
  893MOL0     H17867  12.003   9.324   3.193  2.5062 -2.1226  2.4477
  893MOL0     H17868  12.011   9.256   3.470 -0.7953 -0.7776 -1.2064
  893MOL0     H17869  12.149   9.283   3.370  0.0482  0.6780 -1.2825
  893MOL0     H17870  12.133   9.543   3.426  2.4384  0.0122  2.2442
  893MOL0     H17871  12.190   9.435   3.557 -0.6556  0.2586  1.0775
  893MOL0     H17872  12.032   9.607   3.619  2.7726  0.0984 -2.0132
  893MOL0     H17873  11.909   9.530   3.514 -1.2273  1.0680  2.5139
  893MOL0     H17874  11.903   9.246   3.821 -2.7513  0.9591 -2.4721
  893MOL0     H17875  11.774   9.584   3.211 -1.3616  1.5818  0.9929
  893MOL0     H17876  11.591   9.635   3.065 -2.6118  2.5442  5.2722
  894MOL0     O17877   5.463   9.740  10.201  0.2614  0.5121  0.3218
  894MOL0     C17878   5.352   9.709  10.240  0.0323 -0.1243  0.3062
  894MOL0     O17879   5.244   9.659  10.160  0.1658 -0.6406 -0.4610
  894MOL0     C17880   5.273   9.605  10.035 -0.5599  0.3364  0.7248
  894MOL0     C17881   5.260   9.680   9.929  0.4620 -0.0028  0.7002
  894MOL0     C17882   5.287   9.631   9.805 -0.4376  0.2957  0.8688
  894MOL0     C17883   5.356   9.511   9.787 -0.4197  0.1690 -0.7966
  894MOL0     O17884   5.394   9.461   9.670 -0.0173 -0.9926  0.5561
  894MOL0     C17885   5.362   9.527   9.546 -1.1784 -1.9971  0.0432
  894MOL0     C17886   5.209   9.511   9.500 -0.7287  0.0487 -0.9227
  894MOL0     C17887   5.198   9.559   9.361 -0.4706 -0.1282 -0.0156
  894MOL0     C17888   5.226   9.716   9.337  0.6130  0.1554  0.2848
  894MOL0     C17889   5.168   9.775   9.212 -0.5256 -0.3809  0.8219
  894MOL0     C17890   5.180   9.922   9.188 -0.4146 -0.0663  0.3451
  894MOL0     C17891   5.322   9.963   9.157 -0.1363  0.7482  0.0789
  894MOL0     C17892   5.363  10.101   9.208  0.2022  1.1459  0.7254
  894MOL0     N17893   5.337  10.193   9.099 -0.4828  0.0711 -0.4826
  894MOL0     C17894   5.389  10.173   8.974  0.0064 -0.9509  0.5080
  894MOL0     C17895   5.341  10.287   8.902  0.7047  0.8573  0.3112
  894MOL0     C17896   5.363  10.323   8.759 -0.3854  0.1105  0.1189
  894MOL0     C17897   5.454  10.225   8.697 -0.3923 -0.2928 -0.2514
  894MOL0     C17898   5.448  10.239   8.543 -0.4670  0.0043  1.3868
  894MOL0     C17899   5.453  10.377   8.485  0.5052 -0.6521 -0.0307
  894MOL0     O17900   5.588  10.433   8.494 -0.4499  0.6145 -0.2798
  894MOL0     C17901   5.682  10.391   8.402  1.0517 -0.7051 -0.1316
  894MOL0     C17902   5.768  10.290   8.440 -0.5936 -0.7101  0.2061
  894MOL0     C17903   5.864  10.250   8.343 -0.6537  0.6504 -0.2126
  894MOL0     C17904   5.863  10.303   8.221  1.2081  0.1397 -0.5567
  894MOL0     C17905   5.950  10.243   8.121 -0.3688  0.4614  0.2975
  894MOL0     O17906   5.942  10.305   8.000  0.4679  0.5855 -0.2195
  894MOL0     C17907   6.004  10.254   7.887  0.1438 -0.1772  0.5162
  894MOL0     C17908   5.947  10.288   7.758 -0.3787  0.4374  0.3318
  894MOL0     C17909   6.002  10.239   7.639  0.7512 -0.7662  0.0832
  894MOL0     C17910   6.110  10.150   7.648 -0.0075  0.2437  0.2577
  894MOL0     O17911   6.178  10.119   7.536  0.0987 -0.2452 -0.8394
  894MOL0     C17912   6.098  10.045   7.435  0.5993 -0.2944 -1.0888
  894MOL0     C17913   6.190   9.941   7.379  0.7238 -0.0361  0.4699
  894MOL0     C17914   6.225   9.952   7.232 -0.3376  0.4282  0.7578
  894MOL0     C17915   6.322  10.063   7.207 -0.4327 -0.1153  0.3736
  894MOL0     C17916   6.378  10.066   7.058 -1.0310  0.4495 -0.3338
  894MOL0     C17917   6.282  10.129   6.958 -0.4002  0.6099  0.9982
  894MOL0     C17918   6.320  10.122   6.800 -0.3769 -0.0550 -1.1036
  894MOL0     C17919   6.208  10.181   6.718 -0.0598 -0.2435 -0.0421
  894MOL0    Cl17920   6.048  10.090   6.744 -0.5843  0.1369 -0.6011
  894MOL0     C17921   6.167  10.112   7.766 -0.3398 -0.9601 -0.2886
  894MOL0     C17922   6.111  10.164   7.885  0.0508  0.0622 -0.3054
  894MOL0     O17923   6.025  10.153   8.157  0.5288  0.7621  0.6169
  894MOL0     C17924   5.779  10.420   8.187  0.1930  0.2758  0.3579
  894MOL0     C17925   5.682  10.458   8.282 -0.2262 -0.0741  0.1828
  894MOL0     N17926   5.262  10.367   8.980  1.0258  0.5748 -1.0123
  894MOL0     N17927   5.254  10.310   9.092  0.0175  0.5270 -0.2874
  894MOL0     C17928   5.395   9.441   9.907  1.4797  0.2087  0.2797
  894MOL0     C17929   5.339   9.481  10.031 -0.2162 -1.0714  0.2940
  894MOL0     C17930   5.318   9.739  10.384 -0.2918 -0.4408 -0.7023
  894MOL0     C17931   5.184   9.719  10.427  0.0035  0.2271 -1.0313
  894MOL0     C17932   5.148   9.760  10.560 -0.1914  0.2497  0.3642
  894MOL0     C17933   5.232   9.836  10.641 -0.0949 -0.4763 -1.3532
  894MOL0     O17934   5.199   9.892  10.761 -0.9815  0.1046 -0.2743
  894MOL0     C17935   5.085   9.836  10.837  0.0570  0.5504 -0.1093
  894MOL0     C17936   5.116   9.830  10.977 -0.0512  1.0050 -0.0055
  894MOL0     C17937   5.163   9.963  11.035  0.2977 -0.1308  0.2663
  894MOL0     C17938   5.133   9.969  11.182  0.3033 -0.4030 -0.3637
  894MOL0     C17939   5.217  10.057  11.271  0.3807  0.7021 -0.8830
  894MOL0     C17940   5.259  10.133  11.357 -0.0729 -0.5380  0.0677
  894MOL0     C17941   5.371   9.851  10.595 -0.9385 -0.6698 -0.1789
  894MOL0     C17942   5.409   9.798  10.475  0.3553 -0.5828  0.4725
  894MOL0     H17943   5.215   9.778   9.938  2.1745  0.9879 -0.7175
  894MOL0     H17944   5.263   9.694   9.720 -0.3416 -1.4931 -0.5378
  894MOL0     H17945   5.425   9.488   9.466  2.5289  0.5415  1.4506
  894MOL0     H17946   5.399   9.630   9.549 -0.3141 -2.2875 -0.1439
  894MOL0     H17947   5.127   9.555   9.558 -0.9414 -0.7239 -0.6180
  894MOL0     H17948   5.191   9.403   9.508 -1.2277  0.0821 -1.5247
  894MOL0     H17949   5.103   9.541   9.310  0.4041  1.7742 -2.5091
  894MOL0     H17950   5.263   9.510   9.287 -2.1979 -0.4139 -1.4250
  894MOL0     H17951   5.172   9.773   9.413 -0.8624 -3.4366  2.1517
  894MOL0     H17952   5.333   9.740   9.334  0.9489 -1.1896  0.7558
  894MOL0     H17953   5.062   9.751   9.202 -1.0241  1.6668  0.6749
  894MOL0     H17954   5.214   9.728   9.125  0.1526  4.5468 -1.8684
  894MOL0     H17955   5.147   9.975   9.278  2.2852 -0.5977  1.7588
  894MOL0     H17956   5.125   9.968   9.105  1.8241  0.8163 -0.7437
  894MOL0     H17957   5.378   9.898   9.226 -2.6328 -0.4657  1.0930
  894MOL0     H17958   5.357   9.931   9.058  1.3168 -2.6340  1.5024
  894MOL0     H17959   5.472  10.090   9.220  0.3553 -0.0120 -1.2688
  894MOL0     H17960   5.312  10.125   9.301 -1.1379 -0.8072  0.5442
  894MOL0     H17961   5.452  10.094   8.934  0.7697  1.4765 -3.6413
  894MOL0     H17962   5.405  10.424   8.756 -0.9060  0.3342 -2.3699
  894MOL0     H17963   5.275  10.312   8.694  1.1370 -1.7880 -1.7998
  894MOL0     H17964   5.415  10.127   8.727  0.0869  0.0975  1.8230
  894MOL0     H17965   5.559  10.228   8.728 -0.9088 -2.0493  1.9483
  894MOL0     H17966   5.516  10.175   8.485 -0.3149  0.0574  1.5069
  894MOL0     H17967   5.349  10.202   8.513 -0.7315  1.4069  0.4466
  894MOL0     H17968   5.390  10.443   8.547  0.3532 -0.5690 -0.2676
  894MOL0     H17969   5.418  10.376   8.381  0.8322 -0.4311 -0.1445
  894MOL0     H17970   5.757  10.257   8.543  0.4080  0.6462  0.7775
  894MOL0     H17971   5.931  10.168   8.366 -2.0646 -1.2649 -2.5220
  894MOL0     H17972   5.862  10.355   7.757 -1.7569 -1.1761  2.0830
  894MOL0     H17973   5.966  10.274   7.543  2.8174  1.2457 -0.0534
  894MOL0     H17974   6.077  10.126   7.365  0.9281  0.4909 -0.3036
  894MOL0     H17975   6.011   9.994   7.478  1.7763 -0.3792  1.3654
  894MOL0     H17976   6.147   9.844   7.403  1.5761 -1.1383 -2.1403
  894MOL0     H17977   6.284   9.935   7.434 -0.7416 -2.8817  3.0004
  894MOL0     H17978   6.133   9.962   7.174  1.0406  0.2526 -1.5939
  894MOL0     H17979   6.274   9.862   7.194 -1.2884  0.4700 -0.6588
  894MOL0     H17980   6.269  10.157   7.226 -0.1591  0.1500 -0.1342
  894MOL0     H17981   6.416  10.059   7.263  0.6600 -0.5612 -1.4101
  894MOL0     H17982   6.393   9.961   7.033 -1.3156 -0.0680  1.4889
  894MOL0     H17983   6.471  10.122   7.043 -1.2928  0.9184 -0.2232
  894MOL0     H17984   6.292  10.234   6.984 -0.2341  0.4567  1.5552
  894MOL0     H17985   6.182  10.090   6.982  0.0912  0.8148  3.7109
  894MOL0     H17986   6.419  10.165   6.783 -0.7872  1.5858  0.3815
  894MOL0     H17987   6.332  10.017   6.773  0.5372 -0.4720  0.7623
  894MOL0     H17988   6.245  10.166   6.617  0.4389 -0.2190  0.1339
  894MOL0     H17989   6.199  10.288   6.739 -2.2225 -0.9282  3.5658
  894MOL0     H17990   6.258  10.054   7.770  0.0751 -0.2655  0.9419
  894MOL0     H17991   6.173  10.147   7.973  1.4652  4.9135 -0.0678
  894MOL0     H17992   5.780  10.458   8.085  1.0246 -1.1023 -0.1778
  894MOL0     H17993   5.608  10.532   8.256  0.7284 -0.1087 -3.0207
  894MOL0     H17994   5.430   9.342   9.882 -1.1028 -1.2628  2.0768
  894MOL0     H17995   5.346   9.427  10.124 -0.4422  1.6442  1.9988
  894MOL0     H17996   5.107   9.679  10.362 -0.6103 -0.8699  0.3255
  894MOL0     H17997   5.049   9.732  10.594 -0.0674  0.4448  0.8880
  894MOL0     H17998   5.074   9.727  10.829  3.1618 -0.2956  3.8955
  894MOL0     H17999   4.988   9.887  10.836 -0.5692 -0.4429  2.2151
  894MOL0     H18000   5.030   9.782  11.025  3.0584 -2.6797  2.5066
  894MOL0     H18001   5.189   9.750  10.994  0.9875  2.2748  1.9565
  894MOL0     H18002   5.126  10.048  10.976 -0.0652 -0.3762  0.1359
  894MOL0     H18003   5.272   9.965  11.022  0.3275  0.5805  0.5415
  894MOL0     H18004   5.031  10.000  11.207  0.0431 -2.6848  1.7550
  894MOL0     H18005   5.140   9.867  11.221 -0.6572 -0.6326 -0.7716
  894MOL0     H18006   5.310  10.194  11.429  1.1889  2.4094 -3.0357
  894MOL0     H18007   5.443   9.913  10.647  0.3351 -0.1917 -2.3583
  894MOL0     H18008   5.512   9.814  10.448 -0.5524  1.1078 -2.4576
  895MOL0     O18009   0.808   2.452   0.495 -0.4329 -0.0072 -0.5091
  895MOL0     C18010   0.926   2.419   0.484  1.2427 -0.6180 -0.1736
  895MOL0     O18011   1.015   2.414   0.593 -0.0671 -0.6087  0.7165
  895MOL0     C18012   0.994   2.484   0.709 -0.3078  0.5894  0.1259
  895MOL0     C18013   1.023   2.416   0.830 -0.4788 -0.3734  0.4248
  895MOL0     C18014   0.987   2.470   0.956 -0.4663 -0.2178  0.2632
  895MOL0     C18015   0.908   2.594   0.955  0.4494  0.0475  0.1735
  895MOL0     O18016   0.860   2.652   1.072  0.0212  0.0468  0.1859
  895MOL0     C18017   0.718   2.633   1.079 -1.5980  0.0694 -0.5324
  895MOL0     C18018   0.693   2.685   1.226  1.0090 -0.1692 -0.3903
  895MOL0     C18019   0.547   2.633   1.252  0.0492  0.6628 -0.7467
  895MOL0     C18020   0.513   2.671   1.390 -0.2972 -0.6482  0.5153
  895MOL0     C18021   0.594   2.618   1.508  0.2942 -0.2706 -0.0181
  895MOL0     C18022   0.536   2.647   1.646 -0.1086 -0.1294  0.0779
  895MOL0     C18023   0.498   2.798   1.660  1.2871  0.5851 -0.2900
  895MOL0     C18024   0.416   2.825   1.790  0.3350 -1.5385 -0.1364
  895MOL0     N18025   0.495   2.858   1.909 -0.3962  0.7171  0.8818
  895MOL0     C18026   0.570   2.762   1.977 -0.7459  0.0211 -0.3606
  895MOL0     C18027   0.659   2.832   2.051 -0.9148 -0.0111 -0.0274
  895MOL0     C18028   0.770   2.776   2.146  0.1655 -1.1167  1.0240
  895MOL0     C18029   0.715   2.671   2.242 -0.1548  0.7647 -0.2623
  895MOL0     C18030   0.590   2.706   2.325 -0.1695  0.0741 -1.0569
  895MOL0     C18031   0.590   2.640   2.468 -0.1106  0.8592  0.1792
  895MOL0     O18032   0.584   2.495   2.445 -0.0579  0.1317  0.7671
  895MOL0     C18033   0.565   2.408   2.551 -0.5609 -0.6629 -0.9773
  895MOL0     C18034   0.573   2.270   2.524 -0.6078  0.3297  0.7812
  895MOL0     C18035   0.549   2.168   2.623  0.8664  0.1628 -0.2107
  895MOL0     C18036   0.545   2.199   2.757  0.7166  0.2449  0.5335
  895MOL0     C18037   0.535   2.099   2.862 -0.0624  0.4373  0.3348
  895MOL0     O18038   0.472   2.138   2.978 -0.3234 -0.6445  0.1359
  895MOL0     C18039   0.448   2.057   3.083 -0.7850  0.4314 -0.7723
  895MOL0     C18040   0.498   1.922   3.100  0.2679 -0.5940  1.0975
  895MOL0     C18041   0.478   1.846   3.218  0.5527  0.0251 -0.4614
  895MOL0     C18042   0.381   1.891   3.306  0.4510  0.1410 -0.2280
  895MOL0     O18043   0.349   1.804   3.412 -0.3487 -0.5937 -0.4211
  895MOL0     C18044   0.272   1.847   3.523 -0.1512  0.6423 -0.4619
  895MOL0     C18045   0.275   1.727   3.623  0.0461 -0.3697  0.0112
  895MOL0     C18046   0.180   1.601   3.594 -0.1180 -0.8536 -0.0556
  895MOL0     C18047   0.175   1.503   3.712  0.4815  0.4424 -1.1719
  895MOL0     C18048   0.133   1.560   3.844 -0.4079 -0.9430  0.4367
  895MOL0     C18049  -0.015   1.573   3.857 -0.5322  0.1942  0.2701
  895MOL0     C18050  -0.041   1.685   3.968  0.5999  0.7359  0.0753
  895MOL0     C18051  -0.024   1.830   3.914 -0.5407  0.5651 -0.2161
  895MOL0    Cl18052  -0.103   1.866   3.756 -0.3676 -0.2969 -0.3654
  895MOL0     C18053   0.326   2.023   3.290 -0.8849  0.3399 -0.2548
  895MOL0     C18054   0.355   2.103   3.172 -0.1654 -0.2086 -0.1413
  895MOL0     O18055   0.579   1.985   2.831  0.7194 -0.5388  0.3204
  895MOL0     C18056   0.550   2.341   2.792 -0.5185  0.6841  0.2067
  895MOL0     C18057   0.557   2.433   2.686 -0.7701  0.6922  0.0979
  895MOL0     N18058   0.628   2.967   2.028  0.2041  0.5670 -0.0823
  895MOL0     N18059   0.549   2.983   1.929 -0.1933 -0.4789 -0.4598
  895MOL0     C18060   0.878   2.657   0.829  0.5998 -0.6435  0.6202
  895MOL0     C18061   0.930   2.605   0.711  0.2152 -0.0236 -0.8081
  895MOL0     C18062   0.968   2.389   0.344 -0.5455 -0.8076  0.3555
  895MOL0     C18063   1.105   2.393   0.332 -0.7810 -0.1443  1.0340
  895MOL0     C18064   1.145   2.386   0.201 -0.8238  0.2766  0.5765
  895MOL0     C18065   1.067   2.375   0.089  0.0760  0.6062  0.3410
  895MOL0     O18066   1.140   2.365  -0.030  0.5496  0.2209  0.4854
  895MOL0     C18067   1.068   2.387  -0.152  0.0455 -0.2217 -0.4888
  895MOL0     C18068   1.032   2.257  -0.213 -0.1256 -0.0646  0.1491
  895MOL0     C18069   1.138   2.163  -0.274 -0.5357  0.1334  0.4069
  895MOL0     C18070   1.062   2.053  -0.349 -0.6866  0.5638 -0.0119
  895MOL0     C18071   1.147   1.971  -0.434  0.4285  0.1309  0.1171
  895MOL0     C18072   1.185   1.886  -0.508  0.1995  0.5608 -0.2091
  895MOL0     C18073   0.926   2.375   0.103  0.1281  0.8226 -0.1986
  895MOL0     C18074   0.878   2.382   0.235 -0.2503  0.4760  0.2485
  895MOL0     H18075   1.080   2.324   0.831 -2.4691 -1.7236 -1.4163
  895MOL0     H18076   1.002   2.424   1.054 -2.1921  1.3596  1.3434
  895MOL0     H18077   0.701   2.525   1.072  0.2857 -0.2052 -1.5568
  895MOL0     H18078   0.662   2.689   1.004 -1.6913 -3.4838 -3.3499
  895MOL0     H18079   0.705   2.793   1.237  3.7971 -0.4625  0.1499
  895MOL0     H18080   0.767   2.656   1.301  2.6752  1.2167 -1.3990
  895MOL0     H18081   0.532   2.526   1.237 -1.7024  0.8006 -0.2186
  895MOL0     H18082   0.471   2.670   1.182 -0.3636 -0.8538 -1.1438
  895MOL0     H18083   0.506   2.780   1.387  0.5977 -0.5628  1.1276
  895MOL0     H18084   0.408   2.645   1.406 -0.6590 -3.1354 -4.0529
  895MOL0     H18085   0.694   2.662   1.511 -0.1252  0.6718  0.9179
  895MOL0     H18086   0.618   2.513   1.488  2.1575  0.7896 -4.5080
  895MOL0     H18087   0.615   2.614   1.715  1.2770  0.0265 -1.3640
  895MOL0     H18088   0.447   2.585   1.664  0.8680 -2.1152 -1.4935
  895MOL0     H18089   0.585   2.863   1.651  0.1373  2.3611  0.7152
  895MOL0     H18090   0.425   2.828   1.584 -2.1131 -0.9130  2.1558
  895MOL0     H18091   0.333   2.760   1.820 -2.4694  3.5848  5.2173
  895MOL0     H18092   0.370   2.922   1.770  2.6155 -0.2954  0.3032
  895MOL0     H18093   0.555   2.656   1.956 -3.9697  0.7694 -2.4553
  895MOL0     H18094   0.803   2.858   2.211 -0.3451  2.0794 -2.3833
  895MOL0     H18095   0.854   2.742   2.084 -1.3381 -1.1095 -1.1151
  895MOL0     H18096   0.794   2.654   2.315 -2.1817  0.2608  1.9468
  895MOL0     H18097   0.687   2.585   2.179 -0.9061 -0.1558  1.2764
  895MOL0     H18098   0.568   2.812   2.342  2.5958  0.5924 -0.1563
  895MOL0     H18099   0.505   2.665   2.271 -1.3559  1.3534 -0.2255
  895MOL0     H18100   0.495   2.675   2.510 -1.3569  0.8356 -2.4136
  895MOL0     H18101   0.675   2.667   2.531 -0.5284  3.1576 -0.1615
  895MOL0     H18102   0.594   2.249   2.420  0.9777  3.0845  0.4290
  895MOL0     H18103   0.532   2.066   2.588 -1.3203  0.2855  0.3438
  895MOL0     H18104   0.566   1.882   3.025  0.5513  0.1000  0.9720
  895MOL0     H18105   0.525   1.749   3.228  4.3121  1.8103  1.0594
  895MOL0     H18106   0.167   1.865   3.498 -0.0818  0.1635 -1.1553
  895MOL0     H18107   0.313   1.930   3.580 -1.2391 -0.1972  1.6298
  895MOL0     H18108   0.251   1.767   3.722  2.5557  0.4836  0.3360
  895MOL0     H18109   0.377   1.689   3.626 -0.1199 -0.7651  0.8681
  895MOL0     H18110   0.194   1.562   3.492 -1.4440 -0.2739 -0.4836
  895MOL0     H18111   0.077   1.638   3.583 -0.0609 -1.0388 -1.4527
  895MOL0     H18112   0.108   1.426   3.674 -0.2740  1.4776 -2.0023
  895MOL0     H18113   0.279   1.474   3.731 -0.2297 -0.1613  2.4714
  895MOL0     H18114   0.185   1.649   3.880  3.4674 -2.6630 -0.3509
  895MOL0     H18115   0.153   1.487   3.923 -1.8284 -0.9739  0.7930
  895MOL0     H18116  -0.053   1.474   3.883 -1.6389  0.3395 -0.7096
  895MOL0     H18117  -0.075   1.609   3.773 -0.1633  1.6260  0.5791
  895MOL0     H18118  -0.148   1.681   3.991  0.4274  0.1246 -0.7748
  895MOL0     H18119   0.014   1.670   4.061  0.7666 -0.6443 -0.2234
  895MOL0     H18120   0.082   1.853   3.900 -0.8558  0.8789 -2.4359
  895MOL0     H18121  -0.071   1.887   3.995 -2.5123 -2.5186  1.0090
  895MOL0     H18122   0.278   2.069   3.377  0.7654  0.8186  0.4411
  895MOL0     H18123   0.310   2.199   3.153 -1.0783 -0.1919  1.7850
  895MOL0     H18124   0.549   2.369   2.897  2.7394  2.9078 -0.1943
  895MOL0     H18125   0.556   2.537   2.715 -0.9370  1.0110 -1.0292
  895MOL0     H18126   0.818   2.748   0.832 -0.3195 -1.1553 -0.9762
  895MOL0     H18127   0.906   2.662   0.621 -3.8051 -2.1532 -1.3104
  895MOL0     H18128   1.170   2.404   0.419  0.9290 -1.8760  0.0635
  895MOL0     H18129   1.253   2.385   0.187 -0.8938 -0.7131 -0.0134
  895MOL0     H18130   1.128   2.430  -0.233 -0.9430  1.6367 -0.3072
  895MOL0     H18131   0.988   2.462  -0.140  1.2234  1.1344 -0.7792
  895MOL0     H18132   0.979   2.202  -0.135 -0.0391  2.1765  1.8709
  895MOL0     H18133   0.969   2.279  -0.299  1.5318 -0.7240 -1.3075
  895MOL0     H18134   1.203   2.119  -0.198 -0.4721  0.0434  0.3003
  895MOL0     H18135   1.207   2.219  -0.337  1.0125 -1.6546  0.4352
  895MOL0     H18136   1.024   1.982  -0.275  2.0746 -0.3885  0.6159
  895MOL0     H18137   0.974   2.078  -0.409 -0.3543  1.0604 -0.2959
  895MOL0     H18138   1.226   1.807  -0.568  1.2386 -0.5400  1.8323
  895MOL0     H18139   0.863   2.380   0.015  0.1629 -0.1733 -0.3001
  895MOL0     H18140   0.772   2.399   0.251 -0.1945  0.3985  0.7053
  896MOL0     O18141   5.823   6.801   4.922 -0.0469 -0.2048  0.6213
  896MOL0     C18142   5.848   6.823   5.042 -0.5386  0.0557 -1.0171
  896MOL0     O18143   5.946   6.759   5.119 -0.3654 -0.6033 -0.7231
  896MOL0     C18144   6.037   6.684   5.049  0.3259  0.9074  0.4064
  896MOL0     C18145   6.123   6.732   4.944 -0.0248  0.0706  0.1595
  896MOL0     C18146   6.220   6.650   4.889  0.2688  0.6918 -0.6604
  896MOL0     C18147   6.219   6.510   4.924 -0.9368 -0.0061 -0.1401
  896MOL0     O18148   6.293   6.422   4.839  0.3990  0.4213  0.1430
  896MOL0     C18149   6.332   6.294   4.890  1.0530  0.1776  1.7028
  896MOL0     C18150   6.430   6.221   4.794  0.1577  0.2856 -0.4414
  896MOL0     C18151   6.553   6.307   4.794 -0.4991  0.1511  0.6320
  896MOL0     C18152   6.647   6.241   4.689 -0.7299 -0.8368  0.7197
  896MOL0     C18153   6.706   6.096   4.727  0.3302  0.1377  1.4160
  896MOL0     C18154   6.790   6.044   4.614  0.2571 -0.1544 -0.6290
  896MOL0     C18155   6.851   5.897   4.649 -0.3240  0.1939  0.5591
  896MOL0     C18156   6.904   5.841   4.510 -1.1907 -0.8091 -0.0215
  896MOL0     N18157   7.010   5.923   4.455 -0.5744 -0.2510 -0.6472
  896MOL0     C18158   7.136   5.932   4.494 -0.3208  0.0113 -0.0252
  896MOL0     C18159   7.204   6.001   4.404  0.0424  0.6748  0.9894
  896MOL0     C18160   7.348   6.039   4.419 -0.1955 -0.6621  0.1027
  896MOL0     C18161   7.431   5.937   4.503 -0.9218  1.5076  0.1610
  896MOL0     C18162   7.572   6.005   4.508 -0.1286  0.0846  0.2631
  896MOL0     C18163   7.677   5.939   4.587  0.3544 -0.1215 -0.5481
  896MOL0     O18164   7.632   5.907   4.718  0.2159 -0.2267  0.2865
  896MOL0     C18165   7.730   5.871   4.816  0.4699 -0.3172 -0.3163
  896MOL0     C18166   7.681   5.821   4.934 -0.8266  0.5279 -0.5203
  896MOL0     C18167   7.762   5.780   5.037  0.0244  0.6085  0.1899
  896MOL0     C18168   7.904   5.771   5.021  0.6284 -0.4810  1.1363
  896MOL0     C18169   7.986   5.718   5.119 -0.5559  0.2018  0.4057
  896MOL0     O18170   7.953   5.713   5.243  0.1137 -0.9030 -0.0568
  896MOL0     C18171   8.011   5.628   5.332 -0.2140  0.8719  0.1891
  896MOL0     C18172   8.114   5.673   5.415 -0.4272  0.7226  0.2950
  896MOL0     C18173   8.175   5.586   5.510  0.6920 -0.4401  0.2385
  896MOL0     C18174   8.124   5.454   5.518  0.4330  0.4595 -1.3550
  896MOL0     O18175   8.152   5.352   5.619 -0.0753  0.5099 -0.0084
  896MOL0     C18176   8.284   5.356   5.669  0.1542  0.5103  0.7449
  896MOL0     C18177   8.301   5.223   5.733  0.1942  0.9699 -0.5278
  896MOL0     C18178   8.411   5.216   5.833  0.6509 -0.1866  0.7486
  896MOL0     C18179   8.420   5.067   5.877 -0.3363  1.0843  0.8289
  896MOL0     C18180   8.525   5.046   5.982  0.4112 -0.0578  0.1642
  896MOL0     C18181   8.470   5.093   6.119 -0.7115  0.8018  0.5890
  896MOL0     C18182   8.550   5.049   6.238  0.0246 -0.1915  0.0857
  896MOL0     C18183   8.561   4.903   6.272 -0.1551  0.9607 -0.0585
  896MOL0    Cl18184   8.633   4.882   6.432  0.0721 -0.4629 -0.1282
  896MOL0     C18185   8.010   5.411   5.443 -0.9554  0.2614  0.3143
  896MOL0     C18186   7.957   5.498   5.352 -0.0705 -0.1360  0.3906
  896MOL0     O18187   8.091   5.670   5.079  0.1100 -0.8287 -0.2798
  896MOL0     C18188   7.959   5.825   4.897 -0.1660  0.3986 -0.2503
  896MOL0     C18189   7.870   5.876   4.798 -0.0949 -0.6178 -0.6028
  896MOL0     N18190   7.114   6.032   4.308 -0.7634 -0.5748  0.0402
  896MOL0     N18191   7.001   5.980   4.336 -1.1561  0.1159 -0.1865
  896MOL0     C18192   6.140   6.463   5.031  0.1174  0.5472  0.1264
  896MOL0     C18193   6.060   6.555   5.093  0.2728 -0.2386 -0.1463
  896MOL0     C18194   5.763   6.915   5.110  0.6973  0.1809  0.5638
  896MOL0     C18195   5.627   6.941   5.057  0.6840  1.5816  0.1759
  896MOL0     C18196   5.539   7.019   5.132 -0.2659  0.1582  0.4059
  896MOL0     C18197   5.579   7.086   5.242 -0.6753 -0.0970 -0.1571
  896MOL0     O18198   5.494   7.168   5.303 -0.7511  0.0801 -0.8945
  896MOL0     C18199   5.537   7.236   5.418  0.4454 -0.9669  0.0293
  896MOL0     C18200   5.558   7.150   5.541 -0.4401 -0.0431 -0.5844
  896MOL0     C18201   5.434   7.077   5.588  0.5769  0.0947  0.4852
  896MOL0     C18202   5.448   6.998   5.720  0.5836 -0.8289  0.6889
  896MOL0     C18203   5.558   6.907   5.736  1.2005  0.2379 -0.5365
  896MOL0     C18204   5.661   6.842   5.733 -0.7392  0.6681  0.8232
  896MOL0     C18205   5.716   7.069   5.275  0.1189  0.3901 -0.2155
  896MOL0     C18206   5.794   6.977   5.215  0.4507  0.2575 -0.5271
  896MOL0     H18207   6.105   6.834   4.911 -3.4821 -0.1117  1.1283
  896MOL0     H18208   6.288   6.674   4.808  2.5830  1.3265  1.3239
  896MOL0     H18209   6.236   6.243   4.902 -0.4692  2.3964 -0.1681
  896MOL0     H18210   6.372   6.315   4.990  1.6784 -1.3649  1.8018
  896MOL0     H18211   6.397   6.196   4.692  0.1490  0.7537 -0.5558
  896MOL0     H18212   6.456   6.130   4.849  0.6863  1.8210  1.9848
  896MOL0     H18213   6.612   6.305   4.887  0.4975  0.0107  0.0141
  896MOL0     H18214   6.525   6.409   4.769 -1.0332 -0.5990 -2.2192
  896MOL0     H18215   6.592   6.244   4.595  0.0442 -2.6704  0.1591
  896MOL0     H18216   6.736   6.301   4.669 -1.9971  0.8103 -0.1593
  896MOL0     H18217   6.635   6.026   4.771 -0.9491  2.5740  3.4831
  896MOL0     H18218   6.769   6.118   4.814  0.6143 -2.0825  1.8256
  896MOL0     H18219   6.876   6.110   4.599 -1.9788  3.0466 -0.2889
  896MOL0     H18220   6.728   6.039   4.524 -0.3606 -1.3366 -0.1576
  896MOL0     H18221   6.917   5.925   4.732 -2.8367  2.9302  1.8144
  896MOL0     H18222   6.772   5.835   4.690 -2.7332  2.3119 -0.6169
  896MOL0     H18223   6.829   5.824   4.432 -0.0880 -6.4953 -0.3034
  896MOL0     H18224   6.941   5.742   4.539 -3.7758 -1.9250 -0.2081
  896MOL0     H18225   7.166   5.893   4.591  1.3132 -1.9417 -1.2284
  896MOL0     H18226   7.354   6.128   4.484 -1.2521 -1.4521  1.3353
  896MOL0     H18227   7.398   6.065   4.326  1.5208  0.2917  1.2232
  896MOL0     H18228   7.452   5.837   4.464 -1.0704  0.6388  2.1583
  896MOL0     H18229   7.393   5.926   4.605  0.3603  1.5991  0.6732
  896MOL0     H18230   7.615   6.012   4.407  1.6522  0.0177  0.9874
  896MOL0     H18231   7.553   6.108   4.538  0.7845  1.0821 -2.2796
  896MOL0     H18232   7.758   6.012   4.593 -0.2553  0.6099 -0.9924
  896MOL0     H18233   7.725   5.850   4.544  2.1885 -0.1510  1.4042
  896MOL0     H18234   7.574   5.809   4.945 -0.8184 -2.3908 -2.5466
  896MOL0     H18235   7.705   5.747   5.123 -2.0243 -1.3305 -1.7717
  896MOL0     H18236   8.139   5.778   5.403  2.0673 -0.0297 -2.0702
  896MOL0     H18237   8.230   5.614   5.600 -0.3359  0.8211  0.5047
  896MOL0     H18238   8.284   5.433   5.746 -1.1973 -0.7870  2.1319
  896MOL0     H18239   8.358   5.374   5.590 -0.8970  0.4790 -0.2822
  896MOL0     H18240   8.313   5.148   5.654 -0.7373  1.2547 -0.9580
  896MOL0     H18241   8.208   5.199   5.786  1.2759 -0.1375  0.9385
  896MOL0     H18242   8.381   5.274   5.921 -0.9737 -0.7264  0.5815
  896MOL0     H18243   8.506   5.250   5.791 -0.3162 -0.1089 -1.5224
  896MOL0     H18244   8.321   5.037   5.912 -1.8016  2.4402 -1.8286
  896MOL0     H18245   8.454   5.017   5.786 -0.5221  1.2603  0.6629
  896MOL0     H18246   8.617   5.100   5.960  0.7717 -0.7755 -0.1151
  896MOL0     H18247   8.550   4.941   5.995 -1.3433 -0.4248  0.9700
  896MOL0     H18248   8.367   5.058   6.126 -0.6696  0.4398 -0.4615
  896MOL0     H18249   8.443   5.199   6.119 -2.2212  0.4394  1.2196
  896MOL0     H18250   8.649   5.093   6.223 -1.0570  1.4628 -3.2515
  896MOL0     H18251   8.502   5.092   6.327 -0.3330 -1.0802  0.3325
  896MOL0     H18252   8.627   4.868   6.193  1.6368  1.3436  1.1920
  896MOL0     H18253   8.463   4.855   6.268 -0.9159  2.3355  0.8823
  896MOL0     H18254   7.965   5.315   5.465 -3.4000  1.3636  0.3919
  896MOL0     H18255   7.870   5.463   5.297 -0.0711  0.2916  0.1212
  896MOL0     H18256   8.066   5.832   4.880 -0.0969 -0.1487 -0.0585
  896MOL0     H18257   7.914   5.926   4.712 -1.8357  1.3610 -0.4383
  896MOL0     H18258   6.142   6.362   5.070 -1.2927  1.5693  3.2103
  896MOL0     H18259   6.003   6.512   5.174 -0.6434 -2.8617 -2.0441
  896MOL0     H18260   5.600   6.899   4.961  1.7775  0.0236  0.5031
  896MOL0     H18261   5.437   7.037   5.101 -0.0728  0.2298 -0.2042
  896MOL0     H18262   5.463   7.311   5.447  0.4687  0.1285 -2.4881
  896MOL0     H18263   5.629   7.289   5.390  0.6437 -0.1101  2.0741
  896MOL0     H18264   5.639   7.080   5.521  0.7966  0.5868  1.7762
  896MOL0     H18265   5.588   7.218   5.622 -2.3078 -0.0065  0.1249
  896MOL0     H18266   5.410   7.017   5.500 -2.0106 -2.0033  2.4536
  896MOL0     H18267   5.358   7.154   5.606 -2.0328 -2.7779  2.8118
  896MOL0     H18268   5.453   7.081   5.792  2.4708  0.5944 -0.9620
  896MOL0     H18269   5.357   6.943   5.747  0.6354  0.7790  4.9533
  896MOL0     H18270   5.747   6.779   5.726  0.9364  2.8329  1.0955
  896MOL0     H18271   5.763   7.127   5.354  5.7627 -2.5405 -0.9285
  896MOL0     H18272   5.894   6.964   5.256  0.9163  0.7513 -1.4953
  897MOL0     O18273   0.488   5.843   7.745  0.3753  0.4832  1.0180
  897MOL0     C18274   0.377   5.796   7.735 -0.9333  1.1352 -0.6564
  897MOL0     O18275   0.268   5.841   7.675 -0.2440  0.5483 -0.9191
  897MOL0     C18276   0.262   5.967   7.627  0.5441  0.2468 -0.2128
  897MOL0     C18277   0.210   5.985   7.492  0.3989  0.4847  0.7373
  897MOL0     C18278   0.185   6.101   7.429  0.6053 -0.5930  0.0083
  897MOL0     C18279   0.214   6.221   7.501 -0.5622  0.5304 -0.1003
  897MOL0     O18280   0.181   6.338   7.438  0.7029 -0.3734 -0.1947
  897MOL0     C18281   0.104   6.443   7.505 -0.6283 -0.3047  0.7911
  897MOL0     C18282   0.092   6.545   7.401  0.5036  0.7887  0.0817
  897MOL0     C18283   0.024   6.674   7.446 -0.3672 -0.1868  0.5126
  897MOL0     C18284  -0.111   6.655   7.500 -0.0648  0.6366  0.0637
  897MOL0     C18285  -0.168   6.783   7.549  0.6028  0.6572 -0.0361
  897MOL0     C18286  -0.280   6.751   7.648  0.3302 -0.0751 -0.3189
  897MOL0     C18287  -0.410   6.699   7.574  0.5192 -0.4822 -1.1621
  897MOL0     C18288  -0.527   6.674   7.674 -0.0565 -0.2342 -1.1652
  897MOL0     N18289  -0.555   6.783   7.765  0.3646  0.2072 -0.4792
  897MOL0     C18290  -0.535   6.774   7.903  0.3633  0.5156 -0.0468
  897MOL0     C18291  -0.590   6.890   7.953 -0.2210 -0.6899 -0.0036
  897MOL0     C18292  -0.604   6.928   8.098 -0.5460 -0.1895  0.5097
  897MOL0     C18293  -0.598   7.081   8.120 -0.1506 -1.4962  0.4509
  897MOL0     C18294  -0.467   7.152   8.093  0.3493 -0.0318  0.1877
  897MOL0     C18295  -0.363   7.096   8.194  0.6086 -0.0478 -0.5523
  897MOL0     O18296  -0.306   6.968   8.163  0.1884 -0.4892 -0.4143
  897MOL0     C18297  -0.183   6.932   8.199  0.2152  0.0412 -0.3793
  897MOL0     C18298  -0.134   6.951   8.326  0.3278  0.7052  0.0432
  897MOL0     C18299  -0.001   6.911   8.362  0.4303  0.0025 -0.8152
  897MOL0     C18300   0.087   6.858   8.267  0.6986 -0.5467  0.7905
  897MOL0     C18301   0.224   6.816   8.302 -0.1994  0.5103  0.1344
  897MOL0     O18302   0.297   6.763   8.204  0.1922  0.4106 -0.5506
  897MOL0     C18303   0.436   6.758   8.212  0.8635 -0.6004  0.6468
  897MOL0     C18304   0.531   6.800   8.308  0.7453 -0.7087  0.1919
  897MOL0     C18305   0.666   6.766   8.302 -0.3091  0.0979 -0.6907
  897MOL0     C18306   0.720   6.709   8.185 -0.1524 -0.7211 -0.4353
  897MOL0     O18307   0.850   6.677   8.155  0.3066  0.1130  0.4204
  897MOL0     C18308   0.952   6.726   8.244  0.4206  0.2224 -1.0480
  897MOL0     C18309   0.964   6.637   8.368  0.1797 -0.3259 -0.5124
  897MOL0     C18310   1.026   6.711   8.496 -0.9819  0.2367 -0.2367
  897MOL0     C18311   1.183   6.730   8.479 -0.0951 -0.8457 -0.7468
  897MOL0     C18312   1.241   6.857   8.554  0.0923 -0.0709  0.4799
  897MOL0     C18313   1.379   6.886   8.516  0.5858 -1.1374 -1.4786
  897MOL0     C18314   1.428   7.013   8.590 -0.0364  0.3799 -0.2835
  897MOL0     C18315   1.585   7.032   8.590 -0.2982 -0.5816 -0.1829
  897MOL0    Cl18316   1.625   7.181   8.689  0.3196  0.1444  0.3393
  897MOL0     C18317   0.628   6.671   8.095 -0.4979  0.6538  0.4317
  897MOL0     C18318   0.491   6.687   8.107  0.3238  0.3289  0.7453
  897MOL0     O18319   0.258   6.841   8.416  0.6616 -0.3824 -0.1178
  897MOL0     C18320   0.032   6.837   8.144  0.2728  0.7296 -0.1667
  897MOL0     C18321  -0.099   6.871   8.109  0.2451  0.4628  0.3614
  897MOL0     N18322  -0.650   6.960   7.848  0.3473  0.7267  0.2597
  897MOL0     N18323  -0.608   6.910   7.733 -0.0223 -0.2519  0.3751
  897MOL0     C18324   0.244   6.213   7.637  0.3731 -0.9928  0.3212
  897MOL0     C18325   0.276   6.090   7.692 -0.0349 -0.1896 -0.7354
  897MOL0     C18326   0.368   5.647   7.776 -0.2537 -0.3296  0.2727
  897MOL0     C18327   0.493   5.585   7.829  0.5143 -0.0076 -0.5058
  897MOL0     C18328   0.494   5.442   7.846  0.3314 -0.3752 -0.3630
  897MOL0     C18329   0.367   5.378   7.852 -1.1206 -1.4420  0.7847
  897MOL0     O18330   0.384   5.242   7.870 -0.5744 -0.0818 -0.1558
  897MOL0     C18331   0.290   5.182   7.956  0.3342 -1.4413 -0.8428
  897MOL0     C18332   0.352   5.213   8.102  1.2860  1.0166 -0.2363
  897MOL0     C18333   0.248   5.157   8.208  0.3216 -1.1814  0.4655
  897MOL0     C18334   0.298   5.157   8.354 -0.3323 -0.3894  0.6043
  897MOL0     C18335   0.211   5.064   8.425 -0.4382  0.0990 -0.8606
  897MOL0     C18336   0.150   4.994   8.500 -1.0219 -0.7316 -0.1919
  897MOL0     C18337   0.245   5.445   7.814  0.1843  0.3307  0.8131
  897MOL0     C18338   0.254   5.576   7.778  0.3174  0.6536  0.8209
  897MOL0     H18339   0.185   5.896   7.434 -0.3270  1.8627 -1.1548
  897MOL0     H18340   0.150   6.111   7.327 -0.5220  3.8265  0.5828
  897MOL0     H18341   0.147   6.498   7.589  0.2069 -0.2832  0.3609
  897MOL0     H18342   0.003   6.416   7.536 -0.1934 -0.1012  2.5195
  897MOL0     H18343   0.030   6.506   7.320  3.1249 -1.8204 -0.8048
  897MOL0     H18344   0.187   6.581   7.362 -0.5284  1.9842 -1.4572
  897MOL0     H18345   0.034   6.739   7.358  2.6339 -1.6715 -0.3627
  897MOL0     H18346   0.082   6.725   7.523 -1.2486  4.0498 -1.3267
  897MOL0     H18347  -0.170   6.619   7.415  2.6967 -2.9171 -0.6256
  897MOL0     H18348  -0.117   6.571   7.570 -2.7429  0.2443 -0.5152
  897MOL0     H18349  -0.199   6.836   7.458  0.3787  2.7298  1.1911
  897MOL0     H18350  -0.092   6.853   7.585  0.8862 -0.4327  1.5667
  897MOL0     H18351  -0.299   6.830   7.721 -0.4420 -0.6173  0.0813
  897MOL0     H18352  -0.237   6.673   7.711  6.2557  1.1136 -2.2565
  897MOL0     H18353  -0.420   6.767   7.489 -0.6916  1.5823  0.5330
  897MOL0     H18354  -0.385   6.599   7.537  1.3474 -0.0400 -1.8279
  897MOL0     H18355  -0.502   6.588   7.736 -0.5742 -0.9222 -1.9009
  897MOL0     H18356  -0.621   6.649   7.626 -1.5609  1.1235  0.8947
  897MOL0     H18357  -0.513   6.693   7.971  0.9589  1.8885  1.4574
  897MOL0     H18358  -0.531   6.888   8.170  0.5476  3.4027  1.6436
  897MOL0     H18359  -0.703   6.887   8.122  0.1511 -2.6026 -0.4858
  897MOL0     H18360  -0.630   7.106   8.221  0.8732  1.1490  0.1975
  897MOL0     H18361  -0.672   7.120   8.050 -0.8396  1.3392  2.6055
  897MOL0     H18362  -0.432   7.135   7.990  4.4113 -0.0031  1.4090
  897MOL0     H18363  -0.476   7.261   8.101  2.7087  0.2050  0.3799
  897MOL0     H18364  -0.415   7.091   8.291 -1.3112 -0.4289 -1.5449
  897MOL0     H18365  -0.282   7.166   8.213 -0.7100  0.9392  1.9222
  897MOL0     H18366  -0.195   6.986   8.410 -0.1028  5.3240 -1.8810
  897MOL0     H18367   0.029   6.924   8.465  1.0066 -0.8313 -0.8699
  897MOL0     H18368   0.506   6.853   8.399 -0.3296 -0.9661  0.0534
  897MOL0     H18369   0.739   6.790   8.379 -0.6625 -0.6910 -0.0925
  897MOL0     H18370   0.932   6.830   8.272 -0.9829  0.3975 -2.5321
  897MOL0     H18371   1.050   6.727   8.195  2.3383  3.0531  2.3814
  897MOL0     H18372   1.027   6.550   8.345 -1.5350 -2.0994  1.0720
  897MOL0     H18373   0.867   6.597   8.399 -1.2794  1.6546 -2.2974
  897MOL0     H18374   1.011   6.642   8.579 -0.8587  0.8191  0.2784
  897MOL0     H18375   0.976   6.803   8.527  1.5488  1.6816 -0.1919
  897MOL0     H18376   1.240   6.646   8.519 -1.9489 -1.1305  1.5469
  897MOL0     H18377   1.197   6.733   8.371 -0.8188  0.7258 -0.8229
  897MOL0     H18378   1.239   6.839   8.662 -0.4986  0.5913  0.5825
  897MOL0     H18379   1.164   6.932   8.535 -1.7657 -1.8225  0.6631
  897MOL0     H18380   1.385   6.906   8.409  3.4437 -1.8699 -1.5362
  897MOL0     H18381   1.437   6.796   8.535  1.3990 -0.3517 -0.0176
  897MOL0     H18382   1.374   7.095   8.542  0.5986  1.5200  0.8962
  897MOL0     H18383   1.409   6.997   8.697 -2.3321 -5.4497 -1.2169
  897MOL0     H18384   1.631   7.037   8.491 -2.1741 -0.2345 -1.0964
  897MOL0     H18385   1.627   6.945   8.640 -1.3511  0.5644  3.0001
  897MOL0     H18386   0.673   6.631   8.005 -3.2326 -2.3168  0.1639
  897MOL0     H18387   0.424   6.653   8.028 -2.0690 -0.3285  2.9357
  897MOL0     H18388   0.075   6.780   8.062 -1.3656 -2.0053  0.7331
  897MOL0     H18389  -0.135   6.853   8.009  0.6754 -1.0030  0.4440
  897MOL0     H18390   0.254   6.296   7.707 -0.7848 -1.8434  1.5388
  897MOL0     H18391   0.317   6.078   7.791  3.2587 -2.1046 -2.1429
  897MOL0     H18392   0.590   5.633   7.835  1.3047 -1.4089 -1.4785
  897MOL0     H18393   0.581   5.380   7.867  0.1225  0.0245  2.0190
  897MOL0     H18394   0.270   5.077   7.937 -0.0100 -1.9260  1.8074
  897MOL0     H18395   0.194   5.233   7.952  1.4156  0.8617  0.3685
  897MOL0     H18396   0.447   5.160   8.113  2.6924  2.8919 -2.3968
  897MOL0     H18397   0.361   5.321   8.119  1.3714  0.6310  2.7347
  897MOL0     H18398   0.232   5.055   8.171 -1.0182 -0.6014 -0.6275
  897MOL0     H18399   0.153   5.211   8.204  1.9909  1.8800 -1.6978
  897MOL0     H18400   0.399   5.115   8.364  0.5968  1.1101 -1.7370
  897MOL0     H18401   0.300   5.260   8.392  2.4450 -0.2521  0.2762
  897MOL0     H18402   0.113   4.930   8.578  1.5828  0.7887  2.4961
  897MOL0     H18403   0.144   5.406   7.814 -1.0639  3.2762 -0.0418
  897MOL0     H18404   0.168   5.635   7.746 -0.1984 -0.4554  0.1226
  898MOL0     O18405   9.351   4.314   8.921 -0.1214 -0.3772 -0.1286
  898MOL0     C18406   9.422   4.277   9.012  0.2195  0.1286 -0.0867
  898MOL0     O18407   9.376   4.204   9.118  0.1921 -0.3891 -0.2228
  898MOL0     C18408   9.246   4.169   9.121  0.3640  0.7031 -0.1373
  898MOL0     C18409   9.182   4.088   9.026  0.1267  0.6136 -1.1555
  898MOL0     C18410   9.040   4.071   9.036  0.3607  0.2354 -0.9581
  898MOL0     C18411   8.967   4.124   9.133 -0.3561  0.2272 -0.8064
  898MOL0     O18412   8.829   4.128   9.139 -0.5074  0.4236  0.2077
  898MOL0     C18413   8.750   4.043   9.062  0.2815 -0.7060 -0.2682
  898MOL0     C18414   8.603   4.065   9.109  0.0320  0.6798  0.7966
  898MOL0     C18415   8.543   4.209   9.087  0.4896  0.1753  0.2514
  898MOL0     C18416   8.559   4.260   8.948  0.6059  0.5843 -0.6201
  898MOL0     C18417   8.452   4.361   8.885 -0.4402 -0.4428 -0.0715
  898MOL0     C18418   8.417   4.479   8.971  0.3735  0.5713 -0.8338
  898MOL0     C18419   8.352   4.578   8.896 -0.8074 -0.4103  1.2878
  898MOL0     C18420   8.304   4.696   8.982 -0.0595  0.3943 -0.1313
  898MOL0     N18421   8.421   4.780   9.028 -0.7153  0.2488  0.6573
  898MOL0     C18422   8.503   4.858   8.949 -0.0298  0.0273  0.5643
  898MOL0     C18423   8.593   4.899   9.038 -0.3859  0.6093  0.8939
  898MOL0     C18424   8.704   5.001   9.006 -0.1199  1.5064  1.5436
  898MOL0     C18425   8.659   5.143   9.025  0.1343  0.4716 -0.2273
  898MOL0     C18426   8.589   5.203   8.915  0.0735 -0.4675  0.6647
  898MOL0     C18427   8.616   5.348   8.893 -1.3621 -0.1991 -0.9201
  898MOL0     O18428   8.574   5.410   9.013  0.0849  0.1751  0.0549
  898MOL0     C18429   8.446   5.446   9.037 -1.0139  0.6356 -0.6365
  898MOL0     C18430   8.344   5.411   8.951  0.1451 -0.0148 -0.6702
  898MOL0     C18431   8.216   5.445   8.995 -0.0022  0.2628  0.3382
  898MOL0     C18432   8.187   5.526   9.115  0.4199  0.2005  0.2885
  898MOL0     C18433   8.052   5.570   9.136 -0.4908  0.2151 -0.3477
  898MOL0     O18434   7.978   5.620   9.029 -0.4737  0.1132 -0.2717
  898MOL0     C18435   7.875   5.697   9.052  0.1069 -0.8723 -1.3770
  898MOL0     C18436   7.743   5.653   9.043  0.6323  0.4585 -0.5639
  898MOL0     C18437   7.640   5.740   9.089  0.0821 -0.1597  0.1574
  898MOL0     C18438   7.666   5.859   9.144  0.0575 -0.9482 -0.8533
  898MOL0     O18439   7.554   5.925   9.178 -0.1179  0.6252 -0.5442
  898MOL0     C18440   7.558   6.066   9.185 -0.3859 -0.6736 -0.3335
  898MOL0     C18441   7.417   6.121   9.212  0.0508  1.1398  0.5310
  898MOL0     C18442   7.323   6.078   9.094  0.9401  0.2401  0.8463
  898MOL0     C18443   7.175   6.115   9.122  0.1351 -1.8966 -0.4991
  898MOL0     C18444   7.086   6.066   9.004 -0.0191 -1.0202 -0.1753
  898MOL0     C18445   6.943   6.089   9.055 -0.7905  0.4204 -0.2094
  898MOL0     C18446   6.855   6.065   8.938 -0.5034 -0.0669  1.0022
  898MOL0     C18447   6.708   6.101   8.970  0.3774 -0.1290  0.4428
  898MOL0    Cl18448   6.669   6.270   9.006  0.0472  0.3436 -0.1261
  898MOL0     C18449   7.799   5.897   9.163  0.2497  1.3050  0.4772
  898MOL0     C18450   7.903   5.822   9.105  0.4771 -0.0852  0.8123
  898MOL0     O18451   8.011   5.567   9.253 -0.8346 -0.1101 -0.3856
  898MOL0     C18452   8.298   5.544   9.201 -0.5528  0.7345 -0.5919
  898MOL0     C18453   8.424   5.504   9.163  0.5001  0.2481 -0.4617
  898MOL0     N18454   8.566   4.851   9.164  0.3217 -0.4609 -0.2236
  898MOL0     N18455   8.467   4.769   9.156 -0.6005 -0.3565  0.6863
  898MOL0     C18456   9.040   4.185   9.235  0.0598 -0.7930 -0.1419
  898MOL0     C18457   9.178   4.220   9.232 -0.2715  0.3522 -0.5627
  898MOL0     C18458   9.569   4.304   9.018  0.2805 -0.8151 -0.4297
  898MOL0     C18459   9.635   4.299   9.144  0.0400  0.6170  0.3552
  898MOL0     C18460   9.776   4.324   9.150 -0.1789  0.0418  0.2036
  898MOL0     C18461   9.846   4.358   9.036  0.7522 -0.3926  0.4702
  898MOL0     O18462   9.977   4.375   9.044  0.1615 -0.0003  0.2466
  898MOL0     C18463  10.053   4.279   8.959  0.9329 -0.5166 -0.0186
  898MOL0     C18464  10.198   4.319   8.961 -0.0846 -0.1239 -0.4978
  898MOL0     C18465  10.259   4.333   9.111  0.9484  0.5852  0.4537
  898MOL0     C18466  10.407   4.373   9.107  0.3679  1.0058  0.4480
  898MOL0     C18467  10.489   4.257   9.065  0.1294  0.0854 -0.0464
  898MOL0     C18468  10.558   4.162   9.034  0.5664 -0.3553 -0.0187
  898MOL0     C18469   9.775   4.357   8.912 -0.2792 -1.0032 -0.7208
  898MOL0     C18470   9.633   4.337   8.902 -0.9048  0.4373  0.3285
  898MOL0     H18471   9.224   4.056   8.931  0.4595  0.1761 -0.8653
  898MOL0     H18472   8.993   4.021   8.952  1.3539 -0.9430 -0.8403
  898MOL0     H18473   8.771   3.938   9.082  1.0603 -0.5758 -0.3680
  898MOL0     H18474   8.766   4.081   8.960 -1.4208  1.9926  0.3640
  898MOL0     H18475   8.600   4.032   9.213 -2.7051 -1.3222  0.1835
  898MOL0     H18476   8.545   3.986   9.061 -1.0007  1.6746  0.3493
  898MOL0     H18477   8.561   4.283   9.165 -3.9126  1.7160  0.1142
  898MOL0     H18478   8.435   4.193   9.100  0.5625 -4.5300 -2.6860
  898MOL0     H18479   8.652   4.318   8.950  0.8188  0.2447  1.6059
  898MOL0     H18480   8.575   4.179   8.878  1.0618  2.1679 -2.4349
  898MOL0     H18481   8.367   4.294   8.872  1.0121 -2.0524 -1.9841
  898MOL0     H18482   8.481   4.384   8.782 -0.9879  0.0870 -0.1128
  898MOL0     H18483   8.502   4.523   9.024 -0.6451 -0.5651  1.9203
  898MOL0     H18484   8.359   4.430   9.049  0.8662  0.8049 -0.3090
  898MOL0     H18485   8.419   4.612   8.817 -0.7529  2.2331  2.3486
  898MOL0     H18486   8.264   4.545   8.841  0.4041  1.6447 -2.1521
  898MOL0     H18487   8.235   4.677   9.065 -1.1029  4.0279  0.0120
  898MOL0     H18488   8.245   4.762   8.918 -2.9180 -1.7187  0.1380
  898MOL0     H18489   8.504   4.879   8.842  2.3485 -1.1729  0.2868
  898MOL0     H18490   8.736   4.974   8.905 -4.1406 -0.4378  0.5912
  898MOL0     H18491   8.792   4.969   9.063  1.3920  2.4227 -0.1463
  898MOL0     H18492   8.746   5.195   9.065 -0.7635  1.0955  0.9492
  898MOL0     H18493   8.593   5.144   9.111 -2.3491  1.5550 -2.0261
  898MOL0     H18494   8.629   5.148   8.829 -0.0994 -0.6514  0.7018
  898MOL0     H18495   8.481   5.187   8.919 -0.9250  3.7453 -2.5413
  898MOL0     H18496   8.565   5.382   8.802 -1.1897 -2.4319 -1.9255
  898MOL0     H18497   8.723   5.369   8.884 -1.1881  0.1492  1.2830
  898MOL0     H18498   8.347   5.354   8.859  0.5143 -0.1072 -0.6039
  898MOL0     H18499   8.130   5.410   8.938 -2.2569  3.4395  1.4765
  898MOL0     H18500   7.725   5.548   9.019 -2.1075  1.1914 -2.1909
  898MOL0     H18501   7.548   5.686   9.105 -0.3962  1.3026  2.8434
  898MOL0     H18502   7.602   6.109   9.094 -0.2352 -0.9117 -0.3758
  898MOL0     H18503   7.629   6.101   9.261  4.9610 -1.7922 -4.1623
  898MOL0     H18504   7.417   6.230   9.226 -0.2221  1.1158  0.7129
  898MOL0     H18505   7.384   6.072   9.304  1.7904 -1.2016 -0.0168
  898MOL0     H18506   7.336   5.972   9.070  2.0836  0.3995  0.7082
  898MOL0     H18507   7.354   6.126   9.000 -1.1912  0.0429 -0.0137
  898MOL0     H18508   7.155   6.070   9.220 -0.2319 -1.4984 -0.3863
  898MOL0     H18509   7.165   6.224   9.130 -0.0412 -1.9998  0.8587
  898MOL0     H18510   7.099   5.959   8.986  1.3200 -1.2843  2.0095
  898MOL0     H18511   7.118   6.110   8.910  3.3972  0.4406  1.5036
  898MOL0     H18512   6.934   6.186   9.105  0.8017  0.3772  0.2182
  898MOL0     H18513   6.935   6.012   9.132  1.0200 -0.5071 -0.8731
  898MOL0     H18514   6.894   6.117   8.850  0.7136 -0.5142  1.2529
  898MOL0     H18515   6.855   5.963   8.896 -2.0989  0.2910  0.0472
  898MOL0     H18516   6.687   6.042   9.060  2.0413  0.6551  1.3900
  898MOL0     H18517   6.639   6.063   8.894  1.2799  0.5681 -0.7524
  898MOL0     H18518   7.829   5.983   9.222  3.7705  1.0010 -0.6355
  898MOL0     H18519   8.003   5.859   9.087 -0.6675  3.0978  0.3066
  898MOL0     H18520   8.282   5.603   9.291  4.6387  0.9456  0.4682
  898MOL0     H18521   8.506   5.531   9.230  1.2583 -1.3499 -0.6992
  898MOL0     H18522   8.977   4.198   9.322 -0.6897  1.4156 -0.9426
  898MOL0     H18523   9.229   4.270   9.314  1.4531 -1.0176 -0.7443
  898MOL0     H18524   9.571   4.281   9.230 -2.2941 -1.7810 -1.7179
  898MOL0     H18525   9.821   4.355   9.243 -1.6500  0.7997  0.7059
  898MOL0     H18526  10.020   4.269   8.855 -0.5939 -3.1358  0.6087
  898MOL0     H18527  10.033   4.179   8.999 -1.1265  0.7935  2.4630
  898MOL0     H18528  10.247   4.233   8.915 -2.7123 -0.6507 -2.6259
  898MOL0     H18529  10.213   4.412   8.905 -1.0137  2.1604  2.7372
  898MOL0     H18530  10.240   4.232   9.148 -1.2434  0.0325 -1.8947
  898MOL0     H18531  10.200   4.405   9.169 -1.9938 -0.7374 -0.7167
  898MOL0     H18532  10.430   4.459   9.042  4.5744  0.5962  1.1550
  898MOL0     H18533  10.448   4.405   9.203  2.1301 -0.6618  0.3068
  898MOL0     H18534  10.625   4.080   9.019  0.2498 -1.1371  2.4651
  898MOL0     H18535   9.828   4.389   8.822 -2.2877 -0.4437 -1.7605
  898MOL0     H18536   9.584   4.338   8.805 -0.9733  1.0607  0.3695
  899MOL0     O18537   8.576  11.181   9.063 -0.6240 -0.7888  0.3435
  899MOL0     C18538   8.500  11.132   8.977 -0.2639  0.2742 -0.0764
  899MOL0     O18539   8.395  11.049   9.009  0.2367  0.3267 -0.3373
  899MOL0     C18540   8.362  11.023   9.145 -0.2179  0.0856  0.3371
  899MOL0     C18541   8.223  11.007   9.179  0.5888  0.0816  0.8899
  899MOL0     C18542   8.183  10.964   9.309 -0.3041  0.3589 -0.1730
  899MOL0     C18543   8.279  10.915   9.400 -0.8321 -0.9219  0.3547
  899MOL0     O18544   8.249  10.881   9.526 -0.3189  0.2664 -0.5835
  899MOL0     C18545   8.248  10.979   9.629  0.7328  0.0494 -0.5259
  899MOL0     C18546   8.151  10.947   9.751 -0.6496 -0.5826 -0.0691
  899MOL0     C18547   8.189  10.810   9.814 -0.3576 -1.1231  0.1624
  899MOL0     C18548   8.123  10.788   9.946 -0.3191  0.4770 -0.7254
  899MOL0     C18549   8.190  10.693  10.048 -0.4022 -0.2216 -1.3496
  899MOL0     C18550   8.135  10.551  10.062 -0.2578  0.9649  0.4423
  899MOL0     C18551   8.230  10.468  10.152  0.0886 -0.2448 -0.4046
  899MOL0     C18552   8.214  10.513  10.298  0.1755  1.1026 -0.4278
  899MOL0     N18553   8.282  10.426  10.387 -0.3080  0.1500 -0.0874
  899MOL0     C18554   8.412  10.370  10.374 -0.0501  0.1677 -0.9107
  899MOL0     C18555   8.429  10.303  10.500  0.8286 -0.3772  0.6348
  899MOL0     C18556   8.556  10.241  10.552 -0.1588  0.6448  0.5738
  899MOL0     C18557   8.636  10.332  10.650  0.6062 -0.2822  0.6772
  899MOL0     C18558   8.709  10.268  10.762  0.3047 -0.0093 -0.8695
  899MOL0     C18559   8.619  10.202  10.864 -0.4659  0.1504  0.6281
  899MOL0     O18560   8.659  10.081  10.922 -0.3835  0.0149 -0.0173
  899MOL0     C18561   8.614  10.061  11.047 -0.2714 -0.5721 -0.7407
  899MOL0     C18562   8.652  10.141  11.153  0.1357 -0.1947 -0.4094
  899MOL0     C18563   8.611  10.105  11.284  0.2170 -0.3317 -0.2749
  899MOL0     C18564   8.525   9.996  11.306 -0.6067 -0.5358 -0.0150
  899MOL0     C18565   8.475   9.954  11.436  0.0194 -0.6107  1.1221
  899MOL0     O18566   8.548  10.009  11.544  0.0705  0.4698 -0.1069
  899MOL0     C18567   8.496   9.997  11.672  0.0407 -0.4765 -0.4270
  899MOL0     C18568   8.517   9.878  11.742 -0.1763 -0.1145 -0.7113
  899MOL0     C18569   8.470   9.854  11.869 -0.7445  0.1726 -0.8483
  899MOL0     C18570   8.388   9.948  11.933  0.0586 -0.1197 -0.7005
  899MOL0     O18571   8.351   9.944  12.063 -0.0814  0.2460  0.2599
  899MOL0     C18572   8.263   9.835  12.105  1.0210 -0.9966 -0.3490
  899MOL0     C18573   8.282   9.784  12.244  0.4531 -0.0075  0.9961
  899MOL0     C18574   8.190   9.660  12.255 -0.0049  0.2344  1.2358
  899MOL0     C18575   8.221   9.576  12.374  0.2234  1.0314  0.0148
  899MOL0     C18576   8.114   9.474  12.416 -0.5784 -0.3134  0.9511
  899MOL0     C18577   7.983   9.537  12.470 -0.1949  0.1032 -0.0125
  899MOL0     C18578   7.894   9.412  12.515 -0.0450  1.1140 -0.1517
  899MOL0     C18579   7.770   9.456  12.587 -0.2435 -0.2685  0.6662
  899MOL0    Cl18580   7.683   9.329  12.691 -0.0436  0.0107 -0.1460
  899MOL0     C18581   8.378  10.072  11.870  0.2794  0.0435 -1.2098
  899MOL0     C18582   8.422  10.098  11.743 -0.4025 -0.6754  0.5196
  899MOL0     O18583   8.396   9.867  11.447 -0.4042 -0.6784  0.2179
  899MOL0     C18584   8.477   9.926  11.193  0.0045  0.5307 -0.0995
  899MOL0     C18585   8.525   9.962  11.067 -0.5716 -0.1933 -0.1923
  899MOL0     N18586   8.315  10.322  10.575 -0.0223  0.2766 -0.6963
  899MOL0     N18587   8.237  10.398  10.511 -0.6695  0.0443  0.1115
  899MOL0     C18588   8.412  10.933   9.367 -0.7932 -0.5349  0.8819
  899MOL0     C18589   8.456  10.985   9.247  1.2769  0.2451  0.6969
  899MOL0     C18590   8.541  11.140   8.836 -0.7485  0.0364 -0.3011
  899MOL0     C18591   8.639  11.237   8.797  0.0857  0.4825  0.2357
  899MOL0     C18592   8.678  11.254   8.665  0.8987 -0.5172  0.0359
  899MOL0     C18593   8.612  11.185   8.567 -0.5695 -0.2037 -0.5960
  899MOL0     O18594   8.654  11.207   8.439 -0.7386  0.4265  0.2425
  899MOL0     C18595   8.556  11.214   8.331 -0.5669 -0.2698 -0.0482
  899MOL0     C18596   8.548  11.353   8.285 -0.2076 -0.4084 -0.3778
  899MOL0     C18597   8.484  11.451   8.391 -0.3836 -1.3029 -0.5787
  899MOL0     C18598   8.494  11.596   8.338 -0.3301  0.3866 -1.1011
  899MOL0     C18599   8.392  11.626   8.245  0.3929  0.5164  0.6547
  899MOL0     C18600   8.308  11.661   8.170 -0.3592  0.5641  0.2207
  899MOL0     C18601   8.518  11.087   8.598 -0.2687 -0.1242  1.4157
  899MOL0     C18602   8.480  11.072   8.728 -0.4727 -0.4774 -0.2976
  899MOL0     H18603   8.151  11.035   9.103  2.2640  2.0389 -0.0736
  899MOL0     H18604   8.083  10.949   9.348  0.2732  1.7809  2.0734
  899MOL0     H18605   8.210  11.076   9.596 -1.5711 -0.6479 -0.0995
  899MOL0     H18606   8.345  10.999   9.676  1.8002 -0.0909 -2.5678
  899MOL0     H18607   8.049  10.953   9.711 -0.5069  1.1056 -0.2815
  899MOL0     H18608   8.151  11.025   9.827  0.9918  1.8679 -2.3869
  899MOL0     H18609   8.298  10.811   9.821 -0.2209  1.7734 -1.0127
  899MOL0     H18610   8.178  10.730   9.740  2.8069 -0.4310 -1.2250
  899MOL0     H18611   8.125  10.882  10.003 -1.8813  0.0130  0.1437
  899MOL0     H18612   8.019  10.758   9.931 -0.1794 -0.0892 -0.5793
  899MOL0     H18613   8.178  10.727  10.152  1.3642 -2.0591 -0.4975
  899MOL0     H18614   8.295  10.694  10.021 -0.0262  1.6000 -0.0464
  899MOL0     H18615   8.134  10.494   9.969 -3.1546  2.0480 -0.2968
  899MOL0     H18616   8.031  10.555  10.095 -0.7747 -0.4385 -0.8989
  899MOL0     H18617   8.203  10.362  10.153  0.5203 -0.3956  1.7976
  899MOL0     H18618   8.335  10.469  10.121 -0.8623  0.8219 -3.9905
  899MOL0     H18619   8.110  10.495  10.328  0.4656 -1.0811 -0.5124
  899MOL0     H18620   8.249  10.614  10.320  1.1580  1.4156 -3.0703
  899MOL0     H18621   8.498  10.388  10.311  2.2689  0.0016  1.9943
  899MOL0     H18622   8.623  10.210  10.471 -1.9717 -0.6670 -0.4885
  899MOL0     H18623   8.524  10.154  10.611  2.3719  1.0901  2.7962
  899MOL0     H18624   8.567  10.402  10.698  0.7595 -0.8374  1.7354
  899MOL0     H18625   8.709  10.391  10.594  0.2689 -1.4336 -1.0679
  899MOL0     H18626   8.778  10.195  10.720 -1.6423 -0.6163 -3.2518
  899MOL0     H18627   8.766  10.343  10.817 -1.6805  0.6642  0.3749
  899MOL0     H18628   8.521  10.172  10.825  0.6450 -1.1371 -1.3565
  899MOL0     H18629   8.591  10.278  10.938 -3.0054  1.0352 -1.0794
  899MOL0     H18630   8.722  10.222  11.133  2.1307 -1.8036 -0.3741
  899MOL0     H18631   8.643  10.170  11.365 -2.3657 -1.0234  1.4121
  899MOL0     H18632   8.577   9.809  11.682 -3.3014 -2.0744 -1.8546
  899MOL0     H18633   8.501   9.770  11.930  0.4367  0.2144 -1.3594
  899MOL0     H18634   8.291   9.754  12.036 -0.4111 -1.4592 -0.4226
  899MOL0     H18635   8.162   9.870  12.083  1.3731 -1.1562 -2.4920
  899MOL0     H18636   8.264   9.859  12.322  0.3089  1.1090 -0.0734
  899MOL0     H18637   8.386   9.756  12.263  0.3434 -0.5256  0.8416
  899MOL0     H18638   8.200   9.588  12.173  0.2814 -0.9792  2.2974
  899MOL0     H18639   8.082   9.680  12.260 -0.0513 -0.1298  1.7868
  899MOL0     H18640   8.315   9.529  12.345 -0.1742  0.8625 -1.0245
  899MOL0     H18641   8.242   9.640  12.461 -1.5965  0.7737  0.6866
  899MOL0     H18642   8.165   9.414  12.492 -0.6612 -3.0239 -0.9810
  899MOL0     H18643   8.098   9.411  12.328  1.6251 -1.1576  1.0786
  899MOL0     H18644   7.926   9.587  12.391  1.0949  2.4667  0.4509
  899MOL0     H18645   8.005   9.594  12.561  0.3961  0.4653 -0.3766
  899MOL0     H18646   7.865   9.360  12.423  5.3225  1.6642 -2.5221
  899MOL0     H18647   7.948   9.343  12.580 -0.9023  2.1161  1.7104
  899MOL0     H18648   7.696   9.499  12.518  1.4784 -0.3537 -1.3485
  899MOL0     H18649   7.805   9.523  12.667  0.1409  2.3550 -1.5369
  899MOL0     H18650   8.321  10.146  11.926 -0.7959 -0.9476 -0.9641
  899MOL0     H18651   8.400  10.185  11.682  0.6751  0.2747  1.4489
  899MOL0     H18652   8.412   9.840  11.206  1.0522  0.0575  2.8368
  899MOL0     H18653   8.506   9.902  10.978 -1.9723  2.9370 -2.1863
  899MOL0     H18654   8.478  10.918   9.451 -2.1710  2.2249  2.6103
  899MOL0     H18655   8.559  10.979   9.213  1.0909  5.5589 -1.7919
  899MOL0     H18656   8.686  11.291   8.879 -1.8284  1.6499  0.6428
  899MOL0     H18657   8.741  11.337   8.636  1.6123  1.1216  5.2367
  899MOL0     H18658   8.465  11.168   8.369  0.7242 -2.1250  0.9567
  899MOL0     H18659   8.584  11.146   8.250  1.0916  1.3207 -0.9110
  899MOL0     H18660   8.651  11.386   8.266  0.2478 -3.1640 -3.6857
  899MOL0     H18661   8.490  11.361   8.193 -1.2282  0.5748  0.3240
  899MOL0     H18662   8.538  11.453   8.486  0.4232  1.1589 -1.0307
  899MOL0     H18663   8.378  11.430   8.404 -1.1868  0.6835 -3.0968
  899MOL0     H18664   8.479  11.669   8.417 -2.2645 -1.7318  0.6194
  899MOL0     H18665   8.593  11.607   8.293 -1.3640  3.8879 -2.8812
  899MOL0     H18666   8.236  11.684   8.093 -2.0700 -0.1978  1.5096
  899MOL0     H18667   8.478  11.024   8.519 -0.6804  1.6612  0.1310
  899MOL0     H18668   8.403  11.002   8.758 -1.9162 -0.0942 -2.7899
  900MOL0     O18669   9.512   4.890   1.418 -0.5202  0.3927  0.2334
  900MOL0     C18670   9.457   4.957   1.330  0.9504 -0.4932 -0.2697
  900MOL0     O18671   9.524   5.032   1.233  0.1530  0.7558 -0.3218
  900MOL0     C18672   9.653   5.063   1.229  0.0138 -0.7277  0.8226
  900MOL0     C18673   9.705   5.127   1.337 -0.5627  0.2042 -0.2622
  900MOL0     C18674   9.839   5.171   1.340  0.0710 -0.0371  0.6156
  900MOL0     C18675   9.923   5.129   1.235 -0.2719 -0.7665  0.1833
  900MOL0     O18676  10.057   5.143   1.240 -0.0247 -0.6305  0.6017
  900MOL0     C18677  10.108   5.281   1.252  0.1719 -0.5103  0.4217
  900MOL0     C18678  10.216   5.268   1.357 -0.8349  0.8941 -0.5274
  900MOL0     C18679  10.328   5.167   1.309  1.6138 -0.8797  1.0615
  900MOL0     C18680  10.446   5.167   1.398  0.2441 -0.3688 -0.1612
  900MOL0     C18681  10.571   5.084   1.357 -0.5253 -0.0206  0.0675
  900MOL0     C18682  10.637   5.124   1.227 -0.8302  0.5709  1.2445
  900MOL0     C18683  10.785   5.102   1.235  0.7396  1.3012 -1.6853
  900MOL0     C18684  10.870   5.186   1.131 -1.7730 -1.3250 -1.0236
  900MOL0     N18685  10.842   5.152   0.988 -0.1788 -0.2910  0.4399
  900MOL0     C18686  10.737   5.185   0.914 -0.1431 -0.2270  0.2779
  900MOL0     C18687  10.735   5.103   0.806 -0.0824  0.2554 -0.4663
  900MOL0     C18688  10.634   5.096   0.703 -0.2060 -0.4576  0.2421
  900MOL0     C18689  10.494   5.112   0.756 -0.4530 -0.0714 -0.1043
  900MOL0     C18690  10.410   5.160   0.646  0.6757  0.4058  0.6672
  900MOL0     C18691  10.259   5.173   0.671 -0.9497 -0.4027 -0.8394
  900MOL0     O18692  10.225   5.289   0.755 -0.2635  0.4410  0.0914
  900MOL0     C18693  10.089   5.303   0.793 -0.3541  0.1162 -1.0412
  900MOL0     C18694  10.053   5.410   0.878  0.4464  0.4296 -0.4663
  900MOL0     C18695   9.921   5.429   0.919  0.8635 -0.1227 -0.4578
  900MOL0     C18696   9.815   5.342   0.867 -0.4889 -0.5446  0.2850
  900MOL0     C18697   9.677   5.358   0.907 -0.7745 -0.0499 -0.0156
  900MOL0     O18698   9.601   5.246   0.919 -0.0651 -0.6854  0.2021
  900MOL0     C18699   9.461   5.260   0.924 -0.5288  0.9040  0.2165
  900MOL0     C18700   9.392   5.252   0.804 -0.1835 -0.4039 -0.6234
  900MOL0     C18701   9.257   5.275   0.795 -0.1176 -0.4568 -0.1949
  900MOL0     C18702   9.181   5.319   0.903  0.5928  0.6370 -0.0554
  900MOL0     O18703   9.049   5.356   0.880  0.3834  0.0596 -0.2617
  900MOL0     C18704   8.947   5.306   0.966 -0.2614 -0.7613 -0.0142
  900MOL0     C18705   8.823   5.394   0.969  0.5248  0.3431 -0.5935
  900MOL0     C18706   8.684   5.337   1.024  0.1936 -0.1762 -0.1843
  900MOL0     C18707   8.679   5.311   1.177 -0.4789 -0.4407 -0.0961
  900MOL0     C18708   8.731   5.420   1.273  0.0346 -0.6593  0.1069
  900MOL0     C18709   8.656   5.551   1.251  1.1770  0.0597 -0.2467
  900MOL0     C18710   8.631   5.621   1.393 -0.1869 -0.5135  0.5621
  900MOL0     C18711   8.501   5.591   1.472 -1.1426  1.3834  0.2372
  900MOL0    Cl18712   8.518   5.433   1.541 -0.0329  0.0845 -0.0445
  900MOL0     C18713   9.248   5.323   1.030  0.1227 -0.4998  0.1650
  900MOL0     C18714   9.383   5.293   1.036 -0.9433 -0.5152 -0.0315
  900MOL0     O18715   9.635   5.476   0.914 -0.5128  0.3710  0.8193
  900MOL0     C18716   9.867   5.230   0.792 -0.0658 -0.4906  0.2020
  900MOL0     C18717  10.001   5.211   0.757 -0.4059  0.0840  0.6132
  900MOL0     N18718  10.851   5.024   0.802 -0.0553  0.8205 -0.3492
  900MOL0     N18719  10.905   5.052   0.920 -0.1260  0.5812 -0.5005
  900MOL0     C18720   9.867   5.065   1.125 -0.1972 -1.5132 -0.4832
  900MOL0     C18721   9.731   5.022   1.119  0.7429 -0.4933  0.1135
  900MOL0     C18722   9.309   4.963   1.320 -0.4649  1.0942 -0.5261
  900MOL0     C18723   9.230   4.923   1.423 -0.6575  0.4358  0.1118
  900MOL0     C18724   9.095   4.929   1.416  0.4488  0.5555  0.2479
  900MOL0     C18725   9.031   5.008   1.321  0.1812 -0.3535 -0.8755
  900MOL0     O18726   8.893   5.026   1.301 -0.2552 -0.2552  0.1200
  900MOL0     C18727   8.794   4.987   1.397 -0.3060  0.2326 -0.1633
  900MOL0     C18728   8.777   5.095   1.495 -0.0012 -0.2280  0.5564
  900MOL0     C18729   8.655   5.091   1.576  0.3170  0.0266  0.2008
  900MOL0     C18730   8.627   4.953   1.647 -0.7505  0.8096  0.3265
  900MOL0     C18731   8.747   4.918   1.725 -0.7181 -0.0932  0.3804
  900MOL0     C18732   8.840   4.891   1.789  0.0397  0.4322 -1.1083
  900MOL0     C18733   9.112   5.051   1.212 -0.3027  0.1197 -0.4959
  900MOL0     C18734   9.251   5.030   1.212  0.7719  0.7745 -0.6355
  900MOL0     H18735   9.644   5.152   1.424  0.6410 -0.5515  0.8379
  900MOL0     H18736   9.877   5.215   1.431 -1.6456  0.9032  0.9165
  900MOL0     H18737  10.031   5.355   1.274 -1.8399 -1.5167 -2.6410
  900MOL0     H18738  10.153   5.322   1.161  1.9006  0.6148  1.7119
  900MOL0     H18739  10.176   5.231   1.452  0.4966  4.1333  1.4644
  900MOL0     H18740  10.263   5.365   1.376  0.7618 -0.3191  2.3829
  900MOL0     H18741  10.351   5.198   1.207  0.2001  1.0722  1.2901
  900MOL0     H18742  10.287   5.067   1.291  0.2814 -0.2671  0.5550
  900MOL0     H18743  10.480   5.271   1.403 -0.9683  0.1116 -1.2977
  900MOL0     H18744  10.406   5.127   1.491 -0.0824  1.3974  0.5004
  900MOL0     H18745  10.533   4.982   1.350 -1.5456  0.4726 -3.7374
  900MOL0     H18746  10.644   5.087   1.439 -0.7791  1.5818  0.2543
  900MOL0     H18747  10.612   5.227   1.201 -1.9692 -0.5322 -2.5564
  900MOL0     H18748  10.605   5.060   1.145 -0.8013  2.3552 -0.2267
  900MOL0     H18749  10.815   5.132   1.336 -2.3403  0.9312 -0.5547
  900MOL0     H18750  10.797   4.993   1.227 -0.8200  0.6454  2.4375
  900MOL0     H18751  10.978   5.181   1.149 -2.0164  0.7209  1.5286
  900MOL0     H18752  10.840   5.290   1.146  0.3384 -1.0152  1.9127
  900MOL0     H18753  10.663   5.257   0.947  0.3483  1.4929 -2.0696
  900MOL0     H18754  10.639   4.999   0.652  0.3030 -0.1917 -0.2237
  900MOL0     H18755  10.660   5.170   0.627  1.7746  1.0289  2.2434
  900MOL0     H18756  10.482   5.195   0.826 -1.8478 -0.4193  0.0790
  900MOL0     H18757  10.454   5.017   0.791 -1.1771 -0.5695 -2.1290
  900MOL0     H18758  10.440   5.261   0.616 -2.8029  0.6687 -2.7750
  900MOL0     H18759  10.412   5.093   0.559  2.4650  1.3870 -0.0912
  900MOL0     H18760  10.219   5.077   0.707 -0.4697 -0.2496  0.1340
  900MOL0     H18761  10.224   5.183   0.568  0.1330  4.0493 -0.9536
  900MOL0     H18762  10.121   5.482   0.923  0.4907 -0.3138  0.6825
  900MOL0     H18763   9.903   5.517   0.980  3.4503 -0.6952  1.2951
  900MOL0     H18764   9.453   5.233   0.717  0.7406 -3.4849  0.5721
  900MOL0     H18765   9.212   5.262   0.697  2.0597 -1.1434 -1.1595
  900MOL0     H18766   8.991   5.306   1.066  1.7004 -0.8218 -0.8388
  900MOL0     H18767   8.926   5.201   0.944 -0.1464 -0.3662 -2.2952
  900MOL0     H18768   8.807   5.426   0.866  2.9189  2.6138 -0.3462
  900MOL0     H18769   8.845   5.496   1.003 -3.6236  1.0036  0.6243
  900MOL0     H18770   8.658   5.252   0.961  1.8760 -0.2495 -0.8453
  900MOL0     H18771   8.604   5.410   1.006  0.9492  0.4063 -1.3366
  900MOL0     H18772   8.580   5.279   1.213  0.0103  0.6692  2.5035
  900MOL0     H18773   8.741   5.222   1.191  0.0961 -0.0512 -0.1257
  900MOL0     H18774   8.839   5.435   1.264  0.3873 -3.7531 -2.7958
  900MOL0     H18775   8.711   5.389   1.375 -2.4155  0.6893  0.1248
  900MOL0     H18776   8.557   5.542   1.206  0.4471  0.3157  1.2435
  900MOL0     H18777   8.714   5.606   1.177  0.5595 -1.7917 -2.1817
  900MOL0     H18778   8.719   5.599   1.454  1.9722 -1.8896 -2.7668
  900MOL0     H18779   8.634   5.729   1.371  1.8799 -0.8089 -0.8792
  900MOL0     H18780   8.408   5.579   1.415 -0.5439  0.3530 -0.5697
  900MOL0     H18781   8.482   5.664   1.551  1.0597  2.4758 -0.1617
  900MOL0     H18782   9.199   5.351   1.123  0.8235 -3.8011  1.6843
  900MOL0     H18783   9.435   5.320   1.128 -1.5096 -0.5721  0.3148
  900MOL0     H18784   9.796   5.157   0.757  1.2103 -2.3404  1.2916
  900MOL0     H18785  10.028   5.130   0.689  3.1378  1.4395  0.2203
  900MOL0     H18786   9.923   5.040   1.036 -1.5319 -0.4017 -1.6801
  900MOL0     H18787   9.688   4.972   1.033 -3.1122  4.1155 -1.0805
  900MOL0     H18788   9.280   4.870   1.503  0.3461  0.4609 -0.4877
  900MOL0     H18789   9.030   4.889   1.493  0.3747 -0.8526 -0.5127
  900MOL0     H18790   8.822   4.903   1.461 -0.9799 -0.2903 -0.5468
  900MOL0     H18791   8.698   4.964   1.350  1.1197 -1.9640 -2.2422
  900MOL0     H18792   8.866   5.106   1.558  0.6628  0.5829 -0.5008
  900MOL0     H18793   8.761   5.193   1.450 -3.2644 -1.1339 -0.5754
  900MOL0     H18794   8.577   5.096   1.500  3.1104 -0.5819 -2.9400
  900MOL0     H18795   8.656   5.177   1.644  1.5903  1.7951 -1.9194
  900MOL0     H18796   8.539   4.969   1.711 -0.5170 -0.2362  0.9289
  900MOL0     H18797   8.615   4.869   1.579  3.1697 -0.7757  1.2957
  900MOL0     H18798   8.918   4.847   1.847 -2.4354 -0.3852  1.9309
  900MOL0     H18799   9.047   5.088   1.133 -2.1591  1.5610  1.5739
  900MOL0     H18800   9.300   5.055   1.118 -0.3846  1.3998 -1.1034
  901MOL0     O18801   3.998   6.842   6.648 -0.3270  0.0163  0.2132
  901MOL0     C18802   4.036   6.894   6.760  0.5701  0.2611 -0.2388
  901MOL0     O18803   4.079   7.025   6.774 -1.2208  0.6345 -0.3594
  901MOL0     C18804   4.037   7.128   6.696  0.4617 -0.3827  1.0227
  901MOL0     C18805   3.902   7.130   6.654 -0.6840 -0.2387  0.5422
  901MOL0     C18806   3.859   7.207   6.546 -0.3351 -0.8125 -0.4010
  901MOL0     C18807   3.944   7.290   6.480 -0.5025  0.5855 -0.2371
  901MOL0     O18808   3.890   7.382   6.385  0.0156  0.4425  0.5738
  901MOL0     C18809   3.978   7.453   6.297 -0.1944  0.5188  0.2508
  901MOL0     C18810   3.920   7.505   6.168 -0.4376 -1.2012  0.2393
  901MOL0     C18811   3.816   7.406   6.112  0.5200 -0.0007  0.4806
  901MOL0     C18812   3.769   7.430   5.964 -0.4672 -0.2450  0.1522
  901MOL0     C18813   3.678   7.299   5.944  0.3333 -0.4442 -0.6654
  901MOL0     C18814   3.635   7.260   5.805  0.6751  0.3695  0.3381
  901MOL0     C18815   3.758   7.239   5.708  0.0853  0.6088 -0.2533
  901MOL0     C18816   3.725   7.230   5.562  0.4052 -0.3588  0.8998
  901MOL0     N18817   3.825   7.177   5.462 -0.7413  0.7936  0.4244
  901MOL0     C18818   3.808   7.067   5.385 -0.3140  0.2024  0.2336
  901MOL0     C18819   3.925   7.034   5.320 -0.3133  0.0631  0.0475
  901MOL0     C18820   3.967   6.922   5.234 -0.4888 -0.6295  0.2022
  901MOL0     C18821   4.085   6.841   5.302  1.0195 -0.7186  0.0009
  901MOL0     C18822   4.116   6.722   5.221  0.1500  1.0826 -0.0534
  901MOL0     C18823   4.213   6.630   5.293 -0.1856  0.6597 -0.3791
  901MOL0     O18824   4.147   6.547   5.391  0.1575 -0.1861 -0.0064
  901MOL0     C18825   4.214   6.446   5.461 -0.9094 -0.5120  0.3562
  901MOL0     C18826   4.154   6.388   5.567  1.4673  0.5150  0.1620
  901MOL0     C18827   4.212   6.286   5.645 -1.2000 -0.2576  0.1963
  901MOL0     C18828   4.352   6.268   5.641  0.0043  0.5679  0.9810
  901MOL0     C18829   4.427   6.167   5.724  0.0842  0.0476 -0.1081
  901MOL0     O18830   4.558   6.144   5.703 -0.1940 -0.7987  0.0867
  901MOL0     C18831   4.628   6.057   5.776  0.0363 -0.4261  0.3971
  901MOL0     C18832   4.630   6.064   5.918  0.1812  0.6122  0.4268
  901MOL0     C18833   4.708   5.969   5.980 -0.3531 -0.0856  0.5991
  901MOL0     C18834   4.751   5.848   5.919  0.1963 -0.2179  0.7301
  901MOL0     O18835   4.810   5.751   5.987 -0.8039  0.4375 -0.3597
  901MOL0     C18836   4.749   5.616   5.980  0.5643 -0.6028 -0.5208
  901MOL0     C18837   4.621   5.617   6.071 -0.3128 -0.0976  0.3014
  901MOL0     C18838   4.483   5.622   6.014  0.5050 -0.4441  0.4482
  901MOL0     C18839   4.389   5.634   6.127  0.7796 -0.4584  0.7079
  901MOL0     C18840   4.289   5.747   6.123  0.1289  0.3347 -0.1359
  901MOL0     C18841   4.348   5.882   6.170  0.1546  1.2540 -0.5807
  901MOL0     C18842   4.266   6.013   6.142 -0.1750  0.8237  1.1103
  901MOL0     C18843   4.139   6.027   6.215  0.5878  0.3076 -0.3211
  901MOL0    Cl18844   4.073   6.192   6.194 -0.4069 -0.4795 -0.0335
  901MOL0     C18845   4.755   5.856   5.781  0.3448  0.1698 -0.4406
  901MOL0     C18846   4.698   5.959   5.708 -0.4802 -0.8232  0.6354
  901MOL0     O18847   4.357   6.118   5.813 -0.0328  0.0805 -0.4735
  901MOL0     C18848   4.415   6.330   5.524  1.1308 -0.3230  0.0300
  901MOL0     C18849   4.347   6.410   5.429  0.3322  0.3949  0.6199
  901MOL0     N18850   4.005   7.137   5.357 -0.2256  0.7253  0.6145
  901MOL0     N18851   3.961   7.219   5.447  0.4393 -0.2381  0.3121
  901MOL0     C18852   4.078   7.298   6.524 -0.4034  0.6338 -0.5343
  901MOL0     C18853   4.122   7.223   6.632  0.3517  0.5033  0.4005
  901MOL0     C18854   4.012   6.820   6.892 -0.0899 -0.4480  0.4323
  901MOL0     C18855   3.943   6.697   6.901  0.8808  0.4079 -0.0095
  901MOL0     C18856   3.898   6.646   7.026 -0.5221  0.3257 -0.8831
  901MOL0     C18857   3.938   6.707   7.146  0.0916  0.3218  0.1892
  901MOL0     O18858   3.901   6.645   7.259 -0.5086  0.7765 -0.2310
  901MOL0     C18859   3.932   6.702   7.388 -0.4408 -0.5916 -0.4083
  901MOL0     C18860   3.900   6.595   7.488 -0.5279 -0.5062 -0.2697
  901MOL0     C18861   3.889   6.653   7.627  0.3198  0.2590  0.2361
  901MOL0     C18862   3.817   6.545   7.717 -0.3765  0.3783 -0.0058
  901MOL0     C18863   3.777   6.618   7.836 -1.2426  0.1672  0.2315
  901MOL0     C18864   3.736   6.677   7.936 -0.5436  1.0044 -0.1571
  901MOL0     C18865   4.008   6.824   7.135  0.6884  0.1905 -0.2458
  901MOL0     C18866   4.064   6.872   7.010 -0.3429 -0.6531  0.0097
  901MOL0     H18867   3.820   7.071   6.693  1.5663 -4.3613 -0.3537
  901MOL0     H18868   3.754   7.221   6.523 -0.2489  1.9886  0.5730
  901MOL0     H18869   4.068   7.397   6.269  0.9349  0.5745  3.4171
  901MOL0     H18870   4.015   7.543   6.347  3.6105  0.9875 -2.9152
  901MOL0     H18871   3.995   7.516   6.089 -1.3412  0.5454 -0.4405
  901MOL0     H18872   3.872   7.604   6.173 -3.9131 -2.6749 -0.5300
  901MOL0     H18873   3.734   7.402   6.185 -1.5535  2.2225 -1.5282
  901MOL0     H18874   3.869   7.311   6.099  1.2676  0.7763 -3.3830
  901MOL0     H18875   3.699   7.514   5.969 -0.3081 -0.1896  2.3837
  901MOL0     H18876   3.848   7.443   5.890  0.0527 -0.4941  0.6564
  901MOL0     H18877   3.580   7.324   5.986 -0.6489 -0.2099 -2.9157
  901MOL0     H18878   3.725   7.216   5.997  0.3509 -0.5503 -0.8457
  901MOL0     H18879   3.567   7.335   5.765  0.2960  0.5031  1.2108
  901MOL0     H18880   3.593   7.159   5.811  4.6742 -1.5944 -0.8881
  901MOL0     H18881   3.825   7.324   5.724  0.4126  0.3228 -0.1036
  901MOL0     H18882   3.792   7.136   5.723 -0.1344  0.5671 -0.0340
  901MOL0     H18883   3.697   7.329   5.526  0.9462 -0.1043  1.1762
  901MOL0     H18884   3.638   7.163   5.560 -1.1525  1.6032  0.2694
  901MOL0     H18885   3.715   7.013   5.391  0.5400 -1.2718  0.6010
  901MOL0     H18886   4.009   6.948   5.136  2.0985 -0.9185  1.1592
  901MOL0     H18887   3.884   6.852   5.226  0.9811 -2.9760  3.3922
  901MOL0     H18888   4.041   6.822   5.401 -3.6265  1.7490 -1.2903
  901MOL0     H18889   4.170   6.910   5.297 -0.2036  0.7759 -1.0113
  901MOL0     H18890   4.018   6.676   5.203  0.4948 -0.9393  2.6753
  901MOL0     H18891   4.171   6.742   5.129  0.7045  1.9212  0.4439
  901MOL0     H18892   4.298   6.680   5.340 -0.2051 -0.3982  0.8397
  901MOL0     H18893   4.258   6.566   5.218 -2.4717 -0.5816 -0.7749
  901MOL0     H18894   4.049   6.416   5.579  1.0114 -0.9335 -0.2792
  901MOL0     H18895   4.155   6.211   5.698 -0.7109 -2.4748 -2.1857
  901MOL0     H18896   4.577   6.139   5.976 -1.7357 -1.2403  1.1940
  901MOL0     H18897   4.698   5.972   6.088 -0.7415 -0.0456  0.5623
  901MOL0     H18898   4.818   5.537   6.013  0.2485 -0.9294 -0.6311
  901MOL0     H18899   4.721   5.582   5.880 -0.5311  0.3293 -0.5419
  901MOL0     H18900   4.637   5.701   6.139  2.2516 -0.5011  0.3207
  901MOL0     H18901   4.619   5.539   6.148 -0.4696  2.9943  3.7266
  901MOL0     H18902   4.460   5.547   5.938 -1.3444  1.0273 -0.5578
  901MOL0     H18903   4.461   5.707   5.948 -1.9143 -2.9244 -2.2450
  901MOL0     H18904   4.315   5.553   6.123 -0.8270  0.9505  0.5244
  901MOL0     H18905   4.439   5.638   6.225 -2.2942  1.8538  2.3729
  901MOL0     H18906   4.210   5.728   6.196 -0.0575  1.6915  0.0314
  901MOL0     H18907   4.244   5.753   6.024  1.9376  3.4019 -0.9098
  901MOL0     H18908   4.425   5.906   6.096 -2.0424  2.1652 -2.7125
  901MOL0     H18909   4.377   5.879   6.275 -1.1631 -0.5463 -0.2213
  901MOL0     H18910   4.333   6.096   6.167 -0.3632  0.3853  3.1753
  901MOL0     H18911   4.234   6.015   6.037 -1.0454 -1.1894  1.2966
  901MOL0     H18912   4.146   6.001   6.321 -1.4098  0.1336 -0.1836
  901MOL0     H18913   4.065   5.956   6.175  0.9564 -1.8451  2.5278
  901MOL0     H18914   4.806   5.778   5.725 -0.0029  0.9116 -1.8518
  901MOL0     H18915   4.708   5.966   5.600  1.5383  0.6049  0.8515
  901MOL0     H18916   4.515   6.296   5.499  0.8046 -2.3266  1.2230
  901MOL0     H18917   4.400   6.455   5.346 -0.8955 -1.1895 -1.1105
  901MOL0     H18918   4.152   7.365   6.481  0.9933  0.4470  1.4508
  901MOL0     H18919   4.226   7.230   6.662 -0.2391 -2.9174  3.9055
  901MOL0     H18920   3.901   6.660   6.808  0.5572  1.3667 -0.2644
  901MOL0     H18921   3.827   6.564   7.026 -0.1529 -0.0099  0.1504
  901MOL0     H18922   3.873   6.790   7.414  1.0949 -0.2399  2.2670
  901MOL0     H18923   4.031   6.748   7.401 -1.3161  0.6453  2.8979
  901MOL0     H18924   3.805   6.548   7.460 -0.2908 -2.3490  1.7256
  901MOL0     H18925   3.983   6.524   7.497  1.9794  2.1848 -0.6322
  901MOL0     H18926   3.824   6.741   7.616  1.5947  1.2569  0.4826
  901MOL0     H18927   3.984   6.698   7.655 -0.0608  1.4000 -0.2282
  901MOL0     H18928   3.717   6.524   7.679  0.7650 -1.6619 -2.0805
  901MOL0     H18929   3.883   6.459   7.734 -1.4859 -0.1399  2.0666
  901MOL0     H18930   3.715   6.743   8.017 -1.5297  1.4387 -0.7595
  901MOL0     H18931   4.039   6.884   7.220 -2.3598  3.4498 -1.1697
  901MOL0     H18932   4.115   6.967   7.016 -0.5831 -0.6055  1.4621
  902MOL0     O18933   1.536   6.826   1.371  0.0979  0.2282 -0.0747
  902MOL0     C18934   1.527   6.743   1.459 -0.3897  0.1696  0.9284
  902MOL0     O18935   1.626   6.710   1.548 -0.2438  1.1413  0.4502
  902MOL0     C18936   1.749   6.783   1.547  0.2134  0.3678  0.1613
  902MOL0     C18937   1.876   6.718   1.556 -0.2949  0.1790  0.2733
  902MOL0     C18938   1.992   6.795   1.548 -0.1928 -0.1213 -0.9646
  902MOL0     C18939   1.989   6.940   1.559 -0.3156  0.2637  0.2201
  902MOL0     O18940   2.113   7.004   1.553  0.7701  0.0232  0.1847
  902MOL0     C18941   2.110   7.133   1.496 -0.1970 -0.3388 -0.5462
  902MOL0     C18942   2.243   7.153   1.427 -0.3042  0.0995  0.6053
  902MOL0     C18943   2.274   7.298   1.386  0.3395 -0.2143 -0.6397
  902MOL0     C18944   2.350   7.369   1.498 -0.6830  0.1447  0.6395
  902MOL0     C18945   2.377   7.518   1.464  0.3034  0.0258  0.4347
  902MOL0     C18946   2.476   7.525   1.351 -0.0796  0.1046 -0.0410
  902MOL0     C18947   2.516   7.667   1.329  0.2673 -0.4312  0.1356
  902MOL0     C18948   2.410   7.776   1.321  0.8712  0.0439  0.3880
  902MOL0     N18949   2.460   7.897   1.255 -0.1027 -0.0383  0.3431
  902MOL0     C18950   2.528   7.892   1.138 -0.1751  0.3788 -0.5856
  902MOL0     C18951   2.570   8.017   1.117 -0.6627  0.3242  0.4400
  902MOL0     C18952   2.654   8.061   0.995  1.4507  0.8802 -1.5510
  902MOL0     C18953   2.794   8.071   1.052 -0.0622  0.9763  0.3005
  902MOL0     C18954   2.867   7.939   1.080 -0.4858  0.0359 -0.1561
  902MOL0     C18955   2.883   7.849   0.954 -0.5960 -0.3962 -0.2807
  902MOL0     O18956   2.924   7.725   1.013  0.0753 -0.1236 -0.4179
  902MOL0     C18957   3.017   7.650   0.953 -0.1433 -0.1005 -0.5813
  902MOL0     C18958   3.102   7.578   1.037 -0.7372  0.6584 -0.1849
  902MOL0     C18959   3.212   7.509   0.980 -0.4059  0.3593 -0.0190
  902MOL0     C18960   3.227   7.493   0.840  0.2094 -0.5216  0.4074
  902MOL0     C18961   3.350   7.428   0.786  0.6593  0.5777 -0.1730
  902MOL0     O18962   3.437   7.380   0.884  0.2923  0.2452 -0.5312
  902MOL0     C18963   3.548   7.316   0.833  0.4311  0.4947  0.3935
  902MOL0     C18964   3.565   7.179   0.879  0.5230 -0.2087  1.2728
  902MOL0     C18965   3.670   7.104   0.836 -0.3565  0.4231 -0.0876
  902MOL0     C18966   3.770   7.167   0.757 -0.5252  0.2770 -0.1572
  902MOL0     O18967   3.886   7.105   0.721 -0.0440 -0.0732  0.1509
  902MOL0     C18968   3.911   6.976   0.770 -0.2518 -0.4315 -0.2119
  902MOL0     C18969   4.051   6.946   0.730  0.0128 -0.1868 -0.3812
  902MOL0     C18970   4.154   7.008   0.818  0.3347 -1.4494 -0.2329
  902MOL0     C18971   4.294   7.001   0.754  0.4373 -0.4692 -0.2376
  902MOL0     C18972   4.392   7.077   0.843  0.4752 -0.3041  0.7430
  902MOL0     C18973   4.404   7.007   0.979 -0.3711 -0.9741 -0.1671
  902MOL0     C18974   4.535   7.039   1.057 -0.6668  0.1498 -0.1660
  902MOL0     C18975   4.547   6.976   1.192  0.2644  0.7922 -0.4927
  902MOL0    Cl18976   4.418   7.014   1.307  0.1399  0.0565 -0.0476
  902MOL0     C18977   3.758   7.298   0.708 -0.1734  0.3131 -0.9092
  902MOL0     C18978   3.633   7.371   0.738 -0.6184  0.7088 -0.4145
  902MOL0     O18979   3.355   7.404   0.668 -0.1809 -0.4816 -0.0512
  902MOL0     C18980   3.135   7.557   0.758 -0.3395 -1.0094 -0.3160
  902MOL0     C18981   3.036   7.635   0.813  0.4095  0.1018 -0.6367
  902MOL0     N18982   2.529   8.091   1.222 -0.3186 -0.3127  0.9680
  902MOL0     N18983   2.462   8.020   1.308  0.0913  0.4145 -0.2932
  902MOL0     C18984   1.864   6.997   1.573  0.0754 -0.1870 -0.2850
  902MOL0     C18985   1.747   6.923   1.548  0.5890 -0.3037 -0.7946
  902MOL0     C18986   1.394   6.681   1.489  0.3651 -0.4935  0.3119
  902MOL0     C18987   1.282   6.723   1.408 -0.1048 -0.2045 -0.5041
  902MOL0     C18988   1.155   6.683   1.445  0.7024  0.6269 -0.1071
  902MOL0     C18989   1.131   6.590   1.553  0.3001 -0.4022  0.6870
  902MOL0     O18990   1.008   6.542   1.591 -0.5242  0.2180 -0.7797
  902MOL0     C18991   0.898   6.580   1.518  1.0721  0.3590  0.0668
  902MOL0     C18992   0.767   6.526   1.582  0.3010 -0.9356  0.3147
  902MOL0     C18993   0.757   6.380   1.588 -0.8862 -0.6513 -0.5919
  902MOL0     C18994   0.680   6.306   1.478 -0.7614 -0.0289 -1.5599
  902MOL0     C18995   0.537   6.340   1.458 -0.2920  0.3910  0.3627
  902MOL0     C18996   0.419   6.368   1.431 -0.2130  0.5034  0.6634
  902MOL0     C18997   1.240   6.544   1.627  1.0250 -0.8210  0.8535
  902MOL0     C18998   1.365   6.599   1.602 -0.7248 -0.9496 -0.2434
  902MOL0     H18999   1.883   6.609   1.559  0.6406  0.1671  4.9099
  902MOL0     H19000   2.090   6.749   1.547 -0.3181 -0.3792 -1.6250
  902MOL0     H19001   2.116   7.205   1.578  0.5593 -0.2051 -0.7046
  902MOL0     H19002   2.027   7.159   1.430 -0.4370  0.9274  0.2334
  902MOL0     H19003   2.240   7.086   1.340  0.0617 -1.8492  2.0442
  902MOL0     H19004   2.336   7.127   1.477 -0.2502  1.6812  1.4050
  902MOL0     H19005   2.181   7.347   1.355 -0.2648 -1.0159 -0.1410
  902MOL0     H19006   2.330   7.282   1.293  1.6699 -0.8435  0.2377
  902MOL0     H19007   2.289   7.370   1.589  1.8459  1.7414  2.4312
  902MOL0     H19008   2.441   7.323   1.536 -1.0378 -1.7083 -0.6066
  902MOL0     H19009   2.412   7.567   1.555  0.6384  1.8221 -0.5954
  902MOL0     H19010   2.280   7.565   1.446  1.1472  1.9768  0.6894
  902MOL0     H19011   2.435   7.476   1.262  1.6052 -0.7976 -0.3634
  902MOL0     H19012   2.561   7.464   1.381 -0.9710 -0.9976  0.3385
  902MOL0     H19013   2.581   7.696   1.412  2.4935 -1.9822 -0.9754
  902MOL0     H19014   2.579   7.652   1.241 -0.0940 -3.1368  0.2665
  902MOL0     H19015   2.377   7.808   1.420  0.8647  1.7031 -0.1320
  902MOL0     H19016   2.317   7.743   1.276  0.2359  0.9751  0.9737
  902MOL0     H19017   2.543   7.814   1.064  2.2686  0.1079  0.0955
  902MOL0     H19018   2.635   8.164   0.965  0.0160  0.9963 -0.3611
  902MOL0     H19019   2.639   7.988   0.916 -1.7932 -1.0899  0.6379
  902MOL0     H19020   2.785   8.117   1.150  0.1531  0.5687  0.5150
  902MOL0     H19021   2.853   8.140   0.990 -1.6849  3.0047  0.8867
  902MOL0     H19022   2.965   7.944   1.129 -0.1588 -1.2632 -0.6274
  902MOL0     H19023   2.793   7.891   1.145 -1.2098  0.2399 -0.8018
  902MOL0     H19024   2.970   7.891   0.901  2.0476 -0.1290  3.8092
  902MOL0     H19025   2.804   7.832   0.881  1.7134 -2.6945 -2.4605
  902MOL0     H19026   3.095   7.597   1.144 -2.8255 -0.6457 -0.0190
  902MOL0     H19027   3.293   7.466   1.038  1.8983 -0.3193 -3.4317
  902MOL0     H19028   3.486   7.133   0.938 -4.0316  0.1015 -3.8009
  902MOL0     H19029   3.669   6.997   0.859 -2.2684  0.7583  1.6786
  902MOL0     H19030   3.834   6.906   0.736 -3.1717  0.8344  3.1531
  902MOL0     H19031   3.903   6.965   0.879 -2.2810  1.0108 -0.1556
  902MOL0     H19032   4.061   6.970   0.624  1.4679 -2.5572 -0.8679
  902MOL0     H19033   4.081   6.842   0.744  0.3129  0.2247  2.7028
  902MOL0     H19034   4.149   6.971   0.921  2.0168 -2.3158 -0.4341
  902MOL0     H19035   4.128   7.115   0.820 -2.1818 -1.9402 -1.7883
  902MOL0     H19036   4.317   6.895   0.739  1.5017 -0.2978  0.1085
  902MOL0     H19037   4.299   7.050   0.656  4.1720  4.3415  1.9139
  902MOL0     H19038   4.349   7.177   0.856 -3.2417 -1.4017 -1.5634
  902MOL0     H19039   4.488   7.095   0.794  0.2603 -0.0905  0.3941
  902MOL0     H19040   4.402   6.899   0.958  1.7910 -1.1992  0.5461
  902MOL0     H19041   4.313   7.023   1.037 -0.8190 -3.3981 -0.0931
  902MOL0     H19042   4.615   7.002   0.992 -2.0761 -3.7317  0.0325
  902MOL0     H19043   4.534   7.147   1.067  0.8294  0.0537  1.4338
  902MOL0     H19044   4.640   7.000   1.244  0.4791  1.6940 -1.2754
  902MOL0     H19045   4.550   6.870   1.164 -1.1293  0.3567  0.8272
  902MOL0     H19046   3.844   7.343   0.662 -0.2106  0.6960 -0.6078
  902MOL0     H19047   3.631   7.471   0.697  2.8731 -0.1262 -3.0477
  902MOL0     H19048   3.155   7.549   0.651  0.4628 -6.2396 -0.0449
  902MOL0     H19049   2.982   7.696   0.741 -1.8228  1.9477  2.3825
  902MOL0     H19050   1.855   7.104   1.591 -0.3105 -0.2688  0.0183
  902MOL0     H19051   1.656   6.980   1.528  0.5925  1.9144  3.9936
  902MOL0     H19052   1.291   6.802   1.335  1.1431  0.2441  0.1144
  902MOL0     H19053   1.074   6.721   1.383  0.9856  0.9703 -0.2714
  902MOL0     H19054   0.903   6.546   1.415 -1.2044 -0.9414  0.3402
  902MOL0     H19055   0.897   6.689   1.526 -2.3665  0.8209 -3.5947
  902MOL0     H19056   0.745   6.562   1.683 -0.6713 -2.5249  0.7125
  902MOL0     H19057   0.682   6.556   1.519 -1.9446 -7.2979 -0.4323
  902MOL0     H19058   0.713   6.361   1.686 -0.3439 -1.3049 -0.4674
  902MOL0     H19059   0.857   6.339   1.573 -1.3127 -0.8021 -3.7221
  902MOL0     H19060   0.734   6.337   1.388  0.6240  1.2594 -0.3695
  902MOL0     H19061   0.686   6.197   1.485 -2.3273 -0.0450  0.4764
  902MOL0     H19062   0.326   6.399   1.386 -0.8380 -1.1840  0.7126
  902MOL0     H19063   1.220   6.481   1.713 -3.1419  1.5307  1.8672
  902MOL0     H19064   1.429   6.553   1.677 -0.0105 -0.8008 -0.7467
  903MOL0     O19065   3.104   8.939   8.637  0.0540 -0.3889  0.4457
  903MOL0     C19066   3.121   8.953   8.515 -0.7821  0.5502 -0.2394
  903MOL0     O19067   3.060   9.040   8.432 -0.7441  0.8046 -1.0144
  903MOL0     C19068   2.970   9.130   8.479  0.2787 -0.3471 -0.2561
  903MOL0     C19069   2.963   9.184   8.608  0.6888  0.3391 -0.0672
  903MOL0     C19070   2.867   9.281   8.640  0.1385  0.5652 -1.0826
  903MOL0     C19071   2.788   9.335   8.546 -0.2961  0.3621 -0.6943
  903MOL0     O19072   2.701   9.424   8.601  0.4866 -0.5172 -0.1581
  903MOL0     C19073   2.588   9.477   8.530 -0.4696  0.6798 -1.1239
  903MOL0     C19074   2.508   9.579   8.605  0.0385  0.1829  0.1785
  903MOL0     C19075   2.568   9.712   8.588 -0.9711  0.0980  0.5602
  903MOL0     C19076   2.517   9.814   8.685  0.8882  0.5732 -0.8681
  903MOL0     C19077   2.373   9.856   8.647 -0.4260  0.2618 -0.0432
  903MOL0     C19078   2.292   9.944   8.739  0.2216 -0.6954 -0.3240
  903MOL0     C19079   2.333  10.087   8.733 -0.0784  0.4773 -0.4777
  903MOL0     C19080   2.243  10.180   8.827 -0.3256  0.6431  0.8348
  903MOL0     N19081   2.228  10.127   8.964  0.4395  0.7264 -0.3336
  903MOL0     C19082   2.325  10.124   9.060  1.0684  0.3975 -0.2199
  903MOL0     C19083   2.259  10.085   9.172 -0.8700 -0.7647  0.9316
  903MOL0     C19084   2.333  10.054   9.302 -0.1716 -0.5498 -0.2895
  903MOL0     C19085   2.409   9.929   9.279 -0.8044 -0.1060  0.1503
  903MOL0     C19086   2.534   9.914   9.375 -0.1207 -0.0141  0.8671
  903MOL0     C19087   2.608   9.778   9.349 -0.4928  0.4920 -0.4976
  903MOL0     O19088   2.737   9.802   9.404  0.1893  0.3346  0.2915
  903MOL0     C19089   2.839   9.717   9.379 -1.4536 -0.4937  0.4978
  903MOL0     C19090   2.960   9.762   9.433  0.7000  0.8293  0.6366
  903MOL0     C19091   3.070   9.693   9.412 -0.3290  0.4634 -0.0556
  903MOL0     C19092   3.070   9.572   9.353  1.1183  0.8365  0.4568
  903MOL0     C19093   3.192   9.497   9.318  0.1900 -0.4185 -0.4733
  903MOL0     O19094   3.297   9.574   9.298 -0.5422  0.5373  0.1812
  903MOL0     C19095   3.407   9.533   9.222 -0.3052  0.2527  1.0059
  903MOL0     C19096   3.514   9.618   9.227  0.2557  0.4250  0.9118
  903MOL0     C19097   3.624   9.601   9.145  0.1499 -1.0525 -0.3954
  903MOL0     C19098   3.632   9.487   9.061 -0.8191 -0.6750  0.0024
  903MOL0     O19099   3.747   9.445   8.997  0.0985  0.0576 -0.3098
  903MOL0     C19100   3.838   9.542   8.960 -0.7923 -0.1645  0.6413
  903MOL0     C19101   3.964   9.475   8.890  0.1920 -0.4861 -0.0979
  903MOL0     C19102   4.059   9.584   8.852 -0.7303 -0.0653  0.6392
  903MOL0     C19103   4.046   9.635   8.715 -0.6411 -0.2669  0.1892
  903MOL0     C19104   4.160   9.731   8.668 -0.0917  0.6680  0.2277
  903MOL0     C19105   4.296   9.665   8.638  0.4219 -0.0118 -0.3588
  903MOL0     C19106   4.314   9.540   8.549 -0.1322 -0.2578  1.3452
  903MOL0     C19107   4.358   9.595   8.409  0.0345  0.3486 -0.2721
  903MOL0    Cl19108   4.535   9.605   8.398  0.2404 -0.6451  0.0970
  903MOL0     C19109   3.525   9.397   9.061  0.3734  0.4634 -0.4730
  903MOL0     C19110   3.415   9.421   9.137  0.7221  0.0312  0.2890
  903MOL0     O19111   3.176   9.379   9.305 -0.6988 -0.7778  0.1171
  903MOL0     C19112   2.950   9.519   9.303  0.0145  1.0471 -0.3057
  903MOL0     C19113   2.837   9.592   9.315 -0.7289 -0.5530  0.5186
  903MOL0     N19114   2.127  10.083   9.149  0.4315 -0.6498  0.0449
  903MOL0     N19115   2.107  10.109   9.026 -0.3223  0.4061  1.0016
  903MOL0     C19116   2.782   9.278   8.417  0.2007  0.8052 -0.3733
  903MOL0     C19117   2.872   9.175   8.387  0.3494 -0.8728  0.4891
  903MOL0     C19118   3.191   8.833   8.454  0.6741 -0.3155 -0.6834
  903MOL0     C19119   3.242   8.730   8.536 -1.1214  0.3599 -0.7601
  903MOL0     C19120   3.307   8.614   8.477  0.1229 -0.3209  0.2130
  903MOL0     C19121   3.305   8.595   8.338 -0.3117 -0.2797  0.4018
  903MOL0     O19122   3.366   8.488   8.289  0.2106  0.7912  0.6697
  903MOL0     C19123   3.412   8.477   8.156  0.0604 -1.1350  0.2906
  903MOL0     C19124   3.498   8.345   8.154 -1.4898 -1.0473 -1.0567
  903MOL0     C19125   3.419   8.217   8.178  0.9136  0.5500 -1.1689
  903MOL0     C19126   3.501   8.086   8.166  1.0579 -0.0028 -0.5436
  903MOL0     C19127   3.468   8.017   8.034  0.0118 -0.9096  0.1277
  903MOL0     C19128   3.411   7.973   7.941  0.1374  1.3673  0.2065
  903MOL0     C19129   3.249   8.700   8.258  0.4876  0.1306 -0.2911
  903MOL0     C19130   3.205   8.821   8.313  0.1811  0.9029 -0.3088
  903MOL0     H19131   3.023   9.153   8.693  1.3421  2.5526  0.3453
  903MOL0     H19132   2.871   9.303   8.746  1.1621 -0.8240 -0.8054
  903MOL0     H19133   2.515   9.398   8.507  1.1218 -0.8767 -1.0077
  903MOL0     H19134   2.617   9.522   8.434 -0.0891  1.0855 -0.8192
  903MOL0     H19135   2.485   9.556   8.710 -2.5926 -0.5507 -0.4848
  903MOL0     H19136   2.415   9.572   8.549  0.7154 -0.3499 -0.9226
  903MOL0     H19137   2.556   9.750   8.486  4.5552  1.0208 -0.0486
  903MOL0     H19138   2.674   9.702   8.613 -1.0984  0.5856  1.3245
  903MOL0     H19139   2.522   9.777   8.788 -1.2515 -3.1851 -1.9232
  903MOL0     H19140   2.579   9.904   8.683  0.5709  0.7867 -1.9351
  903MOL0     H19141   2.314   9.764   8.637  2.1334 -1.5969  0.9418
  903MOL0     H19142   2.371   9.886   8.541  2.1335  0.9324  0.0159
  903MOL0     H19143   2.292   9.891   8.835  1.1846  2.0141  1.3106
  903MOL0     H19144   2.188   9.938   8.707 -0.2195  2.4843  0.1276
  903MOL0     H19145   2.437  10.077   8.766  0.0646  1.7863 -0.5118
  903MOL0     H19146   2.343  10.124   8.631 -2.5100  0.3752 -0.8166
  903MOL0     H19147   2.146  10.184   8.776  0.9715  1.7074 -1.7772
  903MOL0     H19148   2.292  10.278   8.820  2.1004 -0.6018 -1.1060
  903MOL0     H19149   2.433  10.140   9.058  1.3805 -1.5394 -0.1782
  903MOL0     H19150   2.271  10.040   9.391 -0.5700 -2.7038 -0.8388
  903MOL0     H19151   2.396  10.141   9.323 -2.1559  1.2484 -1.4206
  903MOL0     H19152   2.445   9.923   9.176 -1.6745 -2.3978 -0.0924
  903MOL0     H19153   2.344   9.844   9.306 -3.3347  1.6735  0.0241
  903MOL0     H19154   2.603   9.996   9.355 -0.5512 -0.1371 -1.4970
  903MOL0     H19155   2.485   9.914   9.473 -0.5488  2.8180  0.7247
  903MOL0     H19156   2.616   9.757   9.242  0.5355  0.3393 -0.3997
  903MOL0     H19157   2.559   9.697   9.404 -1.9700  1.1366 -0.8111
  903MOL0     H19158   2.994   9.858   9.471  1.3889  1.1422 -0.6907
  903MOL0     H19159   3.154   9.739   9.463 -1.3600  2.4209 -0.0534
  903MOL0     H19160   3.509   9.695   9.304 -1.1427 -0.8391  2.1581
  903MOL0     H19161   3.694   9.684   9.149 -3.0688  1.9459 -1.5860
  903MOL0     H19162   3.884   9.591   9.046 -1.2946  1.2612  0.1290
  903MOL0     H19163   3.790   9.621   8.901 -1.2081 -0.3491  0.7271
  903MOL0     H19164   3.927   9.407   8.812  1.3205 -0.8305 -0.3511
  903MOL0     H19165   4.018   9.413   8.962  1.1596 -0.2185 -0.5721
  903MOL0     H19166   4.161   9.546   8.855 -0.4261  0.3910 -1.7960
  903MOL0     H19167   4.053   9.669   8.921 -0.5082 -0.7478  1.5100
  903MOL0     H19168   4.051   9.562   8.633  0.3945  0.9075 -0.8460
  903MOL0     H19169   3.953   9.690   8.706  0.8666  2.5979  0.9251
  903MOL0     H19170   4.193   9.803   8.744  1.0762  0.7467 -0.3441
  903MOL0     H19171   4.119   9.782   8.581 -4.1430  1.3102  2.2338
  903MOL0     H19172   4.329   9.627   8.736 -0.0411  0.3303 -0.0643
  903MOL0     H19173   4.357   9.749   8.606  1.2235 -0.2159  0.5811
  903MOL0     H19174   4.396   9.479   8.589  1.2239 -0.9904 -2.2249
  903MOL0     H19175   4.225   9.478   8.540  0.3548 -0.6669 -1.2694
  903MOL0     H19176   4.322   9.696   8.389 -2.9630 -0.2878  1.2774
  903MOL0     H19177   4.320   9.531   8.329 -1.2716  0.4491  0.2409
  903MOL0     H19178   3.522   9.292   9.034 -0.4363 -0.2098  1.9319
  903MOL0     H19179   3.342   9.340   9.137  0.0210  0.6090 -1.8098
  903MOL0     H19180   2.957   9.437   9.233  0.1504  2.2592 -1.7561
  903MOL0     H19181   2.739   9.556   9.285 -0.7849 -0.8706  1.0785
  903MOL0     H19182   2.716   9.318   8.341  2.6219  1.9559 -2.0054
  903MOL0     H19183   2.873   9.116   8.296  2.9060 -2.7574  1.6130
  903MOL0     H19184   3.242   8.728   8.644  1.5481  0.3949 -0.7087
  903MOL0     H19185   3.353   8.538   8.538 -0.9016 -2.4519 -1.5346
  903MOL0     H19186   3.477   8.559   8.123 -1.9153 -0.7605 -3.0820
  903MOL0     H19187   3.334   8.468   8.080 -0.7108  1.5870  0.6531
  903MOL0     H19188   3.546   8.339   8.056 -3.4771 -0.6419 -2.1174
  903MOL0     H19189   3.569   8.353   8.236 -1.0049 -0.3419 -1.5333
  903MOL0     H19190   3.336   8.206   8.107 -2.5463 -2.3735  2.8531
  903MOL0     H19191   3.374   8.218   8.277 -2.2116 -0.6016 -2.4311
  903MOL0     H19192   3.606   8.116   8.176  1.5502 -0.3128 -3.6234
  903MOL0     H19193   3.468   8.025   8.250 -0.4628  2.7956  1.0050
  903MOL0     H19194   3.350   7.947   7.857  0.6330  2.9678 -0.7006
  903MOL0     H19195   3.232   8.681   8.153 -1.1174  1.7149 -0.3715
  903MOL0     H19196   3.175   8.896   8.240  0.6314  1.9769  0.5762
  904MOL0     O19197  10.177   8.949   0.159 -0.1986  0.8786  0.1714
  904MOL0     C19198  10.129   9.057   0.201 -1.0394  0.0070 -0.5480
  904MOL0     O19199  10.050   9.146   0.130 -0.6348 -0.4013  0.0764
  904MOL0     C19200   9.977   9.081   0.031  0.4058 -0.2719 -0.2194
  904MOL0     C19201   9.895   8.974   0.065 -0.1010  0.6121 -0.4768
  904MOL0     C19202   9.808   8.913  -0.027  0.7947 -0.7915 -0.2439
  904MOL0     C19203   9.804   8.965  -0.158 -0.0420  0.7922  0.1424
  904MOL0     O19204   9.725   8.910  -0.253 -0.1576  0.4825  1.2267
  904MOL0     C19205   9.623   8.991  -0.317 -0.6475 -0.5397  0.5087
  904MOL0     C19206   9.509   8.901  -0.359 -0.4631  0.6705  0.5398
  904MOL0     C19207   9.540   8.817  -0.480 -0.4086  0.0085 -0.1661
  904MOL0     C19208   9.410   8.733  -0.528 -0.4801 -0.2166 -0.0599
  904MOL0     C19209   9.436   8.620  -0.632 -0.2440  0.4971 -0.9466
  904MOL0     C19210   9.311   8.558  -0.680  0.1813 -0.2995  0.1882
  904MOL0     C19211   9.362   8.460  -0.796 -0.2260  0.6218  0.3160
  904MOL0     C19212   9.248   8.355  -0.819  1.1729 -0.1349 -0.0840
  904MOL0     N19213   9.278   8.257  -0.926  0.0578  0.1859 -1.7102
  904MOL0     C19214   9.360   8.146  -0.910 -0.0210  0.1546 -0.4248
  904MOL0     C19215   9.376   8.102  -1.035 -0.1059 -0.9415 -0.4039
  904MOL0     C19216   9.439   7.976  -1.080  0.6077 -0.2857  0.7683
  904MOL0     C19217   9.338   7.865  -1.114  0.6835  0.2285 -0.1900
  904MOL0     C19218   9.403   7.753  -1.183 -0.5687  0.6820 -0.9103
  904MOL0     C19219   9.395   7.770  -1.331  0.3546  0.3284 -0.4456
  904MOL0     O19220   9.461   7.650  -1.392  0.3773  0.7544  0.3468
  904MOL0     C19221   9.592   7.624  -1.368 -0.7095  0.6572 -0.7495
  904MOL0     C19222   9.691   7.713  -1.319 -0.6313  0.2427 -0.2427
  904MOL0     C19223   9.833   7.683  -1.331  0.4512 -0.0858  0.1886
  904MOL0     C19224   9.883   7.564  -1.386  0.3266  0.1000  0.5863
  904MOL0     C19225  10.031   7.544  -1.396 -0.5695  0.2618 -0.4282
  904MOL0     O19226  10.070   7.428  -1.456 -1.4428  0.5374  0.0023
  904MOL0     C19227  10.206   7.417  -1.485  0.7087  0.3530  0.5299
  904MOL0     C19228  10.246   7.479  -1.608  0.5663 -0.9025 -1.1188
  904MOL0     C19229  10.381   7.498  -1.632 -0.3503 -0.1224 -1.1402
  904MOL0     C19230  10.475   7.429  -1.546  0.4781  0.6797  0.1721
  904MOL0     O19231  10.606   7.435  -1.589 -0.5410 -0.1631  1.0015
  904MOL0     C19232  10.717   7.479  -1.498  0.1872  0.2976  0.0391
  904MOL0     C19233  10.705   7.626  -1.481 -0.0787 -0.4348  0.2784
  904MOL0     C19234  10.832   7.681  -1.404  0.0798  0.0851 -0.4751
  904MOL0     C19235  10.852   7.835  -1.383  0.3113 -0.3102 -0.1338
  904MOL0     C19236  10.982   7.860  -1.286 -0.5968 -0.5352 -0.2105
  904MOL0     C19237  11.030   8.007  -1.265 -0.3287  0.3983  0.3971
  904MOL0     C19238  11.148   8.023  -1.171 -0.5120  0.3997  0.0906
  904MOL0     C19239  11.222   8.154  -1.197 -0.3304 -0.0624 -0.6856
  904MOL0    Cl19240  11.098   8.286  -1.219 -0.5095  0.2615  0.3431
  904MOL0     C19241  10.432   7.368  -1.426  0.6983 -0.2492 -0.0919
  904MOL0     C19242  10.292   7.361  -1.407 -0.6819  0.5739 -0.3688
  904MOL0     O19243  10.110   7.637  -1.360 -0.4567 -0.0994 -1.1028
  904MOL0     C19244   9.777   7.483  -1.444 -0.2549 -0.0301  0.4425
  904MOL0     C19245   9.645   7.517  -1.433  0.1109  0.5019  0.0735
  904MOL0     N19246   9.322   8.190  -1.123 -0.8158  0.7407  0.8078
  904MOL0     N19247   9.261   8.282  -1.055  0.0434 -0.7870  0.9766
  904MOL0     C19248   9.872   9.082  -0.180  0.2997 -0.3089  0.7177
  904MOL0     C19249   9.966   9.143  -0.088  0.0326 -0.8841  0.7075
  904MOL0     C19250  10.184   9.108   0.326 -0.6383  1.4337  0.1776
  904MOL0     C19251  10.143   9.225   0.382  0.5754  0.2144  0.1267
  904MOL0     C19252  10.203   9.275   0.501  0.6425  0.7674  1.2216
  904MOL0     C19253  10.285   9.197   0.577  0.1816 -0.1385 -0.0270
  904MOL0     O19254  10.329   9.247   0.698 -0.4519 -0.0315 -0.0970
  904MOL0     C19255  10.467   9.198   0.744 -0.3915 -0.1927  0.3365
  904MOL0     C19256  10.531   9.315   0.801  0.1093  0.9904 -0.5995
  904MOL0     C19257  10.585   9.409   0.694  0.2155 -0.3627  0.8566
  904MOL0     C19258  10.648   9.537   0.749 -0.2042 -0.5124 -1.1472
  904MOL0     C19259  10.703   9.529   0.879 -0.0962 -1.1033  0.2285
  904MOL0     C19260  10.764   9.527   0.986 -0.4468 -0.0071 -0.4665
  904MOL0     C19261  10.312   9.065   0.535  0.6326  0.3791  0.5314
  904MOL0     C19262  10.267   9.029   0.410  1.0727  1.0364 -0.0906
  904MOL0     H19263   9.902   8.939   0.168  4.4297  2.8362  0.2298
  904MOL0     H19264   9.739   8.833  -0.000 -2.7874  0.3758 -4.6992
  904MOL0     H19265   9.674   9.043  -0.400 -0.4542 -1.0260  0.3204
  904MOL0     H19266   9.570   9.061  -0.252 -0.7801  0.3777 -0.5481
  904MOL0     H19267   9.425   8.966  -0.385  1.5054  2.3308 -2.2471
  904MOL0     H19268   9.477   8.841  -0.274 -2.8983 -1.5067 -1.7177
  904MOL0     H19269   9.620   8.746  -0.457  0.7476  1.1077 -0.7124
  904MOL0     H19270   9.581   8.873  -0.564 -1.1449  0.7144 -0.0675
  904MOL0     H19271   9.360   8.697  -0.438 -3.0046  1.2990 -0.7534
  904MOL0     H19272   9.339   8.805  -0.570 -0.5928 -0.1082  0.3074
  904MOL0     H19273   9.486   8.540  -0.576  0.4777  2.9326  2.2281
  904MOL0     H19274   9.495   8.662  -0.714 -0.0064  1.8432 -0.1150
  904MOL0     H19275   9.231   8.625  -0.714 -2.2569 -1.6584  2.8093
  904MOL0     H19276   9.259   8.513  -0.596  1.5918 -2.1106  0.1487
  904MOL0     H19277   9.385   8.524  -0.881 -0.4849 -0.2272 -0.4011
  904MOL0     H19278   9.455   8.412  -0.766 -0.0178  0.8048 -0.0424
  904MOL0     H19279   9.154   8.404  -0.848 -0.5624 -3.5732 -0.7132
  904MOL0     H19280   9.212   8.314  -0.725  0.4660  0.3949 -0.1099
  904MOL0     H19281   9.403   8.120  -0.814 -1.1107  1.1917  0.3723
  904MOL0     H19282   9.513   7.941  -1.007  1.7463 -1.8189 -1.0520
  904MOL0     H19283   9.488   7.998  -1.175 -0.0192  2.2203  0.9453
  904MOL0     H19284   9.260   7.902  -1.182  1.8839  1.6009 -0.8649
  904MOL0     H19285   9.289   7.842  -1.019  0.8837  1.2508  0.1683
  904MOL0     H19286   9.509   7.744  -1.160 -0.9377 -1.5232  0.2561
  904MOL0     H19287   9.361   7.655  -1.157 -3.2398  2.1515  0.7827
  904MOL0     H19288   9.455   7.856  -1.361  1.5393 -0.6099 -0.8769
  904MOL0     H19289   9.292   7.791  -1.360  0.4076  1.8485  0.3832
  904MOL0     H19290   9.675   7.817  -1.291  0.6751 -0.0042  1.5986
  904MOL0     H19291   9.904   7.758  -1.299 -0.1830  0.2923  0.7213
  904MOL0     H19292  10.185   7.536  -1.677  0.3573  1.8303  1.1541
  904MOL0     H19293  10.427   7.544  -1.718  1.5858 -2.7932 -1.6710
  904MOL0     H19294  10.814   7.446  -1.538  0.7357  1.4727  0.3499
  904MOL0     H19295  10.691   7.425  -1.407 -0.9720  1.0605  0.1776
  904MOL0     H19296  10.622   7.644  -1.413  1.7938 -1.3519  2.9821
  904MOL0     H19297  10.683   7.673  -1.577 -1.0708  0.8356  1.1018
  904MOL0     H19298  10.923   7.644  -1.452  0.7216  0.1017  0.6785
  904MOL0     H19299  10.836   7.629  -1.307  4.1557 -1.1924 -1.1358
  904MOL0     H19300  10.884   7.880  -1.478  0.5811 -3.2524 -1.5587
  904MOL0     H19301  10.757   7.879  -1.350  0.9523 -0.2564  1.7551
  904MOL0     H19302  11.067   7.801  -1.322  0.4376 -0.2102  1.5938
  904MOL0     H19303  10.959   7.817  -1.188 -1.3554  3.4048  1.5557
  904MOL0     H19304  10.956   8.075  -1.221  1.8404  2.3379  1.2977
  904MOL0     H19305  11.066   8.052  -1.358 -0.5221  3.1138  1.5385
  904MOL0     H19306  11.109   8.016  -1.070 -1.0903  0.3239 -0.1343
  904MOL0     H19307  11.222   7.946  -1.194 -2.1018 -1.0361 -0.4261
  904MOL0     H19308  11.289   8.140  -1.283 -2.7927 -2.2773 -2.4164
  904MOL0     H19309  11.274   8.182  -1.105 -0.5317  0.5275 -0.7466
  904MOL0     H19310  10.500   7.316  -1.358  0.1974  1.3898  1.7374
  904MOL0     H19311  10.248   7.310  -1.322  0.8657 -1.5846 -0.7699
  904MOL0     H19312   9.795   7.386  -1.490 -2.5625 -0.5615  0.5746
  904MOL0     H19313   9.575   7.442  -1.469 -1.7299  0.9076  2.5154
  904MOL0     H19314   9.865   9.119  -0.281 -1.5957  0.4228  1.0757
  904MOL0     H19315  10.018   9.230  -0.127 -0.2885 -0.5633  0.9837
  904MOL0     H19316  10.076   9.292   0.330 -0.0366 -1.1022 -0.8378
  904MOL0     H19317  10.164   9.373   0.526 -2.6720 -0.3042  0.7968
  904MOL0     H19318  10.535   9.166   0.665  0.1826 -0.7618  1.0400
  904MOL0     H19319  10.472   9.119   0.820  0.1931 -1.3082 -0.8230
  904MOL0     H19320  10.464   9.359   0.875 -0.8420 -2.6989  0.9558
  904MOL0     H19321  10.618   9.270   0.850  0.5674 -1.1290 -3.1662
  904MOL0     H19322  10.490   9.434   0.646  0.1920 -2.0707 -0.0392
  904MOL0     H19323  10.657   9.372   0.621 -0.1405  3.2287 -1.5708
  904MOL0     H19324  10.731   9.575   0.687 -0.2653  2.8665  0.6033
  904MOL0     H19325  10.572   9.615   0.737  2.3504  1.9922 -2.2893
  904MOL0     H19326  10.795   9.527   1.088 -2.5393  3.0056  0.2878
  904MOL0     H19327  10.354   8.995   0.606 -0.4932 -0.7040  0.1684
  904MOL0     H19328  10.263   8.926   0.375 -2.9362  1.1091 -0.2837
  905MOL0     O19329  10.445   0.816   3.697  0.3627 -0.1894  0.4964
  905MOL0     C19330  10.331   0.860   3.700 -0.6428 -0.0850 -0.0653
  905MOL0     O19331  10.216   0.789   3.680  0.3577  0.3776 -0.0315
  905MOL0     C19332  10.232   0.652   3.671 -0.6303  0.2800  0.3884
  905MOL0     C19333  10.213   0.601   3.542  0.5495  0.4396  0.4367
  905MOL0     C19334  10.231   0.464   3.517  0.6344  1.0435 -1.4060
  905MOL0     C19335  10.240   0.375   3.626  0.1422  0.4931 -0.1013
  905MOL0     O19336  10.256   0.234   3.618 -0.3219 -0.9841  0.4503
  905MOL0     C19337  10.354   0.196   3.514 -0.1110  0.4579 -0.7029
  905MOL0     C19338  10.449   0.085   3.570  0.1828 -0.2601 -0.8048
  905MOL0     C19339  10.534   0.143   3.690  0.3110  0.2435  0.4989
  905MOL0     C19340  10.642   0.043   3.738 -0.2472  0.0759  0.2736
  905MOL0     C19341  10.597  -0.017   3.877 -0.3131 -0.7791 -0.2087
  905MOL0     C19342  10.726  -0.085   3.939  0.8044  0.2111  0.2562
  905MOL0     C19343  10.687  -0.159   4.065  0.2673  0.4015  0.1801
  905MOL0     C19344  10.641  -0.083   4.177 -0.2890  0.4044 -0.1744
  905MOL0     N19345  10.571  -0.165   4.278 -0.3232  0.3455  0.3569
  905MOL0     C19346  10.610  -0.290   4.313 -0.1123  0.3082 -0.5329
  905MOL0     C19347  10.525  -0.316   4.419 -0.3661  0.0654  0.0975
  905MOL0     C19348  10.535  -0.433   4.509  0.0290  0.5217 -0.1968
  905MOL0     C19349  10.405  -0.478   4.577  0.1125 -0.2351  0.8153
  905MOL0     C19350  10.426  -0.611   4.657 -0.1693 -0.3679 -0.0021
  905MOL0     C19351  10.305  -0.665   4.738 -0.6100  0.0234  0.4363
  905MOL0     O19352  10.189  -0.707   4.658 -0.4209 -0.2873 -0.0298
  905MOL0     C19353  10.082  -0.624   4.677  0.7709  0.1889  0.6076
  905MOL0     C19354  10.017  -0.591   4.795 -0.5785 -1.4615 -0.2498
  905MOL0     C19355   9.893  -0.524   4.794  0.1660 -0.4974 -1.2090
  905MOL0     C19356   9.842  -0.475   4.671  0.7179 -0.7375 -0.7767
  905MOL0     C19357   9.711  -0.407   4.673  0.1766  0.0379 -0.6781
  905MOL0     O19358   9.644  -0.403   4.554  0.3027  0.6924  0.2057
  905MOL0     C19359   9.519  -0.351   4.530 -0.4050  0.3349 -0.8712
  905MOL0     C19360   9.410  -0.389   4.621 -0.4885 -0.1840 -0.3504
  905MOL0     C19361   9.283  -0.343   4.596 -0.8727 -0.5471  0.5439
  905MOL0     C19362   9.257  -0.252   4.488  0.2211  0.3768  0.0195
  905MOL0     O19363   9.124  -0.220   4.468  0.5901  0.1270 -0.6881
  905MOL0     C19364   9.099  -0.082   4.421  0.2005  0.1597 -0.3460
  905MOL0     C19365   8.945  -0.048   4.404  0.4647 -0.0284 -0.4469
  905MOL0     C19366   8.868  -0.067   4.534 -0.8052  0.3421 -0.5234
  905MOL0     C19367   8.721  -0.010   4.517 -0.3541  1.1970 -0.4100
  905MOL0     C19368   8.634  -0.044   4.641 -0.2375 -0.5355 -0.4487
  905MOL0     C19369   8.688   0.016   4.765 -0.5173  0.7051  0.2086
  905MOL0     C19370   8.597  -0.009   4.881 -0.2612  1.2365  0.4902
  905MOL0     C19371   8.652   0.051   5.015  0.0738 -0.1386 -0.6275
  905MOL0    Cl19372   8.803  -0.019   5.059 -0.3059 -0.2468  0.1221
  905MOL0     C19373   9.367  -0.203   4.399  1.4181 -0.8460 -1.3769
  905MOL0     C19374   9.493  -0.268   4.422 -0.3496  0.3184 -0.1216
  905MOL0     O19375   9.669  -0.358   4.774 -0.0279 -0.4364 -0.2722
  905MOL0     C19376   9.919  -0.492   4.553 -0.1476 -0.2645 -0.1847
  905MOL0     C19377  10.026  -0.571   4.557  0.1590  0.3801 -0.6951
  905MOL0     N19378  10.427  -0.218   4.437 -0.2211  0.6096 -0.6850
  905MOL0     N19379  10.458  -0.128   4.343  0.9356  0.2949  0.8467
  905MOL0     C19380  10.247   0.423   3.755 -0.9456  0.3036  0.0242
  905MOL0     C19381  10.230   0.560   3.781 -0.1223 -0.8574  0.6041
  905MOL0     C19382  10.312   0.997   3.744 -0.0930  0.1418 -0.2434
  905MOL0     C19383  10.187   1.052   3.752 -0.0494 -0.5619  0.7649
  905MOL0     C19384  10.169   1.193   3.776 -0.2973 -0.0068 -0.2356
  905MOL0     C19385  10.277   1.269   3.819 -0.3652  0.1782  0.7925
  905MOL0     O19386  10.260   1.399   3.859 -0.3200  0.1896 -0.5973
  905MOL0     C19387  10.343   1.483   3.789 -1.0728 -0.5768 -0.2149
  905MOL0     C19388  10.453   1.544   3.865 -0.4252  0.8277 -0.5070
  905MOL0     C19389  10.451   1.694   3.854 -0.0622 -1.0229  0.0192
  905MOL0     C19390  10.477   1.744   3.705 -0.1695  0.0343 -0.4088
  905MOL0     C19391  10.490   1.890   3.705 -1.0833 -0.2044 -0.5257
  905MOL0     C19392  10.493   2.009   3.696 -0.2812 -0.6240  0.6289
  905MOL0     C19393  10.407   1.214   3.820 -0.5786 -0.8340 -0.5384
  905MOL0     C19394  10.430   1.080   3.794 -0.6461  0.4837  0.3509
  905MOL0     H19395  10.200   0.674   3.462 -0.0742 -3.2890 -3.2379
  905MOL0     H19396  10.219   0.420   3.419  2.3906 -2.1953 -0.3032
  905MOL0     H19397  10.417   0.278   3.481 -0.7415 -0.4956 -4.8924
  905MOL0     H19398  10.303   0.161   3.423 -0.3776 -1.4430  0.1181
  905MOL0     H19399  10.515   0.046   3.492  1.4362  2.2693 -1.1048
  905MOL0     H19400  10.398  -0.007   3.601 -0.4696  0.4388  0.2548
  905MOL0     H19401  10.466   0.177   3.769 -0.7810 -0.2772 -0.2049
  905MOL0     H19402  10.585   0.234   3.659  2.3056  0.3051  3.5118
  905MOL0     H19403  10.648  -0.035   3.662 -1.3637  0.5401 -0.3096
  905MOL0     H19404  10.737   0.095   3.753  1.2564 -2.7069  1.1168
  905MOL0     H19405  10.517  -0.091   3.864 -0.3088 -1.0993  1.4117
  905MOL0     H19406  10.557   0.065   3.938 -0.2427 -1.4620  0.7747
  905MOL0     H19407  10.802  -0.008   3.952 -0.9938  2.1392 -0.1419
  905MOL0     H19408  10.767  -0.154   3.865  0.1528 -0.3526  0.4114
  905MOL0     H19409  10.604  -0.227   4.043 -1.1746  2.0971  0.2333
  905MOL0     H19410  10.772  -0.221   4.097 -0.2603 -0.3925  0.0760
  905MOL0     H19411  10.579  -0.002   4.137 -2.7029 -1.1089  0.2973
  905MOL0     H19412  10.730  -0.038   4.222 -0.6105  1.6631 -0.7366
  905MOL0     H19413  10.703  -0.344   4.297 -0.1929 -0.1166  0.3452
  905MOL0     H19414  10.608  -0.416   4.589 -1.2299  3.5274  0.4598
  905MOL0     H19415  10.569  -0.509   4.438  1.3269 -0.7273  1.6597
  905MOL0     H19416  10.320  -0.487   4.508  0.0108  2.5086  0.4734
  905MOL0     H19417  10.385  -0.407   4.658  2.6053  2.4336 -0.7358
  905MOL0     H19418  10.466  -0.680   4.581  0.2220  0.2541 -0.3795
  905MOL0     H19419  10.512  -0.593   4.723 -0.8644  0.1410  0.7765
  905MOL0     H19420  10.272  -0.577   4.794  2.2155  0.3332  1.7690
  905MOL0     H19421  10.329  -0.749   4.803 -2.3220  0.2794  1.4648
  905MOL0     H19422  10.069  -0.633   4.879 -1.2546 -1.9542 -0.0652
  905MOL0     H19423   9.824  -0.517   4.878 -0.3506 -0.6070 -1.6188
  905MOL0     H19424   9.435  -0.443   4.711  0.9183  0.1814 -0.5034
  905MOL0     H19425   9.201  -0.379   4.657 -0.5088 -0.3690  1.1419
  905MOL0     H19426   9.141  -0.058   4.323 -0.7349  0.3331 -0.7138
  905MOL0     H19427   9.139  -0.001   4.483 -0.0580  0.4821 -0.6011
  905MOL0     H19428   8.907  -0.115   4.326  1.1962 -1.5119  0.4050
  905MOL0     H19429   8.938   0.057   4.378  0.0252 -0.3095 -1.5078
  905MOL0     H19430   8.926  -0.028   4.618 -4.3762  0.2651  2.1979
  905MOL0     H19431   8.857  -0.175   4.551 -0.4302  0.5819  1.4657
  905MOL0     H19432   8.738   0.097   4.499 -0.8169  1.6099  1.3803
  905MOL0     H19433   8.673  -0.051   4.428  0.7941  0.2530 -0.6161
  905MOL0     H19434   8.633  -0.151   4.659 -2.2031 -0.1286  2.4428
  905MOL0     H19435   8.532  -0.012   4.619 -0.6926 -0.4580  1.6218
  905MOL0     H19436   8.723   0.119   4.754 -1.6095  1.3132  2.0562
  905MOL0     H19437   8.778  -0.038   4.795 -1.9785  0.3475  4.5752
  905MOL0     H19438   8.495   0.024   4.859 -1.5058 -3.4298 -2.1311
  905MOL0     H19439   8.583  -0.116   4.904  1.2789  0.7203 -0.8595
  905MOL0     H19440   8.581   0.031   5.096 -0.2677 -0.8976 -1.1008
  905MOL0     H19441   8.681   0.156   5.004 -0.8285 -0.0581 -2.7080
  905MOL0     H19442   9.342  -0.137   4.316  2.2181  1.6766  0.2481
  905MOL0     H19443   9.575  -0.238   4.357 -2.3068  1.3562 -2.2974
  905MOL0     H19444   9.893  -0.448   4.458 -0.3986 -1.3288 -0.6176
  905MOL0     H19445  10.062  -0.596   4.458  0.3986 -0.9518 -0.2823
  905MOL0     H19446  10.275   0.351   3.831 -0.4629 -0.7757 -1.1300
  905MOL0     H19447  10.229   0.588   3.885  1.8876  3.1970 -0.2857
  905MOL0     H19448  10.110   0.994   3.702  0.6813  0.8520 -2.2172
  905MOL0     H19449  10.073   1.244   3.777  0.6534  1.8916  1.5641
  905MOL0     H19450  10.277   1.568   3.769 -1.1035 -0.5383  0.0459
  905MOL0     H19451  10.365   1.448   3.688 -4.3177  0.7342 -1.5169
  905MOL0     H19452  10.438   1.513   3.969 -1.8872 -1.0642 -1.2359
  905MOL0     H19453  10.540   1.498   3.819  0.2442  2.2325 -0.6996
  905MOL0     H19454  10.522   1.733   3.927  2.3946 -3.1893 -1.0769
  905MOL0     H19455  10.350   1.721   3.887 -0.6328 -2.9275 -0.0901
  905MOL0     H19456  10.564   1.686   3.673 -1.0085 -1.1264 -0.6314
  905MOL0     H19457  10.405   1.711   3.629  1.0482  1.2967 -2.1905
  905MOL0     H19458  10.506   2.115   3.687  3.1506 -1.0577 -1.6402
  905MOL0     H19459  10.490   1.267   3.865  0.1274 -1.4854 -1.0439
  905MOL0     H19460  10.525   1.031   3.814 -0.2528  0.8743 -0.4852
  906MOL0     O19461  10.380   3.750   0.517 -0.7208  0.1047 -0.2595
  906MOL0     C19462  10.387   3.791   0.638  0.1898  0.6644  0.8614
  906MOL0     O19463  10.301   3.866   0.688 -0.2286 -0.0974  0.8077
  906MOL0     C19464  10.189   3.899   0.615  0.3970  0.4695 -0.1445
  906MOL0     C19465  10.078   3.815   0.624 -0.6732 -0.8548  0.0111
  906MOL0     C19466   9.971   3.844   0.541  0.7787  0.0407 -0.9918
  906MOL0     C19467   9.966   3.957   0.461 -0.0397  0.7579 -0.5559
  906MOL0     O19468   9.855   3.985   0.383 -0.2986 -0.5914  0.8517
  906MOL0     C19469   9.730   3.927   0.406  1.5775  0.5669 -0.4708
  906MOL0     C19470   9.625   3.974   0.305 -0.0271 -0.5066  0.1347
  906MOL0     C19471   9.485   3.901   0.318 -0.4871 -0.3503 -0.1587
  906MOL0     C19472   9.381   3.966   0.222 -0.0162  0.1071 -0.0281
  906MOL0     C19473   9.240   3.936   0.277  0.1663  1.0939  0.3140
  906MOL0     C19474   9.126   3.990   0.187 -0.2905 -0.2441 -0.1271
  906MOL0     C19475   8.989   3.987   0.247 -0.4931 -0.5568 -0.1106
  906MOL0     C19476   8.878   4.029   0.140  0.0737  0.2301  0.4727
  906MOL0     N19477   8.871   4.172   0.115  0.0020  1.0416 -0.6311
  906MOL0     C19478   8.788   4.248   0.182  0.6669 -0.8882 -0.7254
  906MOL0     C19479   8.816   4.372   0.139 -0.4665  0.6664  0.1561
  906MOL0     C19480   8.761   4.498   0.187  0.3342 -0.1742  0.8074
  906MOL0     C19481   8.610   4.527   0.163 -0.2616  0.0932  0.5386
  906MOL0     C19482   8.571   4.656   0.216 -0.1243  0.3277  1.0304
  906MOL0     C19483   8.419   4.681   0.171  0.1505 -0.0143  0.1552
  906MOL0     O19484   8.387   4.707   0.027 -0.0657  0.3687  0.1500
  906MOL0     C19485   8.262   4.744  -0.014 -1.1384  0.1686 -0.7082
  906MOL0     C19486   8.237   4.792  -0.144 -1.3828 -0.4836 -0.4427
  906MOL0     C19487   8.111   4.834  -0.192 -0.1736 -0.0244  0.8151
  906MOL0     C19488   8.001   4.843  -0.108  0.3239  0.2192  1.1783
  906MOL0     C19489   7.869   4.888  -0.169 -0.5540 -0.1788 -0.5606
  906MOL0     O19490   7.848   4.876  -0.297  0.6635  0.0053  0.5306
  906MOL0     C19491   7.735   4.929  -0.361  0.8017  0.4538  0.2916
  906MOL0     C19492   7.643   5.029  -0.325  0.1924 -0.7255  0.3051
  906MOL0     C19493   7.544   5.078  -0.410  0.5064  0.0090 -0.0904
  906MOL0     C19494   7.544   5.031  -0.537  0.7888  0.2686  0.0793
  906MOL0     O19495   7.452   5.085  -0.623 -0.2221 -0.3529 -0.1906
  906MOL0     C19496   7.432   5.226  -0.621  0.1825  0.2817  0.5727
  906MOL0     C19497   7.430   5.283  -0.763  0.5580 -0.4095  0.7997
  906MOL0     C19498   7.343   5.197  -0.864  0.4583  0.2338 -0.4000
  906MOL0     C19499   7.194   5.230  -0.835  0.2004  0.6821 -0.9662
  906MOL0     C19500   7.094   5.167  -0.935 -0.4483  0.1072 -0.4413
  906MOL0     C19501   7.111   5.234  -1.069 -0.0578  0.4302 -0.2893
  906MOL0     C19502   7.005   5.187  -1.166  0.3053 -0.5476 -0.7168
  906MOL0     C19503   7.029   5.246  -1.306 -0.9737 -0.5008 -0.0364
  906MOL0    Cl19504   6.919   5.155  -1.413  0.0776  0.0162 -0.0333
  906MOL0     C19505   7.632   4.929  -0.581  0.3489  0.0296 -0.5395
  906MOL0     C19506   7.713   4.866  -0.486  0.1670 -0.6826  0.2432
  906MOL0     O19507   7.785   4.920  -0.085 -0.2028 -0.1598  0.2082
  906MOL0     C19508   8.024   4.798   0.023  0.3697 -0.3607  0.3549
  906MOL0     C19509   8.145   4.745   0.067 -0.5089 -0.5357 -0.2765
  906MOL0     N19510   8.918   4.367   0.047 -0.3592  0.7257  0.7196
  906MOL0     N19511   8.933   4.242   0.023 -0.6638 -0.1884 -0.3842
  906MOL0     C19512  10.076   4.041   0.462 -0.3984 -0.0887  0.2596
  906MOL0     C19513  10.193   4.011   0.528  0.0117  0.4781 -0.6826
  906MOL0     C19514  10.506   3.762   0.710  1.0344  1.0800  0.0982
  906MOL0     C19515  10.526   3.794   0.844 -0.0594 -0.1275  0.1469
  906MOL0     C19516  10.642   3.773   0.909  1.2132  0.2907 -1.0586
  906MOL0     C19517  10.753   3.715   0.844  0.0022  0.0016 -0.6809
  906MOL0     O19518  10.872   3.683   0.908 -0.2153 -0.5260  0.5601
  906MOL0     C19519  10.895   3.683   1.051 -0.5458  0.0399 -0.5203
  906MOL0     C19520  11.037   3.623   1.082  0.4962 -0.5284  0.0974
  906MOL0     C19521  11.143   3.715   1.033 -0.0020 -0.2149 -0.1861
  906MOL0     C19522  11.283   3.651   1.041  0.2107 -0.1158  0.2815
  906MOL0     C19523  11.314   3.636   1.187 -0.2734  0.1815 -0.5417
  906MOL0     C19524  11.330   3.629   1.312 -1.1293 -0.1103  1.1654
  906MOL0     C19525  10.747   3.692   0.709  0.3968 -1.0519  0.3257
  906MOL0     C19526  10.626   3.700   0.645  0.8094  0.2397  0.2798
  906MOL0     H19527  10.093   3.720   0.675 -1.8137 -0.8292  0.4343
  906MOL0     H19528   9.891   3.772   0.526  0.2197 -0.1469  2.1711
  906MOL0     H19529   9.689   3.961   0.502  2.9153  2.9591 -0.6504
  906MOL0     H19530   9.735   3.818   0.411  2.0181  0.6260  0.6987
  906MOL0     H19531   9.659   3.962   0.202  0.0740 -0.8891  0.2116
  906MOL0     H19532   9.602   4.080   0.317  0.2206 -0.1104 -2.3679
  906MOL0     H19533   9.456   3.912   0.423  0.2408 -1.0200  0.1309
  906MOL0     H19534   9.501   3.795   0.297 -0.6379 -0.5892  0.8723
  906MOL0     H19535   9.395   4.074   0.233  1.6464 -0.1910  1.2121
  906MOL0     H19536   9.399   3.935   0.119  1.7549  3.0518 -0.7143
  906MOL0     H19537   9.220   3.970   0.379 -0.1690 -1.9319  1.3386
  906MOL0     H19538   9.239   3.827   0.271  1.3339  1.1258 -1.4339
  906MOL0     H19539   9.125   3.925   0.099 -2.1966  1.3989 -1.4046
  906MOL0     H19540   9.140   4.096   0.166  2.3364 -0.5425 -0.2818
  906MOL0     H19541   8.975   3.881   0.272  1.3246 -1.1524 -1.4271
  906MOL0     H19542   8.972   4.050   0.335 -2.5635  1.7961 -2.0327
  906MOL0     H19543   8.782   3.992   0.179 -0.7350 -0.7146 -2.2489
  906MOL0     H19544   8.902   3.976   0.048  3.7115  1.3789  0.5810
  906MOL0     H19545   8.728   4.246   0.273  0.3380  3.6480 -0.6152
  906MOL0     H19546   8.811   4.565   0.116  0.9763 -0.5993  0.8522
  906MOL0     H19547   8.790   4.520   0.291  0.8120 -1.9070  1.0772
  906MOL0     H19548   8.558   4.446   0.215  1.8575 -2.5755 -1.2021
  906MOL0     H19549   8.591   4.524   0.055  1.5444 -0.5263  0.2112
  906MOL0     H19550   8.584   4.664   0.325  2.9282  1.5707  0.6955
  906MOL0     H19551   8.634   4.731   0.168 -2.0866  0.7319 -1.0520
  906MOL0     H19552   8.384   4.774   0.217 -2.0186 -1.3363  1.3378
  906MOL0     H19553   8.365   4.593   0.208  1.0753 -3.2647 -5.1172
  906MOL0     H19554   8.316   4.797  -0.218 -1.2618  3.3325 -0.2355
  906MOL0     H19555   8.099   4.875  -0.292  1.2799 -0.6006  0.3821
  906MOL0     H19556   7.645   5.076  -0.227 -2.0987  0.1956 -0.0016
  906MOL0     H19557   7.462   5.141  -0.377  0.7231  1.8781 -2.7473
  906MOL0     H19558   7.500   5.286  -0.559 -0.9100  4.1422 -1.6062
  906MOL0     H19559   7.332   5.242  -0.581  0.3172 -1.9879  1.9445
  906MOL0     H19560   7.532   5.279  -0.801  0.4185  1.0270  0.2335
  906MOL0     H19561   7.395   5.386  -0.757 -0.3181 -0.4107 -2.4269
  906MOL0     H19562   7.376   5.093  -0.869  0.7978  0.2666  0.9215
  906MOL0     H19563   7.356   5.240  -0.965 -3.3233  2.1416 -0.2563
  906MOL0     H19564   7.168   5.193  -0.736 -1.2895  0.7762 -1.2941
  906MOL0     H19565   7.175   5.337  -0.835  1.2641  1.0134  3.1086
  906MOL0     H19566   6.992   5.179  -0.896 -0.9125  0.9836 -1.8586
  906MOL0     H19567   7.111   5.059  -0.948 -0.1381  0.2930 -1.6099
  906MOL0     H19568   7.201   5.207  -1.126  0.0820  4.2787 -2.2131
  906MOL0     H19569   7.105   5.343  -1.057 -2.2538  0.1534  1.6554
  906MOL0     H19570   7.005   5.078  -1.178  1.8356 -0.9115  1.8061
  906MOL0     H19571   6.902   5.215  -1.141 -0.1133 -0.5318 -2.3507
  906MOL0     H19572   7.129   5.219  -1.342 -1.3059  0.0118 -1.3825
  906MOL0     H19573   7.021   5.354  -1.299  0.0126 -0.1901 -2.6352
  906MOL0     H19574   7.603   4.885  -0.675  0.3069 -2.6476  0.6359
  906MOL0     H19575   7.767   4.774  -0.507 -1.6336 -2.8680  4.1494
  906MOL0     H19576   7.939   4.783   0.090  0.3691  1.1495  0.7514
  906MOL0     H19577   8.146   4.700   0.166 -3.0776 -0.0361  0.0471
  906MOL0     H19578  10.079   4.123   0.391 -1.5328 -0.6873 -0.5098
  906MOL0     H19579  10.278   4.077   0.514  1.4561 -0.6492  1.9986
  906MOL0     H19580  10.446   3.841   0.899  1.0659  0.8409  1.0057
  906MOL0     H19581  10.655   3.807   1.011  2.7333 -0.5437 -0.9454
  906MOL0     H19582  10.816   3.627   1.102 -1.4073  0.3362 -1.4953
  906MOL0     H19583  10.893   3.781   1.099  0.2092  0.4499 -1.3009
  906MOL0     H19584  11.061   3.627   1.189  1.9979  1.6467 -0.2658
  906MOL0     H19585  11.057   3.521   1.047  2.2480 -0.0434 -0.3900
  906MOL0     H19586  11.146   3.808   1.091  2.1125 -1.2926  1.5831
  906MOL0     H19587  11.137   3.745   0.928 -0.1833  1.4586  0.2692
  906MOL0     H19588  11.286   3.562   0.978  4.0556  0.4115 -0.5332
  906MOL0     H19589  11.364   3.715   1.006  2.5059 -1.8567  2.0251
  906MOL0     H19590  11.334   3.623   1.418  0.1860 -1.0535  1.0908
  906MOL0     H19591  10.835   3.659   0.656  0.0668 -1.0494 -0.2236
  906MOL0     H19592  10.617   3.672   0.541 -1.4880 -0.4730  0.5995
  907MOL0     O19593   0.881   2.298   9.313  0.4718 -0.5854 -0.3802
  907MOL0     C19594   0.905   2.246   9.202  0.3397  0.3084 -0.0732
  907MOL0     O19595   1.003   2.166   9.160 -0.9387 -0.0429 -0.1420
  907MOL0     C19596   1.081   2.092   9.251  0.4766  0.3043 -0.0750
  907MOL0     C19597   1.211   2.062   9.224 -0.7002 -0.2062  1.0145
  907MOL0     C19598   1.291   1.992   9.314 -0.6173 -1.5063  0.6986
  907MOL0     C19599   1.245   1.963   9.443 -0.1228  0.0157  0.3567
  907MOL0     O19600   1.339   1.890   9.518 -0.4933 -0.8848  0.0763
  907MOL0     C19601   1.287   1.808   9.628 -0.2250  0.1254  0.1048
  907MOL0     C19602   1.396   1.713   9.673 -0.3703  0.1518  0.1237
  907MOL0     C19603   1.499   1.647   9.572 -0.1701  0.1246  0.5470
  907MOL0     C19604   1.629   1.606   9.651  0.1774 -0.1195 -0.7006
  907MOL0     C19605   1.720   1.732   9.671 -0.3394  0.6850  0.9049
  907MOL0     C19606   1.777   1.765   9.527 -0.5957 -0.7460 -0.1231
  907MOL0     C19607   1.889   1.879   9.499 -0.1985  0.8792 -0.3129
  907MOL0     C19608   2.032   1.827   9.544  0.2497  0.0449 -0.4655
  907MOL0     N19609   2.084   1.719   9.460 -0.2215 -0.7219  0.1750
  907MOL0     C19610   2.133   1.743   9.332  0.5132  0.3032 -0.1246
  907MOL0     C19611   2.224   1.647   9.312 -0.6072  0.7754  0.6723
  907MOL0     C19612   2.332   1.628   9.213 -0.2050  1.1485  0.2488
  907MOL0     C19613   2.306   1.495   9.154  0.1431  0.1541 -0.4992
  907MOL0     C19614   2.214   1.478   9.039  0.5427 -0.9659  0.4738
  907MOL0     C19615   2.198   1.335   8.993  0.2674 -0.6358  0.0519
  907MOL0     O19616   2.310   1.286   8.906 -0.0389  1.1315 -0.0787
  907MOL0     C19617   2.302   1.299   8.773 -0.2189  0.4826 -0.6486
  907MOL0     C19618   2.390   1.231   8.700 -1.1243  0.0078  0.6164
  907MOL0     C19619   2.401   1.234   8.562  0.0283 -0.1923  0.0160
  907MOL0     C19620   2.314   1.313   8.496  0.3106 -0.2722  0.6582
  907MOL0     C19621   2.320   1.326   8.349  0.2524 -0.1607  0.4513
  907MOL0     O19622   2.405   1.240   8.283  0.2682  0.0990 -0.3028
  907MOL0     C19623   2.429   1.255   8.148  0.5306  0.0896  0.0337
  907MOL0     C19624   2.455   1.377   8.084 -0.4509  0.0019 -0.1409
  907MOL0     C19625   2.474   1.379   7.942 -0.0916 -0.4426  0.3255
  907MOL0     C19626   2.465   1.257   7.867  0.3307  0.0406  0.3654
  907MOL0     O19627   2.473   1.250   7.730 -0.0062 -0.0416  0.2142
  907MOL0     C19628   2.507   1.354   7.632  0.6024  0.1379 -0.6446
  907MOL0     C19629   2.396   1.471   7.605  0.2745  1.1058  0.4385
  907MOL0     C19630   2.261   1.409   7.568  1.0499  1.5474  0.2593
  907MOL0     C19631   2.158   1.506   7.521 -0.5524  0.3773  0.2514
  907MOL0     C19632   2.028   1.439   7.480 -0.2926  0.4144 -0.3030
  907MOL0     C19633   2.025   1.330   7.375  0.3381 -0.1436 -0.1972
  907MOL0     C19634   2.053   1.389   7.235 -0.3994 -0.4572  0.1959
  907MOL0     C19635   1.982   1.321   7.112 -1.3645  0.2984 -1.4995
  907MOL0    Cl19636   1.811   1.361   7.124  0.1865  0.5408  0.0209
  907MOL0     C19637   2.447   1.132   7.941 -0.4035  1.0571  0.6324
  907MOL0     C19638   2.429   1.136   8.078 -0.0974 -0.1535  0.4245
  907MOL0     O19639   2.251   1.414   8.297  0.2628  0.0838 -0.1782
  907MOL0     C19640   2.227   1.396   8.564 -0.1742 -0.4628 -0.4263
  907MOL0     C19641   2.219   1.381   8.709  0.1373  0.5190 -0.2740
  907MOL0     N19642   2.210   1.555   9.411  0.4110  0.1198 -0.9598
  907MOL0     N19643   2.129   1.601   9.504  0.0559  0.1969  0.0813
  907MOL0     C19644   1.109   1.992   9.469  0.5796 -0.3035 -0.9331
  907MOL0     C19645   1.027   2.047   9.375  0.5174 -0.2165 -0.1460
  907MOL0     C19646   0.808   2.272   9.087 -0.0750 -0.6619 -0.3368
  907MOL0     C19647   0.685   2.331   9.105  0.0840  0.1878  0.5481
  907MOL0     C19648   0.595   2.347   9.003 -0.3729 -0.5970 -0.4856
  907MOL0     C19649   0.631   2.312   8.870 -0.2803 -1.1430  0.6164
  907MOL0     O19650   0.552   2.320   8.758  0.5364 -0.4667  0.2534
  907MOL0     C19651   0.424   2.386   8.762 -0.6147  0.5503 -1.0551
  907MOL0     C19652   0.435   2.535   8.768 -0.3631 -0.0462 -0.3898
  907MOL0     C19653   0.305   2.596   8.812 -0.0230  0.1650 -0.5835
  907MOL0     C19654   0.254   2.710   8.721 -1.0964 -0.3469  0.2310
  907MOL0     C19655   0.216   2.661   8.593 -0.7276  0.6526  0.7448
  907MOL0     C19656   0.187   2.634   8.477 -0.2745  0.0607  0.6218
  907MOL0     C19657   0.739   2.228   8.855 -0.0021 -0.1495  0.1364
  907MOL0     C19658   0.825   2.202   8.964  1.2241 -0.3148  0.4354
  907MOL0     H19659   1.246   2.092   9.126  0.8549 -1.5403  1.1202
  907MOL0     H19660   1.391   1.958   9.288 -0.1460 -1.5214  2.4167
  907MOL0     H19661   1.202   1.754   9.587  0.1708  0.9279 -1.8563
  907MOL0     H19662   1.252   1.864   9.716 -2.0756 -2.2934  1.0277
  907MOL0     H19663   1.349   1.626   9.720  1.5920  0.1935  2.3975
  907MOL0     H19664   1.456   1.753   9.756  0.6497 -3.9239  1.5967
  907MOL0     H19665   1.516   1.711   9.485 -2.9646  1.4675  0.8580
  907MOL0     H19666   1.454   1.552   9.540  0.9855 -0.1513 -0.3166
  907MOL0     H19667   1.601   1.555   9.744 -2.2115 -1.5857 -2.1143
  907MOL0     H19668   1.690   1.529   9.603 -1.2192 -1.7070 -0.0685
  907MOL0     H19669   1.813   1.710   9.724  2.7308 -1.0881 -4.3896
  907MOL0     H19670   1.669   1.820   9.713 -0.1306 -0.2632  3.2964
  907MOL0     H19671   1.697   1.812   9.469  1.3072  1.4383 -1.1605
  907MOL0     H19672   1.799   1.669   9.480 -0.9422 -0.6152 -0.5528
  907MOL0     H19673   1.886   1.924   9.400  3.1176 -0.2706 -1.0727
  907MOL0     H19674   1.870   1.964   9.566  0.0455  0.2226  0.6221
  907MOL0     H19675   2.021   1.791   9.646 -0.5128  0.9704 -0.2061
  907MOL0     H19676   2.083   1.923   9.547  0.9192 -0.3203 -0.0520
  907MOL0     H19677   2.119   1.830   9.269 -3.3608  0.2075  0.4059
  907MOL0     H19678   2.424   1.634   9.271  0.1583  0.5476 -0.2511
  907MOL0     H19679   2.340   1.701   9.131  1.4525  1.2415  0.4619
  907MOL0     H19680   2.288   1.419   9.231 -0.3951  0.0394 -0.7349
  907MOL0     H19681   2.401   1.449   9.127 -0.6219 -2.2282  0.5706
  907MOL0     H19682   2.118   1.529   9.054  0.9555  0.9046 -2.3327
  907MOL0     H19683   2.266   1.532   8.959  0.1628 -0.3804  0.6118
  907MOL0     H19684   2.106   1.334   8.933 -0.3120 -1.3602  0.9319
  907MOL0     H19685   2.178   1.268   9.077  3.3067  1.7251  2.8814
  907MOL0     H19686   2.467   1.183   8.760  0.6830  1.3010 -0.5718
  907MOL0     H19687   2.482   1.188   8.506  0.3658  0.8198 -0.3520
  907MOL0     H19688   2.454   1.471   8.140 -0.1211  0.5704 -1.0739
  907MOL0     H19689   2.508   1.474   7.901  0.2301 -1.5166 -2.0673
  907MOL0     H19690   2.528   1.303   7.538 -0.2717 -1.8386  0.1484
  907MOL0     H19691   2.602   1.400   7.660  1.3791 -1.1467 -1.0624
  907MOL0     H19692   2.435   1.541   7.531 -2.6832  1.8803 -0.5530
  907MOL0     H19693   2.382   1.525   7.699  0.1430  1.2544  0.3327
  907MOL0     H19694   2.233   1.360   7.661  2.7508 -0.8917 -0.4368
  907MOL0     H19695   2.280   1.328   7.497 -0.4263 -0.3695  1.9575
  907MOL0     H19696   2.137   1.577   7.601  0.2033  1.2344 -0.2889
  907MOL0     H19697   2.195   1.553   7.430 -1.9673 -1.4859 -1.3897
  907MOL0     H19698   1.952   1.513   7.452 -0.3937  0.7629  0.8403
  907MOL0     H19699   2.000   1.381   7.568  0.4113  0.0248 -0.3283
  907MOL0     H19700   1.927   1.285   7.391  1.5105 -2.1904  1.9542
  907MOL0     H19701   2.094   1.245   7.385  3.1579  1.6054 -3.1871
  907MOL0     H19702   2.029   1.495   7.242  2.1142  0.1306  0.7488
  907MOL0     H19703   2.159   1.383   7.209 -0.6752  0.5844 -1.2637
  907MOL0     H19704   1.991   1.213   7.127  3.0109  0.7299  0.4397
  907MOL0     H19705   2.023   1.361   7.019  3.7179 -0.2546  0.1837
  907MOL0     H19706   2.441   1.034   7.895 -0.0464  0.3909  1.9833
  907MOL0     H19707   2.412   1.046   8.136 -0.3891  1.3480  2.8479
  907MOL0     H19708   2.160   1.467   8.515 -1.9490 -1.5340  0.3311
  907MOL0     H19709   2.150   1.440   8.770 -2.3335 -4.6331  2.5815
  907MOL0     H19710   1.077   1.971   9.571  5.3683  0.9124  1.1151
  907MOL0     H19711   0.926   2.079   9.401 -0.0100 -0.9641 -1.2220
  907MOL0     H19712   0.658   2.354   9.208 -3.6741 -0.9711 -0.0332
  907MOL0     H19713   0.495   2.387   9.018 -0.0526 -0.4127  1.4630
  907MOL0     H19714   0.381   2.337   8.849  3.3828  0.0863  0.8477
  907MOL0     H19715   0.364   2.352   8.676  0.0679 -5.0788  0.3339
  907MOL0     H19716   0.521   2.561   8.831 -0.8391  0.6805 -0.0255
  907MOL0     H19717   0.466   2.574   8.671 -0.9513 -1.2273 -1.0708
  907MOL0     H19718   0.321   2.622   8.917  2.1330 -1.1450 -0.5352
  907MOL0     H19719   0.235   2.512   8.820  0.2038 -0.1777 -1.9481
  907MOL0     H19720   0.171   2.763   8.768 -0.4251  0.8835  0.0725
  907MOL0     H19721   0.339   2.775   8.698 -0.7797 -1.5418 -2.2888
  907MOL0     H19722   0.169   2.627   8.372 -0.3095 -2.0951  0.7139
  907MOL0     H19723   0.762   2.181   8.760 -0.4526  1.9102 -1.0435
  907MOL0     H19724   0.903   2.128   8.952 -1.5990 -3.3409 -1.3143
  908MOL0     O19725   9.368   1.093   7.674  0.4634  0.2456 -0.0772
  908MOL0     C19726   9.453   1.009   7.665 -0.0511  0.7583  0.2907
  908MOL0     O19727   9.515   0.963   7.553  0.1320  0.0041  0.0333
  908MOL0     C19728   9.495   1.024   7.433 -0.8058 -0.0554 -0.6706
  908MOL0     C19729   9.595   1.092   7.367 -0.0585 -1.1506  0.8204
  908MOL0     C19730   9.570   1.150   7.241 -0.4320  0.0616  0.2396
  908MOL0     C19731   9.444   1.145   7.175 -0.3313  0.3157 -0.8227
  908MOL0     O19732   9.431   1.193   7.046 -0.4277  0.5647 -0.2511
  908MOL0     C19733   9.299   1.184   6.983  0.1928  0.0437 -0.8353
  908MOL0     C19734   9.294   1.246   6.847 -0.2678  0.6884 -0.5914
  908MOL0     C19735   9.348   1.162   6.738 -0.8257  0.5321  0.3031
  908MOL0     C19736   9.337   1.222   6.593 -0.2957  0.0343  0.0546
  908MOL0     C19737   9.436   1.331   6.561  0.1124 -0.1879 -0.1087
  908MOL0     C19738   9.389   1.424   6.438  0.5455  0.9506  0.4714
  908MOL0     C19739   9.471   1.553   6.436 -0.0323  0.6471  1.2212
  908MOL0     C19740   9.443   1.637   6.309 -0.5419 -0.3277 -0.3191
  908MOL0     N19741   9.461   1.573   6.183 -0.3332 -0.0311  1.1722
  908MOL0     C19742   9.586   1.544   6.120  0.5991 -0.9621 -0.1366
  908MOL0     C19743   9.559   1.507   5.997 -0.7984 -0.5299  0.0884
  908MOL0     C19744   9.669   1.470   5.899 -0.5176  0.3556  0.5083
  908MOL0     C19745   9.768   1.367   5.947  0.0350  0.0407  0.2344
  908MOL0     C19746   9.720   1.224   5.944  0.6103  0.3545  0.2537
  908MOL0     C19747   9.787   1.125   6.037 -0.8324  0.3152 -0.5751
  908MOL0     O19748   9.785   1.168   6.177  0.5826 -0.0078 -0.1158
  908MOL0     C19749   9.720   1.092   6.267  0.2592  0.6710  0.5394
  908MOL0     C19750   9.778   1.088   6.395 -0.3551 -0.5750 -0.4424
  908MOL0     C19751   9.715   1.023   6.501  0.2963  0.1625 -0.0737
  908MOL0     C19752   9.594   0.944   6.476  0.0759  0.3159  0.6944
  908MOL0     C19753   9.537   0.878   6.600 -0.6161  0.1956 -0.1569
  908MOL0     O19754   9.603   0.898   6.721 -0.7932  0.4225  1.0933
  908MOL0     C19755   9.587   0.807   6.818  0.5167  0.2603 -0.0873
  908MOL0     C19756   9.509   0.831   6.934  0.2758  0.0747 -0.2547
  908MOL0     C19757   9.496   0.729   7.033 -0.1611  0.0173  0.4038
  908MOL0     C19758   9.571   0.610   7.027 -0.2555 -0.3272  0.4788
  908MOL0     O19759   9.564   0.507   7.115  0.3457  0.1528 -1.2147
  908MOL0     C19760   9.512   0.529   7.248  1.4262 -0.1144  0.2035
  908MOL0     C19761   9.594   0.449   7.355  0.2194 -0.1688 -0.3896
  908MOL0     C19762   9.519   0.411   7.484  0.6220 -0.8969  0.8401
  908MOL0     C19763   9.528   0.533   7.579 -0.6768 -0.2102  0.4476
  908MOL0     C19764   9.437   0.528   7.704  0.3682 -0.0507  0.2851
  908MOL0     C19765   9.466   0.407   7.785  1.4937  0.9101 -0.1541
  908MOL0     C19766   9.433   0.433   7.932  0.5732  0.4382  0.7246
  908MOL0     C19767   9.436   0.302   8.004 -0.5623  1.1993 -0.1822
  908MOL0    Cl19768   9.369   0.328   8.168 -0.2518 -0.1514 -0.1700
  908MOL0     C19769   9.633   0.580   6.900 -0.2414 -0.2553 -0.8696
  908MOL0     C19770   9.644   0.678   6.800  1.2019  0.9015 -0.0689
  908MOL0     O19771   9.438   0.812   6.583  0.0749 -0.2348  0.4908
  908MOL0     C19772   9.537   0.954   6.353  0.9068 -0.1061  0.3123
  908MOL0     C19773   9.602   1.018   6.239 -0.3538 -0.5792  0.0219
  908MOL0     N19774   9.421   1.508   5.979 -0.7885 -1.3350 -0.0900
  908MOL0     N19775   9.364   1.541   6.091 -0.3784  0.1903 -0.2683
  908MOL0     C19776   9.346   1.073   7.244 -0.4468  0.7409  0.2984
  908MOL0     C19777   9.377   1.015   7.369 -0.5245  0.6308 -0.8578
  908MOL0     C19778   9.492   0.956   7.804 -0.5839  0.7124 -0.3918
  908MOL0     C19779   9.615   0.889   7.818 -0.8047  0.0399 -0.1889
  908MOL0     C19780   9.665   0.842   7.938 -0.0240 -0.3460 -0.0757
  908MOL0     C19781   9.598   0.858   8.054 -0.4283  1.0029  0.5922
  908MOL0     O19782   9.658   0.807   8.168  0.3855  0.3197  0.0110
  908MOL0     C19783   9.595   0.833   8.298 -0.8418  1.1503  0.4050
  908MOL0     C19784   9.686   0.836   8.420  0.2775  0.5495 -0.7740
  908MOL0     C19785   9.738   0.688   8.459  1.1575 -0.2312  0.4274
  908MOL0     C19786   9.809   0.697   8.600  0.1655  0.1483  0.2502
  908MOL0     C19787   9.937   0.764   8.608 -0.4722 -0.7968 -0.6112
  908MOL0     C19788  10.031   0.840   8.625  0.6051  0.3975 -0.2886
  908MOL0     C19789   9.475   0.922   8.050  0.5987  0.7398  0.8323
  908MOL0     C19790   9.420   0.974   7.928 -0.2447 -0.1073 -0.5714
  908MOL0     H19791   9.688   1.117   7.418 -0.8466  0.9897  1.2992
  908MOL0     H19792   9.653   1.210   7.205  0.8445  1.2259  4.5416
  908MOL0     H19793   9.230   1.251   7.035  1.7552  0.9992  0.1139
  908MOL0     H19794   9.271   1.079   6.975 -2.0370  0.2802  2.1605
  908MOL0     H19795   9.323   1.350   6.865 -1.2384  0.7172  1.0601
  908MOL0     H19796   9.187   1.251   6.822 -0.0091 -2.2507 -2.8746
  908MOL0     H19797   9.297   1.065   6.747  2.5041 -1.2581  1.8308
  908MOL0     H19798   9.454   1.150   6.763 -0.5655  1.7370 -0.1814
  908MOL0     H19799   9.344   1.141   6.519 -0.7014 -2.8577  2.9601
  908MOL0     H19800   9.234   1.254   6.577  0.0964  0.2240 -2.7285
  908MOL0     H19801   9.529   1.282   6.532 -1.0695 -4.6247  2.6535
  908MOL0     H19802   9.444   1.394   6.650  0.5568  0.6633 -0.7338
  908MOL0     H19803   9.289   1.463   6.456  0.5970  1.1103  0.4101
  908MOL0     H19804   9.393   1.367   6.345 -0.2960  0.2159  0.8664
  908MOL0     H19805   9.453   1.604   6.531 -2.8296  0.3356  0.9549
  908MOL0     H19806   9.575   1.521   6.435 -1.2048 -3.9744  1.6745
  908MOL0     H19807   9.517   1.718   6.305 -1.1175  0.2241  0.1254
  908MOL0     H19808   9.345   1.684   6.305 -0.3878  0.0521  0.2771
  908MOL0     H19809   9.681   1.530   6.172  1.0741  0.5009 -0.5642
  908MOL0     H19810   9.725   1.564   5.892  0.0898  0.0456  1.1013
  908MOL0     H19811   9.645   1.460   5.793 -0.3150  1.0464  0.3885
  908MOL0     H19812   9.794   1.388   6.051  1.0453 -2.3050  0.5067
  908MOL0     H19813   9.863   1.369   5.892 -0.0840 -1.4095 -0.0569
  908MOL0     H19814   9.612   1.213   5.956  0.4132  0.2247 -1.4054
  908MOL0     H19815   9.739   1.186   5.843  0.9975  1.3012 -0.0368
  908MOL0     H19816   9.891   1.111   6.008 -0.4727  0.7996  0.4325
  908MOL0     H19817   9.744   1.027   6.018 -3.7909  1.5695 -0.8757
  908MOL0     H19818   9.870   1.141   6.417  0.8022 -1.5184 -2.7411
  908MOL0     H19819   9.760   1.024   6.600 -3.4315 -1.6951  1.8236
  908MOL0     H19820   9.472   0.933   6.944 -0.5248 -0.2233 -0.1078
  908MOL0     H19821   9.440   0.739   7.125  0.4263 -3.2660  1.2620
  908MOL0     H19822   9.408   0.496   7.248  1.4664 -0.2435 -0.0098
  908MOL0     H19823   9.528   0.631   7.284  1.0014 -0.3920  1.2065
  908MOL0     H19824   9.685   0.505   7.381 -0.4773  0.8812 -0.1675
  908MOL0     H19825   9.616   0.356   7.302 -1.1651  0.7585 -2.7320
  908MOL0     H19826   9.565   0.324   7.533  2.6044 -1.6359 -2.0682
  908MOL0     H19827   9.416   0.393   7.453  0.7131  0.0085 -0.0390
  908MOL0     H19828   9.633   0.539   7.610 -1.0124  1.0957  1.4235
  908MOL0     H19829   9.517   0.624   7.518  1.0433 -0.1627  0.1685
  908MOL0     H19830   9.338   0.541   7.661  1.0232  0.8774 -1.0337
  908MOL0     H19831   9.456   0.618   7.764 -1.8211  0.4079  0.3614
  908MOL0     H19832   9.575   0.399   7.784  1.6316  2.4518 -0.9340
  908MOL0     H19833   9.422   0.319   7.737 -2.5080  2.5427  0.1460
  908MOL0     H19834   9.499   0.506   7.981 -0.7899 -0.3668  4.0471
  908MOL0     H19835   9.330   0.468   7.934  0.6702  0.9105 -1.2913
  908MOL0     H19836   9.535   0.254   8.005 -1.1322 -0.0297 -1.0524
  908MOL0     H19837   9.378   0.231   7.945 -0.6870  0.9532  0.2282
  908MOL0     H19838   9.695   0.492   6.883  0.7140  0.0804  0.5840
  908MOL0     H19839   9.696   0.659   6.707  0.2517  3.4797 -1.2367
  908MOL0     H19840   9.441   0.906   6.336 -0.0287  2.4014 -2.0698
  908MOL0     H19841   9.557   0.996   6.142  1.3506 -0.6088 -0.7929
  908MOL0     H19842   9.250   1.052   7.198  0.4389  0.2260 -1.3906
  908MOL0     H19843   9.296   0.955   7.409 -0.1743 -0.5191 -1.7784
  908MOL0     H19844   9.668   0.873   7.725  1.7183  2.0222  0.7962
  908MOL0     H19845   9.762   0.794   7.942  0.0503 -0.1357  0.7917
  908MOL0     H19846   9.524   0.753   8.324  0.2009 -0.7274 -2.0330
  908MOL0     H19847   9.548   0.931   8.299  0.3223  1.7954 -1.6573
  908MOL0     H19848   9.783   0.879   8.394  0.0389  0.6631 -1.5164
  908MOL0     H19849   9.644   0.894   8.502  1.1023  0.1897 -0.0881
  908MOL0     H19850   9.796   0.647   8.376  0.4283  0.8741 -0.6649
  908MOL0     H19851   9.647   0.633   8.484 -2.0013  3.9741 -0.5632
  908MOL0     H19852   9.754   0.761   8.670  1.9204  0.0194  1.7953
  908MOL0     H19853   9.809   0.597   8.644  0.6045  0.3609  0.7434
  908MOL0     H19854  10.120   0.897   8.641  1.5586 -1.0705 -0.1652
  908MOL0     H19855   9.425   0.929   8.146  2.1911  1.6493  1.6209
  908MOL0     H19856   9.324   1.023   7.938 -0.6008 -1.2591  3.1180
  909MOL0     O19857   9.409  10.209   3.616 -1.3525  0.1806  1.0855
  909MOL0     C19858   9.497  10.154   3.681  0.1373  0.3495 -1.4698
  909MOL0     O19859   9.552  10.030   3.658 -0.6299 -0.5351 -0.1954
  909MOL0     C19860   9.495   9.960   3.561  0.3350  0.2054 -0.3828
  909MOL0     C19861   9.414   9.847   3.590  0.3137 -0.1794  0.1957
  909MOL0     C19862   9.346   9.783   3.481  0.7032  0.2153 -0.1137
  909MOL0     C19863   9.361   9.821   3.343 -0.2317  0.1190 -1.2395
  909MOL0     O19864   9.308   9.758   3.235 -0.9247  0.7660  0.5192
  909MOL0     C19865   9.241   9.629   3.254  0.5493 -0.5825 -0.1611
  909MOL0     C19866   9.091   9.661   3.273  0.0568 -0.1572  0.9606
  909MOL0     C19867   9.003   9.541   3.245  0.8577  1.0504  0.4179
  909MOL0     C19868   9.039   9.414   3.322 -0.2754 -0.1937 -0.2724
  909MOL0     C19869   8.947   9.292   3.309  0.1943  1.2653  1.1824
  909MOL0     C19870   8.926   9.233   3.171 -0.2295 -0.0235  0.8177
  909MOL0     C19871   8.824   9.122   3.189  0.6769  0.3671 -0.4991
  909MOL0     C19872   8.786   9.063   3.057  0.0438  0.8291 -0.4422
  909MOL0     N19873   8.689   8.962   3.063 -0.0523  0.9762  0.0923
  909MOL0     C19874   8.712   8.832   3.098 -0.6717  0.1171  0.4735
  909MOL0     C19875   8.597   8.754   3.059  0.6055 -1.2563  0.7562
  909MOL0     C19876   8.578   8.603   3.049  0.3252  0.5071  0.2406
  909MOL0     C19877   8.605   8.541   3.192  0.0885 -0.5447  0.5676
  909MOL0     C19878   8.490   8.544   3.282  1.0093  0.1313 -0.2196
  909MOL0     C19879   8.456   8.685   3.331 -0.2185 -0.3196  0.0512
  909MOL0     O19880   8.573   8.769   3.366 -0.3670  0.6799 -0.8713
  909MOL0     C19881   8.565   8.902   3.392 -0.4841 -0.4124 -0.1994
  909MOL0     C19882   8.658   8.957   3.488 -0.0297 -0.2177  0.7512
  909MOL0     C19883   8.649   9.096   3.528 -0.2628 -0.1017  0.3919
  909MOL0     C19884   8.562   9.185   3.461 -0.2409 -0.0104 -0.1122
  909MOL0     C19885   8.576   9.331   3.474 -0.4072 -0.6615 -0.0580
  909MOL0     O19886   8.538   9.405   3.366  0.1644 -0.3546  0.2971
  909MOL0     C19887   8.541   9.548   3.363 -0.0848 -0.6596  0.8350
  909MOL0     C19888   8.445   9.612   3.283  0.6606  0.1442 -0.3908
  909MOL0     C19889   8.429   9.751   3.278  0.5998 -0.0996 -0.5387
  909MOL0     C19890   8.524   9.830   3.342 -0.0984  0.2448  0.5520
  909MOL0     O19891   8.508   9.968   3.332  0.3315 -0.4219 -0.1481
  909MOL0     C19892   8.613  10.062   3.401 -0.6940  0.2460  0.6379
  909MOL0     C19893   8.571  10.087   3.546 -0.2702  0.3662  0.5342
  909MOL0     C19894   8.679  10.174   3.602  0.1872  0.7648 -0.0357
  909MOL0     C19895   8.636  10.244   3.732  0.1591 -0.7051 -0.2616
  909MOL0     C19896   8.744  10.333   3.800  0.3966 -0.3539  0.6358
  909MOL0     C19897   8.683  10.432   3.904  0.4110  0.3385 -0.5188
  909MOL0     C19898   8.647  10.352   4.029 -0.8422  0.7534 -0.7080
  909MOL0     C19899   8.602  10.439   4.147 -0.2338  0.0949  1.6182
  909MOL0    Cl19900   8.442  10.485   4.094 -0.1220  0.6637 -0.6201
  909MOL0     C19901   8.620   9.765   3.422  0.3904 -0.0640 -0.7778
  909MOL0     C19902   8.634   9.626   3.436 -0.5043 -0.3708  0.3685
  909MOL0     O19903   8.615   9.375   3.582  0.7353 -1.1132 -0.1092
  909MOL0     C19904   8.462   9.126   3.376 -0.0383  0.5198  0.3886
  909MOL0     C19905   8.463   8.987   3.346  1.7203 -0.3241 -0.0939
  909MOL0     N19906   8.517   8.854   2.997  1.3543  0.5820  0.9453
  909MOL0     N19907   8.573   8.968   2.997  0.6130  0.2940  0.3328
  909MOL0     C19908   9.443   9.935   3.320 -0.0782 -0.8490  0.4689
  909MOL0     C19909   9.497  10.000   3.430 -0.8289 -0.1317  0.1348
  909MOL0     C19910   9.560  10.234   3.791 -0.7364  0.2233 -0.2626
  909MOL0     C19911   9.654  10.179   3.882  0.2208  0.0622  0.3422
  909MOL0     C19912   9.696  10.257   3.979  0.6698 -0.3810 -0.7073
  909MOL0     C19913   9.652  10.387   4.004  0.8121  0.5364 -0.4288
  909MOL0     O19914   9.719  10.457   4.108 -0.5649  0.2531  0.3824
  909MOL0     C19915   9.652  10.567   4.167  0.4670  0.6645  0.6138
  909MOL0     C19916   9.731  10.591   4.304 -0.0651  0.1386  1.0305
  909MOL0     C19917   9.696  10.691   4.414  0.2751 -0.0198  0.2078
  909MOL0     C19918   9.550  10.716   4.408  0.4781 -0.6557 -0.4036
  909MOL0     C19919   9.524  10.812   4.301  0.5534  0.0021  0.3954
  909MOL0     C19920   9.500  10.887   4.204 -0.5070  0.0520 -0.7135
  909MOL0     C19921   9.548  10.434   3.925 -0.4394 -0.4162 -0.9393
  909MOL0     C19922   9.507  10.362   3.810  0.1878 -0.6803 -0.3071
  909MOL0     H19923   9.412   9.832   3.697  0.0830  0.0646  0.2264
  909MOL0     H19924   9.283   9.698   3.503  3.0193 -2.1776 -2.1415
  909MOL0     H19925   9.280   9.572   3.340  0.1669  1.5771  1.5329
  909MOL0     H19926   9.262   9.579   3.159  2.8384 -1.7701  0.8847
  909MOL0     H19927   9.058   9.725   3.190 -1.2582 -0.5140  1.1978
  909MOL0     H19928   9.082   9.706   3.372 -0.9398  2.5462 -0.2526
  909MOL0     H19929   9.022   9.516   3.140 -0.8422 -0.7429  0.4878
  909MOL0     H19930   8.898   9.565   3.265 -0.0342  4.6669 -5.9811
  909MOL0     H19931   9.142   9.379   3.313  0.2593  1.6167 -1.8751
  909MOL0     H19932   9.023   9.447   3.425  1.1538 -2.0662  0.6151
  909MOL0     H19933   8.854   9.319   3.360 -0.9702 -2.2461  1.2044
  909MOL0     H19934   9.007   9.213   3.356  0.7174  1.6757  1.2168
  909MOL0     H19935   9.024   9.196   3.140  0.3431  0.0527  2.4424
  909MOL0     H19936   8.893   9.321   3.115 -1.6243 -0.3392  1.1130
  909MOL0     H19937   8.857   9.037   3.249 -5.3992 -2.6195 -0.5895
  909MOL0     H19938   8.734   9.162   3.237  0.8784 -1.2148  1.3418
  909MOL0     H19939   8.873   9.018   3.008 -1.0082 -1.0038 -0.7103
  909MOL0     H19940   8.756   9.133   2.979 -0.1674 -1.9156 -2.9931
  909MOL0     H19941   8.801   8.770   3.113 -2.8695 -3.3613  0.2918
  909MOL0     H19942   8.650   8.571   2.972  1.7308  4.0558 -0.1060
  909MOL0     H19943   8.476   8.580   3.018 -0.0912  2.7225 -0.1782
  909MOL0     H19944   8.694   8.594   3.229 -0.4989 -1.1725  3.0549
  909MOL0     H19945   8.646   8.440   3.183 -0.4936 -0.8661  1.4122
  909MOL0     H19946   8.401   8.502   3.232 -0.6222 -2.1072  4.0038
  909MOL0     H19947   8.515   8.479   3.366  4.4576  1.4458 -0.0765
  909MOL0     H19948   8.395   8.686   3.421 -2.9658  0.2292 -1.6985
  909MOL0     H19949   8.390   8.742   3.265  0.8740  1.9257  0.7861
  909MOL0     H19950   8.744   8.897   3.518  0.5785 -0.5175 -1.4053
  909MOL0     H19951   8.704   9.146   3.607 -1.1627 -1.1402  1.7314
  909MOL0     H19952   8.370   9.556   3.228  0.4146  0.5261 -0.4495
  909MOL0     H19953   8.340   9.785   3.226 -1.5796 -1.0578  2.2597
  909MOL0     H19954   8.622  10.164   3.360 -1.1424 -0.4212 -1.2374
  909MOL0     H19955   8.715  10.024   3.388 -0.0266  2.5340 -1.9105
  909MOL0     H19956   8.572   9.990   3.597 -1.5520 -1.2423 -2.2589
  909MOL0     H19957   8.473  10.134   3.542  0.9603  3.0298 -1.7344
  909MOL0     H19958   8.719  10.246   3.530 -0.9398  2.1428  0.6658
  909MOL0     H19959   8.754  10.099   3.629  0.7817  0.7498 -1.6523
  909MOL0     H19960   8.548  10.306   3.710 -1.7069 -2.1024  2.7481
  909MOL0     H19961   8.605  10.177   3.812  1.4547 -1.3000 -0.2366
  909MOL0     H19962   8.787  10.404   3.729 -3.6505  2.5513  0.7426
  909MOL0     H19963   8.826  10.271   3.837 -0.0848 -2.3047 -1.3488
  909MOL0     H19964   8.587  10.475   3.874  0.9360  1.1681 -1.0456
  909MOL0     H19965   8.764  10.500   3.931  1.2397 -1.0750  0.6943
  909MOL0     H19966   8.583  10.265   4.008  0.7895 -0.2398 -1.8691
  909MOL0     H19967   8.743  10.313   4.064  0.5091  2.2893 -2.5114
  909MOL0     H19968   8.657  10.529   4.176 -0.0626  0.2221  0.8999
  909MOL0     H19969   8.592  10.362   4.225  0.5893 -3.0479 -1.1629
  909MOL0     H19970   8.686   9.833   3.474 -0.0358 -1.3789  1.6050
  909MOL0     H19971   8.696   9.589   3.517 -1.3287  2.4462  2.4618
  909MOL0     H19972   8.384   9.185   3.329  1.3410  1.1965 -1.1684
  909MOL0     H19973   8.379   8.941   3.295  0.7632 -1.1523  2.0692
  909MOL0     H19974   9.468   9.961   3.218 -0.2432  2.9109  1.2544
  909MOL0     H19975   9.568  10.080   3.412 -0.0528 -0.7682  0.3141
  909MOL0     H19976   9.704  10.084   3.867  1.5218  0.4376  1.9827
  909MOL0     H19977   9.780  10.235   4.044 -1.3277 -0.2204  2.1645
  909MOL0     H19978   9.554  10.528   4.198 -0.6938  2.5781 -0.4617
  909MOL0     H19979   9.635  10.653   4.102 -1.5683  0.5772  0.9732
  909MOL0     H19980   9.747  10.492   4.348  2.2056  0.0205  0.0866
  909MOL0     H19981   9.828  10.621   4.264 -1.3125  5.0338  1.0724
  909MOL0     H19982   9.750  10.784   4.398  0.3516 -0.0117  0.5194
  909MOL0     H19983   9.730  10.660   4.513  0.0498  1.8037  0.8818
  909MOL0     H19984   9.485  10.632   4.383 -1.0406  0.9705 -2.3666
  909MOL0     H19985   9.514  10.753   4.504  2.0719  2.0935 -0.7340
  909MOL0     H19986   9.465  10.963   4.137 -1.8995 -0.9080 -1.1403
  909MOL0     H19987   9.509  10.533   3.946  3.0550  1.2713 -1.6409
  909MOL0     H19988   9.432  10.401   3.743 -0.6703 -2.5423 -0.4963
  910MOL0     O19989   3.020   0.036   9.941  1.0092 -0.3207  0.1579
  910MOL0     C19990   3.127   0.003   9.983  1.5559  1.0783  0.9560
  910MOL0     O19991   3.161  -0.131   9.988 -0.0677 -0.3195 -1.1100
  910MOL0     C19992   3.095  -0.216   9.914  0.3498  0.8511 -0.4264
  910MOL0     C19993   3.029  -0.321   9.984  0.8016 -0.9511  0.0186
  910MOL0     C19994   2.956  -0.418   9.915 -0.0835 -0.2106  0.0362
  910MOL0     C19995   2.934  -0.400   9.777  0.4782  0.3252 -0.1613
  910MOL0     O19996   2.859  -0.497   9.715 -0.0195  0.6772 -0.2533
  910MOL0     C19997   2.923  -0.627   9.716  0.8818  0.5200 -0.2684
  910MOL0     C19998   2.830  -0.730   9.640 -0.3756 -0.1361 -0.7113
  910MOL0     C19999   2.885  -0.870   9.650  0.7863 -0.3734 -1.1493
  910MOL0     C20000   2.788  -0.970   9.605 -0.3990  0.2172 -0.5940
  910MOL0     C20001   2.851  -1.108   9.635  0.2996  0.2310  0.2889
  910MOL0     C20002   2.746  -1.225   9.609 -0.2851 -1.3332  0.2626
  910MOL0     C20003   2.786  -1.360   9.659  0.2408  0.1960  0.3270
  910MOL0     C20004   2.796  -1.392   9.811  0.6864  0.2294  0.3471
  910MOL0     N20005   2.933  -1.372   9.855  0.2260  0.2606 -0.5911
  910MOL0     C20006   3.039  -1.460   9.836 -0.3679 -0.4441  0.3377
  910MOL0     C20007   3.155  -1.395   9.874  0.0198 -0.6336  0.3766
  910MOL0     C20008   3.284  -1.453   9.849 -1.4807 -0.2768  0.0945
  910MOL0     C20009   3.320  -1.475   9.700  0.0204  0.4006  0.2554
  910MOL0     C20010   3.459  -1.525   9.678 -0.7615 -0.3980  1.0941
  910MOL0     C20011   3.558  -1.411   9.696  0.4063  0.2130 -0.5333
  910MOL0     O20012   3.664  -1.448   9.608  0.7134 -0.4377  0.0044
  910MOL0     C20013   3.686  -1.384   9.481  0.5446 -1.0378 -0.5974
  910MOL0     C20014   3.783  -1.447   9.401  0.1207  0.1493  0.0277
  910MOL0     C20015   3.812  -1.408   9.272 -0.0855  0.8142 -0.0117
  910MOL0     C20016   3.749  -1.297   9.221 -1.1885 -0.5410  0.0130
  910MOL0     C20017   3.750  -1.271   9.079 -0.3440  0.7409  0.1539
  910MOL0     O20018   3.751  -1.382   8.999 -0.1623  0.5819 -0.5043
  910MOL0     C20019   3.733  -1.380   8.862 -0.2761 -0.2455  0.1878
  910MOL0     C20020   3.785  -1.482   8.797  0.0985  0.2278 -0.3431
  910MOL0     C20021   3.778  -1.490   8.657  0.6909 -0.3144  0.6172
  910MOL0     C20022   3.716  -1.393   8.578  0.8591 -0.1228 -0.7267
  910MOL0     O20023   3.702  -1.427   8.443  0.2769 -0.2375 -0.6076
  910MOL0     C20024   3.735  -1.325   8.349  0.0969  0.4746  0.3448
  910MOL0     C20025   3.874  -1.263   8.368 -0.3635  0.5289  0.3860
  910MOL0     C20026   3.985  -1.370   8.343 -0.0966 -1.0523  0.0306
  910MOL0     C20027   4.128  -1.324   8.341 -0.1065 -0.1543 -0.1750
  910MOL0     C20028   4.226  -1.413   8.263  0.5155 -0.2793  0.0470
  910MOL0     C20029   4.372  -1.356   8.248  0.3974  0.4688 -0.3028
  910MOL0     C20030   4.476  -1.460   8.211 -0.6765 -0.3810  0.1622
  910MOL0     C20031   4.620  -1.397   8.212  0.3362  0.2780  0.1402
  910MOL0    Cl20032   4.686  -1.389   8.392  0.1528 -0.6441 -0.1419
  910MOL0     C20033   3.646  -1.289   8.652 -0.5933 -0.8833 -0.0134
  910MOL0     C20034   3.661  -1.279   8.790 -0.1054  0.1003 -0.1189
  910MOL0     O20035   3.754  -1.156   9.048 -0.4045  0.3853 -0.2530
  910MOL0     C20036   3.670  -1.217   9.307  0.8222 -0.1417  1.1943
  910MOL0     C20037   3.636  -1.263   9.434 -0.0397 -0.3856 -0.2892
  910MOL0     N20038   3.114  -1.283   9.934 -1.0225 -1.1106  0.2553
  910MOL0     N20039   2.986  -1.265   9.921  0.4330 -0.3534 -0.0034
  910MOL0     C20040   2.994  -0.298   9.710 -0.1704 -0.2647 -0.7876
  910MOL0     C20041   3.078  -0.206   9.776 -0.4155  0.5458 -0.8959
  910MOL0     C20042   3.226   0.096  10.048  0.3577  1.2699 -0.2503
  910MOL0     C20043   3.354   0.056  10.106 -0.3040  0.2386  0.2456
  910MOL0     C20044   3.448   0.150  10.148  0.0599  0.2095  0.4221
  910MOL0     C20045   3.423   0.287  10.154  0.7835  0.0192  1.2227
  910MOL0     O20046   3.505   0.376  10.200 -0.0154 -1.1819  0.3470
  910MOL0     C20047   3.607   0.350  10.294 -0.0658  0.5037  0.5208
  910MOL0     C20048   3.568   0.264  10.417 -0.0295 -1.0101 -0.0149
  910MOL0     C20049   3.648   0.304  10.540  0.0856 -0.4133  0.5066
  910MOL0     C20050   3.566   0.253  10.660 -0.4060  0.2054  0.7728
  910MOL0     C20051   3.635   0.300  10.784  0.1757 -0.4289 -0.8220
  910MOL0     C20052   3.689   0.342  10.882 -0.0476 -0.0156  0.6777
  910MOL0     C20053   3.293   0.327  10.107  0.4498  0.4576 -0.1292
  910MOL0     C20054   3.199   0.237  10.050 -0.3199  0.8157 -0.8807
  910MOL0     H20055   3.038  -0.329  10.092 -0.2426 -1.1565  0.0971
  910MOL0     H20056   2.906  -0.505   9.959  2.1420 -1.6628 -0.1453
  910MOL0     H20057   2.928  -0.675   9.814 -0.5060 -2.2198 -1.4326
  910MOL0     H20058   3.016  -0.616   9.660  1.1724  0.9502  0.2835
  910MOL0     H20059   2.849  -0.709   9.534 -0.8841 -1.1421 -1.0179
  910MOL0     H20060   2.722  -0.719   9.656  0.0819  0.8547  2.1475
  910MOL0     H20061   2.898  -0.894   9.756 -1.4261  1.2811 -0.4452
  910MOL0     H20062   2.975  -0.876   9.588  1.7129 -0.7402  0.1780
  910MOL0     H20063   2.697  -0.974   9.666  0.0242 -3.7815  0.0456
  910MOL0     H20064   2.762  -0.953   9.501 -0.5143 -0.5418 -0.6925
  910MOL0     H20065   2.891  -1.121   9.736 -1.3553 -0.2318  0.9257
  910MOL0     H20066   2.934  -1.128   9.567  0.9777 -0.5402  1.3101
  910MOL0     H20067   2.737  -1.226   9.500 -0.6037 -0.6889  0.2750
  910MOL0     H20068   2.649  -1.196   9.651 -1.3733 -3.4416 -0.6473
  910MOL0     H20069   2.724  -1.435   9.609 -0.1521  0.7322  0.0028
  910MOL0     H20070   2.885  -1.376   9.615 -1.0595 -3.6951 -1.6491
  910MOL0     H20071   2.771  -1.497   9.825  0.6017 -0.0484 -1.5426
  910MOL0     H20072   2.717  -1.336   9.862  0.5988  0.1095  0.3447
  910MOL0     H20073   3.040  -1.559   9.793  0.6816 -0.7695  1.0648
  910MOL0     H20074   3.302  -1.545   9.906 -0.2051  0.4930  1.0059
  910MOL0     H20075   3.354  -1.376   9.885 -0.6734  0.2173 -2.3388
  910MOL0     H20076   3.295  -1.384   9.645  0.4174 -0.0857 -0.7613
  910MOL0     H20077   3.261  -1.561   9.666  1.0185  0.3621 -1.4959
  910MOL0     H20078   3.475  -1.605   9.751  4.2921 -1.4390 -0.7276
  910MOL0     H20079   3.471  -1.570   9.579 -0.8949 -0.0478  0.9189
  910MOL0     H20080   3.604  -1.417   9.795  0.8165 -4.7543 -0.7410
  910MOL0     H20081   3.509  -1.319   9.663  0.3034 -0.0978 -1.2545
  910MOL0     H20082   3.835  -1.536   9.438  3.0023  1.5530 -0.3240
  910MOL0     H20083   3.883  -1.460   9.209 -1.6228 -1.6005  0.1400
  910MOL0     H20084   3.828  -1.570   8.844 -0.0774  0.2033 -0.2264
  910MOL0     H20085   3.815  -1.576   8.600  3.3130  1.3105 -0.3307
  910MOL0     H20086   3.653  -1.251   8.350 -2.0995 -1.8257  1.7845
  910MOL0     H20087   3.734  -1.362   8.246  0.8752  1.5119 -0.0462
  910MOL0     H20088   3.878  -1.218   8.467  2.7472 -0.1231  0.6313
  910MOL0     H20089   3.885  -1.193   8.284 -1.8134  0.5606  0.1824
  910MOL0     H20090   3.969  -1.426   8.250  2.0363  1.2867 -1.8521
  910MOL0     H20091   3.995  -1.441   8.427  5.0278 -1.2801 -0.4475
  910MOL0     H20092   4.131  -1.222   8.303  0.2883 -0.8094 -1.9795
  910MOL0     H20093   4.162  -1.315   8.445 -1.6209 -0.3652  0.3602
  910MOL0     H20094   4.186  -1.421   8.161  0.7010 -0.3381 -0.0209
  910MOL0     H20095   4.237  -1.509   8.313  4.0400  1.2105  2.5675
  910MOL0     H20096   4.402  -1.320   8.347  0.8304 -0.1843 -0.1952
  910MOL0     H20097   4.369  -1.280   8.169 -3.4713 -0.3886 -1.1774
  910MOL0     H20098   4.471  -1.543   8.282  2.2223 -0.9852 -0.1977
  910MOL0     H20099   4.463  -1.494   8.107  2.3038  2.0559 -1.1683
  910MOL0     H20100   4.629  -1.302   8.159  1.4248 -0.0891 -0.3596
  910MOL0     H20101   4.687  -1.456   8.150  0.8381 -1.2619  2.0525
  910MOL0     H20102   3.575  -1.223   8.603 -1.1303 -0.6794  1.0165
  910MOL0     H20103   3.605  -1.202   8.843  0.7527  0.5383  0.1720
  910MOL0     H20104   3.618  -1.134   9.261  1.2007 -1.8610 -2.7329
  910MOL0     H20105   3.562  -1.208   9.491 -2.5270 -3.2737 -0.4950
  910MOL0     H20106   2.972  -0.285   9.605 -3.8284  3.7210  0.2073
  910MOL0     H20107   3.129  -0.125   9.726 -1.5807  2.6263  1.0639
  910MOL0     H20108   3.370  -0.051  10.112  1.3176  0.2076 -2.8653
  910MOL0     H20109   3.547   0.115  10.175  1.0730  2.6012  0.0556
  910MOL0     H20110   3.638   0.444  10.342 -2.6691  2.0400 -0.5536
  910MOL0     H20111   3.690   0.297  10.246  1.8715  1.4946  2.5966
  910MOL0     H20112   3.460   0.278  10.430  0.2362  2.0157 -0.3876
  910MOL0     H20113   3.585   0.157  10.402  3.8376 -0.8286  1.7395
  910MOL0     H20114   3.667   0.411  10.550  2.4633 -0.9115  2.0733
  910MOL0     H20115   3.743   0.249  10.534  0.9054  1.1029 -1.4346
  910MOL0     H20116   3.463   0.291  10.665 -1.3270 -2.2419  1.9545
  910MOL0     H20117   3.561   0.144  10.660 -1.8708  0.2207 -1.0347
  910MOL0     H20118   3.752   0.375  10.962 -0.4780 -1.2185  1.5361
  910MOL0     H20119   3.270   0.433  10.109  0.4499  0.4541  0.2584
  910MOL0     H20120   3.112   0.281  10.002 -0.6738 -0.7697 -1.7566
  911MOL0     O20121   4.934   3.947   2.385  0.1550  0.2929 -0.6877
  911MOL0     C20122   4.844   4.015   2.343 -0.6374 -0.4668 -0.0303
  911MOL0     O20123   4.784   4.117   2.416 -0.4054  0.1260 -0.4676
  911MOL0     C20124   4.822   4.145   2.548 -0.0273  0.0696  0.5042
  911MOL0     C20125   4.856   4.284   2.581  0.7733 -0.6030 -0.0172
  911MOL0     C20126   4.921   4.321   2.705  0.2390  1.0197  0.8176
  911MOL0     C20127   4.916   4.218   2.805 -0.6513 -0.7207  0.6620
  911MOL0     O20128   4.978   4.270   2.910  0.1714 -0.0726 -0.7221
  911MOL0     C20129   4.913   4.236   3.034 -0.3194  0.2556  0.5008
  911MOL0     C20130   4.884   4.366   3.114  0.6494 -1.3547  0.4393
  911MOL0     C20131   4.842   4.346   3.255  0.3642  0.7126  0.1649
  911MOL0     C20132   4.725   4.247   3.265  0.4527 -1.2720  0.2422
  911MOL0     C20133   4.648   4.238   3.396 -0.4187 -0.6526  0.2046
  911MOL0     C20134   4.725   4.161   3.507 -0.1863 -0.2495  0.0444
  911MOL0     C20135   4.694   4.198   3.652 -0.3901 -0.2374  0.2151
  911MOL0     C20136   4.557   4.152   3.688  0.0935 -0.0428 -0.3512
  911MOL0     N20137   4.525   4.190   3.821  1.1931  0.2426  0.2746
  911MOL0     C20138   4.556   4.306   3.880  0.2155 -0.4367 -0.0451
  911MOL0     C20139   4.509   4.287   4.004  0.5448  0.0071 -0.5886
  911MOL0     C20140   4.496   4.391   4.115 -0.0655 -0.2275 -0.6504
  911MOL0     C20141   4.585   4.359   4.231 -0.8080 -0.1620  0.2786
  911MOL0     C20142   4.562   4.223   4.299  0.7293 -0.6747 -1.0129
  911MOL0     C20143   4.601   4.227   4.451 -1.0198  0.8573 -0.0032
  911MOL0     O20144   4.736   4.266   4.475  0.3862 -0.0850  0.2604
  911MOL0     C20145   4.773   4.279   4.604 -1.0307  1.0240 -0.6404
  911MOL0     C20146   4.873   4.374   4.631  1.4364  0.1147  0.4311
  911MOL0     C20147   4.932   4.390   4.754 -0.2904  0.1675  0.3631
  911MOL0     C20148   4.893   4.317   4.863  0.6948 -0.4928 -0.2853
  911MOL0     C20149   4.965   4.328   4.988 -1.3674 -0.0211 -0.2649
  911MOL0     O20150   4.895   4.293   5.102  0.1974  0.2689  0.1868
  911MOL0     C20151   4.970   4.275   5.212 -0.3129 -0.4047 -0.4162
  911MOL0     C20152   4.969   4.141   5.262  0.1090 -0.1925 -0.2963
  911MOL0     C20153   5.026   4.109   5.388 -0.2496  0.2041  0.5130
  911MOL0     C20154   5.090   4.218   5.452  0.3780  0.1398 -0.1243
  911MOL0     O20155   5.140   4.202   5.574 -0.7047  0.4224 -0.1655
  911MOL0     C20156   5.200   4.080   5.606 -0.0121 -0.0293  0.4875
  911MOL0     C20157   5.292   4.108   5.722 -0.0711 -0.3900  0.4446
  911MOL0     C20158   5.354   3.973   5.768 -0.4290  0.1232 -0.1145
  911MOL0     C20159   5.275   3.849   5.759 -0.3815  1.1600 -0.1846
  911MOL0     C20160   5.328   3.746   5.857 -1.3706 -0.2857 -0.2738
  911MOL0     C20161   5.251   3.615   5.857  0.4796  0.2355  0.4879
  911MOL0     C20162   5.252   3.537   5.723  0.4311  0.6638  1.2364
  911MOL0     C20163   5.238   3.383   5.744  0.4185  0.5091  0.6997
  911MOL0    Cl20164   5.259   3.324   5.576 -0.2476  0.0657  0.3446
  911MOL0     C20165   5.098   4.347   5.399 -0.6333 -0.2369 -0.7334
  911MOL0     C20166   5.042   4.379   5.272  0.5068  0.8184 -1.0474
  911MOL0     O20167   5.084   4.361   4.986 -0.3013 -0.5416  0.5544
  911MOL0     C20168   4.785   4.232   4.849 -0.1093  0.3660  0.8939
  911MOL0     C20169   4.723   4.204   4.720 -0.6042 -0.7150 -0.7404
  911MOL0     N20170   4.478   4.164   4.025  0.1327  0.0551 -0.2743
  911MOL0     N20171   4.495   4.097   3.915  0.2148 -0.8251 -0.3784
  911MOL0     C20172   4.860   4.093   2.785 -1.0722  0.9755  0.3325
  911MOL0     C20173   4.821   4.050   2.655 -0.2561 -0.3800 -0.3308
  911MOL0     C20174   4.789   4.012   2.205  1.1144 -0.5328  0.6024
  911MOL0     C20175   4.659   4.070   2.172  0.5491  0.1992  0.1661
  911MOL0     C20176   4.608   4.079   2.040 -0.3226 -0.8465 -1.6515
  911MOL0     C20177   4.688   4.038   1.943  0.2227 -0.1295  0.1649
  911MOL0     O20178   4.641   4.062   1.812  0.5082 -0.1382  0.8809
  911MOL0     C20179   4.717   4.006   1.703 -0.1202 -0.0831  0.1865
  911MOL0     C20180   4.838   4.088   1.661 -0.8786  0.3377  1.3264
  911MOL0     C20181   4.796   4.232   1.617  0.3680 -0.2676 -0.5804
  911MOL0     C20182   4.921   4.317   1.571  1.0534  0.2718  0.1358
  911MOL0     C20183   4.922   4.440   1.654  0.5016 -0.0352  0.5658
  911MOL0     C20184   4.908   4.551   1.702  0.0699  0.0788 -0.1383
  911MOL0     C20185   4.821   3.998   1.974  0.6048  0.9627  0.0901
  911MOL0     C20186   4.870   3.976   2.098 -0.7360  0.0223 -0.1661
  911MOL0     H20187   4.852   4.358   2.502 -1.8118  0.5226  1.0349
  911MOL0     H20188   4.958   4.420   2.729  1.2182  1.7391 -3.0383
  911MOL0     H20189   4.985   4.186   3.099 -2.1278 -2.5309  0.5137
  911MOL0     H20190   4.821   4.177   3.030 -2.5273  3.1986  2.6645
  911MOL0     H20191   4.811   4.428   3.060 -0.1979  0.2119  3.1901
  911MOL0     H20192   4.973   4.429   3.119  0.3853 -0.6440 -2.1873
  911MOL0     H20193   4.814   4.441   3.303  0.5517 -0.7705  3.4452
  911MOL0     H20194   4.922   4.302   3.315 -1.4301 -2.0214  0.7364
  911MOL0     H20195   4.653   4.276   3.188  1.4033  1.9618  0.4163
  911MOL0     H20196   4.755   4.144   3.243  0.1831 -1.0745 -1.1838
  911MOL0     H20197   4.552   4.187   3.387  0.6972 -2.4331 -3.3612
  911MOL0     H20198   4.642   4.339   3.438 -1.0765 -0.9989  0.9602
  911MOL0     H20199   4.834   4.173   3.502  0.3068 -2.1759  3.3280
  911MOL0     H20200   4.711   4.054   3.487  0.3297  0.0533 -2.1820
  911MOL0     H20201   4.775   4.155   3.711  1.2905 -0.7916 -2.3107
  911MOL0     H20202   4.702   4.307   3.660 -0.7067 -0.3001  1.5907
  911MOL0     H20203   4.541   4.045   3.669 -1.2425  0.1404 -0.3704
  911MOL0     H20204   4.490   4.204   3.619 -0.0062  2.3864  1.4651
  911MOL0     H20205   4.581   4.396   3.824 -1.9080 -0.2922 -0.8273
  911MOL0     H20206   4.398   4.394   4.163  2.2029  0.9784  4.7536
  911MOL0     H20207   4.514   4.495   4.086 -2.2594 -0.6907 -4.3393
  911MOL0     H20208   4.581   4.443   4.301 -1.9446 -0.8030  1.0170
  911MOL0     H20209   4.684   4.356   4.186 -0.3460  0.3209  1.2402
  911MOL0     H20210   4.456   4.196   4.291  0.6004 -0.8438  0.8379
  911MOL0     H20211   4.619   4.143   4.251  2.2317 -0.0405 -0.3420
  911MOL0     H20212   4.583   4.131   4.499  1.4102  1.3255  2.0078
  911MOL0     H20213   4.537   4.301   4.501 -0.7214  1.3507 -0.3428
  911MOL0     H20214   4.909   4.434   4.548  1.1607  0.4744  0.5677
  911MOL0     H20215   5.014   4.462   4.757 -0.1533  0.0544 -0.3639
  911MOL0     H20216   4.896   4.073   5.218 -0.5926  0.9734 -0.9993
  911MOL0     H20217   5.040   4.006   5.417  0.2029  0.5924  1.7209
  911MOL0     H20218   5.261   4.033   5.528  1.3610  0.8809  0.9803
  911MOL0     H20219   5.125   4.004   5.632 -0.1239 -0.9416 -2.1914
  911MOL0     H20220   5.228   4.150   5.800 -1.5101  0.1783 -0.9963
  911MOL0     H20221   5.378   4.166   5.687 -0.8301 -0.2317 -1.2558
  911MOL0     H20222   5.390   3.985   5.870 -1.2143 -0.5035  0.2526
  911MOL0     H20223   5.451   3.964   5.718  0.5033  2.2258  1.1936
  911MOL0     H20224   5.170   3.865   5.785 -0.7217 -0.8027 -0.1726
  911MOL0     H20225   5.295   3.811   5.658  1.6004  1.9441 -0.1373
  911MOL0     H20226   5.324   3.783   5.960  1.7898 -2.0099  0.6212
  911MOL0     H20227   5.434   3.725   5.840 -1.3613 -2.8176  2.0896
  911MOL0     H20228   5.149   3.645   5.885  0.1250 -0.4871  0.0022
  911MOL0     H20229   5.293   3.544   5.928 -0.6199 -1.3418 -0.3685
  911MOL0     H20230   5.174   3.583   5.661  1.3771 -0.3830 -0.8001
  911MOL0     H20231   5.349   3.556   5.678  0.2839  1.6048  1.2864
  911MOL0     H20232   5.138   3.359   5.782 -0.5240  0.9377 -1.3424
  911MOL0     H20233   5.305   3.331   5.812 -1.2074 -2.1388  0.4384
  911MOL0     H20234   5.145   4.418   5.467  3.2751 -2.1666 -1.1673
  911MOL0     H20235   5.057   4.482   5.242 -0.3645  0.2042 -3.8397
  911MOL0     H20236   4.738   4.182   4.933 -2.5764 -0.4663 -0.8700
  911MOL0     H20237   4.645   4.129   4.706  0.3435 -1.6176 -1.3473
  911MOL0     H20238   4.867   4.016   2.861 -2.4457 -1.5598 -1.9415
  911MOL0     H20239   4.790   3.949   2.627  1.0625 -1.0443  0.5026
  911MOL0     H20240   4.595   4.116   2.247  2.9595  3.9579  0.2029
  911MOL0     H20241   4.516   4.134   2.019 -0.6878 -1.3061 -1.2845
  911MOL0     H20242   4.649   3.987   1.619  0.6180 -1.9237 -0.0543
  911MOL0     H20243   4.760   3.908   1.724  1.3983  0.8319  1.5903
  911MOL0     H20244   4.907   4.106   1.744  1.4157 -2.3710  0.1766
  911MOL0     H20245   4.903   4.038   1.588  0.9501  1.0318  2.4012
  911MOL0     H20246   4.749   4.280   1.703 -1.5229 -0.1313 -1.6096
  911MOL0     H20247   4.723   4.229   1.535  0.4549 -2.3367 -0.6482
  911MOL0     H20248   5.012   4.259   1.582  1.6631  0.9665 -1.0836
  911MOL0     H20249   4.911   4.351   1.468 -3.0923  0.9029  0.5619
  911MOL0     H20250   4.911   4.655   1.727  0.8320  0.1298 -0.4385
  911MOL0     H20251   4.893   3.963   1.901 -0.7237 -0.3467 -0.6576
  911MOL0     H20252   4.975   3.950   2.108  0.5837  4.5941 -0.0366
  912MOL0     O20253   6.408   1.657   3.961 -0.1339 -0.1227 -0.0620
  912MOL0     C20254   6.523   1.637   3.916  0.8613 -0.8340 -0.4185
  912MOL0     O20255   6.601   1.750   3.860  1.0965 -0.3467 -0.2806
  912MOL0     C20256   6.560   1.879   3.869 -0.5579 -0.1743  0.6868
  912MOL0     C20257   6.599   1.954   3.757 -0.0958  0.0193 -1.4089
  912MOL0     C20258   6.572   2.090   3.760  0.2795 -0.0727  0.2366
  912MOL0     C20259   6.524   2.157   3.874  0.6137  0.4127 -0.3615
  912MOL0     O20260   6.521   2.291   3.870  0.4477 -0.1134 -0.5264
  912MOL0     C20261   6.392   2.344   3.893  0.4242 -1.3268  0.4207
  912MOL0     C20262   6.387   2.493   3.853  0.6282  0.2736  1.1603
  912MOL0     C20263   6.339   2.525   3.707 -0.9187 -0.1163  0.1354
  912MOL0     C20264   6.409   2.450   3.589  0.0592 -0.3740  0.2284
  912MOL0     C20265   6.401   2.523   3.449  0.0888 -1.3868 -0.8323
  912MOL0     C20266   6.471   2.446   3.330  0.5509 -0.4625 -0.1855
  912MOL0     C20267   6.595   2.355   3.378  0.4470  0.1518 -0.4944
  912MOL0     C20268   6.650   2.293   3.244 -0.7723  0.5205 -1.1468
  912MOL0     N20269   6.778   2.225   3.271 -0.2224  1.3660 -0.0015
  912MOL0     C20270   6.795   2.100   3.335  0.4076 -0.7531  0.6777
  912MOL0     C20271   6.920   2.063   3.295  0.3239 -0.3532  1.0534
  912MOL0     C20272   6.992   1.935   3.343  0.8209  0.1880  0.6545
  912MOL0     C20273   7.021   1.838   3.232  0.3490  0.8139 -0.0633
  912MOL0     C20274   7.118   1.737   3.296 -0.6298 -0.8744  0.7850
  912MOL0     C20275   7.183   1.656   3.190  0.2826  1.0873  0.0705
  912MOL0     O20276   7.269   1.549   3.229  0.4965 -0.1588  0.1015
  912MOL0     C20277   7.393   1.583   3.271  0.4011  0.2222 -0.0738
  912MOL0     C20278   7.495   1.644   3.195  0.5788  0.0802  0.9328
  912MOL0     C20279   7.627   1.657   3.237 -0.4028  0.7818 -0.1208
  912MOL0     C20280   7.655   1.635   3.376 -0.1633  0.4937  0.2335
  912MOL0     C20281   7.783   1.663   3.433  0.8119 -0.0443  0.0651
  912MOL0     O20282   7.850   1.762   3.367 -0.1555 -0.5833 -0.8091
  912MOL0     C20283   7.965   1.815   3.423 -0.3470 -0.2156 -0.5725
  912MOL0     C20284   7.960   1.900   3.530 -0.1239 -1.1437 -0.0691
  912MOL0     C20285   8.081   1.944   3.586 -0.8459 -0.2083 -0.3258
  912MOL0     C20286   8.204   1.896   3.535  0.2760 -0.4958  0.7987
  912MOL0     O20287   8.323   1.930   3.599  0.3242 -0.6035  0.6026
  912MOL0     C20288   8.343   1.962   3.732  0.1078 -0.4444 -0.4085
  912MOL0     C20289   8.347   1.845   3.828 -0.2845  0.6365  0.2330
  912MOL0     C20290   8.362   1.891   3.973 -0.5253 -0.2298  0.8866
  912MOL0     C20291   8.375   1.770   4.070  0.9171  0.2323  0.3864
  912MOL0     C20292   8.351   1.804   4.216  0.0208 -0.3200 -0.5945
  912MOL0     C20293   8.388   1.688   4.305 -0.5584 -0.3038 -0.0678
  912MOL0     C20294   8.358   1.705   4.452  0.3009  0.5752  0.1607
  912MOL0     C20295   8.228   1.640   4.499  0.3226 -0.0691  0.1053
  912MOL0    Cl20296   8.224   1.674   4.669 -0.0799  0.1975 -0.1826
  912MOL0     C20297   8.203   1.812   3.426 -1.0592  0.0512  0.0638
  912MOL0     C20298   8.081   1.769   3.363  0.2346  0.5202 -0.2979
  912MOL0     O20299   7.819   1.596   3.524 -0.5462  0.2418 -0.4955
  912MOL0     C20300   7.551   1.583   3.458  0.2932 -0.5046  0.2263
  912MOL0     C20301   7.424   1.559   3.410  0.2814  0.2553 -0.4279
  912MOL0     N20302   6.982   2.153   3.210 -0.6020 -0.1796 -0.0599
  912MOL0     N20303   6.901   2.256   3.205  0.0020  0.0895  0.1516
  912MOL0     C20304   6.487   2.077   3.989 -1.0745  0.0231 -0.2659
  912MOL0     C20305   6.506   1.940   3.986  0.9580  0.2388 -0.1507
  912MOL0     C20306   6.586   1.510   3.918 -0.7479  0.3400 -0.5355
  912MOL0     C20307   6.723   1.503   3.923  0.4831 -0.2306  0.2106
  912MOL0     C20308   6.789   1.380   3.933  0.3651  0.2913  0.1620
  912MOL0     C20309   6.717   1.259   3.930 -0.1024  0.8413  0.6929
  912MOL0     O20310   6.775   1.128   3.904 -0.0858 -0.5034 -0.9268
  912MOL0     C20311   6.902   1.112   3.847  0.0955  0.3876 -0.0093
  912MOL0     C20312   7.000   1.034   3.932 -0.6499  0.4259 -0.5482
  912MOL0     C20313   6.981   0.883   3.942  0.1527  0.2587 -0.1138
  912MOL0     C20314   7.102   0.823   4.026  0.5355 -0.5809  0.6674
  912MOL0     C20315   7.229   0.833   3.956 -0.1551  0.6326 -0.3668
  912MOL0     C20316   7.343   0.850   3.914  0.6580  0.3944 -0.7392
  912MOL0     C20317   6.582   1.264   3.925 -0.0099  0.4810  0.2628
  912MOL0     C20318   6.510   1.389   3.923 -0.0494 -0.6620 -0.3561
  912MOL0     H20319   6.641   1.908   3.668  1.8380  1.8311 -1.5000
  912MOL0     H20320   6.586   2.135   3.662  0.3217 -2.9698 -1.1946
  912MOL0     H20321   6.389   2.345   4.002  4.0403 -0.1367  0.6324
  912MOL0     H20322   6.307   2.292   3.849  0.4256 -3.1315  2.3950
  912MOL0     H20323   6.490   2.528   3.863  0.0188  2.6282 -0.1040
  912MOL0     H20324   6.333   2.561   3.919  1.5585  1.8630  0.3349
  912MOL0     H20325   6.380   2.625   3.689  2.4725 -1.1834  1.3677
  912MOL0     H20326   6.230   2.537   3.694 -0.6213  3.7147 -0.1391
  912MOL0     H20327   6.508   2.422   3.626 -0.4979 -3.6096 -0.4601
  912MOL0     H20328   6.357   2.357   3.568 -0.7284  0.4613 -1.7269
  912MOL0     H20329   6.450   2.620   3.463  1.4719 -2.3269  1.3858
  912MOL0     H20330   6.297   2.535   3.420 -0.2097 -0.6235  0.4673
  912MOL0     H20331   6.493   2.518   3.251 -1.0563 -1.6145 -1.7562
  912MOL0     H20332   6.399   2.377   3.285 -0.9383 -2.3071  4.4299
  912MOL0     H20333   6.664   2.420   3.432  0.5491 -2.2733  2.5073
  912MOL0     H20334   6.566   2.272   3.443 -1.3141  1.4641  0.4826
  912MOL0     H20335   6.684   2.374   3.178  1.5220 -1.5649 -2.7276
  912MOL0     H20336   6.581   2.228   3.189 -1.0848  0.1100 -0.2880
  912MOL0     H20337   6.724   2.040   3.392 -1.0633 -0.7394 -1.0871
  912MOL0     H20338   6.932   1.904   3.429  1.2626 -1.0016  0.5498
  912MOL0     H20339   7.085   1.969   3.389  1.7869  2.2045 -2.4402
  912MOL0     H20340   7.068   1.880   3.143  4.6205 -2.9633  0.0453
  912MOL0     H20341   6.931   1.781   3.208  2.6853 -2.7632 -1.0628
  912MOL0     H20342   7.198   1.788   3.349  0.0298  0.5298 -1.4199
  912MOL0     H20343   7.060   1.665   3.354 -2.6176 -1.8428 -2.1509
  912MOL0     H20344   7.238   1.724   3.124  0.6659  0.9962  0.2902
  912MOL0     H20345   7.112   1.603   3.127  1.3322 -3.8594  2.5648
  912MOL0     H20346   7.461   1.678   3.098 -1.4942 -1.3139  1.1093
  912MOL0     H20347   7.703   1.713   3.183  1.1288  1.1868  2.3044
  912MOL0     H20348   7.857   1.917   3.559 -1.1438 -3.4600 -1.9154
  912MOL0     H20349   8.089   2.024   3.659 -0.6183 -1.0307  0.5653
  912MOL0     H20350   8.265   2.033   3.761 -2.1802 -1.1337 -4.1785
  912MOL0     H20351   8.435   2.018   3.751  0.1641 -0.7549  0.2736
  912MOL0     H20352   8.421   1.767   3.808  2.6221  2.9613  1.2168
  912MOL0     H20353   8.252   1.791   3.823 -0.5340  0.9018  1.7759
  912MOL0     H20354   8.282   1.963   3.992  0.0539  0.6956 -0.0782
  912MOL0     H20355   8.451   1.954   3.979 -0.5062 -0.1612 -0.0116
  912MOL0     H20356   8.307   1.690   4.037  3.1406 -0.6163 -2.6369
  912MOL0     H20357   8.475   1.727   4.066  0.9773  0.1762  1.9714
  912MOL0     H20358   8.247   1.834   4.229 -0.1055 -1.4132  1.5536
  912MOL0     H20359   8.411   1.893   4.238 -0.0418 -0.5199  0.4772
  912MOL0     H20360   8.496   1.668   4.302 -0.6303 -0.7871  0.3683
  912MOL0     H20361   8.343   1.595   4.267  0.5259 -0.0713 -2.0940
  912MOL0     H20362   8.436   1.651   4.507 -1.4938 -0.7318  1.5341
  912MOL0     H20363   8.360   1.809   4.486  1.1531  1.6760 -2.9256
  912MOL0     H20364   8.240   1.531   4.496 -1.6962 -0.3081 -1.3919
  912MOL0     H20365   8.134   1.677   4.457  0.1228 -2.4148 -1.7620
  912MOL0     H20366   8.293   1.769   3.384 -1.0465 -0.9351  1.0739
  912MOL0     H20367   8.096   1.707   3.275 -4.5202 -2.0566  0.4008
  912MOL0     H20368   7.567   1.570   3.565 -1.5699  1.6059  0.8418
  912MOL0     H20369   7.352   1.528   3.486  1.8415 -0.4978  0.8091
  912MOL0     H20370   6.440   2.116   4.079 -0.4880  0.6774 -0.2362
  912MOL0     H20371   6.477   1.873   4.067  0.2107 -1.7815 -1.9667
  912MOL0     H20372   6.775   1.598   3.931 -0.3564  0.2078  0.5894
  912MOL0     H20373   6.897   1.382   3.939  0.3044  0.0005  2.0278
  912MOL0     H20374   6.948   1.206   3.814  2.8860 -1.3497 -1.3879
  912MOL0     H20375   6.881   1.049   3.760  2.9806 -0.2239 -0.3567
  912MOL0     H20376   7.091   1.043   3.873  0.6277 -0.8779  1.1145
  912MOL0     H20377   7.018   1.075   4.032 -3.0383 -2.9743  1.4925
  912MOL0     H20378   6.987   0.834   3.845  0.6515 -1.2062  0.6240
  912MOL0     H20379   6.888   0.863   3.997  0.7557 -2.1792  0.1457
  912MOL0     H20380   7.107   0.862   4.128 -0.2744 -0.9576  0.8575
  912MOL0     H20381   7.057   0.724   4.027 -0.9067  0.0119 -0.2510
  912MOL0     H20382   7.441   0.874   3.879 -0.0369  2.1210 -1.6249
  912MOL0     H20383   6.542   1.164   3.908  0.2496  0.1148  1.6898
  912MOL0     H20384   6.403   1.388   3.907 -0.5711  1.8484  2.2739
  913MOL0     O20385   7.345  10.612   4.389 -0.4392 -0.3491  0.6702
  913MOL0     C20386   7.326  10.543   4.491  1.4786  0.8450 -0.3132
  913MOL0     O20387   7.252  10.424   4.488 -0.0254 -0.5505  0.0865
  913MOL0     C20388   7.223  10.374   4.363 -0.3805 -0.2910 -0.9836
  913MOL0     C20389   7.084  10.352   4.332  0.6233 -0.0954  0.4873
  913MOL0     C20390   7.052  10.305   4.207 -0.2942 -0.8904 -0.0280
  913MOL0     C20391   7.149  10.250   4.119  0.0490 -0.3703  0.1968
  913MOL0     O20392   7.115  10.191   4.002  0.2479 -0.3777  0.1131
  913MOL0     C20393   7.137  10.047   4.010 -0.3858  0.2710 -0.9047
  913MOL0     C20394   7.025   9.999   3.910  0.3401  0.5628 -0.2227
  913MOL0     C20395   7.017   9.846   3.886  0.2196 -0.8117  0.4747
  913MOL0     C20396   6.895   9.807   3.791 -0.5138 -0.6239  0.7734
  913MOL0     C20397   6.871   9.658   3.788 -1.2305  0.9180 -0.1196
  913MOL0     C20398   6.789   9.604   3.910 -0.6870 -0.8607 -0.6832
  913MOL0     C20399   6.730   9.466   3.902  0.1206 -0.5749 -0.6051
  913MOL0     C20400   6.602   9.467   3.809 -0.2020  0.5268 -0.9089
  913MOL0     N20401   6.489   9.429   3.890 -0.4210  0.1462 -0.5790
  913MOL0     C20402   6.461   9.306   3.947  0.2541  0.1247  0.2299
  913MOL0     C20403   6.345   9.322   4.017  1.0718  0.5536 -0.1859
  913MOL0     C20404   6.272   9.226   4.117  0.1344 -0.2568  0.1209
  913MOL0     C20405   6.366   9.110   4.146 -1.7112  0.3999  0.4364
  913MOL0     C20406   6.311   9.005   4.249 -0.1339 -0.9618  0.6972
  913MOL0     C20407   6.170   8.941   4.219  0.0739  0.5472 -0.3160
  913MOL0     O20408   6.125   8.831   4.305 -0.5706 -0.6065 -0.3585
  913MOL0     C20409   6.015   8.770   4.265  0.3263 -0.2264 -0.7318
  913MOL0     C20410   5.972   8.667   4.345  0.5519 -0.3600  0.5799
  913MOL0     C20411   5.867   8.581   4.308  1.2299  1.2747 -0.0153
  913MOL0     C20412   5.786   8.620   4.199  0.8994  0.1290  0.2220
  913MOL0     C20413   5.670   8.536   4.154  1.0814 -0.8053  0.0093
  913MOL0     O20414   5.601   8.571   4.043 -0.5906 -0.0955  0.8120
  913MOL0     C20415   5.494   8.495   4.014 -0.3797 -0.5681 -0.1807
  913MOL0     C20416   5.474   8.438   3.887  0.2497  0.1114 -0.0350
  913MOL0     C20417   5.353   8.380   3.860  0.9938  0.6557  0.6447
  913MOL0     C20418   5.250   8.370   3.958 -0.3179  1.1236 -0.4577
  913MOL0     O20419   5.129   8.309   3.945  0.2759 -0.6424  0.7589
  913MOL0     C20420   5.066   8.302   3.808 -0.4555  0.1816 -0.5950
  913MOL0     C20421   4.919   8.276   3.814  0.4997 -1.0953 -0.3975
  913MOL0     C20422   4.872   8.136   3.849 -0.4777  0.3260  0.9599
  913MOL0     C20423   4.915   8.016   3.753  0.6474 -0.7751 -0.4549
  913MOL0     C20424   4.836   7.889   3.796  0.2477 -0.4898 -0.0352
  913MOL0     C20425   4.868   7.765   3.713 -0.5377 -0.3294  0.1708
  913MOL0     C20426   4.783   7.635   3.720  0.1046  0.6467  0.0984
  913MOL0     C20427   4.821   7.530   3.622  0.3953 -0.2248 -0.1473
  913MOL0    Cl20428   4.677   7.477   3.521 -0.5058  0.1810 -0.1566
  913MOL0     C20429   5.276   8.418   4.086 -0.2869  0.3753  0.4556
  913MOL0     C20430   5.392   8.485   4.116  0.0004  0.4089  0.0482
  913MOL0     O20431   5.658   8.430   4.218 -0.0909  0.0186  0.3829
  913MOL0     C20432   5.820   8.730   4.116 -0.0045 -0.2130 -0.0329
  913MOL0     C20433   5.935   8.807   4.152  0.1735 -0.4287  0.2757
  913MOL0     N20434   6.307   9.459   4.005  0.3150  0.3242  0.0765
  913MOL0     N20435   6.399   9.519   3.934  0.0236  0.2421 -0.1386
  913MOL0     C20436   7.280  10.261   4.159  0.2600  1.1992 -0.2404
  913MOL0     C20437   7.319  10.329   4.269 -0.1195  0.2111 -0.8640
  913MOL0     C20438   7.346  10.599   4.624 -0.4971  0.4066 -0.2351
  913MOL0     C20439   7.263  10.566   4.732 -0.1515  0.6499  0.0969
  913MOL0     C20440   7.273  10.620   4.858  0.3511  0.4544  0.4099
  913MOL0     C20441   7.364  10.716   4.887  0.4198  0.2560  0.3877
  913MOL0     O20442   7.378  10.754   5.018 -1.0534 -0.3986  0.5369
  913MOL0     C20443   7.386  10.894   5.048 -0.3701 -0.4497 -0.4824
  913MOL0     C20444   7.248  10.949   5.070 -0.3273  0.1503  0.1350
  913MOL0     C20445   7.262  11.111   5.089 -0.2675  0.9825 -0.1443
  913MOL0     C20446   7.345  11.130   5.218 -0.2631  0.6842  0.8407
  913MOL0     C20447   7.321  11.263   5.274  0.4945 -0.0242 -0.6139
  913MOL0     C20448   7.301  11.366   5.341  0.1391 -0.7475 -0.3456
  913MOL0     C20449   7.451  10.760   4.780  0.9733  0.5117  0.3766
  913MOL0     C20450   7.447  10.696   4.650 -0.5942 -0.3474  0.5473
  913MOL0     H20451   7.009  10.388   4.401  0.5243  0.1315  0.2641
  913MOL0     H20452   6.949  10.291   4.175 -0.5110  0.6975 -0.0966
  913MOL0     H20453   7.125  10.006   4.111 -0.4306 -1.9302 -1.7464
  913MOL0     H20454   7.237  10.016   3.980 -0.1464 -0.4174  0.5010
  913MOL0     H20455   7.059  10.055   3.823 -0.4788  0.9642 -0.2946
  913MOL0     H20456   6.932  10.044   3.945 -0.0044  0.2143 -0.6977
  913MOL0     H20457   6.997   9.805   3.986  0.8693 -1.6583  0.2649
  913MOL0     H20458   7.110   9.805   3.846 -1.0059 -1.5489 -1.7755
  913MOL0     H20459   6.814   9.876   3.817  0.2382  1.3357 -1.7629
  913MOL0     H20460   6.939   9.845   3.698  0.7791  0.4592  1.8046
  913MOL0     H20461   6.963   9.599   3.795 -1.1520  1.2384  1.9274
  913MOL0     H20462   6.809   9.618   3.707 -1.3009 -2.1906  1.3384
  913MOL0     H20463   6.704   9.673   3.917  1.3286  1.6007  1.7267
  913MOL0     H20464   6.845   9.620   4.003 -1.1981  1.4088 -0.7042
  913MOL0     H20465   6.810   9.399   3.868  1.4413  0.9208 -0.5655
  913MOL0     H20466   6.710   9.435   4.005 -0.9244  0.9904 -0.3192
  913MOL0     H20467   6.614   9.407   3.718 -1.2231  2.9732 -2.7631
  913MOL0     H20468   6.586   9.571   3.782 -3.6953  0.5117  0.6138
  913MOL0     H20469   6.525   9.219   3.937 -1.5638 -1.3939  0.9767
  913MOL0     H20470   6.176   9.205   4.069 -2.3269  1.3694  3.8098
  913MOL0     H20471   6.254   9.296   4.200 -0.5736 -1.3204  0.8822
  913MOL0     H20472   6.452   9.160   4.192  1.6072 -0.0744 -4.5176
  913MOL0     H20473   6.391   9.059   4.053 -1.8849 -1.3923  1.3295
  913MOL0     H20474   6.386   8.925   4.253  0.3843 -0.6075 -0.9619
  913MOL0     H20475   6.329   9.055   4.344 -0.4861 -3.2204  2.0354
  913MOL0     H20476   6.176   8.909   4.114  0.2411  2.9894 -1.1092
  913MOL0     H20477   6.092   9.017   4.212 -0.8937 -0.5208 -1.7245
  913MOL0     H20478   6.036   8.639   4.429  4.4749 -0.8644 -2.2981
  913MOL0     H20479   5.852   8.490   4.366  0.4524  2.1051  1.1217
  913MOL0     H20480   5.547   8.436   3.807 -2.4625 -2.9834 -2.7288
  913MOL0     H20481   5.329   8.345   3.759  1.8854  0.4388  0.5031
  913MOL0     H20482   5.116   8.233   3.740  2.6510  1.6135  0.0596
  913MOL0     H20483   5.083   8.400   3.762  0.4474  1.7883  2.7605
  913MOL0     H20484   4.875   8.289   3.715  1.1769 -1.8115 -0.8038
  913MOL0     H20485   4.896   8.357   3.883  2.7596  0.7086 -1.6158
  913MOL0     H20486   4.763   8.145   3.840 -0.7897 -3.1449 -0.5499
  913MOL0     H20487   4.887   8.100   3.951  2.2311 -1.8662 -0.0922
  913MOL0     H20488   4.891   8.033   3.648  1.4710 -2.3582 -0.9255
  913MOL0     H20489   5.021   7.989   3.757  1.0870  0.4498 -2.2939
  913MOL0     H20490   4.728   7.908   3.797  0.2214 -0.6492  0.3322
  913MOL0     H20491   4.857   7.864   3.900 -0.7258  1.0443  0.5612
  913MOL0     H20492   4.973   7.741   3.730 -0.5703 -0.6010 -0.0179
  913MOL0     H20493   4.856   7.807   3.613  1.3268 -0.3137 -0.0807
  913MOL0     H20494   4.787   7.594   3.822  1.0973  0.0605 -0.1728
  913MOL0     H20495   4.679   7.666   3.708 -0.1199  1.3314  2.9121
  913MOL0     H20496   4.874   7.442   3.660  1.8468 -0.5361 -2.6656
  913MOL0     H20497   4.900   7.556   3.551  1.5996 -1.4045  0.7235
  913MOL0     H20498   5.207   8.404   4.168 -0.1139 -0.9583  0.4022
  913MOL0     H20499   5.413   8.526   4.214  1.0901 -1.7866  0.8038
  913MOL0     H20500   5.762   8.755   4.027  2.7596 -2.6550 -2.7897
  913MOL0     H20501   5.954   8.893   4.089  0.9251 -0.7700  0.0239
  913MOL0     H20502   7.355  10.211   4.098 -0.2469 -2.3209  1.7925
  913MOL0     H20503   7.425  10.353   4.276  0.1807 -0.5474 -2.3762
  913MOL0     H20504   7.182  10.497   4.709  0.6555  0.3415 -2.0438
  913MOL0     H20505   7.203  10.586   4.933  1.5885  3.2558  3.0286
  913MOL0     H20506   7.440  10.943   4.967  0.5701  1.0030  0.9447
  913MOL0     H20507   7.452  10.893   5.136  0.6341  0.8657 -1.1923
  913MOL0     H20508   7.187  10.925   4.983 -0.2992 -1.4153  0.5132
  913MOL0     H20509   7.186  10.894   5.141 -1.5348 -2.0626 -2.4478
  913MOL0     H20510   7.161  11.151   5.094 -0.2907  0.7430  2.7705
  913MOL0     H20511   7.303  11.156   4.998  0.8059 -1.9184 -1.2184
  913MOL0     H20512   7.316  11.055   5.292 -1.9360  1.7750  1.3429
  913MOL0     H20513   7.451  11.126   5.191 -0.7080 -1.2156 -0.8862
  913MOL0     H20514   7.283  11.430   5.425 -2.0593 -2.5186  0.6449
  913MOL0     H20515   7.528  10.828   4.815 -0.0424  2.3652 -0.7957
  913MOL0     H20516   7.524  10.731   4.581  0.1479 -0.0112  1.5213
  914MOL0     O20517  11.007   3.343   9.240  0.0621  0.8267 -0.1847
  914MOL0     C20518  11.015   3.259   9.334  0.0123  0.4998 -0.5464
  914MOL0     O20519  11.131   3.219   9.385  0.0559 -0.4185 -0.4997
  914MOL0     C20520  11.259   3.232   9.328 -0.8096  0.2515 -0.3631
  914MOL0     C20521  11.363   3.222   9.411 -0.1679 -0.7207 -0.3937
  914MOL0     C20522  11.502   3.217   9.377  0.5542  0.2055  0.7178
  914MOL0     C20523  11.536   3.228   9.238  0.1635  0.1304 -1.1558
  914MOL0     O20524  11.671   3.221   9.211 -1.2395  0.3347 -0.7210
  914MOL0     C20525  11.720   3.213   9.075 -0.4092 -0.6649 -0.1454
  914MOL0     C20526  11.701   3.081   9.004  0.6242 -0.3128 -0.4871
  914MOL0     C20527  11.809   2.976   9.047 -0.3795  0.7023 -0.4096
  914MOL0     C20528  11.946   3.003   8.981 -0.2480 -0.4962  0.6050
  914MOL0     C20529  12.069   2.913   9.010  0.0705 -0.3172  0.2709
  914MOL0     C20530  12.067   2.783   8.937 -0.6222 -0.0908 -0.4936
  914MOL0     C20531  12.187   2.689   8.964 -0.5103 -0.3709  0.2326
  914MOL0     C20532  12.320   2.748   8.904  0.8525 -0.3610 -0.5334
  914MOL0     N20533  12.440   2.661   8.928 -0.0508 -0.3384 -0.2717
  914MOL0     C20534  12.506   2.581   8.842  0.3225  0.6307  0.5265
  914MOL0     C20535  12.607   2.513   8.910 -0.5253 -0.1862  0.1259
  914MOL0     C20536  12.711   2.418   8.843  0.6047  0.8832 -0.0197
  914MOL0     C20537  12.754   2.315   8.946 -0.3054  0.8286 -0.0418
  914MOL0     C20538  12.872   2.243   8.872  1.0637  1.2181  0.5679
  914MOL0     C20539  12.901   2.121   8.975 -0.0544 -1.0369  1.5478
  914MOL0     O20540  12.931   2.156   9.109 -0.4138 -0.2932  0.1787
  914MOL0     C20541  13.059   2.184   9.146 -0.2822 -0.0725 -0.4571
  914MOL0     C20542  13.076   2.223   9.280  0.9013 -0.1681 -0.2188
  914MOL0     C20543  13.201   2.265   9.323  0.6548 -0.5624  1.2781
  914MOL0     C20544  13.310   2.265   9.236  0.0468 -0.5397  0.2566
  914MOL0     C20545  13.433   2.299   9.301 -0.4569 -0.4340 -0.5672
  914MOL0     O20546  13.447   2.260   9.428 -0.1594  0.4474  0.7414
  914MOL0     C20547  13.553   2.277   9.520  0.2842  0.3547 -0.2975
  914MOL0     C20548  13.690   2.306   9.489 -0.1045 -0.3735  0.0868
  914MOL0     C20549  13.790   2.308   9.583 -0.7302 -0.0952  0.2792
  914MOL0     C20550  13.762   2.288   9.718  0.3045  0.0568  0.0070
  914MOL0     O20551  13.853   2.285   9.816 -0.5244 -0.6698 -0.0118
  914MOL0     C20552  13.980   2.358   9.803  0.7530 -0.7824 -0.4873
  914MOL0     C20553  14.064   2.333   9.919 -0.1543  1.1628 -0.0929
  914MOL0     C20554  14.076   2.182   9.937 -0.6151  0.1404  0.0110
  914MOL0     C20555  14.165   2.146  10.057 -0.1207 -0.1925  0.1925
  914MOL0     C20556  14.138   1.992  10.090 -0.1100 -1.0131  0.4326
  914MOL0     C20557  14.197   1.960  10.226 -0.0915  0.5064  0.1800
  914MOL0     C20558  14.119   1.854  10.305  0.1705 -0.2467 -0.0016
  914MOL0     C20559  14.143   1.893  10.452  0.8575 -0.0981 -0.4869
  914MOL0    Cl20560  14.318   1.888  10.491 -0.3755 -0.3138 -0.1421
  914MOL0     C20561  13.629   2.252   9.750 -0.0260 -0.5359 -0.8582
  914MOL0     C20562  13.525   2.264   9.654 -0.0595 -0.6631 -0.3422
  914MOL0     O20563  13.519   2.359   9.236 -0.1757  0.6435  0.7782
  914MOL0     C20564  13.294   2.226   9.104  0.0409  0.3952  0.3805
  914MOL0     C20565  13.170   2.175   9.069 -0.4071 -0.2263 -0.2189
  914MOL0     N20566  12.590   2.555   9.045  0.6261  0.5080 -0.0415
  914MOL0     N20567  12.486   2.639   9.051  0.2573  0.1123 -0.6858
  914MOL0     C20568  11.431   3.248   9.150  0.0166  0.7848  1.0255
  914MOL0     C20569  11.296   3.242   9.195 -0.3606 -0.2083 -0.6609
  914MOL0     C20570  10.899   3.226   9.411  0.2810  0.4325 -1.0965
  914MOL0     C20571  10.897   3.102   9.471  1.0937 -0.4583 -0.8679
  914MOL0     C20572  10.796   3.052   9.547 -0.4546  0.5181 -1.0284
  914MOL0     C20573  10.681   3.137   9.559  0.0257 -1.0257 -1.0167
  914MOL0     O20574  10.585   3.081   9.633  0.5125 -0.2502  0.1314
  914MOL0     C20575  10.459   3.134   9.636  0.4383  0.1366  0.1772
  914MOL0     C20576  10.361   3.031   9.696 -0.2153  0.8216 -1.0525
  914MOL0     C20577  10.383   2.998   9.841  0.9519 -0.3840 -0.7486
  914MOL0     C20578  10.263   2.911   9.881 -0.1139 -0.3269 -0.8785
  914MOL0     C20579  10.287   2.778   9.844 -1.1585  0.0480  0.8617
  914MOL0     C20580  10.315   2.678   9.776  0.1299 -0.2874 -0.3225
  914MOL0     C20581  10.674   3.262   9.488  0.7673 -0.2404  0.9384
  914MOL0     C20582  10.784   3.308   9.421  0.3586 -0.3010  0.2876
  914MOL0     H20583  11.353   3.202   9.517  1.7481 -1.0254 -0.2369
  914MOL0     H20584  11.571   3.195   9.458  1.1127  1.1089  0.4938
  914MOL0     H20585  11.826   3.240   9.073 -0.8155  1.1330  0.6117
  914MOL0     H20586  11.669   3.298   9.027 -3.0623 -3.3155 -2.4170
  914MOL0     H20587  11.710   3.096   8.896 -3.2821 -0.1901 -0.9723
  914MOL0     H20588  11.603   3.042   9.033 -0.2220  1.1740 -1.2444
  914MOL0     H20589  11.776   2.878   9.010 -1.2935  1.6499 -2.2435
  914MOL0     H20590  11.816   2.976   9.156  1.9517 -1.6710 -0.4746
  914MOL0     H20591  11.935   3.009   8.873  1.2787  2.6447  0.5064
  914MOL0     H20592  11.965   3.104   9.019  1.1014 -0.1829 -0.8215
  914MOL0     H20593  12.097   2.904   9.115  1.4417 -2.4668 -0.2137
  914MOL0     H20594  12.156   2.959   8.961 -1.4391  1.7346 -0.6656
  914MOL0     H20595  12.047   2.806   8.832  1.3244  2.8682 -0.3144
  914MOL0     H20596  11.981   2.732   8.982 -0.5282  0.3646  0.2133
  914MOL0     H20597  12.201   2.687   9.072  0.7060 -0.9083  0.0846
  914MOL0     H20598  12.177   2.588   8.924  0.0289  0.5797 -2.6219
  914MOL0     H20599  12.338   2.851   8.939  1.3679 -0.7220  0.2863
  914MOL0     H20600  12.293   2.756   8.798 -1.8952  1.1140  0.1632
  914MOL0     H20601  12.480   2.568   8.737 -1.4909 -1.1963  1.1238
  914MOL0     H20602  12.794   2.477   8.802  0.7938 -0.8795 -2.3763
  914MOL0     H20603  12.676   2.365   8.754  4.3600  2.4168 -2.6926
  914MOL0     H20604  12.675   2.241   8.964  1.1590 -1.4481 -2.2276
  914MOL0     H20605  12.788   2.357   9.041 -1.3825  2.2259 -0.2494
  914MOL0     H20606  12.829   2.197   8.782 -0.0003  0.6387  1.3594
  914MOL0     H20607  12.962   2.301   8.850  1.6114 -0.2791 -1.4486
  914MOL0     H20608  12.978   2.062   8.924  3.6920  3.4618  1.2632
  914MOL0     H20609  12.816   2.053   8.983  0.3860 -1.8123 -0.0037
  914MOL0     H20610  13.007   2.222   9.364  0.4191 -1.2056 -0.6062
  914MOL0     H20611  13.195   2.304   9.424 -1.0538  2.5420  0.1263
  914MOL0     H20612  13.711   2.307   9.383 -2.3110  0.3929 -0.3962
  914MOL0     H20613  13.889   2.338   9.550  0.8537 -0.7808  3.8946
  914MOL0     H20614  13.964   2.466   9.795  2.3017 -0.1871  2.7504
  914MOL0     H20615  14.035   2.343   9.709 -1.8520  1.9031 -2.6373
  914MOL0     H20616  14.023   2.387  10.005  2.4149  1.7623  0.8512
  914MOL0     H20617  14.163   2.370   9.888  0.8848 -1.6488 -0.4259
  914MOL0     H20618  14.114   2.126   9.851 -1.3383 -1.1713  0.5143
  914MOL0     H20619  13.976   2.142   9.959 -1.9400  2.1184 -2.0239
  914MOL0     H20620  14.273   2.165  10.052 -0.1570  0.9244  2.3218
  914MOL0     H20621  14.131   2.201  10.146  1.6711 -0.8666  1.3491
  914MOL0     H20622  14.183   1.925  10.017 -0.0161  0.8358 -1.2928
  914MOL0     H20623  14.031   1.968  10.086  0.2569 -2.6226 -0.5573
  914MOL0     H20624  14.219   2.042  10.295  0.2131 -0.5051  1.3203
  914MOL0     H20625  14.300   1.930  10.205  1.4316  4.8602  0.4283
  914MOL0     H20626  14.012   1.851  10.279 -0.1310 -0.9944  1.2326
  914MOL0     H20627  14.156   1.753  10.287 -0.9574 -0.5396 -0.8202
  914MOL0     H20628  14.096   1.815  10.513  0.5979  1.0230  0.7650
  914MOL0     H20629  14.109   1.991  10.485  2.0875 -0.6315  2.7056
  914MOL0     H20630  13.603   2.229   9.852  0.1237  1.0051 -0.4536
  914MOL0     H20631  13.420   2.246   9.677 -0.9682  2.1860 -1.7485
  914MOL0     H20632  13.379   2.220   9.037 -2.3195 -0.3296 -2.7973
  914MOL0     H20633  13.172   2.135   8.968  1.0278  0.7021 -0.5970
  914MOL0     H20634  11.452   3.241   9.044  1.5621  3.0170  1.1223
  914MOL0     H20635  11.216   3.266   9.125  0.7463  1.5234 -1.4096
  914MOL0     H20636  10.988   3.042   9.478  0.8985 -0.5085  2.8658
  914MOL0     H20637  10.802   2.948   9.577 -0.4200  0.2614 -1.8821
  914MOL0     H20638  10.424   3.156   9.534 -0.5415 -0.5238  0.3543
  914MOL0     H20639  10.472   3.230   9.687 -1.4159  0.4681  0.1140
  914MOL0     H20640  10.263   3.080   9.685  0.2784  1.5751 -2.3606
  914MOL0     H20641  10.346   2.942   9.635 -2.9356  0.4448  0.0249
  914MOL0     H20642  10.367   3.095   9.888  0.8201  0.0259 -1.6094
  914MOL0     H20643  10.482   2.962   9.868  0.6535  1.2034  3.0005
  914MOL0     H20644  10.263   2.919   9.990  1.0523  0.1005 -0.8924
  914MOL0     H20645  10.161   2.946   9.867  0.2702  2.1135  1.5108
  914MOL0     H20646  10.338   2.592   9.716  2.3088 -1.7807  2.4114
  914MOL0     H20647  10.587   3.326   9.493  0.4580 -0.6826  1.3124
  914MOL0     H20648  10.795   3.405   9.373  1.2233 -1.4796 -2.0764
  915MOL0     O20649   0.666   3.078   3.080  0.2745 -0.1301 -0.5014
  915MOL0     C20650   0.621   3.192   3.039  0.0158 -0.4222  0.4753
  915MOL0     O20651   0.501   3.243   3.057  1.1094 -0.0675  0.1562
  915MOL0     C20652   0.425   3.176   3.134 -0.3841 -0.3060  0.1369
  915MOL0     C20653   0.316   3.110   3.081  0.2687  0.1008  0.5326
  915MOL0     C20654   0.232   3.023   3.148 -0.0314 -0.2666 -0.4459
  915MOL0     C20655   0.266   2.995   3.283 -0.6008 -0.5232 -0.3936
  915MOL0     O20656   0.187   2.923   3.366  0.4660 -0.2515  0.0225
  915MOL0     C20657   0.193   2.781   3.353  0.2458  0.0825 -0.0679
  915MOL0     C20658   0.081   2.726   3.439  0.1298 -0.1173  0.3327
  915MOL0     C20659  -0.049   2.717   3.365  0.6204  0.2211 -0.1501
  915MOL0     C20660  -0.177   2.743   3.465 -0.3109  0.4658 -0.0758
  915MOL0     C20661  -0.300   2.735   3.381 -0.6090 -0.1062  1.0406
  915MOL0     C20662  -0.423   2.740   3.471  0.3026 -0.4227  0.2635
  915MOL0     C20663  -0.461   2.881   3.516  0.7623  0.4259 -0.0193
  915MOL0     C20664  -0.402   2.936   3.650  0.7524  1.0730 -0.1901
  915MOL0     N20665  -0.472   3.050   3.695  0.3734 -0.5589 -0.3836
  915MOL0     C20666  -0.490   3.158   3.615  0.2160 -0.0433 -0.4312
  915MOL0     C20667  -0.603   3.218   3.643 -0.5387 -0.2451 -0.1454
  915MOL0     C20668  -0.663   3.326   3.554 -0.1666 -0.3839  0.2873
  915MOL0     C20669  -0.812   3.337   3.545 -0.6093  0.0227  0.3118
  915MOL0     C20670  -0.887   3.212   3.499  0.2822 -0.1054  0.0075
  915MOL0     C20671  -0.811   3.110   3.416  0.1312  0.0338 -0.1729
  915MOL0     O20672  -0.907   3.012   3.386 -0.4639 -0.8441 -0.8563
  915MOL0     C20673  -0.868   2.890   3.334 -0.1858 -0.5840 -0.4660
  915MOL0     C20674  -0.746   2.862   3.274  0.3946 -0.5362 -0.6271
  915MOL0     C20675  -0.725   2.741   3.212  0.5515 -0.2622 -1.2327
  915MOL0     C20676  -0.817   2.634   3.237  0.5121 -0.6004 -1.0044
  915MOL0     C20677  -0.784   2.503   3.176 -0.2910  1.0052  0.6059
  915MOL0     O20678  -0.883   2.416   3.139 -0.4618  1.0470 -0.1925
  915MOL0     C20679  -0.859   2.283   3.116 -0.2899  0.3657 -0.2099
  915MOL0     C20680  -0.964   2.192   3.152 -1.1985  0.6386 -0.3749
  915MOL0     C20681  -0.946   2.053   3.122 -0.1556  0.6773 -0.8628
  915MOL0     C20682  -0.845   2.014   3.040  1.2159 -0.0939  0.0858
  915MOL0     O20683  -0.840   1.885   3.016 -0.0440  0.4769  0.4245
  915MOL0     C20684  -0.886   1.854   2.896 -0.3228 -0.0255  1.0841
  915MOL0     C20685  -0.883   1.706   2.869  0.4361  0.6794 -1.0351
  915MOL0     C20686  -0.932   1.625   2.990 -0.9125  1.2413 -0.6868
  915MOL0     C20687  -0.952   1.474   2.968 -0.3608 -0.3415  0.2861
  915MOL0     C20688  -1.062   1.417   3.038  0.5365 -0.2832 -0.7516
  915MOL0     C20689  -1.039   1.423   3.195  0.0279  0.0597  0.6971
  915MOL0     C20690  -1.150   1.359   3.275  0.8011  1.7757  1.2318
  915MOL0     C20691  -1.127   1.390   3.419  0.5787 -0.0236  0.2116
  915MOL0    Cl20692  -1.213   1.542   3.463 -0.1825 -0.1976 -0.6695
  915MOL0     C20693  -0.742   2.094   3.000 -0.0079 -0.1303 -0.0171
  915MOL0     C20694  -0.744   2.225   3.049  0.3616  0.6340  0.1076
  915MOL0     O20695  -0.665   2.476   3.194 -0.7680 -0.4707  0.0181
  915MOL0     C20696  -0.949   2.658   3.293 -0.5658 -0.4677  0.4581
  915MOL0     C20697  -0.976   2.792   3.335 -0.1725  0.5069  0.8038
  915MOL0     N20698  -0.654   3.152   3.755  0.5740 -0.1692 -0.6105
  915MOL0     N20699  -0.568   3.051   3.786 -0.2044 -0.2072  0.4886
  915MOL0     C20700   0.379   3.057   3.343  0.5151 -1.1841 -0.4274
  915MOL0     C20701   0.457   3.152   3.268  0.2539  0.3545 -0.6326
  915MOL0     C20702   0.704   3.272   2.946 -0.2332  0.6377 -0.0955
  915MOL0     C20703   0.642   3.383   2.881 -0.1407  0.9129  0.0700
  915MOL0     C20704   0.724   3.458   2.797 -0.1698 -0.1079  0.1888
  915MOL0     C20705   0.862   3.428   2.760 -0.1204 -0.3016 -0.3834
  915MOL0     O20706   0.916   3.518   2.676 -0.0925  0.0286  0.5304
  915MOL0     C20707   1.036   3.467   2.602  0.0672  0.5632 -0.3252
  915MOL0     C20708   1.165   3.500   2.677 -0.2508 -0.4590 -0.1042
  915MOL0     C20709   1.212   3.641   2.647  0.1619  0.7649  0.0323
  915MOL0     C20710   1.361   3.632   2.675 -1.2766  0.8838 -0.5492
  915MOL0     C20711   1.400   3.635   2.819  1.0321 -0.0401  0.2365
  915MOL0     C20712   1.425   3.659   2.936 -0.0970 -0.2976 -0.4621
  915MOL0     C20713   0.917   3.321   2.834 -0.4149  0.3369  0.9918
  915MOL0     C20714   0.839   3.247   2.916  0.4089  0.5177 -0.2163
  915MOL0     H20715   0.285   3.144   2.982  1.7607 -2.4878 -0.9248
  915MOL0     H20716   0.163   2.961   3.093  0.0043 -0.1635 -0.6074
  915MOL0     H20717   0.288   2.750   3.397 -1.7134  0.9055  5.7010
  915MOL0     H20718   0.191   2.750   3.249  2.3569 -1.2295  0.2381
  915MOL0     H20719   0.070   2.779   3.534  0.2266  0.3679  0.0777
  915MOL0     H20720   0.098   2.621   3.464 -1.8833 -0.9480 -1.5323
  915MOL0     H20721  -0.072   2.623   3.315  0.9105 -1.1427  2.1232
  915MOL0     H20722  -0.050   2.793   3.287 -5.5937 -0.9984 -1.8017
  915MOL0     H20723  -0.174   2.670   3.546  1.0008 -1.1903 -1.5316
  915MOL0     H20724  -0.174   2.840   3.516 -1.6097  0.8266 -0.6404
  915MOL0     H20725  -0.307   2.639   3.329  1.8357  0.4809 -0.5228
  915MOL0     H20726  -0.279   2.818   3.313  4.1034 -0.8360  1.2985
  915MOL0     H20727  -0.425   2.668   3.553 -2.5607 -1.8160 -0.9222
  915MOL0     H20728  -0.506   2.717   3.403 -2.3856  4.8257  1.2398
  915MOL0     H20729  -0.422   2.941   3.433  2.5388 -3.1719 -2.0226
  915MOL0     H20730  -0.570   2.874   3.521  0.8504 -0.4931  1.1692
  915MOL0     H20731  -0.297   2.966   3.639  0.9386  0.7880  0.7190
  915MOL0     H20732  -0.401   2.848   3.714 -0.1390 -0.6903 -2.4962
  915MOL0     H20733  -0.421   3.180   3.534  4.2931  0.9435  2.9253
  915MOL0     H20734  -0.630   3.310   3.451 -1.1208 -0.8381  0.0510
  915MOL0     H20735  -0.622   3.422   3.587  0.4856 -0.1557 -1.1037
  915MOL0     H20736  -0.829   3.421   3.478  3.0129  0.0193 -0.8247
  915MOL0     H20737  -0.849   3.376   3.640  1.4855  2.0745  0.3649
  915MOL0     H20738  -0.916   3.155   3.588  1.3336  0.4084  0.7012
  915MOL0     H20739  -0.980   3.240   3.449 -0.2072 -0.8106  0.5031
  915MOL0     H20740  -0.736   3.056   3.475  0.7013  0.4702 -0.4892
  915MOL0     H20741  -0.765   3.159   3.330 -1.1916  3.4015  0.8797
  915MOL0     H20742  -0.673   2.941   3.275 -0.0492 -0.1219  0.1527
  915MOL0     H20743  -0.631   2.716   3.164  1.0023 -0.4986 -0.2422
  915MOL0     H20744  -1.057   2.240   3.183 -1.6558  0.7756 -1.8776
  915MOL0     H20745  -1.027   1.983   3.142  0.3153  0.1847 -0.6577
  915MOL0     H20746  -0.838   1.900   2.810  0.6627 -0.2626  1.4957
  915MOL0     H20747  -0.990   1.879   2.874 -0.4337  0.4588  2.1097
  915MOL0     H20748  -0.775   1.687   2.860  0.6946  0.7158  1.3257
  915MOL0     H20749  -0.949   1.686   2.785 -3.0208  0.6549  1.4920
  915MOL0     H20750  -1.033   1.667   2.999 -0.8558  2.0557 -3.1066
  915MOL0     H20751  -0.893   1.645   3.090 -4.4955  1.4478  0.8124
  915MOL0     H20752  -0.972   1.458   2.862  0.8059  2.0846 -0.3803
  915MOL0     H20753  -0.864   1.414   2.994 -1.3087 -2.6126 -1.4230
  915MOL0     H20754  -1.076   1.313   3.006  2.0734 -1.0396  0.8922
  915MOL0     H20755  -1.149   1.479   3.011 -0.7774 -1.9030 -0.4320
  915MOL0     H20756  -1.018   1.524   3.232  1.7882  0.0822 -0.2711
  915MOL0     H20757  -0.952   1.358   3.208 -2.2432 -3.3288  0.0284
  915MOL0     H20758  -1.248   1.398   3.247  0.0849 -1.9314 -2.5268
  915MOL0     H20759  -1.149   1.251   3.254 -0.6685  1.7376  1.2441
  915MOL0     H20760  -1.022   1.409   3.442  0.8752  0.0648 -1.1274
  915MOL0     H20761  -1.170   1.314   3.484  0.5670  1.6190  2.2330
  915MOL0     H20762  -0.664   2.053   2.937  0.8735 -0.9808  1.5658
  915MOL0     H20763  -0.660   2.282   3.013  1.3904 -0.8473  0.0771
  915MOL0     H20764  -1.019   2.580   3.321  0.3409 -0.2943  3.5218
  915MOL0     H20765  -1.071   2.827   3.374  0.2747  1.9689  0.6604
  915MOL0     H20766   0.399   3.051   3.450  0.5999  0.1163 -0.3557
  915MOL0     H20767   0.547   3.195   3.310  0.5615 -2.3660  1.8952
  915MOL0     H20768   0.536   3.402   2.886 -0.8863 -2.6854  0.6288
  915MOL0     H20769   0.670   3.540   2.751 -0.6720 -0.7491 -0.3792
  915MOL0     H20770   1.022   3.521   2.508 -0.7887  1.5596  0.3514
  915MOL0     H20771   1.020   3.361   2.581 -1.4943  1.3277 -3.7604
  915MOL0     H20772   1.151   3.487   2.784 -0.6512 -1.5517 -0.2755
  915MOL0     H20773   1.234   3.426   2.636  0.0699 -0.6125  0.7060
  915MOL0     H20774   1.170   3.716   2.714  0.7594 -1.4144  3.0466
  915MOL0     H20775   1.179   3.672   2.547 -2.7081 -0.4282  0.5088
  915MOL0     H20776   1.407   3.558   2.610 -0.7162 -1.6301  2.4598
  915MOL0     H20777   1.401   3.723   2.628 -1.7709  0.2538 -2.2452
  915MOL0     H20778   1.433   3.695   3.036 -0.5140 -1.3630 -0.0293
  915MOL0     H20779   1.018   3.282   2.822 -0.2271  0.5231  1.9225
  915MOL0     H20780   0.887   3.158   2.955 -0.4632  0.5846  1.0769
  916MOL0     O20781   7.056   3.486   4.121  0.1870  0.8247  0.0088
  916MOL0     C20782   7.174   3.533   4.130  0.6223  0.7042 -0.2409
  916MOL0     O20783   7.237   3.607   4.030 -0.3589  0.1372  0.1292
  916MOL0     C20784   7.180   3.608   3.904  0.9729 -0.4612  0.0632
  916MOL0     C20785   7.104   3.505   3.844  0.3457  0.5729  0.5134
  916MOL0     C20786   7.079   3.514   3.705  0.2934 -1.0797  0.6979
  916MOL0     C20787   7.123   3.632   3.640 -0.5964 -0.0692  0.0657
  916MOL0     O20788   7.062   3.647   3.515 -0.2512  0.5122 -0.7116
  916MOL0     C20789   7.123   3.746   3.425  0.1800  0.3040 -0.0934
  916MOL0     C20790   7.033   3.734   3.297  1.7014  0.0062 -0.2233
  916MOL0     C20791   6.906   3.814   3.313  0.1505  0.8623 -0.7587
  916MOL0     C20792   6.941   3.962   3.299  0.3871 -0.3483 -0.1494
  916MOL0     C20793   6.821   4.044   3.348 -0.2012  0.4918  0.2959
  916MOL0     C20794   6.841   4.193   3.346  0.5997  0.5148 -0.0620
  916MOL0     C20795   6.946   4.233   3.453 -0.6906 -0.1780  0.5509
  916MOL0     C20796   6.952   4.383   3.487 -1.0007 -0.3950 -0.7986
  916MOL0     N20797   6.949   4.473   3.369  0.6983 -0.1650 -0.5276
  916MOL0     C20798   6.836   4.527   3.312  1.0204  0.9741  0.8920
  916MOL0     C20799   6.870   4.621   3.229 -0.0754  0.2700  0.0129
  916MOL0     C20800   6.773   4.698   3.148 -0.2507 -0.4352 -0.1321
  916MOL0     C20801   6.693   4.804   3.238 -0.0672 -0.2306 -0.1768
  916MOL0     C20802   6.649   4.927   3.167 -0.3537 -0.0520  0.1789
  916MOL0     C20803   6.530   5.006   3.233  0.2798  0.4548  0.3859
  916MOL0     O20804   6.480   5.101   3.141  0.3685 -0.3747  0.0869
  916MOL0     C20805   6.543   5.219   3.123 -0.6993 -0.0523 -0.3337
  916MOL0     C20806   6.568   5.271   3.006 -0.5594  0.0484 -0.0298
  916MOL0     C20807   6.628   5.396   2.990  0.6238  0.0641  0.0712
  916MOL0     C20808   6.652   5.493   3.091 -0.6000 -0.4082  0.0494
  916MOL0     C20809   6.724   5.622   3.074 -0.6080  0.5069  0.0034
  916MOL0     O20810   6.766   5.654   2.950 -0.6425  0.5874 -0.0395
  916MOL0     C20811   6.820   5.775   2.918  0.3850 -0.4104 -0.0969
  916MOL0     C20812   6.918   5.785   2.817  0.3388 -0.8167 -0.3704
  916MOL0     C20813   6.972   5.910   2.793  0.3164 -0.3311  0.3753
  916MOL0     C20814   6.933   6.029   2.850  0.2119  0.6666  1.0464
  916MOL0     O20815   7.000   6.142   2.817  0.4047  0.2421  0.2554
  916MOL0     C20816   7.059   6.212   2.931 -0.5814  0.3541  0.3515
  916MOL0     C20817   7.153   6.319   2.879  0.1996 -0.6459  0.9272
  916MOL0     C20818   7.227   6.405   2.984  0.1068 -0.1283  0.2620
  916MOL0     C20819   7.318   6.506   2.912 -1.2418 -0.6107 -0.5479
  916MOL0     C20820   7.416   6.575   3.009  0.1084  0.7470  0.5995
  916MOL0     C20821   7.346   6.621   3.136  0.0644 -0.2299 -0.1589
  916MOL0     C20822   7.434   6.673   3.248 -0.5005  0.9268  0.4989
  916MOL0     C20823   7.362   6.775   3.334 -0.1303  0.1515  0.6814
  916MOL0    Cl20824   7.240   6.703   3.428  0.0979 -0.3800  0.1330
  916MOL0     C20825   6.832   6.018   2.946  1.0484  0.0988 -0.6305
  916MOL0     C20826   6.777   5.890   2.975  0.6982  0.6121  0.1429
  916MOL0     O20827   6.740   5.696   3.173  0.3844  0.5946 -0.0615
  916MOL0     C20828   6.601   5.436   3.212  0.1953 -0.4675  0.5825
  916MOL0     C20829   6.560   5.306   3.231  0.5324 -0.2726 -0.7317
  916MOL0     N20830   7.009   4.621   3.228  0.4016 -0.3460 -0.1006
  916MOL0     N20831   7.055   4.532   3.310  0.1365 -0.6356 -0.9806
  916MOL0     C20832   7.201   3.725   3.698 -0.7532  0.5683 -0.2352
  916MOL0     C20833   7.226   3.719   3.830 -1.3414  0.4493 -0.1459
  916MOL0     C20834   7.244   3.499   4.254 -0.9153 -0.6216 -0.1947
  916MOL0     C20835   7.386   3.486   4.249  0.9296 -0.2480 -0.3923
  916MOL0     C20836   7.458   3.430   4.361  0.3021  0.1076  0.3328
  916MOL0     C20837   7.386   3.383   4.467 -0.1565  0.5900 -0.8052
  916MOL0     O20838   7.447   3.328   4.575  0.3802 -0.1613 -1.2317
  916MOL0     C20839   7.587   3.292   4.586 -0.0715  1.0226  1.1335
  916MOL0     C20840   7.630   3.267   4.729 -0.9876  0.2868  0.5173
  916MOL0     C20841   7.780   3.242   4.723  0.7841  0.8198  0.4005
  916MOL0     C20842   7.846   3.254   4.862 -0.1596  0.3070 -0.3894
  916MOL0     C20843   7.989   3.246   4.841  0.7218  0.4313 -0.3820
  916MOL0     C20844   8.109   3.241   4.822 -0.0320 -0.1787  0.1492
  916MOL0     C20845   7.245   3.400   4.473 -0.7642 -0.4760  0.0176
  916MOL0     C20846   7.178   3.459   4.362  0.0388  0.0244  0.8312
  916MOL0     H20847   7.079   3.413   3.896  0.5015 -0.1682 -0.6755
  916MOL0     H20848   7.016   3.455   3.640 -0.7937  1.6716 -0.9220
  916MOL0     H20849   7.229   3.731   3.402  0.3703  2.0729 -0.5493
  916MOL0     H20850   7.128   3.845   3.471  2.6266  0.7526 -1.1346
  916MOL0     H20851   7.012   3.630   3.272  2.8286 -0.8940  2.2138
  916MOL0     H20852   7.086   3.773   3.209  2.4676  2.8870  1.3776
  916MOL0     H20853   6.852   3.802   3.407  0.6539  2.3194 -0.2518
  916MOL0     H20854   6.845   3.779   3.229  0.9293 -1.1552 -0.5391
  916MOL0     H20855   7.028   3.977   3.363  1.0072 -1.2527 -0.7688
  916MOL0     H20856   6.952   3.986   3.193 -0.4118  1.1857  0.0759
  916MOL0     H20857   6.787   3.993   3.438 -0.4516  0.1591  0.0168
  916MOL0     H20858   6.744   4.025   3.272  2.8195 -1.3288 -2.5660
  916MOL0     H20859   6.755   4.257   3.370  1.2976  1.2083  0.6928
  916MOL0     H20860   6.874   4.237   3.252 -1.4850  4.4614  0.8263
  916MOL0     H20861   6.923   4.180   3.546  0.2186 -1.0349  0.3058
  916MOL0     H20862   7.042   4.203   3.410 -1.0586  0.5133 -0.8065
  916MOL0     H20863   7.051   4.394   3.531 -0.9274 -0.6206 -0.9043
  916MOL0     H20864   6.869   4.416   3.550 -1.2529 -3.3676  0.5991
  916MOL0     H20865   6.733   4.501   3.336  1.5916  0.4643  3.0351
  916MOL0     H20866   6.713   4.635   3.082 -0.9392  0.9002 -0.8119
  916MOL0     H20867   6.845   4.747   3.082  2.6127 -3.0514  0.7326
  916MOL0     H20868   6.770   4.827   3.312  2.7760 -3.0282 -2.0058
  916MOL0     H20869   6.604   4.765   3.286  0.0872 -1.3011 -0.7440
  916MOL0     H20870   6.736   4.992   3.163  2.2203 -3.2099  0.3033
  916MOL0     H20871   6.655   4.897   3.061  4.1659 -0.2618  0.3025
  916MOL0     H20872   6.573   5.054   3.322  2.5397 -0.4403 -0.1675
  916MOL0     H20873   6.452   4.937   3.265  0.3624  0.0857 -0.2065
  916MOL0     H20874   6.525   5.219   2.920 -2.6036 -0.8287  1.4430
  916MOL0     H20875   6.657   5.445   2.897 -1.0354 -0.1310 -0.5820
  916MOL0     H20876   6.961   5.698   2.770 -0.8948 -0.3810 -2.4233
  916MOL0     H20877   7.053   5.908   2.721 -0.2665  1.6340 -0.3814
  916MOL0     H20878   7.114   6.142   2.993  0.3981  1.5479  0.8799
  916MOL0     H20879   6.976   6.260   2.983  0.1321 -0.8835  2.7747
  916MOL0     H20880   7.100   6.388   2.813 -1.8085 -1.9243  1.1378
  916MOL0     H20881   7.233   6.274   2.819 -0.9281  1.0353 -2.0747
  916MOL0     H20882   7.277   6.342   3.058  0.9876 -0.2285 -0.4033
  916MOL0     H20883   7.141   6.453   3.030  1.2971  2.1515  0.2526
  916MOL0     H20884   7.375   6.468   2.827 -0.6526 -0.0866 -0.3968
  916MOL0     H20885   7.250   6.586   2.883 -0.8202  1.1836  2.8582
  916MOL0     H20886   7.457   6.658   2.952 -0.8148  0.4046 -0.6216
  916MOL0     H20887   7.477   6.486   3.025 -2.3465 -1.4119 -1.1134
  916MOL0     H20888   7.290   6.543   3.189  1.3829 -1.5786 -0.6892
  916MOL0     H20889   7.288   6.707   3.100  1.8889  0.4682 -1.5748
  916MOL0     H20890   7.466   6.585   3.304  1.0366  1.0735 -0.1212
  916MOL0     H20891   7.522   6.710   3.196 -0.4120  1.5170  1.0611
  916MOL0     H20892   7.319   6.845   3.262  1.7172  1.4142  0.7280
  916MOL0     H20893   7.430   6.828   3.401  1.3272 -1.3472  0.4546
  916MOL0     H20894   6.782   6.102   2.992 -0.7935 -1.7436  0.9199
  916MOL0     H20895   6.688   5.885   3.036  0.2185  1.3982 -0.4793
  916MOL0     H20896   6.611   5.496   3.301 -0.5948 -0.8628  0.9497
  916MOL0     H20897   6.530   5.272   3.329  0.8480 -2.3604 -1.3269
  916MOL0     H20898   7.240   3.806   3.637 -0.8021  0.9518  0.2371
  916MOL0     H20899   7.290   3.792   3.878 -2.6198  1.1227  0.6019
  916MOL0     H20900   7.444   3.530   4.168 -2.1938  2.4163 -1.4090
  916MOL0     H20901   7.566   3.428   4.348  0.1274 -2.0819 -1.4141
  916MOL0     H20902   7.657   3.369   4.553 -1.7815  2.2091  0.0725
  916MOL0     H20903   7.596   3.209   4.517 -1.3421  1.6786  0.1325
  916MOL0     H20904   7.612   3.361   4.782 -2.3742 -0.3693  1.2570
  916MOL0     H20905   7.577   3.183   4.774  1.4407 -0.7467  1.6773
  916MOL0     H20906   7.825   3.319   4.659 -2.8707  3.2260  0.4606
  916MOL0     H20907   7.796   3.143   4.680 -0.4946  1.1273 -0.8535
  916MOL0     H20908   7.808   3.342   4.914  2.4605 -0.5351  3.3552
  916MOL0     H20909   7.816   3.176   4.933  3.6608  0.1688  1.2681
  916MOL0     H20910   8.215   3.241   4.808  0.0201 -0.7722  0.4955
  916MOL0     H20911   7.184   3.386   4.561 -0.0051 -1.0291  0.4621
  916MOL0     H20912   7.071   3.461   4.375 -0.3142 -0.9807 -1.4288
  917MOL0     O20913   7.998   9.998   0.816 -0.0133  0.3074  0.6006
  917MOL0     C20914   7.905  10.077   0.796 -0.1538  0.5447 -0.1554
  917MOL0     O20915   7.782  10.067   0.851 -0.2276  0.2750  0.0071
  917MOL0     C20916   7.759   9.987   0.957 -0.4755  0.1451 -0.5651
  917MOL0     C20917   7.848   9.953   1.059 -0.3212 -0.4917 -0.2698
  917MOL0     C20918   7.810   9.867   1.157  1.0419  0.7958 -1.0911
  917MOL0     C20919   7.681   9.822   1.178  0.2284  0.4169  1.4526
  917MOL0     O20920   7.650   9.734   1.272 -1.0240  0.2681 -0.2596
  917MOL0     C20921   7.538   9.763   1.354 -0.3398 -0.1683  0.4782
  917MOL0     C20922   7.559   9.680   1.487  0.0481 -0.2048  0.7298
  917MOL0     C20923   7.701   9.676   1.538  0.2112 -0.5418  0.6476
  917MOL0     C20924   7.712   9.586   1.666 -0.2578 -0.0237 -0.6595
  917MOL0     C20925   7.639   9.646   1.798  0.1067  0.8938  0.7251
  917MOL0     C20926   7.651   9.791   1.822 -0.2815 -1.1788 -0.6121
  917MOL0     C20927   7.798   9.838   1.843  0.8494  0.0610  0.4559
  917MOL0     C20928   7.822   9.895   1.984 -0.7220  0.3389 -0.4117
  917MOL0     N20929   7.947   9.974   1.975  0.0264 -1.3462 -0.1465
  917MOL0     C20930   8.071   9.922   1.959 -0.0366 -0.8663  0.5619
  917MOL0     C20931   8.151  10.018   1.935 -0.4364 -1.5654  0.0499
  917MOL0     C20932   8.295  10.003   1.908 -0.6819  0.5165  0.0814
  917MOL0     C20933   8.342  10.060   1.775  0.5140 -0.8908  0.0607
  917MOL0     C20934   8.369  10.210   1.803  0.1464 -0.5883  0.1236
  917MOL0     C20935   8.444  10.285   1.696 -0.6970 -0.1510 -0.2115
  917MOL0     O20936   8.371  10.301   1.579 -0.0196  0.5306  0.7872
  917MOL0     C20937   8.431  10.380   1.474 -0.0889  1.2415 -0.0488
  917MOL0     C20938   8.341  10.407   1.372  0.2707 -0.3745  0.7190
  917MOL0     C20939   8.388  10.490   1.272 -0.4470  0.4732  0.1917
  917MOL0     C20940   8.516  10.544   1.264  0.4937  0.2321  0.0240
  917MOL0     C20941   8.552  10.613   1.138  0.3221  0.8832 -0.2518
  917MOL0     O20942   8.448  10.661   1.063 -1.0372  0.7468 -0.1052
  917MOL0     C20943   8.490  10.744   0.962 -0.0724  1.3670 -0.5112
  917MOL0     C20944   8.494  10.878   0.993  0.0363 -0.4609 -0.7336
  917MOL0     C20945   8.534  10.970   0.881  0.5737 -0.8963 -0.2604
  917MOL0     C20946   8.557  10.920   0.745 -0.7950 -0.2381 -0.3815
  917MOL0     O20947   8.610  10.996   0.650 -0.3286 -0.0867 -0.2599
  917MOL0     C20948   8.712  11.091   0.687 -0.6738  0.1024  0.1555
  917MOL0     C20949   8.771  11.151   0.557  0.2463  0.0559  0.0646
  917MOL0     C20950   8.804  11.048   0.450 -0.0018 -0.0252  0.6425
  917MOL0     C20951   8.912  10.946   0.506  0.8950 -0.0322 -0.1526
  917MOL0     C20952   8.992  10.866   0.391 -0.8011 -0.6087 -0.7993
  917MOL0     C20953   9.085  10.946   0.306  0.3677  0.8536  0.2377
  917MOL0     C20954   9.169  10.849   0.227 -0.0112 -0.5213  0.4040
  917MOL0     C20955   9.271  10.921   0.152  0.1324  1.1683 -0.5872
  917MOL0    Cl20956   9.413  10.991   0.258 -0.0460  0.5398 -0.4209
  917MOL0     C20957   8.544  10.787   0.716 -0.0154  0.2014 -0.2845
  917MOL0     C20958   8.512  10.701   0.828 -0.2055  0.0993 -0.0839
  917MOL0     O20959   8.676  10.618   1.115 -0.0829 -0.7892  0.4275
  917MOL0     C20960   8.614  10.519   1.371 -0.3999  0.3592 -0.4897
  917MOL0     C20961   8.569  10.431   1.467 -0.9754  0.7331 -0.5594
  917MOL0     N20962   8.078  10.138   1.945  0.7920 -0.4966  0.2694
  917MOL0     N20963   7.950  10.112   1.976  0.6982  0.3555 -0.0091
  917MOL0     C20964   7.589   9.860   1.082  0.0226  0.6516  0.6860
  917MOL0     C20965   7.628   9.938   0.967  0.0965 -0.1694 -0.4428
  917MOL0     C20966   7.920  10.174   0.681 -0.9445  0.6970 -0.2011
  917MOL0     C20967   7.834  10.279   0.647  0.2617 -0.1855  0.9578
  917MOL0     C20968   7.858  10.360   0.539 -0.9853 -0.1347 -0.1295
  917MOL0     C20969   7.972  10.351   0.461 -0.1585 -0.2817 -0.7558
  917MOL0     O20970   8.000  10.447   0.369 -0.7850 -0.0328 -0.0142
  917MOL0     C20971   7.931  10.570   0.376  0.1669  0.0156  0.0988
  917MOL0     C20972   8.000  10.673   0.277 -0.1450  0.5278  0.2611
  917MOL0     C20973   7.942  10.656   0.138  0.0797  0.2888  0.2497
  917MOL0     C20974   8.037  10.718   0.041  1.0471 -0.0862 -0.8443
  917MOL0     C20975   7.958  10.758  -0.078  0.8230 -0.1798  0.2039
  917MOL0     C20976   7.888  10.781  -0.177 -0.6247 -0.2107  0.5445
  917MOL0     C20977   8.059  10.242   0.492 -0.1710  0.4574 -0.1016
  917MOL0     C20978   8.038  10.160   0.599 -0.0626  0.6005 -0.6288
  917MOL0     H20979   7.946  10.001   1.061  0.1983 -1.5388  1.1129
  917MOL0     H20980   7.887   9.828   1.222 -0.5893 -0.5607  0.0935
  917MOL0     H20981   7.455   9.729   1.291  1.0105 -0.2739 -1.3353
  917MOL0     H20982   7.532   9.869   1.381  0.9752  0.6571 -2.0947
  917MOL0     H20983   7.533   9.575   1.468  1.0462 -0.6310  1.6702
  917MOL0     H20984   7.496   9.719   1.568  0.7324  2.7842 -0.0606
  917MOL0     H20985   7.737   9.779   1.544  2.9530 -1.3446 -0.6581
  917MOL0     H20986   7.761   9.627   1.461 -0.9591  1.2474 -1.5159
  917MOL0     H20987   7.683   9.482   1.653 -2.2746  0.5288 -0.9831
  917MOL0     H20988   7.818   9.583   1.691  0.0072  0.3433 -1.7040
  917MOL0     H20989   7.684   9.596   1.884  3.0580  0.4438 -0.9135
  917MOL0     H20990   7.534   9.617   1.786  0.5243  0.3547 -2.5822
  917MOL0     H20991   7.584   9.814   1.906 -1.7489 -3.2564 -1.1292
  917MOL0     H20992   7.614   9.852   1.739  1.5214 -1.1544 -1.4350
  917MOL0     H20993   7.864   9.755   1.820 -0.4962 -1.4387  1.7154
  917MOL0     H20994   7.815   9.912   1.765  1.4682  0.9249  1.3817
  917MOL0     H20995   7.837   9.821   2.063  2.1633  2.4382  1.2282
  917MOL0     H20996   7.738   9.961   2.009 -0.8696  0.6383 -1.6289
  917MOL0     H20997   8.103   9.819   1.972  3.0229  0.0131  0.7248
  917MOL0     H20998   8.311   9.896   1.918 -1.2518  0.6526  3.8415
  917MOL0     H20999   8.346  10.043   1.996 -0.4490  0.6435 -0.1104
  917MOL0     H21000   8.268  10.061   1.694  1.4658  2.1253 -0.9020
  917MOL0     H21001   8.431  10.007   1.741  0.3377  1.2565 -4.4582
  917MOL0     H21002   8.271  10.256   1.821 -0.1304 -0.5917 -1.2923
  917MOL0     H21003   8.418  10.229   1.899 -0.1238  2.1277 -0.1843
  917MOL0     H21004   8.538  10.234   1.673 -2.1382 -2.8264 -0.6693
  917MOL0     H21005   8.462  10.389   1.724 -1.9376  0.4518 -1.5278
  917MOL0     H21006   8.236  10.387   1.389  0.8843 -3.1085  1.7872
  917MOL0     H21007   8.315  10.510   1.195 -2.5128  1.1789  2.2329
  917MOL0     H21008   8.493  10.926   1.091  0.4989 -1.7294 -0.0870
  917MOL0     H21009   8.557  11.073   0.907 -1.7037 -0.2346 -0.6432
  917MOL0     H21010   8.790  11.041   0.745  1.0386  1.5540 -0.7869
  917MOL0     H21011   8.683  11.179   0.747 -1.0749  0.0844 -0.0071
  917MOL0     H21012   8.857  11.212   0.587  0.4841 -0.3938  0.3150
  917MOL0     H21013   8.695  11.215   0.511  1.8370  0.0428 -2.8107
  917MOL0     H21014   8.852  11.097   0.365 -0.9950 -1.5608 -0.8675
  917MOL0     H21015   8.715  10.993   0.417 -0.0093 -0.0781  0.7479
  917MOL0     H21016   8.981  10.998   0.574  2.2901 -0.8770 -0.8784
  917MOL0     H21017   8.860  10.869   0.564  2.0389 -0.7078 -0.0059
  917MOL0     H21018   8.923  10.814   0.323 -0.2009  1.2458 -2.9800
  917MOL0     H21019   9.041  10.783   0.443  2.2867  0.1257 -2.2969
  917MOL0     H21020   9.147  11.011   0.369 -1.0570  1.5778  0.9470
  917MOL0     H21021   9.026  11.006   0.237 -1.4621  1.7112  2.4124
  917MOL0     H21022   9.211  10.779   0.300  0.5160 -2.8063 -1.9288
  917MOL0     H21023   9.101  10.799   0.158 -0.4388 -1.4272  1.4475
  917MOL0     H21024   9.230  10.997   0.086  0.2674  1.8795  0.1292
  917MOL0     H21025   9.311  10.845   0.084  1.4017  1.7154 -0.4903
  917MOL0     H21026   8.564  10.747   0.617 -2.3616  1.0790 -1.1860
  917MOL0     H21027   8.514  10.594   0.810 -0.3755 -0.0810  0.8866
  917MOL0     H21028   8.714  10.560   1.368 -0.7896  1.3141 -3.5095
  917MOL0     H21029   8.624  10.397   1.554 -2.5686  0.4712  0.3890
  917MOL0     H21030   7.487   9.823   1.083 -0.4167  1.5843 -1.7426
  917MOL0     H21031   7.547   9.951   0.895 -1.9684 -2.3663  1.3224
  917MOL0     H21032   7.743  10.290   0.704 -1.6814 -6.4385 -0.2096
  917MOL0     H21033   7.789  10.442   0.522  1.8685  2.0485 -2.1528
  917MOL0     H21034   7.944  10.619   0.472 -0.8525 -0.3818  0.4540
  917MOL0     H21035   7.824  10.567   0.352  0.2166  0.0375 -0.1337
  917MOL0     H21036   7.997  10.777   0.310 -1.0784  0.8468 -0.7599
  917MOL0     H21037   8.106  10.649   0.272 -0.2101 -0.1320  1.7108
  917MOL0     H21038   7.852  10.719   0.141 -0.4600 -0.4321 -0.5328
  917MOL0     H21039   7.918  10.554   0.109  1.2275  0.4544 -1.4355
  917MOL0     H21040   8.076  10.812   0.080 -0.2189 -0.4993  1.6252
  917MOL0     H21041   8.127  10.655   0.040  2.1870  1.2875  2.3047
  917MOL0     H21042   7.828  10.802  -0.263 -3.3049 -2.6855  1.6276
  917MOL0     H21043   8.146  10.227   0.430 -2.5717 -0.4187 -3.4875
  917MOL0     H21044   8.104  10.076   0.619 -1.0380 -0.2289 -0.8442
  918MOL0     O21045   0.812   1.489   4.191  0.4695  0.2977 -0.6555
  918MOL0     C21046   0.805   1.423   4.301  0.0483 -1.1869  0.3801
  918MOL0     O21047   0.689   1.416   4.381  0.3355  0.2977 -0.8602
  918MOL0     C21048   0.590   1.514   4.370 -0.5601  0.8082 -0.7089
  918MOL0     C21049   0.588   1.620   4.455 -0.1791 -0.2632 -0.2558
  918MOL0     C21050   0.496   1.729   4.441  0.3175 -0.5102  0.6647
  918MOL0     C21051   0.399   1.730   4.335 -0.1232 -1.0411  0.0611
  918MOL0     O21052   0.296   1.817   4.338  0.7787 -0.5281 -0.8699
  918MOL0     C21053   0.269   1.864   4.205 -0.3805 -0.4750  0.8119
  918MOL0     C21054   0.202   1.998   4.211  0.3629 -0.9009  0.6883
  918MOL0     C21055   0.067   1.994   4.265 -0.7504 -0.0563  0.6932
  918MOL0     C21056  -0.003   2.133   4.229 -0.7299 -0.1178 -0.2322
  918MOL0     C21057  -0.151   2.125   4.278 -0.7997  0.9326 -0.2478
  918MOL0     C21058  -0.143   2.154   4.430 -0.3250 -0.1497 -0.7846
  918MOL0     C21059  -0.274   2.202   4.488 -0.4054  0.1243  1.1687
  918MOL0     C21060  -0.386   2.098   4.508 -0.1343 -0.2308  0.3992
  918MOL0     N21061  -0.498   2.160   4.587  0.2014  0.0819 -0.4495
  918MOL0     C21062  -0.610   2.223   4.542 -0.3923  0.2059  0.4413
  918MOL0     C21063  -0.681   2.272   4.647  0.1942 -0.5286  0.2929
  918MOL0     C21064  -0.800   2.362   4.632  1.1999  0.6339 -0.2146
  918MOL0     C21065  -0.934   2.320   4.704 -0.4612 -0.0775  0.1483
  918MOL0     C21066  -0.965   2.319   4.857 -0.2533  0.1538  0.5652
  918MOL0     C21067  -0.989   2.182   4.910 -0.0920 -0.1703 -0.7515
  918MOL0     O21068  -1.104   2.116   4.846 -0.3077 -0.2088  0.3770
  918MOL0     C21069  -1.138   1.991   4.891 -0.8364 -0.8266 -0.8183
  918MOL0     C21070  -1.240   1.933   4.826  0.2602  0.0580 -0.0720
  918MOL0     C21071  -1.286   1.805   4.856 -1.2489 -0.6558  0.0970
  918MOL0     C21072  -1.225   1.724   4.953  0.6005 -0.0319 -0.3052
  918MOL0     C21073  -1.281   1.592   4.992  0.3099  0.6746 -0.0413
  918MOL0     O21074  -1.393   1.549   4.934  0.6398  1.1125  0.5960
  918MOL0     C21075  -1.416   1.420   4.958 -0.2251  0.8637 -0.0613
  918MOL0     C21076  -1.540   1.398   5.017  0.5723  0.4292  0.4572
  918MOL0     C21077  -1.585   1.267   5.036  0.5144 -0.8592  0.8340
  918MOL0     C21078  -1.504   1.163   5.009 -0.6678 -0.4086  0.6559
  918MOL0     O21079  -1.521   1.030   5.025 -0.6836 -0.4479 -0.1630
  918MOL0     C21080  -1.643   0.988   5.089  0.1896  0.3402  0.3015
  918MOL0     C21081  -1.625   0.837   5.117  0.3037 -0.1365  0.2138
  918MOL0     C21082  -1.718   0.800   5.234 -0.1192 -0.5676  0.6478
  918MOL0     C21083  -1.716   0.657   5.283  0.0987  0.1139 -0.2056
  918MOL0     C21084  -1.650   0.667   5.416  0.2175  0.4758 -0.1136
  918MOL0     C21085  -1.620   0.530   5.488 -0.4313 -0.9643  0.3535
  918MOL0     C21086  -1.496   0.452   5.425 -1.2722 -0.5647 -0.6404
  918MOL0     C21087  -1.404   0.415   5.538 -0.1478  0.4116  0.0538
  918MOL0    Cl21088  -1.264   0.331   5.477  0.2299 -0.0860  0.4622
  918MOL0     C21089  -1.380   1.183   4.953  0.8521  0.0360  0.4891
  918MOL0     C21090  -1.341   1.307   4.913 -0.7917 -0.4698 -0.1225
  918MOL0     O21091  -1.210   1.528   5.066  0.0669  0.5251 -0.4981
  918MOL0     C21092  -1.128   1.789   5.027  0.4408  0.3977 -0.1462
  918MOL0     C21093  -1.082   1.919   5.006  0.1087 -0.6877 -0.0127
  918MOL0     N21094  -0.614   2.233   4.759 -0.2853  0.1267  1.0477
  918MOL0     N21095  -0.502   2.168   4.727 -0.2657 -0.3820 -0.3633
  918MOL0     C21096   0.416   1.627   4.243  0.2075 -1.6771  0.6250
  918MOL0     C21097   0.500   1.519   4.256 -0.1254 -0.5373 -0.0955
  918MOL0     C21098   0.925   1.348   4.345 -0.2043  1.0167 -0.3020
  918MOL0     C21099   1.043   1.351   4.269  0.2320  0.0393 -0.4287
  918MOL0     C21100   1.156   1.287   4.309 -1.0516 -1.2188 -0.8916
  918MOL0     C21101   1.163   1.206   4.422 -0.2076 -0.5503  0.4042
  918MOL0     O21102   1.275   1.137   4.443 -0.1533 -0.3435  0.5262
  918MOL0     C21103   1.277   1.015   4.368 -0.2619  0.6054  0.1079
  918MOL0     C21104   1.319   0.918   4.476  0.6664  0.4968 -0.7648
  918MOL0     C21105   1.347   0.773   4.424 -0.4319  0.3086 -0.3478
  918MOL0     C21106   1.486   0.748   4.367  0.4554 -0.1453 -0.3061
  918MOL0     C21107   1.580   0.718   4.473 -0.8806  0.2015  0.1964
  918MOL0     C21108   1.663   0.712   4.566 -0.0010 -0.1015  0.5486
  918MOL0     C21109   1.046   1.183   4.495 -0.4254  0.0302  0.3402
  918MOL0     C21110   0.932   1.258   4.463 -0.1955 -0.2817  0.4644
  918MOL0     H21111   0.652   1.618   4.543  0.2342 -0.4644 -0.5569
  918MOL0     H21112   0.509   1.799   4.524 -3.6497 -1.9243  2.7712
  918MOL0     H21113   0.190   1.803   4.161 -0.4567  0.8825 -1.0348
  918MOL0     H21114   0.357   1.864   4.139  0.0073 -1.1529  1.3101
  918MOL0     H21115   0.198   2.032   4.107  4.6055 -2.3094 -0.1464
  918MOL0     H21116   0.257   2.065   4.278 -1.8176  1.1267  0.5943
  918MOL0     H21117   0.073   1.981   4.374  0.2866  0.4430  0.7061
  918MOL0     H21118   0.010   1.916   4.214  0.7747  1.7074 -4.2561
  918MOL0     H21119   0.056   2.215   4.271  1.1395 -1.3181 -0.3609
  918MOL0     H21120  -0.006   2.138   4.120 -2.6190 -0.6982 -0.2383
  918MOL0     H21121  -0.206   2.035   4.249 -3.0046  2.5474 -1.4211
  918MOL0     H21122  -0.203   2.210   4.231 -4.7499 -0.7939  0.5789
  918MOL0     H21123  -0.072   2.233   4.456 -1.4607  1.3171 -1.9653
  918MOL0     H21124  -0.109   2.072   4.494 -2.6980  0.3666  1.2836
  918MOL0     H21125  -0.254   2.257   4.581 -1.6086  3.5374 -0.4277
  918MOL0     H21126  -0.312   2.278   4.420 -0.6892  0.0586  1.2513
  918MOL0     H21127  -0.335   2.015   4.558  3.3165  0.4261 -1.6464
  918MOL0     H21128  -0.417   2.056   4.412 -2.1338  0.1928  0.8257
  918MOL0     H21129  -0.637   2.230   4.437  0.3513  0.5987  0.2727
  918MOL0     H21130  -0.812   2.369   4.524  3.5615 -0.9859 -0.6586
  918MOL0     H21131  -0.766   2.457   4.673  2.8360 -1.1580  2.9951
  918MOL0     H21132  -0.942   2.214   4.679  1.6072 -0.4112  0.7232
  918MOL0     H21133  -1.016   2.363   4.646 -1.7015 -0.8922  1.2607
  918MOL0     H21134  -0.882   2.365   4.911 -1.0077 -0.2624  2.1563
  918MOL0     H21135  -1.052   2.384   4.874  0.2126  1.6303 -2.0952
  918MOL0     H21136  -1.010   2.197   5.016  1.8744  0.2594 -0.3866
  918MOL0     H21137  -0.900   2.121   4.890  0.3154 -0.5950  1.9515
  918MOL0     H21138  -1.289   1.985   4.745  1.9509  1.2078 -0.4101
  918MOL0     H21139  -1.375   1.786   4.796 -1.9781  0.7278  0.6847
  918MOL0     H21140  -1.608   1.478   5.045  0.3415  1.3975 -2.4743
  918MOL0     H21141  -1.677   1.257   5.092  1.2660  0.5822  2.4453
  918MOL0     H21142  -1.715   1.008   5.009  0.7281 -1.6550 -0.7352
  918MOL0     H21143  -1.650   1.051   5.178  0.4271  2.6443 -1.2285
  918MOL0     H21144  -1.527   0.812   5.160  0.9661  0.3898 -0.9389
  918MOL0     H21145  -1.645   0.779   5.027  1.7691 -0.7037  0.2275
  918MOL0     H21146  -1.820   0.810   5.194  0.6425 -1.5167 -1.7289
  918MOL0     H21147  -1.711   0.866   5.321  0.5170 -1.9602  1.6967
  918MOL0     H21148  -1.819   0.621   5.291  0.6368 -1.2388  1.0184
  918MOL0     H21149  -1.665   0.586   5.218  3.6267 -1.2279  3.6027
  918MOL0     H21150  -1.705   0.712   5.499 -0.2438 -0.8953  0.3615
  918MOL0     H21151  -1.554   0.716   5.398  0.8743 -0.2229  1.2876
  918MOL0     H21152  -1.702   0.459   5.491 -0.3664 -1.0759  4.4478
  918MOL0     H21153  -1.599   0.543   5.594  0.9077 -0.9234  0.1075
  918MOL0     H21154  -1.521   0.357   5.375 -0.5197 -1.0990 -0.0172
  918MOL0     H21155  -1.446   0.518   5.353  0.9454  0.8060  1.9880
  918MOL0     H21156  -1.446   0.344   5.610  1.6791  1.0840  1.8974
  918MOL0     H21157  -1.367   0.509   5.579 -0.3535  0.1125  0.9554
  918MOL0     H21158  -1.315   1.100   4.928  1.2678  0.8863 -1.4565
  918MOL0     H21159  -1.251   1.323   4.854 -2.5162 -0.2400 -2.8896
  918MOL0     H21160  -1.075   1.733   5.103 -2.4470  0.9809  2.4519
  918MOL0     H21161  -1.010   1.971   5.068  1.5632  0.4516 -2.4834
  918MOL0     H21162   0.353   1.604   4.158 -1.1001 -0.5524  1.2512
  918MOL0     H21163   0.486   1.434   4.191 -2.7088 -0.1901 -0.1062
  918MOL0     H21164   1.041   1.413   4.180 -1.5051 -0.5577 -0.8425
  918MOL0     H21165   1.249   1.304   4.256 -0.9395  1.0246 -0.0981
  918MOL0     H21166   1.349   1.028   4.287  0.2642  1.5046  0.7042
  918MOL0     H21167   1.178   0.987   4.331 -0.4591  0.9299  0.3819
  918MOL0     H21168   1.400   0.958   4.538 -0.4853 -0.8356  1.7516
  918MOL0     H21169   1.243   0.900   4.552  3.1591 -1.7169  1.3755
  918MOL0     H21170   1.284   0.756   4.336 -3.5982 -0.3886  1.9159
  918MOL0     H21171   1.325   0.705   4.506 -0.1941 -1.3352 -1.5865
  918MOL0     H21172   1.491   0.665   4.297 -0.2216 -1.3068  0.9696
  918MOL0     H21173   1.515   0.831   4.303  0.2291  1.3423  1.4311
  918MOL0     H21174   1.740   0.704   4.639 -0.4894  0.6127  1.1478
  918MOL0     H21175   1.049   1.109   4.575 -0.5462 -1.5761 -1.0750
  918MOL0     H21176   0.853   1.240   4.535 -0.4867 -1.3851 -0.1087
  919MOL0     O21177   8.791   6.145   1.522  0.3175  0.2308  0.6718
  919MOL0     C21178   8.787   6.045   1.447  0.7936 -1.0774  1.2798
  919MOL0     O21179   8.682   5.971   1.426  0.9705  0.2705 -0.0625
  919MOL0     C21180   8.572   5.992   1.507 -0.6379  0.7008 -0.3726
  919MOL0     C21181   8.568   5.950   1.638  0.2209  0.4465  0.0401
  919MOL0     C21182   8.450   5.944   1.710 -1.0245  0.2057 -0.2890
  919MOL0     C21183   8.328   5.982   1.645  0.4166  0.4218  0.5255
  919MOL0     O21184   8.211   5.971   1.713 -0.5738 -0.0094 -0.3672
  919MOL0     C21185   8.082   5.967   1.657  0.4268  1.0000 -0.0281
  919MOL0     C21186   7.983   5.911   1.770  0.0005 -0.2485  0.3744
  919MOL0     C21187   8.031   5.769   1.807  0.1748  0.5984 -0.8208
  919MOL0     C21188   7.939   5.699   1.914 -0.3913  0.0348 -0.6262
  919MOL0     C21189   7.791   5.674   1.883 -0.4268  0.4631 -0.0013
  919MOL0     C21190   7.723   5.579   1.977 -0.1088  0.4759 -0.0851
  919MOL0     C21191   7.585   5.533   1.921  0.1686  0.8308 -0.5343
  919MOL0     C21192   7.482   5.640   1.921 -0.4262  0.2195 -0.5609
  919MOL0     N21193   7.364   5.587   1.845  0.4438 -0.2530 -0.8974
  919MOL0     C21194   7.350   5.544   1.720 -0.8261 -0.4312 -0.0792
  919MOL0     C21195   7.215   5.532   1.696  0.0008  0.2958  0.2948
  919MOL0     C21196   7.147   5.493   1.572 -0.0960 -0.0488  0.4749
  919MOL0     C21197   7.128   5.620   1.487  0.1147 -0.1885 -0.1404
  919MOL0     C21198   7.071   5.587   1.346  0.5313  0.2473  1.0403
  919MOL0     C21199   7.162   5.623   1.227  0.4521 -0.1325  0.3182
  919MOL0     O21200   7.290   5.556   1.235  0.6323 -1.0747  0.3785
  919MOL0     C21201   7.383   5.594   1.140  0.6483 -0.3024  0.3031
  919MOL0     C21202   7.497   5.518   1.144  0.0425  0.2766 -0.1237
  919MOL0     C21203   7.609   5.550   1.070  0.6540  0.1567  0.3188
  919MOL0     C21204   7.604   5.658   0.982 -0.3949 -0.0957 -0.3050
  919MOL0     C21205   7.719   5.709   0.896 -0.5146  0.4809  0.8704
  919MOL0     O21206   7.704   5.804   0.799  0.3105 -0.3404 -0.3081
  919MOL0     C21207   7.794   5.914   0.787 -0.3185  0.5445  0.0391
  919MOL0     C21208   7.771   5.989   0.668 -0.1722 -0.5427 -0.0151
  919MOL0     C21209   7.853   6.104   0.645  0.5844 -0.0005 -1.0531
  919MOL0     C21210   7.954   6.147   0.741  0.0345 -1.2260  0.6769
  919MOL0     O21211   8.039   6.250   0.722 -0.2201  0.2811 -0.1015
  919MOL0     C21212   8.121   6.227   0.608 -0.7128  0.2410  0.3545
  919MOL0     C21213   8.230   6.331   0.626  0.4783  0.4874 -0.7868
  919MOL0     C21214   8.328   6.321   0.505  0.0906 -0.1855 -0.2503
  919MOL0     C21215   8.434   6.433   0.508 -0.0001 -0.4445  0.0642
  919MOL0     C21216   8.572   6.402   0.452  0.2587 -0.1936  0.5048
  919MOL0     C21217   8.681   6.512   0.464 -0.0771  0.5546 -0.0410
  919MOL0     C21218   8.740   6.520   0.605  0.0885 -0.7095  0.7967
  919MOL0     C21219   8.796   6.660   0.640 -0.3854  0.0956 -0.1862
  919MOL0    Cl21220   8.924   6.707   0.527  0.3405  0.2973  0.3949
  919MOL0     C21221   7.966   6.078   0.857 -0.6885  0.4143 -0.3759
  919MOL0     C21222   7.886   5.962   0.881  0.4475 -0.3111 -0.7610
  919MOL0     O21223   7.829   5.678   0.939  0.1369 -0.6367  0.0105
  919MOL0     C21224   7.477   5.723   0.966 -0.5086 -1.3436  0.9283
  919MOL0     C21225   7.370   5.694   1.051 -0.9687 -0.6781  0.4518
  919MOL0     N21226   7.144   5.587   1.804 -0.8164  0.4619  0.2629
  919MOL0     N21227   7.234   5.625   1.890 -0.0586  0.5780 -0.2357
  919MOL0     C21228   8.337   6.019   1.510 -2.0247  0.3156 -1.0352
  919MOL0     C21229   8.461   6.036   1.442  0.5925 -0.2482 -0.0126
  919MOL0     C21230   8.912   5.998   1.381  0.3234 -0.0359  0.0473
  919MOL0     C21231   9.036   6.076   1.375  0.6077 -0.1018  0.1295
  919MOL0     C21232   9.145   6.019   1.306 -0.2420  0.2489 -0.1060
  919MOL0     C21233   9.140   5.885   1.252  0.2902 -0.4796  0.0264
  919MOL0     O21234   9.250   5.843   1.185 -0.0991  1.3833  0.3146
  919MOL0     C21235   9.259   5.705   1.141  0.2004  0.0536 -0.2227
  919MOL0     C21236   9.405   5.668   1.138 -0.3710 -0.0154  0.8130
  919MOL0     C21237   9.473   5.748   1.025  0.5039 -0.0247  0.0568
  919MOL0     C21238   9.621   5.745   1.046 -0.3010 -0.2825 -0.2991
  919MOL0     C21239   9.668   5.852   1.142 -0.1245 -0.3152  0.0916
  919MOL0     C21240   9.698   5.943   1.212 -0.5783  0.3336 -0.4272
  919MOL0     C21241   9.023   5.806   1.275 -0.2588 -0.6659 -0.2901
  919MOL0     C21242   8.919   5.869   1.337 -0.8273 -0.9466 -0.1917
  919MOL0     H21243   8.657   5.914   1.689 -0.3260 -1.0323  0.0127
  919MOL0     H21244   8.428   5.902   1.808  2.0343 -0.0514  0.3790
  919MOL0     H21245   8.070   5.894   1.576 -0.6430  0.3662  0.6794
  919MOL0     H21246   8.054   6.066   1.621  0.1894  0.6730 -0.7543
  919MOL0     H21247   7.882   5.904   1.727  1.0154  1.3451 -2.5538
  919MOL0     H21248   7.993   5.969   1.862  0.3333 -0.0302  0.1992
  919MOL0     H21249   8.131   5.770   1.853 -0.8083  1.2409  1.4457
  919MOL0     H21250   8.030   5.706   1.717 -3.9735 -0.6379 -0.0987
  919MOL0     H21251   7.986   5.601   1.934 -2.1128 -0.8479 -0.7622
  919MOL0     H21252   7.936   5.761   2.004  1.9563 -0.6126 -0.0203
  919MOL0     H21253   7.792   5.635   1.781  1.2338  1.4385 -0.3886
  919MOL0     H21254   7.743   5.773   1.882  0.0308  0.6878 -1.1767
  919MOL0     H21255   7.719   5.629   2.074  0.5101  0.8315 -0.2399
  919MOL0     H21256   7.783   5.489   1.995  1.5992  1.2091 -1.7418
  919MOL0     H21257   7.604   5.513   1.815 -0.5055  2.7981 -1.0609
  919MOL0     H21258   7.548   5.446   1.976  2.1712  0.2064 -0.0905
  919MOL0     H21259   7.525   5.732   1.879  0.6532  0.8627  1.7910
  919MOL0     H21260   7.461   5.666   2.025  2.7596 -2.8628  1.0726
  919MOL0     H21261   7.424   5.515   1.646 -0.6946 -0.5801  0.1088
  919MOL0     H21262   7.050   5.445   1.587 -0.1849 -0.0217 -0.0165
  919MOL0     H21263   7.207   5.415   1.523  0.2532  0.4167  0.1493
  919MOL0     H21264   7.228   5.663   1.478 -0.0468  1.2689  3.4299
  919MOL0     H21265   7.059   5.682   1.545 -0.3075 -1.4523  0.7581
  919MOL0     H21266   7.040   5.483   1.343  0.8683  0.1637 -0.3236
  919MOL0     H21267   6.982   5.647   1.326  0.3055 -1.4509 -4.8546
  919MOL0     H21268   7.180   5.731   1.218 -1.1751  0.1203 -0.3784
  919MOL0     H21269   7.107   5.596   1.137  2.9487  0.3574 -1.4403
  919MOL0     H21270   7.506   5.433   1.212  2.8119 -0.2812 -1.0447
  919MOL0     H21271   7.697   5.491   1.094 -0.1573 -0.0777  3.0048
  919MOL0     H21272   7.688   5.957   0.606 -0.7178  1.0626 -0.1742
  919MOL0     H21273   7.840   6.157   0.551  1.0270  0.8454 -0.6471
  919MOL0     H21274   8.067   6.249   0.516 -0.9460  0.4249  0.5334
  919MOL0     H21275   8.153   6.122   0.607  0.4138  0.5721  0.9279
  919MOL0     H21276   8.278   6.314   0.723 -1.0055 -0.4085 -0.1880
  919MOL0     H21277   8.181   6.429   0.624  1.3779  1.0765  2.0057
  919MOL0     H21278   8.272   6.333   0.411  0.5487 -1.8762 -0.7697
  919MOL0     H21279   8.382   6.226   0.512 -1.5977 -1.0868  1.6051
  919MOL0     H21280   8.397   6.523   0.458 -0.6191 -1.3462 -1.1499
  919MOL0     H21281   8.442   6.445   0.617 -1.9873 -0.0022  0.1930
  919MOL0     H21282   8.552   6.386   0.346 -2.1033 -1.0912  1.0398
  919MOL0     H21283   8.602   6.311   0.506  1.0116  0.1789  0.7387
  919MOL0     H21284   8.637   6.610   0.441 -1.5696  0.1324  0.8444
  919MOL0     H21285   8.748   6.499   0.379 -1.8965 -1.0745 -1.3183
  919MOL0     H21286   8.656   6.500   0.673 -3.1403 -0.7847 -2.8877
  919MOL0     H21287   8.810   6.440   0.628  1.5788  0.6028  0.9682
  919MOL0     H21288   8.829   6.657   0.745 -2.5794 -0.4943  0.5330
  919MOL0     H21289   8.720   6.738   0.633 -1.0462 -0.1486  2.8342
  919MOL0     H21290   8.047   6.106   0.924  1.3473  0.0059 -2.5216
  919MOL0     H21291   7.896   5.921   0.981 -2.2458  0.1105 -0.2316
  919MOL0     H21292   7.454   5.807   0.901  3.3346 -1.7422 -1.2310
  919MOL0     H21293   7.287   5.764   1.048 -2.0368 -1.9270 -0.9395
  919MOL0     H21294   8.243   6.025   1.456 -2.7874  1.4967  0.3537
  919MOL0     H21295   8.465   6.055   1.335  0.2342 -0.2246 -0.0233
  919MOL0     H21296   9.042   6.179   1.408 -0.5486 -0.9095  3.2044
  919MOL0     H21297   9.230   6.086   1.304 -0.3149  0.5667  3.2132
  919MOL0     H21298   9.211   5.689   1.043 -0.8965 -3.8154  0.7645
  919MOL0     H21299   9.213   5.656   1.227 -0.9252  1.5572  0.0682
  919MOL0     H21300   9.451   5.696   1.233 -1.0118 -0.9302  1.4145
  919MOL0     H21301   9.427   5.562   1.123  2.5311  0.7927 -1.5977
  919MOL0     H21302   9.432   5.849   1.017  1.6425  0.3064 -3.4804
  919MOL0     H21303   9.442   5.702   0.930  0.1079 -1.9558  1.0745
  919MOL0     H21304   9.650   5.649   1.091 -1.2241  0.7373  2.7517
  919MOL0     H21305   9.678   5.755   0.953 -0.0198 -0.8030 -0.1868
  919MOL0     H21306   9.735   6.030   1.262  0.3763 -0.9131  1.1364
  919MOL0     H21307   9.013   5.700   1.255 -4.0090 -0.5512  0.2593
  919MOL0     H21308   8.833   5.805   1.358  1.1980 -3.3451  1.2756
  920MOL0     O21309  10.748   9.845   0.741 -0.1070 -0.5923  0.4960
  920MOL0     C21310  10.858   9.866   0.682  0.6033 -0.2968  0.8175
  920MOL0     O21311  10.888   9.831   0.553 -0.7841 -0.3380  1.1513
  920MOL0     C21312  10.794   9.752   0.493 -0.3087  0.4086  1.3236
  920MOL0     C21313  10.682   9.801   0.429  0.2812 -0.3508 -0.4332
  920MOL0     C21314  10.614   9.723   0.343 -0.3629  0.5255  0.2185
  920MOL0     C21315  10.650   9.590   0.312 -0.5183  0.3509  0.8389
  920MOL0     O21316  10.571   9.514   0.221 -0.4275 -0.0507 -0.5593
  920MOL0     C21317  10.523   9.384   0.247 -0.6143 -0.1456 -0.5646
  920MOL0     C21318  10.457   9.327   0.121 -0.5564 -0.1107  0.1326
  920MOL0     C21319  10.322   9.389   0.090  0.2092 -0.2030 -0.4428
  920MOL0     C21320  10.328   9.542   0.055  0.3747 -0.6947 -0.2858
  920MOL0     C21321  10.193   9.567  -0.013  0.1360  0.1403 -0.0603
  920MOL0     C21322  10.170   9.712  -0.045 -0.6952 -1.2031  0.1293
  920MOL0     C21323  10.047   9.721  -0.127 -0.8026 -0.1872 -0.2115
  920MOL0     C21324  10.019   9.871  -0.142 -1.5961  0.6254  0.4903
  920MOL0     N21325   9.938   9.951  -0.048 -0.4463 -0.2439 -0.6677
  920MOL0     C21326   9.958  10.073   0.010  0.5209 -0.0696 -0.5736
  920MOL0     C21327   9.845  10.089   0.087 -0.0720 -1.0183  0.4056
  920MOL0     C21328   9.802  10.211   0.156  0.9722 -0.1160  0.4250
  920MOL0     C21329   9.847  10.203   0.307 -0.0527  0.6663  0.6730
  920MOL0     C21330   9.797  10.317   0.385  1.0171  0.2441  0.3613
  920MOL0     C21331   9.878  10.357   0.512  0.5521 -0.5473 -0.6132
  920MOL0     O21332   9.927  10.239   0.567  0.2352  0.3861 -0.6618
  920MOL0     C21333  10.007  10.252   0.678  0.2654  0.5408 -0.0545
  920MOL0     C21334  10.058  10.370   0.722  0.0402  0.4669  0.5534
  920MOL0     C21335  10.145  10.374   0.839 -0.0536 -0.6238 -0.2662
  920MOL0     C21336  10.175  10.253   0.909  0.1791  0.6669 -0.2536
  920MOL0     C21337  10.276  10.259   1.015 -1.1304 -1.2422 -1.1939
  920MOL0     O21338  10.299  10.384   1.073  0.2562 -0.4197 -0.1223
  920MOL0     C21339  10.355  10.398   1.196 -1.0553 -0.2928 -0.0984
  920MOL0     C21340  10.405  10.530   1.224  0.6775  0.4483 -0.2038
  920MOL0     C21341  10.452  10.560   1.359  0.6509 -0.0610  0.7012
  920MOL0     C21342  10.460  10.458   1.455 -0.7771 -0.2697 -0.0693
  920MOL0     O21343  10.513  10.488   1.583 -0.6056 -0.3405  0.1339
  920MOL0     C21344  10.421  10.460   1.690  0.2934  1.8535  1.2102
  920MOL0     C21345  10.443  10.547   1.817 -0.6989 -0.3315 -0.4372
  920MOL0     C21346  10.512  10.488   1.940 -0.0943 -0.4925 -0.1873
  920MOL0     C21347  10.659  10.474   1.917  0.4422  0.2120  0.5532
  920MOL0     C21348  10.723  10.466   2.054 -0.1619  0.5411 -0.7026
  920MOL0     C21349  10.877  10.433   2.048 -0.2818  0.0563  0.3272
  920MOL0     C21350  10.957  10.537   1.971 -0.1759 -0.3706  0.2206
  920MOL0     C21351  11.100  10.501   1.949  0.1038 -0.3940  0.1801
  920MOL0    Cl21352  11.180  10.484   2.107  0.2901 -0.1189  0.0175
  920MOL0     C21353  10.424  10.327   1.417 -0.3204  0.3879  1.1783
  920MOL0     C21354  10.369  10.298   1.291 -0.5055  0.2306 -0.1727
  920MOL0     O21355  10.332  10.160   1.049 -0.1958  0.0301  0.3456
  920MOL0     C21356  10.118  10.132   0.860  0.7455 -0.1507 -0.6158
  920MOL0     C21357  10.026  10.136   0.751 -0.5116  0.7079 -0.1652
  920MOL0     N21358   9.759   9.984   0.070 -0.1225  0.2672  0.3295
  920MOL0     N21359   9.825   9.900   0.008  1.0276  0.6087 -0.0655
  920MOL0     C21360  10.764   9.537   0.385  0.9652 -0.2460 -0.2380
  920MOL0     C21361  10.838   9.618   0.462  0.2532 -0.4194 -0.7311
  920MOL0     C21362  10.955   9.948   0.748 -0.4310  0.0365 -1.4473
  920MOL0     C21363  10.947   9.970   0.888  0.4387  1.0533 -0.2841
  920MOL0     C21364  11.054  10.011   0.959 -0.0596  0.4607  1.1737
  920MOL0     C21365  11.156  10.083   0.897 -0.3828  0.6663 -0.5761
  920MOL0     O21366  11.266  10.127   0.969  0.4535 -0.6089 -0.0017
  920MOL0     C21367  11.272  10.124   1.118 -0.8922 -0.0649 -0.9675
  920MOL0     C21368  11.403  10.190   1.170  0.5636  0.0726 -0.9474
  920MOL0     C21369  11.430  10.340   1.141 -0.8994  0.6351 -0.8168
  920MOL0     C21370  11.569  10.388   1.186  0.0180  0.3186  0.3882
  920MOL0     C21371  11.571  10.519   1.248  0.2043 -0.0325 -0.4394
  920MOL0     C21372  11.571  10.628   1.305 -1.2955  0.2989  0.3641
  920MOL0     C21373  11.163  10.073   0.759  1.1315 -0.4619  0.8170
  920MOL0     C21374  11.060  10.011   0.691  0.1834  0.8195  0.1921
  920MOL0     H21375  10.657   9.905   0.448  0.2177 -1.0029  4.0384
  920MOL0     H21376  10.519   9.758   0.304 -2.6100 -3.6261  1.2454
  920MOL0     H21377  10.448   9.376   0.326 -0.1081 -2.2370 -0.2336
  920MOL0     H21378  10.607   9.321   0.277 -0.7477  0.5775  1.4949
  920MOL0     H21379  10.460   9.218   0.131  1.8723 -0.5176 -3.1280
  920MOL0     H21380  10.519   9.345   0.032 -0.5465  0.7323  0.3030
  920MOL0     H21381  10.255   9.359   0.172  0.4510 -1.3936 -0.6572
  920MOL0     H21382  10.277   9.322   0.015 -3.4762  1.1377  0.3378
  920MOL0     H21383  10.333   9.601   0.147  1.1379 -0.0826 -0.7081
  920MOL0     H21384  10.407   9.573  -0.014  0.5944  2.2217  1.1280
  920MOL0     H21385  10.108   9.540   0.051 -1.6334  1.5095 -1.7019
  920MOL0     H21386  10.197   9.503  -0.101 -1.6905 -0.0377 -0.0585
  920MOL0     H21387  10.253   9.758  -0.100 -0.2149 -1.5520  0.5502
  920MOL0     H21388  10.160   9.782   0.038  0.7220 -0.6635 -0.1319
  920MOL0     H21389  10.070   9.680  -0.226  0.8721  0.6600 -0.2029
  920MOL0     H21390   9.965   9.663  -0.084  0.6274 -1.7765  0.5367
  920MOL0     H21391   9.970   9.862  -0.239  2.6196 -0.6723 -1.7355
  920MOL0     H21392  10.118   9.914  -0.157 -2.6073  3.0476  0.3201
  920MOL0     H21393  10.037  10.143  -0.015 -0.1316  1.2132  0.8439
  920MOL0     H21394   9.693  10.225   0.164  0.8494  0.4427 -1.5280
  920MOL0     H21395   9.843  10.290   0.092 -1.5619  1.6900  0.8478
  920MOL0     H21396   9.956  10.196   0.309  0.0245  1.7050  0.6506
  920MOL0     H21397   9.812  10.113   0.359  0.8155  1.2254  2.2907
  920MOL0     H21398   9.789  10.411   0.330  3.7874  1.5575  1.9648
  920MOL0     H21399   9.695  10.284   0.407  0.8706  1.6846  2.1025
  920MOL0     H21400   9.803  10.392   0.584  1.1467 -2.6012  1.1168
  920MOL0     H21401   9.957  10.427   0.481  0.9153 -1.7062 -2.4557
  920MOL0     H21402  10.050  10.465   0.669  0.9358  1.1164  1.5346
  920MOL0     H21403  10.171  10.477   0.862  1.4089 -1.2395  1.1025
  920MOL0     H21404  10.402  10.593   1.135  2.5457 -2.5776 -2.6427
  920MOL0     H21405  10.470  10.664   1.381  2.4169 -0.0262 -0.7286
  920MOL0     H21406  10.445  10.356   1.715 -2.2764  0.6305 -0.9709
  920MOL0     H21407  10.320  10.455   1.649  1.5380  0.9443 -2.0897
  920MOL0     H21408  10.347  10.589   1.849 -0.2724  0.4288 -0.1485
  920MOL0     H21409  10.505  10.625   1.773 -0.6448 -0.1639 -0.0679
  920MOL0     H21410  10.465  10.390   1.948 -1.1060 -0.2661 -2.5087
  920MOL0     H21411  10.492  10.559   2.021 -1.8473 -1.9744  0.7770
  920MOL0     H21412  10.673  10.378   1.867  2.5661 -1.3011  3.7216
  920MOL0     H21413  10.706  10.555   1.861 -0.2827  2.7831  3.3911
  920MOL0     H21414  10.674  10.385   2.108 -2.5363  1.8309 -0.7822
  920MOL0     H21415  10.705  10.558   2.110  1.5529  0.5036 -0.0465
  920MOL0     H21416  10.876  10.338   1.995  1.7106  0.0560  0.1959
  920MOL0     H21417  10.916  10.432   2.150 -0.0916 -3.0805  0.2982
  920MOL0     H21418  10.920  10.534   1.869 -0.3189 -1.6344  0.2932
  920MOL0     H21419  10.951  10.642   1.999  1.1916  0.5975 -2.7528
  920MOL0     H21420  11.150  10.569   1.879 -0.7111 -0.7603 -0.7948
  920MOL0     H21421  11.095  10.405   1.896 -0.7922 -0.9063  1.1465
  920MOL0     H21422  10.445  10.244   1.484 -0.5215 -1.2938 -0.7308
  920MOL0     H21423  10.336  10.197   1.269 -0.1191 -0.3396  1.7342
  920MOL0     H21424  10.139  10.040   0.913 -0.8142 -1.6119 -2.4023
  920MOL0     H21425   9.980  10.043   0.719 -1.7056  1.8148 -1.8674
  920MOL0     H21426  10.811   9.441   0.363 -0.5024 -0.9125 -0.6181
  920MOL0     H21427  10.936   9.589   0.497 -1.1884 -1.8095  2.6267
  920MOL0     H21428  10.881   9.912   0.952  1.5434  2.1102  1.9155
  920MOL0     H21429  11.068   9.983   1.063 -0.6081 -0.4826  1.0064
  920MOL0     H21430  11.256  10.022   1.155  0.7616 -0.3585 -1.0049
  920MOL0     H21431  11.200  10.192   1.166 -0.6528 -1.6599  1.9324
  920MOL0     H21432  11.392  10.181   1.279  1.9451 -1.2368 -0.8870
  920MOL0     H21433  11.488  10.131   1.134  0.5675 -0.3605 -0.2512
  920MOL0     H21434  11.372  10.405   1.208  0.4777 -0.8251  2.0067
  920MOL0     H21435  11.409  10.364   1.037  1.1996 -1.1027 -1.7284
  920MOL0     H21436  11.621  10.334   1.266 -0.8528 -0.8886  0.1682
  920MOL0     H21437  11.642  10.390   1.105 -2.4670 -0.8586 -2.0256
  920MOL0     H21438  11.583  10.730   1.336 -0.0763  0.0592  0.7400
  920MOL0     H21439  11.247  10.116   0.705  0.9529 -1.3447 -0.1936
  920MOL0     H21440  11.073   9.985   0.587 -0.0008  0.0616  0.3496
  921MOL0     O21441   8.260   7.705   9.421  0.2423 -0.7576  0.4703
  921MOL0     C21442   8.281   7.826   9.404 -0.0163 -0.5878  0.2336
  921MOL0     O21443   8.201   7.910   9.336 -0.4592 -0.1337  0.9980
  921MOL0     C21444   8.132   7.854   9.227  1.2098 -0.4795 -0.2322
  921MOL0     C21445   8.005   7.796   9.250 -0.2783 -0.1199 -0.1244
  921MOL0     C21446   7.921   7.759   9.147 -1.8111  0.3033 -0.0950
  921MOL0     C21447   7.968   7.777   9.008  0.1539  0.1509  0.2272
  921MOL0     O21448   7.894   7.740   8.896 -0.0800  0.4001  0.2935
  921MOL0     C21449   7.810   7.629   8.910 -0.4956 -1.0757 -0.0434
  921MOL0     C21450   7.779   7.592   8.768 -1.2106 -0.4349 -0.6179
  921MOL0     C21451   7.648   7.514   8.753  1.3284 -0.0904 -0.0846
  921MOL0     C21452   7.607   7.499   8.603  0.2156 -0.0449  0.9948
  921MOL0     C21453   7.473   7.426   8.594  0.4297  1.3150  0.9342
  921MOL0     C21454   7.429   7.363   8.458 -0.4786 -0.1161 -0.5253
  921MOL0     C21455   7.519   7.245   8.416 -0.0236  0.5068  0.8282
  921MOL0     C21456   7.482   7.220   8.263  0.3272 -0.1146 -0.7238
  921MOL0     N21457   7.373   7.113   8.268 -1.6062  0.1787 -0.0461
  921MOL0     C21458   7.245   7.153   8.287 -0.4725  0.5674  0.2210
  921MOL0     C21459   7.170   7.043   8.261  0.9180 -0.3533  0.0124
  921MOL0     C21460   7.021   7.027   8.280 -0.7216 -0.0712 -0.1527
  921MOL0     C21461   6.933   7.153   8.253  0.6138  0.3213  0.6315
  921MOL0     C21462   6.779   7.127   8.266  0.0960  0.2994  0.4914
  921MOL0     C21463   6.736   7.067   8.404 -0.4107  0.3240 -0.6672
  921MOL0     O21464   6.784   7.150   8.510  0.0244  1.1464 -0.1608
  921MOL0     C21465   6.745   7.275   8.534  1.2966  0.9970 -1.0586
  921MOL0     C21466   6.649   7.350   8.472 -0.2418  0.7736 -0.2127
  921MOL0     C21467   6.618   7.475   8.513 -1.1730 -1.1505  0.1247
  921MOL0     C21468   6.695   7.539   8.617 -0.1922  1.0275  0.7667
  921MOL0     C21469   6.674   7.687   8.642 -0.4452 -0.7801 -0.5582
  921MOL0     O21470   6.756   7.749   8.738  0.2160  0.5480 -0.8928
  921MOL0     C21471   6.754   7.884   8.751  0.0368 -0.8493  0.2941
  921MOL0     C21472   6.878   7.945   8.748 -0.1833 -0.5098 -0.5410
  921MOL0     C21473   6.886   8.079   8.797  0.8220 -0.5435  0.0101
  921MOL0     C21474   6.772   8.158   8.811  1.3313  0.1709  0.6278
  921MOL0     O21475   6.787   8.286   8.856 -0.2861 -0.1631 -0.3229
  921MOL0     C21476   6.670   8.348   8.916 -0.0323  0.4358  0.4157
  921MOL0     C21477   6.717   8.478   8.981  0.0055 -0.9706  0.3439
  921MOL0     C21478   6.835   8.465   9.083 -0.7976 -0.2526  0.2193
  921MOL0     C21479   6.895   8.596   9.145  0.1591  0.0440  0.6877
  921MOL0     C21480   6.938   8.708   9.048 -0.9280  1.2237  0.4014
  921MOL0     C21481   6.960   8.846   9.114  0.0429 -0.6101 -0.0825
  921MOL0     C21482   7.017   8.945   9.019  0.2445  0.0082 -0.7554
  921MOL0     C21483   7.021   9.086   9.078  0.1251  0.2454 -0.4539
  921MOL0    Cl21484   7.134   9.116   9.202  0.1172 -0.2497  0.0298
  921MOL0     C21485   6.648   8.102   8.778  0.4600 -0.5307 -0.3859
  921MOL0     C21486   6.643   7.963   8.751  0.5245 -0.1197  0.2219
  921MOL0     O21487   6.585   7.743   8.585 -0.0269  0.0681  0.2846
  921MOL0     C21488   6.789   7.457   8.677  0.3377  0.4944 -0.3489
  921MOL0     C21489   6.811   7.328   8.641  0.0016  0.4712 -0.5258
  921MOL0     N21490   7.252   6.941   8.220  0.0396  0.2853 -0.0109
  921MOL0     N21491   7.373   6.986   8.231 -0.6726 -0.5043  0.5175
  921MOL0     C21492   8.090   7.844   8.981  0.3354  0.6439 -0.2996
  921MOL0     C21493   8.165   7.882   9.089 -0.0955  1.0929  0.5459
  921MOL0     C21494   8.398   7.884   9.463 -0.4906 -1.3389  0.2627
  921MOL0     C21495   8.513   7.817   9.493  0.0262  0.3954  0.6107
  921MOL0     C21496   8.630   7.875   9.552  0.9737  0.7777 -0.5257
  921MOL0     C21497   8.631   8.006   9.598  0.5488 -0.7088  0.3776
  921MOL0     O21498   8.749   8.046   9.658 -0.1198 -0.1804  0.3545
  921MOL0     C21499   8.751   8.176   9.715  0.5209  0.7490  0.3269
  921MOL0     C21500   8.876   8.194   9.800 -1.4986 -1.1510  0.7135
  921MOL0     C21501   9.005   8.125   9.742 -1.1208 -0.1708 -0.6548
  921MOL0     C21502   9.123   8.149   9.841  0.4395 -1.6025  0.4015
  921MOL0     C21503   9.220   8.044   9.828  0.0354  0.6644 -0.2179
  921MOL0     C21504   9.306   7.962   9.820  0.0306 -0.5271  0.4525
  921MOL0     C21505   8.512   8.079   9.584  0.2692 -0.2983 -0.6062
  921MOL0     C21506   8.398   8.019   9.516 -0.6010 -0.1042 -0.4174
  921MOL0     H21507   7.962   7.775   9.348  0.9386 -0.1346  0.4310
  921MOL0     H21508   7.823   7.727   9.181 -0.3377 -2.9088  1.5610
  921MOL0     H21509   7.718   7.664   8.959  0.2619  0.6319  0.2377
  921MOL0     H21510   7.847   7.545   8.969  0.3260 -1.6897 -1.3884
  921MOL0     H21511   7.870   7.546   8.731  1.8342  3.2680  1.4559
  921MOL0     H21512   7.769   7.684   8.710 -3.6212  0.6335  1.2899
  921MOL0     H21513   7.571   7.564   8.813  3.8550 -0.4458  3.8123
  921MOL0     H21514   7.669   7.415   8.797  2.4960 -0.0416 -0.4913
  921MOL0     H21515   7.588   7.597   8.558 -1.5763 -1.2720 -1.1712
  921MOL0     H21516   7.683   7.442   8.549  0.2999  0.9597  0.0164
  921MOL0     H21517   7.393   7.492   8.628  1.0059  1.9513  1.0724
  921MOL0     H21518   7.470   7.350   8.673  0.9760 -1.6978 -1.7333
  921MOL0     H21519   7.436   7.443   8.384 -0.0862  1.9761  1.6320
  921MOL0     H21520   7.324   7.334   8.462 -0.1629 -1.4317 -1.4370
  921MOL0     H21521   7.628   7.257   8.414  0.4534 -2.1794 -4.0726
  921MOL0     H21522   7.502   7.154   8.474  1.4803 -0.5349 -0.2976
  921MOL0     H21523   7.576   7.184   8.221 -0.7141 -2.8807 -0.8404
  921MOL0     H21524   7.460   7.313   8.208 -0.3231  0.4100  0.3861
  921MOL0     H21525   7.205   7.249   8.317  0.7992  1.5322 -1.0103
  921MOL0     H21526   7.006   6.998   8.385 -1.7104  2.3067  0.4362
  921MOL0     H21527   6.994   6.942   8.217 -0.5985 -0.5744  0.4611
  921MOL0     H21528   6.945   7.204   8.157 -0.3439  3.6293  2.1155
  921MOL0     H21529   6.964   7.238   8.314  0.5862  0.5208  0.3686
  921MOL0     H21530   6.725   7.221   8.254 -1.0237 -0.2275  1.3070
  921MOL0     H21531   6.748   7.057   8.187 -1.2797  0.7301  0.6271
  921MOL0     H21532   6.782   6.968   8.415  0.6722  0.9087  0.2218
  921MOL0     H21533   6.627   7.053   8.411  0.0550 -4.4675  1.5457
  921MOL0     H21534   6.595   7.317   8.384  2.9478  0.3581 -2.1552
  921MOL0     H21535   6.535   7.539   8.485  1.0653  2.1126  0.3254
  921MOL0     H21536   6.965   7.883   8.735 -1.9559 -2.7247 -2.8143
  921MOL0     H21537   6.983   8.122   8.819  0.3989  1.4063 -1.6101
  921MOL0     H21538   6.626   8.288   8.996 -0.5802  2.6871  1.8531
  921MOL0     H21539   6.588   8.367   8.846 -0.6717 -1.8807  0.4543
  921MOL0     H21540   6.624   8.515   9.025 -0.5968 -0.0693 -1.5451
  921MOL0     H21541   6.740   8.543   8.896 -0.3128 -2.1987 -0.7291
  921MOL0     H21542   6.921   8.423   9.031 -0.4064  1.3731 -0.5241
  921MOL0     H21543   6.790   8.402   9.161 -0.4888  0.7123  1.2053
  921MOL0     H21544   6.810   8.645   9.193 -0.1656 -0.6279  0.8140
  921MOL0     H21545   6.980   8.575   9.211  0.0649  0.9575  1.1144
  921MOL0     H21546   6.858   8.720   8.975 -0.8523 -2.5552 -0.5075
  921MOL0     H21547   7.022   8.677   8.986 -2.4476  1.2315 -1.7726
  921MOL0     H21548   7.030   8.822   9.194  1.2473  1.3823 -0.4778
  921MOL0     H21549   6.865   8.880   9.157  0.8198  0.8792  0.5196
  921MOL0     H21550   7.122   8.927   8.996  1.4718  2.8962  1.8475
  921MOL0     H21551   6.949   8.953   8.934  0.5073  1.0560 -0.8665
  921MOL0     H21552   6.922   9.107   9.119  0.9782 -0.1767  1.9774
  921MOL0     H21553   7.031   9.155   8.993  1.1768 -0.1840 -0.6924
  921MOL0     H21554   6.548   8.145   8.780  0.6959  0.2483 -2.6457
  921MOL0     H21555   6.544   7.919   8.743  1.0713 -1.9704  2.5543
  921MOL0     H21556   6.842   7.500   8.761 -0.1963  1.9216 -0.7082
  921MOL0     H21557   6.885   7.264   8.688 -0.0366  0.8030 -0.0106
  921MOL0     H21558   8.117   7.886   8.885 -0.4660  2.0705  0.0632
  921MOL0     H21559   8.250   7.942   9.062 -2.1086  3.2313 -1.4936
  921MOL0     H21560   8.521   7.712   9.467  1.0758  1.1002 -2.1966
  921MOL0     H21561   8.720   7.818   9.573 -0.6110 -0.7034  3.0247
  921MOL0     H21562   8.656   8.198   9.764  0.5561  1.1306  0.2237
  921MOL0     H21563   8.753   8.250   9.635  2.9690  1.9092  1.3604
  921MOL0     H21564   8.896   8.300   9.815  0.9225 -1.6694  1.6487
  921MOL0     H21565   8.842   8.160   9.898 -0.4694  0.3760  1.6383
  921MOL0     H21566   9.025   8.157   9.640  1.4546 -4.1109 -1.6090
  921MOL0     H21567   8.984   8.018   9.746 -0.7747 -0.2091  1.4681
  921MOL0     H21568   9.161   8.250   9.825 -0.8212 -1.1498  0.0829
  921MOL0     H21569   9.081   8.125   9.939 -0.9508 -1.1396 -0.0556
  921MOL0     H21570   9.392   7.901   9.805 -1.3839 -3.2393  2.6266
  921MOL0     H21571   8.506   8.180   9.622 -0.1237 -0.8131  0.7424
  921MOL0     H21572   8.299   8.065   9.521 -0.4642  0.1078  0.4839
  922MOL0     O21573   2.950   9.173   3.198  0.4854  0.2587  1.8139
  922MOL0     C21574   3.035   9.122   3.264 -1.1230  1.4554  0.5816
  922MOL0     O21575   3.173   9.106   3.222  0.2849  0.3986  0.0232
  922MOL0     C21576   3.202   9.100   3.092 -0.7363  0.4546 -0.1743
  922MOL0     C21577   3.131   9.031   3.002 -0.6144  0.6738 -0.0811
  922MOL0     C21578   3.183   8.995   2.876  0.4756 -0.1211 -0.4718
  922MOL0     C21579   3.301   9.059   2.837 -0.2271 -0.4015 -0.4580
  922MOL0     O21580   3.377   9.043   2.728  1.2356 -0.4305  0.4863
  922MOL0     C21581   3.356   8.933   2.635  0.0850  0.2167 -0.5002
  922MOL0     C21582   3.477   8.920   2.536  0.6726  0.1841 -0.9431
  922MOL0     C21583   3.608   8.927   2.619 -0.1903  0.0377 -0.3501
  922MOL0     C21584   3.624   8.834   2.727  0.7368  1.0455 -1.4777
  922MOL0     C21585   3.767   8.811   2.778 -0.3995 -0.5888 -0.4099
  922MOL0     C21586   3.766   8.702   2.880  0.7360  0.1329  0.2889
  922MOL0     C21587   3.903   8.688   2.951 -0.6591 -0.0217  0.8101
  922MOL0     C21588   3.917   8.561   3.040 -0.1649  0.0600  0.2905
  922MOL0     N21589   3.842   8.587   3.167  0.0564  0.0330  0.0594
  922MOL0     C21590   3.864   8.687   3.257 -0.5786 -0.9396 -0.2873
  922MOL0     C21591   3.774   8.679   3.356  0.1965 -0.2589 -0.4962
  922MOL0     C21592   3.754   8.756   3.483 -0.1190  1.4577 -0.0471
  922MOL0     C21593   3.836   8.876   3.510 -0.4271 -0.7452 -0.3638
  922MOL0     C21594   3.785   8.948   3.639 -0.3888 -1.6095  0.5558
  922MOL0     C21595   3.856   9.081   3.661 -0.4810  0.2417  0.1939
  922MOL0     O21596   3.867   9.096   3.807  0.1333 -0.3116 -0.0701
  922MOL0     C21597   3.793   9.191   3.881  0.0247 -0.2513 -0.6450
  922MOL0     C21598   3.820   9.196   4.022 -1.1813  0.3043 -0.2399
  922MOL0     C21599   3.755   9.282   4.103  0.4262  0.7914 -0.5551
  922MOL0     C21600   3.657   9.378   4.050  0.2573  0.5849 -0.6508
  922MOL0     C21601   3.591   9.472   4.142 -0.1766  0.1935 -0.0365
  922MOL0     O21602   3.642   9.464   4.270  0.5918 -0.4723 -0.5883
  922MOL0     C21603   3.621   9.560   4.363 -0.3047 -0.6047  0.4004
  922MOL0     C21604   3.726   9.629   4.425 -0.5773 -0.3448  0.3174
  922MOL0     C21605   3.700   9.726   4.521  0.0353  0.3381  0.3782
  922MOL0     C21606   3.570   9.745   4.569  0.2524  0.0447 -0.6849
  922MOL0     O21607   3.550   9.846   4.660 -0.1613  1.2258 -0.0166
  922MOL0     C21608   3.584   9.980   4.639 -0.0442  0.6439 -0.4583
  922MOL0     C21609   3.533  10.054   4.761  0.0942  0.5000 -0.1923
  922MOL0     C21610   3.539  10.211   4.743 -0.0459  0.7484 -0.2530
  922MOL0     C21611   3.686  10.274   4.746 -0.1161 -0.0344  0.0889
  922MOL0     C21612   3.700  10.392   4.648  0.0011 -0.7261 -0.2349
  922MOL0     C21613   3.630  10.510   4.714 -0.3002 -0.1546 -0.3845
  922MOL0     C21614   3.609  10.632   4.622  0.2037  0.1176  0.4758
  922MOL0     C21615   3.474  10.691   4.632  1.0943 -0.0674 -0.3342
  922MOL0    Cl21616   3.472  10.855   4.549 -0.1257 -0.1989  0.2180
  922MOL0     C21617   3.462   9.667   4.525 -1.2981  0.2761  1.2687
  922MOL0     C21618   3.487   9.577   4.414 -0.3564  0.7367  0.2550
  922MOL0     O21619   3.511   9.547   4.097  0.4966  0.3070 -0.0450
  922MOL0     C21620   3.633   9.363   3.912  0.0349 -0.1560  0.5996
  922MOL0     C21621   3.690   9.272   3.827 -0.4189 -0.5021  0.5703
  922MOL0     N21622   3.689   8.571   3.312  0.0603  0.2605 -0.5724
  922MOL0     N21623   3.731   8.524   3.199  0.1973  0.2471  0.0093
  922MOL0     C21624   3.368   9.147   2.924 -0.4685 -0.0099 -0.0137
  922MOL0     C21625   3.319   9.164   3.052  0.0473  0.4773  0.6150
  922MOL0     C21626   2.996   9.069   3.391 -0.0567  0.4513  0.9934
  922MOL0     C21627   3.087   8.986   3.456  0.1649 -0.3679 -0.2680
  922MOL0     C21628   3.068   8.927   3.581 -0.7915  0.0385 -0.3394
  922MOL0     C21629   2.948   8.961   3.650 -0.8523  0.5506 -0.2502
  922MOL0     O21630   2.907   8.915   3.771 -0.2704 -0.0552  0.4872
  922MOL0     C21631   3.003   8.851   3.857 -0.2696  0.0054  0.3732
  922MOL0     C21632   2.928   8.790   3.968 -0.2229 -0.0768 -1.2924
  922MOL0     C21633   2.857   8.899   4.068  0.2933 -0.0667  0.3941
  922MOL0     C21634   2.918   8.908   4.205  0.3467  0.6938 -0.2727
  922MOL0     C21635   2.834   8.985   4.290  0.5485  0.4073  0.4388
  922MOL0     C21636   2.766   9.063   4.361 -0.2478  0.1167  0.3107
  922MOL0     C21637   2.853   9.045   3.585  0.2029 -0.7473 -0.0604
  922MOL0     C21638   2.876   9.092   3.461  0.7433 -0.5483 -0.0991
  922MOL0     H21639   3.047   8.968   3.029 -0.7101 -0.5519 -2.9082
  922MOL0     H21640   3.127   8.919   2.823 -1.5435  0.3163  0.9169
  922MOL0     H21641   3.264   8.946   2.577 -0.1665 -2.9489 -1.0070
  922MOL0     H21642   3.337   8.842   2.693 -3.0856  3.0244  3.4813
  922MOL0     H21643   3.478   8.998   2.460  0.1131 -0.4641 -1.6356
  922MOL0     H21644   3.466   8.824   2.485  1.1873 -0.1662 -0.4030
  922MOL0     H21645   3.619   9.025   2.666  0.4060 -0.8414  1.4397
  922MOL0     H21646   3.687   8.898   2.549 -0.4242 -0.3499 -0.4566
  922MOL0     H21647   3.567   8.868   2.813 -2.1216 -2.1391 -1.9287
  922MOL0     H21648   3.592   8.735   2.693 -0.4994  1.1762 -0.7366
  922MOL0     H21649   3.795   8.909   2.818  1.2469 -0.9511 -0.6043
  922MOL0     H21650   3.840   8.795   2.697  0.2341 -0.9653  0.2232
  922MOL0     H21651   3.724   8.613   2.832  1.0018 -1.1370  2.2812
  922MOL0     H21652   3.701   8.728   2.964 -0.0272  0.4208 -0.3755
  922MOL0     H21653   3.968   8.661   2.868 -1.3414 -0.6487  0.4642
  922MOL0     H21654   3.936   8.782   2.996 -1.7883  2.1800 -2.5724
  922MOL0     H21655   4.017   8.542   3.081 -0.9056 -3.6356  0.6809
  922MOL0     H21656   3.881   8.483   2.973  1.9083  1.3204 -2.4961
  922MOL0     H21657   3.956   8.744   3.260 -2.0015  1.4447  0.5236
  922MOL0     H21658   3.770   8.690   3.569  2.8289  2.9324  0.6353
  922MOL0     H21659   3.648   8.783   3.484 -1.3142 -2.5063 -1.4321
  922MOL0     H21660   3.815   8.946   3.428  0.2141  3.1631  2.5482
  922MOL0     H21661   3.943   8.851   3.511 -0.0327 -0.3658 -5.5338
  922MOL0     H21662   3.679   8.972   3.637 -0.2598 -0.6611 -3.5387
  922MOL0     H21663   3.805   8.889   3.729 -0.1168  1.1953  2.4767
  922MOL0     H21664   3.794   9.157   3.613  1.4678  1.8718  0.0869
  922MOL0     H21665   3.959   9.078   3.623 -0.0549  1.2721  1.1950
  922MOL0     H21666   3.882   9.120   4.070 -0.0806 -1.1514 -3.6760
  922MOL0     H21667   3.788   9.280   4.207  1.4121 -1.3581 -0.8744
  922MOL0     H21668   3.823   9.620   4.377 -0.5259 -2.5829  0.7202
  922MOL0     H21669   3.783   9.790   4.550  3.2746 -2.3917 -2.1858
  922MOL0     H21670   3.528  10.012   4.550  0.5132 -0.3416 -1.1809
  922MOL0     H21671   3.692   9.988   4.628  0.5901 -2.5927  2.1338
  922MOL0     H21672   3.590  10.019   4.848  2.8985  0.6554 -1.8667
  922MOL0     H21673   3.430  10.026   4.786  0.4344 -1.1981 -0.5562
  922MOL0     H21674   3.491  10.257   4.830  1.7739 -0.4345  1.4605
  922MOL0     H21675   3.488  10.231   4.648  1.4481  1.7190 -0.8990
  922MOL0     H21676   3.711  10.302   4.849  2.3496 -2.0372  0.1544
  922MOL0     H21677   3.742  10.188   4.708 -1.0682 -2.0912  2.9578
  922MOL0     H21678   3.643  10.365   4.559  2.6845  2.0426 -3.0456
  922MOL0     H21679   3.805  10.419   4.629 -0.3226  1.8500  1.1078
  922MOL0     H21680   3.674  10.543   4.808 -1.2602  3.1490 -0.9343
  922MOL0     H21681   3.527  10.479   4.737  0.3574 -2.8964 -0.7903
  922MOL0     H21682   3.678  10.715   4.637 -1.7020  1.8564  0.0267
  922MOL0     H21683   3.621  10.591   4.522 -2.6582 -2.0036  0.8547
  922MOL0     H21684   3.427  10.689   4.730 -1.1395 -2.4898 -1.3289
  922MOL0     H21685   3.413  10.619   4.575 -2.4373  0.2456  2.7002
  922MOL0     H21686   3.360   9.673   4.562 -1.4673  2.5206  0.5858
  922MOL0     H21687   3.396   9.524   4.388 -0.5388 -0.7290  3.4220
  922MOL0     H21688   3.569   9.440   3.869  1.8546  2.0863  1.6703
  922MOL0     H21689   3.658   9.267   3.723  1.5215 -0.9255 -0.0580
  922MOL0     H21690   3.461   9.198   2.899 -0.7050 -0.4372 -1.9224
  922MOL0     H21691   3.380   9.216   3.126 -1.8148  3.4330  0.2216
  922MOL0     H21692   3.185   8.973   3.411 -0.4194 -2.9396 -0.9424
  922MOL0     H21693   3.151   8.864   3.613 -0.3273  1.2109  0.8431
  922MOL0     H21694   3.078   8.920   3.896 -1.3591  0.1406  2.3244
  922MOL0     H21695   3.052   8.772   3.799 -0.0003  1.4106 -1.3816
  922MOL0     H21696   2.842   8.736   3.927 -0.5591 -1.9787  1.6102
  922MOL0     H21697   2.986   8.730   4.039 -0.5936 -0.0868 -0.9927
  922MOL0     H21698   2.752   8.872   4.085  0.8625 -2.0459  1.0227
  922MOL0     H21699   2.853   8.992   4.010 -0.2957  1.0234  2.0777
  922MOL0     H21700   2.934   8.813   4.257  0.3522  1.5348  1.3235
  922MOL0     H21701   3.015   8.957   4.187 -0.0591  1.9412  0.7785
  922MOL0     H21702   2.711   9.126   4.429 -4.3196 -2.3050 -0.4003
  922MOL0     H21703   2.754   9.060   3.628 -1.0110 -3.3393 -1.7129
  922MOL0     H21704   2.791   9.147   3.422 -0.4988 -1.7514  0.8108
  923MOL0     O21705   4.829   6.217   3.886 -0.0299  0.0253 -0.4946
  923MOL0     C21706   4.818   6.331   3.936 -0.1444  0.4514 -1.0273
  923MOL0     O21707   4.733   6.366   4.039 -0.1165 -0.1249  0.2703
  923MOL0     C21708   4.650   6.282   4.105 -0.1098  0.5636  1.1128
  923MOL0     C21709   4.643   6.295   4.245  0.4429 -0.5987 -0.8875
  923MOL0     C21710   4.565   6.202   4.315 -0.1259  0.3205 -0.0549
  923MOL0     C21711   4.493   6.106   4.251 -0.3611 -0.3475 -0.6281
  923MOL0     O21712   4.422   6.017   4.329  0.1500 -0.2198 -0.1094
  923MOL0     C21713   4.279   5.993   4.295 -0.3229  0.2443  1.1177
  923MOL0     C21714   4.219   5.905   4.409  0.0093 -0.0469 -1.0737
  923MOL0     C21715   4.198   5.999   4.534  0.3967  0.0299  0.3245
  923MOL0     C21716   4.181   5.911   4.658  0.4123 -0.4100 -0.7243
  923MOL0     C21717   4.049   5.930   4.730  0.3809 -0.4436 -0.1776
  923MOL0     C21718   4.024   5.833   4.848  0.8251 -0.0776 -0.5171
  923MOL0     C21719   4.007   5.686   4.818 -0.2467  0.2988  0.0147
  923MOL0     C21720   4.136   5.603   4.823 -0.0601  0.3135 -0.3508
  923MOL0     N21721   4.157   5.554   4.964 -0.7871  0.2287 -0.2329
  923MOL0     C21722   4.088   5.454   5.029 -0.0983  0.3205  0.3389
  923MOL0     C21723   4.133   5.440   5.155 -0.3862 -0.1221 -0.3261
  923MOL0     C21724   4.091   5.330   5.253 -0.1418  0.2874 -0.3752
  923MOL0     C21725   4.114   5.180   5.203 -0.5886 -0.0738 -0.6875
  923MOL0     C21726   4.259   5.140   5.241  1.3526  0.4159 -0.0506
  923MOL0     C21727   4.303   4.996   5.202 -0.4338 -0.1619 -1.0839
  923MOL0     O21728   4.310   4.984   5.059 -0.1237 -0.1555 -0.6286
  923MOL0     C21729   4.291   4.855   5.011  1.1278 -0.5120  0.2753
  923MOL0     C21730   4.262   4.852   4.878 -0.1401 -0.0674 -1.0641
  923MOL0     C21731   4.241   4.735   4.806  0.1372  0.9189 -0.7570
  923MOL0     C21732   4.234   4.613   4.868 -0.9316 -0.6165 -1.1694
  923MOL0     C21733   4.199   4.487   4.811 -0.7069  1.0861 -0.0400
  923MOL0     O21734   4.284   4.425   4.715 -0.0453  0.1236  0.4396
  923MOL0     C21735   4.400   4.490   4.675  0.2565 -0.6163 -1.1933
  923MOL0     C21736   4.506   4.493   4.769  0.1973 -0.1149  0.2957
  923MOL0     C21737   4.623   4.559   4.732 -0.3569  0.2006 -0.4956
  923MOL0     C21738   4.635   4.628   4.604  0.8229  1.0839 -0.4042
  923MOL0     O21739   4.739   4.704   4.570  0.1167 -0.1005 -0.4039
  923MOL0     C21740   4.757   4.737   4.429 -0.5225 -0.1221 -0.1300
  923MOL0     C21741   4.901   4.778   4.397  0.0335 -0.0037  0.1156
  923MOL0     C21742   5.009   4.664   4.377 -0.2649 -0.8031 -0.5601
  923MOL0     C21743   5.120   4.710   4.285  0.0469  0.9203  0.0894
  923MOL0     C21744   5.085   4.707   4.136 -0.2076  0.4035 -0.9442
  923MOL0     C21745   5.188   4.768   4.044  0.9571 -0.6931 -0.7289
  923MOL0     C21746   5.297   4.667   4.026 -0.1620 -0.4640  0.1375
  923MOL0     C21747   5.406   4.721   3.926 -0.6506  0.1432 -0.6845
  923MOL0    Cl21748   5.470   4.589   3.830  0.5986  0.0033  0.0978
  923MOL0     C21749   4.518   4.625   4.518  0.6370  0.3109 -0.3406
  923MOL0     C21750   4.408   4.553   4.555  0.0081 -1.8369  0.3153
  923MOL0     O21751   4.089   4.448   4.851 -0.3453 -0.1538  0.9751
  923MOL0     C21752   4.262   4.612   5.008 -0.8207 -0.8355 -0.0321
  923MOL0     C21753   4.281   4.735   5.080 -0.0124  0.6990  0.1298
  923MOL0     N21754   4.242   5.523   5.168  0.0428 -0.0639 -0.4396
  923MOL0     N21755   4.258   5.593   5.054 -0.1451  0.1239  0.2505
  923MOL0     C21756   4.506   6.100   4.110 -1.0424  0.5932 -0.8898
  923MOL0     C21757   4.575   6.191   4.033 -0.3428  0.3829 -0.5399
  923MOL0     C21758   4.911   6.432   3.888  1.0526  0.9081 -0.0511
  923MOL0     C21759   4.924   6.560   3.941  0.3939 -0.5315  0.2544
  923MOL0     C21760   5.021   6.657   3.924 -0.2442 -0.7120 -0.0400
  923MOL0     C21761   5.135   6.621   3.844 -0.8420  0.0480 -0.9568
  923MOL0     O21762   5.227   6.716   3.800 -0.4299  0.3039  0.9232
  923MOL0     C21763   5.302   6.703   3.679 -0.4366 -0.1092 -0.8807
  923MOL0     C21764   5.398   6.823   3.686 -0.1164 -0.8007  0.4705
  923MOL0     C21765   5.319   6.947   3.690 -0.2672 -0.2475 -0.1114
  923MOL0     C21766   5.408   7.074   3.701  0.1039  0.2318 -0.3348
  923MOL0     C21767   5.534   7.071   3.624  0.5473 -1.5466  0.5385
  923MOL0     C21768   5.632   7.073   3.555 -0.5040 -0.1289  0.1674
  923MOL0     C21769   5.143   6.485   3.808  0.4405 -0.3808 -0.2409
  923MOL0     C21770   5.041   6.389   3.824  0.0498  0.5036 -0.1937
  923MOL0     H21771   4.701   6.375   4.291  0.9842 -1.2977 -0.3314
  923MOL0     H21772   4.563   6.202   4.423  0.4212 -1.3519 -0.0075
  923MOL0     H21773   4.266   5.930   4.206  1.5393  2.9023 -1.2071
  923MOL0     H21774   4.224   6.087   4.282 -0.6249  0.2228  2.1428
  923MOL0     H21775   4.289   5.822   4.427 -1.4682 -1.1341 -0.1210
  923MOL0     H21776   4.128   5.848   4.388  0.6167 -1.7130  0.5031
  923MOL0     H21777   4.113   6.067   4.523  3.1935  3.7409 -0.5481
  923MOL0     H21778   4.287   6.061   4.549  1.1661 -1.6079  3.3709
  923MOL0     H21779   4.198   5.805   4.636  0.8269 -1.0809  2.4230
  923MOL0     H21780   4.251   5.945   4.735 -0.1850  0.2241 -0.4551
  923MOL0     H21781   3.971   5.926   4.653 -0.1733  1.8350  0.1834
  923MOL0     H21782   4.031   6.030   4.771 -3.1794 -1.5005  1.2308
  923MOL0     H21783   3.923   5.858   4.883 -0.1315 -2.8821 -0.9876
  923MOL0     H21784   4.090   5.842   4.934 -0.5180  0.0260  0.5453
  923MOL0     H21785   3.940   5.659   4.901  0.0663 -0.5706 -0.0049
  923MOL0     H21786   3.952   5.660   4.727 -0.1646 -4.4519  1.0687
  923MOL0     H21787   4.219   5.664   4.785  1.0613 -1.4406 -0.8351
  923MOL0     H21788   4.123   5.518   4.755 -3.1115  0.5710 -0.2017
  923MOL0     H21789   4.014   5.385   4.990 -1.0639  1.3185  0.3223
  923MOL0     H21790   3.986   5.334   5.282 -0.3986  0.1642 -1.2579
  923MOL0     H21791   4.148   5.353   5.343  0.1586 -1.9172  0.0720
  923MOL0     H21792   4.119   5.175   5.094  1.2190  0.1209 -0.6528
  923MOL0     H21793   4.051   5.103   5.248  1.4541 -1.0853  0.6206
  923MOL0     H21794   4.320   5.217   5.195  1.8126  1.5180  2.2563
  923MOL0     H21795   4.271   5.158   5.348 -0.6620 -0.9811  0.4915
  923MOL0     H21796   4.228   4.930   5.247  1.7929 -3.4194 -1.7640
  923MOL0     H21797   4.396   4.961   5.247 -0.0503  2.8476  0.7127
  923MOL0     H21798   4.255   4.939   4.812 -0.9832 -1.6032 -3.1144
  923MOL0     H21799   4.220   4.729   4.699 -0.5977 -3.1216 -0.5514
  923MOL0     H21800   4.510   4.454   4.870  1.0240  0.8129  0.6380
  923MOL0     H21801   4.700   4.566   4.807  0.4111  2.0814 -1.4035
  923MOL0     H21802   4.697   4.827   4.412  0.4444  0.5460 -0.1413
  923MOL0     H21803   4.734   4.656   4.360  1.4739  1.5927 -3.0621
  923MOL0     H21804   4.932   4.859   4.464 -2.0251 -0.8244  2.2236
  923MOL0     H21805   4.886   4.822   4.298 -1.2732 -1.3743 -0.3374
  923MOL0     H21806   4.950   4.586   4.328 -0.9826 -1.6108  1.5022
  923MOL0     H21807   5.046   4.629   4.474  0.4922  4.1516  1.2161
  923MOL0     H21808   5.167   4.802   4.321  1.4036  0.6227 -0.7982
  923MOL0     H21809   5.208   4.645   4.292  0.2121  1.3284  2.5358
  923MOL0     H21810   5.000   4.776   4.131  1.2488  2.3838 -0.1479
  923MOL0     H21811   5.055   4.611   4.095  0.0652  0.1903 -0.6515
  923MOL0     H21812   5.240   4.851   4.093 -0.2774 -1.1671  1.5240
  923MOL0     H21813   5.151   4.787   3.943 -1.3017 -4.0471 -0.6910
  923MOL0     H21814   5.339   4.640   4.123 -1.5759 -2.4189  0.2841
  923MOL0     H21815   5.258   4.574   3.982  0.7721  0.0662 -1.9084
  923MOL0     H21816   5.485   4.758   3.992 -0.8372 -2.0687  0.8584
  923MOL0     H21817   5.359   4.804   3.871 -0.9749  0.9391  0.7555
  923MOL0     H21818   4.513   4.672   4.420 -3.6486  0.4140 -0.2638
  923MOL0     H21819   4.333   4.549   4.477  0.1620 -0.3777  0.0643
  923MOL0     H21820   4.269   4.513   5.053  2.2644 -2.1044 -2.8697
  923MOL0     H21821   4.299   4.719   5.186 -1.1578 -0.5306  0.1754
  923MOL0     H21822   4.443   6.026   4.062 -1.7617  0.4017  0.3082
  923MOL0     H21823   4.582   6.169   3.927 -0.2052 -2.1660 -0.0750
  923MOL0     H21824   4.843   6.600   4.002  0.6818  2.2272 -1.0190
  923MOL0     H21825   5.003   6.756   3.966 -1.6692 -0.9442 -0.0558
  923MOL0     H21826   5.245   6.705   3.587  1.8869  0.0941 -2.4038
  923MOL0     H21827   5.361   6.611   3.685  1.7139  1.2430  0.2201
  923MOL0     H21828   5.452   6.821   3.781 -4.5949 -2.0142  3.2999
  923MOL0     H21829   5.455   6.812   3.593 -2.7482 -1.8209 -1.1350
  923MOL0     H21830   5.255   6.958   3.778 -0.9706 -0.5719 -0.5700
  923MOL0     H21831   5.259   6.955   3.599  0.6120 -2.1767 -0.9113
  923MOL0     H21832   5.336   7.151   3.671 -1.8604 -1.7162 -0.9349
  923MOL0     H21833   5.427   7.093   3.807 -0.1941  1.3321 -0.4678
  923MOL0     H21834   5.721   7.081   3.495 -0.0724  2.3580  1.0216
  923MOL0     H21835   5.226   6.457   3.743 -0.4401  1.0872 -2.1101
  923MOL0     H21836   5.049   6.288   3.784 -0.3146 -0.2707  1.5835
  924MOL0     O21837  11.103   8.742   3.943 -0.0860 -0.6687 -0.2063
  924MOL0     C21838  11.110   8.698   3.828  1.1677 -0.2943  0.1800
  924MOL0     O21839  11.194   8.736   3.728 -0.1996  0.1900  0.5648
  924MOL0     C21840  11.270   8.850   3.752 -0.2294 -0.9827 -0.8335
  924MOL0     C21841  11.258   8.965   3.673 -0.8072  0.1015 -0.1012
  924MOL0     C21842  11.348   9.077   3.682  0.0657 -0.1239 -0.2006
  924MOL0     C21843  11.456   9.069   3.779  0.2909  0.5314 -1.3175
  924MOL0     O21844  11.552   9.161   3.811  0.1303  0.7153 -0.5287
  924MOL0     C21845  11.495   9.290   3.825  0.1162 -0.5858  0.2629
  924MOL0     C21846  11.514   9.365   3.688  0.3382 -0.6534  0.0543
  924MOL0     C21847  11.445   9.498   3.678  0.1888 -0.6245  0.4177
  924MOL0     C21848  11.479   9.578   3.550 -0.4935 -0.0329  0.5690
  924MOL0     C21849  11.412   9.719   3.533 -0.9028 -0.5511  0.2114
  924MOL0     C21850  11.450   9.796   3.405  0.6137  0.2596  0.3100
  924MOL0     C21851  11.602   9.810   3.378  0.0914  0.3895 -0.0084
  924MOL0     C21852  11.675   9.884   3.489 -0.9355  0.3602 -0.1169
  924MOL0     N21853  11.804   9.930   3.427 -0.5327 -0.5134 -0.2417
  924MOL0     C21854  11.818  10.044   3.357  0.4721 -0.2510  0.3873
  924MOL0     C21855  11.943  10.031   3.304  0.6604 -1.1401  0.4735
  924MOL0     C21856  12.022  10.128   3.217 -0.0114 -0.3798 -0.2512
  924MOL0     C21857  11.976  10.113   3.070 -0.9185 -0.6319 -0.3528
  924MOL0     C21858  12.100  10.111   2.975  0.1755 -0.0124  1.0761
  924MOL0     C21859  12.051  10.096   2.838  0.0193  0.8825 -0.2914
  924MOL0     O21860  12.154  10.036   2.759 -0.1910  0.8533  0.4645
  924MOL0     C21861  12.150  10.021   2.632 -0.6644  0.5003 -0.1295
  924MOL0     C21862  12.026  10.028   2.562 -0.3218  1.2390  0.2764
  924MOL0     C21863  12.018  10.012   2.423  0.1724 -0.3616 -0.6988
  924MOL0     C21864  12.129   9.995   2.338 -0.0669 -0.5494  0.1247
  924MOL0     C21865  12.111   9.977   2.198 -0.5261 -0.6183  0.9484
  924MOL0     O21866  11.979   9.970   2.154 -0.1234  0.0965 -0.3556
  924MOL0     C21867  11.964   9.919   2.034  0.0636 -0.3388  0.6307
  924MOL0     C21868  11.974  10.004   1.914 -0.2412 -0.1291 -0.0595
  924MOL0     C21869  11.951   9.938   1.791  0.2090  0.1204  0.4889
  924MOL0     C21870  11.919   9.804   1.777  0.2048 -0.8688 -0.1318
  924MOL0     O21871  11.915   9.738   1.660  0.4878  0.2829  0.0564
  924MOL0     C21872  11.795   9.667   1.633  0.0966 -0.2534  0.1210
  924MOL0     C21873  11.810   9.589   1.504 -0.3440 -0.6135  0.1760
  924MOL0     C21874  11.693   9.497   1.481  0.1110 -0.3509 -0.2308
  924MOL0     C21875  11.720   9.423   1.348  0.7668  1.2638  0.2860
  924MOL0     C21876  11.628   9.301   1.333 -0.6362  0.1038 -0.1032
  924MOL0     C21877  11.639   9.194   1.442 -0.2404  0.5383 -0.8862
  924MOL0     C21878  11.549   9.068   1.414 -0.3048  0.3835 -0.1019
  924MOL0     C21879  11.536   8.986   1.541 -0.8999  0.2295  0.0185
  924MOL0    Cl21880  11.666   8.869   1.521 -0.0376  0.0440  0.2567
  924MOL0     C21881  11.918   9.730   1.893 -0.2172 -0.0507  0.4755
  924MOL0     C21882  11.934   9.789   2.017  0.3037 -0.7202  1.7748
  924MOL0     O21883  12.210   9.977   2.124  0.3006 -0.4361  0.1166
  924MOL0     C21884  12.250   9.984   2.404  0.8089  0.1123  0.6926
  924MOL0     C21885  12.263  10.002   2.550  0.1676 -0.1469 -0.5397
  924MOL0     N21886  11.998   9.911   3.339  0.0881 -0.1284 -0.9617
  924MOL0     N21887  11.914   9.855   3.424  0.3678 -1.1544 -0.1620
  924MOL0     C21888  11.480   8.945   3.850  0.0161 -0.4698 -0.1441
  924MOL0     C21889  11.382   8.842   3.841 -0.0911 -0.2847  0.5733
  924MOL0     C21890  11.006   8.597   3.800 -0.0054  0.9673  0.3759
  924MOL0     C21891  11.018   8.500   3.691  0.1579  0.5224 -0.4638
  924MOL0     C21892  10.922   8.403   3.668 -0.0352 -0.1097 -0.1142
  924MOL0     C21893  10.813   8.393   3.760 -0.2072 -0.9995  0.2095
  924MOL0     O21894  10.726   8.294   3.743  0.0866 -0.1843 -0.0171
  924MOL0     C21895  10.604   8.288   3.812  0.1993  0.4025 -0.2235
  924MOL0     C21896  10.487   8.373   3.760  0.4175  0.0431 -0.1396
  924MOL0     C21897  10.448   8.332   3.610 -1.1676 -0.7503 -0.8128
  924MOL0     C21898  10.559   8.370   3.509 -0.2800 -0.1949  0.4205
  924MOL0     C21899  10.517   8.385   3.367 -1.7043 -0.5230  0.3853
  924MOL0     C21900  10.487   8.392   3.246  0.0009  0.0892 -0.5151
  924MOL0     C21901  10.805   8.475   3.865  0.1221  0.5644  0.6454
  924MOL0     C21902  10.897   8.580   3.885 -1.0272 -1.0349 -0.2245
  924MOL0     H21903  11.174   8.958   3.604  0.6529 -2.0211 -1.7929
  924MOL0     H21904  11.322   9.169   3.631  0.0203  2.0322  3.4056
  924MOL0     H21905  11.549   9.349   3.899  0.0150  2.4957 -1.9557
  924MOL0     H21906  11.388   9.289   3.851  0.3271 -1.7639  1.1942
  924MOL0     H21907  11.471   9.304   3.608  0.0622 -1.3744  0.7310
  924MOL0     H21908  11.620   9.385   3.671 -0.1236  0.5771 -1.6198
  924MOL0     H21909  11.478   9.553   3.767 -0.2554 -4.6760  3.3777
  924MOL0     H21910  11.335   9.504   3.684  0.1222  1.4694 -1.4991
  924MOL0     H21911  11.582   9.615   3.547 -1.4868  3.1605  1.8775
  924MOL0     H21912  11.457   9.531   3.454 -0.6184  1.2858 -0.0748
  924MOL0     H21913  11.444   9.788   3.612  0.6819  1.2782 -1.9095
  924MOL0     H21914  11.305   9.696   3.525 -0.7013 -1.2509 -0.6141
  924MOL0     H21915  11.412   9.898   3.412  1.8741  1.0493 -2.7612
  924MOL0     H21916  11.390   9.749   3.326 -0.3985  0.0928  1.1523
  924MOL0     H21917  11.640   9.708   3.375  2.3715  1.1860 -1.3005
  924MOL0     H21918  11.622   9.844   3.276  1.4655 -0.3798 -0.0235
  924MOL0     H21919  11.699   9.826   3.579 -1.0390  0.4465 -0.0350
  924MOL0     H21920  11.613   9.970   3.515  1.2141  1.6765  0.9802
  924MOL0     H21921  11.754  10.130   3.346  0.5514 -0.3136 -0.6259
  924MOL0     H21922  12.125  10.092   3.226  0.5909  1.0587 -0.9192
  924MOL0     H21923  11.995  10.226   3.258 -2.2677 -1.4794  1.0794
  924MOL0     H21924  11.912  10.188   3.022 -0.9895 -1.5909 -1.8240
  924MOL0     H21925  11.926  10.017   3.057 -2.0038 -0.3026  1.1417
  924MOL0     H21926  12.164  10.200   2.981  1.1158 -0.5774 -0.0543
  924MOL0     H21927  12.167  10.028   3.001  1.9468 -0.1771 -3.2056
  924MOL0     H21928  12.024  10.193   2.794 -0.3143  0.5147 -0.9175
  924MOL0     H21929  11.956  10.041   2.837 -1.1000  2.7149  0.0418
  924MOL0     H21930  11.945  10.040   2.633  0.0698 -0.4667  1.0746
  924MOL0     H21931  11.922  10.023   2.373  0.8392  1.8390 -1.5877
  924MOL0     H21932  11.979  10.109   1.938 -1.8346 -0.3171  1.2918
  924MOL0     H21933  11.968   9.996   1.701  0.6782 -1.3748 -0.4199
  924MOL0     H21934  11.714   9.739   1.616  0.8536 -0.0176 -3.1021
  924MOL0     H21935  11.781   9.594   1.713  2.9700  0.8348  1.7474
  924MOL0     H21936  11.902   9.532   1.524  0.7522  1.3734  1.0668
  924MOL0     H21937  11.819   9.664   1.426  1.1146  0.7984  1.6284
  924MOL0     H21938  11.597   9.550   1.479 -1.7586 -3.4444 -0.3145
  924MOL0     H21939  11.699   9.431   1.568  5.7619  1.0651  0.8325
  924MOL0     H21940  11.692   9.496   1.272 -1.3902 -0.5639 -0.7972
  924MOL0     H21941  11.824   9.390   1.354  1.0448  2.2327  1.2655
  924MOL0     H21942  11.655   9.248   1.241 -3.1489  3.5718 -3.1088
  924MOL0     H21943  11.525   9.329   1.312  0.0185  4.4709  1.4819
  924MOL0     H21944  11.592   9.240   1.529  1.3288  0.7886 -0.1416
  924MOL0     H21945  11.734   9.152   1.475 -2.2306 -3.6513  0.1299
  924MOL0     H21946  11.449   9.091   1.378 -0.3506  1.6869  0.8136
  924MOL0     H21947  11.586   9.010   1.328 -0.1774  2.1579 -1.2946
  924MOL0     H21948  11.436   8.941   1.543  0.1394 -2.6998 -3.4392
  924MOL0     H21949  11.553   9.035   1.638  1.4330 -0.4244  0.0102
  924MOL0     H21950  11.910   9.623   1.878  0.4091 -1.1459  5.9568
  924MOL0     H21951  11.940   9.712   2.093 -1.9968 -1.6774  1.0736
  924MOL0     H21952  12.334   9.962   2.339 -0.6811  3.9385 -2.9885
  924MOL0     H21953  12.360  10.012   2.598  1.2381  2.0459 -2.8900
  924MOL0     H21954  11.573   8.948   3.907  0.5421  0.6510 -1.0165
  924MOL0     H21955  11.396   8.750   3.897  3.1056 -0.1871  0.0968
  924MOL0     H21956  11.103   8.510   3.624 -0.3925  2.6841 -0.8853
  924MOL0     H21957  10.945   8.326   3.595 -0.4667 -1.0907  0.7652
  924MOL0     H21958  10.613   8.304   3.920 -1.9332 -4.6623  1.0136
  924MOL0     H21959  10.572   8.184   3.808  0.2536  0.3703  0.1622
  924MOL0     H21960  10.403   8.341   3.822 -0.4618  1.5669 -0.5107
  924MOL0     H21961  10.510   8.479   3.773  1.6139 -0.4068  1.9443
  924MOL0     H21962  10.361   8.390   3.575 -0.0003  1.8196  0.3141
  924MOL0     H21963  10.439   8.223   3.603  1.8635 -1.3686  2.4586
  924MOL0     H21964  10.629   8.445   3.548 -0.8933 -1.1952  3.8114
  924MOL0     H21965  10.623   8.282   3.506 -1.9018 -1.4389 -3.4290
  924MOL0     H21966  10.438   8.382   3.151  2.0284 -3.5949 -1.3684
  924MOL0     H21967  10.726   8.473   3.939  1.5700  2.2593  2.3508
  924MOL0     H21968  10.886   8.643   3.972  4.4826  0.4212 -0.1733
  925MOL0     O21969   6.638   4.062   8.675 -0.5805 -0.3447  0.2250
  925MOL0     C21970   6.747   4.104   8.653  0.6155 -0.9152 -0.3806
  925MOL0     O21971   6.792   4.150   8.532 -0.1099  0.0069 -0.4543
  925MOL0     C21972   6.725   4.122   8.420  0.4973 -0.0257 -0.5467
  925MOL0     C21973   6.797   4.066   8.318 -0.0972  0.1811  0.6834
  925MOL0     C21974   6.744   4.053   8.191  0.9394  0.5167 -0.5671
  925MOL0     C21975   6.615   4.100   8.155  0.1255  0.8913  1.3478
  925MOL0     O21976   6.561   4.065   8.026  0.1915  0.0536  0.2015
  925MOL0     C21977   6.427   4.124   7.996 -0.6278 -0.5511  0.3806
  925MOL0     C21978   6.363   4.115   7.852 -0.0779  0.3699 -0.3194
  925MOL0     C21979   6.319   3.976   7.825  0.5144  0.5460 -0.3960
  925MOL0     C21980   6.242   3.968   7.697  0.3920 -0.5128 -0.4930
  925MOL0     C21981   6.259   3.841   7.618 -0.1896 -0.1965 -1.0097
  925MOL0     C21982   6.401   3.803   7.553  1.0208 -0.3310 -0.2035
  925MOL0     C21983   6.409   3.680   7.460 -0.2009  0.1375  0.2502
  925MOL0     C21984   6.544   3.618   7.476 -0.6040 -0.0102 -0.2223
  925MOL0     N21985   6.536   3.486   7.414 -0.6255  0.4224 -0.2421
  925MOL0     C21986   6.613   3.444   7.308 -0.4010 -0.1158 -0.3843
  925MOL0     C21987   6.602   3.312   7.291  0.8180 -0.8469 -0.0373
  925MOL0     C21988   6.696   3.234   7.201  0.1368 -0.9792 -0.0312
  925MOL0     C21989   6.793   3.147   7.287 -0.0103 -0.2407 -0.7369
  925MOL0     C21990   6.899   3.076   7.201 -0.5706  0.4738 -0.3010
  925MOL0     C21991   6.977   2.970   7.287  0.1542 -0.0419 -0.6808
  925MOL0     O21992   6.885   2.855   7.338 -1.1837 -0.0961  0.3366
  925MOL0     C21993   6.922   2.808   7.460  0.6798 -0.1156  0.4913
  925MOL0     C21994   7.006   2.700   7.464 -0.3450 -0.4435  0.8788
  925MOL0     C21995   7.018   2.630   7.588 -0.5618 -0.0093  0.0279
  925MOL0     C21996   6.956   2.685   7.699  0.8507 -0.3362 -0.5101
  925MOL0     C21997   6.971   2.620   7.837  0.9435  0.4202  0.2179
  925MOL0     O21998   6.882   2.669   7.931 -0.2705 -0.5451  0.7913
  925MOL0     C21999   6.901   2.633   8.063 -0.3820  0.9481  0.0271
  925MOL0     C22000   7.015   2.675   8.134 -0.1825 -0.5587 -0.3612
  925MOL0     C22001   7.033   2.636   8.264  0.3818  0.0230 -0.3196
  925MOL0     C22002   6.940   2.562   8.338 -0.4361 -0.1703  0.8626
  925MOL0     O22003   6.978   2.533   8.463 -0.5096 -0.1198  0.3865
  925MOL0     C22004   6.878   2.490   8.554 -0.1551 -0.3940 -0.0433
  925MOL0     C22005   6.769   2.599   8.601 -0.3555  0.7257  0.5612
  925MOL0     C22006   6.854   2.714   8.663 -0.0494  0.3327  1.5690
  925MOL0     C22007   6.775   2.847   8.659  0.3488  0.2162 -0.1271
  925MOL0     C22008   6.863   2.976   8.676  0.0336  0.3835  0.4474
  925MOL0     C22009   6.798   3.095   8.608  0.0470 -0.7222 -0.5961
  925MOL0     C22010   6.897   3.212   8.624  0.4772  0.6060  0.1032
  925MOL0     C22011   6.964   3.242   8.490 -0.5496  0.4651  0.0982
  925MOL0    Cl22012   6.864   3.324   8.359  0.4622  0.6621 -0.3988
  925MOL0     C22013   6.823   2.520   8.276  0.2585 -0.0827  0.3383
  925MOL0     C22014   6.810   2.560   8.140  0.2824 -0.3486  0.7685
  925MOL0     O22015   7.047   2.530   7.855 -0.2118  0.6582 -0.3109
  925MOL0     C22016   6.867   2.800   7.684 -0.3975 -0.8064 -0.6145
  925MOL0     C22017   6.858   2.864   7.570  1.2804  0.0382  0.5693
  925MOL0     N22018   6.524   3.272   7.400 -0.2085  0.3990  1.0791
  925MOL0     N22019   6.483   3.374   7.465  0.6154  0.0027  0.1122
  925MOL0     C22020   6.542   4.160   8.254 -0.1617  0.0226  0.2442
  925MOL0     C22021   6.597   4.179   8.390 -0.0713  0.6948 -0.3774
  925MOL0     C22022   6.845   4.113   8.764 -0.0594 -0.0093  0.2106
  925MOL0     C22023   6.829   4.050   8.885  0.6743  0.0197  0.1948
  925MOL0     C22024   6.915   4.075   8.988  0.3684  0.6677  0.1802
  925MOL0     C22025   7.016   4.166   8.977 -0.0958 -0.0342  1.4754
  925MOL0     O22026   7.099   4.205   9.077  0.2198 -0.3291  0.2467
  925MOL0     C22027   7.217   4.119   9.109  0.2370 -0.7273 -0.7195
  925MOL0     C22028   7.296   4.189   9.234  0.3009  0.0361  1.3785
  925MOL0     C22029   7.399   4.300   9.201  0.2981  0.3425  1.0684
  925MOL0     C22030   7.393   4.420   9.298 -0.2321 -0.9521  0.4839
  925MOL0     C22031   7.274   4.503   9.305 -0.2244 -0.4508  0.2825
  925MOL0     C22032   7.168   4.558   9.303 -1.0112  0.6510  0.7088
  925MOL0     C22033   7.036   4.223   8.852 -0.3533  0.5531 -0.2573
  925MOL0     C22034   6.952   4.192   8.748 -0.5955 -0.3088  0.1188
  925MOL0     H22035   6.890   4.011   8.331 -1.4356 -2.3051  0.4360
  925MOL0     H22036   6.802   3.996   8.118  0.0862 -0.1266 -0.7683
  925MOL0     H22037   6.436   4.231   8.017  2.2667 -0.1478 -2.1505
  925MOL0     H22038   6.351   4.079   8.061 -1.7568  0.3013 -0.3248
  925MOL0     H22039   6.439   4.140   7.778  3.0717 -2.0102  1.7881
  925MOL0     H22040   6.275   4.180   7.844  1.5973  3.0144  1.2113
  925MOL0     H22041   6.245   3.957   7.903  0.4574  0.8158 -0.3835
  925MOL0     H22042   6.399   3.903   7.838 -0.4637 -0.4871  0.0173
  925MOL0     H22043   6.139   3.989   7.727 -0.7029 -0.2519 -3.9715
  925MOL0     H22044   6.272   4.045   7.625  0.0174 -2.1640 -2.5426
  925MOL0     H22045   6.185   3.841   7.537  0.3970 -1.2987 -1.5585
  925MOL0     H22046   6.239   3.758   7.685  3.1765 -0.0543  0.3556
  925MOL0     H22047   6.476   3.803   7.632  0.5913 -0.4576  0.2131
  925MOL0     H22048   6.441   3.889   7.499  0.8501 -1.1366 -1.6545
  925MOL0     H22049   6.333   3.603   7.477  2.5240 -3.1619 -1.3427
  925MOL0     H22050   6.393   3.701   7.354  0.9071 -0.4172 -0.0379
  925MOL0     H22051   6.575   3.598   7.579  0.3918  3.0093  0.1458
  925MOL0     H22052   6.620   3.684   7.434 -0.1274  0.0496  0.7050
  925MOL0     H22053   6.674   3.518   7.258 -1.4027  3.2168  2.8895
  925MOL0     H22054   6.757   3.308   7.147  0.3359 -1.5214 -0.5580
  925MOL0     H22055   6.638   3.175   7.130 -1.3782 -1.2633  1.3706
  925MOL0     H22056   6.733   3.075   7.344  0.9869  0.0743  0.7939
  925MOL0     H22057   6.835   3.208   7.367  0.3015 -0.2469 -0.8964
  925MOL0     H22058   6.843   3.025   7.122 -2.2910 -2.8262  2.7425
  925MOL0     H22059   6.970   3.144   7.154  3.0489 -2.2435  0.7981
  925MOL0     H22060   7.016   3.019   7.377 -1.7879 -1.0988  0.8296
  925MOL0     H22061   7.062   2.927   7.233  0.7436  0.6837 -0.3555
  925MOL0     H22062   7.055   2.671   7.372  0.3353  3.1809 -0.0755
  925MOL0     H22063   7.088   2.547   7.601  0.4221  1.1948  3.5034
  925MOL0     H22064   7.089   2.724   8.072 -2.7789  1.6993 -1.9210
  925MOL0     H22065   7.128   2.642   8.316  0.1551 -1.9040  0.4105
  925MOL0     H22066   6.924   2.447   8.643 -2.2638  2.0331  2.3970
  925MOL0     H22067   6.837   2.401   8.505 -2.3189  0.7492 -0.4378
  925MOL0     H22068   6.687   2.564   8.664  0.2423 -1.4809  0.1899
  925MOL0     H22069   6.714   2.624   8.510  0.0928 -1.2846 -0.3230
  925MOL0     H22070   6.950   2.727   8.612 -1.2566 -1.7065 -1.4765
  925MOL0     H22071   6.868   2.686   8.768  0.9567  0.3158  1.4440
  925MOL0     H22072   6.724   2.848   8.562  0.9304  0.4487 -0.4292
  925MOL0     H22073   6.698   2.851   8.737 -1.2886 -0.7521 -1.6109
  925MOL0     H22074   6.959   2.949   8.631  0.5746 -2.1684  2.8381
  925MOL0     H22075   6.877   3.004   8.781 -1.8665  0.3742  0.7408
  925MOL0     H22076   6.705   3.119   8.661  0.4191  0.9258 -0.6469
  925MOL0     H22077   6.764   3.077   8.505  2.1691 -3.1162 -0.9728
  925MOL0     H22078   6.834   3.296   8.654 -3.3480 -2.4083  1.4890
  925MOL0     H22079   6.971   3.187   8.701  0.4062 -1.6316 -0.4758
  925MOL0     H22080   6.995   3.142   8.457 -3.2955 -1.2561  2.2359
  925MOL0     H22081   7.050   3.304   8.513  2.7679 -2.5350 -2.8871
  925MOL0     H22082   6.756   2.451   8.326 -0.1329 -1.0272 -1.4041
  925MOL0     H22083   6.725   2.521   8.085 -1.1113  0.2325  2.4441
  925MOL0     H22084   6.817   2.841   7.771  2.8505  2.1963  0.0437
  925MOL0     H22085   6.788   2.946   7.563  1.1146 -0.1331  0.1296
  925MOL0     H22086   6.446   4.209   8.238 -0.7812 -1.1856  0.1226
  925MOL0     H22087   6.530   4.212   8.469  0.7257 -1.3106  1.2196
  925MOL0     H22088   6.744   3.984   8.898  2.4691 -2.3728  0.4911
  925MOL0     H22089   6.893   4.030   9.084 -1.8718 -2.1139 -1.4464
  925MOL0     H22090   7.273   4.100   9.017 -1.2038  1.9227 -2.2656
  925MOL0     H22091   7.179   4.022   9.143  0.8464 -0.4400  0.9017
  925MOL0     H22092   7.225   4.233   9.304  2.0403  0.3559  2.9978
  925MOL0     H22093   7.353   4.107   9.277  0.3637 -1.3555 -1.1575
  925MOL0     H22094   7.380   4.342   9.101  0.8538 -1.7215  0.0366
  925MOL0     H22095   7.495   4.248   9.205 -0.7995 -1.8269  1.0628
  925MOL0     H22096   7.401   4.381   9.400 -3.9401  0.5764  1.5028
  925MOL0     H22097   7.473   4.491   9.277 -0.7336 -0.4111  0.3856
  925MOL0     H22098   7.073   4.605   9.287  0.3448  3.0306 -0.8711
  925MOL0     H22099   7.112   4.298   8.830 -0.5527 -0.1411 -3.7628
  925MOL0     H22100   6.981   4.238   8.653  0.2331  0.8738  0.9115
  926MOL0     O22101   0.615   6.872   8.656 -0.6709  0.4165 -0.2774
  926MOL0     C22102   0.655   6.847   8.774 -0.8432 -0.0809 -0.8530
  926MOL0     O22103   0.679   6.937   8.876  0.6417 -0.3642 -0.2041
  926MOL0     C22104   0.655   7.071   8.861 -0.6702  0.1801  0.4920
  926MOL0     C22105   0.765   7.156   8.872 -0.6377 -0.0931  0.9680
  926MOL0     C22106   0.734   7.298   8.886  0.6496  0.3016 -0.2513
  926MOL0     C22107   0.607   7.354   8.881  0.5147  0.9424 -0.4484
  926MOL0     O22108   0.601   7.490   8.899  0.6630 -0.1511  0.6565
  926MOL0     C22109   0.476   7.558   8.940  0.0977  0.6106  0.2797
  926MOL0     C22110   0.351   7.554   8.847 -0.1880  0.2431  0.2237
  926MOL0     C22111   0.225   7.605   8.925  0.1064 -0.4549 -0.5346
  926MOL0     C22112   0.177   7.496   9.033 -0.3038 -0.9701  0.6806
  926MOL0     C22113   0.058   7.543   9.113  0.0603 -0.1294  0.1246
  926MOL0     C22114  -0.009   7.433   9.189  0.9106  0.7741  1.5258
  926MOL0     C22115  -0.103   7.342   9.098  0.7164  0.1283 -0.2201
  926MOL0     C22116  -0.237   7.400   9.108  0.2916 -1.1689 -1.0130
  926MOL0     N22117  -0.324   7.341   9.006 -0.8074 -0.4047  0.3661
  926MOL0     C22118  -0.307   7.368   8.866 -0.7047  0.0965 -0.1718
  926MOL0     C22119  -0.421   7.302   8.810 -1.0154 -0.4353 -0.2015
  926MOL0     C22120  -0.468   7.325   8.662 -0.2231 -0.5564 -0.7311
  926MOL0     C22121  -0.402   7.217   8.559 -0.1273  0.3788  0.1581
  926MOL0     C22122  -0.418   7.068   8.604  0.1151 -0.3202 -0.2691
  926MOL0     C22123  -0.557   7.006   8.604  1.0714  0.4803 -1.1850
  926MOL0     O22124  -0.556   6.868   8.669  0.4926 -0.4866  0.7355
  926MOL0     C22125  -0.646   6.811   8.746  1.6665  0.4989  1.0085
  926MOL0     C22126  -0.768   6.871   8.783  0.2599  0.1232 -0.0967
  926MOL0     C22127  -0.850   6.808   8.877 -0.1443  1.0243  0.0447
  926MOL0     C22128  -0.824   6.679   8.915 -0.2532 -0.3574 -0.7825
  926MOL0     C22129  -0.910   6.615   9.008 -0.0992 -0.5809 -0.9598
  926MOL0     O22130  -1.038   6.669   9.011 -0.0818  0.5079 -0.2230
  926MOL0     C22131  -1.150   6.622   9.070  0.1870 -0.3655  0.0255
  926MOL0     C22132  -1.261   6.695   9.033  0.6988 -0.6709 -0.1380
  926MOL0     C22133  -1.386   6.665   9.085 -0.4663 -0.3984  0.3887
  926MOL0     C22134  -1.398   6.555   9.174  1.0678  0.4125  0.1901
  926MOL0     O22135  -1.523   6.536   9.234 -1.0748  1.0234  0.1528
  926MOL0     C22136  -1.596   6.411   9.207 -0.1924 -0.0081 -0.2823
  926MOL0     C22137  -1.704   6.392   9.318 -0.0565 -1.0104  0.2527
  926MOL0     C22138  -1.827   6.476   9.293  0.1628  0.3432 -0.2442
  926MOL0     C22139  -1.815   6.630   9.328 -0.0832  0.3344 -0.8813
  926MOL0     C22140  -1.938   6.714   9.301 -0.2555  0.9185 -0.2899
  926MOL0     C22141  -1.912   6.855   9.296  0.0586  0.1021 -0.7281
  926MOL0     C22142  -2.043   6.927   9.284 -0.0073 -0.6189  0.0616
  926MOL0     C22143  -2.027   7.071   9.236  0.0112  0.5459  0.3609
  926MOL0    Cl22144  -2.177   7.158   9.241 -0.0824  0.3522 -0.2545
  926MOL0     C22145  -1.285   6.483   9.214  0.1040  0.3681  0.1318
  926MOL0     C22146  -1.157   6.517   9.163 -0.6084 -0.5847  0.9753
  926MOL0     O22147  -0.868   6.539   9.095  0.3070 -0.1545  0.7231
  926MOL0     C22148  -0.709   6.607   8.872 -0.5812  0.0096 -0.1965
  926MOL0     C22149  -0.627   6.675   8.781 -0.2689 -0.6775 -0.2429
  926MOL0     N22150  -0.489   7.249   8.908 -0.3007 -0.2900  0.4343
  926MOL0     N22151  -0.433   7.261   9.022 -0.1794  0.0237  0.2520
  926MOL0     C22152   0.501   7.263   8.864  1.2723  0.1067  0.7668
  926MOL0     C22153   0.530   7.130   8.871  1.6124  0.4420 -0.3355
  926MOL0     C22154   0.663   6.705   8.802 -0.4091  0.8270 -0.3825
  926MOL0     C22155   0.666   6.607   8.707  0.3537 -0.8320 -1.0344
  926MOL0     C22156   0.670   6.472   8.747  0.4898  0.4165 -0.5065
  926MOL0     C22157   0.683   6.433   8.876 -0.1824  0.3298  1.0298
  926MOL0     O22158   0.678   6.300   8.905  0.8124  0.4944  0.0732
  926MOL0     C22159   0.761   6.255   9.008 -0.2926 -0.9995 -0.8917
  926MOL0     C22160   0.753   6.103   9.021 -0.0500  0.3276 -0.4140
  926MOL0     C22161   0.818   6.028   8.901  0.5642  1.0774 -1.4025
  926MOL0     C22162   0.817   5.871   8.923 -0.6236 -0.1783  0.0079
  926MOL0     C22163   0.944   5.848   8.990  0.0095 -0.6828 -0.0119
  926MOL0     C22164   1.047   5.848   9.053 -0.4769 -0.2258  0.3582
  926MOL0     C22165   0.676   6.535   8.968  0.5725 -0.2484 -0.0351
  926MOL0     C22166   0.661   6.664   8.935 -0.8614 -0.3388 -0.3612
  926MOL0     H22167   0.872   7.136   8.872 -0.4333  0.3983 -2.4837
  926MOL0     H22168   0.815   7.367   8.906  1.4622 -0.3757 -1.1448
  926MOL0     H22169   0.506   7.663   8.946 -0.1997  0.7763 -0.9310
  926MOL0     H22170   0.441   7.523   9.037  1.4943 -0.6507  0.3592
  926MOL0     H22171   0.321   7.464   8.793  3.0748 -0.1175 -1.2360
  926MOL0     H22172   0.385   7.617   8.765  2.3093  2.6717  2.8882
  926MOL0     H22173   0.146   7.632   8.855 -3.6943  0.3448  3.6506
  926MOL0     H22174   0.243   7.704   8.968 -1.9783  0.5669 -1.8968
  926MOL0     H22175   0.140   7.415   8.970 -0.8092  0.3093 -0.7181
  926MOL0     H22176   0.262   7.462   9.094  0.5484  0.8418  0.5515
  926MOL0     H22177  -0.012   7.569   9.033 -0.1534  1.6545  0.8304
  926MOL0     H22178   0.086   7.625   9.181  0.1042 -0.0555  0.0173
  926MOL0     H22179  -0.064   7.480   9.271 -0.2309 -1.6979  2.3032
  926MOL0     H22180   0.073   7.370   9.224  1.3002  0.5401  0.2436
  926MOL0     H22181  -0.067   7.335   8.995 -0.0855 -0.5322 -0.4615
  926MOL0     H22182  -0.126   7.241   9.131 -8.1526  0.8474 -1.8432
  926MOL0     H22183  -0.226   7.508   9.091  3.4935 -0.5779  3.1274
  926MOL0     H22184  -0.275   7.388   9.210 -0.0638 -1.9806 -1.2403
  926MOL0     H22185  -0.231   7.422   8.810  1.3601 -1.0678  1.3398
  926MOL0     H22186  -0.444   7.424   8.623 -1.1955 -0.2308 -0.5206
  926MOL0     H22187  -0.577   7.322   8.666 -0.2308 -0.9963  2.9857
  926MOL0     H22188  -0.299   7.246   8.536  0.2815 -1.2628 -0.2290
  926MOL0     H22189  -0.452   7.214   8.462  1.7357 -4.1719 -0.9313
  926MOL0     H22190  -0.361   6.997   8.544  0.0918 -0.9208  0.3962
  926MOL0     H22191  -0.371   7.050   8.701 -0.1412 -0.0048 -0.0831
  926MOL0     H22192  -0.609   7.007   8.507 -0.6757 -1.1961 -0.3469
  926MOL0     H22193  -0.621   7.067   8.668  0.6094 -1.7515  0.6345
  926MOL0     H22194  -0.785   6.971   8.744 -0.2256 -0.4523 -1.3952
  926MOL0     H22195  -0.942   6.856   8.907  0.7781  2.7460  0.2709
  926MOL0     H22196  -1.241   6.768   8.955  1.3759 -0.7359 -0.0317
  926MOL0     H22197  -1.479   6.719   9.068 -1.0803 -1.0865  1.4198
  926MOL0     H22198  -1.522   6.331   9.212  0.6401  0.7609  0.2097
  926MOL0     H22199  -1.635   6.413   9.105 -1.8976  0.9847  0.3357
  926MOL0     H22200  -1.649   6.403   9.412  0.6243  1.6583 -0.3634
  926MOL0     H22201  -1.741   6.290   9.310 -0.7962 -0.6298 -1.5572
  926MOL0     H22202  -1.904   6.429   9.355  2.7281 -1.7513  1.5933
  926MOL0     H22203  -1.856   6.470   9.188  0.9875  0.5391 -0.4912
  926MOL0     H22204  -1.779   6.643   9.430  0.0070  0.0968 -0.8801
  926MOL0     H22205  -1.739   6.667   9.259 -0.1998  2.2224 -0.0459
  926MOL0     H22206  -2.012   6.687   9.376  0.5225  1.4034  0.6742
  926MOL0     H22207  -1.967   6.690   9.198  0.6248  0.6991 -0.4945
  926MOL0     H22208  -1.838   6.873   9.218  0.2104 -0.2908 -0.6770
  926MOL0     H22209  -1.863   6.877   9.391  3.0411 -2.3551 -1.5263
  926MOL0     H22210  -2.099   6.874   9.207 -0.1868  0.6295 -0.6941
  926MOL0     H22211  -2.110   6.936   9.370  0.4764  4.6508  0.2187
  926MOL0     H22212  -1.992   7.069   9.132 -1.8415  1.3309 -0.3318
  926MOL0     H22213  -1.951   7.118   9.297 -2.0605 -0.8558  4.4034
  926MOL0     H22214  -1.286   6.403   9.286 -2.9526  0.0070 -0.1768
  926MOL0     H22215  -1.072   6.457   9.193 -0.8101  0.2722  3.5556
  926MOL0     H22216  -0.702   6.501   8.894 -3.1821 -0.2085 -0.1219
  926MOL0     H22217  -0.544   6.624   8.732 -0.8237 -1.0499 -0.8142
  926MOL0     H22218   0.396   7.290   8.868  0.1109 -3.2058 -2.1803
  926MOL0     H22219   0.443   7.074   8.904  2.2278  0.6678  1.8078
  926MOL0     H22220   0.661   6.627   8.600 -2.5706  3.3825 -0.3545
  926MOL0     H22221   0.672   6.394   8.671  3.1891 -0.3493  0.2251
  926MOL0     H22222   0.721   6.302   9.098  0.5982 -2.6969  0.4673
  926MOL0     H22223   0.866   6.283   8.992  0.1163 -1.2138  1.1223
  926MOL0     H22224   0.810   6.077   9.112 -0.4931 -2.6223 -0.8733
  926MOL0     H22225   0.648   6.077   9.031 -0.5025  2.1324 -0.2775
  926MOL0     H22226   0.921   6.064   8.894  0.6581  1.3244  0.6973
  926MOL0     H22227   0.768   6.054   8.807  2.4107  0.0925 -2.7269
  926MOL0     H22228   0.729   5.846   8.984 -3.0965  2.2521 -2.2909
  926MOL0     H22229   0.818   5.815   8.828  0.3149  1.8681 -1.2459
  926MOL0     H22230   1.135   5.824   9.108 -0.8871 -3.0196 -0.0283
  926MOL0     H22231   0.683   6.512   9.074 -0.1765 -2.3642 -0.3915
  926MOL0     H22232   0.659   6.736   9.016 -1.0442  1.8590 -2.1847
  927MOL0     O22233   5.534   2.082  10.519 -0.5147 -0.3676  0.3843
  927MOL0     C22234   5.498   1.974  10.546  0.0969  0.6223 -0.0729
  927MOL0     O22235   5.531   1.861  10.484  1.0999 -0.1290  0.9265
  927MOL0     C22236   5.613   1.849  10.376 -0.5040  0.1098 -0.0168
  927MOL0     C22237   5.710   1.939  10.325 -0.9643 -0.0992 -0.2653
  927MOL0     C22238   5.763   1.917  10.192  0.8774  0.4262 -0.5524
  927MOL0     C22239   5.744   1.795  10.127  0.4155  0.2450 -0.0406
  927MOL0     O22240   5.799   1.767  10.007  0.6600 -0.5731  0.4451
  927MOL0     C22241   5.845   1.641   9.974  0.0470 -0.0741 -0.5754
  927MOL0     C22242   5.793   1.582   9.840  0.9351  0.2535  0.2618
  927MOL0     C22243   5.835   1.433   9.825 -0.4162 -0.9848  1.1265
  927MOL0     C22244   5.972   1.420   9.772 -0.5917  0.4243 -0.3209
  927MOL0     C22245   6.020   1.271   9.783  0.1957 -0.5690  0.3297
  927MOL0     C22246   5.944   1.171   9.692  0.3202  0.2100  0.3619
  927MOL0     C22247   5.987   1.029   9.707  0.1839  0.2165 -0.2589
  927MOL0     C22248   5.900   0.953   9.809 -0.7330  1.1584 -0.1518
  927MOL0     N22249   5.769   0.921   9.765  0.7488 -0.0928  0.3785
  927MOL0     C22250   5.737   0.859   9.650 -0.4295  0.6063 -0.5250
  927MOL0     C22251   5.614   0.804   9.662 -0.5945  0.5834 -0.1114
  927MOL0     C22252   5.528   0.749   9.559 -0.0066  0.4789  0.8734
  927MOL0     C22253   5.574   0.606   9.517 -0.1277 -0.1024 -0.0718
  927MOL0     C22254   5.464   0.536   9.427 -0.7007  0.0065  0.2407
  927MOL0     C22255   5.513   0.398   9.371 -0.1414  0.5522  0.4949
  927MOL0     O22256   5.595   0.420   9.260 -0.2216 -0.5378 -0.2306
  927MOL0     C22257   5.686   0.334   9.215  0.0538  0.6041  0.8297
  927MOL0     C22258   5.644   0.225   9.139  0.5896 -0.4383 -0.8447
  927MOL0     C22259   5.739   0.132   9.082  0.9820 -0.4748 -0.7893
  927MOL0     C22260   5.879   0.152   9.105  0.6787  0.2835 -0.2739
  927MOL0     C22261   5.972   0.069   9.024 -0.8380 -0.1181 -0.3851
  927MOL0     O22262   6.107   0.088   9.044 -0.1247  0.2247 -0.0119
  927MOL0     C22263   6.193   0.028   8.961 -0.5472  0.2713  0.2379
  927MOL0     C22264   6.236   0.113   8.861 -0.0908  0.0659 -0.5267
  927MOL0     C22265   6.326   0.062   8.771 -0.8999 -0.6061  0.4466
  927MOL0     C22266   6.378  -0.068   8.777 -0.2247 -0.9523  0.0240
  927MOL0     O22267   6.475  -0.104   8.692 -0.0771 -0.1525 -0.1965
  927MOL0     C22268   6.612  -0.106   8.738 -0.0115 -0.2479 -0.4148
  927MOL0     C22269   6.714  -0.151   8.631  0.5825  0.1410 -0.1781
  927MOL0     C22270   6.861  -0.145   8.679  0.8100  0.7717  0.7612
  927MOL0     C22271   6.888  -0.232   8.804 -0.7971 -1.1349 -0.2917
  927MOL0     C22272   7.032  -0.205   8.864  0.2651 -0.4670  0.3185
  927MOL0     C22273   7.050  -0.274   8.997 -0.3221  0.8801 -0.9758
  927MOL0     C22274   7.184  -0.233   9.051  0.3847 -0.3328  0.1034
  927MOL0     C22275   7.304  -0.311   9.003  0.9986  0.4237  0.0782
  927MOL0    Cl22276   7.432  -0.313   9.134 -0.4398  0.5408 -0.2317
  927MOL0     C22277   6.329  -0.154   8.875  0.1774  0.1938 -0.0243
  927MOL0     C22278   6.238  -0.106   8.975 -0.1969  0.1039 -0.8707
  927MOL0     O22279   5.921  -0.011   8.942  0.5740 -0.6145 -0.3486
  927MOL0     C22280   5.919   0.254   9.192 -0.0453 -0.3619  0.0372
  927MOL0     C22281   5.828   0.348   9.243 -0.3899  0.6093  0.3303
  927MOL0     N22282   5.570   0.852   9.785  0.0037 -0.0429  0.3594
  927MOL0     N22283   5.662   0.915   9.850 -0.7095  0.1214 -0.2368
  927MOL0     C22284   5.641   1.712  10.177  0.4031  0.8380 -0.1864
  927MOL0     C22285   5.580   1.738  10.301 -0.0593 -0.2230  0.7273
  927MOL0     C22286   5.400   1.955  10.654 -0.9660 -0.5187 -0.0204
  927MOL0     C22287   5.344   2.060  10.732  0.5224  0.2357 -0.3636
  927MOL0     C22288   5.236   2.038  10.820 -0.8829  1.1552 -0.3416
  927MOL0     C22289   5.191   1.907  10.851  0.0871 -0.3886  0.1262
  927MOL0     O22290   5.081   1.892  10.928  0.7620 -0.4517 -1.0831
  927MOL0     C22291   5.036   1.989  11.025  0.2565  0.2354  0.8526
  927MOL0     C22292   4.923   1.934  11.109  0.4933 -0.6701 -0.3114
  927MOL0     C22293   4.957   1.796  11.164 -0.0739  0.5223  0.6237
  927MOL0     C22294   4.895   1.787  11.303 -0.8994 -0.5295  0.7721
  927MOL0     C22295   4.753   1.802  11.294 -0.6049 -0.9163  0.2061
  927MOL0     C22296   4.634   1.833  11.283 -1.1795  0.2248 -0.0890
  927MOL0     C22297   5.253   1.800  10.786  0.0164 -0.6327  0.0542
  927MOL0     C22298   5.359   1.823  10.694  0.2184  0.9142  0.6511
  927MOL0     H22299   5.727   2.026  10.388  1.2956 -2.4689  2.6666
  927MOL0     H22300   5.821   1.998  10.149  0.2889  1.6706  0.9216
  927MOL0     H22301   5.832   1.567  10.053 -1.7323  1.8948  1.0794
  927MOL0     H22302   5.952   1.661   9.961  0.3540 -1.3681 -0.1187
  927MOL0     H22303   5.823   1.647   9.758 -1.7566 -0.0151 -1.0520
  927MOL0     H22304   5.686   1.604   9.840  1.1890  1.6114  0.7672
  927MOL0     H22305   5.763   1.395   9.751 -1.8488  0.2813  1.8196
  927MOL0     H22306   5.813   1.376   9.916 -0.7241 -2.9965 -0.1397
  927MOL0     H22307   5.977   1.448   9.666  2.0482  2.6095  0.2762
  927MOL0     H22308   6.034   1.482   9.838 -2.3009  1.8380  0.0230
  927MOL0     H22309   6.004   1.246   9.888 -1.8543  2.3386  0.8394
  927MOL0     H22310   6.125   1.257   9.757  0.4413 -0.7580  1.4041
  927MOL0     H22311   5.964   1.209   9.592  2.5494  0.8384  0.9807
  927MOL0     H22312   5.835   1.174   9.699  0.0576  2.3438 -2.7060
  927MOL0     H22313   5.981   0.968   9.616  1.9627 -1.1528  0.4688
  927MOL0     H22314   6.095   1.023   9.720  0.0250  0.4045  1.2331
  927MOL0     H22315   5.900   1.004   9.906 -1.8399  1.3133 -0.2188
  927MOL0     H22316   5.948   0.856   9.826 -3.9059 -0.4342  0.4402
  927MOL0     H22317   5.803   0.842   9.566 -1.1378  1.8379 -1.3459
  927MOL0     H22318   5.523   0.816   9.473 -2.1087 -0.6551  0.0458
  927MOL0     H22319   5.427   0.755   9.600  1.5483  1.6793  5.0855
  927MOL0     H22320   5.592   0.565   9.617  4.5713  2.8558  0.6001
  927MOL0     H22321   5.668   0.619   9.463  0.8600  2.0854  1.9621
  927MOL0     H22322   5.372   0.544   9.487 -1.3321  0.4315 -0.7466
  927MOL0     H22323   5.428   0.594   9.342 -2.0439 -1.0296  0.0506
  927MOL0     H22324   5.426   0.335   9.348  2.1170 -3.0230  0.8786
  927MOL0     H22325   5.572   0.344   9.447 -1.6776 -1.3523  0.4274
  927MOL0     H22326   5.537   0.218   9.126  0.4344  0.0937  0.0384
  927MOL0     H22327   5.690   0.051   9.028 -3.5532  0.5474  1.3044
  927MOL0     H22328   6.200   0.215   8.866  1.1779  0.5898 -1.6598
  927MOL0     H22329   6.367   0.132   8.699  2.1801 -1.0841  1.5659
  927MOL0     H22330   6.610  -0.167   8.829 -0.9984  3.6434  2.4152
  927MOL0     H22331   6.645  -0.006   8.765  0.0531  0.7687 -3.7835
  927MOL0     H22332   6.703  -0.082   8.547 -0.9299 -1.2056 -1.1349
  927MOL0     H22333   6.686  -0.250   8.593  0.9291 -0.0703  0.1009
  927MOL0     H22334   6.895  -0.045   8.705  0.8033  0.9386  0.1370
  927MOL0     H22335   6.910  -0.190   8.592 -0.6221  0.3608  0.1223
  927MOL0     H22336   6.813  -0.209   8.880 -1.0010 -2.3503 -0.1010
  927MOL0     H22337   6.875  -0.339   8.781 -1.1878 -0.9842 -0.7877
  927MOL0     H22338   7.030  -0.097   8.882  1.8456 -0.5268  0.9653
  927MOL0     H22339   7.107  -0.235   8.790  1.2646 -3.9549  2.5375
  927MOL0     H22340   7.032  -0.382   8.996  0.7250  0.6448 -3.8624
  927MOL0     H22341   6.977  -0.243   9.073 -1.3092 -1.3821 -0.9255
  927MOL0     H22342   7.184  -0.123   9.056 -2.5753 -0.3133  3.2187
  927MOL0     H22343   7.183  -0.247   9.159  2.0952  1.4908  0.4166
  927MOL0     H22344   7.348  -0.269   8.912  2.9595  0.9009  1.1884
  927MOL0     H22345   7.278  -0.413   8.975 -1.9293  1.2810 -0.6764
  927MOL0     H22346   6.379  -0.250   8.876 -1.4416 -0.6817  0.1016
  927MOL0     H22347   6.214  -0.176   9.054 -4.7247 -3.3384 -4.7317
  927MOL0     H22348   6.026   0.253   9.208 -0.1379 -1.6824  0.6974
  927MOL0     H22349   5.854   0.432   9.307 -1.9977  0.6131  1.0313
  927MOL0     H22350   5.610   1.631  10.111  1.6365  0.7616 -0.6902
  927MOL0     H22351   5.504   1.670  10.338 -2.8379  2.5683  0.5716
  927MOL0     H22352   5.373   2.163  10.713  3.3237 -0.5746 -0.9174
  927MOL0     H22353   5.197   2.120  10.880  1.6709  0.3900  2.6631
  927MOL0     H22354   4.995   2.069  10.962 -2.2557 -0.7203  1.1817
  927MOL0     H22355   5.125   2.024  11.077  0.5405 -1.5090  1.6030
  927MOL0     H22356   4.914   2.004  11.193 -0.1560 -0.1272 -0.8220
  927MOL0     H22357   4.826   1.921  11.061  0.6433 -0.1467 -0.7719
  927MOL0     H22358   5.065   1.781  11.162 -0.0108  0.5222 -3.0151
  927MOL0     H22359   4.929   1.716  11.095  6.1310  0.4217 -2.4142
  927MOL0     H22360   4.937   1.693  11.341  2.4265  0.2043 -0.7317
  927MOL0     H22361   4.936   1.863  11.370 -2.6199  1.6347 -0.5239
  927MOL0     H22362   4.532   1.861  11.268 -1.4047  0.7648  2.1190
  927MOL0     H22363   5.230   1.696  10.804  1.3252 -0.6416  2.0901
  927MOL0     H22364   5.402   1.739  10.641 -0.9178 -1.6233  3.4769
  928MOL0     O22365   3.902   9.657   6.008 -0.8438  0.2459  0.3093
  928MOL0     C22366   3.855   9.699   6.115 -0.8214  0.5207  0.2529
  928MOL0     O22367   3.912   9.699   6.236 -0.0878  0.1680  0.1595
  928MOL0     C22368   4.048   9.692   6.249 -0.4296  1.1625  0.1459
  928MOL0     C22369   4.088   9.611   6.356 -0.2287  0.2069 -0.0958
  928MOL0     C22370   4.224   9.580   6.380 -0.2596 -0.8129 -0.4289
  928MOL0     C22371   4.314   9.629   6.283 -0.5028 -0.6678  0.6501
  928MOL0     O22372   4.447   9.598   6.302 -0.2710  0.7339 -0.2432
  928MOL0     C22373   4.554   9.679   6.250  0.6934  0.2174  0.3443
  928MOL0     C22374   4.683   9.649   6.338  0.0659 -1.2951 -0.1199
  928MOL0     C22375   4.674   9.719   6.471  0.2280 -0.0626 -0.2121
  928MOL0     C22376   4.620   9.646   6.593 -0.2058 -0.6038  0.5114
  928MOL0     C22377   4.644   9.743   6.721 -0.4002  0.2705 -0.3727
  928MOL0     C22378   4.622   9.657   6.849 -0.6667 -0.2822 -0.5282
  928MOL0     C22379   4.488   9.593   6.859 -0.0682 -0.5867 -0.0604
  928MOL0     C22380   4.464   9.533   6.997 -0.2344 -0.0103 -0.1715
  928MOL0     N22381   4.467   9.634   7.097 -0.0426 -0.6254 -0.6104
  928MOL0     C22382   4.584   9.662   7.169  0.8499  1.0004  0.4650
  928MOL0     C22383   4.555   9.747   7.266 -0.6670  0.2389 -0.6873
  928MOL0     C22384   4.642   9.789   7.382 -0.3315  0.4477 -0.0631
  928MOL0     C22385   4.701   9.923   7.331  0.0053  0.1021 -1.0424
  928MOL0     C22386   4.815   9.984   7.427 -0.0235  0.3005 -0.4453
  928MOL0     C22387   4.849  10.120   7.403  0.3443  0.3511 -0.5718
  928MOL0     O22388   4.954  10.168   7.488 -0.7673 -0.4560 -0.8438
  928MOL0     C22389   4.911  10.227   7.604  0.4893 -0.3157  0.8092
  928MOL0     C22390   4.895  10.363   7.613  0.8708  0.9620  0.5071
  928MOL0     C22391   4.846  10.419   7.738 -0.4786  0.2166 -0.1864
  928MOL0     C22392   4.824  10.335   7.850 -0.8065  0.5706  0.1580
  928MOL0     C22393   4.798  10.397   7.975  0.8496  0.1768 -0.2597
  928MOL0     O22394   4.694  10.488   7.973 -0.1146 -0.0303 -0.7100
  928MOL0     C22395   4.664  10.564   8.089 -0.6854  1.0810  0.0235
  928MOL0     C22396   4.664  10.516   8.222 -0.4594  0.1013 -0.1918
  928MOL0     C22397   4.645  10.607   8.329 -0.4035 -0.4189 -0.1776
  928MOL0     C22398   4.620  10.748   8.301  0.0434 -0.1063 -0.4627
  928MOL0     O22399   4.593  10.833   8.407 -0.8955  0.2257 -0.0577
  928MOL0     C22400   4.544  10.961   8.383  0.5950 -0.5400  0.4117
  928MOL0     C22401   4.514  11.011   8.524 -0.7581 -0.2413 -0.2915
  928MOL0     C22402   4.489  11.156   8.531 -0.2952 -0.1208  0.6209
  928MOL0     C22403   4.461  11.188   8.685 -0.2342 -0.8331  0.6661
  928MOL0     C22404   4.453  11.340   8.717  0.3025 -0.1749  0.1986
  928MOL0     C22405   4.336  11.417   8.655 -0.0101 -0.1087 -0.1129
  928MOL0     C22406   4.340  11.565   8.681  0.4212 -0.1766 -0.2355
  928MOL0     C22407   4.221  11.605   8.759  0.3597  0.5249  0.8020
  928MOL0    Cl22408   4.248  11.732   8.882  0.3253 -0.4673 -0.2578
  928MOL0     C22409   4.622  10.789   8.168 -0.8580  0.3524  0.4212
  928MOL0     C22410   4.646  10.698   8.067  0.4706 -0.2708  0.5937
  928MOL0     O22411   4.869  10.380   8.075 -0.4761 -0.3028 -0.2819
  928MOL0     C22412   4.869  10.204   7.837  0.6885  0.5981 -0.4796
  928MOL0     C22413   4.894  10.144   7.717 -0.7093  0.7050 -0.1073
  928MOL0     N22414   4.419   9.769   7.259 -0.3798 -0.3614  0.2178
  928MOL0     N22415   4.371   9.708   7.157  0.7101 -0.1069  0.1235
  928MOL0     C22416   4.277   9.691   6.166  0.9648 -0.1640 -0.2281
  928MOL0     C22417   4.149   9.735   6.155  0.9248  0.0482  0.8382
  928MOL0     C22418   3.716   9.727   6.120  0.0832  0.4349 -0.2595
  928MOL0     C22419   3.663   9.805   6.227  0.4955 -0.2102 -0.0447
  928MOL0     C22420   3.528   9.824   6.241  1.0219 -0.4129 -0.6257
  928MOL0     C22421   3.438   9.761   6.156  0.2504  0.2090 -1.1422
  928MOL0     O22422   3.305   9.780   6.179 -0.4200 -0.2159  0.8400
  928MOL0     C22423   3.201   9.715   6.098 -0.2976 -0.1196 -0.2026
  928MOL0     C22424   3.059   9.748   6.158  0.1886 -0.9588 -0.1622
  928MOL0     C22425   3.057   9.727   6.306  0.5021 -0.1505 -0.3832
  928MOL0     C22426   3.024   9.588   6.346 -0.1761 -0.5824 -0.2288
  928MOL0     C22427   2.883   9.577   6.358 -0.2849 -1.0310 -0.5562
  928MOL0     C22428   2.765   9.565   6.365 -0.0610  0.0516 -1.1796
  928MOL0     C22429   3.491   9.692   6.046 -0.3157 -0.1861  0.2718
  928MOL0     C22430   3.624   9.679   6.019  0.1492 -0.1592  0.0040
  928MOL0     H22431   4.012   9.563   6.417 -2.0108  0.1602 -2.2144
  928MOL0     H22432   4.264   9.531   6.468  0.1486 -0.7440 -0.5728
  928MOL0     H22433   4.530   9.785   6.256 -1.2452  0.0273 -2.4335
  928MOL0     H22434   4.580   9.653   6.147 -1.8405  0.5941 -0.4581
  928MOL0     H22435   4.770   9.698   6.294 -0.6764 -0.0200 -0.1998
  928MOL0     H22436   4.684   9.541   6.358 -2.3417 -1.2258  0.6418
  928MOL0     H22437   4.621   9.813   6.453  1.3166  0.3959 -1.1256
  928MOL0     H22438   4.776   9.752   6.494  0.7783 -2.5558  1.3403
  928MOL0     H22439   4.513   9.622   6.583 -0.6251  1.4803 -0.4583
  928MOL0     H22440   4.677   9.554   6.606 -0.8031 -0.9022  1.1563
  928MOL0     H22441   4.578   9.830   6.713 -0.2815  0.8290  3.1658
  928MOL0     H22442   4.747   9.777   6.711 -1.1614  1.8976 -4.9687
  928MOL0     H22443   4.647   9.727   6.930  0.8091  0.7018 -1.7768
  928MOL0     H22444   4.693   9.574   6.851 -1.4852 -1.0002 -0.6448
  928MOL0     H22445   4.415   9.673   6.844  0.3073  0.7683  4.1411
  928MOL0     H22446   4.471   9.516   6.782  2.9153  1.5196 -3.0893
  928MOL0     H22447   4.539   9.457   7.018 -1.6012 -0.7688  2.4021
  928MOL0     H22448   4.375   9.470   7.005  0.0397 -0.3602  0.1375
  928MOL0     H22449   4.686   9.626   7.158  0.8427  0.5034  1.8423
  928MOL0     H22450   4.711   9.708   7.406 -0.5065  0.3165  0.0001
  928MOL0     H22451   4.574   9.809   7.466  0.3310  1.5801  0.2143
  928MOL0     H22452   4.626  10.002   7.328 -0.5408  0.0131  3.5574
  928MOL0     H22453   4.752   9.901   7.237  0.1291 -1.5724 -0.6119
  928MOL0     H22454   4.792   9.968   7.533  3.4278 -0.7188  0.2741
  928MOL0     H22455   4.909   9.930   7.416 -0.6222 -0.7060 -0.7269
  928MOL0     H22456   4.753  10.171   7.413 -0.0532 -0.4532 -0.1994
  928MOL0     H22457   4.880  10.117   7.298 -1.1835 -0.6935 -1.0228
  928MOL0     H22458   4.919  10.418   7.522 -1.5587 -0.4876 -1.1559
  928MOL0     H22459   4.825  10.524   7.758 -2.4825 -0.6677  3.0971
  928MOL0     H22460   4.676  10.412   8.251  0.3572 -0.3525 -2.0273
  928MOL0     H22461   4.635  10.594   8.436  0.0886  1.9457  0.2061
  928MOL0     H22462   4.460  10.971   8.314 -0.7273 -2.2333  1.7028
  928MOL0     H22463   4.604  11.040   8.336 -0.7708 -1.0957 -2.5064
  928MOL0     H22464   4.587  10.990   8.603 -1.3019  1.1408  0.6278
  928MOL0     H22465   4.426  10.961   8.565  0.5328 -1.3030  1.3272
  928MOL0     H22466   4.413  11.197   8.465  0.2936  1.3927  0.8427
  928MOL0     H22467   4.588  11.195   8.504  1.0589 -2.5455  1.6510
  928MOL0     H22468   4.377  11.132   8.727 -2.4726  2.1660  0.5221
  928MOL0     H22469   4.545  11.154   8.746  1.0584 -2.1882 -1.7195
  928MOL0     H22470   4.539  11.394   8.676 -1.8485  3.4912  0.0409
  928MOL0     H22471   4.460  11.359   8.825 -4.3555  2.3409  0.3292
  928MOL0     H22472   4.250  11.364   8.697 -0.1888  0.1004 -0.2110
  928MOL0     H22473   4.345  11.402   8.547  1.2194 -1.2611  0.1275
  928MOL0     H22474   4.427  11.601   8.737 -1.1235 -0.3816  2.4719
  928MOL0     H22475   4.353  11.617   8.586 -0.5635 -0.6000 -0.6069
  928MOL0     H22476   4.175  11.521   8.812 -2.0267 -0.1525 -2.1094
  928MOL0     H22477   4.142  11.626   8.688  3.1458 -0.7514 -2.9911
  928MOL0     H22478   4.616  10.889   8.128  3.2844  0.2108 -1.0335
  928MOL0     H22479   4.644  10.728   7.962  1.3911 -0.2894  0.5667
  928MOL0     H22480   4.874  10.146   7.928  2.8575 -1.3906 -1.7497
  928MOL0     H22481   4.914  10.037   7.725  1.2036  1.0562  0.4567
  928MOL0     H22482   4.345   9.738   6.096 -0.2096 -0.7574 -1.8311
  928MOL0     H22483   4.123   9.808   6.079 -1.3063 -0.2661  1.2014
  928MOL0     H22484   3.727   9.845   6.305 -2.9179 -0.3460  3.1010
  928MOL0     H22485   3.482   9.874   6.326 -0.1310 -1.8343 -0.3742
  928MOL0     H22486   3.229   9.609   6.102 -4.0223 -1.2167  2.4205
  928MOL0     H22487   3.208   9.754   5.996  1.9779  1.9001  0.6400
  928MOL0     H22488   3.040   9.852   6.128  0.2605 -0.7969  0.3564
  928MOL0     H22489   2.975   9.697   6.111 -0.2045  0.3299 -0.9365
  928MOL0     H22490   2.982   9.796   6.346 -1.0575 -1.5227 -0.8051
  928MOL0     H22491   3.145   9.752   6.366 -1.8680 -0.4996  3.6334
  928MOL0     H22492   3.056   9.517   6.269 -1.4500 -1.3034 -0.1105
  928MOL0     H22493   3.075   9.562   6.439  0.0505  0.8561  0.0714
  928MOL0     H22494   2.660   9.541   6.363 -0.1907  0.6095 -1.3359
  928MOL0     H22495   3.418   9.668   5.969 -1.5530  1.6443  0.7933
  928MOL0     H22496   3.643   9.636   5.921 -1.1882  0.7044 -0.6643
  929MOL0     O22497   9.245   3.923  10.255 -0.5168 -0.6502 -0.0785
  929MOL0     C22498   9.277   4.024  10.194  0.0261 -0.9101 -0.3044
  929MOL0     O22499   9.312   4.032  10.070  0.1561  0.2762  0.1826
  929MOL0     C22500   9.310   3.921   9.989 -0.3982 -0.8395  0.3433
  929MOL0     C22501   9.235   3.923   9.869  0.3844  0.6037  0.1794
  929MOL0     C22502   9.241   3.807   9.794 -0.2307  0.3654  0.6357
  929MOL0     C22503   9.338   3.704   9.812  0.2276  1.0607  0.9722
  929MOL0     O22504   9.346   3.587   9.732 -0.1783  0.2163  0.1759
  929MOL0     C22505   9.283   3.592   9.604  1.3174 -0.0711 -0.2463
  929MOL0     C22506   9.284   3.449   9.531 -1.6903 -0.5402  0.4110
  929MOL0     C22507   9.423   3.421   9.463  0.1751  0.0516 -0.2746
  929MOL0     C22508   9.426   3.268   9.440 -0.5553  0.4496 -0.5032
  929MOL0     C22509   9.557   3.209   9.390 -0.6655  0.2748 -0.4022
  929MOL0     C22510   9.592   3.283   9.263  0.9087  0.4035  0.2042
  929MOL0     C22511   9.721   3.228   9.201 -1.2787 -0.4594 -0.0840
  929MOL0     C22512   9.747   3.298   9.068 -0.6941  0.0485  0.1325
  929MOL0     N22513   9.841   3.229   8.979  0.0570 -0.5300  0.7656
  929MOL0     C22514   9.973   3.205   9.005  0.4348 -0.4485  0.4148
  929MOL0     C22515  10.018   3.135   8.902  0.4609 -0.1455  0.4545
  929MOL0     C22516  10.140   3.058   8.898 -0.0126 -0.7374  0.3745
  929MOL0     C22517  10.121   2.914   8.854 -0.2677  0.5511 -0.6884
  929MOL0     C22518  10.066   2.809   8.949  0.4145  0.2859  0.4552
  929MOL0     C22519   9.928   2.836   9.017 -0.1457 -0.6598  0.4577
  929MOL0     O22520   9.888   2.719   9.108  0.0864 -0.1050 -0.1181
  929MOL0     C22521   9.779   2.732   9.182 -0.2184  0.7786 -0.1770
  929MOL0     C22522   9.668   2.811   9.147 -0.6833 -0.9549  0.0923
  929MOL0     C22523   9.573   2.836   9.241  0.7950 -0.7849  0.7852
  929MOL0     C22524   9.570   2.776   9.370  0.0624 -0.3096  0.1026
  929MOL0     C22525   9.457   2.804   9.460  0.0706  0.2296  0.0489
  929MOL0     O22526   9.458   2.759   9.592 -0.0785 -0.3537  0.4980
  929MOL0     C22527   9.368   2.779   9.689  0.4518 -0.9647 -0.6087
  929MOL0     C22528   9.419   2.800   9.818  0.8177 -0.0363 -0.1667
  929MOL0     C22529   9.333   2.832   9.917  0.3869 -0.1505 -0.4679
  929MOL0     C22530   9.201   2.842   9.904  0.3391 -0.1541  0.7184
  929MOL0     O22531   9.129   2.870  10.018 -0.1379 -0.0140 -0.2390
  929MOL0     C22532   8.986   2.846  10.019  1.4135  0.6564  0.4014
  929MOL0     C22533   8.919   2.973   9.976  0.5843  0.5349  0.9628
  929MOL0     C22534   8.777   2.993  10.042 -0.4084  0.6661 -0.2364
  929MOL0     C22535   8.674   2.895  10.011  0.9967  0.1186 -0.0773
  929MOL0     C22536   8.664   2.859   9.860  0.6191 -1.1269 -0.0010
  929MOL0     C22537   8.545   2.770   9.825  1.0972  0.8330 -0.3207
  929MOL0     C22538   8.539   2.632   9.885  0.2170 -0.3167  0.5662
  929MOL0     C22539   8.429   2.540   9.829  0.6748 -0.2801  0.3050
  929MOL0    Cl22540   8.437   2.386   9.906  0.0341  0.3735  0.6758
  929MOL0     C22541   9.144   2.823   9.772  0.5872  1.0621 -0.2308
  929MOL0     C22542   9.235   2.798   9.666  0.4999 -0.0153 -0.6997
  929MOL0     O22543   9.352   2.840   9.411  0.2538  0.7437 -0.2404
  929MOL0     C22544   9.681   2.701   9.398 -0.0141 -0.1965  0.6988
  929MOL0     C22545   9.779   2.673   9.306 -0.4834 -0.8670 -0.5130
  929MOL0     N22546   9.916   3.126   8.800 -0.1915 -0.2160  0.3544
  929MOL0     N22547   9.813   3.172   8.863 -0.8036 -0.0047  0.0376
  929MOL0     C22548   9.404   3.702   9.940  0.3739  0.0913  0.2124
  929MOL0     C22549   9.387   3.810  10.030  0.1011 -0.6217  0.4307
  929MOL0     C22550   9.254   4.149  10.271  0.0890 -0.5108 -0.8992
  929MOL0     C22551   9.302   4.275  10.218 -0.3307  0.2030 -0.1852
  929MOL0     C22552   9.296   4.399  10.293  0.0387  0.5203  0.1248
  929MOL0     C22553   9.236   4.392  10.417 -0.3155 -0.2218  1.0523
  929MOL0     O22554   9.223   4.519  10.477  1.0114  0.0424 -0.4544
  929MOL0     C22555   9.148   4.542  10.600  0.2641 -0.0648 -0.4968
  929MOL0     C22556   9.243   4.522  10.726  0.2380 -0.2822 -0.7664
  929MOL0     C22557   9.164   4.547  10.855  0.3719  0.4006 -0.5309
  929MOL0     C22558   9.032   4.456  10.859 -0.2890  0.3506  1.1794
  929MOL0     C22559   8.973   4.456  10.989  0.5930  0.3990 -0.0730
  929MOL0     C22560   8.928   4.434  11.099  0.2752  0.5974 -0.1090
  929MOL0     C22561   9.193   4.272  10.473 -0.3111 -0.5634 -0.9170
  929MOL0     C22562   9.212   4.158  10.403  0.5493  0.2206 -1.0259
  929MOL0     H22563   9.163   3.997   9.836 -2.3787 -1.6427  0.7498
  929MOL0     H22564   9.172   3.805   9.710  1.6661  1.5379 -1.0488
  929MOL0     H22565   9.323   3.669   9.538  2.2412 -0.5140 -0.2181
  929MOL0     H22566   9.180   3.620   9.626  1.5240  1.6096 -1.2277
  929MOL0     H22567   9.212   3.457   9.449 -0.9578 -0.7317 -0.2587
  929MOL0     H22568   9.261   3.365   9.598 -1.1270 -2.3863 -1.6153
  929MOL0     H22569   9.513   3.449   9.519  2.6028 -3.5423 -1.9711
  929MOL0     H22570   9.429   3.478   9.369  0.4263  0.3988 -0.0504
  929MOL0     H22571   9.404   3.224   9.537  3.0790  0.8499  0.6728
  929MOL0     H22572   9.356   3.251   9.358  2.5632  2.9585 -4.0327
  929MOL0     H22573   9.548   3.101   9.377 -2.7531  0.2257  0.9464
  929MOL0     H22574   9.632   3.224   9.468  0.2821 -2.8268 -0.5953
  929MOL0     H22575   9.601   3.391   9.276  0.4665  0.4004  0.5367
  929MOL0     H22576   9.513   3.278   9.188  1.9404 -1.3261 -0.8338
  929MOL0     H22577   9.792   3.249   9.281 -1.5519  2.0357 -0.4038
  929MOL0     H22578   9.720   3.120   9.184 -1.5153 -0.1613 -2.1483
  929MOL0     H22579   9.772   3.401   9.094 -1.3496 -0.1398  1.6495
  929MOL0     H22580   9.653   3.308   9.012  0.1105  2.1080 -0.9518
  929MOL0     H22581  10.026   3.231   9.096  3.2173 -0.7412 -1.0111
  929MOL0     H22582  10.183   3.042   8.998  2.7516 -0.6776 -0.6976
  929MOL0     H22583  10.215   3.108   8.835  0.0375  0.7989  1.5793
  929MOL0     H22584  10.217   2.866   8.830 -0.6568 -2.3870  2.7757
  929MOL0     H22585  10.069   2.924   8.758 -1.7957  2.7197  0.2979
  929MOL0     H22586  10.047   2.717   8.892 -0.4300 -0.4915  1.9101
  929MOL0     H22587  10.142   2.784   9.023 -0.7829 -3.2665  0.6719
  929MOL0     H22588   9.853   2.868   8.944 -0.2688  1.0020  1.2578
  929MOL0     H22589   9.945   2.930   9.071 -2.0825  0.2063 -0.3339
  929MOL0     H22590   9.666   2.862   9.051 -0.0505  0.4951  0.8220
  929MOL0     H22591   9.494   2.906   9.216  3.2853  1.3471 -1.9171
  929MOL0     H22592   9.520   2.769   9.842  0.5538 -1.8029 -1.0972
  929MOL0     H22593   9.367   2.869  10.013 -2.5231  2.0322 -0.1546
  929MOL0     H22594   8.958   2.840  10.125 -3.8199  1.5723 -0.6746
  929MOL0     H22595   8.956   2.753   9.970  1.2347  1.0025 -0.1524
  929MOL0     H22596   8.917   2.966   9.867 -0.2835 -2.4961  1.0836
  929MOL0     H22597   8.975   3.062  10.006  1.7227 -0.1721  0.9801
  929MOL0     H22598   8.745   3.094  10.014  0.4134  0.4824 -1.9361
  929MOL0     H22599   8.784   2.995  10.151  1.9675 -0.9306 -0.3104
  929MOL0     H22600   8.684   2.804  10.072 -1.3680 -0.7528 -0.8705
  929MOL0     H22601   8.575   2.931  10.040  1.3584  0.5400  0.6378
  929MOL0     H22602   8.761   2.811   9.843  1.0630 -0.5104  0.7645
  929MOL0     H22603   8.664   2.948   9.796  1.3464 -1.9120 -1.1315
  929MOL0     H22604   8.548   2.755   9.717 -1.1523 -4.2346  0.0275
  929MOL0     H22605   8.445   2.814   9.841 -0.1510 -2.2300  1.1874
  929MOL0     H22606   8.631   2.585   9.851 -0.3195  0.6039 -2.5460
  929MOL0     H22607   8.527   2.633   9.994  0.9596  1.2952  0.6696
  929MOL0     H22608   8.431   2.516   9.723  1.7332 -1.2646  0.5276
  929MOL0     H22609   8.329   2.583   9.843 -0.4331 -1.1083 -3.8670
  929MOL0     H22610   9.042   2.816   9.737  2.0360 -2.5923 -4.7354
  929MOL0     H22611   9.201   2.778   9.565  0.7660  0.7714 -0.9502
  929MOL0     H22612   9.700   2.674   9.501  2.7376  0.2334  0.3912
  929MOL0     H22613   9.867   2.613   9.328 -1.1525 -1.6883 -0.0171
  929MOL0     H22614   9.471   3.617   9.955  1.8369  1.0543 -0.6649
  929MOL0     H22615   9.444   3.811  10.121  1.4303  1.0227 -0.3686
  929MOL0     H22616   9.359   4.287  10.127 -3.4496  2.0801 -2.0721
  929MOL0     H22617   9.310   4.497  10.248  1.3530  1.8745  3.1549
  929MOL0     H22618   9.055   4.484  10.596  1.4997 -2.0647 -2.5027
  929MOL0     H22619   9.123   4.648  10.613  1.8555  0.3160 -0.4244
  929MOL0     H22620   9.283   4.421  10.730  1.9253  0.3910  1.5919
  929MOL0     H22621   9.330   4.588  10.722 -0.0318  0.0898 -0.5998
  929MOL0     H22622   9.149   4.655  10.864  0.5400  0.5483 -1.8006
  929MOL0     H22623   9.232   4.506  10.930  1.0254 -0.5414 -1.5977
  929MOL0     H22624   8.962   4.508  10.792  1.0343  1.6111  0.7306
  929MOL0     H22625   9.048   4.355  10.819  2.9087  0.5764  1.6510
  929MOL0     H22626   8.882   4.430  11.195  0.2800 -0.1053 -0.1261
  929MOL0     H22627   9.144   4.273  10.569 -0.3626 -3.6593 -0.8078
  929MOL0     H22628   9.187   4.064  10.452 -3.3659 -0.8575 -4.4841
  930MOL0     O22629   1.514   8.183  10.201  0.1535  0.5075 -0.7266
  930MOL0     C22630   1.494   8.303  10.171 -0.4880 -0.2470  0.9877
  930MOL0     O22631   1.538   8.379  10.063  0.2558  0.5292 -0.4517
  930MOL0     C22632   1.636   8.346   9.974 -0.8681  0.1881  0.3925
  930MOL0     C22633   1.647   8.425   9.856  0.0875 -0.5774 -0.9804
  930MOL0     C22634   1.751   8.397   9.769  0.1708  0.3076  1.0800
  930MOL0     C22635   1.833   8.287   9.787 -1.1808  0.7765  0.3322
  930MOL0     O22636   1.933   8.282   9.699 -0.5396 -1.2674 -0.1160
  930MOL0     C22637   2.041   8.184   9.710 -0.2234  0.2815  0.2197
  930MOL0     C22638   2.143   8.219   9.596  0.3631  0.3650 -0.4680
  930MOL0     C22639   2.272   8.129   9.591 -0.4637  0.2877  0.1942
  930MOL0     C22640   2.239   7.976   9.597  0.2318  0.8636 -1.6507
  930MOL0     C22641   2.352   7.893   9.539 -0.1193 -0.9422 -0.5216
  930MOL0     C22642   2.484   7.904   9.629  0.6225  0.1937  1.1634
  930MOL0     C22643   2.606   7.854   9.548 -0.1912  0.0477 -0.3797
  930MOL0     C22644   2.743   7.847   9.619 -0.2932  0.3654  0.1889
  930MOL0     N22645   2.797   7.989   9.619  0.0472  0.9153 -0.0933
  930MOL0     C22646   2.737   8.104   9.562 -0.7783  0.6532  0.1133
  930MOL0     C22647   2.826   8.201   9.585 -0.2437 -0.3418  0.0609
  930MOL0     C22648   2.799   8.345   9.547 -0.2735  0.3284  0.6244
  930MOL0     C22649   2.851   8.444   9.653  0.5679  0.5078 -0.2711
  930MOL0     C22650   2.794   8.435   9.799 -0.2963 -0.0421 -0.1692
  930MOL0     C22651   2.647   8.469   9.806  0.3003  0.2596 -0.0070
  930MOL0     O22652   2.611   8.457   9.945  0.1123 -0.4824  0.0548
  930MOL0     C22653   2.475   8.446   9.968 -0.7751 -0.0644  0.3071
  930MOL0     C22654   2.431   8.401  10.096  0.0597 -0.1252 -0.1591
  930MOL0     C22655   2.299   8.418  10.142  0.2816 -0.2282 -0.2378
  930MOL0     C22656   2.199   8.465  10.058  0.0255  0.3497 -1.1061
  930MOL0     C22657   2.058   8.495  10.104  0.3483  0.1885 -0.3957
  930MOL0     O22658   2.022   8.465  10.231 -0.6687 -0.0675  0.3822
  930MOL0     C22659   1.901   8.507  10.273 -0.2241 -0.1103  0.2880
  930MOL0     C22660   1.811   8.425  10.331 -0.4248  0.1290  0.1523
  930MOL0     C22661   1.695   8.478  10.389 -0.0310 -0.3847  0.0649
  930MOL0     C22662   1.677   8.617  10.404 -0.2177  0.3554 -0.1812
  930MOL0     O22663   1.567   8.642  10.485 -0.2076 -0.0309  0.6429
  930MOL0     C22664   1.540   8.781  10.510  0.2653 -0.7301 -0.9152
  930MOL0     C22665   1.432   8.770  10.618  0.3055  0.2674  0.6900
  930MOL0     C22666   1.359   8.901  10.655  0.3047 -0.2996  0.1983
  930MOL0     C22667   1.229   8.874  10.741 -0.0215 -0.2727 -0.0384
  930MOL0     C22668   1.125   8.995  10.748 -0.9591  0.1750 -0.8174
  930MOL0     C22669   0.994   8.964  10.832 -0.0495 -0.3338 -0.0120
  930MOL0     C22670   1.006   8.968  10.989 -0.4089 -0.9231  0.3823
  930MOL0     C22671   0.863   8.938  11.041  0.3018  0.2592  0.2567
  930MOL0    Cl22672   0.820   8.767  11.009 -0.1670  0.3215  0.0125
  930MOL0     C22673   1.768   8.705  10.345 -0.4410  0.8278  0.3885
  930MOL0     C22674   1.879   8.650  10.284 -0.1249  0.8624  0.2296
  930MOL0     O22675   1.992   8.564  10.027 -0.1570  0.9028  0.7499
  930MOL0     C22676   2.243   8.495   9.927  0.0001 -0.0948  1.3521
  930MOL0     C22677   2.372   8.496   9.882 -1.3227 -0.4859 -0.3204
  930MOL0     N22678   2.941   8.146   9.634 -0.0246 -0.2967  0.9772
  930MOL0     N22679   2.926   8.013   9.651  0.3964  0.3420  0.7167
  930MOL0     C22680   1.824   8.206   9.904  0.1194 -0.4066 -0.1991
  930MOL0     C22681   1.735   8.250  10.004 -0.0209  0.6013 -0.5807
  930MOL0     C22682   1.384   8.365  10.247 -0.3314  0.7546  0.4101
  930MOL0     C22683   1.361   8.502  10.244 -0.2164 -0.0523  0.5167
  930MOL0     C22684   1.261   8.558  10.306 -0.6009 -0.3514 -0.2515
  930MOL0     C22685   1.172   8.489  10.395 -0.3589  0.4528  0.5140
  930MOL0     O22686   1.084   8.561  10.472 -0.1194 -0.1363  0.1359
  930MOL0     C22687   0.960   8.511  10.500  0.9680 -0.0531 -0.2948
  930MOL0     C22688   0.867   8.556  10.389  1.2854 -0.4695  0.2621
  930MOL0     C22689   0.720   8.502  10.422  0.0050  0.6893 -0.8794
  930MOL0     C22690   0.621   8.519  10.311  0.1909  0.1087 -0.4496
  930MOL0     C22691   0.660   8.486  10.168 -0.3727 -0.0017 -0.2886
  930MOL0     C22692   0.693   8.457  10.054 -0.4144  0.0364  0.1858
  930MOL0     C22693   1.190   8.353  10.396  0.3911  1.5899 -0.3544
  930MOL0     C22694   1.293   8.287  10.322 -0.4356 -0.3192  0.3418
  930MOL0     H22695   1.578   8.507   9.840 -1.4113 -1.4199  0.7378
  930MOL0     H22696   1.783   8.458   9.685 -1.9369  0.0680  0.0278
  930MOL0     H22697   1.996   8.088   9.685  3.0024 -0.8474 -1.7950
  930MOL0     H22698   2.095   8.185   9.805  2.8031  0.8314 -1.3885
  930MOL0     H22699   2.185   8.320   9.603 -0.2443  0.6183 -0.4075
  930MOL0     H22700   2.097   8.218   9.497  0.9152  0.4238 -0.7340
  930MOL0     H22701   2.342   8.148   9.672 -2.1746 -0.0090  1.7918
  930MOL0     H22702   2.313   8.148   9.491 -2.1328 -0.8973 -0.7625
  930MOL0     H22703   2.233   7.944   9.702 -1.6724 -1.0616 -2.2775
  930MOL0     H22704   2.142   7.950   9.553 -1.2978  5.6936 -1.6659
  930MOL0     H22705   2.378   7.914   9.435 -0.1726 -4.4862 -1.4094
  930MOL0     H22706   2.325   7.787   9.528  2.9587 -1.8985 -0.1410
  930MOL0     H22707   2.477   7.834   9.712 -1.1221 -0.5986  0.4156
  930MOL0     H22708   2.507   7.999   9.678  1.1275 -0.9386  3.2225
  930MOL0     H22709   2.589   7.756   9.503 -0.3410  0.2354 -0.7334
  930MOL0     H22710   2.620   7.917   9.460 -2.4491  1.2247  0.0286
  930MOL0     H22711   2.814   7.784   9.565 -0.3930 -1.1447  1.7483
  930MOL0     H22712   2.724   7.809   9.720  1.2344  1.2792  0.8526
  930MOL0     H22713   2.632   8.113   9.538 -1.1036  0.0878  1.2486
  930MOL0     H22714   2.689   8.349   9.547 -0.2376  2.4992  0.0190
  930MOL0     H22715   2.845   8.374   9.452 -1.0503  3.0335  1.0029
  930MOL0     H22716   2.830   8.544   9.615  1.0331  1.0139  0.7492
  930MOL0     H22717   2.960   8.435   9.655  0.7407  2.3612  0.3791
  930MOL0     H22718   2.820   8.341   9.849 -2.3433 -0.9315 -0.6648
  930MOL0     H22719   2.848   8.518   9.847 -0.2817  1.0856 -2.0340
  930MOL0     H22720   2.603   8.391   9.742  3.3865 -0.0361 -1.9405
  930MOL0     H22721   2.613   8.563   9.762 -3.3375  0.3386  2.5465
  930MOL0     H22722   2.500   8.404  10.180 -0.6462  3.1713  0.4671
  930MOL0     H22723   2.274   8.390  10.244 -0.8041 -0.4804 -0.5595
  930MOL0     H22724   1.814   8.318  10.344 -0.2164  0.1513  0.2932
  930MOL0     H22725   1.630   8.403  10.434  1.4566 -1.8727 -0.1526
  930MOL0     H22726   1.510   8.844  10.425  0.0305  1.4252  0.6893
  930MOL0     H22727   1.629   8.832  10.548 -0.7728  2.4308 -2.3391
  930MOL0     H22728   1.468   8.713  10.705 -0.5422  0.7075  1.3533
  930MOL0     H22729   1.351   8.707  10.578  0.6969  0.3651 -0.2619
  930MOL0     H22730   1.315   8.944  10.564  0.2266  0.0458  0.4021
  930MOL0     H22731   1.430   8.960  10.713  2.3004 -0.4760 -1.8857
  930MOL0     H22732   1.183   8.786  10.696 -0.7598 -0.8687  1.8089
  930MOL0     H22733   1.248   8.851  10.846  1.7216  0.7535 -0.0833
  930MOL0     H22734   1.106   9.025  10.645 -1.4473  0.6118 -0.6057
  930MOL0     H22735   1.179   9.085  10.781  1.6158 -1.7472  0.6033
  930MOL0     H22736   0.960   8.865  10.801  0.3066 -1.2899  2.4607
  930MOL0     H22737   0.910   9.028  10.805 -1.6253 -1.6639  1.5571
  930MOL0     H22738   1.077   8.910  11.048  2.3730  0.8498 -0.9968
  930MOL0     H22739   1.028   9.070  11.022  0.2588 -0.0515 -2.4572
  930MOL0     H22740   0.792   9.004  10.989  2.4434  0.9030 -2.0321
  930MOL0     H22741   0.852   8.951  11.149 -1.9681 -2.2334  0.4294
  930MOL0     H22742   1.749   8.811  10.354 -0.4309  0.9604 -0.9589
  930MOL0     H22743   1.956   8.713  10.243  3.5879 -3.0601  0.4962
  930MOL0     H22744   2.159   8.535   9.871 -0.2341 -1.1855  0.8998
  930MOL0     H22745   2.391   8.545   9.787  0.8648  0.7661  0.6905
  930MOL0     H22746   1.896   8.128   9.930 -0.5301 -0.4763  1.5270
  930MOL0     H22747   1.727   8.176  10.083 -1.1336 -0.2581 -1.4685
  930MOL0     H22748   1.434   8.559  10.188  1.0909  1.1244  3.2577
  930MOL0     H22749   1.244   8.665  10.298 -0.4848 -0.3492 -0.4717
  930MOL0     H22750   0.923   8.542  10.598 -1.4732  0.5490 -1.3355
  930MOL0     H22751   0.957   8.401  10.500 -0.8691 -0.0570 -1.9942
  930MOL0     H22752   0.860   8.665  10.388 -2.0554 -0.5562  1.2408
  930MOL0     H22753   0.901   8.507  10.297  1.5826 -0.3703  0.3190
  930MOL0     H22754   0.678   8.557  10.506 -1.4957 -0.4961 -0.8096
  930MOL0     H22755   0.724   8.397  10.455 -2.1002  0.6183 -0.7157
  930MOL0     H22756   0.545   8.445  10.338  1.9627 -1.7060 -0.2464
  930MOL0     H22757   0.576   8.619  10.318  4.3604  2.1622  0.2293
  930MOL0     H22758   0.713   8.422   9.955 -0.6788 -2.4391  0.9157
  930MOL0     H22759   1.123   8.285  10.448  0.2263  4.0900  2.9933
  930MOL0     H22760   1.288   8.179  10.326 -3.5356 -0.3937 -1.9779
  931MOL0     O22761   3.900   2.266   2.683  0.9610 -0.1946 -0.2043
  931MOL0     C22762   3.992   2.344   2.709 -1.0818  0.0118 -0.3179
  931MOL0     O22763   4.069   2.354   2.825 -0.4152 -0.0843  0.0744
  931MOL0     C22764   4.020   2.276   2.926  0.9021 -0.5884 -0.0243
  931MOL0     C22765   4.071   2.157   2.963  0.0513  0.3227  0.7672
  931MOL0     C22766   4.025   2.095   3.073  0.9005 -0.1137 -0.1457
  931MOL0     C22767   3.913   2.146   3.147  0.0597  0.1627 -0.1873
  931MOL0     O22768   3.848   2.080   3.247  0.5606  0.0135 -0.6166
  931MOL0     C22769   3.856   1.937   3.271 -0.1470 -0.6226 -0.9718
  931MOL0     C22770   3.758   1.883   3.375  0.7260 -0.1705  0.1947
  931MOL0     C22771   3.783   1.930   3.519  0.3077 -0.5799 -0.2132
  931MOL0     C22772   3.923   1.897   3.584 -0.4437  0.0092 -1.6536
  931MOL0     C22773   3.932   1.972   3.719  1.0656 -0.5431 -0.1810
  931MOL0     C22774   4.038   1.936   3.825 -1.1068 -0.4374 -0.0524
  931MOL0     C22775   4.184   1.946   3.765 -0.2129  0.0146  0.0460
  931MOL0     C22776   4.286   1.892   3.849 -0.2264  0.0257 -0.3731
  931MOL0     N22777   4.410   1.898   3.771 -0.1113  0.2858 -0.1891
  931MOL0     C22778   4.505   1.795   3.744 -0.5414  1.0326  0.2399
  931MOL0     C22779   4.609   1.864   3.679 -0.0408  0.8767 -0.5223
  931MOL0     C22780   4.742   1.818   3.629  1.0994 -0.2151 -0.1936
  931MOL0     C22781   4.847   1.809   3.735  0.2127 -0.4398  0.5085
  931MOL0     C22782   4.989   1.790   3.681  0.1131 -0.8649 -0.5448
  931MOL0     C22783   5.081   1.739   3.795  0.3945 -0.4790  0.5814
  931MOL0     O22784   5.120   1.838   3.892 -0.3633 -0.1490 -0.1209
  931MOL0     C22785   5.050   1.850   4.005  1.1258 -0.5412 -0.3356
  931MOL0     C22786   4.974   1.970   4.014  0.1580 -0.7842  0.5038
  931MOL0     C22787   4.895   1.988   4.133  0.4027  1.1439  0.0831
  931MOL0     C22788   4.902   1.896   4.237  0.2713 -0.4070 -0.5127
  931MOL0     C22789   4.841   1.922   4.369 -0.5283  0.0578 -0.3093
  931MOL0     O22790   4.757   2.027   4.381  0.4790 -0.2787  0.1246
  931MOL0     C22791   4.706   2.068   4.501  0.6248 -0.3484 -0.3381
  931MOL0     C22792   4.595   2.150   4.504 -0.3010 -0.8980  0.1096
  931MOL0     C22793   4.553   2.207   4.624 -0.2355 -0.4198 -0.0587
  931MOL0     C22794   4.620   2.186   4.743 -0.0964 -0.7797 -0.3569
  931MOL0     O22795   4.566   2.234   4.854 -0.1530 -0.3865 -0.4259
  931MOL0     C22796   4.651   2.285   4.952  0.1159  0.9597 -0.6957
  931MOL0     C22797   4.568   2.339   5.077 -0.1968 -0.6295  0.5843
  931MOL0     C22798   4.455   2.423   5.033 -0.4704  0.0829 -0.6159
  931MOL0     C22799   4.389   2.472   5.162  0.0490  0.5689  0.1767
  931MOL0     C22800   4.277   2.579   5.137 -0.3085  0.0874 -0.0959
  931MOL0     C22801   4.143   2.506   5.113 -0.6162  0.8342  0.0674
  931MOL0     C22802   4.029   2.593   5.048 -0.1148 -0.2597 -1.2342
  931MOL0     C22803   3.900   2.512   4.991 -0.9436  1.0633  0.2102
  931MOL0    Cl22804   3.867   2.373   5.084  0.3838  0.4420 -0.6820
  931MOL0     C22805   4.727   2.096   4.741  0.2021  0.2342 -0.0483
  931MOL0     C22806   4.772   2.039   4.621  0.3665 -0.1170  0.0193
  931MOL0     O22807   4.874   1.842   4.459 -0.1378  0.2864 -0.1032
  931MOL0     C22808   4.974   1.772   4.216  0.6855 -0.7130 -0.6173
  931MOL0     C22809   5.046   1.759   4.100 -0.7077 -0.1069 -0.0031
  931MOL0     N22810   4.580   1.995   3.692  0.3699 -0.1067 -0.0487
  931MOL0     N22811   4.465   2.020   3.731 -0.3848  0.5157  0.1632
  931MOL0     C22812   3.855   2.263   3.103 -0.6731 -0.9182  0.1106
  931MOL0     C22813   3.911   2.330   2.995  0.0063 -0.3097 -0.3993
  931MOL0     C22814   4.044   2.437   2.593 -0.5438 -0.5028 -1.0006
  931MOL0     C22815   3.968   2.442   2.477  0.3344 -0.0091  0.3032
  931MOL0     C22816   4.003   2.530   2.379 -0.1054 -0.1111  0.3831
  931MOL0     C22817   4.113   2.625   2.384  1.3106  0.3820 -0.5428
  931MOL0     O22818   4.143   2.728   2.292 -0.2622  0.4626  0.5176
  931MOL0     C22819   4.102   2.707   2.158  0.0416 -0.0449 -1.1052
  931MOL0     C22820   3.980   2.791   2.110 -0.1939  0.5878 -0.3987
  931MOL0     C22821   4.029   2.931   2.076  0.6319  0.0912  0.0004
  931MOL0     C22822   3.906   3.019   2.063  1.1291 -1.3054 -0.4139
  931MOL0     C22823   3.854   3.014   1.929 -0.2912  0.3968 -0.3248
  931MOL0     C22824   3.810   3.006   1.817  0.7778  0.7398  0.7784
  931MOL0     C22825   4.176   2.622   2.499 -0.0736  0.5170 -0.1181
  931MOL0     C22826   4.154   2.526   2.604 -0.4211  0.3981 -0.0138
  931MOL0     H22827   4.151   2.111   2.904 -3.2368 -2.5231 -1.9029
  931MOL0     H22828   4.082   2.010   3.107  0.8583 -0.0635  0.0525
  931MOL0     H22829   3.952   1.899   3.309 -0.4192 -1.5768 -1.2043
  931MOL0     H22830   3.844   1.880   3.178  2.2023 -1.8604 -0.6138
  931MOL0     H22831   3.755   1.774   3.373 -0.8618 -0.1473  0.1081
  931MOL0     H22832   3.654   1.908   3.354 -0.1407 -1.3070  2.7874
  931MOL0     H22833   3.710   1.892   3.590 -1.1490  0.3209 -1.1671
  931MOL0     H22834   3.764   2.038   3.512  1.1850 -0.4233 -0.3443
  931MOL0     H22835   3.920   1.789   3.602  3.1812 -0.3020 -2.1710
  931MOL0     H22836   4.006   1.932   3.522 -0.9492  2.1205 -1.1914
  931MOL0     H22837   3.836   1.978   3.772  0.4668  2.1183 -1.4075
  931MOL0     H22838   3.950   2.075   3.685  0.2000 -0.6394 -0.9760
  931MOL0     H22839   4.027   1.835   3.863  3.1430 -1.0887  0.0134
  931MOL0     H22840   4.039   1.995   3.917  2.4872 -0.1304 -0.1378
  931MOL0     H22841   4.179   1.890   3.672 -4.0851 -0.2781  0.2554
  931MOL0     H22842   4.204   2.050   3.740 -1.3417  0.2430  0.0110
  931MOL0     H22843   4.265   1.793   3.890 -2.3475  0.1854 -0.9850
  931MOL0     H22844   4.284   1.967   3.929 -0.9965 -0.3029 -0.0802
  931MOL0     H22845   4.507   1.688   3.764  0.2144  1.1725  0.9868
  931MOL0     H22846   4.774   1.901   3.565  1.1682  0.1402  0.3000
  931MOL0     H22847   4.723   1.730   3.566  4.5094 -1.0164 -0.2738
  931MOL0     H22848   4.816   1.725   3.799  0.9922  0.1668  1.7002
  931MOL0     H22849   4.847   1.900   3.795  0.6201  0.9128 -1.4601
  931MOL0     H22850   5.004   1.729   3.592  2.8089 -1.5864  0.3074
  931MOL0     H22851   5.033   1.885   3.648 -3.6599  1.4292  0.3824
  931MOL0     H22852   5.181   1.709   3.759  2.0616  4.6998  0.1578
  931MOL0     H22853   5.028   1.651   3.832 -1.0417 -0.8422 -2.0825
  931MOL0     H22854   4.959   2.047   3.940 -0.9274 -1.3826  0.0844
  931MOL0     H22855   4.836   2.076   4.158 -0.2559  1.3985 -2.1590
  931MOL0     H22856   4.543   2.185   4.415 -1.5498  2.3020  1.9149
  931MOL0     H22857   4.457   2.255   4.616 -1.1263 -2.3016 -2.0639
  931MOL0     H22858   4.721   2.363   4.920  0.5766  0.4996 -0.8249
  931MOL0     H22859   4.708   2.199   4.990  0.9715  1.1967 -1.4125
  931MOL0     H22860   4.641   2.392   5.140 -0.5935  0.4272  0.1849
  931MOL0     H22861   4.532   2.252   5.132  2.1622 -0.1337  3.1325
  931MOL0     H22862   4.385   2.350   4.992 -2.9294 -0.6573  4.1828
  931MOL0     H22863   4.479   2.507   4.967  1.5263 -1.5005 -1.9958
  931MOL0     H22864   4.362   2.386   5.225  2.4454 -0.5596 -0.2499
  931MOL0     H22865   4.469   2.523   5.216  0.1622  0.4343  0.1355
  931MOL0     H22866   4.299   2.626   5.041 -0.1451 -2.2199 -1.2524
  931MOL0     H22867   4.277   2.650   5.221 -2.5815 -0.8297  0.7659
  931MOL0     H22868   4.095   2.467   5.203  0.8076  1.5420  1.1632
  931MOL0     H22869   4.163   2.428   5.038 -1.8404  0.5191  0.0463
  931MOL0     H22870   4.001   2.671   5.119 -2.5159 -1.0255 -1.2508
  931MOL0     H22871   4.074   2.641   4.960  0.8953  1.2321  0.0432
  931MOL0     H22872   3.919   2.477   4.889  1.9823  1.3526  0.5577
  931MOL0     H22873   3.810   2.573   4.998 -0.7254  1.2119  2.3087
  931MOL0     H22874   4.773   2.079   4.838  0.2214 -4.2678 -0.6430
  931MOL0     H22875   4.871   1.995   4.629  1.8233  2.4113 -2.1942
  931MOL0     H22876   4.963   1.696   4.293 -0.6179 -1.0379 -1.0978
  931MOL0     H22877   5.090   1.662   4.083 -1.9284 -0.6938  0.0633
  931MOL0     H22878   3.780   2.305   3.169  2.5763  1.1536  2.7850
  931MOL0     H22879   3.878   2.429   2.963  0.2770 -0.3992 -0.9645
  931MOL0     H22880   3.881   2.378   2.470 -1.3271  2.2836 -2.4273
  931MOL0     H22881   3.941   2.537   2.290  0.8972  2.6242 -0.2088
  931MOL0     H22882   4.074   2.603   2.143  0.4217 -1.1473  4.0002
  931MOL0     H22883   4.187   2.736   2.095 -0.8149 -0.4602 -2.5001
  931MOL0     H22884   3.941   2.738   2.023 -3.0367 -1.3138  1.8603
  931MOL0     H22885   3.901   2.792   2.186 -3.1125 -3.8715 -2.9658
  931MOL0     H22886   4.092   2.928   1.986 -5.0501 -0.9920 -4.5755
  931MOL0     H22887   4.077   2.957   2.171 -2.1437 -0.1611  1.5652
  931MOL0     H22888   3.820   3.001   2.128 -1.3983  1.1844 -2.7989
  931MOL0     H22889   3.938   3.120   2.093 -1.4697 -0.7430  0.7546
  931MOL0     H22890   3.765   3.008   1.720  1.7323  1.8859  0.3325
  931MOL0     H22891   4.252   2.699   2.507 -0.3254  0.6687  0.9831
  931MOL0     H22892   4.217   2.535   2.692  1.2248 -2.0805 -0.8381
  932MOL0     O22893   1.582  10.152   2.286  0.5909  0.0411  0.3307
  932MOL0     C22894   1.473  10.102   2.297 -0.6793  0.4371 -0.1363
  932MOL0     O22895   1.435   9.967   2.267  0.0708 -0.7469 -0.5434
  932MOL0     C22896   1.528   9.873   2.232  0.1724 -0.2616  0.0630
  932MOL0     C22897   1.636   9.838   2.302  0.0960  0.2532  1.5976
  932MOL0     C22898   1.725   9.750   2.251  1.0017  0.2484 -0.0818
  932MOL0     C22899   1.705   9.683   2.130  0.8185 -0.3348 -0.4316
  932MOL0     O22900   1.795   9.583   2.089  0.4250  0.1308  0.4701
  932MOL0     C22901   1.925   9.565   2.135 -0.8029 -0.2629 -0.2114
  932MOL0     C22902   2.013   9.536   2.007 -1.0785 -0.6929  0.7741
  932MOL0     C22903   2.164   9.549   2.031  1.2520 -0.2440 -0.3007
  932MOL0     C22904   2.215   9.413   2.077  0.0685  1.0350 -0.4990
  932MOL0     C22905   2.289   9.326   1.971  0.8304  0.2340  0.3175
  932MOL0     C22906   2.321   9.180   2.015 -0.2734  0.5030 -0.2282
  932MOL0     C22907   2.190   9.090   2.006  0.7161  0.3414 -0.5950
  932MOL0     C22908   2.196   8.960   2.096  0.5326 -0.2276 -0.0139
  932MOL0     N22909   2.300   8.864   2.051  0.6419 -0.0681  0.4411
  932MOL0     C22910   2.323   8.815   1.928 -0.5255 -0.1773  0.5412
  932MOL0     C22911   2.430   8.736   1.919  0.8248  0.5509 -0.3078
  932MOL0     C22912   2.469   8.655   1.798  0.9079  0.2542 -0.7129
  932MOL0     C22913   2.509   8.513   1.850 -0.8745  0.0838  0.2493
  932MOL0     C22914   2.536   8.409   1.742 -0.1533 -1.0883  0.3987
  932MOL0     C22915   2.433   8.417   1.630 -0.6965  0.9491  0.2918
  932MOL0     O22916   2.452   8.518   1.525  0.0662 -0.0304 -0.0012
  932MOL0     C22917   2.581   8.516   1.472 -0.9584 -0.1481  0.0501
  932MOL0     C22918   2.659   8.632   1.481  0.1439 -0.0373  0.1036
  932MOL0     C22919   2.791   8.628   1.453 -0.2959  0.1842  0.3598
  932MOL0     C22920   2.845   8.515   1.382 -0.1529 -0.7949 -0.4293
  932MOL0     C22921   2.992   8.520   1.366 -0.2295  0.3200 -0.4716
  932MOL0     O22922   3.055   8.632   1.421 -0.5883  0.8144 -0.2367
  932MOL0     C22923   3.190   8.644   1.419 -0.2907  0.5765 -0.1400
  932MOL0     C22924   3.268   8.672   1.529 -1.0850 -1.2518  0.0598
  932MOL0     C22925   3.408   8.694   1.526 -0.3372 -0.1141  0.5679
  932MOL0     C22926   3.478   8.695   1.405  0.0633 -0.1936  1.4529
  932MOL0     O22927   3.611   8.716   1.407 -0.2473  0.1564 -0.1990
  932MOL0     C22928   3.686   8.642   1.317  0.7042  0.7494 -0.7661
  932MOL0     C22929   3.835   8.654   1.363 -0.7987  0.0516  0.5442
  932MOL0     C22930   3.949   8.618   1.272  0.7551 -0.5856 -0.9812
  932MOL0     C22931   3.938   8.470   1.241 -0.0380 -0.1190  0.1348
  932MOL0     C22932   4.062   8.411   1.168  0.3176 -0.6585 -1.1096
  932MOL0     C22933   4.037   8.264   1.145 -0.5314 -0.7285  0.2073
  932MOL0     C22934   4.023   8.174   1.275 -0.4584 -1.3972  0.6043
  932MOL0     C22935   4.148   8.187   1.359 -0.6794  0.3867  0.1572
  932MOL0    Cl22936   4.298   8.172   1.259 -0.0013 -0.1478  0.3604
  932MOL0     C22937   3.407   8.647   1.299  0.6500 -0.0208 -0.2313
  932MOL0     C22938   3.263   8.623   1.297 -0.6871  0.1702 -0.7244
  932MOL0     O22939   3.054   8.419   1.325  0.6478  0.0420 -0.2555
  932MOL0     C22940   2.775   8.395   1.359 -0.1884 -0.8754 -0.0604
  932MOL0     C22941   2.641   8.397   1.410 -0.2758  1.0762 -1.0846
  932MOL0     N22942   2.476   8.734   2.051  0.4732  0.0087 -0.4809
  932MOL0     N22943   2.388   8.802   2.128 -0.8171  0.0277  0.0596
  932MOL0     C22944   1.594   9.720   2.049 -0.0571  0.5114 -0.0050
  932MOL0     C22945   1.512   9.821   2.103  0.7211 -0.7663 -0.6594
  932MOL0     C22946   1.383  10.180   2.390 -0.0201  0.4696  0.5013
  932MOL0     C22947   1.408  10.304   2.453  0.3577  0.0558 -0.5152
  932MOL0     C22948   1.309  10.371   2.520  0.9839  0.2776 -0.6191
  932MOL0     C22949   1.182  10.318   2.535  1.4236 -0.6111 -0.1527
  932MOL0     O22950   1.090  10.392   2.605 -0.2678  0.2502  0.2470
  932MOL0     C22951   0.947  10.370   2.605  0.8183  0.1914  0.0344
  932MOL0     C22952   0.906  10.476   2.709 -0.2168  0.3859 -0.2460
  932MOL0     C22953   0.761  10.513   2.704 -0.0391 -0.0510 -0.1463
  932MOL0     C22954   0.698  10.558   2.837  0.6691  0.4063 -0.9188
  932MOL0     C22955   0.587  10.652   2.823  0.4763  0.0464 -0.0936
  932MOL0     C22956   0.504  10.733   2.787  0.5468 -0.1086 -0.4691
  932MOL0     C22957   1.152  10.208   2.462  0.4351 -0.2060  2.0410
  932MOL0     C22958   1.247  10.140   2.381 -0.7920 -0.1459 -0.0615
  932MOL0     H22959   1.642   9.866   2.407  1.6008 -0.9855  1.8837
  932MOL0     H22960   1.811   9.719   2.310  3.9395  0.3009 -3.9362
  932MOL0     H22961   1.927   9.476   2.198  2.5989 -0.2907 -0.1871
  932MOL0     H22962   1.971   9.650   2.187 -3.6819  2.9126 -2.4070
  932MOL0     H22963   1.981   9.610   1.933 -4.2807 -3.4216 -0.8367
  932MOL0     H22964   1.995   9.444   1.951 -6.0439  1.8591 -2.5278
  932MOL0     H22965   2.169   9.623   2.111  0.0446  0.2317 -0.6385
  932MOL0     H22966   2.219   9.591   1.946  1.0545  0.8022  0.0733
  932MOL0     H22967   2.291   9.426   2.154  0.8219 -1.2529 -0.7930
  932MOL0     H22968   2.129   9.363   2.123 -1.0575  3.2038 -0.0925
  932MOL0     H22969   2.385   9.375   1.952  1.6176 -0.5401  2.1022
  932MOL0     H22970   2.226   9.322   1.881 -0.7371  1.9153  1.2543
  932MOL0     H22971   2.353   9.192   2.119  0.3428  0.2967 -0.3888
  932MOL0     H22972   2.404   9.139   1.957  0.1552  1.6322 -0.4433
  932MOL0     H22973   2.105   9.147   2.045  0.3114 -0.3109 -0.5128
  932MOL0     H22974   2.157   9.073   1.903 -1.2246 -2.1827  0.3382
  932MOL0     H22975   2.106   8.898   2.098 -1.1118  2.0513  0.8973
  932MOL0     H22976   2.210   9.003   2.196 -0.2115  0.6917 -0.2923
  932MOL0     H22977   2.254   8.831   1.846  0.4431 -0.3944 -0.3435
  932MOL0     H22978   2.549   8.712   1.750 -0.1978  0.7764 -2.0013
  932MOL0     H22979   2.383   8.642   1.732 -0.3521 -1.1529  1.0939
  932MOL0     H22980   2.432   8.487   1.924 -0.9881 -2.6999 -0.7403
  932MOL0     H22981   2.606   8.522   1.901 -1.1896  2.5404  0.5746
  932MOL0     H22982   2.636   8.432   1.705 -0.8868  2.5628  0.3075
  932MOL0     H22983   2.537   8.312   1.794 -3.5638 -0.4493  1.9664
  932MOL0     H22984   2.340   8.428   1.688  0.6932  0.9925  2.6443
  932MOL0     H22985   2.417   8.323   1.577 -2.0066  1.6453 -0.6301
  932MOL0     H22986   2.620   8.715   1.540  0.8258  0.9284 -0.7780
  932MOL0     H22987   2.854   8.712   1.481  1.9610 -0.5709 -2.0118
  932MOL0     H22988   3.223   8.683   1.627 -0.6452  0.3253  0.1184
  932MOL0     H22989   3.463   8.731   1.613  1.2562  0.4000 -0.6195
  932MOL0     H22990   3.685   8.687   1.218 -1.0380  0.0240 -1.0958
  932MOL0     H22991   3.658   8.537   1.314  1.3753  0.5731 -1.0674
  932MOL0     H22992   3.852   8.578   1.439 -1.5696  0.6503  1.3395
  932MOL0     H22993   3.845   8.750   1.415 -0.9995  0.0588  0.5697
  932MOL0     H22994   4.044   8.645   1.318  0.7890  0.5396 -1.6797
  932MOL0     H22995   3.925   8.657   1.173 -3.1927 -3.3756 -1.3950
  932MOL0     H22996   3.935   8.420   1.338  4.0858 -1.1059 -0.0804
  932MOL0     H22997   3.851   8.459   1.176  2.4763  1.9839 -4.0149
  932MOL0     H22998   4.151   8.427   1.229 -0.3325  5.1266 -1.1297
  932MOL0     H22999   4.086   8.478   1.084  0.5462  2.5656  1.3488
  932MOL0     H23000   4.128   8.239   1.089  1.5151  3.6512  1.1205
  932MOL0     H23001   3.953   8.246   1.077  0.6335  0.1624 -1.5623
  932MOL0     H23002   3.937   8.210   1.332  1.1243  0.5797  1.8864
  932MOL0     H23003   3.997   8.067   1.272 -0.5953 -1.4241  2.0683
  932MOL0     H23004   4.146   8.116   1.442  2.3066 -0.3102 -0.2329
  932MOL0     H23005   4.158   8.288   1.399  0.4308 -0.1510  1.2712
  932MOL0     H23006   3.463   8.645   1.206  1.2193  1.4440  0.0608
  932MOL0     H23007   3.205   8.599   1.209  0.4862  0.0908 -1.4944
  932MOL0     H23008   2.810   8.315   1.294  3.6225  2.8307 -3.0937
  932MOL0     H23009   2.577   8.312   1.387  2.8978 -1.0884 -2.6851
  932MOL0     H23010   1.586   9.681   1.949 -0.9209  0.5082  0.0503
  932MOL0     H23011   1.441   9.877   2.043 -0.2199  1.1518  2.0311
  932MOL0     H23012   1.503  10.348   2.421  0.4546 -0.6097 -1.1802
  932MOL0     H23013   1.324  10.467   2.568 -0.9524 -0.3407  1.3681
  932MOL0     H23014   0.913  10.269   2.628  1.7136 -0.1199  0.0391
  932MOL0     H23015   0.915  10.406   2.507 -3.2810 -0.4235  0.9668
  932MOL0     H23016   0.935  10.451   2.811  1.4821 -0.5050 -0.9166
  932MOL0     H23017   0.967  10.566   2.694  0.2806  0.4147  1.6267
  932MOL0     H23018   0.707  10.427   2.663 -0.8100 -0.8898  2.4455
  932MOL0     H23019   0.759  10.596   2.633  1.2524 -0.7880 -1.0788
  932MOL0     H23020   0.658  10.481   2.904  0.5068  2.3237  1.3221
  932MOL0     H23021   0.765  10.608   2.907 -0.1812 -1.9071  1.7615
  932MOL0     H23022   0.452  10.811   2.737  1.5603  0.8283 -0.1008
  932MOL0     H23023   1.050  10.171   2.461  0.7459 -1.1640 -0.2989
  932MOL0     H23024   1.227  10.054   2.317  2.2158  0.5396 -2.1176
  933MOL0     O23025  11.190   3.188   3.406 -0.8227  0.0990 -0.1412
  933MOL0     C23026  11.307   3.213   3.404 -0.6944 -0.0185  0.4386
  933MOL0     O23027  11.396   3.204   3.503 -0.0831 -0.1545 -0.2440
  933MOL0     C23028  11.366   3.175   3.624  0.6192 -0.8384 -0.9463
  933MOL0     C23029  11.261   3.247   3.696 -0.4673 -0.1299 -0.1952
  933MOL0     C23030  11.226   3.222   3.824  0.6722  0.4201  0.1365
  933MOL0     C23031  11.281   3.109   3.883 -0.2329 -0.6132 -0.8363
  933MOL0     O23032  11.255   3.079   4.017 -0.0722  0.5967  0.2736
  933MOL0     C23033  11.129   3.126   4.077  0.1367 -1.1487  0.7679
  933MOL0     C23034  11.066   3.036   4.181 -0.2466 -0.4470 -0.3818
  933MOL0     C23035  10.961   3.114   4.261  0.2142 -0.1258  0.7247
  933MOL0     C23036  10.842   3.176   4.177 -0.1456 -0.4402 -0.5362
  933MOL0     C23037  10.730   3.236   4.262 -0.7877  1.0942 -0.8211
  933MOL0     C23038  10.644   3.341   4.195 -0.8095  0.5398 -0.1193
  933MOL0     C23039  10.599   3.317   4.053 -0.4728 -0.7856 -0.2276
  933MOL0     C23040  10.464   3.382   3.996 -0.0781  0.2602 -0.4497
  933MOL0     N23041  10.477   3.526   3.951  0.2804 -0.0939 -0.0656
  933MOL0     C23042  10.576   3.581   3.883  0.4524  0.3976  0.6720
  933MOL0     C23043  10.546   3.716   3.853 -0.3342 -0.1642 -0.5492
  933MOL0     C23044  10.627   3.817   3.779  0.4012 -0.7962 -0.0986
  933MOL0     C23045  10.728   3.877   3.869 -0.6749 -0.0457  0.6665
  933MOL0     C23046  10.680   3.980   3.968 -0.2899  0.8284 -0.3659
  933MOL0     C23047  10.783   4.011   4.085  0.2951  0.2898  0.5248
  933MOL0     O23048  10.917   3.973   4.044 -0.1177 -0.1800  0.0446
  933MOL0     C23049  11.014   3.977   4.138 -0.2389 -0.0787 -1.0035
  933MOL0     C23050  11.006   4.029   4.270  0.1260 -0.2903 -0.4521
  933MOL0     C23051  11.108   4.024   4.358  1.1865  0.9642  0.3894
  933MOL0     C23052  11.223   3.969   4.325 -0.4219 -0.1512  0.3612
  933MOL0     C23053  11.334   3.968   4.430  0.7727  0.4723 -0.1313
  933MOL0     O23054  11.301   4.040   4.537 -1.0284 -0.0686  0.1333
  933MOL0     C23055  11.386   4.040   4.648  0.7360 -1.3150  0.0275
  933MOL0     C23056  11.425   3.924   4.721 -0.9584  0.0732  0.8749
  933MOL0     C23057  11.529   3.922   4.811  1.0052 -0.0865 -0.1436
  933MOL0     C23058  11.573   4.041   4.859 -0.2643  0.1640 -0.2068
  933MOL0     O23059  11.679   4.050   4.943  0.2165 -0.4301 -0.1570
  933MOL0     C23060  11.658   3.986   5.066 -0.7042 -0.6936  0.0096
  933MOL0     C23061  11.769   4.038   5.160 -0.2933  0.5297  0.0214
  933MOL0     C23062  11.751   3.958   5.291  0.2484 -0.2651 -0.1024
  933MOL0     C23063  11.820   4.020   5.410 -0.0052 -0.3353  0.7810
  933MOL0     C23064  11.973   3.980   5.409  0.4689  0.0621  0.4945
  933MOL0     C23065  11.998   3.829   5.403  0.4205  0.6372 -0.3938
  933MOL0     C23066  12.151   3.814   5.409  0.0950  0.5622 -0.0978
  933MOL0     C23067  12.218   3.756   5.279  0.8810  0.3641  0.2815
  933MOL0    Cl23068  12.163   3.865   5.146 -0.3674  0.0636  0.1324
  933MOL0     C23069  11.532   4.162   4.798  0.3431 -0.4864  0.9740
  933MOL0     C23070  11.445   4.161   4.687 -0.4352  0.8264  1.1591
  933MOL0     O23071  11.434   3.899   4.413  0.8797  0.1719 -0.9155
  933MOL0     C23072  11.244   3.909   4.197  0.2672 -0.4026  0.5133
  933MOL0     C23073  11.145   3.934   4.106 -0.9436 -0.5549  0.3624
  933MOL0     N23074  10.420   3.736   3.912 -0.5648  0.2556  0.3573
  933MOL0     N23075  10.385   3.619   3.971  0.3700  0.0589 -0.3245
  933MOL0     C23076  11.380   3.032   3.822 -0.0839  0.0038  0.1012
  933MOL0     C23077  11.418   3.068   3.691  0.0971  0.2668 -0.7490
  933MOL0     C23078  11.351   3.267   3.274 -0.3524  0.2006 -0.8491
  933MOL0     C23079  11.262   3.250   3.161  1.6921  0.0527 -0.1262
  933MOL0     C23080  11.290   3.309   3.035 -0.7192 -0.5154 -0.5298
  933MOL0     C23081  11.403   3.373   3.021  0.9054  0.0887  0.5388
  933MOL0     O23082  11.423   3.409   2.889 -0.3362  0.0839 -0.1687
  933MOL0     C23083  11.524   3.502   2.847 -0.8425 -0.1051  0.8059
  933MOL0     C23084  11.662   3.432   2.849 -0.3656  0.9624  0.2045
  933MOL0     C23085  11.685   3.314   2.749 -0.7287  0.0979 -0.8819
  933MOL0     C23086  11.689   3.343   2.601  0.1849  0.0846 -0.5391
  933MOL0     C23087  11.806   3.407   2.560  0.4342  0.0462 -0.5611
  933MOL0     C23088  11.893   3.475   2.514 -0.5280  0.2334 -0.0772
  933MOL0     C23089  11.495   3.395   3.130 -0.4948  0.3643 -0.7242
  933MOL0     C23090  11.464   3.346   3.254 -0.3800  0.7343 -0.4254
  933MOL0     H23091  11.213   3.331   3.647 -0.9920 -0.2087  0.1706
  933MOL0     H23092  11.149   3.285   3.867 -3.5834 -1.2414 -4.1355
  933MOL0     H23093  11.046   3.142   4.008  0.6101  2.6837  0.8394
  933MOL0     H23094  11.151   3.227   4.113 -0.6618  0.1471 -2.0901
  933MOL0     H23095  11.139   3.009   4.258  0.3065  1.1809 -0.2975
  933MOL0     H23096  11.025   2.950   4.127  0.4373 -0.3591 -1.0647
  933MOL0     H23097  11.007   3.186   4.329  0.0048  0.4343  0.2763
  933MOL0     H23098  10.931   3.039   4.336 -0.2458 -1.4296 -0.7169
  933MOL0     H23099  10.878   3.253   4.108  0.0289  0.1049  0.1532
  933MOL0     H23100  10.803   3.095   4.115 -0.1865 -0.8992  0.0745
  933MOL0     H23101  10.767   3.288   4.350  3.4217 -3.6007  0.6334
  933MOL0     H23102  10.666   3.153   4.292 -0.2297  0.0310 -2.4210
  933MOL0     H23103  10.706   3.431   4.190 -0.1683  0.1082 -0.0377
  933MOL0     H23104  10.557   3.357   4.259 -1.0116 -4.3281  1.2133
  933MOL0     H23105  10.680   3.331   3.981 -0.1017 -1.0240  0.1449
  933MOL0     H23106  10.589   3.208   4.054  1.5304 -1.1582 -3.8454
  933MOL0     H23107  10.377   3.373   4.061  1.7626 -2.5658  1.8668
  933MOL0     H23108  10.439   3.318   3.910 -0.3617 -0.9469  0.5012
  933MOL0     H23109  10.665   3.531   3.848  0.3726  0.1779  0.7769
  933MOL0     H23110  10.559   3.890   3.733  1.3074  2.5322  3.3445
  933MOL0     H23111  10.687   3.765   3.703  2.5454  3.0551 -1.2682
  933MOL0     H23112  10.807   3.918   3.805 -3.3334  3.4883 -0.6763
  933MOL0     H23113  10.766   3.793   3.928 -0.0493  0.5239  1.0864
  933MOL0     H23114  10.650   4.078   3.929 -0.2041  0.8811 -0.2993
  933MOL0     H23115  10.593   3.928   4.008  1.6844 -1.9716  0.6043
  933MOL0     H23116  10.756   3.961   4.178 -0.1910 -1.9498 -0.7336
  933MOL0     H23117  10.779   4.119   4.101  0.5946  0.4991 -0.7187
  933MOL0     H23118  10.917   4.060   4.324 -0.0102 -0.8848 -0.3229
  933MOL0     H23119  11.088   4.068   4.456  2.3420 -2.1671  2.2018
  933MOL0     H23120  11.392   3.836   4.666  4.4878 -1.2514 -0.9280
  933MOL0     H23121  11.551   3.822   4.846 -2.1280 -0.8668 -0.0395
  933MOL0     H23122  11.671   3.879   5.050  2.3789 -0.2772 -0.7953
  933MOL0     H23123  11.564   4.012   5.116  0.1005  5.7044 -0.9734
  933MOL0     H23124  11.752   4.145   5.176 -1.2684  0.0029  3.1115
  933MOL0     H23125  11.867   4.029   5.113 -1.0847 -0.1338 -1.5911
  933MOL0     H23126  11.766   3.849   5.289 -1.4474 -0.6823  2.8316
  933MOL0     H23127  11.642   3.966   5.305  0.1621  0.6557 -1.2224
  933MOL0     H23128  11.799   4.126   5.428  1.9809 -0.3092  3.5775
  933MOL0     H23129  11.789   3.975   5.504 -0.4508 -1.2331  0.2151
  933MOL0     H23130  12.024   4.026   5.494 -1.3100 -0.8124  2.0942
  933MOL0     H23131  12.010   4.027   5.317 -0.2639  0.4588  0.3908
  933MOL0     H23132  11.953   3.770   5.323 -2.7500  2.8614 -0.4103
  933MOL0     H23133  11.951   3.784   5.491  2.1557  0.7300  0.6372
  933MOL0     H23134  12.207   3.902   5.442  0.0986  1.0480 -1.3404
  933MOL0     H23135  12.176   3.741   5.487  4.7727 -0.0364 -1.8659
  933MOL0     H23136  12.169   3.663   5.250  0.9079  0.6603 -0.7613
  933MOL0     H23137  12.324   3.734   5.289  1.0757  1.3311  0.4790
  933MOL0     H23138  11.584   4.251   4.833  2.2161 -0.7622 -0.8829
  933MOL0     H23139  11.412   4.246   4.628  0.4523  0.7611  0.5445
  933MOL0     H23140  11.338   3.866   4.165 -0.6717 -0.4121 -2.5494
  933MOL0     H23141  11.144   3.887   4.008  3.2124  1.0878 -0.6879
  933MOL0     H23142  11.424   2.954   3.882  1.1574  0.5586 -0.0478
  933MOL0     H23143  11.499   3.016   3.641 -0.3466 -1.7239  0.4903
  933MOL0     H23144  11.169   3.193   3.166  1.9525 -0.8311 -3.3031
  933MOL0     H23145  11.216   3.314   2.956 -0.2968 -0.2592 -0.9080
  933MOL0     H23146  11.528   3.600   2.897 -0.2549  1.4371 -2.0322
  933MOL0     H23147  11.490   3.526   2.745 -0.1085 -1.5933  0.1831
  933MOL0     H23148  11.729   3.512   2.818  1.6676 -1.4087 -2.0293
  933MOL0     H23149  11.690   3.399   2.950 -3.3820  2.8667  1.8354
  933MOL0     H23150  11.615   3.235   2.777 -0.2184  0.5343  1.8848
  933MOL0     H23151  11.783   3.267   2.763 -0.2726  0.4044 -2.7944
  933MOL0     H23152  11.691   3.242   2.557  0.6650 -1.5957  2.9836
  933MOL0     H23153  11.598   3.394   2.568  0.5719  0.3855 -1.1632
  933MOL0     H23154  11.973   3.532   2.471 -0.4088 -0.6063 -0.9907
  933MOL0     H23155  11.582   3.456   3.107 -1.1726  2.4647  1.8178
  933MOL0     H23156  11.532   3.352   3.338  0.0464  1.6782 -0.8244
  934MOL0     O23157   3.134  10.210   9.447  0.0861 -0.6587  0.0055
  934MOL0     C23158   3.235  10.281   9.431  0.3019  0.5244  1.0292
  934MOL0     O23159   3.327  10.271   9.322 -0.9765  0.6176 -0.4524
  934MOL0     C23160   3.322  10.171   9.234 -1.0832  0.1778  0.6645
  934MOL0     C23161   3.306  10.207   9.101  1.1272  0.4433 -0.6506
  934MOL0     C23162   3.303  10.115   8.991 -0.1218 -0.2853 -0.9478
  934MOL0     C23163   3.323   9.978   9.027 -0.8578 -0.0980 -0.4645
  934MOL0     O23164   3.333   9.894   8.917  0.7525  0.3312  1.1199
  934MOL0     C23165   3.438   9.805   8.893 -0.3080 -0.3591 -0.6254
  934MOL0     C23166   3.436   9.768   8.741 -0.3541 -0.4043 -0.0841
  934MOL0     C23167   3.547   9.662   8.719  1.0123  1.2783 -0.1811
  934MOL0     C23168   3.580   9.634   8.577 -1.3590 -0.6381  0.5986
  934MOL0     C23169   3.688   9.519   8.558 -0.0500 -0.0909 -0.2422
  934MOL0     C23170   3.700   9.480   8.413  0.5964 -0.2337 -0.0085
  934MOL0     C23171   3.744   9.595   8.316  1.0667 -0.2949  0.4280
  934MOL0     C23172   3.885   9.650   8.357  0.5631 -0.2587  0.6256
  934MOL0     N23173   3.987   9.559   8.302 -0.3010 -0.2128  0.0536
  934MOL0     C23174   4.057   9.580   8.189 -0.3343 -0.2850 -0.6866
  934MOL0     C23175   4.132   9.470   8.175  0.1119  0.0932 -0.3969
  934MOL0     C23176   4.234   9.435   8.071  0.7007  0.0301 -0.3514
  934MOL0     C23177   4.349   9.535   8.058 -0.6045  0.2748  0.5620
  934MOL0     C23178   4.481   9.460   8.065  0.2386  0.5748 -0.2446
  934MOL0     C23179   4.609   9.548   8.063  0.3700 -0.2550  0.1139
  934MOL0     O23180   4.634   9.601   7.934  0.5431  0.2910 -0.1906
  934MOL0     C23181   4.723   9.532   7.860  1.6696 -0.0624  0.7939
  934MOL0     C23182   4.761   9.597   7.739  0.0125  0.7931 -0.2416
  934MOL0     C23183   4.854   9.533   7.657 -0.1197 -0.1465 -0.3207
  934MOL0     C23184   4.905   9.403   7.691  1.5143  0.2059  0.3950
  934MOL0     C23185   5.008   9.330   7.617 -0.8167  0.6264  0.6840
  934MOL0     O23186   5.055   9.385   7.497  0.2584  1.3021 -0.2895
  934MOL0     C23187   5.180   9.343   7.455 -0.3585  0.0895  0.3411
  934MOL0     C23188   5.299   9.367   7.525 -0.7649 -0.4171 -1.0006
  934MOL0     C23189   5.427   9.334   7.472  0.1686 -0.8571  1.3812
  934MOL0     C23190   5.434   9.258   7.354 -1.1691 -0.2771  0.0483
  934MOL0     O23191   5.564   9.234   7.305  0.0214 -0.4896  0.4577
  934MOL0     C23192   5.568   9.212   7.162 -1.3863  0.2262 -0.0049
  934MOL0     C23193   5.713   9.229   7.114  0.8591 -0.0147 -0.1941
  934MOL0     C23194   5.731   9.175   6.966  1.2506 -0.3814  0.7488
  934MOL0     C23195   5.872   9.210   6.911 -0.4550  0.3231  0.7437
  934MOL0     C23196   5.868   9.362   6.874  0.0056  0.7274 -0.4658
  934MOL0     C23197   5.986   9.414   6.804  0.1562 -0.4375  0.7085
  934MOL0     C23198   5.954   9.556   6.751  0.5634  0.6986  1.4882
  934MOL0     C23199   6.083   9.648   6.727 -0.1549  0.7115  0.2284
  934MOL0    Cl23200   6.110   9.746   6.873  0.1019  0.2770  0.0884
  934MOL0     C23201   5.317   9.237   7.278 -0.4431 -0.2982  0.6729
  934MOL0     C23202   5.190   9.282   7.327  0.1592  0.7997  0.2898
  934MOL0     O23203   5.057   9.227   7.666 -0.3760 -1.2000 -0.4332
  934MOL0     C23204   4.841   9.336   7.799  0.6300  0.5052 -0.3756
  934MOL0     C23205   4.756   9.400   7.882  0.0890 -0.6482 -0.7071
  934MOL0     N23206   4.108   9.381   8.279 -0.0932 -0.9496 -0.0892
  934MOL0     N23207   4.025   9.443   8.360 -0.7262  0.1211 -0.8126
  934MOL0     C23208   3.358   9.944   9.159 -0.4646 -0.0726 -0.2985
  934MOL0     C23209   3.352  10.031   9.259 -0.0414 -0.0350 -0.1155
  934MOL0     C23210   3.262  10.388   9.530 -0.2142  0.9386  0.6004
  934MOL0     C23211   3.345  10.499   9.500 -0.0375  0.0501 -0.2100
  934MOL0     C23212   3.355  10.614   9.588 -0.5603 -0.3352 -0.2274
  934MOL0     C23213   3.296  10.605   9.716  0.4264 -0.1944 -0.1647
  934MOL0     O23214   3.313  10.701   9.811  0.5154 -0.2657  0.4323
  934MOL0     C23215   3.426  10.789   9.804 -0.0459  0.0116  0.4033
  934MOL0     C23216   3.394  10.920   9.726 -0.1650  0.6906 -0.8751
  934MOL0     C23217   3.498  11.031   9.764 -0.0741  0.4760  0.1937
  934MOL0     C23218   3.463  11.112   9.895  0.2748  0.4920  0.6051
  934MOL0     C23219   3.546  11.226   9.900 -0.7831 -0.0788 -0.4612
  934MOL0     C23220   3.619  11.332   9.890  0.2478 -0.9541 -0.2065
  934MOL0     C23221   3.227  10.498   9.746 -0.4126 -0.0292 -0.5478
  934MOL0     C23222   3.204  10.396   9.652 -0.5393 -0.1531  0.3163
  934MOL0     H23223   3.293  10.314   9.084  1.0114  0.5010 -0.2262
  934MOL0     H23224   3.311  10.142   8.886  0.5151 -0.4180 -0.9358
  934MOL0     H23225   3.427   9.723   8.965 -1.9281  0.7693  0.4719
  934MOL0     H23226   3.529   9.858   8.923 -1.7809  1.3327  1.1178
  934MOL0     H23227   3.462   9.855   8.681 -3.9937  1.2812  0.5181
  934MOL0     H23228   3.339   9.727   8.710 -0.6901  0.1881  0.1734
  934MOL0     H23229   3.521   9.574   8.779  1.8106 -0.6353 -2.4949
  934MOL0     H23230   3.646   9.686   8.760  3.1816 -3.3835 -1.9391
  934MOL0     H23231   3.479   9.614   8.538 -1.5822  2.9892 -1.0527
  934MOL0     H23232   3.620   9.723   8.528 -0.8067 -2.3800 -2.3487
  934MOL0     H23233   3.660   9.433   8.621  3.8686 -1.8204 -0.5141
  934MOL0     H23234   3.780   9.557   8.603  1.4013 -2.4995 -0.9956
  934MOL0     H23235   3.601   9.454   8.374  1.0012  1.1138 -2.0173
  934MOL0     H23236   3.770   9.397   8.398  1.2935  0.4471 -0.6194
  934MOL0     H23237   3.750   9.557   8.214  1.1249 -0.9136  0.6556
  934MOL0     H23238   3.665   9.670   8.308 -1.0991 -2.5495 -0.7064
  934MOL0     H23239   3.902   9.665   8.464 -0.5664 -0.9096  0.9192
  934MOL0     H23240   3.900   9.742   8.300  1.0558 -1.9601 -2.1777
  934MOL0     H23241   4.059   9.674   8.133 -0.0164  0.6297  0.7963
  934MOL0     H23242   4.187   9.421   7.974  0.8760  1.2282 -0.6232
  934MOL0     H23243   4.269   9.333   8.090 -0.8459 -0.6221 -0.8498
  934MOL0     H23244   4.341   9.611   8.137  0.1411  0.6153  0.3292
  934MOL0     H23245   4.348   9.595   7.966  2.1911 -0.1787  0.1546
  934MOL0     H23246   4.477   9.412   8.163  2.4568  0.2740 -0.2680
  934MOL0     H23247   4.495   9.390   7.983  0.0621 -0.5483  0.6598
  934MOL0     H23248   4.693   9.490   8.102 -0.4152 -1.1119  0.5633
  934MOL0     H23249   4.600   9.634   8.130 -2.4105 -0.0040 -0.4673
  934MOL0     H23250   4.700   9.686   7.725 -0.3805  0.8096  1.3456
  934MOL0     H23251   4.899   9.570   7.565  0.3476  2.2746  0.8057
  934MOL0     H23252   5.308   9.412   7.623 -2.6654 -1.3496 -0.3650
  934MOL0     H23253   5.522   9.367   7.514  2.4394 -1.3242 -2.8239
  934MOL0     H23254   5.508   9.275   7.096  0.4128  1.2938 -0.6618
  934MOL0     H23255   5.548   9.107   7.136  4.8279 -0.7295 -2.5652
  934MOL0     H23256   5.773   9.168   7.183  1.1167 -1.2254 -1.4514
  934MOL0     H23257   5.745   9.333   7.122 -0.8320  0.6768 -1.8540
  934MOL0     H23258   5.654   9.217   6.901  1.3257 -2.4359 -0.7248
  934MOL0     H23259   5.704   9.070   6.958 -2.5134  0.5398 -0.6097
  934MOL0     H23260   5.951   9.179   6.979  0.9987  0.4671 -0.8267
  934MOL0     H23261   5.898   9.157   6.818 -0.3564 -2.6417  2.3526
  934MOL0     H23262   5.845   9.425   6.960 -1.4864  2.0925 -1.8000
  934MOL0     H23263   5.785   9.372   6.804  0.4508 -0.2111 -1.1491
  934MOL0     H23264   5.999   9.332   6.733 -1.2630 -0.7539  0.8002
  934MOL0     H23265   6.072   9.409   6.872 -0.1290  0.1180  1.1147
  934MOL0     H23266   5.899   9.539   6.657 -1.7505 -3.1926  3.2774
  934MOL0     H23267   5.876   9.610   6.806 -1.2115  0.5831 -0.7586
  934MOL0     H23268   6.065   9.714   6.641  0.3911 -0.6264 -0.9539
  934MOL0     H23269   6.170   9.584   6.707 -2.4400 -2.9692  1.1332
  934MOL0     H23270   5.314   9.196   7.178  2.4632  0.2977  0.2486
  934MOL0     H23271   5.095   9.272   7.275  0.7979 -0.7959 -0.6543
  934MOL0     H23272   4.881   9.237   7.820 -1.7651 -0.7830 -1.4991
  934MOL0     H23273   4.723   9.335   7.962  1.8419  0.1533  0.7495
  934MOL0     H23274   3.385   9.840   9.179  0.2373  0.0138 -0.7587
  934MOL0     H23275   3.353   9.991   9.360  1.8370 -0.7368 -0.3620
  934MOL0     H23276   3.400  10.498   9.407 -1.3685  1.4173 -1.0552
  934MOL0     H23277   3.413  10.706   9.576 -1.8470  0.5764  0.2852
  934MOL0     H23278   3.507  10.728   9.764 -2.8250 -1.9820 -2.7638
  934MOL0     H23279   3.455  10.820   9.904 -2.5775  2.8215  0.4093
  934MOL0     H23280   3.382  10.896   9.620 -1.9373 -0.9711 -0.3740
  934MOL0     H23281   3.291  10.951   9.748  0.8655  2.1478  2.7855
  934MOL0     H23282   3.494  11.110   9.688 -0.3529 -0.5683 -0.9045
  934MOL0     H23283   3.601  10.995   9.762  1.0219  3.3202 -1.9818
  934MOL0     H23284   3.360  11.149   9.887  0.7859  1.7683 -0.2900
  934MOL0     H23285   3.473  11.047   9.983 -1.2010 -2.8119 -1.4823
  934MOL0     H23286   3.670  11.426   9.880  1.1304 -1.1769  1.6961
  934MOL0     H23287   3.176  10.499   9.841  0.1892  0.9624 -0.2207
  934MOL0     H23288   3.149  10.306   9.679  0.9272 -0.3941  2.7940
  935MOL0     O23289   3.035   7.587   2.651 -0.0591 -0.1784 -0.5961
  935MOL0     C23290   3.107   7.675   2.620  0.0110 -0.2250 -0.7068
  935MOL0     O23291   3.174   7.752   2.700  0.0340 -0.2579 -0.0117
  935MOL0     C23292   3.174   7.739   2.844  0.6149  0.2984  0.2766
  935MOL0     C23293   3.161   7.616   2.910  0.5991 -0.4467  0.4351
  935MOL0     C23294   3.178   7.607   3.046  0.7437 -0.8964 -0.4896
  935MOL0     C23295   3.214   7.716   3.120 -0.8170  1.3270 -0.1734
  935MOL0     O23296   3.209   7.691   3.264 -0.5142 -0.1152  0.2938
  935MOL0     C23297   3.079   7.688   3.330 -0.5876 -0.4717  0.6681
  935MOL0     C23298   3.104   7.670   3.480 -0.7623 -0.0668 -0.0828
  935MOL0     C23299   2.968   7.677   3.557  0.0144 -0.5424  0.0048
  935MOL0     C23300   2.996   7.652   3.707  0.4958  0.1987 -0.6097
  935MOL0     C23301   2.869   7.650   3.789  1.2594 -0.5403 -0.6885
  935MOL0     C23302   2.753   7.560   3.733 -0.4464 -0.0899 -0.1040
  935MOL0     C23303   2.664   7.516   3.848  0.6707  0.3063 -0.3682
  935MOL0     C23304   2.686   7.370   3.889 -0.4249  0.2068 -0.4974
  935MOL0     N23305   2.815   7.350   3.962 -0.0898  0.1710 -0.2373
  935MOL0     C23306   2.852   7.371   4.098  0.1930  0.1182  0.1416
  935MOL0     C23307   2.989   7.356   4.094  0.6250 -0.1034  0.0440
  935MOL0     C23308   3.067   7.397   4.212  0.2596  0.7988 -0.2777
  935MOL0     C23309   3.183   7.488   4.189  1.0404 -0.5900 -0.6296
  935MOL0     C23310   3.242   7.549   4.322  0.2233 -0.6409  0.3665
  935MOL0     C23311   3.386   7.512   4.339 -0.9352 -1.5706 -0.0247
  935MOL0     O23312   3.448   7.567   4.456  0.1544 -0.7971  0.1612
  935MOL0     C23313   3.570   7.511   4.494  0.3989 -0.1110  0.6364
  935MOL0     C23314   3.662   7.458   4.402  0.1640 -1.2726  0.3097
  935MOL0     C23315   3.789   7.407   4.439  0.2065 -1.4652  0.9232
  935MOL0     C23316   3.823   7.394   4.577 -0.4481 -0.8903  0.5169
  935MOL0     C23317   3.957   7.352   4.626  0.1858 -0.1918 -0.2832
  935MOL0     O23318   4.041   7.282   4.543  0.3052  0.1741  0.4098
  935MOL0     C23319   4.168   7.245   4.563  1.0684 -0.1970 -0.3963
  935MOL0     C23320   4.207   7.212   4.700 -0.3969  0.0057 -0.1103
  935MOL0     C23321   4.347   7.183   4.724 -0.2262 -0.3438  0.6558
  935MOL0     C23322   4.439   7.171   4.608  0.0865  0.6733 -0.5813
  935MOL0     O23323   4.566   7.131   4.638  0.1321 -0.2412 -0.5269
  935MOL0     C23324   4.662   7.104   4.532  1.3437  0.3012  1.1180
  935MOL0     C23325   4.807   7.095   4.566 -1.1328 -0.7180  0.2347
  935MOL0     C23326   4.874   7.036   4.446  0.6227  0.7189  0.1560
  935MOL0     C23327   5.023   7.015   4.469 -0.3012  0.4491  0.5046
  935MOL0     C23328   5.095   7.053   4.330  1.2312 -0.8663 -0.2797
  935MOL0     C23329   5.249   7.011   4.345  0.3152  0.7103 -0.8385
  935MOL0     C23330   5.325   7.020   4.210 -0.1691  0.1432 -0.7148
  935MOL0     C23331   5.459   6.943   4.227  0.5830  0.9966 -0.1089
  935MOL0    Cl23332   5.550   6.960   4.075  0.0008 -0.6453  0.1659
  935MOL0     C23333   4.383   7.190   4.484  0.3113 -1.3605 -0.3189
  935MOL0     C23334   4.249   7.222   4.457 -0.2798 -0.4700  0.2250
  935MOL0     O23335   3.992   7.406   4.733  0.5774 -1.0827  0.3221
  935MOL0     C23336   3.738   7.466   4.666 -0.2032 -0.0882 -0.0286
  935MOL0     C23337   3.611   7.518   4.627 -0.5582 -0.5035  0.0726
  935MOL0     N23338   3.029   7.304   3.973 -0.0042  0.4723  0.7380
  935MOL0     N23339   2.924   7.301   3.898 -0.3217  0.4737 -0.3723
  935MOL0     C23340   3.248   7.833   3.053 -0.6526 -0.3638 -0.3575
  935MOL0     C23341   3.227   7.847   2.917 -0.2108 -0.4428 -0.3014
  935MOL0     C23342   3.120   7.697   2.473  0.2623 -0.0534  0.6758
  935MOL0     C23343   3.127   7.824   2.423 -0.5258 -0.1453 -0.0589
  935MOL0     C23344   3.130   7.836   2.280 -0.7335  0.6531 -0.3953
  935MOL0     C23345   3.122   7.726   2.198 -0.1309  0.1083 -0.4320
  935MOL0     O23346   3.099   7.737   2.064  0.2271 -0.4986  1.2057
  935MOL0     C23347   3.197   7.816   1.988 -0.4786  0.0112  0.9213
  935MOL0     C23348   3.316   7.725   1.946 -0.0727 -0.8301  0.0165
  935MOL0     C23349   3.292   7.622   1.828 -0.0448  0.0593 -0.2051
  935MOL0     C23350   3.334   7.681   1.687 -0.1904 -0.8669  0.1337
  935MOL0     C23351   3.482   7.690   1.680 -0.1344 -1.3236  0.1383
  935MOL0     C23352   3.605   7.705   1.670  0.3168 -0.4214  0.6528
  935MOL0     C23353   3.121   7.602   2.244 -0.3992  0.1651 -0.6030
  935MOL0     C23354   3.108   7.588   2.384 -0.2914 -0.4130  1.2549
  935MOL0     H23355   3.143   7.524   2.855  5.0811 -0.4303 -1.5125
  935MOL0     H23356   3.149   7.517   3.098 -3.0852  0.5303  0.2053
  935MOL0     H23357   3.020   7.611   3.280 -0.7208  0.6547 -0.9805
  935MOL0     H23358   3.018   7.779   3.327 -2.1549 -1.4216  2.1538
  935MOL0     H23359   3.180   7.738   3.520  0.2424 -0.1321 -1.8142
  935MOL0     H23360   3.153   7.573   3.494  1.1502  0.5446 -2.1117
  935MOL0     H23361   2.903   7.594   3.531  1.9876 -2.8751  1.9903
  935MOL0     H23362   2.913   7.771   3.542  0.5217  0.1596  2.1355
  935MOL0     H23363   3.043   7.554   3.721 -2.0498 -1.0362 -0.0023
  935MOL0     H23364   3.055   7.734   3.748  0.8784 -0.5574  0.3674
  935MOL0     H23365   2.828   7.751   3.797 -1.0313 -1.5340  3.3530
  935MOL0     H23366   2.881   7.639   3.897 -0.7154  2.0021 -0.1216
  935MOL0     H23367   2.804   7.477   3.684  2.4394  2.8028 -2.5200
  935MOL0     H23368   2.711   7.622   3.653  3.1133 -0.0695 -2.2088
  935MOL0     H23369   2.686   7.576   3.937 -0.6228  3.4237 -2.0022
  935MOL0     H23370   2.559   7.532   3.820 -0.4768 -2.7754  1.5531
  935MOL0     H23371   2.695   7.313   3.796 -1.0446  0.5181 -0.7542
  935MOL0     H23372   2.609   7.315   3.944  1.5658 -2.2516  0.0419
  935MOL0     H23373   2.808   7.431   4.177  0.5005  2.2985 -1.2527
  935MOL0     H23374   3.090   7.302   4.261 -2.6293  0.3103  0.3057
  935MOL0     H23375   2.999   7.441   4.285  1.9363  1.5813  0.8726
  935MOL0     H23376   3.147   7.576   4.136  0.3440 -2.0187 -2.6443
  935MOL0     H23377   3.253   7.442   4.119  0.4666 -1.0831 -0.8863
  935MOL0     H23378   3.245   7.658   4.310 -1.6551 -0.6710 -0.6308
  935MOL0     H23379   3.181   7.521   4.409 -0.9643  0.8890  0.0684
  935MOL0     H23380   3.439   7.541   4.247 -1.0255  0.6168  0.5707
  935MOL0     H23381   3.381   7.403   4.346 -2.4439 -1.5738 -0.7311
  935MOL0     H23382   3.642   7.476   4.297 -1.0121  0.5930  0.8081
  935MOL0     H23383   3.846   7.366   4.357  3.2741  0.2162  2.0602
  935MOL0     H23384   4.140   7.210   4.786 -0.9749 -0.5765 -0.5621
  935MOL0     H23385   4.389   7.166   4.822  4.9160  1.3743 -0.9631
  935MOL0     H23386   4.643   7.182   4.459  0.0762  0.6685  1.8271
  935MOL0     H23387   4.632   7.011   4.483 -2.3614  0.8300  2.1342
  935MOL0     H23388   4.822   7.032   4.654  2.6192  1.8076  1.6636
  935MOL0     H23389   4.851   7.191   4.592 -0.8000  0.1819 -3.1767
  935MOL0     H23390   4.869   7.096   4.354 -0.8897 -0.6496 -0.6986
  935MOL0     H23391   4.828   6.944   4.409 -1.0964  2.0465 -1.1808
  935MOL0     H23392   5.067   7.086   4.540  0.8298 -0.9777  1.2809
  935MOL0     H23393   5.028   6.914   4.509  2.4108 -0.1999 -1.1751
  935MOL0     H23394   5.100   7.161   4.315  0.5421 -0.8266 -0.2471
  935MOL0     H23395   5.047   7.000   4.247  0.5260 -1.7841  0.6917
  935MOL0     H23396   5.252   6.912   4.391  0.9906  0.7317 -0.8301
  935MOL0     H23397   5.301   7.084   4.409 -2.4827  2.0591  0.0571
  935MOL0     H23398   5.273   6.975   4.125  0.7960 -0.4435 -1.0134
  935MOL0     H23399   5.348   7.123   4.181  0.1356  0.1530 -0.4574
  935MOL0     H23400   5.447   6.837   4.253  1.5230  0.4905 -1.6372
  935MOL0     H23401   5.520   6.989   4.305 -2.3012  4.5980  0.2742
  935MOL0     H23402   4.446   7.186   4.396 -1.0812  1.6765 -1.5817
  935MOL0     H23403   4.221   7.218   4.352 -1.1916  0.3683  0.4262
  935MOL0     H23404   3.753   7.478   4.772 -1.3918 -0.7894  0.2398
  935MOL0     H23405   3.549   7.565   4.703  2.0609 -3.9877  5.0051
  935MOL0     H23406   3.268   7.916   3.119 -0.2710 -0.8421  0.1408
  935MOL0     H23407   3.234   7.939   2.860 -1.0944 -0.8494 -1.0951
  935MOL0     H23408   3.132   7.907   2.493  1.7741 -2.9087  3.3721
  935MOL0     H23409   3.120   7.938   2.245 -1.7259 -0.0447 -2.2830
  935MOL0     H23410   3.230   7.904   2.044 -2.8100  1.7075 -0.2333
  935MOL0     H23411   3.141   7.849   1.901  0.3850  0.5658  0.5602
  935MOL0     H23412   3.395   7.798   1.922  0.5356 -1.7624 -0.8792
  935MOL0     H23413   3.355   7.666   2.029  1.8277  0.3167  0.0149
  935MOL0     H23414   3.185   7.600   1.832  0.3422 -1.7740  2.7412
  935MOL0     H23415   3.337   7.529   1.863 -1.4542 -0.0440  1.4995
  935MOL0     H23416   3.295   7.606   1.617 -4.1573  0.2063  0.9750
  935MOL0     H23417   3.290   7.779   1.665  1.2416 -0.6651 -2.2927
  935MOL0     H23418   3.711   7.707   1.652 -0.1920 -0.6903 -2.9311
  935MOL0     H23419   3.135   7.525   2.170 -1.1239  0.9836 -1.6156
  935MOL0     H23420   3.092   7.486   2.418  2.5466 -1.0111  1.0192
  936MOL0     O23421   7.158  11.081   2.894  0.6155 -0.0710 -0.1043
  936MOL0     C23422   7.255  11.155   2.902  0.1687 -0.2242 -0.6706
  936MOL0     O23423   7.329  11.184   3.016 -1.0365  0.5922 -0.0316
  936MOL0     C23424   7.327  11.113   3.134  0.0136  1.3346  0.5619
  936MOL0     C23425   7.377  11.179   3.245  0.0302 -0.3820  0.4645
  936MOL0     C23426   7.368  11.129   3.373 -0.3603 -0.4047 -0.3660
  936MOL0     C23427   7.309  10.997   3.397 -0.1728  0.2967  0.3329
  936MOL0     O23428   7.320  10.950   3.519 -0.3004 -0.4322  0.0229
  936MOL0     C23429   7.187  10.919   3.563 -0.5242 -0.0681 -0.0412
  936MOL0     C23430   7.098  11.038   3.579  0.0195  0.2931  0.4244
  936MOL0     C23431   7.129  11.126   3.702  0.2739  0.0379  1.0623
  936MOL0     C23432   7.180  11.263   3.675 -0.7237  0.8690 -0.9229
  936MOL0     C23433   7.074  11.350   3.607  0.0563 -0.6022  0.3417
  936MOL0     C23434   7.141  11.422   3.479  0.2338  0.5822 -0.5722
  936MOL0     C23435   7.253  11.525   3.508  0.0390 -0.3983  0.7794
  936MOL0     C23436   7.314  11.593   3.385 -0.0671 -0.6168  1.0068
  936MOL0     N23437   7.407  11.701   3.425 -0.7624  0.5823  0.0425
  936MOL0     C23438   7.540  11.684   3.448 -0.6311 -0.5558 -0.2705
  936MOL0     C23439   7.576  11.816   3.476 -0.2003  0.0087 -1.2106
  936MOL0     C23440   7.706  11.865   3.530 -0.5794 -0.1445  0.6152
  936MOL0     C23441   7.810  11.872   3.428 -0.4696  0.0309  0.5679
  936MOL0     C23442   7.815  12.012   3.359  0.1396  0.2828  0.9530
  936MOL0     C23443   7.713  12.013   3.238  0.8285  0.0150  0.0646
  936MOL0     O23444   7.709  12.151   3.196 -0.0063  0.4960 -0.8999
  936MOL0     C23445   7.636  12.233   3.264  0.0004  0.6795  0.9242
  936MOL0     C23446   7.693  12.364   3.268  0.8360 -0.0500 -0.4041
  936MOL0     C23447   7.628  12.466   3.333 -0.0982 -0.2818 -0.0992
  936MOL0     C23448   7.502  12.447   3.387  0.0546  0.6453 -0.6417
  936MOL0     C23449   7.424  12.558   3.438 -0.0984 -0.4269  0.3854
  936MOL0     O23450   7.302  12.540   3.497  0.4826 -0.3591 -0.2309
  936MOL0     C23451   7.257  12.647   3.579  0.3627  0.2068  0.9325
  936MOL0     C23452   7.278  12.652   3.717  0.8207 -0.4879 -0.2420
  936MOL0     C23453   7.236  12.762   3.791 -0.2074  0.1173 -0.4791
  936MOL0     C23454   7.157  12.861   3.730 -0.4888  0.9664 -0.0588
  936MOL0     O23455   7.103  12.973   3.790 -0.2438  0.6628  1.0418
  936MOL0     C23456   7.145  13.002   3.920  0.8613  0.1232 -1.3692
  936MOL0     C23457   7.089  13.133   3.972  0.0392  0.1653 -0.6137
  936MOL0     C23458   7.068  13.147   4.133 -0.5659 -0.3347  0.0267
  936MOL0     C23459   7.013  13.284   4.175 -0.9738  0.2190  0.4098
  936MOL0     C23460   7.034  13.305   4.322 -0.3687 -0.3949 -0.0870
  936MOL0     C23461   6.905  13.261   4.400  0.3314 -1.4008 -0.4705
  936MOL0     C23462   6.897  13.331   4.531  0.5420 -0.1852 -0.1416
  936MOL0     C23463   6.855  13.485   4.543  0.7089  0.5481  1.5677
  936MOL0    Cl23464   6.882  13.540   4.703 -0.5140  0.5308  0.3722
  936MOL0     C23465   7.136  12.855   3.586 -0.6044 -0.2754 -0.6930
  936MOL0     C23466   7.190  12.746   3.519  0.1732  0.3728 -0.1865
  936MOL0     O23467   7.478  12.667   3.414 -0.3061 -0.2621 -1.0133
  936MOL0     C23468   7.440  12.319   3.376 -1.0065 -0.4338  0.6401
  936MOL0     C23469   7.505  12.211   3.307 -0.3623  0.9034 -1.0364
  936MOL0     N23470   7.460  11.897   3.477 -0.4264 -0.9164 -0.2026
  936MOL0     N23471   7.363  11.824   3.453  0.7635 -0.2644 -0.3679
  936MOL0     C23472   7.273  10.934   3.277 -0.3628  0.7068 -0.2414
  936MOL0     C23473   7.274  10.984   3.142  0.4932 -0.5050  0.0429
  936MOL0     C23474   7.284  11.232   2.785 -0.2614  1.2853  0.9270
  936MOL0     C23475   7.368  11.348   2.791  0.3491  0.3897 -0.6736
  936MOL0     C23476   7.386  11.430   2.678 -0.5773 -0.7986  0.2687
  936MOL0     C23477   7.339  11.393   2.549  0.3750 -0.1499  0.2851
  936MOL0     O23478   7.356  11.476   2.437  0.2592  0.5789  0.4123
  936MOL0     C23479   7.280  11.471   2.313 -0.0135 -0.0544 -0.6531
  936MOL0     C23480   7.378  11.465   2.205 -0.0141  0.1081  0.8565
  936MOL0     C23481   7.433  11.600   2.147  0.0333  0.3439  0.4552
  936MOL0     C23482   7.465  11.717   2.236 -0.1989 -0.1184 -0.2225
  936MOL0     C23483   7.558  11.809   2.164  0.0177 -0.2449  0.5689
  936MOL0     C23484   7.627  11.891   2.102 -1.1012  0.4627  0.1952
  936MOL0     C23485   7.273  11.268   2.542 -0.2013 -0.0440 -0.3410
  936MOL0     C23486   7.239  11.197   2.656  0.1271  0.0184 -0.2851
  936MOL0     H23487   7.431  11.269   3.217 -2.4885  0.7437 -1.1443
  936MOL0     H23488   7.408  11.183   3.459  0.3212 -1.6904  0.1518
  936MOL0     H23489   7.196  10.872   3.661  2.9035  0.5781  0.0951
  936MOL0     H23490   7.139  10.845   3.499  1.7737 -2.0082  0.3392
  936MOL0     H23491   6.998  10.994   3.585 -0.2887  0.7219 -1.0957
  936MOL0     H23492   7.091  11.104   3.492 -0.2161 -0.8443 -0.4450
  936MOL0     H23493   7.212  11.077   3.754  0.3253 -2.3479 -1.0883
  936MOL0     H23494   7.042  11.120   3.768 -0.0260 -1.8292  0.5496
  936MOL0     H23495   7.198  11.301   3.776  1.5410 -1.3009 -0.4358
  936MOL0     H23496   7.267  11.255   3.610 -1.5516  0.3593 -1.9891
  936MOL0     H23497   7.027  11.432   3.662 -1.5912 -0.4326 -1.2152
  936MOL0     H23498   6.992  11.292   3.561  0.9592 -0.8944 -0.9610
  936MOL0     H23499   7.065  11.472   3.418 -0.7661 -1.6342 -1.2714
  936MOL0     H23500   7.175  11.344   3.410 -1.0398  1.2797 -2.0493
  936MOL0     H23501   7.207  11.600   3.573 -0.1349 -1.2017  1.6111
  936MOL0     H23502   7.335  11.479   3.564 -1.2529 -0.2838  2.8707
  936MOL0     H23503   7.229  11.631   3.328 -1.4454  0.8007  3.7681
  936MOL0     H23504   7.372  11.531   3.318 -0.2414 -1.3726  1.5468
  936MOL0     H23505   7.598  11.593   3.435 -2.4556 -1.8756  0.3690
  936MOL0     H23506   7.744  11.800   3.609  0.5630  1.3668  1.3758
  936MOL0     H23507   7.674  11.959   3.576 -2.5493 -1.2824  1.6753
  936MOL0     H23508   7.797  11.796   3.350  2.0374 -2.6220  2.5143
  936MOL0     H23509   7.907  11.866   3.478 -0.5201 -0.2176  0.6369
  936MOL0     H23510   7.797  12.094   3.428  3.9026  1.1154  1.1670
  936MOL0     H23511   7.919  12.027   3.326  0.1375  1.9933  1.6284
  936MOL0     H23512   7.610  11.987   3.264  1.0530 -0.0412  0.9313
  936MOL0     H23513   7.749  11.952   3.156  2.7361 -0.0542  0.9050
  936MOL0     H23514   7.784  12.372   3.209  1.3623  2.1953  0.6083
  936MOL0     H23515   7.681  12.561   3.334  0.4464 -0.5871  0.6589
  936MOL0     H23516   7.333  12.569   3.763 -0.8248 -1.6884 -0.3655
  936MOL0     H23517   7.268  12.762   3.895 -2.2766 -0.3801  0.2017
  936MOL0     H23518   7.254  13.005   3.925  0.9296 -2.3018  0.6440
  936MOL0     H23519   7.104  12.926   3.988 -0.6807  1.7211 -0.4090
  936MOL0     H23520   6.990  13.143   3.927 -0.5407  0.8070  0.7271
  936MOL0     H23521   7.147  13.218   3.935 -1.5662  1.2237 -0.7876
  936MOL0     H23522   7.165  13.122   4.176  0.1771  0.9968 -0.8084
  936MOL0     H23523   6.993  13.077   4.172 -3.5364  3.3646  1.7084
  936MOL0     H23524   7.067  13.363   4.122 -0.4424 -2.1482 -2.8699
  936MOL0     H23525   6.908  13.293   4.144 -0.6829 -0.5878 -0.8755
  936MOL0     H23526   7.059  13.410   4.339  2.0570 -0.7147 -1.1972
  936MOL0     H23527   7.122  13.246   4.351 -1.2712 -0.5001  2.6744
  936MOL0     H23528   6.899  13.153   4.388  0.1920 -1.2401 -2.2192
  936MOL0     H23529   6.814  13.300   4.352  1.1657  3.1339  1.1227
  936MOL0     H23530   6.812  13.288   4.586 -0.4460  2.7306  0.7718
  936MOL0     H23531   6.995  13.323   4.580  1.0485 -2.9272 -1.4166
  936MOL0     H23532   6.754  13.493   4.500  1.7109 -2.2401 -1.7824
  936MOL0     H23533   6.927  13.545   4.487 -0.2199  0.5825  0.3713
  936MOL0     H23534   7.085  12.939   3.541 -1.7542  0.5166  1.8531
  936MOL0     H23535   7.188  12.750   3.410 -2.6987 -0.8780 -0.2481
  936MOL0     H23536   7.341  12.298   3.417  0.0231 -1.0496  2.9836
  936MOL0     H23537   7.444  12.123   3.289 -0.2372  1.1517 -2.8747
  936MOL0     H23538   7.262  10.830   3.304  0.3180  0.4740 -0.8265
  936MOL0     H23539   7.237  10.929   3.057  0.4159 -2.2290  1.1374
  936MOL0     H23540   7.415  11.372   2.885 -1.6789  1.0648  0.2194
  936MOL0     H23541   7.456  11.513   2.684 -0.7749 -0.7101  1.4071
  936MOL0     H23542   7.221  11.563   2.306  3.2946  2.2670 -0.5110
  936MOL0     H23543   7.208  11.390   2.301  0.9711 -0.7091 -2.7404
  936MOL0     H23544   7.463  11.405   2.238 -1.4762 -2.0146  0.9352
  936MOL0     H23545   7.339  11.409   2.120  1.4210 -2.0628  1.5482
  936MOL0     H23546   7.374  11.634   2.061 -1.2476 -1.1088  0.7179
  936MOL0     H23547   7.524  11.559   2.103 -0.1490  1.3699 -0.9425
  936MOL0     H23548   7.374  11.771   2.267 -0.7618 -0.0865 -1.8616
  936MOL0     H23549   7.519  11.671   2.320 -0.8252 -3.0130 -1.2911
  936MOL0     H23550   7.690  11.945   2.033 -0.5130 -0.6243 -0.1403
  936MOL0     H23551   7.230  11.236   2.448 -1.8524  3.4173 -0.8862
  936MOL0     H23552   7.196  11.099   2.637  1.1639 -0.1308 -2.2238
  937MOL0     O23553   3.180  11.263   8.219  0.3595 -0.5682  0.4450
  937MOL0     C23554   3.107  11.232   8.315  0.1408 -1.0625  0.0165
  937MOL0     O23555   3.051  11.112   8.342 -0.6331 -0.3371  0.0082
  937MOL0     C23556   3.065  11.026   8.236  0.0884 -0.6402 -0.1452
  937MOL0     C23557   3.175  10.954   8.209  0.2196  1.0592  0.7666
  937MOL0     C23558   3.175  10.868   8.100  0.4111  1.0491  0.9758
  937MOL0     C23559   3.061  10.855   8.013  0.2619 -0.6535  0.5851
  937MOL0     O23560   3.064  10.765   7.909 -0.5172  0.1830 -0.5502
  937MOL0     C23561   2.946  10.692   7.861 -0.6867 -0.5967  1.0161
  937MOL0     C23562   2.903  10.735   7.721 -0.0596 -1.0805 -0.2594
  937MOL0     C23563   2.996  10.668   7.614 -0.7174  0.5731 -0.3710
  937MOL0     C23564   2.949  10.720   7.480 -0.1729  0.1162  0.7975
  937MOL0     C23565   3.023  10.675   7.355 -0.4409 -0.1157  0.2078
  937MOL0     C23566   3.174  10.717   7.381  0.6513 -0.6889  0.0424
  937MOL0     C23567   3.203  10.868   7.419 -0.1076  0.5468  0.1886
  937MOL0     C23568   3.331  10.900   7.478 -0.3348  0.1989 -0.7205
  937MOL0     N23569   3.327  11.009   7.577 -0.7593  0.4811  0.6193
  937MOL0     C23570   3.270  11.003   7.708 -0.0092 -0.0609  0.3591
  937MOL0     C23571   3.283  11.129   7.753  0.4658 -0.1612 -0.5768
  937MOL0     C23572   3.217  11.184   7.876  0.3365 -1.8129  0.5911
  937MOL0     C23573   3.079  11.232   7.830 -0.8127  0.8909  0.1700
  937MOL0     C23574   2.997  11.327   7.925  0.7813  0.5845 -0.0720
  937MOL0     C23575   2.846  11.338   7.890  0.9046 -0.1889  0.3698
  937MOL0     O23576   2.758  11.293   7.991  0.1275  0.5911  0.5405
  937MOL0     C23577   2.624  11.309   7.955  0.2294 -0.0940  0.8299
  937MOL0     C23578   2.528  11.227   8.024  0.1918 -0.3475  0.5401
  937MOL0     C23579   2.391  11.240   7.998  0.8806 -0.1215 -0.1245
  937MOL0     C23580   2.342  11.323   7.888  0.5540 -0.4147  0.0002
  937MOL0     C23581   2.200  11.329   7.833  0.0044 -1.0454  0.3761
  937MOL0     O23582   2.112  11.310   7.933 -0.9541  0.4761  0.1332
  937MOL0     C23583   1.975  11.296   7.902 -0.1681  0.3510 -0.5060
  937MOL0     C23584   1.905  11.387   7.829 -0.4116  0.4655 -0.1637
  937MOL0     C23585   1.772  11.367   7.790  0.2999  0.1512 -0.3115
  937MOL0     C23586   1.708  11.244   7.828  0.4020  0.0688 -0.5162
  937MOL0     O23587   1.573  11.224   7.803  0.5233 -0.2281  0.0558
  937MOL0     C23588   1.532  11.120   7.720 -0.1530  0.4793  0.5842
  937MOL0     C23589   1.374  11.125   7.714 -1.8567  0.6268  0.2836
  937MOL0     C23590   1.309  10.985   7.675  0.3430 -0.4467 -0.0710
  937MOL0     C23591   1.298  10.975   7.522 -0.1402  0.6201 -0.3080
  937MOL0     C23592   1.226  10.847   7.474 -0.0112  0.2997 -0.1556
  937MOL0     C23593   1.231  10.836   7.326 -0.9458 -0.1701  0.2851
  937MOL0     C23594   1.170  10.712   7.269  0.9162  0.4350  0.7945
  937MOL0     C23595   1.184  10.690   7.114 -0.5260 -0.5494  0.1253
  937MOL0    Cl23596   1.148  10.853   7.042 -0.2965  0.4159  0.0377
  937MOL0     C23597   1.775  11.153   7.918  0.1089 -0.8425 -0.0950
  937MOL0     C23598   1.904  11.190   7.961 -0.1408  0.5169 -0.1561
  937MOL0     O23599   2.178  11.364   7.714 -0.2227 -0.4007  0.2712
  937MOL0     C23600   2.436  11.397   7.821 -0.2069 -0.0170  0.4854
  937MOL0     C23601   2.572  11.392   7.851 -0.1730 -0.3309 -0.4877
  937MOL0     N23602   3.344  11.205   7.657 -0.3702  0.1506 -0.5645
  937MOL0     N23603   3.376  11.134   7.557 -0.8717  0.2198  0.1711
  937MOL0     C23604   2.948  10.929   8.037  1.1609 -0.4858 -1.0952
  937MOL0     C23605   2.951  11.018   8.153 -0.3219  0.6426 -0.6807
  937MOL0     C23606   3.066  11.349   8.393 -0.3780  0.5883  0.0131
  937MOL0     C23607   2.997  11.321   8.515  0.4786 -0.8455  0.5994
  937MOL0     C23608   2.952  11.430   8.590 -0.9706  0.5220  0.0376
  937MOL0     C23609   2.978  11.567   8.552 -0.8380 -0.7155 -0.4955
  937MOL0     O23610   2.925  11.666   8.633  0.6306  0.4145 -0.4319
  937MOL0     C23611   2.804  11.725   8.578  0.5616 -0.2313  0.0416
  937MOL0     C23612   2.728  11.800   8.689 -0.1658  0.1937 -0.5823
  937MOL0     C23613   2.646  11.698   8.775  0.5617 -0.2353 -0.3465
  937MOL0     C23614   2.542  11.784   8.854  0.1770 -1.3054  0.0135
  937MOL0     C23615   2.602  11.875   8.951 -0.3574 -0.2687 -0.5820
  937MOL0     C23616   2.666  11.938   9.038  0.4447 -0.1462  0.2809
  937MOL0     C23617   3.044  11.593   8.429 -0.0376 -0.8545  0.5707
  937MOL0     C23618   3.091  11.484   8.354  0.4097 -0.1374  1.1834
  937MOL0     H23619   3.262  10.969   8.273  2.5125 -2.6829 -1.0727
  937MOL0     H23620   3.264  10.813   8.071 -0.9825  0.0378 -1.7151
  937MOL0     H23621   2.866  10.706   7.934 -0.4218 -1.5721  1.5194
  937MOL0     H23622   2.961  10.584   7.868 -0.1129 -0.5460  0.6201
  937MOL0     H23623   2.893  10.843   7.717 -2.5910 -1.2724 -0.9001
  937MOL0     H23624   2.802  10.694   7.720 -0.4063 -0.3712  1.6358
  937MOL0     H23625   2.985  10.559   7.615  1.5364  0.2874 -1.0434
  937MOL0     H23626   3.100  10.682   7.644 -0.9738  2.4293 -0.2244
  937MOL0     H23627   2.849  10.684   7.454  0.6075 -1.1347 -0.6340
  937MOL0     H23628   2.938  10.829   7.486 -1.9329 -0.0207  0.5710
  937MOL0     H23629   2.981  10.727   7.269  1.7296 -0.2200 -0.9911
  937MOL0     H23630   3.024  10.568   7.333  1.7636  0.1534 -1.3588
  937MOL0     H23631   3.235  10.690   7.294  2.3779 -0.1722  1.0548
  937MOL0     H23632   3.213  10.663   7.467 -1.0006 -2.6894 -0.3831
  937MOL0     H23633   3.187  10.924   7.326  1.1401 -0.1316 -0.4563
  937MOL0     H23634   3.121  10.895   7.487 -0.9405  1.7711 -1.2363
  937MOL0     H23635   3.396  10.939   7.399 -0.3400 -0.1189 -0.8817
  937MOL0     H23636   3.380  10.817   7.529 -2.6358  0.2078  1.7126
  937MOL0     H23637   3.223  10.919   7.758  2.2234 -1.5046  0.1803
  937MOL0     H23638   3.267  11.273   7.914 -0.0167 -1.9356  1.3680
  937MOL0     H23639   3.229  11.102   7.948 -1.1652 -2.9153 -0.3354
  937MOL0     H23640   3.020  11.142   7.811  1.3307 -0.2633 -1.3093
  937MOL0     H23641   3.090  11.285   7.735 -0.3921 -0.6935 -0.6877
  937MOL0     H23642   3.014  11.289   8.026 -0.5846  0.0096 -0.0431
  937MOL0     H23643   3.039  11.428   7.925  0.6779  0.6401 -1.0889
  937MOL0     H23644   2.823  11.295   7.792 -3.3086 -0.2579  1.2294
  937MOL0     H23645   2.842  11.447   7.883  5.6060  0.2337  0.6827
  937MOL0     H23646   2.560  11.148   8.091 -0.9592  1.3307  3.2607
  937MOL0     H23647   2.321  11.190   8.065  1.2812  2.5090  2.4600
  937MOL0     H23648   1.961  11.473   7.793  0.4690 -0.1846 -0.3815
  937MOL0     H23649   1.718  11.426   7.717  0.0517 -2.1834 -2.1010
  937MOL0     H23650   1.566  11.020   7.748 -0.2213 -0.5789 -2.6769
  937MOL0     H23651   1.577  11.141   7.622 -1.5313 -0.9149 -0.3896
  937MOL0     H23652   1.359  11.208   7.645  2.3643  0.5054 -1.0532
  937MOL0     H23653   1.341  11.160   7.812 -0.3786  0.2171  0.9673
  937MOL0     H23654   1.210  10.997   7.719  1.1751 -2.1533  2.5272
  937MOL0     H23655   1.352  10.895   7.721  1.1916  0.6841  1.4509
  937MOL0     H23656   1.259  11.061   7.467  0.5277 -0.0974 -1.9493
  937MOL0     H23657   1.402  10.969   7.490 -0.0798 -4.0606  0.0926
  937MOL0     H23658   1.120  10.860   7.497 -0.2215  2.7619 -2.1167
  937MOL0     H23659   1.269  10.753   7.511 -1.4018 -0.4127 -0.3242
  937MOL0     H23660   1.336  10.843   7.295 -0.4286 -3.1666  1.0181
  937MOL0     H23661   1.178  10.924   7.288 -2.4949 -2.2378 -2.7786
  937MOL0     H23662   1.209  10.622   7.318  0.2504  0.5956  1.6423
  937MOL0     H23663   1.064  10.718   7.294  0.7364 -0.6362  0.3498
  937MOL0     H23664   1.119  10.614   7.071 -3.5542  2.2355 -0.6980
  937MOL0     H23665   1.286  10.657   7.092 -1.0053 -2.0769  0.1023
  937MOL0     H23666   1.731  11.057   7.945 -0.4482  0.0064  2.2972
  937MOL0     H23667   1.956  11.130   8.034  1.1629  2.9557  1.0239
  937MOL0     H23668   2.403  11.463   7.742 -4.7777 -1.3271  1.0168
  937MOL0     H23669   2.644  11.448   7.793  1.8543 -0.5667  1.6516
  937MOL0     H23670   2.848  10.927   7.995 -1.6239 -0.8015  4.5285
  937MOL0     H23671   2.867  11.078   8.187  0.3497  1.9785 -1.3288
  937MOL0     H23672   2.982  11.221   8.553 -0.4495 -0.9869 -0.0905
  937MOL0     H23673   2.912  11.402   8.687  1.1495 -0.3273  0.7357
  937MOL0     H23674   2.740  11.642   8.545  0.4157 -1.0143  2.1483
  937MOL0     H23675   2.815  11.801   8.500 -1.6042  1.0480  0.9091
  937MOL0     H23676   2.804  11.839   8.758  1.6752 -0.4435 -2.1563
  937MOL0     H23677   2.668  11.876   8.639 -0.5555  1.2268  1.3296
  937MOL0     H23678   2.708  11.639   8.843 -1.1054 -0.9321  0.6505
  937MOL0     H23679   2.595  11.634   8.703  2.2866  1.4055 -3.2351
  937MOL0     H23680   2.477  11.826   8.777 -0.5335 -1.4856  0.5078
  937MOL0     H23681   2.475  11.729   8.920  1.0855 -0.0330  2.0966
  937MOL0     H23682   2.730  11.983   9.111 -1.3153  5.6710 -1.2098
  937MOL0     H23683   3.074  11.693   8.399 -1.5847 -0.2702  0.8715
  937MOL0     H23684   3.157  11.499   8.269  2.7822  2.2512  3.2776
  938MOL0     O23685   7.813  11.400   1.191 -0.1178 -0.2366  0.4345
  938MOL0     C23686   7.792  11.516   1.218 -0.9829  0.0810 -0.5140
  938MOL0     O23687   7.673  11.581   1.199 -0.4502 -0.5841  0.1232
  938MOL0     C23688   7.589  11.522   1.110  0.7054 -1.2245 -0.5619
  938MOL0     C23689   7.613  11.519   0.976 -1.0910 -0.3421  0.6270
  938MOL0     C23690   7.529  11.460   0.885 -0.4065  0.7369  1.1123
  938MOL0     C23691   7.427  11.382   0.924  1.3282 -0.4296  1.0836
  938MOL0     O23692   7.344  11.336   0.825 -0.0521 -0.8020 -0.2846
  938MOL0     C23693   7.247  11.226   0.859 -0.6186 -0.2194 -0.8627
  938MOL0     C23694   7.146  11.218   0.748  0.7926  1.0509 -1.0183
  938MOL0     C23695   7.106  11.082   0.705 -0.4292 -0.4374  0.4507
  938MOL0     C23696   7.044  11.089   0.559  1.2845  0.5441 -0.3047
  938MOL0     C23697   6.960  10.967   0.544 -0.1190  0.0257  0.1251
  938MOL0     C23698   7.057  10.870   0.468  0.4929 -0.2077  0.8008
  938MOL0     C23699   6.968  10.739   0.434 -0.3831 -0.4090  0.6841
  938MOL0     C23700   6.853  10.770   0.336  0.1684 -0.3963 -0.0714
  938MOL0     N23701   6.917  10.799   0.206  0.2431  1.1569 -0.6624
  938MOL0     C23702   6.929  10.911   0.136 -1.0438 -0.8460 -0.2145
  938MOL0     C23703   6.985  10.876   0.021 -0.2100  0.9017  0.6932
  938MOL0     C23704   7.022  10.964  -0.102 -0.9256 -0.1582 -1.0204
  938MOL0     C23705   7.051  11.115  -0.073  0.3539 -0.1426 -0.0758
  938MOL0     C23706   7.173  11.136   0.012 -0.2644 -0.1093 -0.1397
  938MOL0     C23707   7.197  11.283   0.042  0.5057 -1.6158 -0.2135
  938MOL0     O23708   7.231  11.306   0.177 -0.3811  0.3987 -0.0887
  938MOL0     C23709   7.364  11.335   0.207  0.0491 -0.0655  0.4464
  938MOL0     C23710   7.418  11.271   0.314 -0.0415 -0.1082 -0.2188
  938MOL0     C23711   7.550  11.285   0.351 -0.5810  0.0753  1.0898
  938MOL0     C23712   7.632  11.381   0.274 -0.6228  0.6612  0.2523
  938MOL0     C23713   7.773  11.422   0.311  0.2727 -0.6093 -0.8880
  938MOL0     O23714   7.837  11.515   0.250 -0.5430 -0.1412  0.2794
  938MOL0     C23715   7.954  11.481   0.182 -0.9164 -0.2653  0.3179
  938MOL0     C23716   8.017  11.592   0.121 -0.6940 -0.1787  0.9722
  938MOL0     C23717   8.134  11.582   0.042 -0.0717 -0.7121 -0.0327
  938MOL0     C23718   8.182  11.453   0.011 -0.3927 -0.9894 -0.2699
  938MOL0     O23719   8.307  11.451  -0.056 -0.8642  0.1626  0.0991
  938MOL0     C23720   8.310  11.348  -0.155  0.6399  0.5246  0.0205
  938MOL0     C23721   8.412  11.387  -0.264  0.3615 -0.7957  0.4801
  938MOL0     C23722   8.388  11.527  -0.329  0.7161 -0.9816 -0.1283
  938MOL0     C23723   8.443  11.528  -0.467 -0.0324  0.5329  1.1978
  938MOL0     C23724   8.467  11.676  -0.503  0.2209 -0.5458  0.8174
  938MOL0     C23725   8.527  11.672  -0.648 -0.5676  0.2296  0.4380
  938MOL0     C23726   8.538  11.822  -0.678  0.3395 -0.0779  0.0850
  938MOL0     C23727   8.605  11.844  -0.811 -0.2445 -0.1330 -0.2018
  938MOL0    Cl23728   8.762  11.761  -0.805 -0.0906  0.3364 -0.3990
  938MOL0     C23729   8.114  11.342   0.076 -0.5269  0.5119  0.5020
  938MOL0     C23730   8.007  11.355   0.162  0.0987 -0.0269  0.2592
  938MOL0     O23731   7.819  11.358   0.404  1.0612  0.9970  0.3949
  938MOL0     C23732   7.578  11.447   0.169  1.1080 -0.1578  0.7699
  938MOL0     C23733   7.443  11.419   0.128 -0.9088 -0.1749  0.4672
  938MOL0     N23734   7.000  10.742   0.020 -0.4748 -0.7604 -0.5855
  938MOL0     N23735   6.964  10.696   0.133 -0.0891  0.7170  0.2101
  938MOL0     C23736   7.398  11.375   1.061 -0.4028  0.7140  0.1038
  938MOL0     C23737   7.483  11.444   1.152  1.1505  0.4225  0.2987
  938MOL0     C23738   7.899  11.582   1.289 -0.5073  0.6942  0.2532
  938MOL0     C23739   8.002  11.519   1.350 -0.0480 -0.1903 -0.1124
  938MOL0     C23740   8.112  11.597   1.402 -0.4539  0.5392  0.7583
  938MOL0     C23741   8.107  11.738   1.395 -0.5332 -0.1121  0.6836
  938MOL0     O23742   8.199  11.808   1.454 -0.4319 -0.0263 -0.4233
  938MOL0     C23743   8.301  11.753   1.544  0.9154  0.5946 -0.1268
  938MOL0     C23744   8.399  11.857   1.578  0.0793 -0.9028 -0.6316
  938MOL0     C23745   8.330  11.966   1.673 -0.7889  0.1321 -0.2342
  938MOL0     C23746   8.412  11.998   1.803  0.0221 -0.5736 -0.6743
  938MOL0     C23747   8.377  11.900   1.904 -0.1011 -0.9317 -0.1377
  938MOL0     C23748   8.347  11.835   1.998  0.3467  0.3098 -0.3540
  938MOL0     C23749   8.003  11.798   1.324  1.6291 -0.5894  0.5338
  938MOL0     C23750   7.904  11.716   1.267 -0.2995  0.0674  0.0595
  938MOL0     H23751   7.701  11.566   0.933  0.5655 -1.0880  3.0018
  938MOL0     H23752   7.561  11.454   0.781  2.7753 -2.2123  2.0666
  938MOL0     H23753   7.192  11.243   0.952 -0.0733 -1.9208 -0.1991
  938MOL0     H23754   7.308  11.135   0.857 -2.6400 -1.7397  1.3540
  938MOL0     H23755   7.201  11.261   0.663  2.2970  0.9636 -0.1220
  938MOL0     H23756   7.054  11.274   0.766  0.7039  1.7523 -3.2697
  938MOL0     H23757   7.035  11.044   0.778  2.3019 -2.2772  2.3651
  938MOL0     H23758   7.200  11.026   0.700  0.3934  1.0094 -1.3278
  938MOL0     H23759   6.976  11.172   0.537 -3.7375 -2.9217  0.4280
  938MOL0     H23760   7.120  11.116   0.486 -0.4809 -0.8297 -2.7856
  938MOL0     H23761   6.867  11.003   0.499  0.0184 -0.9875 -1.0410
  938MOL0     H23762   6.922  10.930   0.640  0.5433  0.5006  0.5738
  938MOL0     H23763   7.147  10.846   0.526  0.6233 -1.4902  0.1080
  938MOL0     H23764   7.087  10.916   0.373 -0.8933 -0.0188  0.4299
  938MOL0     H23765   7.033  10.666   0.386 -2.2608 -1.6034 -0.1367
  938MOL0     H23766   6.926  10.694   0.525  0.6141  0.0179  1.3808
  938MOL0     H23767   6.792  10.856   0.367 -2.5775 -1.7252 -1.4593
  938MOL0     H23768   6.778  10.692   0.325 -0.5007  0.4470 -1.8803
  938MOL0     H23769   6.917  11.012   0.176 -0.2260 -1.0507  0.5928
  938MOL0     H23770   6.938  10.964  -0.172 -1.8311 -1.8156  0.0262
  938MOL0     H23771   7.105  10.919  -0.157 -0.7687  1.9939 -2.7136
  938MOL0     H23772   6.964  11.156  -0.022  1.7234  0.8399  1.5720
  938MOL0     H23773   7.067  11.155  -0.174 -0.2164 -0.3819 -0.2701
  938MOL0     H23774   7.167  11.082   0.107  1.1205  1.3353  0.8304
  938MOL0     H23775   7.262  11.100  -0.040  2.0889  1.8485  2.1970
  938MOL0     H23776   7.107  11.344   0.031  0.5930 -0.9017  2.3153
  938MOL0     H23777   7.273  11.325  -0.025 -0.8743 -1.1518 -1.5332
  938MOL0     H23778   7.353  11.204   0.369 -0.5197  0.9322  0.5256
  938MOL0     H23779   7.596  11.242   0.439 -0.3132  2.6150  2.2878
  938MOL0     H23780   7.973  11.690   0.134  0.0466  0.7183 -2.3367
  938MOL0     H23781   8.166  11.678   0.003 -3.0699  0.9692  1.2778
  938MOL0     H23782   8.215  11.328  -0.206  0.2178  2.7754 -0.1675
  938MOL0     H23783   8.352  11.250  -0.130  2.0428  1.0357 -0.2079
  938MOL0     H23784   8.385  11.323  -0.349  2.1813  0.4902 -1.1475
  938MOL0     H23785   8.514  11.364  -0.234  2.3073  2.7806 -2.5544
  938MOL0     H23786   8.436  11.594  -0.257  0.8349 -2.4146  1.1668
  938MOL0     H23787   8.288  11.573  -0.334  1.3834  0.7055  1.0146
  938MOL0     H23788   8.533  11.467  -0.479 -1.6414 -1.3294 -7.2690
  938MOL0     H23789   8.372  11.478  -0.532 -0.8138 -0.1293  2.5087
  938MOL0     H23790   8.518  11.727  -0.421  2.3250 -1.7636  0.3362
  938MOL0     H23791   8.372  11.728  -0.518  1.3508  0.8689 -2.3964
  938MOL0     H23792   8.476  11.611  -0.724  0.4659 -1.2424  0.8749
  938MOL0     H23793   8.625  11.626  -0.657 -0.6003  0.3650 -0.8169
  938MOL0     H23794   8.439  11.870  -0.678  2.0937  3.9566 -1.5373
  938MOL0     H23795   8.601  11.869  -0.602  2.2548  0.9028 -1.9958
  938MOL0     H23796   8.629  11.950  -0.827  0.7601  0.2788  3.2000
  938MOL0     H23797   8.543  11.806  -0.892  1.4964 -0.9231 -1.2144
  938MOL0     H23798   8.155  11.244   0.056  0.9292  1.1951  0.0459
  938MOL0     H23799   7.972  11.267   0.214  2.6934  0.3433  2.9153
  938MOL0     H23800   7.632  11.533   0.130 -1.3343  2.0677  1.9735
  938MOL0     H23801   7.416  11.466   0.034  1.6025 -1.2107 -0.8938
  938MOL0     H23802   7.302  11.333   1.089 -1.1988  1.4690 -1.3709
  938MOL0     H23803   7.451  11.431   1.255 -2.5573  2.5251 -0.3829
  938MOL0     H23804   8.006  11.415   1.380  2.8692  0.8251  3.8420
  938MOL0     H23805   8.196  11.543   1.442  0.2352  1.3443  0.4332
  938MOL0     H23806   8.359  11.676   1.493 -1.3178 -2.2819  1.3295
  938MOL0     H23807   8.256  11.708   1.633 -0.6764  0.9999 -0.6939
  938MOL0     H23808   8.480  11.798   1.620 -0.5307  0.3678  2.6316
  938MOL0     H23809   8.437  11.909   1.489  0.0865  0.2317  0.0237
  938MOL0     H23810   8.224  11.942   1.682 -0.0968 -2.1997  4.0088
  938MOL0     H23811   8.323  12.067   1.631 -0.7320  0.9739  1.6790
  938MOL0     H23812   8.519  11.984   1.783  0.4102 -2.7937  2.2397
  938MOL0     H23813   8.399  12.098   1.845  2.1367 -0.7215  0.4896
  938MOL0     H23814   8.330  11.771   2.083 -2.8456 -1.8667 -2.4347
  938MOL0     H23815   8.006  11.907   1.320  1.9114 -0.5086  2.2808
  938MOL0     H23816   7.826  11.763   1.208  0.4818  0.1243 -0.9627
  939MOL0     O23817   1.748   3.344  10.978 -0.5158 -0.2900  0.8293
  939MOL0     C23818   1.864   3.316  10.941  0.3561  0.4035  0.1556
  939MOL0     O23819   1.899   3.287  10.810  0.1559 -0.5006 -0.9690
  939MOL0     C23820   1.811   3.325  10.720  0.6879 -0.0171 -0.3133
  939MOL0     C23821   1.786   3.459  10.701  0.3068  0.0838  0.2737
  939MOL0     C23822   1.696   3.501  10.604  0.1665  0.4909 -0.1030
  939MOL0     C23823   1.620   3.412  10.521  0.7537  0.6180 -0.2974
  939MOL0     O23824   1.525   3.447  10.428 -0.1591  0.0729  0.3396
  939MOL0     C23825   1.567   3.545  10.327  0.4008 -0.6126 -0.2241
  939MOL0     C23826   1.615   3.484  10.191 -0.2256  0.6745 -0.9982
  939MOL0     C23827   1.518   3.384  10.126  0.1549 -0.0391 -0.1212
  939MOL0     C23828   1.395   3.454  10.067  0.1690  0.3384  0.5454
  939MOL0     C23829   1.386   3.407   9.916 -0.0888 -1.0743 -0.6760
  939MOL0     C23830   1.486   3.493   9.834  0.9014  0.0899 -0.6507
  939MOL0     C23831   1.417   3.605   9.748 -0.0080 -0.1823  0.1282
  939MOL0     C23832   1.519   3.714   9.703  0.7628  1.2338 -0.5303
  939MOL0     N23833   1.595   3.662   9.587  0.5316  0.0059 -0.1837
  939MOL0     C23834   1.541   3.651   9.461  0.1861  0.2482 -0.0133
  939MOL0     C23835   1.631   3.577   9.392  0.2446  1.0430  0.4352
  939MOL0     C23836   1.624   3.534   9.247  0.3373 -1.2791  0.5896
  939MOL0     C23837   1.740   3.448   9.181 -0.1977 -0.0786  0.1052
  939MOL0     C23838   1.728   3.429   9.029 -0.2263 -0.0221  0.2720
  939MOL0     C23839   1.842   3.360   8.963  0.5234  0.1473 -0.3841
  939MOL0     O23840   1.965   3.396   9.030 -0.1855 -0.6992 -1.1535
  939MOL0     C23841   2.083   3.325   8.982  0.3777  0.2620 -0.4364
  939MOL0     C23842   2.077   3.247   8.862 -0.2390  0.3980  0.0981
  939MOL0     C23843   2.190   3.177   8.818 -0.2530 -0.3171 -0.1313
  939MOL0     C23844   2.312   3.183   8.896  0.9258  0.4478 -0.0475
  939MOL0     C23845   2.435   3.110   8.852  0.6059 -0.3475 -0.0534
  939MOL0     O23846   2.434   3.072   8.721 -0.0842  0.8089 -0.3879
  939MOL0     C23847   2.546   2.999   8.690 -0.0527 -0.4565  0.5348
  939MOL0     C23848   2.629   3.060   8.596 -0.0669  0.3682  0.4781
  939MOL0     C23849   2.733   2.988   8.541 -0.0343 -0.5741 -0.8776
  939MOL0     C23850   2.757   2.855   8.575 -0.2884  0.3115  0.1885
  939MOL0     O23851   2.858   2.811   8.501  0.0619  1.1273  0.5508
  939MOL0     C23852   2.914   2.682   8.515 -0.3626  0.6791 -0.4569
  939MOL0     C23853   2.986   2.648   8.373 -0.1461  0.0824  0.7102
  939MOL0     C23854   3.072   2.515   8.362 -0.2371  0.6109 -0.1186
  939MOL0     C23855   2.987   2.387   8.385 -0.4719 -0.1773 -0.6160
  939MOL0     C23856   3.070   2.264   8.386 -0.3707 -0.0641 -1.1149
  939MOL0     C23857   3.133   2.224   8.252  1.2069 -0.1849 -0.1950
  939MOL0     C23858   3.039   2.208   8.132  0.3805  0.5727 -0.0805
  939MOL0     C23859   3.098   2.172   8.001  0.3343  1.3695  0.0287
  939MOL0    Cl23860   3.115   1.996   7.989 -0.3945 -0.2313 -0.4218
  939MOL0     C23861   2.666   2.789   8.657  0.0963  0.8390 -0.4984
  939MOL0     C23862   2.560   2.864   8.714 -0.4741 -0.0599 -0.4246
  939MOL0     O23863   2.528   3.078   8.931  0.0429 -0.0236 -0.7044
  939MOL0     C23864   2.314   3.258   9.014 -0.4596 -0.0034 -0.3590
  939MOL0     C23865   2.200   3.322   9.061 -0.3401 -1.0207 -0.7795
  939MOL0     N23866   1.731   3.546   9.473 -0.8455 -0.1102 -0.5973
  939MOL0     N23867   1.720   3.604   9.589  0.5416  0.2494  0.1688
  939MOL0     C23868   1.637   3.275  10.550 -0.3320 -0.6716 -0.0910
  939MOL0     C23869   1.732   3.229  10.643 -0.3227  0.2937 -0.5044
  939MOL0     C23870   1.963   3.314  11.051 -0.3525  0.2530 -0.2734
  939MOL0     C23871   1.956   3.397  11.167 -0.1954 -0.4785  0.2127
  939MOL0     C23872   2.066   3.419  11.252  0.1523  0.4402 -0.5052
  939MOL0     C23873   2.178   3.330  11.243  0.3813 -1.1309  0.3894
  939MOL0     O23874   2.281   3.364  11.329 -0.5936 -1.3360  0.5256
  939MOL0     C23875   2.397   3.288  11.317 -0.0892  0.2230 -0.6462
  939MOL0     C23876   2.514   3.340  11.407 -0.8732  0.6565  0.2748
  939MOL0     C23877   2.618   3.235  11.416 -0.3656  0.8162  0.5288
  939MOL0     C23878   2.639   3.178  11.550  0.4188  0.2892  0.4247
  939MOL0     C23879   2.652   3.274  11.664 -0.2338  0.3265 -0.2704
  939MOL0     C23880   2.675   3.344  11.759  0.2068 -0.0861  0.0331
  939MOL0     C23881   2.182   3.242  11.136  0.1093  0.9515  0.1657
  939MOL0     C23882   2.078   3.234  11.044 -0.3898 -0.3728 -0.4963
  939MOL0     H23883   1.832   3.538  10.760 -2.3025  2.8587 -1.1450
  939MOL0     H23884   1.675   3.607  10.600 -0.4979  0.4275  1.2229
  939MOL0     H23885   1.643   3.605  10.378 -0.7058 -1.0109  2.0321
  939MOL0     H23886   1.485   3.609  10.294  0.0745 -0.9534 -0.0887
  939MOL0     H23887   1.701   3.421  10.215  0.9605 -0.0355 -5.9761
  939MOL0     H23888   1.642   3.565  10.122 -2.1895  3.8170  1.6462
  939MOL0     H23889   1.484   3.311  10.200 -0.7886 -0.6383 -1.1082
  939MOL0     H23890   1.570   3.328  10.048 -0.7662 -1.3692  0.1792
  939MOL0     H23891   1.306   3.412  10.116  0.3632  0.1255  0.7162
  939MOL0     H23892   1.381   3.562  10.079 -0.1545  0.0086  4.3536
  939MOL0     H23893   1.283   3.431   9.887 -0.7555 -0.8149  1.6970
  939MOL0     H23894   1.394   3.299   9.908  0.3788 -1.1821  0.9667
  939MOL0     H23895   1.541   3.425   9.769  1.3357 -0.6732  0.4904
  939MOL0     H23896   1.550   3.548   9.903  0.1699  0.9668 -0.6420
  939MOL0     H23897   1.373   3.556   9.661  0.2124  1.2474 -0.8202
  939MOL0     H23898   1.339   3.656   9.806  0.3727  1.0145 -0.3877
  939MOL0     H23899   1.581   3.740   9.788 -1.8144  5.5829  0.3113
  939MOL0     H23900   1.472   3.812   9.690  1.9500  1.5270 -3.5188
  939MOL0     H23901   1.448   3.700   9.435  0.5063  0.5176 -0.6871
  939MOL0     H23902   1.623   3.632   9.198 -0.7446 -0.2839  2.4759
  939MOL0     H23903   1.526   3.492   9.223 -0.3745  0.4504  0.2670
  939MOL0     H23904   1.736   3.350   9.231  3.1879 -0.2659  0.1979
  939MOL0     H23905   1.839   3.483   9.209  0.2557  0.2348 -1.7728
  939MOL0     H23906   1.637   3.375   8.999  0.0467 -0.7220  0.6787
  939MOL0     H23907   1.723   3.531   8.990 -0.8472  0.7076  2.1810
  939MOL0     H23908   1.839   3.375   8.855  2.1959 -0.4287 -0.5444
  939MOL0     H23909   1.831   3.252   8.979  1.1256  0.0233 -0.7941
  939MOL0     H23910   1.989   3.255   8.800 -0.0118  0.2033 -0.2590
  939MOL0     H23911   2.186   3.111   8.732  2.2018 -1.6131  0.6820
  939MOL0     H23912   2.606   3.160   8.562  0.4712  0.5934  0.7614
  939MOL0     H23913   2.806   3.030   8.471 -2.5573 -0.0650 -3.3678
  939MOL0     H23914   2.835   2.620   8.558  0.1543  1.2703  1.4022
  939MOL0     H23915   2.997   2.686   8.586 -2.4418  1.5169  2.1004
  939MOL0     H23916   3.059   2.723   8.341  3.0396 -2.4586  1.5058
  939MOL0     H23917   2.911   2.619   8.299  1.0237 -4.0138  0.9137
  939MOL0     H23918   3.163   2.518   8.423  0.8180  0.9569 -1.6486
  939MOL0     H23919   3.106   2.520   8.258 -0.6943  1.4998 -0.2380
  939MOL0     H23920   2.936   2.408   8.480 -0.4254 -0.5954 -0.4942
  939MOL0     H23921   2.911   2.386   8.307  0.1833  1.4048 -1.3076
  939MOL0     H23922   3.008   2.181   8.422  2.1234 -0.7837  1.9154
  939MOL0     H23923   3.153   2.272   8.457 -3.1242 -0.9657  2.5216
  939MOL0     H23924   3.171   2.124   8.270 -0.2359 -0.2680  3.0720
  939MOL0     H23925   3.216   2.289   8.223  1.8503 -1.1756 -0.5843
  939MOL0     H23926   2.955   2.140   8.152  3.3913 -3.7955 -0.9380
  939MOL0     H23927   3.000   2.307   8.108  4.1892  1.4955 -3.4977
  939MOL0     H23928   3.194   2.223   7.999  0.8832  0.4594  1.5475
  939MOL0     H23929   3.037   2.198   7.913  0.7599 -0.8426 -1.0065
  939MOL0     H23930   2.672   2.683   8.681 -4.5383 -0.8056 -4.9559
  939MOL0     H23931   2.489   2.819   8.784 -1.0986  1.8798  0.2649
  939MOL0     H23932   2.398   3.265   9.083 -1.1461  0.6177  0.4334
  939MOL0     H23933   2.190   3.381   9.151 -3.9070 -2.2397 -0.2363
  939MOL0     H23934   1.585   3.194  10.499 -0.1488 -1.6483  1.2442
  939MOL0     H23935   1.734   3.123  10.669 -0.5879 -0.2449 -2.4874
  939MOL0     H23936   1.864   3.451  11.187 -0.2880 -1.3931  2.6442
  939MOL0     H23937   2.060   3.494  11.330  0.9641  2.2177 -2.0608
  939MOL0     H23938   2.446   3.281  11.220  0.0166 -0.6196 -0.5422
  939MOL0     H23939   2.374   3.186  11.348 -1.3101  0.0475 -2.0411
  939MOL0     H23940   2.562   3.429  11.365  0.2428  0.1890  0.5057
  939MOL0     H23941   2.480   3.359  11.509  4.7695  1.0701  2.4579
  939MOL0     H23942   2.709   3.281  11.377 -0.2339 -0.4874 -0.7945
  939MOL0     H23943   2.600   3.153  11.345  1.1657  0.1493  0.8729
  939MOL0     H23944   2.555   3.109  11.562 -1.0995  1.7737 -1.1742
  939MOL0     H23945   2.727   3.113  11.555 -0.2913 -0.6117  5.1519
  939MOL0     H23946   2.689   3.417  11.836 -1.2507  2.2540 -1.7586
  939MOL0     H23947   2.264   3.171  11.129 -2.9584 -3.3046  2.3867
  939MOL0     H23948   2.090   3.189  10.946 -1.6973  1.0224 -1.3254
  940MOL0     O23949  11.047   1.546   4.955 -0.1376 -0.0939 -1.0451
  940MOL0     C23950  11.100   1.532   5.068  0.6356 -1.1008 -0.0152
  940MOL0     O23951  11.197   1.433   5.106  0.0405  0.7168 -0.2447
  940MOL0     C23952  11.275   1.370   5.015 -0.0549  0.2095  0.1094
  940MOL0     C23953  11.404   1.418   4.976  0.1968  0.1387 -0.1951
  940MOL0     C23954  11.485   1.341   4.892 -0.1898 -0.0716 -0.6506
  940MOL0     C23955  11.439   1.220   4.842  0.3312  0.2519 -0.3161
  940MOL0     O23956  11.527   1.139   4.773  0.0833 -0.4283 -0.0878
  940MOL0     C23957  11.493   1.002   4.737 -0.3088 -1.1367  0.1512
  940MOL0     C23958  11.623   0.929   4.697  0.2772  0.1109 -0.5146
  940MOL0     C23959  11.584   0.783   4.668 -0.5632 -1.4008 -0.2706
  940MOL0     C23960  11.703   0.692   4.695  0.4788  1.4442  0.1205
  940MOL0     C23961  11.820   0.720   4.603  0.0332 -0.4557  0.0234
  940MOL0     C23962  11.779   0.737   4.453  0.7545  0.1407 -0.3415
  940MOL0     C23963  11.885   0.811   4.379 -0.3703 -0.5393  0.3664
  940MOL0     C23964  11.859   0.813   4.223  0.1226  0.8889  1.3179
  940MOL0     N23965  11.856   0.679   4.160 -0.8437  0.7018 -0.3424
  940MOL0     C23966  11.973   0.605   4.127 -0.4109 -0.0787 -1.1900
  940MOL0     C23967  11.929   0.512   4.046  0.3551 -0.4682  0.1238
  940MOL0     C23968  12.020   0.407   3.984 -0.0973  0.0339 -0.0660
  940MOL0     C23969  12.098   0.469   3.862  0.0948  0.3261 -0.4129
  940MOL0     C23970  11.998   0.472   3.741 -0.3085 -0.2190  0.1470
  940MOL0     C23971  12.062   0.556   3.626  0.5924  0.3129  0.1848
  940MOL0     O23972  12.171   0.473   3.584 -0.5786 -0.7407  0.3432
  940MOL0     C23973  12.257   0.548   3.504 -0.4268  0.8358 -0.1377
  940MOL0     C23974  12.372   0.610   3.555 -0.3487  0.8340  0.2880
  940MOL0     C23975  12.471   0.651   3.463 -0.5784 -0.4387  0.1740
  940MOL0     C23976  12.454   0.643   3.321  0.3129 -0.2457 -0.3323
  940MOL0     C23977  12.561   0.701   3.239 -0.5996  0.9636  0.9260
  940MOL0     O23978  12.518   0.738   3.121  0.2790 -0.7138  0.2625
  940MOL0     C23979  12.605   0.784   3.026 -0.2224 -0.8374  0.5968
  940MOL0     C23980  12.586   0.733   2.895 -0.4496 -0.7088 -0.1716
  940MOL0     C23981  12.663   0.773   2.794  0.7814  0.6804  1.0373
  940MOL0     C23982  12.748   0.885   2.812  0.5194  0.9651  0.4733
  940MOL0     O23983  12.829   0.931   2.717  0.0555  0.1836 -0.3272
  940MOL0     C23984  12.759   1.038   2.646 -0.0353 -0.1718 -0.1304
  940MOL0     C23985  12.847   1.166   2.638  0.0922  0.1323  1.7362
  940MOL0     C23986  12.820   1.259   2.509  0.5798  0.3193 -0.0883
  940MOL0     C23987  12.889   1.224   2.379 -0.2991 -0.1641  0.4970
  940MOL0     C23988  12.873   1.331   2.268  0.4001 -0.8938  0.1525
  940MOL0     C23989  12.936   1.296   2.133  0.0898  0.2477  0.3561
  940MOL0     C23990  12.832   1.214   2.043  0.3519 -0.2747 -0.6566
  940MOL0     C23991  12.716   1.293   1.984  0.5901 -0.2699  1.0485
  940MOL0    Cl23992  12.650   1.191   1.840 -0.4538 -0.0587  0.0815
  940MOL0     C23993  12.770   0.931   2.943 -0.2083  0.5799 -0.2458
  940MOL0     C23994  12.698   0.882   3.049 -0.2296  0.7297  0.2819
  940MOL0     O23995  12.677   0.700   3.272 -0.2472  0.8386  0.2819
  940MOL0     C23996  12.339   0.580   3.274  0.2997 -0.1544  0.3768
  940MOL0     C23997  12.240   0.540   3.366  0.4213  0.4031  0.2034
  940MOL0     N23998  11.788   0.531   4.023  0.3610 -0.1438  0.1707
  940MOL0     N23999  11.744   0.624   4.097 -0.1718 -0.2096  0.9014
  940MOL0     C24000  11.321   1.172   4.897  0.6345  0.9223  0.1032
  940MOL0     C24001  11.239   1.241   4.984  0.3462 -0.1807 -0.0854
  940MOL0     C24002  11.066   1.627   5.173 -0.5210  0.0121 -0.5017
  940MOL0     C24003  11.150   1.624   5.296  0.4174 -1.4408 -0.2204
  940MOL0     C24004  11.136   1.726   5.393 -0.1948  0.0812 -0.4521
  940MOL0     C24005  11.032   1.824   5.365 -0.7125 -0.2519 -0.7498
  940MOL0     O24006  10.992   1.931   5.437 -0.0135  0.4758 -0.3770
  940MOL0     C24007  11.086   1.960   5.544  0.3349 -1.2079  0.8625
  940MOL0     C24008  11.043   2.104   5.599  0.1671  0.2619  0.7761
  940MOL0     C24009  11.120   2.119   5.733  0.2571 -0.1915  0.3294
  940MOL0     C24010  11.114   2.261   5.796 -0.3111  0.6259 -0.2021
  940MOL0     C24011  10.980   2.307   5.831  0.5710  0.7579  0.6348
  940MOL0     C24012  10.871   2.356   5.853  0.0940 -0.5019  0.2061
  940MOL0     C24013  10.953   1.816   5.253 -0.5185  0.2694 -0.5395
  940MOL0     C24014  10.967   1.720   5.155 -0.1322 -0.3953  0.4134
  940MOL0     H24015  11.439   1.508   5.026  4.8721 -1.3349 -0.3759
  940MOL0     H24016  11.580   1.386   4.863 -1.3180  5.2323  2.5062
  940MOL0     H24017  11.429   0.999   4.649  3.1919 -2.9581 -2.6005
  940MOL0     H24018  11.454   0.946   4.822 -2.3680  0.0563  0.0620
  940MOL0     H24019  11.699   0.917   4.774 -0.1298  2.4139  0.3197
  940MOL0     H24020  11.676   0.972   4.612 -1.4492 -1.1447 -2.3020
  940MOL0     H24021  11.541   0.785   4.567 -2.6477  1.8588  0.5323
  940MOL0     H24022  11.511   0.755   4.745  1.4743  1.2578  2.8615
  940MOL0     H24023  11.739   0.695   4.798  2.6408 -1.7353 -0.3860
  940MOL0     H24024  11.671   0.589   4.675 -1.2970  2.0911 -0.5530
  940MOL0     H24025  11.899   0.646   4.619 -0.3962 -0.9752 -0.2476
  940MOL0     H24026  11.861   0.816   4.637 -1.0571  0.7678 -1.9539
  940MOL0     H24027  11.687   0.790   4.427  1.7593  3.0314  1.5006
  940MOL0     H24028  11.760   0.640   4.405 -0.1955 -0.4496  1.1360
  940MOL0     H24029  11.899   0.914   4.412  0.2184 -0.0044 -1.4261
  940MOL0     H24030  11.980   0.758   4.389 -1.6280 -3.7251 -2.7024
  940MOL0     H24031  11.937   0.864   4.165  2.1267 -0.3499  2.7600
  940MOL0     H24032  11.770   0.872   4.200  0.8923  1.1203 -1.3946
  940MOL0     H24033  12.073   0.613   4.168  0.4833 -2.0849 -2.7967
  940MOL0     H24034  11.959   0.330   3.937 -0.7663  0.2795  0.3830
  940MOL0     H24035  12.079   0.353   4.058 -1.3371 -1.2940 -0.0085
  940MOL0     H24036  12.185   0.409   3.833  0.7449  1.4280 -0.7941
  940MOL0     H24037  12.138   0.567   3.892  2.4998 -0.4359 -0.8961
  940MOL0     H24038  11.990   0.368   3.709  0.3827 -0.5682  1.0813
  940MOL0     H24039  11.904   0.516   3.777 -0.2292  0.4128 -0.3960
  940MOL0     H24040  12.076   0.659   3.661 -4.4937  1.4715 -0.3617
  940MOL0     H24041  11.992   0.563   3.542 -0.3963  0.5206  1.0108
  940MOL0     H24042  12.368   0.608   3.664 -2.3163 -0.7326  0.2555
  940MOL0     H24043  12.562   0.693   3.505 -0.3540 -0.0943 -0.6438
  940MOL0     H24044  12.521   0.647   2.887  0.4894 -1.3071 -1.7498
  940MOL0     H24045  12.666   0.713   2.703  0.4490  0.3612  1.2357
  940MOL0     H24046  12.665   1.065   2.695  0.4528  1.0681  0.1576
  940MOL0     H24047  12.735   1.005   2.545  1.9078 -1.4868 -0.2208
  940MOL0     H24048  12.949   1.127   2.633  1.3132  2.8374  3.1239
  940MOL0     H24049  12.837   1.226   2.729 -1.2089 -1.6073  2.7797
  940MOL0     H24050  12.829   1.366   2.531 -0.1122 -0.0291  2.1633
  940MOL0     H24051  12.715   1.245   2.480  0.3761 -1.3501  1.3354
  940MOL0     H24052  12.995   1.210   2.401 -0.6958  0.1544  2.8146
  940MOL0     H24053  12.846   1.132   2.337 -2.9830  1.2314 -0.0045
  940MOL0     H24054  12.905   1.431   2.299 -2.4873  1.6181 -4.0131
  940MOL0     H24055  12.765   1.344   2.263  0.6270  0.9648 -0.7940
  940MOL0     H24056  13.025   1.234   2.142  0.0655  0.2853  0.9094
  940MOL0     H24057  12.963   1.383   2.073  3.0185  0.7097  2.1868
  940MOL0     H24058  12.903   1.189   1.963  0.9068 -1.0590  0.0565
  940MOL0     H24059  12.804   1.119   2.089  2.2054 -2.3794 -3.5096
  940MOL0     H24060  12.752   1.389   1.946 -2.7666  0.8313  0.3216
  940MOL0     H24061  12.637   1.304   2.059  0.5946  0.0872  1.0031
  940MOL0     H24062  12.843   1.009   2.957 -1.1074  1.4004 -0.0100
  940MOL0     H24063  12.716   0.923   3.148  0.2888  1.6577 -0.1823
  940MOL0     H24064  12.326   0.576   3.166 -1.3386 -1.4710  0.5773
  940MOL0     H24065  12.149   0.494   3.326  2.0551 -3.0067  0.0045
  940MOL0     H24066  11.280   1.084   4.849  1.2128  0.0306  1.1842
  940MOL0     H24067  11.135   1.213   5.000 -0.5157  0.7413 -3.2170
  940MOL0     H24068  11.224   1.549   5.321  2.0583  0.0591 -0.3619
  940MOL0     H24069  11.191   1.717   5.486  0.6752  0.7875 -0.8845
  940MOL0     H24070  11.186   1.960   5.500 -0.8304 -2.0914 -2.0027
  940MOL0     H24071  11.087   1.880   5.619 -0.6307 -2.7267 -0.6899
  940MOL0     H24072  11.076   2.174   5.522 -1.5624  1.0369  0.6994
  940MOL0     H24073  10.935   2.104   5.613  0.0662 -4.1052  1.4348
  940MOL0     H24074  11.225   2.103   5.706  0.6332  0.2756  1.4644
  940MOL0     H24075  11.076   2.052   5.808 -2.5750 -0.6732 -1.6139
  940MOL0     H24076  11.167   2.250   5.891  0.7749 -2.2608 -1.0506
  940MOL0     H24077  11.162   2.329   5.725 -0.8066  0.0485 -1.1025
  940MOL0     H24078  10.781   2.410   5.875 -0.9396 -2.8976  2.4426
  940MOL0     H24079  10.875   1.890   5.243 -1.8254 -1.3254 -3.3017
  940MOL0     H24080  10.905   1.711   5.067  1.5523  1.3391 -1.0284
  941MOL0     O24081   4.326  10.185   5.306  0.6276  0.2946  0.0874
  941MOL0     C24082   4.368  10.182   5.423 -0.6447  0.9616  0.9081
  941MOL0     O24083   4.495  10.165   5.456 -0.2697 -0.3933 -0.6682
  941MOL0     C24084   4.593  10.150   5.363  0.8653  0.6055 -0.9550
  941MOL0     C24085   4.677  10.037   5.359  0.3203  0.4081  0.2338
  941MOL0     C24086   4.789  10.051   5.277  0.0138 -0.2190 -0.2866
  941MOL0     C24087   4.807  10.161   5.190  0.6909 -0.0241  0.6413
  941MOL0     O24088   4.925  10.155   5.113  0.4249  0.2216 -0.5419
  941MOL0     C24089   4.999  10.268   5.063 -0.0002 -0.7205  0.9239
  941MOL0     C24090   5.146  10.220   5.060 -0.8160 -0.8216 -0.9880
  941MOL0     C24091   5.188  10.190   5.201  0.3757 -0.1444  0.1119
  941MOL0     C24092   5.338  10.186   5.219 -0.4925  0.4925 -1.0980
  941MOL0     C24093   5.376  10.125   5.352 -0.5817 -0.5343 -0.1751
  941MOL0     C24094   5.528  10.129   5.365  0.0488  0.1748  0.1179
  941MOL0     C24095   5.569  10.051   5.491 -0.4313  0.0184 -1.0106
  941MOL0     C24096   5.718  10.048   5.516  0.0205  0.7793 -0.5722
  941MOL0     N24097   5.747   9.999   5.654  0.1134 -0.1934  0.8230
  941MOL0     C24098   5.704   9.875   5.697 -0.0225 -0.4893 -0.0257
  941MOL0     C24099   5.754   9.856   5.819  0.4156  0.0996  0.5352
  941MOL0     C24100   5.746   9.730   5.889 -0.6098  0.7691 -0.6809
  941MOL0     C24101   5.777   9.720   6.040 -0.1684 -0.2863 -0.1093
  941MOL0     C24102   5.910   9.660   6.064 -0.7178 -0.4577  0.0024
  941MOL0     C24103   5.923   9.502   6.069 -0.0337 -0.6889  0.2098
  941MOL0     O24104   5.822   9.446   5.981  0.0154 -0.3073 -0.0781
  941MOL0     C24105   5.785   9.316   6.008 -0.0037  0.2828 -0.5639
  941MOL0     C24106   5.849   9.229   6.092 -0.4065  0.4813  0.3168
  941MOL0     C24107   5.798   9.107   6.104 -0.3905  0.0223 -0.5705
  941MOL0     C24108   5.683   9.068   6.046  0.5264 -0.4368 -0.6522
  941MOL0     C24109   5.646   8.924   6.069  0.3876 -0.4467  0.6553
  941MOL0     O24110   5.510   8.884   6.046 -0.1159  0.3068 -0.3808
  941MOL0     C24111   5.494   8.752   6.069 -0.1741 -0.8969  1.0399
  941MOL0     C24112   5.421   8.700   6.172 -0.8686 -0.1436 -0.3829
  941MOL0     C24113   5.423   8.561   6.195  0.3106  0.2785  0.4431
  941MOL0     C24114   5.489   8.469   6.111  0.5498 -0.0537  0.1360
  941MOL0     O24115   5.486   8.342   6.149  0.3331 -0.1809 -0.6173
  941MOL0     C24116   5.361   8.276   6.131  0.0095  1.4455  0.0885
  941MOL0     C24117   5.335   8.168   6.246 -0.3097 -0.2996 -0.2605
  941MOL0     C24118   5.193   8.107   6.243 -0.0853 -0.8205 -0.3360
  941MOL0     C24119   5.173   8.009   6.356 -1.2381  0.3905  0.1903
  941MOL0     C24120   5.251   7.877   6.321 -0.7712 -0.3615  0.0248
  941MOL0     C24121   5.193   7.758   6.394 -0.1244  0.3176  0.5971
  941MOL0     C24122   5.222   7.786   6.537 -0.7899 -0.6163 -0.4186
  941MOL0     C24123   5.172   7.663   6.627 -0.3986  1.1412  0.1841
  941MOL0    Cl24124   5.011   7.616   6.595 -0.5064  0.2025  0.1446
  941MOL0     C24125   5.554   8.518   5.999 -0.8363  0.0581  0.5660
  941MOL0     C24126   5.543   8.656   5.970 -0.0981 -0.4471  0.3647
  941MOL0     O24127   5.737   8.847   6.102  0.3308  0.0875 -0.4025
  941MOL0     C24128   5.605   9.159   5.968 -1.2670  0.4392 -0.8152
  941MOL0     C24129   5.661   9.286   5.951  0.1631 -0.9147  0.2506
  941MOL0     N24130   5.821   9.970   5.851  0.2584  0.0675 -1.2720
  941MOL0     N24131   5.814  10.058   5.761  0.2204  0.0268 -0.1802
  941MOL0     C24132   4.729  10.276   5.212 -0.0940 -0.3104  0.5619
  941MOL0     C24133   4.613  10.263   5.285 -0.1283 -0.9589  0.3374
  941MOL0     C24134   4.268  10.195   5.534 -1.0294 -0.2401  0.3641
  941MOL0     C24135   4.137  10.249   5.513 -0.1360  0.0667  0.0837
  941MOL0     C24136   4.048  10.264   5.624  0.0827  0.0569 -0.2896
  941MOL0     C24137   4.086  10.207   5.749  0.6703 -0.1552 -0.8262
  941MOL0     O24138   4.003  10.230   5.857 -0.5629  0.8800  0.5369
  941MOL0     C24139   4.007  10.129   5.962  0.9543 -0.7687 -0.4488
  941MOL0     C24140   3.885  10.149   6.052  0.9016 -0.0140  0.4860
  941MOL0     C24141   3.898  10.278   6.135 -0.6785 -0.7241 -0.1021
  941MOL0     C24142   3.771  10.326   6.224 -0.9643 -0.2638  0.1087
  941MOL0     C24143   3.651  10.374   6.155 -0.4180  1.3194 -0.4209
  941MOL0     C24144   3.561  10.440   6.116  0.1620  0.4081 -0.6442
  941MOL0     C24145   4.216  10.159   5.770 -0.0830 -0.1805 -0.6131
  941MOL0     C24146   4.301  10.161   5.664 -0.8260  1.3709  0.1481
  941MOL0     H24147   4.650   9.946   5.412  3.3233 -1.0891 -0.5405
  941MOL0     H24148   4.855   9.966   5.286 -0.6191 -0.5170  2.6537
  941MOL0     H24149   5.004  10.353   5.131  5.0841  0.2158 -0.2558
  941MOL0     H24150   4.964  10.300   4.964 -0.5107 -1.4040  0.8756
  941MOL0     H24151   5.210  10.298   5.017 -0.0697 -0.1410  1.2389
  941MOL0     H24152   5.140  10.134   4.993 -0.0840 -0.3894 -1.6232
  941MOL0     H24153   5.154  10.091   5.233  1.6171 -0.7325 -0.3448
  941MOL0     H24154   5.144  10.265   5.267 -0.4350 -0.6766  0.2042
  941MOL0     H24155   5.385  10.126   5.140  1.6457  1.1872 -0.4284
  941MOL0     H24156   5.378  10.288   5.219 -2.0641  1.1565  0.4331
  941MOL0     H24157   5.331  10.027   5.367 -2.6100  0.1734 -1.2936
  941MOL0     H24158   5.347  10.195   5.431  1.8289 -0.5508  0.8300
  941MOL0     H24159   5.567  10.228   5.386  0.9661 -0.7418  3.4291
  941MOL0     H24160   5.578  10.078   5.282  0.3662 -0.6852  0.8105
  941MOL0     H24161   5.512  10.095   5.574  1.5819 -0.7431  0.8770
  941MOL0     H24162   5.537   9.947   5.486 -2.5598  0.3365  2.5175
  941MOL0     H24163   5.762  10.144   5.489  2.0145  0.2359  0.5789
  941MOL0     H24164   5.766   9.971   5.455  3.3838  0.7631  1.8014
  941MOL0     H24165   5.642   9.801   5.648 -0.6025  0.1938 -0.3378
  941MOL0     H24166   5.803   9.653   5.836  0.5708  0.5549  0.8118
  941MOL0     H24167   5.638   9.713   5.879 -1.0719  3.4637 -1.0498
  941MOL0     H24168   5.691   9.663   6.076 -1.6527 -0.6495 -3.7996
  941MOL0     H24169   5.777   9.818   6.087 -0.0800  0.0405 -0.7698
  941MOL0     H24170   5.984   9.702   5.995  1.3820 -1.0654  1.7491
  941MOL0     H24171   5.937   9.697   6.164 -1.5742 -3.9714  1.6836
  941MOL0     H24172   5.897   9.483   6.174 -1.8364 -0.3135 -0.1285
  941MOL0     H24173   6.024   9.466   6.048  0.4067 -1.1439  2.7226
  941MOL0     H24174   5.936   9.246   6.154 -0.9177 -2.6228  2.1203
  941MOL0     H24175   5.846   9.036   6.171 -4.6031 -1.8431  0.8324
  941MOL0     H24176   5.356   8.761   6.234  0.5562  3.1173 -1.8795
  941MOL0     H24177   5.362   8.522   6.276 -0.5224 -0.6987 -0.6279
  941MOL0     H24178   5.363   8.228   6.033 -1.9156 -1.2722  1.2516
  941MOL0     H24179   5.282   8.351   6.125  0.8095  2.2105 -1.8893
  941MOL0     H24180   5.346   8.221   6.341  3.6720  1.5344 -1.5112
  941MOL0     H24181   5.406   8.086   6.236 -1.0482 -0.8343 -1.4584
  941MOL0     H24182   5.185   8.052   6.149 -0.9232 -1.1121 -0.0981
  941MOL0     H24183   5.115   8.184   6.244 -0.0287 -0.7150  2.1724
  941MOL0     H24184   5.217   8.048   6.448  1.4595 -1.1707 -0.2938
  941MOL0     H24185   5.066   7.986   6.360 -1.3884  1.2989  2.5109
  941MOL0     H24186   5.355   7.884   6.355 -0.5450 -5.1170  1.0685
  941MOL0     H24187   5.244   7.844   6.217  1.2472 -1.1133  0.0806
  941MOL0     H24188   5.242   7.665   6.365 -0.7491  0.2089 -0.1481
  941MOL0     H24189   5.085   7.746   6.381  0.3045 -0.7470 -3.3991
  941MOL0     H24190   5.329   7.799   6.552 -0.4898 -2.6833 -0.3882
  941MOL0     H24191   5.168   7.876   6.568  0.7673  0.1265  0.2264
  941MOL0     H24192   5.180   7.677   6.735  0.1885 -0.9042  0.4601
  941MOL0     H24193   5.229   7.570   6.615 -2.9186 -0.8761  2.3625
  941MOL0     H24194   5.609   8.461   5.926  1.3899  3.1531 -0.3830
  941MOL0     H24195   5.601   8.692   5.886  0.3668  1.7903  1.5781
  941MOL0     H24196   5.515   9.130   5.914 -1.6737  0.9122 -0.3922
  941MOL0     H24197   5.604   9.361   5.897 -1.1724 -3.1953 -1.6547
  941MOL0     H24198   4.742  10.366   5.152 -0.3396 -1.3160 -1.0806
  941MOL0     H24199   4.540  10.344   5.286  1.5674  0.6500 -0.5617
  941MOL0     H24200   4.104  10.295   5.421 -0.6304 -1.0247 -0.2985
  941MOL0     H24201   3.943  10.286   5.605  0.6317  1.2668 -2.2706
  941MOL0     H24202   4.100  10.130   6.019 -0.3342  1.0427  1.7968
  941MOL0     H24203   4.001  10.025   5.928  0.3788 -1.3993  1.4985
  941MOL0     H24204   3.796  10.144   5.990  0.3536  1.8569  1.0679
  941MOL0     H24205   3.875  10.070   6.128  1.7723 -1.4052 -0.7728
  941MOL0     H24206   3.918  10.359   6.064  0.8046  0.5773  1.6988
  941MOL0     H24207   3.983  10.255   6.200 -0.9702 -0.4300  0.3837
  941MOL0     H24208   3.750  10.253   6.302  0.2750  2.0489  2.7930
  941MOL0     H24209   3.804  10.407   6.290 -1.6124 -0.8026  1.1244
  941MOL0     H24210   3.496  10.520   6.086 -0.3985  0.7201  1.2613
  941MOL0     H24211   4.240  10.122   5.869 -0.8506  1.1617  0.1051
  941MOL0     H24212   4.403  10.129   5.684  0.5247  3.6388 -2.4741
  942MOL0     O24213   9.740  10.024   3.197  0.6654 -0.9105  0.1220
  942MOL0     C24214   9.742  10.005   3.074 -1.6461  0.3617 -0.0180
  942MOL0     O24215   9.785  10.100   2.980 -0.1895  0.3090 -0.6659
  942MOL0     C24216   9.830  10.229   3.021  0.3659  0.8432  1.5207
  942MOL0     C24217   9.944  10.273   2.948 -0.3219  0.0249  0.9738
  942MOL0     C24218   9.987  10.398   2.974  0.4629  1.2949 -0.1581
  942MOL0     C24219   9.914  10.485   3.056  0.5834 -0.1593  0.4341
  942MOL0     O24220   9.952  10.611   3.087  0.4420 -0.9269  0.2955
  942MOL0     C24221   9.969  10.709   2.982 -0.0139  0.4535  0.3867
  942MOL0     C24222   9.991  10.855   3.025  0.6161 -0.5680  0.2200
  942MOL0     C24223  10.108  10.846   3.116 -0.8398 -0.9157  0.3963
  942MOL0     C24224  10.158  10.988   3.154  0.0916 -0.0782  1.1235
  942MOL0     C24225  10.062  11.072   3.245  0.2233 -0.6998  0.5855
  942MOL0     C24226  10.116  11.212   3.281  0.0293 -0.1352 -0.2212
  942MOL0     C24227  10.036  11.277   3.397  0.0106  0.0530  1.2061
  942MOL0     C24228   9.903  11.326   3.340 -0.8156 -0.4607 -0.2174
  942MOL0     N24229   9.867  11.453   3.406  0.8005 -0.3375 -0.1636
  942MOL0     C24230   9.946  11.542   3.476  0.6431 -0.8801  0.8856
  942MOL0     C24231   9.862  11.621   3.551 -0.2351 -0.7387  0.8077
  942MOL0     C24232   9.898  11.734   3.653 -0.9071 -0.2356  0.4458
  942MOL0     C24233   9.786  11.760   3.752  0.6385 -0.6354  1.1642
  942MOL0     C24234   9.728  11.629   3.813 -0.7014 -0.0219 -0.2721
  942MOL0     C24235   9.850  11.554   3.884  0.1225 -0.1558 -0.4850
  942MOL0     O24236   9.791  11.444   3.954 -0.1574 -0.1352  0.6289
  942MOL0     C24237   9.784  11.311   3.904 -0.5463 -0.6402  0.0898
  942MOL0     C24238   9.717  11.228   4.000  0.5637 -0.4609  0.6018
  942MOL0     C24239   9.712  11.093   3.961 -0.3396 -0.4475  0.0724
  942MOL0     C24240   9.761  11.046   3.839  0.0585 -0.1821  0.4934
  942MOL0     C24241   9.743  10.891   3.818 -0.1414 -0.4876  0.7946
  942MOL0     O24242   9.804  10.848   3.705 -0.5565  0.4159 -1.0081
  942MOL0     C24243   9.833  10.723   3.667 -0.4181  0.4269  0.2971
  942MOL0     C24244   9.819  10.615   3.751 -0.1984  0.3624  0.5299
  942MOL0     C24245   9.860  10.490   3.699  0.5475 -0.2790  0.0879
  942MOL0     C24246   9.902  10.471   3.565  0.2140  0.2413 -1.3998
  942MOL0     O24247   9.914  10.349   3.500 -0.5580 -0.2673 -0.0986
  942MOL0     C24248   9.890  10.232   3.574 -0.4817 -0.7046 -0.6054
  942MOL0     C24249   9.900  10.111   3.481  0.3952 -0.5181  0.1557
  942MOL0     C24250   9.888   9.982   3.565 -0.3340 -0.1791  0.0863
  942MOL0     C24251   9.893   9.858   3.478 -0.7497  0.5572 -0.1514
  942MOL0     C24252   9.838   9.744   3.559  0.5076  0.7643  0.1650
  942MOL0     C24253   9.826   9.607   3.484 -0.2463 -0.4114  0.2636
  942MOL0     C24254   9.679   9.585   3.437  0.2689 -0.2466  0.0556
  942MOL0     C24255   9.633   9.431   3.428  0.6584  0.0232  0.0760
  942MOL0    Cl24256   9.494   9.418   3.310 -0.0221  0.3468 -0.0331
  942MOL0     C24257   9.918  10.581   3.483 -0.1469 -0.1942 -0.9202
  942MOL0     C24258   9.878  10.706   3.535  0.6507 -0.3756  0.8495
  942MOL0     O24259   9.671  10.829   3.889  0.0497 -0.6536 -0.3397
  942MOL0     C24260   9.819  11.133   3.743 -0.5654 -0.0264  0.1461
  942MOL0     C24261   9.832  11.266   3.777 -0.5296 -0.1971 -0.2998
  942MOL0     N24262   9.737  11.596   3.497  0.2354  0.0966  0.1793
  942MOL0     N24263   9.736  11.495   3.410 -0.5160 -0.9504 -0.6537
  942MOL0     C24264   9.800  10.439   3.120 -0.2684 -0.6103  0.4301
  942MOL0     C24265   9.750  10.312   3.098  0.1516  0.0024  0.1710
  942MOL0     C24266   9.710   9.871   3.030 -0.2066 -0.1051 -0.5214
  942MOL0     C24267   9.668   9.860   2.900 -0.1420 -0.4139  0.2057
  942MOL0     C24268   9.624   9.734   2.844 -0.5077 -0.1339  0.2380
  942MOL0     C24269   9.615   9.619   2.924  0.0477 -0.3674  0.7231
  942MOL0     O24270   9.582   9.510   2.858 -0.4323  0.8811  0.4262
  942MOL0     C24271   9.485   9.421   2.916 -0.1424  0.6842 -0.2414
  942MOL0     C24272   9.559   9.281   2.909  0.0629  1.3070 -0.4211
  942MOL0     C24273   9.464   9.163   2.936 -0.0606  0.2477  0.5171
  942MOL0     C24274   9.395   9.159   3.064  0.6122 -0.3246  0.2907
  942MOL0     C24275   9.296   9.045   3.049 -0.8477 -0.6367 -0.2400
  942MOL0     C24276   9.209   8.958   3.044 -0.6899  0.6447 -0.4393
  942MOL0     C24277   9.663   9.625   3.050  0.8515  0.4754 -0.9207
  942MOL0     C24278   9.711   9.753   3.106  0.9290 -0.5191  0.6163
  942MOL0     H24279  10.006  10.228   2.872  0.3227  3.1867 -0.5479
  942MOL0     H24280  10.070  10.440   2.919 -1.1147  4.3128 -0.4403
  942MOL0     H24281   9.872  10.709   2.933 -1.1895 -0.2392  2.5716
  942MOL0     H24282  10.038  10.675   2.904  0.4039 -1.3512  1.4714
  942MOL0     H24283   9.904  10.888   3.082  1.6442 -1.9444  2.7359
  942MOL0     H24284  10.008  10.918   2.937  0.1729 -1.3805 -0.4610
  942MOL0     H24285  10.189  10.800   3.059  0.4843  2.0180 -0.2324
  942MOL0     H24286  10.099  10.777   3.201 -0.1892 -4.2538 -2.0249
  942MOL0     H24287  10.243  10.972   3.221 -0.9361 -1.1447  2.2331
  942MOL0     H24288  10.180  11.038   3.059 -0.9052  2.1096  1.9565
  942MOL0     H24289  10.036  11.020   3.337 -1.3167  1.2150  1.2950
  942MOL0     H24290   9.970  11.114   3.203 -0.1695  0.3170  2.3731
  942MOL0     H24291  10.111  11.279   3.195  1.4306 -0.6223 -0.7079
  942MOL0     H24292  10.221  11.207   3.313  0.7766  1.0976 -2.2755
  942MOL0     H24293  10.006  11.202   3.471  2.8975 -1.2093  1.2300
  942MOL0     H24294  10.108  11.343   3.446  3.8497 -2.2971 -0.7293
  942MOL0     H24295   9.832  11.244   3.334 -2.2377  0.5656  1.6195
  942MOL0     H24296   9.907  11.354   3.234 -3.6408  0.0122 -0.2625
  942MOL0     H24297  10.053  11.552   3.490  0.5048  0.9369  0.9038
  942MOL0     H24298   9.930  11.823   3.597  0.4987 -2.0941 -1.8689
  942MOL0     H24299   9.983  11.705   3.716 -1.3185 -0.0327  1.1129
  942MOL0     H24300   9.699  11.804   3.701 -1.3779 -0.5292  4.3825
  942MOL0     H24301   9.813  11.837   3.824  1.3563  2.5882 -2.2009
  942MOL0     H24302   9.656  11.653   3.892 -0.9482  0.6372 -0.6837
  942MOL0     H24303   9.672  11.571   3.740  0.9531  0.5466 -2.0597
  942MOL0     H24304   9.899  11.618   3.958 -0.0031  1.5507 -1.8071
  942MOL0     H24305   9.926  11.525   3.810  0.6944  0.4459 -0.1437
  942MOL0     H24306   9.691  11.258   4.101 -1.2379  1.0699 -0.2594
  942MOL0     H24307   9.657  11.026   4.027  1.1491  1.4484  3.5363
  942MOL0     H24308   9.767  10.627   3.846  1.4447  0.9688  1.3909
  942MOL0     H24309   9.878  10.412   3.772  0.2722  0.6335  1.1650
  942MOL0     H24310   9.787  10.237   3.609 -1.3899  0.0390 -3.1655
  942MOL0     H24311   9.960  10.216   3.656  2.2451  1.9028 -2.2024
  942MOL0     H24312   9.991  10.104   3.419  0.5032 -0.0767  0.2585
  942MOL0     H24313   9.816  10.126   3.413  1.3211  0.1281 -0.8743
  942MOL0     H24314   9.793   9.988   3.619 -1.4184  0.7267 -1.8308
  942MOL0     H24315   9.967   9.971   3.641 -2.1110 -0.5347  1.9901
  942MOL0     H24316   9.831   9.857   3.387 -1.7524  0.7307  0.5197
  942MOL0     H24317   9.999   9.848   3.454 -0.2536  0.9205  1.7315
  942MOL0     H24318   9.737   9.770   3.592 -1.6528 -2.6022 -2.9993
  942MOL0     H24319   9.906   9.747   3.644  1.7232 -0.2890 -0.7205
  942MOL0     H24320   9.844   9.530   3.559  0.2337  0.0515  0.6279
  942MOL0     H24321   9.900   9.603   3.404  0.0639  2.2505  0.3350
  942MOL0     H24322   9.601   9.642   3.489 -2.1930 -1.2878 -2.2627
  942MOL0     H24323   9.681   9.623   3.334  1.6222  1.6263  0.7052
  942MOL0     H24324   9.625   9.386   3.528  1.8162  2.3882  1.3074
  942MOL0     H24325   9.721   9.379   3.390  1.5248 -0.0607  2.0328
  942MOL0     H24326   9.972  10.571   3.389  1.2227 -0.5065 -0.1337
  942MOL0     H24327   9.882  10.792   3.468  2.4782 -1.4712 -0.5463
  942MOL0     H24328   9.843  11.104   3.642 -0.5773  0.3597  0.0341
  942MOL0     H24329   9.891  11.331   3.714  0.4944 -1.7027 -0.9541
  942MOL0     H24330   9.745  10.509   3.182  0.4931  0.0621  0.3585
  942MOL0     H24331   9.652  10.290   3.138  1.2296 -2.9398  1.4914
  942MOL0     H24332   9.682   9.947   2.836 -0.7344  0.9638  1.8450
  942MOL0     H24333   9.588   9.719   2.743  2.0384  2.3261 -1.2200
  942MOL0     H24334   9.391   9.427   2.861 -0.9975  0.9842  1.2030
  942MOL0     H24335   9.462   9.443   3.021 -3.6675  0.8731 -0.9296
  942MOL0     H24336   9.613   9.283   2.814 -1.0871  0.2487 -1.1290
  942MOL0     H24337   9.628   9.291   2.993 -3.0509  1.3583  2.3068
  942MOL0     H24338   9.535   9.081   2.927 -0.8554 -0.3665 -0.3897
  942MOL0     H24339   9.389   9.153   2.856  0.7209  1.8369 -0.4672
  942MOL0     H24340   9.459   9.139   3.150 -3.9560 -1.5529  3.8066
  942MOL0     H24341   9.341   9.250   3.091  2.4278  1.0518 -0.5888
  942MOL0     H24342   9.134   8.885   3.024 -1.6999  1.5763 -0.1801
  942MOL0     H24343   9.658   9.549   3.128 -2.5500  0.1606 -1.3041
  942MOL0     H24344   9.758   9.761   3.204 -1.0794  1.3278  1.5308
  943MOL0     O24345   2.371  10.746   6.506  0.2356 -0.8469  0.4129
  943MOL0     C24346   2.372  10.692   6.618  0.1784 -0.8275  0.5583
  943MOL0     O24347   2.292  10.719   6.729 -0.1312  0.8389 -0.1035
  943MOL0     C24348   2.205  10.824   6.721 -0.3812 -0.0412  0.0258
  943MOL0     C24349   2.071  10.809   6.733  0.1351 -0.6311 -1.8459
  943MOL0     C24350   1.982  10.919   6.721 -0.4194  0.2942  1.0240
  943MOL0     C24351   2.034  11.044   6.671 -0.7447  0.2861  0.0512
  943MOL0     O24352   1.949  11.145   6.647  0.9453 -0.4926  0.5891
  943MOL0     C24353   1.949  11.203   6.515 -0.5900 -1.0162 -0.8900
  943MOL0     C24354   1.837  11.296   6.497 -0.1614 -0.7129 -0.0125
  943MOL0     C24355   1.825  11.398   6.617 -0.8200  1.3883 -0.4135
  943MOL0     C24356   1.715  11.502   6.575 -0.6907 -0.2969 -0.8685
  943MOL0     C24357   1.690  11.606   6.680  0.3304 -0.3727  0.6536
  943MOL0     C24358   1.805  11.699   6.719 -0.0965 -0.8764 -1.3235
  943MOL0     C24359   1.760  11.776   6.850 -0.0904 -0.4370  0.4915
  943MOL0     C24360   1.875  11.848   6.925 -0.7957 -0.6085 -0.0482
  943MOL0     N24361   1.914  11.967   6.852 -0.2179  0.1305 -0.7049
  943MOL0     C24362   1.838  12.073   6.822  0.0137 -0.8597  0.3476
  943MOL0     C24363   1.927  12.152   6.750  0.3162  0.7966 -0.5796
  943MOL0     C24364   1.899  12.272   6.670  0.1742  0.1647  0.5680
  943MOL0     C24365   1.913  12.392   6.758  0.0950 -0.6807 -0.2440
  943MOL0     C24366   2.041  12.432   6.828  0.1721 -0.2802 -0.3094
  943MOL0     C24367   2.162  12.465   6.744  0.3153 -0.2151 -0.0777
  943MOL0     O24368   2.130  12.568   6.653  0.5787  0.0414 -0.2425
  943MOL0     C24369   2.196  12.685   6.639  0.4377  0.7169 -0.3639
  943MOL0     C24370   2.125  12.802   6.652 -0.9365 -0.1275 -0.0671
  943MOL0     C24371   2.186  12.931   6.637  0.7713  0.6809  0.3468
  943MOL0     C24372   2.333  12.937   6.616  0.5594  0.5054 -0.2211
  943MOL0     C24373   2.402  13.068   6.621  0.0259  0.2564  0.6349
  943MOL0     O24374   2.320  13.167   6.592  0.5523  0.0587 -0.4007
  943MOL0     C24375   2.381  13.293   6.590 -0.1187  0.0090 -0.7678
  943MOL0     C24376   2.362  13.395   6.685 -0.2825 -0.2745 -0.4127
  943MOL0     C24377   2.414  13.526   6.679  0.3327 -0.2689  0.1457
  943MOL0     C24378   2.496  13.554   6.569 -0.1017 -0.1880  0.1170
  943MOL0     O24379   2.582  13.660   6.570 -0.0857 -0.6857 -0.2351
  943MOL0     C24380   2.718  13.630   6.619 -0.2353 -0.5896 -0.7460
  943MOL0     C24381   2.756  13.760   6.688  0.0262 -0.6627  0.1372
  943MOL0     C24382   2.662  13.801   6.795  0.5863 -0.3855 -0.8906
  943MOL0     C24383   2.663  13.705   6.913 -0.9662 -0.5950 -0.6116
  943MOL0     C24384   2.570  13.744   7.029 -0.1625 -0.3128  0.1576
  943MOL0     C24385   2.480  13.634   7.085  0.1125  0.3461  0.0636
  943MOL0     C24386   2.419  13.661   7.226  0.4889  0.2128  0.6262
  943MOL0     C24387   2.513  13.650   7.342 -0.7958  0.3748  0.7347
  943MOL0    Cl24388   2.439  13.687   7.494 -0.6150  0.6417 -0.1363
  943MOL0     C24389   2.516  13.457   6.475 -0.6999  1.0450  0.2796
  943MOL0     C24390   2.457  13.326   6.479  0.1775  0.7380  0.2906
  943MOL0     O24391   2.517  13.075   6.659 -0.1996  0.3041  0.5752
  943MOL0     C24392   2.408  12.817   6.606 -0.1246 -0.2357  0.9806
  943MOL0     C24393   2.341  12.691   6.617 -0.1492 -0.7856  0.0341
  943MOL0     N24394   2.051  12.096   6.763  0.4352 -0.3851 -0.4031
  943MOL0     N24395   2.042  11.989   6.826  0.6843  0.3150 -0.6662
  943MOL0     C24396   2.169  11.058   6.657  0.2865  0.7809 -0.3929
  943MOL0     C24397   2.256  10.954   6.689 -0.1670 -0.5263 -1.1679
  943MOL0     C24398   2.474  10.594   6.634 -0.0346  0.2441 -0.1082
  943MOL0     C24399   2.495  10.537   6.760 -1.1887 -1.0176 -0.0924
  943MOL0     C24400   2.593  10.435   6.772 -0.7125  0.3015 -0.0055
  943MOL0     C24401   2.656  10.375   6.662  0.0459 -0.9448  0.8233
  943MOL0     O24402   2.729  10.255   6.665  0.1111  0.1903 -0.6902
  943MOL0     C24403   2.741  10.178   6.787 -1.1296  0.0203  0.2422
  943MOL0     C24404   2.781  10.042   6.745 -0.6264 -0.8325  0.7366
  943MOL0     C24405   2.696   9.966   6.629 -0.2328  0.9374  0.5005
  943MOL0     C24406   2.773   9.940   6.491 -0.3080  0.7314  0.5460
  943MOL0     C24407   2.781  10.058   6.401  1.0227  0.2868  0.0855
  943MOL0     C24408   2.799  10.146   6.319 -0.9509 -0.4619 -1.2808
  943MOL0     C24409   2.626  10.427   6.535  1.0020 -0.4737  0.8498
  943MOL0     C24410   2.540  10.542   6.522 -0.9938 -0.1705 -0.3087
  943MOL0     H24411   2.027  10.712   6.750  4.9428 -3.1600 -2.0631
  943MOL0     H24412   1.875  10.904   6.736 -1.0620  1.0449 -2.0831
  943MOL0     H24413   1.930  11.130   6.437  0.2540  1.5351 -3.6695
  943MOL0     H24414   2.044  11.254   6.497  0.1401 -1.8934  0.3579
  943MOL0     H24415   1.747  11.234   6.494 -1.0380  0.4946  0.4115
  943MOL0     H24416   1.841  11.344   6.399 -0.5929  0.5276  0.5567
  943MOL0     H24417   1.922  11.449   6.621 -0.3949  0.6455 -1.0735
  943MOL0     H24418   1.804  11.348   6.712 -0.3754  0.6975 -0.6722
  943MOL0     H24419   1.731  11.543   6.475 -2.2328 -2.4275 -2.0470
  943MOL0     H24420   1.615  11.458   6.564 -0.9490  0.0198  0.1277
  943MOL0     H24421   1.643  11.555   6.765  1.1052  0.0135  1.3185
  943MOL0     H24422   1.620  11.673   6.629 -1.3632 -1.8927  0.8367
  943MOL0     H24423   1.823  11.763   6.632  0.1628 -0.7690 -1.1913
  943MOL0     H24424   1.896  11.641   6.738  1.2244  2.0991  3.0536
  943MOL0     H24425   1.667  11.832   6.840 -2.9757 -4.4128  2.1607
  943MOL0     H24426   1.728  11.691   6.911 -2.5279 -1.0524 -1.5028
  943MOL0     H24427   1.958  11.781   6.948  0.7846  1.8171  1.8538
  943MOL0     H24428   1.840  11.894   7.018 -0.6985 -2.1618  0.7818
  943MOL0     H24429   1.734  12.105   6.833  0.5804  1.4869 -0.5149
  943MOL0     H24430   1.796  12.266   6.633  0.2489  3.5906 -0.5587
  943MOL0     H24431   1.965  12.290   6.585  0.3896  0.5368  0.8150
  943MOL0     H24432   1.843  12.385   6.841 -3.3232  2.3388 -2.5463
  943MOL0     H24433   1.886  12.480   6.699 -0.4861  1.2403  2.7168
  943MOL0     H24434   2.008  12.518   6.887 -2.7812 -1.5190 -0.0052
  943MOL0     H24435   2.068  12.353   6.899 -2.2449 -1.1562 -0.2854
  943MOL0     H24436   2.184  12.374   6.687 -3.1773 -4.3887  4.3749
  943MOL0     H24437   2.249  12.504   6.797  2.0575 -1.0238 -2.2031
  943MOL0     H24438   2.019  12.814   6.669 -0.5416  2.2904  1.1411
  943MOL0     H24439   2.125  13.020   6.647  0.5892  0.4838  1.0654
  943MOL0     H24440   2.309  13.361   6.774  0.9547  0.2327  0.5504
  943MOL0     H24441   2.412  13.601   6.757 -0.8439 -0.8449  0.6986
  943MOL0     H24442   2.782  13.621   6.530 -1.2340 -0.7717 -1.4625
  943MOL0     H24443   2.726  13.537   6.677  0.3067  0.9089  1.7530
  943MOL0     H24444   2.739  13.831   6.606 -0.9380  0.3866  1.1859
  943MOL0     H24445   2.859  13.754   6.723  0.1765  0.8128  0.0231
  943MOL0     H24446   2.554  13.808   6.773  0.1335  0.7589  1.4206
  943MOL0     H24447   2.699  13.901   6.819  0.2640 -0.2237 -1.0585
  943MOL0     H24448   2.624  13.611   6.871  1.2361 -0.4099 -3.3513
  943MOL0     H24449   2.760  13.683   6.957 -1.7786  2.8341  3.6585
  943MOL0     H24450   2.499  13.820   6.997 -0.8647 -0.7004  0.7677
  943MOL0     H24451   2.633  13.793   7.104 -1.5858  1.0469  0.5083
  943MOL0     H24452   2.520  13.533   7.098 -1.9676 -0.6266 -0.5860
  943MOL0     H24453   2.400  13.623   7.010 -0.3593  2.1836  0.2506
  943MOL0     H24454   2.366  13.756   7.236  0.1998  0.1015  0.1885
  943MOL0     H24455   2.353  13.573   7.234  0.5102  0.2163  0.8423
  943MOL0     H24456   2.590  13.725   7.326 -4.0024  3.6663 -0.7075
  943MOL0     H24457   2.550  13.547   7.353 -0.9466  0.3366  0.8924
  943MOL0     H24458   2.591  13.473   6.398  1.1982  0.3317  1.8927
  943MOL0     H24459   2.479  13.260   6.397  2.1413  0.5516  0.9191
  943MOL0     H24460   2.513  12.805   6.581 -0.4470 -2.7101  0.6176
  943MOL0     H24461   2.409  12.608   6.604  1.9906  0.9667 -0.6658
  943MOL0     H24462   2.208  11.153   6.623 -0.1713  0.9638 -0.4021
  943MOL0     H24463   2.362  10.970   6.673 -0.1799 -0.5543 -1.2794
  943MOL0     H24464   2.456  10.584   6.851 -1.1431 -1.1139 -0.0225
  943MOL0     H24465   2.619  10.393   6.869  1.6645 -0.0248 -0.7161
  943MOL0     H24466   2.650  10.175   6.847  0.3751  0.4303  2.7070
  943MOL0     H24467   2.820  10.230   6.843 -1.0461 -0.2938  0.4170
  943MOL0     H24468   2.887  10.039   6.718 -0.4844 -2.6174  1.3404
  943MOL0     H24469   2.774   9.984   6.838  2.4679  0.5975  2.0169
  943MOL0     H24470   2.604  10.021   6.608  1.4933  3.5528 -0.7139
  943MOL0     H24471   2.687   9.863   6.666  2.2689  0.4394 -0.0691
  943MOL0     H24472   2.872   9.907   6.524 -0.5231  0.2794  0.7541
  943MOL0     H24473   2.720   9.864   6.433  1.8825  1.9659 -3.4598
  943MOL0     H24474   2.808  10.232   6.255  0.8512  0.4873  0.1467
  943MOL0     H24475   2.655  10.372   6.447  3.7718  0.0735  1.3298
  943MOL0     H24476   2.523  10.579   6.421  1.1622 -1.0778 -1.0520
  944MOL0     O24477  10.205   9.566   3.593 -0.1771 -0.8458 -0.0334
  944MOL0     C24478  10.307   9.523   3.544  0.2724  0.0579 -0.1927
  944MOL0     O24479  10.317   9.394   3.497 -0.2880 -0.0407 -0.3386
  944MOL0     C24480  10.205   9.320   3.464 -0.4838 -0.4443  0.2531
  944MOL0     C24481  10.154   9.303   3.327 -0.5215 -0.9558 -0.9834
  944MOL0     C24482  10.052   9.214   3.296 -0.4537 -0.1040  0.1800
  944MOL0     C24483  10.005   9.138   3.396 -0.7285  0.7769 -0.6872
  944MOL0     O24484   9.920   9.036   3.355 -0.0694 -0.2660  0.1957
  944MOL0     C24485   9.985   8.916   3.301  0.7831 -0.2490 -0.7929
  944MOL0     C24486   9.910   8.865   3.181  0.4124  0.3369  0.1120
  944MOL0     C24487   9.773   8.798   3.222 -0.0682  0.3661 -0.3568
  944MOL0     C24488   9.708   8.749   3.087 -0.2915  0.2731 -0.4773
  944MOL0     C24489   9.564   8.698   3.099  0.7094  0.3049 -0.0438
  944MOL0     C24490   9.488   8.698   2.966 -0.1550  0.2085  1.3433
  944MOL0     C24491   9.361   8.625   2.991  0.3124 -0.4919 -0.4453
  944MOL0     C24492   9.257   8.642   2.877 -0.6986  0.5642 -0.4039
  944MOL0     N24493   9.116   8.587   2.910  0.1056 -0.1418 -0.1785
  944MOL0     C24494   9.077   8.461   2.890  0.5031  0.0380 -0.3397
  944MOL0     C24495   8.955   8.448   2.947  0.6497 -0.5143  0.1935
  944MOL0     C24496   8.860   8.333   2.937 -1.1470  0.0816  0.8920
  944MOL0     C24497   8.895   8.223   3.040 -0.0923 -0.4367  0.5713
  944MOL0     C24498   8.892   8.257   3.189 -0.7127  0.6155 -0.0362
  944MOL0     C24499   8.944   8.151   3.287 -0.6946 -0.2853  0.7993
  944MOL0     O24500   8.943   8.183   3.421  0.1803  0.4156  0.3874
  944MOL0     C24501   8.965   8.096   3.526  0.8238  0.5715 -0.0858
  944MOL0     C24502   8.933   8.145   3.646 -0.5085  0.5149 -0.4434
  944MOL0     C24503   8.949   8.061   3.756 -0.5970  0.7797 -0.3913
  944MOL0     C24504   8.999   7.930   3.732 -0.5447  0.7032  0.0501
  944MOL0     C24505   9.018   7.841   3.849 -0.0076 -0.1784 -1.0863
  944MOL0     O24506   8.952   7.882   3.960 -0.1045 -0.8096  0.6067
  944MOL0     C24507   8.972   7.833   4.087  1.1820  1.0770 -0.0311
  944MOL0     C24508   8.867   7.782   4.166  0.2458  0.2353  0.0032
  944MOL0     C24509   8.889   7.724   4.285 -0.1274  0.1064  0.1142
  944MOL0     C24510   9.016   7.717   4.342  0.0496  0.7515 -0.2610
  944MOL0     O24511   9.057   7.658   4.457 -0.0367 -0.7004 -0.0077
  944MOL0     C24512   8.947   7.655   4.552 -0.5521  0.6130 -0.8844
  944MOL0     C24513   9.006   7.610   4.682  0.1545 -0.1924 -0.4958
  944MOL0     C24514   8.988   7.728   4.779  0.1973 -1.1767  0.4013
  944MOL0     C24515   9.109   7.812   4.773  0.2166  0.3727 -0.2237
  944MOL0     C24516   9.088   7.954   4.817  0.4838 -0.0367  0.1241
  944MOL0     C24517   9.221   8.040   4.828 -0.3704  0.4159 -0.1717
  944MOL0     C24518   9.333   7.971   4.917  0.1093 -1.3248  0.4284
  944MOL0     C24519   9.458   8.058   4.891  1.2568  1.0043 -0.0721
  944MOL0    Cl24520   9.453   8.207   4.981 -0.1409  0.1248  0.4309
  944MOL0     C24521   9.122   7.763   4.261  0.6001  0.0011 -0.0171
  944MOL0     C24522   9.104   7.819   4.134  0.6344  0.5135 -0.4967
  944MOL0     O24523   9.090   7.739   3.840  0.0790  0.0965 -0.2621
  944MOL0     C24524   9.056   7.886   3.614  0.1244  1.0511 -0.5308
  944MOL0     C24525   9.019   7.969   3.501 -0.3289 -0.1181  0.4290
  944MOL0     N24526   8.920   8.572   2.994  0.5099 -0.0828 -0.3722
  944MOL0     N24527   9.016   8.657   2.974 -0.1252 -0.7157 -0.2526
  944MOL0     C24528  10.048   9.142   3.528  0.2742  0.5146 -0.6366
  944MOL0     C24529  10.141   9.238   3.560  0.7523 -0.7851 -0.1560
  944MOL0     C24530  10.418   9.617   3.522  0.6333 -1.1340 -0.3629
  944MOL0     C24531  10.394   9.756   3.511  0.3273  0.6596 -0.8107
  944MOL0     C24532  10.492   9.850   3.495 -0.1158  0.1674 -0.4335
  944MOL0     C24533  10.627   9.799   3.462  0.2984  0.0283  0.5444
  944MOL0     O24534  10.734   9.877   3.420  0.7709 -0.1283  0.1643
  944MOL0     C24535  10.774   9.969   3.521  0.0674  0.5637  0.0323
  944MOL0     C24536  10.885  10.067   3.465  0.1084 -1.0665  0.6578
  944MOL0     C24537  10.996   9.988   3.409 -0.4028  0.7742 -0.7968
  944MOL0     C24538  11.110  10.079   3.353 -0.9404  0.5584  0.4185
  944MOL0     C24539  11.172  10.156   3.462  0.2476  0.3686  0.1698
  944MOL0     C24540  11.222  10.218   3.554 -0.8710 -1.4118  0.1743
  944MOL0     C24541  10.656   9.661   3.456 -0.6045  0.1250  0.1620
  944MOL0     C24542  10.550   9.574   3.491  0.6643  0.2915  0.2766
  944MOL0     H24543  10.185   9.367   3.244 -0.7172 -1.0852 -1.1569
  944MOL0     H24544  10.003   9.206   3.199  3.6326  3.1700 -2.4878
  944MOL0     H24545   9.994   8.839   3.378  0.7515 -0.5430 -1.0777
  944MOL0     H24546  10.083   8.934   3.255  0.8605 -0.6596 -0.7906
  944MOL0     H24547   9.979   8.790   3.141 -0.3175 -1.8159  2.5650
  944MOL0     H24548   9.883   8.936   3.103 -8.6013 -1.7917  0.2095
  944MOL0     H24549   9.708   8.868   3.275 -1.2703  0.5003 -1.9145
  944MOL0     H24550   9.787   8.716   3.293  3.6948  1.6424  0.5986
  944MOL0     H24551   9.701   8.846   3.036 -0.4229  1.3835  1.5141
  944MOL0     H24552   9.769   8.675   3.035  0.4702 -1.2002  2.3181
  944MOL0     H24553   9.518   8.771   3.165  1.6605  1.9383 -1.1277
  944MOL0     H24554   9.572   8.597   3.141 -0.1869  0.5495  0.7339
  944MOL0     H24555   9.554   8.659   2.888 -0.3148 -1.3648  1.9718
  944MOL0     H24556   9.460   8.800   2.937 -2.0022 -0.6318  0.0265
  944MOL0     H24557   9.390   8.522   3.014  2.8237 -0.1220 -1.5855
  944MOL0     H24558   9.313   8.659   3.083  0.2258  0.8649 -0.9727
  944MOL0     H24559   9.295   8.598   2.784 -2.1315  1.6538 -1.5756
  944MOL0     H24560   9.251   8.748   2.849 -0.1863  0.9331  0.8119
  944MOL0     H24561   9.123   8.384   2.830 -2.4544  0.7535 -3.8605
  944MOL0     H24562   8.869   8.291   2.837  2.0506 -1.8375  1.8446
  944MOL0     H24563   8.751   8.349   2.938 -1.1875 -0.1825  1.5278
  944MOL0     H24564   9.000   8.193   3.029 -0.0541 -0.0264 -0.1879
  944MOL0     H24565   8.832   8.136   3.020 -1.6254  0.9339 -0.8208
  944MOL0     H24566   8.938   8.352   3.219  0.9993 -0.7880  2.1676
  944MOL0     H24567   8.787   8.254   3.218 -0.3161 -2.5610  1.5525
  944MOL0     H24568   9.049   8.134   3.259 -1.2057 -0.1521 -1.3242
  944MOL0     H24569   8.895   8.053   3.286 -1.3315  0.0312  0.5570
  944MOL0     H24570   8.889   8.243   3.650 -1.2743  0.3578 -3.1285
  944MOL0     H24571   8.929   8.099   3.856  2.5068 -0.8292  0.9741
  944MOL0     H24572   8.769   7.793   4.120  0.2783 -0.7731 -0.3214
  944MOL0     H24573   8.810   7.680   4.344  1.3874 -1.4904  1.0735
  944MOL0     H24574   8.883   7.571   4.522 -0.4490  0.7046 -1.3673
  944MOL0     H24575   8.890   7.749   4.553  0.0147  1.0259  2.0273
  944MOL0     H24576   9.110   7.582   4.668  0.2930  1.4243 -3.3980
  944MOL0     H24577   8.950   7.524   4.720 -1.0376  0.9326  0.3893
  944MOL0     H24578   8.963   7.701   4.882  0.4718  0.4081  0.9204
  944MOL0     H24579   8.899   7.786   4.751 -0.2760 -1.9524  0.2566
  944MOL0     H24580   9.191   7.753   4.814  0.8921 -0.2947 -2.4152
  944MOL0     H24581   9.131   7.820   4.666  1.8337  2.5779  0.1932
  944MOL0     H24582   9.033   7.965   4.911  1.1884 -1.4527  0.7424
  944MOL0     H24583   9.024   7.990   4.736 -2.4864  1.2448  2.8174
  944MOL0     H24584   9.192   8.134   4.875 -1.3644 -1.7862  4.1878
  944MOL0     H24585   9.261   8.052   4.727 -0.5202  0.6775 -0.1997
  944MOL0     H24586   9.290   7.983   5.017 -0.0041  0.0906  0.2255
  944MOL0     H24587   9.362   7.868   4.898  0.2365 -1.3917  0.9733
  944MOL0     H24588   9.462   8.081   4.784 -0.7278  1.1229 -0.1616
  944MOL0     H24589   9.550   8.008   4.922  1.5992  1.2621 -0.6585
  944MOL0     H24590   9.224   7.769   4.299  1.0832 -0.4572 -1.1938
  944MOL0     H24591   9.194   7.834   4.076  2.4650 -0.4434  1.9494
  944MOL0     H24592   9.112   7.794   3.603  0.9792  1.6167 -1.0125
  944MOL0     H24593   9.050   7.932   3.404  1.1379 -1.7297  1.4388
  944MOL0     H24594  10.010   9.076   3.605  0.6754  0.5949 -0.3675
  944MOL0     H24595  10.162   9.239   3.667 -0.4506 -2.4028  0.1300
  944MOL0     H24596  10.298   9.798   3.536  0.9524  2.3999 -1.2205
  944MOL0     H24597  10.470   9.956   3.496 -0.7723  0.1352  3.2580
  944MOL0     H24598  10.819   9.914   3.604 -0.3402 -1.1281 -0.8040
  944MOL0     H24599  10.681  10.009   3.560  0.5619 -0.3926  2.3835
  944MOL0     H24600  10.850  10.131   3.383  4.5453  1.0202  0.1010
  944MOL0     H24601  10.916  10.131   3.548 -0.8549  2.2343 -1.3219
  944MOL0     H24602  10.958   9.919   3.333 -3.0908 -0.3570  1.4327
  944MOL0     H24603  11.041   9.919   3.480 -0.2000  0.0232 -1.6324
  944MOL0     H24604  11.181  10.015   3.299 -2.2147  0.6957 -1.4793
  944MOL0     H24605  11.077  10.152   3.279 -3.1095  0.8282  1.5638
  944MOL0     H24606  11.281  10.260   3.633  1.2177 -0.2871 -1.8567
  944MOL0     H24607  10.751   9.627   3.416 -1.9999 -2.2661 -1.4135
  944MOL0     H24608  10.574   9.468   3.493 -0.1706  0.0692 -0.8260
  945MOL0     O24609   0.073   8.150   8.185 -0.3856  0.5229 -0.2774
  945MOL0     C24610   0.141   8.134   8.086  1.6464 -0.2076  0.3503
  945MOL0     O24611   0.276   8.150   8.076 -0.9638  0.2496  0.6615
  945MOL0     C24612   0.338   8.220   8.172 -0.0609  0.6550 -0.1307
  945MOL0     C24613   0.390   8.148   8.283  0.2606 -0.0490  0.7586
  945MOL0     C24614   0.464   8.216   8.385 -0.0835  0.8428 -0.1000
  945MOL0     C24615   0.498   8.353   8.367  0.7828  0.6694 -1.1431
  945MOL0     O24616   0.568   8.429   8.455  0.3779 -1.0985  0.1698
  945MOL0     C24617   0.532   8.406   8.591  0.6650 -0.2507  0.4568
  945MOL0     C24618   0.413   8.490   8.648 -0.4021  0.9176  0.1665
  945MOL0     C24619   0.421   8.478   8.805  0.8394 -0.3010 -0.4072
  945MOL0     C24620   0.305   8.558   8.865  0.2968 -0.0151 -0.6547
  945MOL0     C24621   0.305   8.587   9.018  0.4243  0.4661  0.7376
  945MOL0     C24622   0.180   8.678   9.038  1.0728 -0.7300  0.3952
  945MOL0     C24623   0.132   8.705   9.185  0.7740  0.6386 -0.5835
  945MOL0     C24624   0.079   8.575   9.248 -0.2885  0.4835  0.6662
  945MOL0     N24625   0.048   8.592   9.390 -0.1908 -0.3900  0.0915
  945MOL0     C24626  -0.070   8.647   9.426 -1.1856  0.2663 -0.3164
  945MOL0     C24627  -0.063   8.683   9.553 -0.4530  0.3141 -0.9894
  945MOL0     C24628  -0.165   8.745   9.630  1.0104  0.5446  0.0391
  945MOL0     C24629  -0.274   8.655   9.689  0.0808  0.1087  0.1485
  945MOL0     C24630  -0.403   8.730   9.727  0.3395 -0.0882  0.0504
  945MOL0     C24631  -0.388   8.873   9.788  0.0505  0.7726  0.5318
  945MOL0     O24632  -0.516   8.915   9.820 -0.1128 -0.4561 -0.2895
  945MOL0     C24633  -0.510   9.033   9.897 -0.3891  0.2052  0.2193
  945MOL0     C24634  -0.421   9.137   9.886  0.4905  0.6534 -0.4544
  945MOL0     C24635  -0.446   9.244   9.973 -0.0918 -0.1695  0.1474
  945MOL0     C24636  -0.569   9.258  10.044 -0.3029 -0.1684  1.0798
  945MOL0     C24637  -0.606   9.374  10.115  0.2086 -0.2953  0.2538
  945MOL0     O24638  -0.503   9.473  10.115 -0.2532  0.1369  0.4486
  945MOL0     C24639  -0.522   9.602  10.164 -0.1200 -0.3617  0.3748
  945MOL0     C24640  -0.479   9.714  10.088 -0.8380 -0.1757 -0.2252
  945MOL0     C24641  -0.504   9.845  10.134  0.4249 -0.9550  0.4645
  945MOL0     C24642  -0.568   9.866  10.253 -0.4787 -0.3954 -0.4219
  945MOL0     O24643  -0.595   9.996  10.272  0.1756  0.0603  0.1279
  945MOL0     C24644  -0.664  10.042  10.385 -0.2094 -0.3393  0.2045
  945MOL0     C24645  -0.699  10.185  10.382 -0.0822  0.1231 -0.0267
  945MOL0     C24646  -0.808  10.230  10.272 -1.2185  0.6876  0.4058
  945MOL0     C24647  -0.840  10.381  10.277 -0.3065 -0.3817 -0.0438
  945MOL0     C24648  -0.982  10.421  10.219 -0.7503  0.0753  0.5251
  945MOL0     C24649  -1.002  10.365  10.076  0.0672 -0.6333  0.3453
  945MOL0     C24650  -0.881  10.394   9.973  0.4700  0.2855 -0.8914
  945MOL0     C24651  -0.853  10.543   9.964  0.5272 -0.4756 -0.5486
  945MOL0    Cl24652  -0.999  10.626   9.876 -0.1559  0.1015  0.2699
  945MOL0     C24653  -0.616   9.759  10.329 -0.5936 -0.4576 -0.9089
  945MOL0     C24654  -0.595   9.630  10.278  0.8225  1.1263 -0.4094
  945MOL0     O24655  -0.712   9.377  10.184 -0.0389 -0.4053 -0.6013
  945MOL0     C24656  -0.660   9.150  10.041 -0.3094 -0.1865  0.2766
  945MOL0     C24657  -0.616   9.039   9.967  0.3485  0.7660 -0.0472
  945MOL0     N24658   0.072   8.645   9.594  0.2019 -0.9990 -1.3186
  945MOL0     N24659   0.135   8.598   9.491  0.1990 -0.5861 -0.0291
  945MOL0     C24660   0.445   8.415   8.257  0.7126  0.0692 -0.3163
  945MOL0     C24661   0.366   8.354   8.158  0.3625  0.1153 -0.7342
  945MOL0     C24662   0.065   8.070   7.974  0.6760  0.7157  0.3507
  945MOL0     C24663   0.110   8.056   7.847 -0.2785  0.1178 -0.0571
  945MOL0     C24664   0.025   8.027   7.739 -0.9000 -0.8146 -0.0818
  945MOL0     C24665  -0.108   8.012   7.765 -0.1110  0.5531 -0.2180
  945MOL0     O24666  -0.195   7.958   7.675  0.1605 -0.4668 -0.4413
  945MOL0     C24667  -0.279   8.070   7.629  0.8311  0.5788 -0.5243
  945MOL0     C24668  -0.239   8.146   7.507 -0.1154  0.1065 -0.4856
  945MOL0     C24669  -0.328   8.258   7.468  0.8338  0.4446 -0.8998
  945MOL0     C24670  -0.272   8.314   7.344  0.4279  0.5098 -0.9793
  945MOL0     C24671  -0.368   8.400   7.279  0.0944  0.0477  0.6485
  945MOL0     C24672  -0.432   8.464   7.198 -0.5281 -0.3404  0.4182
  945MOL0     C24673  -0.159   8.009   7.892  0.4884  0.5397 -0.4170
  945MOL0     C24674  -0.072   8.040   7.992 -0.6320  0.0257 -0.3899
  945MOL0     H24675   0.368   8.042   8.290 -1.3948  0.2937  1.1107
  945MOL0     H24676   0.489   8.156   8.473 -1.6082  0.3319  0.0304
  945MOL0     H24677   0.618   8.437   8.650  0.8112 -2.1022  1.2875
  945MOL0     H24678   0.502   8.307   8.627 -2.6728  1.2129  2.2403
  945MOL0     H24679   0.318   8.447   8.615  0.8707 -1.6958 -0.3474
  945MOL0     H24680   0.417   8.593   8.614 -4.0351 -0.2488 -4.9604
  945MOL0     H24681   0.506   8.539   8.835  0.3922  0.3139 -0.3654
  945MOL0     H24682   0.418   8.376   8.843 -2.4848  0.5709  2.2268
  945MOL0     H24683   0.309   8.658   8.822  1.5199  0.5285  0.6402
  945MOL0     H24684   0.212   8.506   8.839 -1.2230  1.7879  0.8758
  945MOL0     H24685   0.393   8.649   9.038  1.4815  0.6783 -3.5231
  945MOL0     H24686   0.308   8.500   9.084 -1.1541  1.1736  1.7999
  945MOL0     H24687   0.088   8.642   8.992 -0.1131 -0.2802  2.2894
  945MOL0     H24688   0.199   8.777   8.995  0.6994  1.0210  3.9279
  945MOL0     H24689   0.215   8.742   9.246  0.1706  1.2911 -0.1498
  945MOL0     H24690   0.055   8.782   9.184 -1.3670 -1.3927 -0.0120
  945MOL0     H24691   0.154   8.496   9.261  0.6841  1.5161  1.6130
  945MOL0     H24692  -0.005   8.529   9.194  0.5635  1.7760 -1.8959
  945MOL0     H24693  -0.159   8.658   9.364 -0.9110  0.2176 -0.7245
  945MOL0     H24694  -0.211   8.822   9.569 -3.4788 -0.5288  1.7035
  945MOL0     H24695  -0.123   8.796   9.717 -0.1592 -0.0465  0.9680
  945MOL0     H24696  -0.224   8.602   9.770 -0.2190 -2.1151 -1.0342
  945MOL0     H24697  -0.292   8.575   9.617  1.5263 -0.9171  0.8753
  945MOL0     H24698  -0.465   8.749   9.638  0.4345  1.3967  0.2909
  945MOL0     H24699  -0.465   8.663   9.789 -1.7195  2.1281  0.5373
  945MOL0     H24700  -0.339   8.933   9.711  0.8155 -1.6603 -0.9975
  945MOL0     H24701  -0.322   8.877   9.875  1.9729  0.8155 -0.8593
  945MOL0     H24702  -0.331   9.128   9.826 -1.0234 -0.7444 -2.6661
  945MOL0     H24703  -0.367   9.319   9.966  0.7521 -0.7749  2.3952
  945MOL0     H24704  -0.419   9.708   9.998  3.6696 -2.4281  2.5616
  945MOL0     H24705  -0.495   9.933  10.071 -1.7286 -1.6046 -0.8460
  945MOL0     H24706  -0.605  10.013  10.472  0.5730 -1.0175 -0.5192
  945MOL0     H24707  -0.751   9.975  10.388  0.3329 -1.2610 -2.0900
  945MOL0     H24708  -0.600  10.224  10.357 -0.7323  1.3794 -0.6854
  945MOL0     H24709  -0.726  10.209  10.486  2.7170  2.0583  0.3652
  945MOL0     H24710  -0.901  10.174  10.287 -1.8949  2.1492  2.0198
  945MOL0     H24711  -0.757  10.198  10.181 -0.9624 -1.0791  1.1107
  945MOL0     H24712  -0.838  10.414  10.381 -1.9150 -1.2046  0.2891
  945MOL0     H24713  -0.761  10.435  10.224 -0.8337  0.8715  0.4117
  945MOL0     H24714  -0.983  10.530  10.227 -3.6287  0.1297  0.3040
  945MOL0     H24715  -1.067  10.386  10.279 -0.6089  2.4917  2.2432
  945MOL0     H24716  -1.094  10.417  10.049  2.7842  4.8375  0.3082
  945MOL0     H24717  -1.033  10.260  10.076 -2.0651 -0.1438  3.0040
  945MOL0     H24718  -0.792  10.339  10.004 -1.4225 -0.7817  3.3265
  945MOL0     H24719  -0.909  10.347   9.878  2.5156 -0.3129 -1.2473
  945MOL0     H24720  -0.764  10.572   9.908  1.2871 -1.4442  0.1274
  945MOL0     H24721  -0.836  10.588  10.063  1.0436  1.8524 -1.6139
  945MOL0     H24722  -0.669   9.766  10.423  1.5657 -1.2306  0.4443
  945MOL0     H24723  -0.643   9.545  10.325 -1.3724 -1.0396 -5.7634
  945MOL0     H24724  -0.757   9.168  10.086 -0.3675 -1.5003  0.7179
  945MOL0     H24725  -0.680   8.953   9.974  0.3320  0.4459 -3.0453
  945MOL0     H24726   0.479   8.515   8.235 -3.3041  2.1175  1.5865
  945MOL0     H24727   0.316   8.401   8.074 -0.7484  1.9738  0.8650
  945MOL0     H24728   0.218   8.069   7.835 -0.0297 -1.5797  0.0663
  945MOL0     H24729   0.065   8.021   7.639 -3.9031  0.8265 -1.5113
  945MOL0     H24730  -0.315   8.129   7.714  0.0470 -0.7603  0.1183
  945MOL0     H24731  -0.372   8.019   7.603  1.6283 -1.7246  0.8269
  945MOL0     H24732  -0.135   8.175   7.519  0.0517 -0.2502 -1.0049
  945MOL0     H24733  -0.252   8.074   7.425  0.3859 -2.0259  1.2255
  945MOL0     H24734  -0.328   8.336   7.545 -1.7021  0.0364 -0.4214
  945MOL0     H24735  -0.430   8.220   7.456  0.6529  0.3299  0.7138
  945MOL0     H24736  -0.170   8.349   7.363  0.2121  1.5146 -1.6225
  945MOL0     H24737  -0.263   8.232   7.273  1.2269 -1.2687  1.0641
  945MOL0     H24738  -0.500   8.508   7.128  1.3540  0.8478 -0.7853
  945MOL0     H24739  -0.259   7.982   7.921  0.7591  0.3188  0.3332
  945MOL0     H24740  -0.114   8.035   8.092  0.0633 -0.7987 -0.1357
  946MOL0     O24741   0.208   2.938  10.300  0.6330  0.2169 -0.0863
  946MOL0     C24742   0.144   2.865  10.371  0.3427  0.0949 -0.2247
  946MOL0     O24743   0.177   2.833  10.492  0.4946  0.2898 -0.9188
  946MOL0     C24744   0.294   2.873  10.547 -0.5060 -0.1471  0.4811
  946MOL0     C24745   0.386   2.785  10.597 -0.7144  0.6188  0.6497
  946MOL0     C24746   0.501   2.831  10.665 -0.2053 -0.2847 -0.2111
  946MOL0     C24747   0.535   2.967  10.668 -0.8202  0.5094 -0.1965
  946MOL0     O24748   0.655   3.024  10.729  0.6171  1.0741 -0.4754
  946MOL0     C24749   0.724   2.951  10.831 -0.4489  0.1887  0.9824
  946MOL0     C24750   0.855   3.032  10.855 -0.0955 -0.7979  0.6144
  946MOL0     C24751   0.942   2.971  10.962  0.3178  1.3704  0.2019
  946MOL0     C24752   0.872   2.950  11.105 -0.3396 -0.6375  0.0025
  946MOL0     C24753   0.844   3.083  11.171 -0.2020 -0.8628 -0.3377
  946MOL0     C24754   0.968   3.168  11.196 -0.0743 -0.5359 -0.5898
  946MOL0     C24755   0.929   3.286  11.279  0.7199 -0.3246 -0.7721
  946MOL0     C24756   0.902   3.253  11.423 -1.0779 -0.2734  0.7951
  946MOL0     N24757   0.904   3.380  11.500 -0.6290  0.4172  0.9245
  946MOL0     C24758   0.788   3.433  11.554 -0.3523 -0.6784 -0.0287
  946MOL0     C24759   0.834   3.536  11.629 -0.5211  0.3120 -0.2309
  946MOL0     C24760   0.750   3.632  11.715 -0.3914  0.0287  0.3907
  946MOL0     C24761   0.701   3.746  11.617 -0.3057  0.4071  0.7048
  946MOL0     C24762   0.601   3.846  11.690  1.2558 -0.8182 -0.5560
  946MOL0     C24763   0.650   3.890  11.836  0.2543  0.0981  0.3797
  946MOL0     O24764   0.602   4.016  11.867 -0.5528 -0.0415 -0.0434
  946MOL0     C24765   0.653   4.073  11.980  0.2221  0.7011  0.2960
  946MOL0     C24766   0.718   3.997  12.080  0.2295  0.2055  0.8085
  946MOL0     C24767   0.775   4.063  12.187 -0.2859  0.3860  0.5330
  946MOL0     C24768   0.764   4.203  12.211 -0.7460  0.0781  0.0364
  946MOL0     C24769   0.822   4.266  12.336  0.7296 -0.9694 -0.4866
  946MOL0     O24770   0.876   4.188  12.435  0.5528 -0.7794 -0.8294
  946MOL0     C24771   0.902   4.232  12.558 -0.5261 -0.5160  0.2243
  946MOL0     C24772   0.941   4.125  12.645  0.2035 -0.0066 -0.9570
  946MOL0     C24773   0.966   4.148  12.782  0.1053 -0.6822 -0.1592
  946MOL0     C24774   0.957   4.276  12.836  0.1753  0.7214 -1.1666
  946MOL0     O24775   0.972   4.299  12.977  0.5928  1.0060  0.2483
  946MOL0     C24776   1.031   4.198  13.063  0.3567 -0.1589  0.0502
  946MOL0     C24777   1.070   4.246  13.205 -0.7844  0.7904  0.5237
  946MOL0     C24778   1.226   4.282  13.210  0.0714  0.1082 -0.1909
  946MOL0     C24779   1.257   4.348  13.354  0.6795  0.3026  0.4886
  946MOL0     C24780   1.404   4.379  13.379 -0.3235 -0.3592  0.6680
  946MOL0     C24781   1.442   4.399  13.531 -0.0872  0.6045  0.4854
  946MOL0     C24782   1.588   4.422  13.565 -0.0559 -0.3074 -0.1782
  946MOL0     C24783   1.673   4.333  13.475  0.7952  0.5338 -0.1143
  946MOL0    Cl24784   1.851   4.326  13.540  0.5182  0.0080 -0.2017
  946MOL0     C24785   0.920   4.381  12.752 -0.8285 -0.7310  0.2355
  946MOL0     C24786   0.892   4.358  12.616 -0.4910 -0.1034  0.5313
  946MOL0     O24787   0.820   4.389  12.323 -0.2088 -0.4021  0.1286
  946MOL0     C24788   0.702   4.275  12.102  0.0625  0.2259 -0.3690
  946MOL0     C24789   0.649   4.210  11.991  0.6417  0.5599 -0.5303
  946MOL0     N24790   0.972   3.545  11.623 -0.7772 -0.1698  0.4781
  946MOL0     N24791   1.007   3.453  11.535  0.0740  0.2282  0.0482
  946MOL0     C24792   0.439   3.056  10.609  0.4518 -0.2099 -1.0868
  946MOL0     C24793   0.315   3.010  10.553 -0.3449 -0.5150 -0.5183
  946MOL0     C24794   0.017   2.814  10.314 -0.4634 -0.0434 -0.8247
  946MOL0     C24795  -0.078   2.757  10.409 -0.4672  0.1251  0.6926
  946MOL0     C24796  -0.185   2.686  10.365 -0.9872  0.7240 -0.0786
  946MOL0     C24797  -0.204   2.671  10.219 -0.1350 -0.0390 -0.2373
  946MOL0     O24798  -0.289   2.580  10.159 -0.4099  0.3765  0.1528
  946MOL0     C24799  -0.406   2.528  10.219 -0.8093  0.6279 -0.5707
  946MOL0     C24800  -0.481   2.471  10.115  0.5308 -1.1595 -0.0965
  946MOL0     C24801  -0.582   2.368  10.158  0.5377  1.0100 -0.2187
  946MOL0     C24802  -0.515   2.239  10.211  0.1053 -0.1494  1.0887
  946MOL0     C24803  -0.421   2.184  10.106 -0.8223  0.0928 -0.5747
  946MOL0     C24804  -0.347   2.135  10.022 -0.1927 -0.5420  0.0036
  946MOL0     C24805  -0.104   2.715  10.135 -0.2237  0.8116 -0.2926
  946MOL0     C24806  -0.001   2.796  10.177 -0.4411 -0.7935 -0.2703
  946MOL0     H24807   0.372   2.678  10.586  2.7761  0.1277 -0.3225
  946MOL0     H24808   0.580   2.766  10.700  0.3506  1.0007  0.9951
  946MOL0     H24809   0.751   2.853  10.789  1.2684  2.1357 -3.0243
  946MOL0     H24810   0.665   2.944  10.922 -2.0064 -4.5847 -0.0692
  946MOL0     H24811   0.825   3.131  10.891  0.3886 -0.3349 -0.2195
  946MOL0     H24812   0.908   3.049  10.761 -1.5637 -0.5012 -0.1813
  946MOL0     H24813   1.034   3.030  10.971  1.7540 -0.3130 -2.2143
  946MOL0     H24814   0.988   2.880  10.923 -0.4079  0.5157  1.2734
  946MOL0     H24815   0.781   2.890  11.108  0.4486 -1.8010  1.6976
  946MOL0     H24816   0.945   2.897  11.167 -0.2190 -0.9375 -0.3953
  946MOL0     H24817   0.795   3.057  11.265  1.3060 -0.3567  0.6157
  946MOL0     H24818   0.774   3.138  11.106 -0.3218 -0.4388  0.1479
  946MOL0     H24819   0.993   3.204  11.095 -0.0785 -2.4110 -1.3069
  946MOL0     H24820   1.046   3.111  11.247 -0.8685  1.1902  2.8540
  946MOL0     H24821   1.013   3.355  11.286 -2.2878  3.6651 -0.6541
  946MOL0     H24822   0.849   3.347  11.236 -2.5302 -2.1915  2.2012
  946MOL0     H24823   0.986   3.193  11.460 -0.5683  0.0613  0.1990
  946MOL0     H24824   0.814   3.190  11.442 -0.3505 -1.5942 -0.1021
  946MOL0     H24825   0.690   3.423  11.507  0.2867  1.0014 -1.8847
  946MOL0     H24826   0.800   3.669  11.805  2.9440 -0.6542 -1.0385
  946MOL0     H24827   0.664   3.573  11.750 -0.1036 -0.4959  0.2248
  946MOL0     H24828   0.655   3.702  11.528 -1.0176 -1.1168  1.7769
  946MOL0     H24829   0.790   3.804  11.591 -0.6520  3.6161  5.4120
  946MOL0     H24830   0.585   3.923  11.613  0.2041  0.3792  0.8007
  946MOL0     H24831   0.498   3.810  11.693  0.5696  0.8332 -1.9817
  946MOL0     H24832   0.759   3.889  11.830  0.1894  0.0960 -1.1110
  946MOL0     H24833   0.623   3.812  11.908  1.0644  0.5798  1.2262
  946MOL0     H24834   0.742   3.892  12.063  2.2598  0.7353  0.1031
  946MOL0     H24835   0.831   4.007  12.262 -3.3241 -3.2435  0.4417
  946MOL0     H24836   0.942   4.027  12.599  2.8311  0.4524 -2.0617
  946MOL0     H24837   0.993   4.068  12.849 -2.0314 -0.9526  0.4749
  946MOL0     H24838   1.116   4.151  13.012  0.5637  0.3197 -0.0518
  946MOL0     H24839   0.956   4.121  13.085  0.7646  0.1494  2.7843
  946MOL0     H24840   1.043   4.163  13.271  0.5354 -2.9612 -3.2019
  946MOL0     H24841   1.004   4.327  13.238 -2.0421  1.0188 -2.2852
  946MOL0     H24842   1.255   4.343  13.124 -3.1650 -0.0552 -1.5043
  946MOL0     H24843   1.292   4.195  13.213 -1.1885 -0.8550  0.4023
  946MOL0     H24844   1.194   4.437  13.361 -0.5048 -0.2590 -2.0193
  946MOL0     H24845   1.222   4.282  13.434 -0.4963  2.5411  1.9247
  946MOL0     H24846   1.436   4.466  13.321 -0.6548 -0.4987  0.2759
  946MOL0     H24847   1.454   4.293  13.335 -0.7493 -0.0322 -0.4815
  946MOL0     H24848   1.397   4.318  13.588 -0.8052  1.5889  1.3580
  946MOL0     H24849   1.388   4.489  13.561  0.0182  1.8286 -2.6234
  946MOL0     H24850   1.617   4.526  13.547  0.3044 -0.5511 -1.0541
  946MOL0     H24851   1.607   4.389  13.667  0.0646 -1.3259 -0.5224
  946MOL0     H24852   1.681   4.397  13.386  2.1687  1.6451  0.7601
  946MOL0     H24853   1.625   4.235  13.468  4.0924 -1.2588  0.1694
  946MOL0     H24854   0.900   4.484  12.780  2.6461  1.0541 -2.9536
  946MOL0     H24855   0.846   4.441  12.562  2.0371  1.9430  1.3287
  946MOL0     H24856   0.707   4.383  12.085 -2.0521  0.7095  1.6600
  946MOL0     H24857   0.599   4.277  11.923  0.8865 -0.7015 -2.0153
  946MOL0     H24858   0.478   3.156  10.594  0.9748  0.7036  4.3825
  946MOL0     H24859   0.246   3.085  10.514 -1.1690 -1.5772 -1.1572
  946MOL0     H24860  -0.059   2.758  10.515 -0.1436  1.2792  0.6449
  946MOL0     H24861  -0.265   2.636  10.419 -1.1864  0.4479 -0.6111
  946MOL0     H24862  -0.448   2.612  10.275  1.1034  2.0500 -1.2010
  946MOL0     H24863  -0.362   2.448  10.279  0.5790  2.9709  1.7315
  946MOL0     H24864  -0.546   2.552  10.080 -1.7941 -2.0836  1.7741
  946MOL0     H24865  -0.419   2.444  10.029  1.6594  1.4808 -0.1966
  946MOL0     H24866  -0.625   2.340  10.061 -0.4186 -4.1281  1.3908
  946MOL0     H24867  -0.659   2.400  10.227 -0.2713  0.0005 -0.6187
  946MOL0     H24868  -0.467   2.237  10.309 -1.0988 -3.4703  1.7448
  946MOL0     H24869  -0.590   2.159  10.215  0.6678 -0.6843  1.0548
  946MOL0     H24870  -0.279   2.111   9.942 -3.0995  1.3650 -3.3001
  946MOL0     H24871  -0.089   2.669  10.038  2.9306 -0.5899  0.7335
  946MOL0     H24872   0.072   2.816  10.099 -0.8950  1.7171 -0.1315
  947MOL0     O24873   2.993   3.942   4.623 -0.1330  0.0798  0.0040
  947MOL0     C24874   3.064   4.038   4.610 -0.9808  0.7796  0.2427
  947MOL0     O24875   3.024   4.171   4.642 -0.5299  0.7622 -0.1985
  947MOL0     C24876   2.898   4.190   4.693 -0.4433 -0.2067  1.5462
  947MOL0     C24877   2.884   4.198   4.833  0.4902 -0.1919  0.3753
  947MOL0     C24878   2.757   4.228   4.885 -0.4865 -1.6868 -0.7617
  947MOL0     C24879   2.640   4.245   4.805  0.8858 -0.1937 -0.7294
  947MOL0     O24880   2.511   4.290   4.836  0.1502 -0.5330 -1.0854
  947MOL0     C24881   2.498   4.377   4.958 -1.2215 -0.7763 -0.0201
  947MOL0     C24882   2.358   4.414   4.956  0.0108 -0.4398  0.3030
  947MOL0     C24883   2.335   4.565   4.955  0.4931  0.7240 -0.8125
  947MOL0     C24884   2.376   4.618   4.820 -0.2173 -0.2650  0.3853
  947MOL0     C24885   2.432   4.758   4.827 -0.5036 -0.8043 -0.6382
  947MOL0     C24886   2.349   4.868   4.898 -0.4235  0.4285  0.2955
  947MOL0     C24887   2.251   4.947   4.803 -0.2512  0.2197  0.2060
  947MOL0     C24888   2.181   5.064   4.869  0.1626  0.0288  0.6055
  947MOL0     N24889   2.268   5.163   4.926  0.0823 -0.0846 -0.0235
  947MOL0     C24890   2.290   5.289   4.858 -0.0842 -0.3545 -0.0950
  947MOL0     C24891   2.354   5.359   4.954 -0.3835 -0.7324  0.4566
  947MOL0     C24892   2.387   5.510   4.968 -0.4813  0.3488 -0.2231
  947MOL0     C24893   2.517   5.537   4.889  0.2827 -1.2972  0.5242
  947MOL0     C24894   2.551   5.687   4.896  0.2693 -0.1983 -0.2244
  947MOL0     C24895   2.695   5.707   4.846  0.7147 -0.7409  0.9379
  947MOL0     O24896   2.698   5.835   4.781 -0.0736 -0.6889  0.4816
  947MOL0     C24897   2.816   5.871   4.718 -0.4214 -0.0107  0.1825
  947MOL0     C24898   2.932   5.794   4.721  0.5835 -0.5005 -0.1257
  947MOL0     C24899   3.041   5.837   4.647 -0.7408  0.0201 -0.3416
  947MOL0     C24900   3.035   5.942   4.561 -0.4586 -0.4359  1.1789
  947MOL0     C24901   3.159   5.982   4.485 -0.7315  0.1893  0.5993
  947MOL0     O24902   3.148   6.067   4.370 -0.2552  0.0556  0.1727
  947MOL0     C24903   3.257   6.126   4.312  0.2624 -0.7829 -0.7795
  947MOL0     C24904   3.223   6.183   4.188 -0.0340 -0.3653 -0.5949
  947MOL0     C24905   3.319   6.263   4.123 -0.1273 -0.2347 -0.1307
  947MOL0     C24906   3.444   6.286   4.179  0.0723 -0.2876 -0.4164
  947MOL0     O24907   3.525   6.385   4.120 -0.0859  0.6908 -0.2307
  947MOL0     C24908   3.664   6.355   4.105  0.6600 -0.6225 -0.2647
  947MOL0     C24909   3.709   6.381   3.962 -0.8404  0.2324 -0.3177
  947MOL0     C24910   3.684   6.255   3.861 -0.1829  0.6136 -0.8633
  947MOL0     C24911   3.548   6.260   3.787 -0.5533  0.3505 -0.1289
  947MOL0     C24912   3.523   6.147   3.690  0.0605 -0.2807  0.1919
  947MOL0     C24913   3.544   6.002   3.739  0.0934  0.0442 -0.3049
  947MOL0     C24914   3.538   5.890   3.636  0.4253 -0.1351  0.4059
  947MOL0     C24915   3.680   5.857   3.594 -1.7562  0.9657 -0.6154
  947MOL0    Cl24916   3.808   5.996   3.571 -0.2436 -0.4217  0.0961
  947MOL0     C24917   3.476   6.231   4.302 -0.3592 -0.6092  0.2557
  947MOL0     C24918   3.384   6.160   4.373 -0.4269 -0.1419 -0.4599
  947MOL0     O24919   3.264   5.927   4.518 -0.3113  0.2011 -0.1379
  947MOL0     C24920   2.914   6.016   4.560 -0.1328 -0.4384  0.3794
  947MOL0     C24921   2.804   5.983   4.637 -0.4534 -0.0333 -0.7437
  947MOL0     N24922   2.383   5.277   5.060  0.0575 -0.0447  0.0449
  947MOL0     N24923   2.349   5.156   5.035 -0.2503 -0.2141 -0.0524
  947MOL0     C24924   2.664   4.235   4.668  0.8855 -0.7572 -0.1672
  947MOL0     C24925   2.787   4.213   4.610 -0.2807 -0.9726 -0.3076
  947MOL0     C24926   3.203   4.015   4.579  0.0947 -0.1000 -0.3211
  947MOL0     C24927   3.255   3.900   4.522  0.4144 -0.0079  0.0681
  947MOL0     C24928   3.387   3.868   4.486  0.7062 -0.2328  0.8742
  947MOL0     C24929   3.488   3.972   4.520 -0.3035  0.3493  0.8750
  947MOL0     O24930   3.624   3.956   4.504  0.2019 -0.5259 -0.0781
  947MOL0     C24931   3.675   3.840   4.439  0.8080 -0.2176 -0.3605
  947MOL0     C24932   3.673   3.848   4.290 -0.3597 -0.4294 -0.1784
  947MOL0     C24933   3.692   3.714   4.227 -0.3572 -0.0036  0.1561
  947MOL0     C24934   3.842   3.665   4.254 -0.3987  0.5087 -0.1566
  947MOL0     C24935   3.890   3.570   4.153  0.3490  0.3588  0.4176
  947MOL0     C24936   3.935   3.499   4.062 -0.1931 -0.4059 -0.4472
  947MOL0     C24937   3.438   4.083   4.579 -1.1243 -0.0850  0.0837
  947MOL0     C24938   3.302   4.113   4.601 -0.4310 -0.5041 -0.7898
  947MOL0     H24939   2.970   4.182   4.897 -0.9184 -1.0997  2.1005
  947MOL0     H24940   2.740   4.230   4.993  2.1513 -0.8346 -0.2834
  947MOL0     H24941   2.574   4.454   4.952 -0.8235 -1.2652 -2.4454
  947MOL0     H24942   2.527   4.324   5.049 -0.4686 -0.8503 -0.2963
  947MOL0     H24943   2.322   4.371   5.050 -0.8882 -0.0070  0.1686
  947MOL0     H24944   2.300   4.367   4.876  0.6669  1.9625 -1.6767
  947MOL0     H24945   2.396   4.607   5.035  2.4408 -0.9451 -1.3086
  947MOL0     H24946   2.228   4.576   4.975  0.6657 -2.6956  3.1958
  947MOL0     H24947   2.456   4.562   4.772  0.2343 -0.8776  1.7935
  947MOL0     H24948   2.292   4.600   4.752  0.3022 -1.7165  0.1009
  947MOL0     H24949   2.451   4.786   4.723  0.5539  2.8800  0.3883
  947MOL0     H24950   2.524   4.748   4.885 -1.0596 -1.6180  0.1397
  947MOL0     H24951   2.416   4.949   4.926 -0.4537  1.0252 -1.2761
  947MOL0     H24952   2.278   4.831   4.973 -2.1974 -2.9943 -2.7080
  947MOL0     H24953   2.309   4.989   4.720  1.4059 -0.7035  0.8335
  947MOL0     H24954   2.175   4.881   4.762  1.4494  0.4091 -3.6825
  947MOL0     H24955   2.109   5.028   4.943  0.8536 -1.9933  0.3577
  947MOL0     H24956   2.108   5.115   4.805  0.9971 -1.0866 -1.3509
  947MOL0     H24957   2.259   5.329   4.762  3.5876 -0.1581 -1.3673
  947MOL0     H24958   2.396   5.529   5.075  1.6485 -0.4985 -0.2005
  947MOL0     H24959   2.308   5.567   4.918 -0.4182 -0.9126 -1.8770
  947MOL0     H24960   2.511   5.508   4.784  0.5755 -0.8569  0.3836
  947MOL0     H24961   2.602   5.491   4.941  3.9110  3.4059 -0.5844
  947MOL0     H24962   2.479   5.748   4.842  1.3940  3.3313  1.9473
  947MOL0     H24963   2.547   5.718   5.001 -2.1824 -2.6121  0.5116
  947MOL0     H24964   2.724   5.636   4.769  0.4824  2.6979 -2.6644
  947MOL0     H24965   2.766   5.711   4.929  0.6708  0.3147  0.9394
  947MOL0     H24966   2.941   5.714   4.795 -0.0363 -1.3212 -0.9138
  947MOL0     H24967   3.136   5.796   4.679 -1.1389  0.0353  0.9532
  947MOL0     H24968   3.126   6.172   4.142  0.8187 -0.0970 -2.5718
  947MOL0     H24969   3.309   6.302   4.022 -1.1906 -0.5371 -0.1443
  947MOL0     H24970   3.707   6.262   4.143  1.9640 -0.8655 -2.1945
  947MOL0     H24971   3.706   6.433   4.168 -1.9397 -1.2146  2.4308
  947MOL0     H24972   3.807   6.431   3.964 -1.3397  1.2959  2.4121
  947MOL0     H24973   3.659   6.471   3.926  0.2271 -0.2590 -3.2408
  947MOL0     H24974   3.685   6.162   3.917  0.6148  2.2389  2.0139
  947MOL0     H24975   3.759   6.254   3.781 -0.1198  2.3097 -0.8777
  947MOL0     H24976   3.462   6.268   3.854 -0.3592  1.3677  0.0212
  947MOL0     H24977   3.549   6.349   3.724 -0.8808 -0.9041 -1.9603
  947MOL0     H24978   3.599   6.159   3.613 -0.0323  1.6095  0.3629
  947MOL0     H24979   3.423   6.156   3.645 -1.0167 -3.4582  1.6271
  947MOL0     H24980   3.465   5.975   3.810 -1.9428  0.1430 -2.4262
  947MOL0     H24981   3.642   5.991   3.787  1.0703 -0.2482 -2.2702
  947MOL0     H24982   3.496   5.805   3.691  2.4356  0.3466  2.8801
  947MOL0     H24983   3.483   5.928   3.549  0.7245 -0.5094  0.0488
  947MOL0     H24984   3.672   5.801   3.500  2.0992  0.4444 -0.7831
  947MOL0     H24985   3.725   5.800   3.675  0.0688  2.3135 -0.6264
  947MOL0     H24986   3.567   6.240   4.362 -1.4039 -1.2035  1.9955
  947MOL0     H24987   3.411   6.128   4.473  0.7276  2.1047  0.0212
  947MOL0     H24988   2.902   6.111   4.508  3.8990 -0.1887 -0.3775
  947MOL0     H24989   2.712   6.041   4.644  0.4214  1.2988  0.2729
  947MOL0     H24990   2.579   4.246   4.601 -1.5027 -0.4975  2.7044
  947MOL0     H24991   2.803   4.214   4.503 -3.0814 -0.4627 -0.7978
  947MOL0     H24992   3.179   3.822   4.512 -0.1971  0.7830 -1.7528
  947MOL0     H24993   3.403   3.778   4.428  0.7365  0.0803  0.3936
  947MOL0     H24994   3.624   3.753   4.483  0.3506  0.0402 -0.3806
  947MOL0     H24995   3.781   3.826   4.465  1.4322  1.0065 -2.0973
  947MOL0     H24996   3.574   3.887   4.263  0.1944  0.6693 -0.7017
  947MOL0     H24997   3.751   3.908   4.242 -2.0551  1.2119 -1.0255
  947MOL0     H24998   3.684   3.723   4.118 -2.0228  2.3381  0.3860
  947MOL0     H24999   3.633   3.636   4.275  1.1849 -1.1081  0.3138
  947MOL0     H25000   3.913   3.747   4.242 -0.3367  0.7466  1.6570
  947MOL0     H25001   3.853   3.620   4.353  0.8980  0.4431 -0.3179
  947MOL0     H25002   3.964   3.435   3.981 -2.3654  0.6507 -2.1844
  947MOL0     H25003   3.515   4.160   4.585  0.3507 -1.3655 -1.3145
  947MOL0     H25004   3.268   4.205   4.647  2.3607  0.4938 -0.4908
  948MOL0     O25005   0.064   4.786   7.921  0.9859  0.3313 -0.4395
  948MOL0     C25006   0.037   4.887   7.865  0.0365 -0.2549  0.5456
  948MOL0     O25007   0.062   4.907   7.729  0.3750  0.2195 -0.5072
  948MOL0     C25008   0.144   4.814   7.668 -0.0662 -1.3487 -0.1741
  948MOL0     C25009   0.280   4.824   7.682 -0.3900  0.0375 -0.4358
  948MOL0     C25010   0.366   4.732   7.624  1.3082  0.4985 -0.2454
  948MOL0     C25011   0.310   4.643   7.535 -0.6877 -0.4385 -0.5310
  948MOL0     O25012   0.396   4.544   7.486 -0.2244 -0.3122 -0.4988
  948MOL0     C25013   0.379   4.516   7.346  0.1538  0.3295  0.6179
  948MOL0     C25014   0.501   4.500   7.271  0.2512  0.2046  0.3293
  948MOL0     C25015   0.565   4.633   7.251  0.1723  0.1119 -1.3982
  948MOL0     C25016   0.696   4.633   7.187 -0.1339 -0.2398 -1.4059
  948MOL0     C25017   0.759   4.776   7.185  0.3765  1.0221 -0.1150
  948MOL0     C25018   0.897   4.768   7.115 -0.3155 -0.4314  0.0594
  948MOL0     C25019   1.004   4.853   7.183  0.6032  1.1961 -0.6991
  948MOL0     C25020   1.142   4.847   7.124  0.5713  0.1102  0.3984
  948MOL0     N25021   1.191   4.714   7.100 -0.1919  0.3905  0.0565
  948MOL0     C25022   1.311   4.677   7.144  0.2226  0.1209  0.9037
  948MOL0     C25023   1.333   4.555   7.093 -0.3617 -0.3802 -0.9263
  948MOL0     C25024   1.446   4.469   7.126 -0.6483 -0.6863  0.2140
  948MOL0     C25025   1.570   4.512   7.037  0.0841  0.3191 -0.2791
  948MOL0     C25026   1.687   4.421   7.065  0.0101 -0.4157 -0.6025
  948MOL0     C25027   1.824   4.499   7.050 -0.3192 -0.2751 -0.0243
  948MOL0     O25028   1.932   4.419   7.007  0.1761  0.4231  0.3255
  948MOL0     C25029   2.054   4.467   7.040  0.3385 -0.7462  0.1110
  948MOL0     C25030   2.137   4.392   7.123  1.1963  0.2172 -0.4094
  948MOL0     C25031   2.268   4.435   7.152 -0.0475 -0.2948  0.4392
  948MOL0     C25032   2.316   4.547   7.088  0.7187 -0.6866 -0.5043
  948MOL0     C25033   2.453   4.604   7.124 -0.9942 -0.1175  0.0364
  948MOL0     O25034   2.495   4.711   7.049 -0.0237  0.7322 -0.8964
  948MOL0     C25035   2.576   4.821   7.091  0.1944  0.0155  0.8859
  948MOL0     C25036   2.603   4.907   6.982  0.0270  0.1054  0.4565
  948MOL0     C25037   2.690   5.014   7.009  0.5396  0.3210 -0.3356
  948MOL0     C25038   2.739   5.035   7.140  0.7215  0.6519 -0.1789
  948MOL0     O25039   2.810   5.142   7.188 -0.2541 -0.8845 -0.3772
  948MOL0     C25040   2.909   5.208   7.113  0.8680 -1.0687  0.4376
  948MOL0     C25041   2.967   5.335   7.193  0.2225  0.6299 -0.0104
  948MOL0     C25042   2.882   5.464   7.174  0.6230 -0.3465 -0.0386
  948MOL0     C25043   2.928   5.567   7.265 -0.1716 -0.1727 -0.4134
  948MOL0     C25044   2.846   5.701   7.264  0.2240 -0.6108 -0.2670
  948MOL0     C25045   2.733   5.698   7.375  0.6022 -1.1142  0.5878
  948MOL0     C25046   2.622   5.808   7.382 -0.5652  0.3404 -0.0854
  948MOL0     C25047   2.527   5.792   7.259  0.5863 -0.6699 -0.7603
  948MOL0    Cl25048   2.402   5.922   7.283 -0.2071 -0.5237  0.4199
  948MOL0     C25049   2.693   4.951   7.243  0.2517  0.0758 -0.0711
  948MOL0     C25050   2.613   4.841   7.217 -0.3682 -0.1921 -0.1842
  948MOL0     O25051   2.507   4.564   7.223  0.5392 -0.1098  0.4354
  948MOL0     C25052   2.236   4.610   6.994 -0.1889  0.0708  0.1306
  948MOL0     C25053   2.104   4.575   6.975  0.2011  0.2413  0.6518
  948MOL0     N25054   1.232   4.524   7.002 -0.0921  0.3477  0.1631
  948MOL0     N25055   1.150   4.632   6.999  0.1868 -0.9664 -0.2677
  948MOL0     C25056   0.170   4.638   7.519 -0.0898 -0.0192  0.8176
  948MOL0     C25057   0.085   4.721   7.581  0.3818  0.9142  0.2545
  948MOL0     C25058  -0.053   4.992   7.918  0.6150  0.1876 -0.8027
  948MOL0     C25059  -0.126   5.081   7.839  0.3385 -0.1056  0.1276
  948MOL0     C25060  -0.188   5.191   7.901 -0.0447  0.5965 -0.5575
  948MOL0     C25061  -0.184   5.208   8.042  0.4439  0.5409  0.3056
  948MOL0     O25062  -0.245   5.331   8.084  0.0593  0.0896  0.6169
  948MOL0     C25063  -0.216   5.381   8.221  0.0315 -0.1872  0.6240
  948MOL0     C25064  -0.273   5.518   8.227  0.3221 -0.2442  1.2397
  948MOL0     C25065  -0.258   5.570   8.377 -0.4711 -0.0355 -0.3049
  948MOL0     C25066  -0.303   5.712   8.399 -0.6325 -0.2052 -0.2925
  948MOL0     C25067  -0.223   5.806   8.316  0.3275  0.6509 -0.0080
  948MOL0     C25068  -0.177   5.890   8.247  0.2855 -0.9108 -0.4242
  948MOL0     C25069  -0.116   5.111   8.123  0.2012  0.7510  0.7673
  948MOL0     C25070  -0.044   5.012   8.059  0.0453  0.5513  0.7567
  948MOL0     H25071   0.337   4.899   7.737 -3.6758 -0.1327  3.6697
  948MOL0     H25072   0.473   4.743   7.639  0.8807  0.4754  4.2047
  948MOL0     H25073   0.322   4.590   7.289 -3.4907 -2.0141  0.9081
  948MOL0     H25074   0.318   4.426   7.339  0.0359  0.3885  0.8607
  948MOL0     H25075   0.472   4.466   7.171 -1.4134  1.4919  0.3340
  948MOL0     H25076   0.570   4.432   7.321  1.2092  1.2546  0.4657
  948MOL0     H25077   0.578   4.682   7.348 -1.5278  0.1940 -1.1760
  948MOL0     H25078   0.492   4.695   7.198 -0.6152 -0.2619 -0.7742
  948MOL0     H25079   0.770   4.571   7.238 -0.6325  0.4794  0.2650
  948MOL0     H25080   0.700   4.592   7.085  1.6104  0.1822 -1.5354
  948MOL0     H25081   0.766   4.843   7.271 -1.1856  3.8098 -1.9870
  948MOL0     H25082   0.692   4.835   7.121 -0.1077 -0.0363 -0.6264
  948MOL0     H25083   0.878   4.811   7.016 -2.4714  1.3418  1.1462
  948MOL0     H25084   0.929   4.664   7.106  1.0142  0.0965 -1.9965
  948MOL0     H25085   0.972   4.955   7.206 -0.7235  0.6396  0.0605
  948MOL0     H25086   1.029   4.803   7.277  3.0362  1.3743 -1.1726
  948MOL0     H25087   1.206   4.915   7.181 -2.1016  3.2583 -0.0380
  948MOL0     H25088   1.127   4.891   7.024  0.0629 -3.2712 -1.1745
  948MOL0     H25089   1.371   4.723   7.222 -1.4359 -2.1514  3.7174
  948MOL0     H25090   1.399   4.372   7.103 -5.8714  1.2654  1.1281
  948MOL0     H25091   1.470   4.467   7.233  0.7696  2.1187  0.0156
  948MOL0     H25092   1.598   4.613   7.068 -0.5282  0.1984  0.7147
  948MOL0     H25093   1.535   4.508   6.933 -3.3160  1.2070  0.6985
  948MOL0     H25094   1.689   4.389   7.169  2.2524  0.6344 -0.2397
  948MOL0     H25095   1.685   4.334   7.000 -0.4083 -1.0532  0.2538
  948MOL0     H25096   1.842   4.537   7.151 -2.5229  0.3012  0.2063
  948MOL0     H25097   1.816   4.582   6.980 -0.0756 -0.1117  0.1396
  948MOL0     H25098   2.117   4.292   7.161  1.2286 -0.4941 -2.1597
  948MOL0     H25099   2.317   4.386   7.235  0.5069 -0.6998 -0.1085
  948MOL0     H25100   2.580   4.885   6.879  2.4456 -2.4425  0.3364
  948MOL0     H25101   2.729   5.089   6.942 -0.2737  0.6627 -0.4316
  948MOL0     H25102   2.871   5.240   7.015 -1.2280 -1.8199  0.9632
  948MOL0     H25103   2.985   5.133   7.087  1.0866 -0.2470 -1.5248
  948MOL0     H25104   3.065   5.373   7.160  0.5918  3.1272  3.4319
  948MOL0     H25105   2.977   5.311   7.299 -0.6800  0.6034  0.0714
  948MOL0     H25106   2.784   5.444   7.219  0.8068  1.6170  1.3254
  948MOL0     H25107   2.877   5.488   7.068  4.6893 -2.0803 -0.8107
  948MOL0     H25108   2.922   5.525   7.366 -2.4136 -1.0708 -0.8575
  948MOL0     H25109   3.030   5.589   7.233  0.4794 -2.0673  0.2110
  948MOL0     H25110   2.796   5.708   7.167  0.6128 -1.5329 -0.5389
  948MOL0     H25111   2.910   5.790   7.263  0.5438 -0.7989  1.1591
  948MOL0     H25112   2.785   5.686   7.471  2.3568  2.6930  0.2741
  948MOL0     H25113   2.678   5.606   7.353 -0.1248 -1.0350  1.9673
  948MOL0     H25114   2.562   5.799   7.473  1.4062  0.9323  1.3250
  948MOL0     H25115   2.675   5.903   7.372 -1.6852  0.7710 -3.0082
  948MOL0     H25116   2.483   5.693   7.246 -0.7235  0.1585 -3.4111
  948MOL0     H25117   2.576   5.810   7.162 -1.0209  1.2768 -1.2666
  948MOL0     H25118   2.738   4.973   7.339  2.1428 -0.3560 -0.8141
  948MOL0     H25119   2.591   4.777   7.302 -0.3009 -2.1389 -1.5700
  948MOL0     H25120   2.278   4.693   6.939  2.8821 -1.1812  0.4335
  948MOL0     H25121   2.043   4.631   6.905 -0.8015 -1.5839 -0.0214
  948MOL0     H25122   0.129   4.558   7.458  1.8920  0.2576 -1.0246
  948MOL0     H25123  -0.020   4.722   7.555  0.0448 -0.8358  1.3441
  948MOL0     H25124  -0.147   5.063   7.734  1.4064 -0.3104 -0.0681
  948MOL0     H25125  -0.247   5.272   7.858 -1.0025  0.5916  0.6958
  948MOL0     H25126  -0.108   5.378   8.237  0.0996 -0.9361  0.0752
  948MOL0     H25127  -0.258   5.311   8.294  2.1092 -0.8347  1.2687
  948MOL0     H25128  -0.229   5.589   8.157  0.0183 -0.4001  0.8865
  948MOL0     H25129  -0.380   5.520   8.205 -0.0759  3.2266  2.8037
  948MOL0     H25130  -0.159   5.556   8.420 -1.5686 -0.5061  2.2551
  948MOL0     H25131  -0.322   5.502   8.435  0.4420 -1.1881 -0.6086
  948MOL0     H25132  -0.408   5.705   8.370 -0.1382 -1.6193 -1.9421
  948MOL0     H25133  -0.302   5.744   8.503  1.1685 -0.9946 -0.0253
  948MOL0     H25134  -0.156   5.975   8.184  1.7879 -0.7855  0.2161
  948MOL0     H25135  -0.116   5.135   8.229 -0.7306  5.7809 -0.1178
  948MOL0     H25136   0.037   4.954   8.103  0.5549 -2.1356 -3.2195
  949MOL0     O25137  11.184   6.085   6.446  0.8225 -0.3665 -0.3216
  949MOL0     C25138  11.255   6.120   6.346  0.2237  0.7289  0.8782
  949MOL0     O25139  11.283   6.044   6.230  0.5322  0.8483 -0.5014
  949MOL0     C25140  11.231   5.921   6.201  0.1146  0.7998 -0.4680
  949MOL0     C25141  11.173   5.832   6.296 -0.3675 -0.1055 -0.6787
  949MOL0     C25142  11.146   5.700   6.258 -0.0257  0.7263  0.4168
  949MOL0     C25143  11.160   5.664   6.129  0.0001 -0.4158  0.0571
  949MOL0     O25144  11.138   5.531   6.092 -0.0252  0.1086  0.4939
  949MOL0     C25145  11.236   5.441   6.124 -0.4310 -0.3096 -0.0480
  949MOL0     C25146  11.176   5.315   6.197  0.4092 -0.7353 -0.2258
  949MOL0     C25147  11.276   5.209   6.233  0.8320  0.0524 -0.4431
  949MOL0     C25148  11.215   5.070   6.233 -0.0858  0.6795 -0.3386
  949MOL0     C25149  11.315   4.951   6.273  0.0755 -0.1129  0.6027
  949MOL0     C25150  11.255   4.814   6.244  0.5922 -0.3171 -0.1272
  949MOL0     C25151  11.364   4.711   6.248  0.6497  0.4970 -1.1977
  949MOL0     C25152  11.355   4.581   6.161 -0.2357 -0.3663 -0.0164
  949MOL0     N25153  11.228   4.508   6.177  0.2461  1.0597 -0.0441
  949MOL0     C25154  11.140   4.473   6.072 -0.0085  0.0854  0.1812
  949MOL0     C25155  11.040   4.405   6.137 -0.5590  0.5093  0.2098
  949MOL0     C25156  10.912   4.351   6.081  0.0107  0.0597  0.0463
  949MOL0     C25157  10.861   4.412   5.953  0.2582  0.1815  0.2726
  949MOL0     C25158  10.809   4.557   5.961 -0.2027 -0.7590  0.5538
  949MOL0     C25159  10.724   4.596   5.843  0.5121 -0.4079 -0.6941
  949MOL0     O25160  10.804   4.628   5.733 -0.6863 -0.5233  0.1296
  949MOL0     C25161  10.751   4.675   5.616  0.6794  1.5613 -0.4252
  949MOL0     C25162  10.837   4.679   5.510  0.0539 -0.3687  0.6143
  949MOL0     C25163  10.788   4.728   5.391  0.6289  0.1279  0.9453
  949MOL0     C25164  10.652   4.766   5.374 -0.7511 -0.0653 -0.5075
  949MOL0     C25165  10.585   4.802   5.248 -0.3456  0.4234 -0.0319
  949MOL0     O25166  10.452   4.848   5.253  0.7590  0.0384 -0.2155
  949MOL0     C25167  10.395   4.919   5.153 -0.3970  0.0930 -0.6055
  949MOL0     C25168  10.360   4.866   5.029 -0.1083 -0.4869 -0.1187
  949MOL0     C25169  10.317   4.948   4.926 -0.0488 -0.8934  1.2941
  949MOL0     C25170  10.284   5.078   4.945  0.9804 -1.4919 -1.0479
  949MOL0     O25171  10.232   5.170   4.852 -0.2415 -0.3975 -0.2913
  949MOL0     C25172  10.253   5.149   4.712  0.3572 -0.8001 -0.1916
  949MOL0     C25173  10.406   5.143   4.680  0.4585  0.0123  0.0453
  949MOL0     C25174  10.446   5.166   4.533 -0.6332 -0.1376  0.1006
  949MOL0     C25175  10.589   5.202   4.529  0.5097  0.5053  0.1188
  949MOL0     C25176  10.627   5.203   4.380 -0.2699 -0.2575  0.3976
  949MOL0     C25177  10.766   5.267   4.365 -0.4509 -0.3585  0.6111
  949MOL0     C25178  10.813   5.289   4.226  0.1602 -0.1927 -0.3254
  949MOL0     C25179  10.941   5.373   4.219  0.2073  0.6538  0.1236
  949MOL0    Cl25180  11.060   5.301   4.342 -0.4855  0.7232 -0.4492
  949MOL0     C25181  10.307   5.130   5.085 -0.6797 -0.0513  0.4197
  949MOL0     C25182  10.359   5.051   5.186  0.3596  0.4158  0.7802
  949MOL0     O25183  10.654   4.797   5.147 -0.0832 -0.5783  0.5100
  949MOL0     C25184  10.568   4.749   5.489  0.5532 -0.4806  0.8512
  949MOL0     C25185  10.612   4.697   5.602  0.7090  0.0482 -0.2667
  949MOL0     N25186  11.072   4.399   6.275  0.5283 -0.5176  0.0977
  949MOL0     N25187  11.181   4.466   6.296  0.1280 -0.4376  0.3688
  949MOL0     C25188  11.218   5.748   6.033  0.1871 -0.6388  0.0377
  949MOL0     C25189  11.252   5.880   6.067  0.3356 -0.1761 -0.1999
  949MOL0     C25190  11.315   6.258   6.357 -0.3567  0.4181  0.5433
  949MOL0     C25191  11.311   6.328   6.484  0.2272  0.8218 -0.1549
  949MOL0     C25192  11.388   6.445   6.494 -0.4917 -0.8293  0.1867
  949MOL0     C25193  11.466   6.503   6.391 -0.3005  0.5462  0.1345
  949MOL0     O25194  11.544   6.614   6.382 -0.5899 -0.0732 -0.2000
  949MOL0     C25195  11.521   6.697   6.493  0.4789 -0.7192  0.1565
  949MOL0     C25196  11.381   6.766   6.491 -0.2372 -0.6026  0.3363
  949MOL0     C25197  11.372   6.865   6.377 -0.1690 -0.2025  0.6714
  949MOL0     C25198  11.247   6.950   6.395  0.4289 -0.0425 -0.4451
  949MOL0     C25199  11.197   7.004   6.274  0.3866 -0.4834  0.3239
  949MOL0     C25200  11.159   7.056   6.169 -1.2953  0.6371 -0.7255
  949MOL0     C25201  11.468   6.433   6.269  0.4298 -0.2014  0.0201
  949MOL0     C25202  11.394   6.317   6.251  0.5886 -0.0832 -0.5833
  949MOL0     H25203  11.157   5.864   6.399 -0.2782 -2.3603  0.0865
  949MOL0     H25204  11.104   5.634   6.333 -2.7826  2.5889  0.6677
  949MOL0     H25205  11.307   5.489   6.192 -0.9306  2.1787 -1.1756
  949MOL0     H25206  11.281   5.411   6.029 -1.4392 -0.7247 -0.4067
  949MOL0     H25207  11.114   5.268   6.120  0.8583 -2.4634  0.4137
  949MOL0     H25208  11.110   5.344   6.279 -1.2096 -1.5848 -1.1732
  949MOL0     H25209  11.330   5.235   6.325 -2.0822 -0.5038  1.5513
  949MOL0     H25210  11.360   5.201   6.162  2.3783 -2.3074  1.4758
  949MOL0     H25211  11.120   5.069   6.287 -1.1087  0.2335 -2.0674
  949MOL0     H25212  11.181   5.044   6.132 -0.1648 -0.6008  0.0048
  949MOL0     H25213  11.360   4.949   6.373  3.3497  2.4886 -0.6237
  949MOL0     H25214  11.395   4.973   6.202 -1.5550  3.0124 -0.4221
  949MOL0     H25215  11.213   4.821   6.143 -1.2836  0.1683  0.6300
  949MOL0     H25216  11.179   4.793   6.320  0.0045 -0.7308 -0.8160
  949MOL0     H25217  11.459   4.758   6.222  0.4395  2.1079  0.7195
  949MOL0     H25218  11.368   4.680   6.352 -0.4435  0.7717 -1.0570
  949MOL0     H25219  11.428   4.507   6.194 -0.6650 -0.9572 -0.3866
  949MOL0     H25220  11.376   4.612   6.058  1.0954 -0.1557  0.2980
  949MOL0     H25221  11.153   4.496   5.967 -1.5201 -0.0129 -0.0582
  949MOL0     H25222  10.845   4.380   6.162  1.0405 -1.5018  1.5021
  949MOL0     H25223  10.910   4.242   6.072  1.4652 -0.1016  1.3647
  949MOL0     H25224  10.780   4.351   5.914  1.5023 -0.1972 -1.8723
  949MOL0     H25225  10.947   4.414   5.885  0.0591  2.4296 -0.0173
  949MOL0     H25226  10.762   4.569   6.059 -1.1671 -0.4109  0.0653
  949MOL0     H25227  10.903   4.613   5.953  0.9978 -2.6294  1.0060
  949MOL0     H25228  10.670   4.685   5.876  1.1668  0.0633 -0.8856
  949MOL0     H25229  10.641   4.526   5.832 -1.1683  1.7086 -2.2982
  949MOL0     H25230  10.945   4.687   5.518  1.2058 -0.8960 -6.8223
  949MOL0     H25231  10.861   4.735   5.311 -0.8205  1.0228 -0.3688
  949MOL0     H25232  10.383   4.762   5.012  2.5684  0.1317 -0.8661
  949MOL0     H25233  10.299   4.905   4.829  0.4612 -3.0419  2.0951
  949MOL0     H25234  10.211   5.228   4.650  0.1055 -0.9179 -0.1726
  949MOL0     H25235  10.191   5.067   4.675 -2.7459  1.4183 -0.2826
  949MOL0     H25236  10.444   5.049   4.721 -1.6573  0.3148  3.0372
  949MOL0     H25237  10.454   5.223   4.738 -0.8975  2.0303 -1.4913
  949MOL0     H25238  10.397   5.255   4.494 -0.8290 -0.9351 -1.5446
  949MOL0     H25239  10.431   5.075   4.475  0.5765 -0.6860  0.6054
  949MOL0     H25240  10.607   5.304   4.564  1.5265  1.0566 -1.8823
  949MOL0     H25241  10.651   5.131   4.586  0.8008 -0.3752 -1.2527
  949MOL0     H25242  10.556   5.267   4.327  1.4092  2.0336  0.7864
  949MOL0     H25243  10.625   5.102   4.338 -2.3250  0.0391 -0.3266
  949MOL0     H25244  10.852   5.215   4.407  4.1222  2.0448 -4.6177
  949MOL0     H25245  10.763   5.367   4.411 -3.0965  0.6632 -1.4863
  949MOL0     H25246  10.826   5.188   4.185  1.5789  0.4017 -1.4183
  949MOL0     H25247  10.734   5.339   4.169  0.2935 -0.4303 -0.7227
  949MOL0     H25248  10.914   5.476   4.239 -0.9068  0.2201  0.9013
  949MOL0     H25249  10.990   5.362   4.121  3.9684 -0.8692  1.9453
  949MOL0     H25250  10.272   5.230   5.108  1.1343  0.4755  1.0445
  949MOL0     H25251  10.384   5.081   5.287  1.9367 -1.5329  1.0494
  949MOL0     H25252  10.463   4.767   5.473  0.7986 -0.7785 -1.4375
  949MOL0     H25253  10.546   4.669   5.684  0.1510 -0.1613 -0.7816
  949MOL0     H25254  11.247   5.720   5.933 -1.8611 -1.0896 -0.4632
  949MOL0     H25255  11.284   5.950   5.990 -1.4471  0.7632 -0.1379
  949MOL0     H25256  11.270   6.281   6.573  0.5420  0.5656 -0.1458
  949MOL0     H25257  11.394   6.496   6.590 -3.8706  2.3608 -1.0333
  949MOL0     H25258  11.602   6.770   6.497  1.0514 -1.1558 -2.0859
  949MOL0     H25259  11.534   6.645   6.589 -1.4408 -0.2672  0.7071
  949MOL0     H25260  11.294   6.700   6.494 -1.5662  1.0396 -0.6285
  949MOL0     H25261  11.371   6.817   6.587 -1.8870  2.7754 -1.4326
  949MOL0     H25262  11.364   6.821   6.277 -2.5052  0.4372  0.5102
  949MOL0     H25263  11.459   6.930   6.379 -0.6197  0.5458 -1.3953
  949MOL0     H25264  11.162   6.898   6.440  0.5610 -0.4172 -0.6291
  949MOL0     H25265  11.273   7.036   6.457 -0.4518 -0.0468 -0.0563
  949MOL0     H25266  11.134   7.105   6.077  0.6334 -1.3943 -2.4582
  949MOL0     H25267  11.519   6.466   6.179  1.3089 -0.6424  0.3453
  949MOL0     H25268  11.403   6.261   6.159  0.3089 -0.7831 -0.1869
  950MOL0     O25269   4.407  10.663   1.038  0.3016  0.7737  0.4286
  950MOL0     C25270   4.500  10.656   0.969  0.3219  0.1343  1.4085
  950MOL0     O25271   4.531  10.723   0.854 -0.7078  0.1385  0.2165
  950MOL0     C25272   4.471  10.835   0.803 -0.1870 -0.6834  0.3846
  950MOL0     C25273   4.380  10.911   0.868  0.0693  0.3475  0.6360
  950MOL0     C25274   4.310  11.013   0.808 -0.6380 -0.1117  0.0739
  950MOL0     C25275   4.332  11.040   0.677  0.8838  0.3758  0.8530
  950MOL0     O25276   4.256  11.138   0.615  0.4250 -1.0672  0.4908
  950MOL0     C25277   4.239  11.264   0.675 -0.3517 -0.7836  0.4370
  950MOL0     C25278   4.378  11.322   0.699 -0.4675 -0.4416  0.8262
  950MOL0     C25279   4.367  11.461   0.767  0.7897  0.9386 -1.5067
  950MOL0     C25280   4.288  11.476   0.903  1.2074 -0.0375 -0.2424
  950MOL0     C25281   4.324  11.621   0.958  0.7024  0.7380  0.3229
  950MOL0     C25282   4.254  11.647   1.097  0.4794 -0.2316  0.9489
  950MOL0     C25283   4.322  11.559   1.205  0.7054  0.1877  0.2776
  950MOL0     C25284   4.249  11.594   1.341  0.7662 -0.2299 -1.2103
  950MOL0     N25285   4.296  11.519   1.458 -1.3399  0.2935  0.5211
  950MOL0     C25286   4.220  11.476   1.560 -0.0919  0.0754 -0.4487
  950MOL0     C25287   4.303  11.440   1.660  0.1212 -0.0671 -1.0037
  950MOL0     C25288   4.256  11.390   1.796  0.6851 -0.3116 -0.6267
  950MOL0     C25289   4.334  11.261   1.844  0.4121 -0.8963 -0.0538
  950MOL0     C25290   4.281  11.216   1.984 -0.6525  0.3716 -0.1041
  950MOL0     C25291   4.160  11.124   1.970  0.9502 -0.2956  0.0910
  950MOL0     O25292   4.202  11.003   1.902  0.6228  0.2131  0.7465
  950MOL0     C25293   4.263  10.896   1.958 -0.7713  0.8813  0.0738
  950MOL0     C25294   4.313  10.797   1.873 -0.3552 -0.2769 -0.3202
  950MOL0     C25295   4.399  10.700   1.914 -0.4071 -0.4631  0.1952
  950MOL0     C25296   4.429  10.682   2.047  0.8632  0.1779  0.8277
  950MOL0     C25297   4.493  10.560   2.094 -1.2777 -0.4253  0.3711
  950MOL0     O25298   4.506  10.462   1.996 -0.2094 -0.9248 -0.3712
  950MOL0     C25299   4.550  10.341   2.052 -0.1526 -0.3474  0.7663
  950MOL0     C25300   4.456  10.245   2.108 -0.0461 -0.3678  0.2162
  950MOL0     C25301   4.494  10.121   2.140 -0.1462  0.1068 -0.3715
  950MOL0     C25302   4.636  10.081   2.121  0.1130  0.4836  0.0763
  950MOL0     O25303   4.674   9.959   2.175 -0.0201  1.2386 -0.5672
  950MOL0     C25304   4.805   9.949   2.239  0.1937 -0.4197  0.7095
  950MOL0     C25305   4.781   9.872   2.372 -0.6366  0.0442  0.7162
  950MOL0     C25306   4.892   9.896   2.467 -0.9232 -0.0089 -0.5950
  950MOL0     C25307   5.035   9.853   2.411 -0.2038 -0.0491  0.7750
  950MOL0     C25308   5.137   9.792   2.507  0.9034 -0.5238 -0.0993
  950MOL0     C25309   5.258   9.759   2.424 -0.0735  2.0497  0.1249
  950MOL0     C25310   5.349   9.648   2.475 -0.6919 -0.1894 -0.2908
  950MOL0     C25311   5.479   9.659   2.394 -1.3956 -0.5864  0.2501
  950MOL0    Cl25312   5.584   9.517   2.458  0.6598  0.0829  0.1227
  950MOL0     C25313   4.723  10.177   2.074 -0.9501  0.9683 -1.0109
  950MOL0     C25314   4.684  10.306   2.043  0.3113  0.2301  0.3934
  950MOL0     O25315   4.537  10.554   2.204  0.1665  0.0140 -0.0254
  950MOL0     C25316   4.380  10.783   2.135 -0.8192 -0.0042 -0.9810
  950MOL0     C25317   4.299  10.882   2.093  1.5437 -0.3956 -0.3737
  950MOL0     N25318   4.433  11.465   1.630 -0.0579 -0.5312  0.0536
  950MOL0     N25319   4.429  11.513   1.508 -0.2008 -0.0484  0.9393
  950MOL0     C25320   4.425  10.966   0.606  0.0268 -0.8554  0.4828
  950MOL0     C25321   4.493  10.863   0.670  0.3156  0.2520 -0.3506
  950MOL0     C25322   4.598  10.554   1.001  0.1374  0.7915 -0.1896
  950MOL0     C25323   4.701  10.512   0.917 -0.6695 -0.2488  0.6353
  950MOL0     C25324   4.802  10.423   0.956 -0.7877 -0.0412  0.0024
  950MOL0     C25325   4.788  10.367   1.084  0.0567  0.6708  0.3459
  950MOL0     O25326   4.869  10.262   1.131  0.3654  0.0688 -0.7140
  950MOL0     C25327   4.925  10.294   1.260  0.4578  0.0931 -0.7206
  950MOL0     C25328   5.068  10.321   1.250  0.0142  0.2975  0.1553
  950MOL0     C25329   5.154  10.201   1.197 -0.6233  0.2747 -0.5061
  950MOL0     C25330   5.156  10.087   1.305 -1.3266 -0.0457  0.0373
  950MOL0     C25331   5.252   9.976   1.260 -1.1264 -0.2696 -0.6243
  950MOL0     C25332   5.339   9.897   1.229  0.6802 -1.1901 -0.1645
  950MOL0     C25333   4.683  10.401   1.165 -0.9915 -0.1726  0.2792
  950MOL0     C25334   4.592  10.492   1.124 -0.3737  0.1192  0.0045
  950MOL0     H25335   4.360  10.883   0.971 -2.9264 -0.7295 -0.1235
  950MOL0     H25336   4.248  11.075   0.871  0.4231  2.1176 -0.9929
  950MOL0     H25337   4.205  11.257   0.779 -1.0166  0.3193  0.2952
  950MOL0     H25338   4.187  11.335   0.612  0.1874 -0.9482 -0.2133
  950MOL0     H25339   4.421  11.334   0.599 -2.0652  1.1908  0.2747
  950MOL0     H25340   4.443  11.257   0.757 -0.3467  1.7281  3.3143
  950MOL0     H25341   4.312  11.525   0.697 -3.3841 -0.9168 -0.2455
  950MOL0     H25342   4.473  11.486   0.780  1.5256 -0.6003 -3.8509
  950MOL0     H25343   4.181  11.459   0.887  1.0219  1.2625 -0.4992
  950MOL0     H25344   4.330  11.399   0.968  0.7566 -2.2704 -2.4252
  950MOL0     H25345   4.297  11.695   0.882  1.6044  3.2185  2.2849
  950MOL0     H25346   4.432  11.633   0.974  0.9123  1.0837 -1.1977
  950MOL0     H25347   4.145  11.637   1.092  0.3546 -2.4512  4.4725
  950MOL0     H25348   4.282  11.751   1.116  1.5332 -0.2340 -0.4140
  950MOL0     H25349   4.318  11.453   1.179  0.9139 -0.2949  2.0724
  950MOL0     H25350   4.426  11.574   1.233  0.9774 -2.6925  1.1113
  950MOL0     H25351   4.146  11.561   1.324  1.4642 -2.4691 -1.4243
  950MOL0     H25352   4.251  11.701   1.362 -0.4913 -0.5898  1.0581
  950MOL0     H25353   4.112  11.474   1.559 -0.1625  1.8946 -1.1780
  950MOL0     H25354   4.149  11.369   1.781  0.2063  1.1159  0.5465
  950MOL0     H25355   4.270  11.473   1.865  1.1275 -1.2165  0.4007
  950MOL0     H25356   4.439  11.282   1.867 -0.4267  4.8161 -0.0868
  950MOL0     H25357   4.320  11.181   1.770 -3.5146  0.1269 -0.6573
  950MOL0     H25358   4.363  11.173   2.042  0.3130  0.5135 -1.3230
  950MOL0     H25359   4.254  11.305   2.042 -2.6116 -0.2736  0.0705
  950MOL0     H25360   4.080  11.178   1.920  1.3400  0.6346  0.4396
  950MOL0     H25361   4.126  11.099   2.071 -1.4798  0.9573 -0.3501
  950MOL0     H25362   4.317  10.823   1.767  0.8810  2.1569  0.2642
  950MOL0     H25363   4.436  10.638   1.833 -0.5034 -1.6493  1.0315
  950MOL0     H25364   4.352  10.273   2.117  0.3794  2.5746 -2.3474
  950MOL0     H25365   4.413  10.056   2.172 -2.6429  1.1118 -4.0250
  950MOL0     H25366   4.844  10.048   2.264 -0.0718 -0.1211 -0.0410
  950MOL0     H25367   4.879   9.898   2.176 -0.7668  0.8533 -1.5371
  950MOL0     H25368   4.774   9.764   2.354 -0.7038  0.0354  0.7953
  950MOL0     H25369   4.687   9.915   2.407  0.9589  1.3127  3.8581
  950MOL0     H25370   4.864   9.848   2.561  1.2892  2.2174  1.3427
  950MOL0     H25371   4.908   9.999   2.501  0.8129 -0.8741  1.4446
  950MOL0     H25372   5.014   9.776   2.336  3.3355  0.9992 -1.5231
  950MOL0     H25373   5.081   9.938   2.359 -0.3782  1.0922  2.3945
  950MOL0     H25374   5.085   9.704   2.547 -1.6489  1.6585  1.7425
  950MOL0     H25375   5.158   9.858   2.592 -1.3091 -0.5220  0.5011
  950MOL0     H25376   5.326   9.844   2.422  2.8557  0.0452  3.3848
  950MOL0     H25377   5.229   9.726   2.324  0.0778 -3.1684  1.4876
  950MOL0     H25378   5.387   9.660   2.577  0.9864  0.6794 -0.9730
  950MOL0     H25379   5.297   9.554   2.457 -3.7824  1.6332 -1.6983
  950MOL0     H25380   5.532   9.755   2.397  0.2702 -1.1650 -3.8496
  950MOL0     H25381   5.460   9.637   2.289  1.4756 -1.4083 -0.1873
  950MOL0     H25382   4.829  10.160   2.087 -1.0715 -0.0175 -1.2797
  950MOL0     H25383   4.758  10.379   2.009  1.4712 -1.8255 -1.7465
  950MOL0     H25384   4.424  10.785   2.234 -1.2609 -0.7659 -0.7612
  950MOL0     H25385   4.272  10.959   2.164  4.6411  0.6963 -0.2179
  950MOL0     H25386   4.435  10.969   0.498  1.9811 -1.0685  0.6253
  950MOL0     H25387   4.557  10.795   0.614 -0.1108  0.6343 -1.3327
  950MOL0     H25388   4.695  10.554   0.817 -2.8272 -0.7510  0.5083
  950MOL0     H25389   4.882  10.389   0.891 -1.8642  0.8855 -1.8833
  950MOL0     H25390   4.917  10.204   1.322  1.1185  1.0518  0.8213
  950MOL0     H25391   4.876  10.377   1.311 -0.7481  0.2630 -2.0782
  950MOL0     H25392   5.084  10.407   1.184  0.7438  0.2359  0.2384
  950MOL0     H25393   5.098  10.351   1.351 -0.5897  0.3093  0.3355
  950MOL0     H25394   5.256  10.235   1.177 -1.2245  4.0352  1.9321
  950MOL0     H25395   5.106  10.164   1.106 -0.2942 -0.5810 -0.3416
  950MOL0     H25396   5.188  10.121   1.404 -2.7913  0.7616  0.2635
  950MOL0     H25397   5.057  10.040   1.312 -0.7981 -1.2105 -0.0097
  950MOL0     H25398   5.420   9.828   1.214  0.4424 -1.5902  0.3713
  950MOL0     H25399   4.678  10.360   1.265 -2.3229  2.0395  1.1899
  950MOL0     H25400   4.509  10.515   1.189  1.3931  1.1746  2.0145
  951MOL0     O25401   4.883   3.168   0.854 -0.1109  0.5894 -0.1274
  951MOL0     C25402   4.943   3.231   0.939 -0.4040  0.1321  0.4071
  951MOL0     O25403   5.055   3.316   0.915 -0.1418  0.0312  0.7825
  951MOL0     C25404   5.071   3.373   0.791 -0.2828 -0.0793  0.3357
  951MOL0     C25405   5.187   3.344   0.723  0.6822  0.2142 -0.3218
  951MOL0     C25406   5.214   3.396   0.595 -0.1899  0.2317 -0.0452
  951MOL0     C25407   5.123   3.474   0.524  0.7207  0.0787  0.6666
  951MOL0     O25408   5.130   3.514   0.390 -0.4967 -0.1049  0.3722
  951MOL0     C25409   5.215   3.437   0.308 -0.0487 -0.7285 -0.1793
  951MOL0     C25410   5.228   3.500   0.168 -0.0674 -0.0932  0.3931
  951MOL0     C25411   5.116   3.450   0.077 -0.7989  0.1636  1.0136
  951MOL0     C25412   4.977   3.496   0.099 -0.1786  0.0806 -0.2218
  951MOL0     C25413   4.867   3.427   0.010  0.0896  0.0676 -0.6211
  951MOL0     C25414   4.725   3.437   0.065 -0.4845 -0.4924  0.4095
  951MOL0     C25415   4.681   3.575   0.119 -0.5703 -0.3370  0.9659
  951MOL0     C25416   4.531   3.591   0.078  0.5368 -0.0207 -0.0380
  951MOL0     N25417   4.476   3.690   0.172 -0.1160  0.1460 -0.1493
  951MOL0     C25418   4.404   3.683   0.293 -0.6956  0.2004  0.1373
  951MOL0     C25419   4.357   3.801   0.324 -0.9789 -0.4870  0.9927
  951MOL0     C25420   4.271   3.851   0.439 -0.2821 -0.1951 -0.3377
  951MOL0     C25421   4.341   3.872   0.578  0.3408  0.0009  0.3456
  951MOL0     C25422   4.421   3.746   0.618 -0.2514 -0.4053 -0.7906
  951MOL0     C25423   4.445   3.750   0.768 -0.3535 -0.2733 -0.4857
  951MOL0     O25424   4.530   3.655   0.833 -0.1298  0.1816  0.0671
  951MOL0     C25425   4.586   3.682   0.961 -0.2047 -0.1144 -0.7050
  951MOL0     C25426   4.587   3.809   1.025 -0.6360 -0.4040  0.5343
  951MOL0     C25427   4.638   3.820   1.153 -1.1193  0.3502  1.4885
  951MOL0     C25428   4.689   3.713   1.226  0.5112  0.0450 -0.0172
  951MOL0     C25429   4.735   3.731   1.365  0.3769 -0.6874 -0.3469
  951MOL0     O25430   4.775   3.624   1.436 -0.4859 -0.0177 -0.5639
  951MOL0     C25431   4.828   3.656   1.560  0.4679 -0.5968 -0.5098
  951MOL0     C25432   4.759   3.614   1.677  0.0003 -0.3307  0.2185
  951MOL0     C25433   4.797   3.628   1.809  0.1686 -0.3052 -0.3278
  951MOL0     C25434   4.925   3.684   1.826  0.3424 -0.3275 -1.2957
  951MOL0     O25435   4.964   3.695   1.956 -0.1145 -0.4274 -0.2675
  951MOL0     C25436   5.101   3.674   1.985 -0.1869  0.5542 -0.2031
  951MOL0     C25437   5.112   3.618   2.133  0.6004 -0.1954 -0.1260
  951MOL0     C25438   5.244   3.621   2.205 -0.2394 -0.0540 -0.0600
  951MOL0     C25439   5.240   3.526   2.316 -0.5211 -0.6810 -0.5932
  951MOL0     C25440   5.377   3.514   2.381 -0.5081 -0.2390  0.2655
  951MOL0     C25441   5.376   3.382   2.470 -0.1558  0.9105  1.2737
  951MOL0     C25442   5.515   3.337   2.516 -0.0202 -0.1193 -1.0480
  951MOL0     C25443   5.487   3.224   2.617 -0.1888 -0.2072 -0.5153
  951MOL0    Cl25444   5.484   3.074   2.529  0.3454 -0.4402 -0.0299
  951MOL0     C25445   4.992   3.739   1.717 -0.4507  0.2244  0.4176
  951MOL0     C25446   4.946   3.727   1.587 -0.6876  0.7541 -0.6758
  951MOL0     O25447   4.731   3.849   1.398  0.1382 -0.5235 -0.0281
  951MOL0     C25448   4.696   3.594   1.163  0.4100  0.4236 -0.2220
  951MOL0     C25449   4.653   3.582   1.038  0.3899  0.0437 -0.2014
  951MOL0     N25450   4.426   3.889   0.231  0.2606  0.4612 -1.2544
  951MOL0     N25451   4.479   3.823   0.145  0.2621 -0.0955 -0.3986
  951MOL0     C25452   5.003   3.499   0.593  0.1380  0.0058 -0.2255
  951MOL0     C25453   4.973   3.455   0.730 -0.0996  0.0323 -0.2364
  951MOL0     C25454   4.889   3.219   1.076  0.5822 -0.0065 -0.8563
  951MOL0     C25455   4.959   3.270   1.188  0.3784 -0.5967 -0.0296
  951MOL0     C25456   4.894   3.291   1.311 -0.2845 -0.0543 -0.2371
  951MOL0     C25457   4.762   3.250   1.336  0.5484 -0.0495 -0.5994
  951MOL0     O25458   4.708   3.273   1.466  0.2993  0.1041  0.0949
  951MOL0     C25459   4.567   3.260   1.479 -0.2758 -0.0200 -0.1607
  951MOL0     C25460   4.506   3.373   1.409 -0.4446 -0.2946  0.4003
  951MOL0     C25461   4.356   3.381   1.444 -0.5544  0.2561 -0.2311
  951MOL0     C25462   4.274   3.504   1.402 -0.1168  0.1849 -0.5464
  951MOL0     C25463   4.294   3.533   1.263 -0.6282  0.3783  0.2619
  951MOL0     C25464   4.313   3.559   1.149  0.3220  0.8572 -0.0448
  951MOL0     C25465   4.695   3.193   1.228  0.3129 -0.4179 -0.3946
  951MOL0     C25466   4.755   3.172   1.104  0.5234  0.3160 -0.3170
  951MOL0     H25467   5.257   3.273   0.766  0.5518  1.1005  1.4320
  951MOL0     H25468   5.308   3.363   0.551  1.7529 -0.9550  4.3978
  951MOL0     H25469   5.198   3.330   0.295  1.0070 -1.2555  2.2613
  951MOL0     H25470   5.315   3.447   0.353  0.3928  1.4503 -1.4949
  951MOL0     H25471   5.315   3.467   0.110 -0.8168  1.3822 -1.6737
  951MOL0     H25472   5.227   3.609   0.163 -3.2944 -0.1029 -2.4304
  951MOL0     H25473   5.118   3.340   0.081  2.3640  0.1160  0.4608
  951MOL0     H25474   5.143   3.476  -0.025  0.6328 -0.3608  1.2370
  951MOL0     H25475   4.950   3.462   0.199  0.3995 -0.7522 -0.3341
  951MOL0     H25476   4.963   3.604   0.088 -0.2057 -0.0201 -1.3382
  951MOL0     H25477   4.890   3.322  -0.009  0.5173 -0.7306  3.5228
  951MOL0     H25478   4.861   3.480  -0.086 -1.1935 -1.5372 -1.4696
  951MOL0     H25479   4.727   3.377   0.156 -0.2609 -3.9709 -1.6946
  951MOL0     H25480   4.665   3.383  -0.008  0.9835 -3.0917  1.0233
  951MOL0     H25481   4.689   3.579   0.228  0.4810 -0.7822  0.9149
  951MOL0     H25482   4.738   3.647   0.059 -0.6830 -0.7476  0.3595
  951MOL0     H25483   4.468   3.502   0.077 -2.6274  1.9796 -3.7513
  951MOL0     H25484   4.509   3.633  -0.020  0.5282  2.8566  1.0939
  951MOL0     H25485   4.377   3.593   0.347 -3.3733 -0.4616 -2.0723
  951MOL0     H25486   4.194   3.780   0.472  0.9467  0.4867  4.8576
  951MOL0     H25487   4.225   3.944   0.404  0.2581 -0.9223 -3.1765
  951MOL0     H25488   4.273   3.898   0.660  0.7586  3.2561 -0.1846
  951MOL0     H25489   4.409   3.958   0.567  0.3037  0.3071  2.1646
  951MOL0     H25490   4.356   3.658   0.618 -1.2645  0.3308 -0.4761
  951MOL0     H25491   4.514   3.745   0.561  1.9310 -1.1667  2.5160
  951MOL0     H25492   4.346   3.752   0.815 -1.9633 -2.8231 -3.3399
  951MOL0     H25493   4.494   3.847   0.779  0.4272 -0.9371  2.9243
  951MOL0     H25494   4.561   3.898   0.969 -2.9002 -1.7096 -0.6458
  951MOL0     H25495   4.627   3.920   1.196 -0.6149  0.6467  0.9427
  951MOL0     H25496   4.659   3.581   1.651  0.9117 -1.7975 -1.6821
  951MOL0     H25497   4.742   3.579   1.888 -0.4137  1.5936  0.5123
  951MOL0     H25498   5.164   3.762   1.974 -0.0450  0.2532 -2.0223
  951MOL0     H25499   5.146   3.603   1.915 -2.8887  2.3030 -4.0474
  951MOL0     H25500   5.077   3.515   2.117 -4.0101  1.0572  0.4414
  951MOL0     H25501   5.038   3.664   2.200  2.2052  1.4712  0.5795
  951MOL0     H25502   5.259   3.722   2.247  0.7189  0.0984 -0.7351
  951MOL0     H25503   5.322   3.589   2.136  1.4744 -2.8348  2.9275
  951MOL0     H25504   5.170   3.555   2.395 -1.4877 -0.4569 -1.5137
  951MOL0     H25505   5.225   3.423   2.282  1.3285 -0.5759 -1.8928
  951MOL0     H25506   5.409   3.588   2.455 -1.3357 -0.5357  0.9350
  951MOL0     H25507   5.459   3.509   2.309  0.8776 -2.2897  1.8503
  951MOL0     H25508   5.329   3.292   2.430  0.3637  1.4245 -0.5697
  951MOL0     H25509   5.315   3.405   2.557 -1.0392 -0.5644  1.0773
  951MOL0     H25510   5.567   3.309   2.424 -0.7980 -0.5341 -1.3651
  951MOL0     H25511   5.570   3.417   2.567 -0.6772 -0.9117  1.0224
  951MOL0     H25512   5.395   3.230   2.675  1.6602  4.0529  2.4552
  951MOL0     H25513   5.565   3.212   2.694 -0.1648  0.5193 -0.4182
  951MOL0     H25514   5.086   3.793   1.730 -1.7044  2.1681  2.0831
  951MOL0     H25515   5.002   3.784   1.513  0.6819  1.9948  1.2086
  951MOL0     H25516   4.732   3.511   1.222 -0.3679  0.7529  0.7511
  951MOL0     H25517   4.653   3.495   0.973  1.5976  3.1465 -4.8214
  951MOL0     H25518   4.933   3.564   0.543 -2.0829 -2.9273 -1.2561
  951MOL0     H25519   4.878   3.476   0.778 -1.5322 -2.7961 -1.5711
  951MOL0     H25520   5.060   3.307   1.172 -0.7279  2.4783 -0.8091
  951MOL0     H25521   4.947   3.341   1.392  0.5727  0.8377 -1.3229
  951MOL0     H25522   4.541   3.276   1.584 -0.4018  3.1518 -0.5646
  951MOL0     H25523   4.527   3.166   1.441  1.0275 -1.8216  2.6395
  951MOL0     H25524   4.565   3.465   1.424 -0.8945  0.4626 -2.0133
  951MOL0     H25525   4.514   3.349   1.303 -3.3790 -0.8875  0.2382
  951MOL0     H25526   4.357   3.376   1.553  0.6892 -0.4688 -0.2608
  951MOL0     H25527   4.314   3.283   1.420 -0.3198 -0.5081  2.2204
  951MOL0     H25528   4.168   3.490   1.425 -0.2904 -0.9692 -1.9231
  951MOL0     H25529   4.307   3.595   1.453  0.7731 -0.4146 -0.0238
  951MOL0     H25530   4.329   3.590   1.047  1.0235 -2.1727 -0.9567
  951MOL0     H25531   4.593   3.157   1.239  0.3590 -0.4990 -0.2309
  951MOL0     H25532   4.691   3.131   1.028 -0.7464 -2.4707  2.0764
  952MOL0     O25533   7.637   3.860   3.916  0.4716  0.1537 -0.4143
  952MOL0     C25534   7.709   3.760   3.909  0.1272  0.3128  0.6801
  952MOL0     O25535   7.774   3.719   3.797  0.6047 -0.1046 -0.3392
  952MOL0     C25536   7.713   3.735   3.681  0.3180 -0.2500  0.3218
  952MOL0     C25537   7.595   3.664   3.647  0.4883  0.4366  0.1716
  952MOL0     C25538   7.529   3.698   3.529 -0.0812 -0.6384  0.5866
  952MOL0     C25539   7.584   3.786   3.436  0.4616  0.3745 -0.1885
  952MOL0     O25540   7.535   3.808   3.309 -0.2599  0.0100 -0.3492
  952MOL0     C25541   7.520   3.685   3.231  0.8725  0.5921 -0.2398
  952MOL0     C25542   7.478   3.715   3.083 -0.0180 -0.6718 -0.6903
  952MOL0     C25543   7.600   3.781   3.016 -0.0415  0.2919  1.5498
  952MOL0     C25544   7.608   3.746   2.863  0.0966 -0.6106  0.9864
  952MOL0     C25545   7.480   3.753   2.768 -1.0788 -0.4241 -1.4041
  952MOL0     C25546   7.447   3.901   2.761  0.2128 -0.1378 -0.4157
  952MOL0     C25547   7.343   3.932   2.664  1.0142  0.1193 -1.3576
  952MOL0     C25548   7.335   4.087   2.657 -0.1736 -0.1302  0.1178
  952MOL0     N25549   7.277   4.116   2.532 -0.0635 -0.5179  0.3473
  952MOL0     C25550   7.157   4.169   2.513  0.6442 -0.8729 -0.0401
  952MOL0     C25551   7.137   4.175   2.376 -0.7540 -0.2719  0.8419
  952MOL0     C25552   7.017   4.222   2.312  0.8542 -0.2072  0.0623
  952MOL0     C25553   7.004   4.372   2.289  0.0237  0.6446  0.3683
  952MOL0     C25554   7.058   4.468   2.399  0.0257 -0.0481 -0.0316
  952MOL0     C25555   6.963   4.468   2.524 -0.1422 -0.2855 -0.0880
  952MOL0     O25556   6.850   4.544   2.479 -0.2969  0.0808  0.8115
  952MOL0     C25557   6.753   4.586   2.562  0.5239 -0.7483 -0.4946
  952MOL0     C25558   6.641   4.642   2.505 -1.3573 -0.6460 -0.6833
  952MOL0     C25559   6.536   4.685   2.582  0.7568  0.7537 -0.0475
  952MOL0     C25560   6.551   4.673   2.730  0.0733 -0.3430 -0.1097
  952MOL0     C25561   6.447   4.725   2.820 -1.1377 -1.1212  0.7263
  952MOL0     O25562   6.339   4.782   2.760  0.4537  0.7913 -0.2345
  952MOL0     C25563   6.229   4.828   2.826 -0.6293  0.0077  0.2813
  952MOL0     C25564   6.236   4.920   2.945 -1.0802  0.1334  1.2076
  952MOL0     C25565   6.119   4.945   3.017 -0.6016 -0.2403  0.5493
  952MOL0     C25566   5.997   4.897   2.976 -0.4779  0.5923  1.3601
  952MOL0     O25567   5.875   4.918   3.039  0.5139 -0.4515  0.5506
  952MOL0     C25568   5.863   4.965   3.174 -0.1679  0.0176  0.9891
  952MOL0     C25569   5.724   5.001   3.232  0.1482  0.3111  0.7140
  952MOL0     C25570   5.705   4.940   3.374  0.4796  0.5207 -1.1326
  952MOL0     C25571   5.558   4.943   3.401  0.7744 -0.1668  0.6742
  952MOL0     C25572   5.501   4.889   3.541  0.4889 -0.0774 -0.4916
  952MOL0     C25573   5.529   4.987   3.655  0.6068  0.0989  0.2288
  952MOL0     C25574   5.432   5.100   3.674  0.4187  0.5725  0.3017
  952MOL0     C25575   5.445   5.172   3.819 -0.4493  0.1442 -0.5809
  952MOL0    Cl25576   5.402   5.066   3.954 -0.0124 -0.8124 -0.3034
  952MOL0     C25577   5.986   4.825   2.855  0.6103 -0.3825 -0.3148
  952MOL0     C25578   6.108   4.791   2.787  0.0098  0.1698  0.7085
  952MOL0     O25579   6.469   4.712   2.936  0.4799 -0.0068 -1.0913
  952MOL0     C25580   6.665   4.608   2.782  1.0649 -0.1788 -0.3363
  952MOL0     C25581   6.761   4.564   2.699  0.7050  0.8904  0.2898
  952MOL0     N25582   7.255   4.125   2.319 -0.0152 -0.0724  0.1112
  952MOL0     N25583   7.339   4.086   2.413  0.5409  0.2540  0.6044
  952MOL0     C25584   7.703   3.848   3.471  0.2663 -0.9451 -0.7198
  952MOL0     C25585   7.770   3.824   3.592 -0.7637  0.2982  0.4252
  952MOL0     C25586   7.743   3.701   4.042 -0.2660 -0.5439  1.2583
  952MOL0     C25587   7.657   3.729   4.150  0.0196 -0.8174 -0.1972
  952MOL0     C25588   7.692   3.680   4.277 -1.2214 -1.2126  0.2028
  952MOL0     C25589   7.809   3.612   4.298  0.1692  0.1572  0.5363
  952MOL0     O25590   7.854   3.576   4.426 -0.0669 -0.2359 -0.1064
  952MOL0     C25591   7.995   3.562   4.453 -0.7710 -0.6477 -0.3989
  952MOL0     C25592   8.016   3.579   4.606  0.0084  0.4786 -0.2272
  952MOL0     C25593   8.148   3.529   4.671  0.0226 -0.3186 -0.0552
  952MOL0     C25594   8.267   3.619   4.640  0.9355 -0.0304 -0.5355
  952MOL0     C25595   8.346   3.568   4.526  0.1810 -0.2523 -0.5464
  952MOL0     C25596   8.427   3.526   4.450  0.5439 -0.1972  0.2243
  952MOL0     C25597   7.885   3.578   4.189  0.9479 -0.2982 -0.0006
  952MOL0     C25598   7.854   3.627   4.061 -0.9756 -0.3804  0.4757
  952MOL0     H25599   7.566   3.590   3.721  1.1164  0.0382  0.0295
  952MOL0     H25600   7.433   3.653   3.505 -1.4111  2.2796 -0.1040
  952MOL0     H25601   7.444   3.619   3.273  4.0150 -1.8106  2.2090
  952MOL0     H25602   7.612   3.626   3.228  0.7125  0.3747 -1.6535
  952MOL0     H25603   7.399   3.786   3.060  0.9218  0.1959 -1.3419
  952MOL0     H25604   7.446   3.625   3.029  0.8458 -1.6348  0.3502
  952MOL0     H25605   7.697   3.747   3.055 -0.3317 -2.4860  0.0829
  952MOL0     H25606   7.603   3.890   3.021  0.5555  0.4861 -1.3605
  952MOL0     H25607   7.684   3.809   2.814  1.6326 -1.8679  1.6594
  952MOL0     H25608   7.634   3.640   2.858 -0.5895 -0.7311 -0.9789
  952MOL0     H25609   7.396   3.698   2.812 -0.5474  1.0765  1.7491
  952MOL0     H25610   7.503   3.716   2.668  1.8295  0.4383 -1.1339
  952MOL0     H25611   7.533   3.968   2.761  0.7653 -0.8333 -0.8604
  952MOL0     H25612   7.410   3.923   2.861  1.7821  0.5153  0.0429
  952MOL0     H25613   7.366   3.888   2.566  1.1687  2.0020 -2.2160
  952MOL0     H25614   7.250   3.896   2.708  1.7099  3.1886  3.3120
  952MOL0     H25615   7.433   4.135   2.656 -0.9777  1.6347 -1.1215
  952MOL0     H25616   7.276   4.125   2.741 -3.4670 -1.7048 -1.3097
  952MOL0     H25617   7.083   4.200   2.586 -1.4625 -0.2755 -2.2538
  952MOL0     H25618   6.925   4.199   2.367 -0.8111 -0.0120 -2.4553
  952MOL0     H25619   7.009   4.175   2.214  0.2162 -0.6175  0.3060
  952MOL0     H25620   6.905   4.417   2.274  1.1667  4.6625  3.3662
  952MOL0     H25621   7.065   4.398   2.202  2.4662 -1.6514  1.2591
  952MOL0     H25622   7.151   4.427   2.438 -2.2056 -0.9603  5.2280
  952MOL0     H25623   7.075   4.574   2.381  1.8566 -0.3476 -0.2205
  952MOL0     H25624   7.011   4.513   2.611 -0.4268 -0.1210 -0.0124
  952MOL0     H25625   6.949   4.362   2.548  1.5106 -0.3360  0.7561
  952MOL0     H25626   6.655   4.673   2.402  3.4026 -0.9983 -0.3664
  952MOL0     H25627   6.455   4.738   2.534  1.9397  4.6407  1.8302
  952MOL0     H25628   6.333   4.959   2.973  0.4124 -2.3335 -0.2019
  952MOL0     H25629   6.129   4.990   3.115  1.7915  1.8716 -0.5466
  952MOL0     H25630   5.916   5.061   3.177  1.1951 -0.4966 -2.3709
  952MOL0     H25631   5.921   4.906   3.245  0.6206  1.5080  1.6363
  952MOL0     H25632   5.650   4.974   3.156  1.0010  1.3003 -0.5152
  952MOL0     H25633   5.711   5.109   3.247  2.7930  0.7341  0.5918
  952MOL0     H25634   5.757   5.008   3.442  4.2896  1.4252 -4.5422
  952MOL0     H25635   5.738   4.836   3.376  1.9211  0.9330 -1.7582
  952MOL0     H25636   5.522   5.043   3.375 -1.8590 -1.5751 -1.5790
  952MOL0     H25637   5.515   4.873   3.329  2.6164  3.6015 -4.7772
  952MOL0     H25638   5.552   4.794   3.563  1.7846  0.4990 -0.8770
  952MOL0     H25639   5.393   4.873   3.547  0.6481 -0.5819  2.0778
  952MOL0     H25640   5.623   5.040   3.638 -0.2960  2.6436  2.4839
  952MOL0     H25641   5.527   4.922   3.743  0.0601 -0.6454 -0.3152
  952MOL0     H25642   5.448   5.177   3.598  0.0418 -1.8781 -2.4414
  952MOL0     H25643   5.325   5.077   3.672  0.2748  1.0162  1.9454
  952MOL0     H25644   5.375   5.256   3.825  0.5957  0.9893  0.1874
  952MOL0     H25645   5.546   5.205   3.843  0.0644 -1.4726 -0.3784
  952MOL0     H25646   5.894   4.789   2.813  0.6687  0.9376 -1.6594
  952MOL0     H25647   6.096   4.720   2.706  2.1301 -0.6936  1.0874
  952MOL0     H25648   6.658   4.587   2.888 -2.5593 -1.3086 -0.6511
  952MOL0     H25649   6.828   4.494   2.747 -1.2326 -3.0027 -2.1494
  952MOL0     H25650   7.739   3.914   3.394 -1.8075  1.5778  0.3093
  952MOL0     H25651   7.871   3.863   3.603  0.0117 -1.0761 -1.2967
  952MOL0     H25652   7.565   3.786   4.148  0.8002  0.4673 -1.3879
  952MOL0     H25653   7.632   3.707   4.363 -2.8002 -0.7956 -0.9793
  952MOL0     H25654   8.049   3.641   4.401  2.2033 -2.4628 -0.2864
  952MOL0     H25655   8.026   3.461   4.426 -2.7583 -1.1645 -0.9585
  952MOL0     H25656   8.008   3.680   4.647  2.0112  0.8136 -0.5669
  952MOL0     H25657   7.940   3.518   4.657 -0.1531 -0.2462 -1.3019
  952MOL0     H25658   8.165   3.425   4.642 -0.6191 -0.5098  0.2196
  952MOL0     H25659   8.126   3.530   4.778  0.2511 -1.8061  0.0262
  952MOL0     H25660   8.230   3.718   4.611  2.6987  0.6419 -0.6055
  952MOL0     H25661   8.332   3.635   4.726  1.8857  1.6636 -1.4959
  952MOL0     H25662   8.491   3.472   4.383 -0.8573 -2.7532  0.7804
  952MOL0     H25663   7.971   3.512   4.185  0.8710 -0.3589 -0.9305
  952MOL0     H25664   7.921   3.598   3.981  0.5195  0.2284  1.4572
  953MOL0     O25665   3.965   2.676   5.798  0.1832  0.6822 -0.8377
  953MOL0     C25666   4.068   2.732   5.765 -0.6169  0.2504 -1.7171
  953MOL0     O25667   4.094   2.772   5.642 -0.0692 -0.2943 -1.1193
  953MOL0     C25668   3.992   2.739   5.549 -0.5457  0.3784  0.1116
  953MOL0     C25669   3.888   2.813   5.530  1.4178  0.1472  1.2462
  953MOL0     C25670   3.773   2.763   5.456  0.1951 -0.1157 -1.1885
  953MOL0     C25671   3.778   2.642   5.383 -0.1004 -0.3391  0.4784
  953MOL0     O25672   3.681   2.576   5.315 -0.6415 -0.8685 -0.1279
  953MOL0     C25673   3.562   2.650   5.293 -0.7238 -0.3334  0.4877
  953MOL0     C25674   3.441   2.621   5.375  0.0419  0.5947  0.0027
  953MOL0     C25675   3.391   2.480   5.359  0.4431 -0.5137  0.4187
  953MOL0     C25676   3.238   2.470   5.411  0.3519 -0.3400  0.4237
  953MOL0     C25677   3.241   2.489   5.566 -0.1052  0.2677  0.7946
  953MOL0     C25678   3.118   2.426   5.632  0.7268 -0.4341 -1.1209
  953MOL0     C25679   3.111   2.437   5.783 -0.3129 -0.5812 -0.2472
  953MOL0     C25680   2.967   2.406   5.827  0.0719 -0.4525  0.0620
  953MOL0     N25681   2.959   2.430   5.970 -0.1143  0.6548  0.1788
  953MOL0     C25682   2.837   2.430   6.038  0.0140 -1.1605  0.8253
  953MOL0     C25683   2.867   2.444   6.172 -0.7068  0.0207 -0.1694
  953MOL0     C25684   2.767   2.452   6.287  0.3743 -0.0284 -0.6412
  953MOL0     C25685   2.640   2.529   6.271  0.1255  0.1665  0.1042
  953MOL0     C25686   2.636   2.666   6.334 -0.6542  0.8666 -0.9244
  953MOL0     C25687   2.489   2.731   6.350 -1.2028  0.9311 -0.0339
  953MOL0     O25688   2.416   2.662   6.453  0.3969  0.0867  0.2075
  953MOL0     C25689   2.414   2.701   6.586  1.0068  0.4745  1.3846
  953MOL0     C25690   2.326   2.623   6.662  0.5841  0.2317  0.4530
  953MOL0     C25691   2.314   2.646   6.800 -0.4274 -0.8515 -0.4111
  953MOL0     C25692   2.409   2.735   6.865 -0.8835  0.8398  0.0828
  953MOL0     C25693   2.411   2.737   7.014  0.7283  0.1139 -0.5546
  953MOL0     O25694   2.519   2.794   7.068  0.1808 -0.2126 -0.1983
  953MOL0     C25695   2.545   2.748   7.199 -0.1751  0.2238  0.7518
  953MOL0     C25696   2.452   2.769   7.301 -0.8634  0.3698  0.5899
  953MOL0     C25697   2.478   2.734   7.431 -0.7149  0.4519 -0.6090
  953MOL0     C25698   2.594   2.655   7.462 -0.0652 -0.5953  0.6861
  953MOL0     O25699   2.622   2.632   7.594  0.0425 -0.1796  0.7691
  953MOL0     C25700   2.728   2.710   7.650  0.6159  0.4983  0.4402
  953MOL0     C25701   2.815   2.627   7.751 -0.2366  0.3933 -1.0544
  953MOL0     C25702   2.741   2.583   7.871 -0.5136 -0.3888 -0.9985
  953MOL0     C25703   2.661   2.698   7.934  0.2615 -0.3211  0.1940
  953MOL0     C25704   2.634   2.649   8.079 -0.2308 -0.4374  0.0364
  953MOL0     C25705   2.593   2.766   8.174 -0.1427  0.3573  0.3980
  953MOL0     C25706   2.567   2.738   8.328 -0.8038  0.0929  0.0829
  953MOL0     C25707   2.428   2.686   8.361  0.1336  0.6532  0.7307
  953MOL0    Cl25708   2.422   2.593   8.512  0.3831 -0.0978 -0.3501
  953MOL0     C25709   2.683   2.611   7.364 -0.5532  0.6949 -0.8630
  953MOL0     C25710   2.655   2.668   7.229  0.5775  0.4165  0.3468
  953MOL0     O25711   2.308   2.710   7.079 -0.0075  0.1926  0.6264
  953MOL0     C25712   2.498   2.820   6.787  0.8126  0.4416  0.1791
  953MOL0     C25713   2.498   2.795   6.647 -0.5013 -0.8294  2.0103
  953MOL0     N25714   3.003   2.459   6.180 -0.0100  0.2525  0.5074
  953MOL0     N25715   3.062   2.450   6.057 -0.0193  0.3958  0.5258
  953MOL0     C25716   3.899   2.576   5.400 -0.4626  0.2622  0.2240
  953MOL0     C25717   3.997   2.617   5.487 -0.4892 -0.4873 -1.5180
  953MOL0     C25718   4.175   2.743   5.861 -0.4746 -0.4145 -0.2798
  953MOL0     C25719   4.165   2.726   6.000 -0.5894  0.5707 -0.7272
  953MOL0     C25720   4.273   2.762   6.089  1.3768 -0.4255 -0.4793
  953MOL0     C25721   4.391   2.809   6.039  0.1265 -0.3997  0.1940
  953MOL0     O25722   4.487   2.866   6.117 -0.3584 -0.0731  0.1964
  953MOL0     C25723   4.518   3.009   6.101  0.9773  0.2831 -0.6774
  953MOL0     C25724   4.630   3.057   6.197 -0.6635  0.1470 -0.1936
  953MOL0     C25725   4.770   2.991   6.169 -0.2220 -1.0857  0.0585
  953MOL0     C25726   4.816   2.991   6.024 -0.3289  0.7548 -0.4072
  953MOL0     C25727   4.942   2.927   6.012 -0.7606 -0.0591 -0.1516
  953MOL0     C25728   5.042   2.862   5.992 -0.2446  0.6984 -0.1601
  953MOL0     C25729   4.401   2.831   5.904  0.6414  0.2953  0.1859
  953MOL0     C25730   4.297   2.797   5.822  1.1052 -0.0670 -0.6297
  953MOL0     H25731   3.877   2.903   5.589  0.8778  0.7960  0.1872
  953MOL0     H25732   3.682   2.821   5.472 -0.3539 -1.5455  1.5926
  953MOL0     H25733   3.537   2.633   5.188 -1.9871  1.1823  0.5045
  953MOL0     H25734   3.574   2.759   5.302 -1.9590 -0.3445  2.9779
  953MOL0     H25735   3.371   2.693   5.332  0.6881  0.9796 -0.4187
  953MOL0     H25736   3.452   2.647   5.481  1.7846 -0.5284  0.1441
  953MOL0     H25737   3.460   2.410   5.407  0.6866  1.1687  2.6583
  953MOL0     H25738   3.407   2.451   5.254 -0.1671 -3.1205  0.9823
  953MOL0     H25739   3.170   2.544   5.367  2.6681  2.1153  0.7158
  953MOL0     H25740   3.208   2.368   5.385 -2.7824  0.4406  0.5283
  953MOL0     H25741   3.242   2.598   5.580  2.9584  0.3110  0.9063
  953MOL0     H25742   3.323   2.443   5.622  1.5179  0.9960 -0.8779
  953MOL0     H25743   3.113   2.320   5.607 -0.5510 -0.3196 -1.4307
  953MOL0     H25744   3.026   2.475   5.597  0.9157  0.2560 -0.6655
  953MOL0     H25745   3.182   2.368   5.829  1.1033  1.2102  0.3816
  953MOL0     H25746   3.135   2.540   5.811  2.5073 -1.5630  1.3640
  953MOL0     H25747   2.941   2.302   5.806  1.3696 -1.1298  1.6178
  953MOL0     H25748   2.895   2.476   5.783  2.1058  1.8427  0.1722
  953MOL0     H25749   2.740   2.423   5.990 -0.2251  2.9518  0.3686
  953MOL0     H25750   2.807   2.488   6.383 -1.4165 -1.8835  0.8901
  953MOL0     H25751   2.734   2.351   6.312  0.4729  0.7129  3.1654
  953MOL0     H25752   2.555   2.478   6.316  0.3490  0.1871  0.5556
  953MOL0     H25753   2.616   2.520   6.164 -0.0992 -3.4191  0.3055
  953MOL0     H25754   2.692   2.666   6.428  0.1671  0.4105 -1.3943
  953MOL0     H25755   2.699   2.732   6.273  1.2819  0.5499  0.6407
  953MOL0     H25756   2.425   2.740   6.262 -2.4752  1.1547  0.8995
  953MOL0     H25757   2.511   2.836   6.373  0.6523  0.6991 -0.5646
  953MOL0     H25758   2.258   2.546   6.626 -1.3605  2.1982 -0.3176
  953MOL0     H25759   2.243   2.585   6.854  0.9244  0.7414  3.6178
  953MOL0     H25760   2.368   2.833   7.278 -1.3302 -0.2574  0.5308
  953MOL0     H25761   2.409   2.762   7.510 -0.2135  3.2134 -1.0370
  953MOL0     H25762   2.675   2.792   7.700 -0.5637 -0.0053  0.0642
  953MOL0     H25763   2.798   2.744   7.573 -0.4533 -3.4648 -2.6416
  953MOL0     H25764   2.897   2.691   7.786 -1.2147 -0.1590  2.6659
  953MOL0     H25765   2.859   2.540   7.701 -2.1837 -1.8672  0.9630
  953MOL0     H25766   2.814   2.540   7.941 -2.9209 -0.9489  1.3271
  953MOL0     H25767   2.669   2.510   7.832 -2.2413  0.4312  0.5459
  953MOL0     H25768   2.734   2.780   7.942 -0.8753  0.8029 -0.5861
  953MOL0     H25769   2.574   2.731   7.878  0.2428  0.8120  0.8503
  953MOL0     H25770   2.728   2.616   8.123 -0.0791  0.0189  0.0651
  953MOL0     H25771   2.571   2.561   8.069  0.7653 -1.0310 -1.2260
  953MOL0     H25772   2.496   2.795   8.131 -1.7406 -5.2851 -0.5442
  953MOL0     H25773   2.674   2.839   8.170 -0.1336  0.2967 -0.6825
  953MOL0     H25774   2.651   2.676   8.359 -0.5827  0.5466  0.4098
  953MOL0     H25775   2.588   2.833   8.378  1.2539 -0.4142  0.2889
  953MOL0     H25776   2.387   2.624   8.281 -1.7440  0.6841  1.6059
  953MOL0     H25777   2.359   2.770   8.371 -0.6679 -0.0350  1.1665
  953MOL0     H25778   2.766   2.547   7.393 -0.8682  0.2092 -1.0432
  953MOL0     H25779   2.719   2.656   7.142  2.8631  2.3644  1.6080
  953MOL0     H25780   2.557   2.904   6.821  0.6215  1.7446 -2.4443
  953MOL0     H25781   2.558   2.862   6.587 -5.2348  2.9355  0.8719
  953MOL0     H25782   3.919   2.482   5.351 -3.6651 -0.2979 -0.2819
  953MOL0     H25783   4.078   2.548   5.507  0.0648  0.8663  1.5108
  953MOL0     H25784   4.075   2.678   6.036 -0.8083  1.5591  0.0847
  953MOL0     H25785   4.261   2.739   6.195  0.7222 -1.2534 -0.7166
  953MOL0     H25786   4.427   3.066   6.122  1.7670  1.2615  0.1572
  953MOL0     H25787   4.539   3.030   5.995  3.8585 -1.2253 -0.5165
  953MOL0     H25788   4.656   3.161   6.173  2.6333  0.1595  2.5666
  953MOL0     H25789   4.595   3.054   6.301  1.6930  0.4706  0.6692
  953MOL0     H25790   4.778   2.889   6.207  1.7237 -1.1363 -0.3845
  953MOL0     H25791   4.841   3.053   6.225  0.1411  0.7703 -2.2681
  953MOL0     H25792   4.746   2.930   5.966 -0.1865 -1.2383  1.4000
  953MOL0     H25793   4.827   3.088   5.975  0.4525  1.8545  1.8503
  953MOL0     H25794   5.133   2.810   5.972  0.7565  2.7908 -1.3870
  953MOL0     H25795   4.488   2.883   5.867 -0.8932  3.0374  0.1659
  953MOL0     H25796   4.313   2.816   5.717  1.8955 -3.5272 -1.2627
  954MOL0     O25797   7.028   2.442   1.968 -0.6152  0.3520  0.2884
  954MOL0     C25798   6.997   2.361   2.062  0.7411  0.1678  0.6709
  954MOL0     O25799   7.081   2.265   2.121  0.7774 -0.2012 -0.1587
  954MOL0     C25800   7.212   2.274   2.103 -0.3918 -0.4359 -0.1940
  954MOL0     C25801   7.285   2.397   2.067  1.1607  0.9153 -0.8356
  954MOL0     C25802   7.422   2.407   2.068  0.9140 -0.1749 -0.2849
  954MOL0     C25803   7.504   2.302   2.107  1.2991 -1.1293 -1.2576
  954MOL0     O25804   7.637   2.321   2.122  0.1430 -0.2084 -1.1515
  954MOL0     C25805   7.698   2.403   2.024 -0.3384 -0.6632 -0.3289
  954MOL0     C25806   7.837   2.340   2.005 -0.8752 -0.3982  0.2146
  954MOL0     C25807   7.826   2.188   1.969  0.7681 -0.0947 -0.0137
  954MOL0     C25808   7.922   2.144   1.864  0.1728 -0.1128  0.5490
  954MOL0     C25809   7.918   1.997   1.842 -0.2103  0.4863 -0.4274
  954MOL0     C25810   7.787   1.954   1.770 -0.0970  0.8060  0.6518
  954MOL0     C25811   7.786   1.827   1.680  0.2077  0.6234  0.0975
  954MOL0     C25812   7.742   1.708   1.766 -0.3746 -0.4121  0.1319
  954MOL0     N25813   7.603   1.663   1.758 -0.7696  0.4665 -0.9420
  954MOL0     C25814   7.508   1.686   1.854 -0.7445  0.4611 -0.3971
  954MOL0     C25815   7.405   1.630   1.805 -0.5457 -0.2888  0.2542
  954MOL0     C25816   7.282   1.600   1.884 -0.1640 -1.1303  0.9735
  954MOL0     C25817   7.296   1.459   1.947  0.0157 -0.8469  0.3726
  954MOL0     C25818   7.162   1.426   2.006  0.5473  0.7455 -0.4847
  954MOL0     C25819   7.148   1.287   2.047 -0.0176 -0.4800 -0.6362
  954MOL0     O25820   7.001   1.278   2.057  0.0086 -0.0340  0.2861
  954MOL0     C25821   6.952   1.168   2.130 -0.0274 -0.4960  0.2879
  954MOL0     C25822   7.009   1.037   2.138 -0.2973 -0.4519  0.7385
  954MOL0     C25823   6.936   0.931   2.197 -0.6047  0.1397  0.3948
  954MOL0     C25824   6.814   0.954   2.247  0.5069  0.7283  0.4752
  954MOL0     C25825   6.751   0.855   2.332  0.5070 -0.5474  0.3560
  954MOL0     O25826   6.668   0.915   2.424  0.7539  0.4770 -0.2084
  954MOL0     C25827   6.604   0.832   2.514  0.2813  0.1748 -0.1668
  954MOL0     C25828   6.581   0.890   2.645 -0.0705  0.9874 -0.4442
  954MOL0     C25829   6.512   0.823   2.750  0.1590 -0.3530  0.4532
  954MOL0     C25830   6.445   0.703   2.715 -0.1722  0.3231 -1.0529
  954MOL0     O25831   6.378   0.639   2.817 -0.4306  0.1495 -0.0644
  954MOL0     C25832   6.335   0.499   2.799  0.6469 -0.0399  0.2349
  954MOL0     C25833   6.251   0.435   2.907 -0.3249 -0.6690  0.7522
  954MOL0     C25834   6.327   0.430   3.041 -0.8783 -0.2697  0.0887
  954MOL0     C25835   6.301   0.302   3.131  0.0058 -0.3101 -0.7951
  954MOL0     C25836   6.158   0.268   3.160  0.3575  0.7308 -0.1370
  954MOL0     C25837   6.129   0.120   3.191  0.2860  0.4778 -0.1621
  954MOL0     C25838   6.184   0.063   3.325 -0.4096 -0.6915 -0.0624
  954MOL0     C25839   6.110  -0.055   3.389 -0.1654  0.2508  0.1223
  954MOL0    Cl25840   5.997   0.012   3.516 -0.3979 -0.1677  0.5118
  954MOL0     C25841   6.474   0.643   2.597 -1.3533  0.2652  0.4479
  954MOL0     C25842   6.550   0.699   2.491  0.4146 -1.1888 -0.4066
  954MOL0     O25843   6.769   0.743   2.310  0.7937  0.8843 -0.3169
  954MOL0     C25844   6.766   1.080   2.239  0.7574  1.0679 -0.7048
  954MOL0     C25845   6.828   1.185   2.181  0.7259 -0.0918 -0.2068
  954MOL0     N25846   7.427   1.580   1.678 -0.3555  0.2419  0.3894
  954MOL0     N25847   7.546   1.603   1.655  0.7801  0.4489 -0.3847
  954MOL0     C25848   7.435   2.182   2.137  0.1396  1.3936 -0.6872
  954MOL0     C25849   7.291   2.163   2.124 -0.8720  0.0510  0.4767
  954MOL0     C25850   6.856   2.376   2.107  0.3592  0.3741 -0.7807
  954MOL0     C25851   6.810   2.287   2.206 -0.4340 -0.4586 -0.2159
  954MOL0     C25852   6.690   2.307   2.260  0.0778  0.4204 -0.3971
  954MOL0     C25853   6.609   2.414   2.225  0.3043  0.3396  0.2113
  954MOL0     O25854   6.490   2.434   2.295  0.4839 -0.1030 -0.2332
  954MOL0     C25855   6.391   2.516   2.235  0.4493  0.0372  0.2862
  954MOL0     C25856   6.312   2.433   2.128 -0.4238  0.5186 -0.3604
  954MOL0     C25857   6.203   2.343   2.175 -0.3871  0.2056 -0.8345
  954MOL0     C25858   6.054   2.394   2.154 -0.0241  0.7181 -0.3013
  954MOL0     C25859   6.052   2.494   2.259  0.8655 -0.6438  0.8062
  954MOL0     C25860   6.036   2.587   2.338 -0.3273  0.2810 -0.9866
  954MOL0     C25861   6.657   2.497   2.130 -0.5285 -0.6665  0.5283
  954MOL0     C25862   6.782   2.487   2.074 -0.0298 -0.4810 -0.4948
  954MOL0     H25863   7.239   2.491   2.038  1.0387  0.6639 -1.4713
  954MOL0     H25864   7.462   2.504   2.041 -1.5351  0.0411 -3.8102
  954MOL0     H25865   7.700   2.505   2.063  0.1631 -0.9941  0.5451
  954MOL0     H25866   7.652   2.408   1.925 -0.8443  1.2059 -0.0395
  954MOL0     H25867   7.892   2.351   2.098 -1.5884  2.2878  0.4008
  954MOL0     H25868   7.900   2.402   1.941 -4.7728  1.6180 -2.0891
  954MOL0     H25869   7.723   2.165   1.939 -0.2219  1.8535  1.6801
  954MOL0     H25870   7.847   2.121   2.053  1.4966  0.7944  0.5283
  954MOL0     H25871   7.914   2.191   1.766  0.1405 -0.4075  0.4090
  954MOL0     H25872   8.019   2.170   1.908 -0.5941  1.5058  1.3779
  954MOL0     H25873   7.932   1.942   1.935  1.4680 -0.8886 -1.4421
  954MOL0     H25874   8.004   1.969   1.781 -1.1507 -0.0940 -1.5294
  954MOL0     H25875   7.772   2.040   1.704  0.4316  0.8117  0.5377
  954MOL0     H25876   7.704   1.938   1.839  2.7078 -1.8549  3.7490
  954MOL0     H25877   7.710   1.827   1.601  0.1203 -3.0136 -0.0092
  954MOL0     H25878   7.879   1.795   1.632 -1.1015 -2.6965 -0.5439
  954MOL0     H25879   7.772   1.731   1.868  0.1645 -0.1075 -0.0885
  954MOL0     H25880   7.807   1.629   1.726  2.5142  1.1587  1.4708
  954MOL0     H25881   7.520   1.739   1.947 -2.9583  0.3156  0.0070
  954MOL0     H25882   7.190   1.613   1.828 -0.6397 -0.9545  1.7724
  954MOL0     H25883   7.277   1.679   1.960  0.0322 -0.1222 -0.0326
  954MOL0     H25884   7.376   1.446   2.020 -0.7101 -4.0627  0.7364
  954MOL0     H25885   7.308   1.394   1.860 -4.6433  0.8132 -1.8484
  954MOL0     H25886   7.129   1.480   2.094 -1.4454 -1.6924  0.3700
  954MOL0     H25887   7.091   1.449   1.927  0.4916 -3.4018 -1.9295
  954MOL0     H25888   7.191   1.284   2.147 -0.5226 -0.2466 -0.4085
  954MOL0     H25889   7.185   1.221   1.968  1.7678  0.7113 -0.8606
  954MOL0     H25890   7.099   1.014   2.082 -1.8769 -2.4065 -1.1604
  954MOL0     H25891   6.979   0.833   2.213  3.5586  1.4279 -1.3655
  954MOL0     H25892   6.626   0.989   2.647 -0.0322  0.9735  0.9748
  954MOL0     H25893   6.502   0.880   2.842 -0.9920  1.0202 -0.4812
  954MOL0     H25894   6.425   0.438   2.790  0.8587  0.5449 -2.3131
  954MOL0     H25895   6.280   0.492   2.704  1.8823 -4.0925 -0.3918
  954MOL0     H25896   6.221   0.337   2.869 -0.2519  0.2427 -1.8728
  954MOL0     H25897   6.156   0.485   2.929  0.0233 -0.2023  1.2111
  954MOL0     H25898   6.315   0.518   3.106 -0.8841 -1.3251  1.5525
  954MOL0     H25899   6.434   0.417   3.023 -1.5239 -3.7218 -2.0333
  954MOL0     H25900   6.340   0.213   3.082 -2.9997 -2.8897  1.0697
  954MOL0     H25901   6.361   0.304   3.222  1.1743 -0.6548 -1.5452
  954MOL0     H25902   6.104   0.296   3.069  0.3407 -0.7458 -0.6065
  954MOL0     H25903   6.120   0.321   3.248 -1.8222 -3.8213  2.0031
  954MOL0     H25904   6.169   0.058   3.110 -2.6152 -2.5297  0.4834
  954MOL0     H25905   6.024   0.097   3.174  0.3602 -0.8333  0.9725
  954MOL0     H25906   6.280   0.026   3.288 -1.4422 -2.5600 -1.0176
  954MOL0     H25907   6.198   0.146   3.395 -0.7112  0.6035 -1.4872
  954MOL0     H25908   6.197  -0.111   3.425  1.0439  0.9388 -1.5424
  954MOL0     H25909   6.058  -0.125   3.324  0.1637 -1.9276  2.0790
  954MOL0     H25910   6.437   0.550   2.556  1.1323 -0.7530  0.3350
  954MOL0     H25911   6.558   0.657   2.391 -0.3616  3.1906 -2.5519
  954MOL0     H25912   6.669   1.093   2.286  0.4081  0.3882 -1.2183
  954MOL0     H25913   6.785   1.283   2.168 -0.3308 -0.8987 -4.1716
  954MOL0     H25914   7.494   2.098   2.173 -0.5590  1.1545 -0.0471
  954MOL0     H25915   7.249   2.067   2.151  0.1048 -0.7160 -0.5911
  954MOL0     H25916   6.869   2.202   2.241 -1.9531 -1.3511  0.2716
  954MOL0     H25917   6.649   2.231   2.324 -0.7050  2.6092  1.8695
  954MOL0     H25918   6.440   2.607   2.201  2.9155  0.5879  4.6257
  954MOL0     H25919   6.317   2.546   2.310 -0.9551 -1.3854 -0.4726
  954MOL0     H25920   6.257   2.514   2.080  0.6234  2.0423  0.8994
  954MOL0     H25921   6.383   2.381   2.064  1.3995  2.0626  0.3042
  954MOL0     H25922   6.226   2.319   2.280  1.2772  2.5372 -0.5904
  954MOL0     H25923   6.217   2.251   2.117  2.1304 -0.4515  0.6371
  954MOL0     H25924   6.060   2.414   2.046 -1.4594 -0.3726 -0.6031
  954MOL0     H25925   5.972   2.323   2.167 -0.3007  1.3218  1.4070
  954MOL0     H25926   6.015   2.669   2.403 -0.5541  0.9787 -1.9214
  954MOL0     H25927   6.605   2.584   2.092 -1.2204 -1.7129 -1.0322
  954MOL0     H25928   6.810   2.554   1.994  2.3014  0.1928  0.7998
  955MOL0     O25929   8.251   0.428   5.263 -0.5168  0.4098 -0.7043
  955MOL0     C25930   8.341   0.471   5.193  0.2725  0.3769  0.4888
  955MOL0     O25931   8.461   0.526   5.233  0.0651  0.4151  0.3225
  955MOL0     C25932   8.456   0.566   5.367  1.1704  0.0983 -0.4716
  955MOL0     C25933   8.503   0.477   5.464 -0.1053  0.0706  0.0295
  955MOL0     C25934   8.511   0.514   5.597 -0.0408  0.8669  0.0654
  955MOL0     C25935   8.441   0.627   5.636 -0.2130  0.1879  0.8803
  955MOL0     O25936   8.412   0.651   5.771  0.1130 -0.0017  0.0061
  955MOL0     C25937   8.299   0.548   5.808 -0.1392  0.4186 -0.9386
  955MOL0     C25938   8.210   0.593   5.927 -0.0507 -0.1676  0.1309
  955MOL0     C25939   8.283   0.627   6.057 -0.1385  0.1639 -0.0189
  955MOL0     C25940   8.321   0.506   6.138 -0.0770 -0.0880 -0.2537
  955MOL0     C25941   8.347   0.533   6.281  0.9663 -0.5732 -0.3055
  955MOL0     C25942   8.374   0.408   6.366  0.7177 -0.5120  0.9538
  955MOL0     C25943   8.414   0.430   6.515  0.1113 -0.5950  0.0272
  955MOL0     C25944   8.348   0.554   6.589 -0.4292  0.0547 -0.4062
  955MOL0     N25945   8.219   0.510   6.644 -0.4972  0.3793 -0.1218
  955MOL0     C25946   8.185   0.522   6.780  0.0739 -0.6151 -0.2089
  955MOL0     C25947   8.078   0.435   6.797 -0.3122 -0.5843  0.4818
  955MOL0     C25948   7.988   0.447   6.918 -1.0223  0.2047  0.4747
  955MOL0     C25949   8.057   0.374   7.041  0.0934 -0.0425  0.0734
  955MOL0     C25950   7.956   0.358   7.149  0.6185  0.4602 -0.1123
  955MOL0     C25951   7.938   0.485   7.239  0.5185  0.5396 -0.7184
  955MOL0     O25952   7.889   0.443   7.360  0.6183  0.3269  0.6326
  955MOL0     C25953   7.972   0.405   7.458 -0.1241 -0.0472  0.2938
  955MOL0     C25954   8.109   0.440   7.459  0.2108  0.3680  0.5586
  955MOL0     C25955   8.193   0.393   7.554 -0.3631 -0.1481 -0.2049
  955MOL0     C25956   8.143   0.323   7.669  1.1878 -0.2934  0.0791
  955MOL0     C25957   8.240   0.249   7.747 -1.0305  0.0470  0.5808
  955MOL0     O25958   8.376   0.242   7.710 -0.0537 -0.3757  0.3865
  955MOL0     C25959   8.460   0.161   7.790 -0.2287 -0.1206 -0.1364
  955MOL0     C25960   8.538   0.222   7.882 -0.7395 -0.8924  0.2297
  955MOL0     C25961   8.629   0.153   7.954  0.4070  0.7616  0.2386
  955MOL0     C25962   8.652   0.009   7.931  0.0919 -0.6457 -0.2922
  955MOL0     O25963   8.735  -0.075   7.995 -0.3297 -0.1677 -0.8746
  955MOL0     C25964   8.849  -0.013   8.061  0.0420 -0.3823  0.5694
  955MOL0     C25965   8.927  -0.132   8.115  0.1941 -0.0352 -0.4143
  955MOL0     C25966   9.030  -0.081   8.207  0.4176  0.1955 -0.4836
  955MOL0     C25967   9.130  -0.192   8.259 -0.3551 -0.1573 -0.1366
  955MOL0     C25968   9.080  -0.281   8.377 -0.5106 -0.3675  0.8385
  955MOL0     C25969   9.072  -0.189   8.503  0.1021  0.1054 -0.2682
  955MOL0     C25970   9.064  -0.278   8.628  0.3646  0.0619  0.7323
  955MOL0     C25971   9.067  -0.181   8.750  0.6352 -0.2115  0.1193
  955MOL0    Cl25972   8.954  -0.242   8.876 -0.2788  0.0969 -0.0582
  955MOL0     C25973   8.576  -0.047   7.827  0.8876 -0.4083  1.1656
  955MOL0     C25974   8.481   0.033   7.756 -0.4517 -0.6402 -0.6262
  955MOL0     O25975   8.193   0.189   7.843  0.0639  1.2135  0.5000
  955MOL0     C25976   8.000   0.307   7.678  0.4842  0.2358  0.0541
  955MOL0     C25977   7.924   0.355   7.575  0.8423 -0.5733 -0.3329
  955MOL0     N25978   8.056   0.375   6.675 -0.4417  0.1159  0.2747
  955MOL0     N25979   8.132   0.427   6.578 -0.8159  0.0528  0.0641
  955MOL0     C25980   8.377   0.713   5.536  0.1932 -0.3623 -0.9740
  955MOL0     C25981   8.394   0.686   5.402 -0.4949 -0.1361  1.1538
  955MOL0     C25982   8.331   0.428   5.050  0.2195  0.6633 -0.1994
  955MOL0     C25983   8.441   0.434   4.977  0.0914 -0.5943  0.7527
  955MOL0     C25984   8.431   0.393   4.841  0.4295  0.1690 -0.2039
  955MOL0     C25985   8.321   0.340   4.772  0.1843 -0.1897  0.6022
  955MOL0     O25986   8.316   0.314   4.636 -0.6241  0.1252  0.0141
  955MOL0     C25987   8.277   0.177   4.601  0.9740  0.1846  0.0986
  955MOL0     C25988   8.328   0.145   4.455  0.0335  0.0558  0.4440
  955MOL0     C25989   8.205   0.170   4.362  0.1602  0.1285 -0.3294
  955MOL0     C25990   8.235   0.129   4.215 -0.2054 -0.2250  0.5326
  955MOL0     C25991   8.118   0.066   4.151 -0.3115 -0.3458 -0.5971
  955MOL0     C25992   8.028   0.023   4.085  0.6579 -0.6125 -0.6406
  955MOL0     C25993   8.206   0.325   4.861  0.5951 -0.3938  0.6397
  955MOL0     C25994   8.206   0.372   4.997  0.5057 -0.4660 -0.3901
  955MOL0     H25995   8.536   0.375   5.444 -3.8661 -1.2498 -0.1553
  955MOL0     H25996   8.534   0.441   5.673 -1.2052 -1.2866 -1.5491
  955MOL0     H25997   8.345   0.460   5.852 -0.7550  0.2468 -0.6283
  955MOL0     H25998   8.240   0.511   5.723  2.9083  0.5111 -3.2732
  955MOL0     H25999   8.155   0.501   5.946  0.0135 -0.5353 -1.3176
  955MOL0     H26000   8.152   0.678   5.890  0.3521  0.4034  0.7902
  955MOL0     H26001   8.214   0.685   6.120  0.0939 -1.0958  1.4367
  955MOL0     H26002   8.369   0.690   6.033  0.0084  1.8539  4.0990
  955MOL0     H26003   8.235   0.438   6.134  0.7261 -1.0708 -2.2249
  955MOL0     H26004   8.408   0.452   6.097 -0.0944 -2.4153  2.4310
  955MOL0     H26005   8.261   0.593   6.312  0.3937 -1.3116 -0.4613
  955MOL0     H26006   8.441   0.588   6.293  0.3308  0.1873  1.5967
  955MOL0     H26007   8.450   0.339   6.327  0.0204 -0.5261 -0.4328
  955MOL0     H26008   8.287   0.342   6.358  0.0246  0.6010 -1.2521
  955MOL0     H26009   8.400   0.333   6.564  1.7822 -2.6142 -3.1358
  955MOL0     H26010   8.523   0.439   6.522  1.1338 -4.2347 -5.3010
  955MOL0     H26011   8.338   0.634   6.516 -0.4279 -3.6728 -4.9225
  955MOL0     H26012   8.417   0.574   6.672 -1.1234  1.4892 -0.1531
  955MOL0     H26013   8.229   0.585   6.856  4.3154  0.4478 -3.1359
  955MOL0     H26014   7.894   0.392   6.905 -0.5253 -0.9799  1.7645
  955MOL0     H26015   7.956   0.549   6.939 -0.7841  0.9744 -2.3881
  955MOL0     H26016   8.141   0.427   7.088 -0.1847  0.8658 -0.4299
  955MOL0     H26017   8.095   0.278   7.008 -0.8739 -0.2889 -0.3488
  955MOL0     H26018   7.852   0.343   7.116  0.4262  3.0828 -0.9151
  955MOL0     H26019   7.982   0.271   7.210 -2.9393 -2.7844 -2.6919
  955MOL0     H26020   7.866   0.554   7.194  0.0648  0.3767 -0.2419
  955MOL0     H26021   8.027   0.549   7.243  0.0586  1.1751 -0.5405
  955MOL0     H26022   8.165   0.489   7.380  0.3120 -1.9064 -0.8711
  955MOL0     H26023   8.297   0.394   7.524 -0.2509  3.0779 -0.1261
  955MOL0     H26024   8.519   0.328   7.898 -2.0275 -0.6234 -2.5019
  955MOL0     H26025   8.687   0.193   8.037 -0.7720 -1.1094  2.0506
  955MOL0     H26026   8.821   0.055   8.142  0.0849 -0.2145  0.4449
  955MOL0     H26027   8.895   0.054   7.988 -0.3164 -1.0423 -0.2789
  955MOL0     H26028   8.970  -0.184   8.028 -0.7789 -1.8624  0.1486
  955MOL0     H26029   8.853  -0.194   8.166 -0.1016  1.6731  1.3363
  955MOL0     H26030   8.972  -0.040   8.290 -3.1220 -2.2430 -1.5059
  955MOL0     H26031   9.085   0.000   8.159  0.2072  2.7691  3.2458
  955MOL0     H26032   9.153  -0.262   8.178  0.0366 -0.5952  0.3470
  955MOL0     H26033   9.217  -0.136   8.294 -0.8736  2.5052 -2.7614
  955MOL0     H26034   9.159  -0.354   8.396  1.4258  2.1809  3.5212
  955MOL0     H26035   8.990  -0.339   8.353  0.1948 -1.2223  0.2124
  955MOL0     H26036   8.997  -0.109   8.503  2.6934  2.9356  4.1697
  955MOL0     H26037   9.165  -0.133   8.505  1.4753 -2.0612 -0.2265
  955MOL0     H26038   8.967  -0.327   8.641  0.6742 -0.0796  2.8082
  955MOL0     H26039   9.148  -0.348   8.633  2.0770  2.0846  2.6957
  955MOL0     H26040   9.033  -0.082   8.722 -2.1058 -1.5244 -1.5871
  955MOL0     H26041   9.164  -0.172   8.799  0.0021  1.0768  1.2101
  955MOL0     H26042   8.583  -0.150   7.793 -2.4526 -0.0618 -1.0384
  955MOL0     H26043   8.429  -0.009   7.671  1.2153 -1.1996 -1.4277
  955MOL0     H26044   7.954   0.243   7.753 -2.8110  0.1766 -1.8220
  955MOL0     H26045   7.815   0.349   7.580  0.9152 -1.2234  1.0839
  955MOL0     H26046   8.331   0.803   5.577 -2.7979 -2.7738  1.4735
  955MOL0     H26047   8.355   0.744   5.319 -0.6434  0.9851  1.9898
  955MOL0     H26048   8.540   0.456   5.014  1.3256 -0.9776 -2.0248
  955MOL0     H26049   8.527   0.405   4.791  0.2239  3.1779 -0.0808
  955MOL0     H26050   8.168   0.168   4.606  0.9601  0.2480 -0.1120
  955MOL0     H26051   8.328   0.120   4.680 -1.6278  1.9491  3.3333
  955MOL0     H26052   8.408   0.211   4.419 -0.3654 -0.2231 -1.0361
  955MOL0     H26053   8.364   0.042   4.464 -1.8019 -0.5384  1.3269
  955MOL0     H26054   8.185   0.277   4.355  3.3903  0.7097 -3.0809
  955MOL0     H26055   8.110   0.133   4.402  1.0082  0.7154  2.4622
  955MOL0     H26056   8.253   0.222   4.160 -0.6096  0.3524  1.3540
  955MOL0     H26057   8.317   0.059   4.198 -0.7762 -0.4679 -1.5097
  955MOL0     H26058   7.945  -0.017   4.030 -0.3093  0.0078  0.3094
  955MOL0     H26059   8.120   0.277   4.815  2.6742 -2.1022 -1.7866
  955MOL0     H26060   8.122   0.359   5.064  0.2883  1.5121 -0.2398
  956MOL0     O26061  10.156  10.528   8.202 -0.0231 -0.0293 -0.0827
  956MOL0     C26062  10.207  10.623   8.261 -0.7868  0.2950 -0.6034
  956MOL0     O26063  10.209  10.753   8.214 -0.3310 -0.1126  0.0471
  956MOL0     C26064  10.107  10.784   8.136 -0.3866  0.4913  0.3932
  956MOL0     C26065   9.978  10.772   8.167 -0.1214 -0.7356  0.4938
  956MOL0     C26066   9.880  10.850   8.085  0.3201 -0.0464  0.0722
  956MOL0     C26067   9.932  10.936   7.983 -0.1419 -0.0706 -0.0021
  956MOL0     O26068   9.839  11.014   7.917 -0.5528 -0.0583  0.3089
  956MOL0     C26069   9.760  10.951   7.823 -0.1656 -0.5298  0.0973
  956MOL0     C26070   9.703  11.051   7.723 -0.6305  0.3943 -0.3012
  956MOL0     C26071   9.604  10.982   7.628  0.6044  0.5937 -1.2140
  956MOL0     C26072   9.536  11.086   7.538  0.0123  0.2716 -1.6718
  956MOL0     C26073   9.468  11.015   7.420  1.0021  0.3401 -1.0353
  956MOL0     C26074   9.330  10.962   7.453  0.4491  0.6739  0.6390
  956MOL0     C26075   9.256  10.911   7.327  0.2267  0.0971 -0.1100
  956MOL0     C26076   9.114  10.851   7.360  0.3534 -0.1995  0.8703
  956MOL0     N26077   9.025  10.850   7.244  0.9514 -0.3178 -0.4150
  956MOL0     C26078   8.989  10.744   7.165  0.1745 -0.4266 -0.7950
  956MOL0     C26079   8.874  10.781   7.102  0.2096  0.5397 -0.4712
  956MOL0     C26080   8.796  10.701   7.011  0.1407 -0.0710  0.0026
  956MOL0     C26081   8.695  10.624   7.096 -0.0527  0.2953  0.3878
  956MOL0     C26082   8.763  10.510   7.183  0.4187 -0.3559  1.4277
  956MOL0     C26083   8.740  10.543   7.335  0.6662  0.6523  0.3644
  956MOL0     O26084   8.824  10.448   7.411  0.1335  0.5871  1.0373
  956MOL0     C26085   8.956  10.465   7.419 -0.8982  0.4074 -0.9009
  956MOL0     C26086   9.057  10.407   7.331  0.3156 -0.2713  0.4154
  956MOL0     C26087   9.193  10.419   7.350  0.1012 -0.1232 -0.2006
  956MOL0     C26088   9.242  10.481   7.469 -0.1322 -0.7315 -0.4336
  956MOL0     C26089   9.382  10.501   7.489  0.7843  1.4228  0.4106
  956MOL0     O26090   9.417  10.576   7.590  0.0826 -0.4482  0.1238
  956MOL0     C26091   9.552  10.583   7.612  0.3299  1.2235  0.1986
  956MOL0     C26092   9.660  10.588   7.520  0.5277 -0.3413 -0.2847
  956MOL0     C26093   9.794  10.582   7.558 -0.3298 -0.5117 -1.0504
  956MOL0     C26094   9.827  10.574   7.697  0.4105 -0.7154  0.8302
  956MOL0     O26095   9.960  10.560   7.713 -0.3428  0.0369  0.3324
  956MOL0     C26096  10.017  10.548   7.841 -0.4120 -0.2520 -0.6960
  956MOL0     C26097  10.152  10.491   7.835 -0.4112  1.7219 -0.1341
  956MOL0     C26098  10.256  10.594   7.883  0.2735 -0.7780 -0.1554
  956MOL0     C26099  10.395  10.543   7.842 -0.0237 -0.5978 -1.1115
  956MOL0     C26100  10.522  10.632   7.880  0.1779  0.8822  0.5135
  956MOL0     C26101  10.652  10.559   7.844 -0.4053  0.0803  0.3128
  956MOL0     C26102  10.762  10.656   7.835  0.2001  0.6807 -1.0692
  956MOL0     C26103  10.813  10.708   7.973  0.9374  0.2169 -0.1951
  956MOL0    Cl26104  10.869  10.578   8.079 -0.5142  0.2330  0.0651
  956MOL0     C26105   9.723  10.572   7.788  0.0993 -0.6543 -0.7292
  956MOL0     C26106   9.590  10.564   7.745 -0.3762 -0.0963  0.1255
  956MOL0     O26107   9.455  10.438   7.420 -0.0785  0.2292  0.4979
  956MOL0     C26108   9.143  10.536   7.555 -0.2456 -1.0548 -0.1095
  956MOL0     C26109   9.006  10.529   7.531  0.4736  0.0651 -0.3501
  956MOL0     N26110   8.838  10.900   7.150 -0.7059 -0.9666 -0.4789
  956MOL0     N26111   8.925  10.944   7.232 -0.2601  0.3355 -0.5824
  956MOL0     C26112  10.065  10.946   7.964 -0.9104 -1.0193  0.2748
  956MOL0     C26113  10.158  10.874   8.037 -0.4062 -0.0238  0.4688
  956MOL0     C26114  10.319  10.590   8.352 -0.0488 -0.4680  0.0160
  956MOL0     C26115  10.422  10.687   8.367 -0.3029  0.7129  0.6299
  956MOL0     C26116  10.522  10.670   8.459  0.0290 -0.3907  0.6078
  956MOL0     C26117  10.537  10.552   8.532  1.2009 -0.2183  0.9485
  956MOL0     O26118  10.640  10.537   8.622  0.0158 -0.7316 -0.0148
  956MOL0     C26119  10.596  10.554   8.754 -0.0964 -0.6008 -0.5914
  956MOL0     C26120  10.708  10.640   8.825 -0.9713  0.1460  0.3342
  956MOL0     C26121  10.670  10.658   8.973  0.5081  0.8012  0.6128
  956MOL0     C26122  10.776  10.704   9.065 -0.4103  0.2098 -0.5454
  956MOL0     C26123  10.736  10.673   9.210  0.3404  0.3377  0.9415
  956MOL0     C26124  10.727  10.662   9.325 -1.0767 -0.5335 -0.4844
  956MOL0     C26125  10.437  10.454   8.507 -0.5472 -0.5329 -0.5985
  956MOL0     C26126  10.328  10.471   8.426  0.0007 -0.1861  0.3114
  956MOL0     H26127   9.938  10.713   8.249 -2.7379 -2.3562 -1.7992
  956MOL0     H26128   9.777  10.832   8.115  0.7851 -0.5505  1.4308
  956MOL0     H26129   9.674  10.901   7.870 -0.3345  1.0040  1.5136
  956MOL0     H26130   9.813  10.874   7.767 -1.7755 -0.9143 -0.9785
  956MOL0     H26131   9.783  11.099   7.666  2.3630 -2.1905  1.3745
  956MOL0     H26132   9.653  11.118   7.792  2.5598  0.8367  1.8234
  956MOL0     H26133   9.529  10.932   7.689  1.5465  0.7575  0.1208
  956MOL0     H26134   9.663  10.911   7.570  1.3524  1.2591 -1.2942
  956MOL0     H26135   9.452  11.131   7.591 -2.6745 -4.8602 -0.9127
  956MOL0     H26136   9.607  11.160   7.500  1.1265  0.3291  0.3550
  956MOL0     H26137   9.529  10.939   7.371  0.9243 -0.6227  0.2860
  956MOL0     H26138   9.464  11.085   7.337 -2.5483  2.5149  0.7111
  956MOL0     H26139   9.272  11.046   7.494  0.0260  0.3197  0.7735
  956MOL0     H26140   9.332  10.880   7.525 -2.4393 -0.7780 -0.7929
  956MOL0     H26141   9.226  11.000   7.272 -1.4286  3.2562  5.1621
  956MOL0     H26142   9.315  10.835   7.274 -0.8876 -2.0846  1.6191
  956MOL0     H26143   9.075  10.901   7.449  0.4111 -0.4503  1.0385
  956MOL0     H26144   9.120  10.745   7.386 -0.5450 -0.7083 -0.8672
  956MOL0     H26145   9.038  10.650   7.143  1.2040  0.0294 -0.5123
  956MOL0     H26146   8.851  10.624   6.955  1.5829 -0.1233  1.4206
  956MOL0     H26147   8.757  10.764   6.931 -0.7709  0.2502  0.6832
  956MOL0     H26148   8.615  10.579   7.036 -0.0841 -0.7772  1.1927
  956MOL0     H26149   8.638  10.693   7.159 -2.1195 -0.6367 -0.3826
  956MOL0     H26150   8.725  10.413   7.151  1.2676  0.3678 -2.1273
  956MOL0     H26151   8.866  10.519   7.150  0.1067  1.7553  0.8699
  956MOL0     H26152   8.640  10.505   7.358  0.6703 -0.4772 -1.2678
  956MOL0     H26153   8.759  10.645   7.368  1.3451 -0.2952  3.1674
  956MOL0     H26154   9.014  10.379   7.235  1.4603  1.3722 -0.6242
  956MOL0     H26155   9.256  10.369   7.277  0.5323  1.6280 -1.0773
  956MOL0     H26156   9.637  10.591   7.414 -1.9595  1.0530  0.2176
  956MOL0     H26157   9.868  10.595   7.479 -2.5846  0.1443 -3.1958
  956MOL0     H26158   9.946  10.491   7.901  0.0941 -0.6964 -0.5043
  956MOL0     H26159  10.015  10.646   7.890 -2.1373 -0.2677 -0.6923
  956MOL0     H26160  10.170  10.452   7.735 -0.1561  3.3306 -0.7412
  956MOL0     H26161  10.146  10.404   7.902 -0.7865  2.3200  0.6319
  956MOL0     H26162  10.253  10.613   7.991 -1.5123 -0.1328 -0.2742
  956MOL0     H26163  10.230  10.687   7.833 -1.7696 -1.5067 -0.5607
  956MOL0     H26164  10.405  10.446   7.892  0.7195 -0.5128 -1.0831
  956MOL0     H26165  10.411  10.529   7.734  1.6962 -1.8955 -0.7474
  956MOL0     H26166  10.510  10.632   7.989 -1.2173 -0.3356  0.4025
  956MOL0     H26167  10.520  10.727   7.826  0.7514  1.8455  2.0970
  956MOL0     H26168  10.649  10.503   7.750  0.0136 -0.1486  0.4345
  956MOL0     H26169  10.684  10.487   7.920  1.2821  1.3228  0.8487
  956MOL0     H26170  10.840  10.604   7.780 -1.6685 -2.4331 -1.0705
  956MOL0     H26171  10.733  10.737   7.767  0.1211  1.0459 -0.6079
  956MOL0     H26172  10.736  10.759   8.032 -2.0110 -2.3078 -1.5944
  956MOL0     H26173  10.889  10.786   7.957 -0.7729  2.2028  0.8817
  956MOL0     H26174   9.716  10.559   7.895 -2.6703 -0.2998 -0.7910
  956MOL0     H26175   9.507  10.544   7.812 -1.1912  0.1467 -0.7849
  956MOL0     H26176   9.174  10.581   7.649 -1.9818  0.4298 -0.1726
  956MOL0     H26177   8.926  10.541   7.603  0.3963 -4.4071  0.6491
  956MOL0     H26178  10.104  11.023   7.897  1.4120 -1.5766  0.8988
  956MOL0     H26179  10.264  10.896   8.032 -0.2999 -0.7342 -0.9477
  956MOL0     H26180  10.423  10.783   8.317  2.0854 -1.6555 -4.5870
  956MOL0     H26181  10.598  10.744   8.481  0.9395 -1.0018 -0.3793
  956MOL0     H26182  10.602  10.453   8.798  3.4653 -0.0043  0.6319
  956MOL0     H26183  10.494  10.589   8.771 -0.3902 -2.6924  2.9943
  956MOL0     H26184  10.802  10.586   8.809 -1.3713  0.1894 -2.8826
  956MOL0     H26185  10.718  10.738   8.778  1.9890  0.6299  1.7928
  956MOL0     H26186  10.648  10.556   9.006  0.3516  1.0392  1.2475
  956MOL0     H26187  10.572  10.706   8.979  0.6170  1.1636 -0.3963
  956MOL0     H26188  10.875  10.659   9.053  0.4857  1.9046  0.1575
  956MOL0     H26189  10.777  10.812   9.048 -0.4073  0.3093  0.0821
  956MOL0     H26190  10.750  10.667   9.429  4.0705 -2.5151 -1.1896
  956MOL0     H26191  10.446  10.353   8.548 -1.5147 -0.4525 -0.1540
  956MOL0     H26192  10.249  10.397   8.422 -0.3716  0.0992  1.8732
  957MOL0     O26193   8.489   3.925   5.303 -0.6229 -0.6470  0.4352
  957MOL0     C26194   8.427   3.989   5.383 -0.7162 -0.6614 -0.5969
  957MOL0     O26195   8.316   4.062   5.360  0.4506 -0.5580 -0.4193
  957MOL0     C26196   8.251   4.055   5.238 -0.0342 -0.3635  0.6872
  957MOL0     C26197   8.309   4.064   5.106  0.1208  0.0961  0.1849
  957MOL0     C26198   8.237   4.059   4.988  0.4054 -0.4945 -0.5359
  957MOL0     C26199   8.097   4.058   4.999  0.5974 -0.4437  0.4122
  957MOL0     O26200   8.018   4.035   4.892  0.3396 -0.0043 -0.0817
  957MOL0     C26201   8.055   3.947   4.790  0.0059 -0.5886  0.2923
  957MOL0     C26202   8.054   4.018   4.655 -0.5265  0.9766 -1.5224
  957MOL0     C26203   7.918   4.087   4.633  0.2485  0.2634 -0.0159
  957MOL0     C26204   7.794   3.994   4.618 -0.3488  0.2603  0.0562
  957MOL0     C26205   7.718   4.067   4.511  1.0407 -0.4594  0.8814
  957MOL0     C26206   7.652   4.182   4.569 -0.5299 -0.7300 -0.0539
  957MOL0     C26207   7.566   4.244   4.463 -0.2106  0.6584 -0.4804
  957MOL0     C26208   7.525   4.385   4.501  0.4764 -0.6730  0.4287
  957MOL0     N26209   7.424   4.439   4.402  0.4482  0.2877  0.4208
  957MOL0     C26210   7.459   4.525   4.303 -0.0447  0.7124  0.1750
  957MOL0     C26211   7.344   4.593   4.285  0.0649  0.0303 -0.5108
  957MOL0     C26212   7.317   4.696   4.181  0.2670 -0.3757  0.8249
  957MOL0     C26213   7.394   4.827   4.212 -0.5187 -0.1398  0.1417
  957MOL0     C26214   7.338   4.900   4.332  0.2937 -0.5795 -1.0977
  957MOL0     C26215   7.421   4.871   4.461 -1.3799 -0.1595 -0.5606
  957MOL0     O26216   7.459   4.998   4.508  0.6476  0.1987 -0.5318
  957MOL0     C26217   7.507   5.008   4.634 -0.7337  0.0834 -0.6971
  957MOL0     C26218   7.544   5.143   4.680 -0.6238  0.1820  0.1436
  957MOL0     C26219   7.596   5.167   4.809  1.0227  0.6381 -0.5359
  957MOL0     C26220   7.622   5.065   4.900  0.0594 -0.5037 -0.0896
  957MOL0     C26221   7.680   5.085   5.035  0.0089  0.4820  0.1697
  957MOL0     O26222   7.680   4.972   5.122  0.6461 -0.1264 -0.3659
  957MOL0     C26223   7.736   4.969   5.250 -0.7355  0.2687 -0.2377
  957MOL0     C26224   7.760   5.081   5.335  0.5516  0.1255 -0.2304
  957MOL0     C26225   7.804   5.064   5.469 -0.5320 -0.6159 -0.1418
  957MOL0     C26226   7.843   4.941   5.514 -0.5300  0.4984  0.1108
  957MOL0     O26227   7.896   4.919   5.636 -0.2874  0.2521  0.8598
  957MOL0     C26228   7.885   5.018   5.740 -0.1187 -0.7883  0.8135
  957MOL0     C26229   7.878   4.953   5.877 -0.4387 -0.9974  0.1787
  957MOL0     C26230   7.992   4.874   5.921  0.3524 -0.0249  0.5723
  957MOL0     C26231   7.964   4.811   6.066  0.4365 -0.7459 -0.5315
  957MOL0     C26232   8.073   4.723   6.118 -0.4342 -1.0215  1.1890
  957MOL0     C26233   8.038   4.684   6.265  0.3368  0.5999  0.4722
  957MOL0     C26234   8.143   4.596   6.325 -0.4428  0.4471 -0.8201
  957MOL0     C26235   8.116   4.555   6.469  1.1699 -0.1937  0.1404
  957MOL0    Cl26236   8.136   4.688   6.581  0.1007  0.1953  0.0016
  957MOL0     C26237   7.821   4.829   5.435  0.4045 -1.0686 -0.6177
  957MOL0     C26238   7.767   4.847   5.313 -0.4997 -0.5614  0.4338
  957MOL0     O26239   7.750   5.186   5.051 -0.0017  0.8703  0.3553
  957MOL0     C26240   7.581   4.938   4.856  0.8873 -0.0813 -0.6316
  957MOL0     C26241   7.526   4.911   4.726 -0.1082  0.0794  0.7439
  957MOL0     N26242   7.249   4.543   4.375 -0.7175 -0.1654  0.0631
  957MOL0     N26243   7.290   4.436   4.434  0.5233  0.2393 -0.4891
  957MOL0     C26244   8.032   4.068   5.126  0.1917  0.8010 -0.1284
  957MOL0     C26245   8.116   4.060   5.241  0.1657  0.7282  0.5702
  957MOL0     C26246   8.486   4.005   5.518  0.9682  0.4310 -0.0687
  957MOL0     C26247   8.492   4.133   5.579  0.4113 -0.1020 -0.6376
  957MOL0     C26248   8.545   4.146   5.711  0.2525 -0.1816 -0.0614
  957MOL0     C26249   8.574   4.038   5.790 -0.2422  0.8620 -1.4357
  957MOL0     O26250   8.591   4.070   5.923 -0.1023  0.7914 -0.6038
  957MOL0     C26251   8.578   3.956   6.003  0.1016  0.6381 -0.1442
  957MOL0     C26252   8.573   3.989   6.156  0.4609 -0.5107 -0.6956
  957MOL0     C26253   8.696   4.063   6.200  0.9275  0.5444 -0.0519
  957MOL0     C26254   8.714   4.088   6.353 -0.9709 -1.1085 -0.2975
  957MOL0     C26255   8.746   3.964   6.417  0.1994  0.9681 -0.8950
  957MOL0     C26256   8.754   3.849   6.465 -1.6002 -0.4070 -0.7088
  957MOL0     C26257   8.565   3.911   5.731 -0.3306  1.2363 -0.2813
  957MOL0     C26258   8.517   3.889   5.595 -0.2243 -0.2015  0.2328
  957MOL0     H26259   8.417   4.071   5.098 -0.1183  2.3533 -3.3727
  957MOL0     H26260   8.285   4.070   4.891  1.3290 -2.2914 -0.3334
  957MOL0     H26261   7.992   3.858   4.796  0.4416 -0.8587  0.8815
  957MOL0     H26262   8.151   3.904   4.821 -0.4497  0.1276  2.9276
  957MOL0     H26263   8.073   3.949   4.573 -0.6493  1.4985 -1.9932
  957MOL0     H26264   8.127   4.099   4.646 -1.5935  2.2111  0.2789
  957MOL0     H26265   7.939   4.139   4.539 -0.4800  0.0406 -0.3071
  957MOL0     H26266   7.905   4.161   4.713 -2.9361 -1.0890  0.8519
  957MOL0     H26267   7.812   3.894   4.576 -2.7168  0.1441 -0.7726
  957MOL0     H26268   7.745   3.979   4.715 -0.1245  1.0231  0.2928
  957MOL0     H26269   7.646   3.990   4.483  2.1579 -0.8493 -1.1204
  957MOL0     H26270   7.774   4.093   4.421 -0.3490 -1.3520 -0.2763
  957MOL0     H26271   7.723   4.255   4.609  0.7750 -1.8628 -0.2230
  957MOL0     H26272   7.585   4.144   4.648 -1.2420 -1.0616 -0.8006
  957MOL0     H26273   7.619   4.234   4.367  0.1717 -1.4256 -0.1017
  957MOL0     H26274   7.481   4.178   4.444 -2.3507  2.7900  1.0117
  957MOL0     H26275   7.612   4.451   4.503 -1.3207  1.9131 -0.6287
  957MOL0     H26276   7.470   4.389   4.595 -1.1633  0.8788 -0.5390
  957MOL0     H26277   7.557   4.539   4.259  1.0985  1.9562  2.8579
  957MOL0     H26278   7.208   4.708   4.186 -0.0139 -2.3390  0.1877
  957MOL0     H26279   7.347   4.658   4.083  1.4232  1.4976  0.3971
  957MOL0     H26280   7.356   4.886   4.128 -4.1838  2.2810  3.1642
  957MOL0     H26281   7.501   4.805   4.209 -0.4728  0.0561  0.3378
  957MOL0     H26282   7.372   4.999   4.300  0.0715 -0.0348  0.2528
  957MOL0     H26283   7.228   4.898   4.337  0.2280 -1.0800 -2.4333
  957MOL0     H26284   7.507   4.804   4.447  1.7523  3.1500  1.2274
  957MOL0     H26285   7.366   4.821   4.541  2.9666  0.4377  3.1869
  957MOL0     H26286   7.515   5.217   4.606 -2.3501 -1.7807 -1.2543
  957MOL0     H26287   7.614   5.271   4.835  1.6678 -0.5401  4.8735
  957MOL0     H26288   7.733   5.177   5.292  0.6952 -0.4383 -1.6647
  957MOL0     H26289   7.806   5.161   5.519  1.2425  0.1560 -1.6053
  957MOL0     H26290   7.797   5.083   5.732  0.1275 -0.1431  2.7713
  957MOL0     H26291   7.970   5.088   5.743  1.3358 -2.4809  3.6351
  957MOL0     H26292   7.787   4.891   5.878 -1.4615  0.4613  0.0757
  957MOL0     H26293   7.858   5.029   5.953  1.9456  0.8180 -0.8933
  957MOL0     H26294   8.081   4.938   5.925  2.0603 -2.1967 -0.4660
  957MOL0     H26295   8.027   4.797   5.852  3.0136 -1.4051  3.2207
  957MOL0     H26296   7.954   4.899   6.130  3.6516 -0.8293  0.2188
  957MOL0     H26297   7.869   4.759   6.048 -1.0285  1.7701 -0.6621
  957MOL0     H26298   8.160   4.788   6.113 -2.3627  1.8561  2.4665
  957MOL0     H26299   8.079   4.633   6.056 -1.6096  0.1389 -0.7076
  957MOL0     H26300   7.947   4.623   6.261 -0.1118  1.2975 -0.3424
  957MOL0     H26301   8.025   4.771   6.331 -2.3294  0.7664 -0.1424
  957MOL0     H26302   8.157   4.503   6.268 -1.9714 -0.6481  0.4911
  957MOL0     H26303   8.239   4.648   6.324  0.2195 -0.5372  2.3334
  957MOL0     H26304   8.183   4.473   6.497  2.0630  1.3347  3.0013
  957MOL0     H26305   8.011   4.529   6.460 -0.2393  5.1404 -3.1790
  957MOL0     H26306   7.848   4.733   5.477 -0.6872 -1.0318  0.1975
  957MOL0     H26307   7.760   4.758   5.251  1.1011 -1.1403  1.0367
  957MOL0     H26308   7.593   4.852   4.921  0.3659 -0.8565 -1.5443
  957MOL0     H26309   7.510   4.805   4.710 -0.4267 -0.1617  2.4713
  957MOL0     H26310   7.924   4.070   5.116  0.2762  1.7607 -1.0588
  957MOL0     H26311   8.079   4.067   5.342  1.0349  0.2486  0.9321
  957MOL0     H26312   8.457   4.223   5.529 -3.0079 -0.4756  0.7891
  957MOL0     H26313   8.552   4.249   5.744  3.2595 -0.4789  0.4365
  957MOL0     H26314   8.657   3.882   5.986 -0.2964  0.2475 -0.3111
  957MOL0     H26315   8.483   3.905   5.982  2.3538 -4.7703  1.0205
  957MOL0     H26316   8.496   4.064   6.175  2.0132  0.8609  0.4147
  957MOL0     H26317   8.563   3.896   6.213  0.3955 -0.4325 -0.5822
  957MOL0     H26318   8.680   4.156   6.146 -2.0113  0.2671  0.1997
  957MOL0     H26319   8.785   4.020   6.153  0.5482 -1.1427  0.6986
  957MOL0     H26320   8.796   4.158   6.370  0.2303 -1.9619 -2.2371
  957MOL0     H26321   8.627   4.126   6.407  0.2736 -0.5544  1.4471
  957MOL0     H26322   8.751   3.747   6.497 -1.8533 -0.6211 -1.3892
  957MOL0     H26323   8.580   3.820   5.788 -1.4381 -1.1611 -3.4869
  957MOL0     H26324   8.492   3.790   5.560  1.9478 -1.0325  0.9019
  958MOL0     O26325   3.726   2.290   7.558 -0.2309 -0.4509  0.2113
  958MOL0     C26326   3.824   2.305   7.487  0.8248  0.9182  0.1933
  958MOL0     O26327   3.831   2.248   7.360 -0.0594  0.2766 -0.7667
  958MOL0     C26328   3.725   2.187   7.298 -0.3059  0.3078  0.2219
  958MOL0     C26329   3.616   2.114   7.350  0.1743  0.4642 -0.2870
  958MOL0     C26330   3.519   2.065   7.272 -0.3475  0.5036  0.0002
  958MOL0     C26331   3.516   2.090   7.131 -0.3075  0.7138  0.2647
  958MOL0     O26332   3.420   2.034   7.051  0.1002 -0.0926  0.0826
  958MOL0     C26333   3.417   2.058   6.913 -0.7317 -0.8292 -0.1731
  958MOL0     C26334   3.305   1.977   6.840 -0.2260  0.2952 -0.0249
  958MOL0     C26335   3.310   1.825   6.877  0.1514  0.2893  0.3155
  958MOL0     C26336   3.224   1.736   6.782 -0.8293  0.2685  0.2941
  958MOL0     C26337   3.075   1.767   6.769  0.2027 -0.0417 -0.7238
  958MOL0     C26338   3.016   1.692   6.658  0.8593  0.5454 -0.0485
  958MOL0     C26339   2.863   1.711   6.663 -0.2356 -0.0844  0.2285
  958MOL0     C26340   2.817   1.843   6.602  0.2872  0.6809  0.8307
  958MOL0     N26341   2.805   1.834   6.450  0.4709  0.6800  0.5260
  958MOL0     C26342   2.760   1.730   6.377  0.3141  0.1668 -0.1903
  958MOL0     C26343   2.787   1.759   6.253  0.6072 -0.1430 -0.0115
  958MOL0     C26344   2.755   1.676   6.138 -0.3086  0.2027 -1.0050
  958MOL0     C26345   2.610   1.669   6.095  0.2682 -0.5602  0.1229
  958MOL0     C26346   2.568   1.817   6.046  0.4478  0.6925 -0.8888
  958MOL0     C26347   2.414   1.833   6.028 -0.1413 -0.8384  0.6000
  958MOL0     O26348   2.362   1.709   5.965 -0.2965 -0.1288 -0.2442
  958MOL0     C26349   2.223   1.698   5.962 -0.0856  0.5227  0.3948
  958MOL0     C26350   2.127   1.802   5.981 -0.9634 -0.2467  0.4655
  958MOL0     C26351   2.000   1.769   5.973 -0.1269 -0.7422  0.0934
  958MOL0     C26352   1.948   1.632   5.974  0.7593 -0.1627  0.2246
  958MOL0     C26353   1.799   1.604   5.982  1.0797 -0.6837  0.0462
  958MOL0     O26354   1.763   1.476   6.024 -0.1315 -0.2615  0.6947
  958MOL0     C26355   1.635   1.450   6.019 -0.1746 -0.0988  0.5147
  958MOL0     C26356   1.544   1.498   6.119 -0.5216  0.6504  0.1794
  958MOL0     C26357   1.423   1.435   6.130 -0.1615 -0.5442 -0.4415
  958MOL0     C26358   1.388   1.329   6.045 -0.7519  0.4143 -0.4190
  958MOL0     O26359   1.271   1.260   6.035  0.0133 -0.4766  0.3969
  958MOL0     C26360   1.167   1.335   5.984 -0.2779 -0.0290 -0.3870
  958MOL0     C26361   1.080   1.264   5.875 -0.1358 -1.9541  0.4069
  958MOL0     C26362   1.138   1.303   5.740  1.2180  1.0586  0.8184
  958MOL0     C26363   1.045   1.238   5.636 -0.7532  0.6621 -0.5521
  958MOL0     C26364   0.898   1.282   5.632 -0.6574 -0.4624 -0.0425
  958MOL0     C26365   0.831   1.247   5.500  0.2944  0.2317  0.6228
  958MOL0     C26366   0.684   1.292   5.487  0.3122 -0.2525  0.1616
  958MOL0     C26367   0.611   1.235   5.368 -0.1073  0.0723  0.3131
  958MOL0    Cl26368   0.665   1.315   5.220 -0.5244  0.0507 -0.1294
  958MOL0     C26369   1.492   1.272   5.964  0.0520 -0.0217 -0.3728
  958MOL0     C26370   1.608   1.340   5.941 -0.1315 -0.7134 -0.5715
  958MOL0     O26371   1.726   1.701   5.945 -0.0885  0.3254 -0.2737
  958MOL0     C26372   2.045   1.533   5.980 -0.0414  0.3878  0.4890
  958MOL0     C26373   2.179   1.568   5.952 -0.0317  0.4083 -0.4360
  958MOL0     N26374   2.834   1.895   6.249 -0.2353 -0.0017  0.2835
  958MOL0     N26375   2.835   1.937   6.368 -0.2123 -1.3443  0.3667
  958MOL0     C26376   3.624   2.165   7.081 -0.1910 -0.3978 -0.7832
  958MOL0     C26377   3.724   2.214   7.159 -0.2723  0.5223  0.9027
  958MOL0     C26378   3.918   2.401   7.520 -0.6479  0.4318 -0.9218
  958MOL0     C26379   3.907   2.487   7.632 -0.6751 -0.3209 -0.4941
  958MOL0     C26380   4.015   2.574   7.660  0.5190  0.5966 -0.2373
  958MOL0     C26381   4.131   2.574   7.590 -0.0819  0.9301  0.4848
  958MOL0     O26382   4.236   2.663   7.609  1.2182  0.5459 -0.0030
  958MOL0     C26383   4.233   2.780   7.693  0.4700 -0.2664  0.1834
  958MOL0     C26384   4.290   2.766   7.826  0.3571  0.6691 -0.1180
  958MOL0     C26385   4.260   2.902   7.908 -0.3254  0.3640  0.5523
  958MOL0     C26386   4.295   3.036   7.837 -0.0147 -0.6567 -0.2429
  958MOL0     C26387   4.443   3.055   7.819  0.1751 -0.6933  1.3341
  958MOL0     C26388   4.562   3.044   7.806 -0.7137 -0.8998  0.7940
  958MOL0     C26389   4.148   2.489   7.481 -1.0327 -0.5833  0.3437
  958MOL0     C26390   4.042   2.405   7.450  0.9938 -0.2712  0.1665
  958MOL0     H26391   3.622   2.085   7.454  2.4632 -0.6277 -0.6640
  958MOL0     H26392   3.433   2.009   7.309 -0.7673  1.7648  1.0376
  958MOL0     H26393   3.513   2.033   6.866  0.4521  0.1659  1.5917
  958MOL0     H26394   3.392   2.163   6.892  1.1285  0.2030  2.2804
  958MOL0     H26395   3.320   1.992   6.732 -0.0832  1.6467  0.1644
  958MOL0     H26396   3.207   2.019   6.865 -1.7007 -2.4587 -0.7994
  958MOL0     H26397   3.276   1.822   6.981 -1.0741  0.4729 -0.0713
  958MOL0     H26398   3.412   1.786   6.868  0.6761  0.7829  3.0556
  958MOL0     H26399   3.274   1.734   6.685 -0.5713 -1.0793  0.4346
  958MOL0     H26400   3.240   1.638   6.827  1.1268  1.0335  1.4072
  958MOL0     H26401   3.066   1.872   6.741 -2.1261  0.1094  0.3403
  958MOL0     H26402   3.020   1.743   6.861 -0.8970  1.7491 -0.8776
  958MOL0     H26403   3.020   1.583   6.663 -0.4203  0.3508 -2.0933
  958MOL0     H26404   3.049   1.722   6.558 -3.0484  0.5354 -1.5163
  958MOL0     H26405   2.816   1.632   6.605 -4.0153  2.2956 -0.2882
  958MOL0     H26406   2.830   1.705   6.767 -1.9945 -0.9371 -0.3463
  958MOL0     H26407   2.880   1.930   6.623  1.9646  0.6799 -3.2690
  958MOL0     H26408   2.723   1.873   6.649  0.0131  1.3167 -0.0851
  958MOL0     H26409   2.721   1.635   6.412 -0.4206  0.8710  0.9542
  958MOL0     H26410   2.778   1.576   6.175 -3.1073 -1.1628 -2.6166
  958MOL0     H26411   2.820   1.712   6.057 -0.8553  0.8197 -1.1885
  958MOL0     H26412   2.549   1.646   6.183 -3.3262  1.5350 -1.6365
  958MOL0     H26413   2.592   1.589   6.023  3.0988 -3.2908  2.1527
  958MOL0     H26414   2.597   1.893   6.118 -1.0876 -0.8986  1.5837
  958MOL0     H26415   2.612   1.845   5.950  0.7424  1.3753 -0.5562
  958MOL0     H26416   2.407   1.920   5.962 -0.5448 -0.0131  1.6994
  958MOL0     H26417   2.376   1.866   6.125 -1.7451  3.2448 -1.1396
  958MOL0     H26418   2.156   1.907   5.987 -1.5801 -0.0167 -0.4297
  958MOL0     H26419   1.939   1.858   5.962  3.5221  1.8510 -1.0288
  958MOL0     H26420   1.570   1.591   6.168 -0.7012  1.4305 -1.1581
  958MOL0     H26421   1.344   1.484   6.186  1.3228  2.6317 -0.8752
  958MOL0     H26422   1.203   1.432   5.949  0.6467 -0.6954 -1.3484
  958MOL0     H26423   1.097   1.362   6.064 -2.6244  0.1515 -2.4110
  958MOL0     H26424   0.974   1.291   5.878  0.3684  0.2566 -0.1022
  958MOL0     H26425   1.086   1.156   5.892 -1.4879 -1.8932  1.4261
  958MOL0     H26426   1.240   1.266   5.730  0.3416 -1.0128 -1.4097
  958MOL0     H26427   1.139   1.412   5.734 -1.9919  1.1005 -0.9229
  958MOL0     H26428   1.089   1.250   5.536  0.8735 -0.9575 -0.0769
  958MOL0     H26429   1.046   1.130   5.655  0.8014  0.8900  0.8658
  958MOL0     H26430   0.898   1.388   5.659 -0.0016 -0.4544 -0.0472
  958MOL0     H26431   0.845   1.238   5.716  0.1170  0.2939  0.8696
  958MOL0     H26432   0.829   1.137   5.497 -0.3571  0.2571 -0.5296
  958MOL0     H26433   0.891   1.290   5.419  0.5628  1.1033  1.2802
  958MOL0     H26434   0.645   1.244   5.577  4.6925 -2.1612  1.3166
  958MOL0     H26435   0.677   1.400   5.504  2.3368 -0.0561 -0.0046
  958MOL0     H26436   0.502   1.247   5.376 -0.6013 -3.9250  2.1983
  958MOL0     H26437   0.622   1.129   5.345 -1.2264  0.0475 -0.1967
  958MOL0     H26438   1.465   1.186   5.904 -0.1905  0.3103 -0.7403
  958MOL0     H26439   1.677   1.295   5.870 -0.2215  1.5260 -2.1695
  958MOL0     H26440   2.022   1.431   6.008  2.3114 -0.0482  1.0331
  958MOL0     H26441   2.248   1.484   5.958  0.9882  1.3089  2.5995
  958MOL0     H26442   3.624   2.186   6.975 -1.9884  1.2528 -0.5125
  958MOL0     H26443   3.797   2.278   7.110 -0.2611  0.7624  1.2263
  958MOL0     H26444   3.819   2.489   7.694 -0.6117 -1.6070 -0.3515
  958MOL0     H26445   3.999   2.628   7.753 -0.4188 -1.4899  0.8594
  958MOL0     H26446   4.130   2.816   7.696  0.8065  0.7481 -0.0876
  958MOL0     H26447   4.279   2.857   7.631 -1.6600  0.6134 -0.3809
  958MOL0     H26448   4.235   2.697   7.891  0.3025  3.5563  3.1583
  958MOL0     H26449   4.397   2.742   7.826 -0.1094 -1.9341 -2.3831
  958MOL0     H26450   4.318   2.899   8.001  0.8397 -1.4686 -0.1690
  958MOL0     H26451   4.154   2.902   7.936  0.1138 -2.2624  2.6710
  958MOL0     H26452   4.233   3.041   7.747  1.0235 -2.7101 -1.1537
  958MOL0     H26453   4.262   3.121   7.897  0.1070 -0.4456 -0.4754
  958MOL0     H26454   4.666   3.035   7.783 -0.7958 -1.6679  0.6981
  958MOL0     H26455   4.237   2.498   7.420 -2.0573  4.5218 -0.9133
  958MOL0     H26456   4.061   2.339   7.365  1.9473  1.5050 -1.0664
  959MOL0     O26457   2.614  11.299   8.930 -0.2478 -0.0883 -0.7951
  959MOL0     C26458   2.658  11.244   8.830  1.4248 -0.1317  0.1978
  959MOL0     O26459   2.780  11.197   8.813 -0.0636  0.2956 -0.2695
  959MOL0     C26460   2.852  11.185   8.929 -0.1513 -0.1916 -0.0596
  959MOL0     C26461   2.807  11.107   9.036  0.6148  0.0151  0.1585
  959MOL0     C26462   2.888  11.104   9.156 -0.3594 -0.6017  0.2690
  959MOL0     C26463   3.020  11.155   9.151  0.4687  0.1420  0.0838
  959MOL0     O26464   3.094  11.117   9.260  0.0422 -0.9086  0.6488
  959MOL0     C26465   3.231  11.076   9.220 -0.6370  0.5691  0.4266
  959MOL0     C26466   3.278  10.951   9.293 -0.4388 -0.7298 -0.7250
  959MOL0     C26467   3.221  10.813   9.274 -0.3742  0.5292  0.5489
  959MOL0     C26468   3.075  10.818   9.249 -0.3280 -0.0413 -0.3508
  959MOL0     C26469   3.000  10.677   9.278  0.4601 -0.6557  1.1485
  959MOL0     C26470   3.073  10.564   9.196  0.4137  0.9732 -0.2825
  959MOL0     C26471   2.990  10.444   9.153 -0.8247  0.6631  0.2589
  959MOL0     C26472   2.872  10.409   9.237 -0.7982 -0.2364  0.3159
  959MOL0     N26473   2.805  10.282   9.191  1.1905 -0.1586  0.6428
  959MOL0     C26474   2.861  10.159   9.193  0.4086 -0.8069 -0.3271
  959MOL0     C26475   2.788  10.087   9.093  0.3638 -1.4218  0.0386
  959MOL0     C26476   2.798   9.949   9.039  0.2589  0.2653  0.7891
  959MOL0     C26477   2.944   9.910   9.013  0.4902  0.2283  0.3446
  959MOL0     C26478   2.975   9.756   9.002  0.5513  0.0750  1.0027
  959MOL0     C26479   2.918   9.685   8.873 -0.0038 -0.2912  0.4336
  959MOL0     O26480   2.999   9.697   8.752  1.3514 -0.5727  0.4375
  959MOL0     C26481   3.092   9.599   8.712  0.1031 -0.0528  0.2860
  959MOL0     C26482   3.116   9.580   8.574 -0.9221 -0.2695  0.1366
  959MOL0     C26483   3.216   9.486   8.539 -0.0975  0.3922  0.2583
  959MOL0     C26484   3.262   9.391   8.628  0.9696  0.1990 -0.9509
  959MOL0     C26485   3.345   9.272   8.591 -0.5145  0.6329 -0.5002
  959MOL0     O26486   3.342   9.166   8.684  0.4342 -0.4678 -0.0065
  959MOL0     C26487   3.450   9.082   8.695  0.2558 -0.5835  0.8409
  959MOL0     C26488   3.419   8.954   8.751  0.1345 -0.5439 -0.5292
  959MOL0     C26489   3.520   8.864   8.763  0.0273 -0.3143 -0.0259
  959MOL0     C26490   3.656   8.896   8.750 -0.2979  0.7932  0.5388
  959MOL0     O26491   3.767   8.821   8.776 -0.0983  0.7327  0.4110
  959MOL0     C26492   3.742   8.678   8.808 -1.1911 -0.4832  0.8312
  959MOL0     C26493   3.763   8.597   8.683  0.3227  0.2970 -0.2167
  959MOL0     C26494   3.730   8.446   8.697  0.6954  0.0151 -0.1269
  959MOL0     C26495   3.747   8.364   8.565  0.3264  0.5916 -0.2473
  959MOL0     C26496   3.706   8.215   8.594  0.3183 -0.4246  0.5773
  959MOL0     C26497   3.729   8.122   8.473  0.0603 -0.1384  0.1468
  959MOL0     C26498   3.879   8.114   8.430  0.6145 -0.7111  0.3133
  959MOL0     C26499   3.943   7.986   8.466 -0.5792  0.2495 -0.1831
  959MOL0    Cl26500   4.098   7.987   8.365 -0.4714 -0.6057  0.0613
  959MOL0     C26501   3.688   9.027   8.698 -0.2061  0.2591 -0.7327
  959MOL0     C26502   3.581   9.119   8.675  1.1281 -0.3723 -0.3347
  959MOL0     O26503   3.422   9.280   8.493  0.1605  0.0734 -0.1431
  959MOL0     C26504   3.221   9.407   8.764  0.2404  0.5656  0.2961
  959MOL0     C26505   3.141   9.509   8.800  0.1848 -0.2693 -0.9629
  959MOL0     N26506   2.692  10.177   9.045  0.5483  0.5741  1.4145
  959MOL0     N26507   2.700  10.287   9.103 -0.2470 -0.0490 -0.6356
  959MOL0     C26508   3.061  11.226   9.038  0.3784  1.4959 -0.8181
  959MOL0     C26509   2.982  11.236   8.929 -0.2883 -0.6838 -0.7460
  959MOL0     C26510   2.573  11.222   8.711  0.6024  0.1666 -0.3254
  959MOL0     C26511   2.627  11.203   8.579  0.7112 -0.5055  0.5406
  959MOL0     C26512   2.539  11.205   8.470 -0.0908 -0.4814 -0.8245
  959MOL0     C26513   2.405  11.242   8.489  0.1865  0.8147  0.4200
  959MOL0     O26514   2.319  11.270   8.378 -1.1493  0.2661  0.1252
  959MOL0     C26515   2.352  11.379   8.298 -0.0746  0.8286  0.3619
  959MOL0     C26516   2.311  11.505   8.366  0.7980 -0.3698  0.3128
  959MOL0     C26517   2.406  11.563   8.478  0.4606  0.3164 -0.8037
  959MOL0     C26518   2.431  11.715   8.471  0.2304  0.4214  0.6080
  959MOL0     C26519   2.534  11.756   8.368  0.5501  1.2527  0.3281
  959MOL0     C26520   2.607  11.780   8.274 -0.1395  0.4080  0.4797
  959MOL0     C26521   2.353  11.245   8.620  1.3382  0.8521  0.5550
  959MOL0     C26522   2.432  11.231   8.725 -1.1977  0.4051  0.6454
  959MOL0     H26523   2.717  11.047   9.045  2.5408 -2.9665  0.7952
  959MOL0     H26524   2.857  11.056   9.248  3.3606 -1.5625  1.1854
  959MOL0     H26525   3.304  11.154   9.244 -0.9080  1.3019 -1.0363
  959MOL0     H26526   3.242  11.049   9.115  3.3398  1.0946  0.5739
  959MOL0     H26527   3.269  10.978   9.399  0.7592 -1.2275 -0.4810
  959MOL0     H26528   3.385  10.944   9.271 -0.3962 -0.3056 -0.6667
  959MOL0     H26529   3.245  10.769   9.370  3.1650  0.3933 -0.2559
  959MOL0     H26530   3.266  10.744   9.202 -3.7135 -2.7840  1.3243
  959MOL0     H26531   3.044  10.896   9.320 -1.8657  2.1011 -3.1506
  959MOL0     H26532   3.046  10.848   9.148 -1.9072 -1.3518 -0.3337
  959MOL0     H26533   2.893  10.695   9.266  0.2344 -2.4336  0.1629
  959MOL0     H26534   3.006  10.658   9.386  1.5146 -1.5461  0.9498
  959MOL0     H26535   3.150  10.523   9.262 -2.0688 -0.6328  1.7921
  959MOL0     H26536   3.118  10.613   9.109  1.7265 -0.4971 -0.4757
  959MOL0     H26537   2.953  10.466   9.052 -0.7064 -2.5060 -0.5650
  959MOL0     H26538   3.055  10.357   9.148 -0.1075  1.1446  1.0605
  959MOL0     H26539   2.800  10.490   9.249 -1.2762 -0.4414 -0.9947
  959MOL0     H26540   2.916  10.401   9.337  2.0643  3.0541 -0.4395
  959MOL0     H26541   2.941  10.128   9.259  1.9417  2.7374 -0.2767
  959MOL0     H26542   2.741   9.940   8.946  0.1677  0.2786  0.8436
  959MOL0     H26543   2.772   9.886   9.124  3.9181  3.1900  4.5523
  959MOL0     H26544   3.004   9.958   9.091 -2.1935  3.7736  0.4705
  959MOL0     H26545   2.974   9.962   8.921  1.0287 -1.2962 -0.3769
  959MOL0     H26546   3.083   9.745   8.993  0.5939  1.7751 -2.2087
  959MOL0     H26547   2.940   9.710   9.095 -1.0101 -0.5982  0.1201
  959MOL0     H26548   2.816   9.717   8.853 -0.0846 -1.2580 -0.8419
  959MOL0     H26549   2.905   9.578   8.890  1.5848 -0.5844  0.0183
  959MOL0     H26550   3.066   9.641   8.499 -2.6313 -0.6537  0.9173
  959MOL0     H26551   3.248   9.467   8.437  0.4311  0.4999  0.3980
  959MOL0     H26552   3.318   8.920   8.770 -0.1403 -0.6478 -2.0654
  959MOL0     H26553   3.493   8.762   8.791  0.6905 -0.5989 -0.4167
  959MOL0     H26554   3.640   8.660   8.842 -2.5460  1.5206 -1.7836
  959MOL0     H26555   3.814   8.636   8.879 -1.1204 -0.2141  0.9228
  959MOL0     H26556   3.867   8.618   8.658  1.3938  0.3665  3.6591
  959MOL0     H26557   3.691   8.630   8.608 -1.3072 -0.2004  1.0475
  959MOL0     H26558   3.628   8.431   8.732  0.5857  1.9265  0.5011
  959MOL0     H26559   3.796   8.396   8.768  2.0382  0.6593 -0.8714
  959MOL0     H26560   3.692   8.416   8.486 -0.7443  0.7211  0.5624
  959MOL0     H26561   3.855   8.366   8.546  0.5157 -0.9887  0.4694
  959MOL0     H26562   3.606   8.207   8.637 -0.0049  0.5743  0.0505
  959MOL0     H26563   3.763   8.172   8.677  0.7550 -0.3866  0.3057
  959MOL0     H26564   3.660   8.148   8.392  0.4035 -1.6901 -0.6785
  959MOL0     H26565   3.706   8.022   8.511  1.6562 -2.0874 -3.4650
  959MOL0     H26566   3.884   8.106   8.321 -0.5377 -2.5102  0.3490
  959MOL0     H26567   3.941   8.202   8.451 -1.2035  0.8898 -0.6835
  959MOL0     H26568   3.882   7.904   8.428 -0.7298 -0.6359  1.8597
  959MOL0     H26569   3.963   7.988   8.574 -1.8749  0.9731  0.0651
  959MOL0     H26570   3.785   9.069   8.674 -1.0943  3.6610  0.9810
  959MOL0     H26571   3.604   9.217   8.634  3.0644 -1.3232 -1.6819
  959MOL0     H26572   3.255   9.354   8.853  1.5206  0.8038 -0.0321
  959MOL0     H26573   3.118   9.517   8.906  0.2336  2.1616 -1.0949
  959MOL0     H26574   3.167  11.247   9.023  0.8390  0.7798  1.1083
  959MOL0     H26575   3.034  11.291   8.851  1.2283  0.4157  0.9551
  959MOL0     H26576   2.730  11.169   8.576  0.3834 -1.4700 -0.7490
  959MOL0     H26577   2.575  11.188   8.369  0.9749 -0.3631 -0.4720
  959MOL0     H26578   2.301  11.371   8.202  1.2219  2.2981 -0.5003
  959MOL0     H26579   2.459  11.381   8.273  0.3671  1.2394  2.0979
  959MOL0     H26580   2.304  11.580   8.287  1.8421  0.6270  1.1149
  959MOL0     H26581   2.213  11.483   8.409 -0.4524  0.7817 -1.7795
  959MOL0     H26582   2.498  11.504   8.484  0.0298 -0.2419  2.7612
  959MOL0     H26583   2.366  11.546   8.579  2.3408 -0.0191 -0.0747
  959MOL0     H26584   2.335  11.764   8.454 -1.6495 -3.3817 -0.8511
  959MOL0     H26585   2.479  11.748   8.564  2.4614 -1.4765  0.2080
  959MOL0     H26586   2.675  11.791   8.193 -0.3890 -2.8415 -0.2844
  959MOL0     H26587   2.247  11.260   8.638  1.7704  2.4896  1.9590
  959MOL0     H26588   2.386  11.220   8.822  0.2052  0.0443  1.3019
  960MOL0     O26589  11.003   8.686   1.724 -0.9376 -0.2748  0.7119
  960MOL0     C26590  11.005   8.727   1.606 -0.5152 -0.6618  0.3091
  960MOL0     O26591  10.957   8.655   1.499 -0.1161  0.0722 -0.3025
  960MOL0     C26592  10.927   8.519   1.514 -0.1891  0.2715 -0.7170
  960MOL0     C26593  11.016   8.426   1.559 -0.1404 -0.2601 -1.5646
  960MOL0     C26594  10.999   8.292   1.517  0.3466 -0.5072  0.4579
  960MOL0     C26595  10.877   8.245   1.465  0.6609 -0.2689  0.7853
  960MOL0     O26596  10.853   8.116   1.441  0.3724 -0.0199 -0.2739
  960MOL0     C26597  10.941   8.011   1.502  0.1226 -0.1837  0.1401
  960MOL0     C26598  10.878   7.884   1.449  0.0122 -0.1094 -0.0055
  960MOL0     C26599  10.920   7.870   1.300 -0.7386 -0.4774 -0.1997
  960MOL0     C26600  10.855   7.745   1.258 -0.2709 -0.2809 -1.0796
  960MOL0     C26601  10.870   7.744   1.111 -0.4583  1.0658  0.6461
  960MOL0     C26602  10.807   7.612   1.055 -0.9130 -0.5895 -0.0776
  960MOL0     C26603  10.653   7.615   1.049  0.9185 -0.6713 -0.2043
  960MOL0     C26604  10.603   7.666   0.918 -0.3939  0.3223  0.4065
  960MOL0     N26605  10.595   7.551   0.829  0.4906  0.2797  0.2596
  960MOL0     C26606  10.492   7.465   0.824 -0.5418  0.5660  0.0060
  960MOL0     C26607  10.530   7.368   0.741  0.6278 -0.0904  0.0289
  960MOL0     C26608  10.447   7.231   0.712  0.6997  0.2403 -0.0551
  960MOL0     C26609  10.350   7.255   0.589 -0.3495  0.5133 -0.0269
  960MOL0     C26610  10.401   7.287   0.450  0.0647  0.7760  0.0705
  960MOL0     C26611  10.305   7.254   0.340  0.4214  0.6113 -0.6409
  960MOL0     O26612  10.326   7.305   0.214 -0.2134  0.1424  0.7566
  960MOL0     C26613  10.222   7.303   0.123 -0.7611  0.8481 -0.0652
  960MOL0     C26614  10.101   7.243   0.146  0.0944  0.5183  1.0497
  960MOL0     C26615   9.997   7.254   0.050  0.2369 -0.6295  0.2469
  960MOL0     C26616  10.021   7.351  -0.062  0.8873 -1.2517 -0.0972
  960MOL0     C26617   9.909   7.396  -0.150  0.1537 -0.3623 -0.4222
  960MOL0     O26618   9.944   7.476  -0.257 -0.1679  0.6572  0.2766
  960MOL0     C26619   9.838   7.526  -0.339 -1.1133  0.0044  0.6009
  960MOL0     C26620   9.765   7.456  -0.439 -0.5458 -0.3102 -0.7575
  960MOL0     C26621   9.678   7.529  -0.524  0.0195  0.6282 -0.2258
  960MOL0     C26622   9.657   7.668  -0.503  0.1529  0.7864 -0.5560
  960MOL0     O26623   9.567   7.735  -0.572 -0.5411  0.5694 -0.2129
  960MOL0     C26624   9.451   7.776  -0.501  0.2863  0.9244  0.1924
  960MOL0     C26625   9.368   7.662  -0.444 -0.0267  0.2122  0.3234
  960MOL0     C26626   9.298   7.574  -0.552  0.5323  0.0917 -0.0582
  960MOL0     C26627   9.166   7.511  -0.509  0.0340  0.0045  0.3731
  960MOL0     C26628   9.118   7.403  -0.603  0.2087 -0.5610  0.0024
  960MOL0     C26629   8.991   7.350  -0.538 -0.3101 -0.7970  0.7848
  960MOL0     C26630   8.951   7.229  -0.622 -0.1186 -0.7167 -0.8251
  960MOL0     C26631   8.837   7.160  -0.552  0.0050  0.3154  0.4155
  960MOL0    Cl26632   8.763   7.053  -0.678 -0.0168 -0.3600 -0.0264
  960MOL0     C26633   9.719   7.733  -0.391  0.2742 -0.3465 -0.3984
  960MOL0     C26634   9.800   7.659  -0.305  0.4304 -0.3463  0.0079
  960MOL0     O26635   9.796   7.382  -0.115 -0.1282  0.6131 -0.1037
  960MOL0     C26636  10.147   7.404  -0.081  0.6761 -0.1222  0.3341
  960MOL0     C26637  10.251   7.377   0.010  0.2686  0.4286  0.2783
  960MOL0     N26638  10.654   7.398   0.695  1.2028 -0.4208  0.3627
  960MOL0     N26639  10.694   7.503   0.750  0.4389  0.3919  0.1511
  960MOL0     C26640  10.788   8.340   1.430  0.0055  0.4503  0.3773
  960MOL0     C26641  10.805   8.477   1.457  0.1781  0.4051  0.0875
  960MOL0     C26642  11.058   8.870   1.587  0.9142  0.1535 -0.3840
  960MOL0     C26643  11.067   8.964   1.688  0.4440  0.3354  0.5423
  960MOL0     C26644  11.113   9.091   1.653  0.4058 -0.3977  0.5653
  960MOL0     C26645  11.123   9.138   1.519  0.0864 -0.5568 -0.6940
  960MOL0     O26646  11.152   9.271   1.504  1.1914  0.2146 -0.3556
  960MOL0     C26647  11.095   9.352   1.395 -0.2565 -0.5180 -0.7281
  960MOL0     C26648  11.183   9.480   1.393  0.0311  0.2969  0.8536
  960MOL0     C26649  11.192   9.540   1.251 -0.0893  0.3235  0.1976
  960MOL0     C26650  11.310   9.633   1.225  0.8880  0.7395  0.3496
  960MOL0     C26651  11.286   9.697   1.094  0.1582  0.2393  0.2343
  960MOL0     C26652  11.260   9.738   0.982 -0.2376 -0.8539 -0.1893
  960MOL0     C26653  11.116   9.048   1.422  0.0615 -1.3033 -0.2712
  960MOL0     C26654  11.071   8.918   1.454  0.2906 -0.0241 -1.1516
  960MOL0     H26655  11.115   8.454   1.596  0.4354 -0.5265 -2.8616
  960MOL0     H26656  11.082   8.223   1.526  0.9840  0.1216 -0.3630
  960MOL0     H26657  10.941   8.018   1.611  0.2587 -1.0094  0.1992
  960MOL0     H26658  11.045   8.013   1.467  0.8976 -2.2172  2.0960
  960MOL0     H26659  10.770   7.903   1.457 -0.0551  0.9130 -2.4951
  960MOL0     H26660  10.902   7.797   1.510 -1.6511  0.2814  1.2928
  960MOL0     H26661  11.028   7.857   1.285 -0.6958 -2.2632  1.2802
  960MOL0     H26662  10.895   7.957   1.239  1.2724  0.5137  0.2723
  960MOL0     H26663  10.911   7.663   1.304  0.5102  1.0125  0.3229
  960MOL0     H26664  10.749   7.740   1.286 -1.2954  2.0556 -3.9865
  960MOL0     H26665  10.974   7.743   1.077 -0.2942  2.6829  1.0243
  960MOL0     H26666  10.828   7.835   1.069  2.3614  1.6324 -1.1835
  960MOL0     H26667  10.845   7.523   1.106  1.9014  1.2683  1.3830
  960MOL0     H26668  10.838   7.608   0.950 -1.4394  2.5769 -0.4590
  960MOL0     H26669  10.615   7.516   1.078  1.4686 -1.0070 -0.6100
  960MOL0     H26670  10.615   7.682   1.126 -0.5395 -1.4297 -0.2253
  960MOL0     H26671  10.668   7.744   0.877 -0.5099 -0.8103 -2.0987
  960MOL0     H26672  10.500   7.702   0.916 -0.2499  0.7914  1.0208
  960MOL0     H26673  10.404   7.476   0.887 -0.0314 -0.5246  0.9490
  960MOL0     H26674  10.384   7.221   0.800  0.0631 -1.1908 -0.6511
  960MOL0     H26675  10.520   7.154   0.687  0.6124  1.6571 -6.6858
  960MOL0     H26676  10.291   7.343   0.615  0.8575  1.3674 -0.0971
  960MOL0     H26677  10.282   7.169   0.585 -0.5764  0.6781  0.2980
  960MOL0     H26678  10.419   7.395   0.444  2.0003  0.4562 -4.5455
  960MOL0     H26679  10.498   7.238   0.439 -0.0566  0.4229  0.5607
  960MOL0     H26680  10.210   7.280   0.386 -0.1620 -1.1890 -0.7739
  960MOL0     H26681  10.324   7.147   0.325 -2.5655 -0.1036  0.1491
  960MOL0     H26682  10.075   7.192   0.238  1.1348 -0.4112  0.8446
  960MOL0     H26683   9.897   7.218   0.073  0.3457 -0.4797  0.9970
  960MOL0     H26684   9.808   7.358  -0.461  1.9323  0.3102  0.8502
  960MOL0     H26685   9.631   7.483  -0.610 -1.8469  1.0347  0.5101
  960MOL0     H26686   9.396   7.837  -0.574 -1.7336  1.1972  1.8714
  960MOL0     H26687   9.481   7.833  -0.413  1.0217 -2.5113  2.3931
  960MOL0     H26688   9.278   7.699  -0.394  0.0498 -2.1686  2.4864
  960MOL0     H26689   9.419   7.602  -0.367 -1.8637 -2.4711 -0.4053
  960MOL0     H26690   9.374   7.497  -0.568  1.3617  1.1029 -1.2160
  960MOL0     H26691   9.280   7.639  -0.638 -1.4404  3.4318  2.6352
  960MOL0     H26692   9.191   7.452  -0.420 -1.8737 -1.2189  0.1678
  960MOL0     H26693   9.097   7.595  -0.493 -2.8648 -2.3483  1.2259
  960MOL0     H26694   9.196   7.327  -0.607 -3.2962 -4.4482 -2.7731
  960MOL0     H26695   9.102   7.437  -0.706  2.4711 -1.2220 -0.6385
  960MOL0     H26696   8.917   7.430  -0.536  2.0024  1.4729  1.5852
  960MOL0     H26697   9.022   7.322  -0.437 -1.9269 -0.0106  1.5304
  960MOL0     H26698   8.915   7.271  -0.717 -2.4592  2.2326  1.1826
  960MOL0     H26699   9.038   7.164  -0.636 -1.6240 -2.6199 -1.7922
  960MOL0     H26700   8.759   7.218  -0.502  0.5601  1.8100 -0.3944
  960MOL0     H26701   8.867   7.099  -0.466 -0.4125 -3.0887 -1.6595
  960MOL0     H26702   9.689   7.836  -0.379  2.4462  1.1513 -5.5148
  960MOL0     H26703   9.840   7.706  -0.216  0.4696 -0.2795 -0.0454
  960MOL0     H26704  10.159   7.475  -0.162 -2.0277 -1.8926 -1.8228
  960MOL0     H26705  10.347   7.424  -0.006  0.4333 -0.1552 -0.5391
  960MOL0     H26706  10.688   8.307   1.402  1.0826 -2.7081 -0.0297
  960MOL0     H26707  10.729   8.550   1.436  1.8691  1.8135 -1.4150
  960MOL0     H26708  11.051   8.943   1.793 -3.5688 -1.0183 -0.1840
  960MOL0     H26709  11.138   9.163   1.730 -2.8706 -0.7298  2.1149
  960MOL0     H26710  10.991   9.386   1.391 -0.1359 -0.0826 -0.3078
  960MOL0     H26711  11.102   9.289   1.306  2.1245 -0.7103 -0.4828
  960MOL0     H26712  11.142   9.546   1.470 -0.8896 -0.4327  1.0076
  960MOL0     H26713  11.284   9.444   1.411 -0.0702 -1.9351 -2.0990
  960MOL0     H26714  11.097   9.588   1.225 -0.7870 -0.9427  0.2937
  960MOL0     H26715  11.214   9.460   1.179 -0.0874  0.0874  0.4576
  960MOL0     H26716  11.309   9.710   1.302  0.7818  1.4001 -0.2947
  960MOL0     H26717  11.409   9.588   1.236  0.4562 -0.4436 -0.3888
  960MOL0     H26718  11.250   9.772   0.881 -0.7577 -1.4917 -0.3653
  960MOL0     H26719  11.129   9.070   1.316  1.2881 -2.1854 -0.3338
  960MOL0     H26720  11.069   8.844   1.375  2.1028 -2.0929  0.5925
  961MOL0     O26721   1.275   6.508   0.899  0.4636 -0.0828 -0.9498
  961MOL0     C26722   1.278   6.481   1.017  0.2774  1.2201 -0.3971
  961MOL0     O26723   1.370   6.502   1.105 -0.5724 -0.9076 -0.1237
  961MOL0     C26724   1.494   6.559   1.084  0.3334 -0.2664  0.0763
  961MOL0     C26725   1.551   6.617   0.964  1.0493 -0.3213 -1.1357
  961MOL0     C26726   1.680   6.676   0.971 -0.2816  0.7387  0.3897
  961MOL0     C26727   1.746   6.682   1.094 -0.5685 -0.3815 -0.0534
  961MOL0     O26728   1.876   6.735   1.101  0.3828 -0.7013 -0.0290
  961MOL0     C26729   1.883   6.844   1.186  0.6565 -0.7377 -0.3101
  961MOL0     C26730   1.813   6.969   1.129 -0.3370  0.0530  0.0539
  961MOL0     C26731   1.857   7.102   1.201 -0.0892 -0.9974 -0.5541
  961MOL0     C26732   1.795   7.232   1.138 -0.4620  0.4089  0.5960
  961MOL0     C26733   1.847   7.372   1.193  0.3820 -0.1661  0.9917
  961MOL0     C26734   1.783   7.488   1.103  0.1045  0.6645 -0.7093
  961MOL0     C26735   1.848   7.618   1.142  0.5312  0.8753 -0.6333
  961MOL0     C26736   1.798   7.689   1.269 -1.1262  0.1652 -0.4024
  961MOL0     N26737   1.898   7.780   1.326 -0.0725 -0.5375 -0.4354
  961MOL0     C26738   1.892   7.914   1.330  0.0346 -0.7388  0.2086
  961MOL0     C26739   2.021   7.953   1.363 -0.3042 -0.2514 -0.9792
  961MOL0     C26740   2.063   8.099   1.371  0.2886  0.3054  1.1023
  961MOL0     C26741   2.148   8.131   1.241 -0.8945 -0.4721 -0.4120
  961MOL0     C26742   2.184   8.277   1.249 -0.2719  0.1305  0.0061
  961MOL0     C26743   2.205   8.339   1.110 -0.4214 -0.4434  0.3121
  961MOL0     O26744   2.256   8.471   1.138  0.7107  0.0701  0.1999
  961MOL0     C26745   2.393   8.496   1.118  0.5946 -0.9234 -0.3269
  961MOL0     C26746   2.424   8.624   1.151  0.6044 -0.8186 -0.3110
  961MOL0     C26747   2.547   8.687   1.136  0.6074 -0.0730 -0.2367
  961MOL0     C26748   2.658   8.609   1.082  0.0538 -0.3859 -0.2226
  961MOL0     C26749   2.793   8.673   1.080 -0.6107 -0.2836  1.0308
  961MOL0     O26750   2.828   8.774   1.174  0.2195  0.4663  0.6294
  961MOL0     C26751   2.909   8.882   1.120 -0.5398  1.1941  0.2452
  961MOL0     C26752   2.859   8.981   1.052  0.6804 -0.0379  0.7358
  961MOL0     C26753   2.934   9.090   0.998  0.4837 -0.3836 -0.0833
  961MOL0     C26754   3.071   9.096   1.021  1.2205  0.9543 -0.8334
  961MOL0     O26755   3.151   9.199   0.979  0.2986 -0.3122 -0.0881
  961MOL0     C26756   3.087   9.315   0.932 -0.7637 -0.6144 -0.1841
  961MOL0     C26757   3.190   9.434   0.915 -0.2497  0.3216  0.2563
  961MOL0     C26758   3.129   9.572   0.923 -0.9230  0.2760  0.7481
  961MOL0     C26759   3.237   9.680   0.903 -0.3957  0.2129  0.1242
  961MOL0     C26760   3.177   9.820   0.912 -0.5150  0.0894  0.3618
  961MOL0     C26761   3.064   9.843   0.806 -0.7594  0.6962  0.1922
  961MOL0     C26762   3.096   9.806   0.663  0.0466  0.3425 -0.7013
  961MOL0     C26763   2.991   9.866   0.571 -0.3488 -0.7385  0.0701
  961MOL0    Cl26764   3.053   9.842   0.404 -0.2777 -0.0936  0.1182
  961MOL0     C26765   3.116   9.002   1.104 -0.4614  1.2555 -0.2309
  961MOL0     C26766   3.042   8.889   1.147 -0.3546 -1.4828 -0.1980
  961MOL0     O26767   2.863   8.645   0.982  0.3789  0.1969  0.5998
  961MOL0     C26768   2.635   8.473   1.045 -0.3066  0.3588  0.3349
  961MOL0     C26769   2.499   8.419   1.054  0.4602 -0.4224 -0.3752
  961MOL0     N26770   2.092   7.833   1.388  0.0191  0.3972 -0.2196
  961MOL0     N26771   2.017   7.729   1.355  0.1990  0.5775  0.0343
  961MOL0     C26772   1.695   6.606   1.194 -0.1513 -0.4834 -0.3275
  961MOL0     C26773   1.571   6.556   1.192  0.2120 -0.0642 -1.3146
  961MOL0     C26774   1.157   6.413   1.066 -1.4131 -0.5248 -0.0929
  961MOL0     C26775   1.132   6.409   1.208  0.4857 -0.5519 -0.4469
  961MOL0     C26776   1.023   6.337   1.255 -0.1672  0.1984 -0.3310
  961MOL0     C26777   0.953   6.255   1.168  0.2109  0.1985  0.0453
  961MOL0     O26778   0.860   6.163   1.212 -0.3457  0.6890 -0.1174
  961MOL0     C26779   0.919   6.030   1.240 -0.4959 -0.8462  1.0554
  961MOL0     C26780   0.899   5.921   1.127  0.2845 -0.0415  0.1106
  961MOL0     C26781   0.987   5.800   1.164 -1.1461 -1.1951  0.4606
  961MOL0     C26782   1.141   5.827   1.132 -0.8057 -0.6910 -0.8096
  961MOL0     C26783   1.160   5.788   1.001 -0.0180  0.0849 -0.1444
  961MOL0     C26784   1.187   5.769   0.882  0.4036 -0.4257  0.3878
  961MOL0     C26785   0.984   6.244   1.027  0.4787 -0.3968 -0.0531
  961MOL0     C26786   1.090   6.324   0.980 -0.2821  0.2030 -0.2275
  961MOL0     H26787   1.495   6.623   0.871 -0.9347 -0.6694 -0.0173
  961MOL0     H26788   1.718   6.726   0.882 -0.6727 -0.8125 -0.6828
  961MOL0     H26789   1.985   6.870   1.217  0.3389 -1.3607  1.3426
  961MOL0     H26790   1.822   6.819   1.273 -0.0063 -1.2356 -0.9025
  961MOL0     H26791   1.707   6.956   1.106 -0.2998 -1.8413  0.7992
  961MOL0     H26792   1.853   6.999   1.031 -1.4567  2.3771  0.2536
  961MOL0     H26793   1.966   7.107   1.204 -0.0260 -0.4567 -2.6200
  961MOL0     H26794   1.821   7.104   1.305  1.0226 -3.2124 -0.0641
  961MOL0     H26795   1.808   7.228   1.030  1.3858 -1.6736  0.8187
  961MOL0     H26796   1.687   7.222   1.142 -0.8696  2.1837 -2.4692
  961MOL0     H26797   1.955   7.360   1.189  0.1369 -4.1696 -3.6565
  961MOL0     H26798   1.818   7.388   1.297  2.1744  1.4911  1.2912
  961MOL0     H26799   1.675   7.480   1.118  0.0589  2.4411  0.0561
  961MOL0     H26800   1.795   7.459   0.998 -4.3876 -2.6679 -0.6054
  961MOL0     H26801   1.951   7.583   1.151  0.1634 -0.6623 -1.9872
  961MOL0     H26802   1.856   7.684   1.055  2.2473 -0.7919 -1.8212
  961MOL0     H26803   1.782   7.610   1.344 -0.4681  0.3004 -0.1083
  961MOL0     H26804   1.703   7.741   1.259 -1.2642 -0.4770 -3.2887
  961MOL0     H26805   1.811   7.985   1.315  2.0447  1.1386 -3.0378
  961MOL0     H26806   2.110   8.115   1.469 -1.0800 -3.9651  2.7190
  961MOL0     H26807   1.968   8.153   1.378 -0.1434 -0.2019 -0.3844
  961MOL0     H26808   2.092   8.121   1.148 -1.6071  3.4537 -0.5923
  961MOL0     H26809   2.239   8.071   1.236 -0.4297  0.1983 -0.2082
  961MOL0     H26810   2.115   8.337   1.309 -0.3811 -0.5596  0.5910
  961MOL0     H26811   2.279   8.277   1.303 -0.6350  2.6585  0.8051
  961MOL0     H26812   2.112   8.348   1.052 -0.8847 -1.8740  0.7780
  961MOL0     H26813   2.265   8.283   1.038 -3.5256 -1.3481 -1.7802
  961MOL0     H26814   2.336   8.675   1.189  0.8823  0.9369 -1.8650
  961MOL0     H26815   2.563   8.791   1.161  3.4995 -0.6993  0.8900
  961MOL0     H26816   2.755   8.969   1.022  0.7844  0.0404  0.3369
  961MOL0     H26817   2.884   9.157   0.929  0.9954 -0.9214 -1.0078
  961MOL0     H26818   3.014   9.352   1.004  1.1569 -0.9383  2.0245
  961MOL0     H26819   3.043   9.290   0.835  1.6137  1.3747 -1.9241
  961MOL0     H26820   3.261   9.418   0.833  2.2624 -1.2350  2.5488
  961MOL0     H26821   3.250   9.422   1.006 -1.6863 -2.3445  0.9482
  961MOL0     H26822   3.094   9.582   1.027  0.4703 -1.1995  1.4063
  961MOL0     H26823   3.052   9.582   0.846 -0.5381 -0.3995  0.2656
  961MOL0     H26824   3.313   9.660   0.980  1.1986 -1.6216 -1.7865
  961MOL0     H26825   3.292   9.652   0.812  0.2737 -1.6903  1.0610
  961MOL0     H26826   3.257   9.894   0.901  0.0348 -0.3906  1.0269
  961MOL0     H26827   3.125   9.831   1.008 -0.0149 -1.1568  0.8026
  961MOL0     H26828   3.045   9.951   0.797 -2.4261  0.2819 -2.4398
  961MOL0     H26829   2.973   9.791   0.836 -0.7448 -0.3461 -1.4371
  961MOL0     H26830   3.191   9.849   0.628 -0.4830  3.3397  1.1586
  961MOL0     H26831   3.103   9.697   0.655 -2.4989  0.1521 -0.9955
  961MOL0     H26832   3.000   9.974   0.584  2.2661 -0.8855  0.0643
  961MOL0     H26833   2.894   9.822   0.596  1.0731 -2.0465  4.1518
  961MOL0     H26834   3.224   8.996   1.118 -0.8989 -2.0702  3.9439
  961MOL0     H26835   3.071   8.804   1.208 -0.4230 -2.1831 -1.1272
  961MOL0     H26836   2.714   8.415   0.998 -0.3238 -1.1324  2.0605
  961MOL0     H26837   2.488   8.317   1.020 -0.4152  0.1731 -1.9606
  961MOL0     H26838   1.756   6.597   1.283 -0.2892  0.2573 -0.1530
  961MOL0     H26839   1.534   6.510   1.283 -0.6833  2.9530 -0.0152
  961MOL0     H26840   1.199   6.461   1.276 -0.0143 -1.4837  0.7961
  961MOL0     H26841   1.011   6.331   1.363  1.0620 -0.5022 -0.2185
  961MOL0     H26842   0.864   5.995   1.328 -0.6300  0.7779  1.6508
  961MOL0     H26843   1.025   6.036   1.265 -0.5868 -1.7533  1.7116
  961MOL0     H26844   0.797   5.884   1.111  0.4553  0.5481 -3.0337
  961MOL0     H26845   0.922   5.960   1.027  1.7838  0.8006  0.7596
  961MOL0     H26846   0.957   5.710   1.110 -1.3962 -0.6270 -0.3693
  961MOL0     H26847   0.977   5.780   1.271 -3.7553  0.4207  0.5978
  961MOL0     H26848   1.170   5.932   1.147  2.2070 -1.5155 -0.1539
  961MOL0     H26849   1.183   5.748   1.194 -0.6481  0.8187  1.0917
  961MOL0     H26850   1.225   5.779   0.782  2.6387 -2.8828  0.9142
  961MOL0     H26851   0.924   6.168   0.978  1.3932 -0.9805 -0.2946
  961MOL0     H26852   1.133   6.312   0.881  2.9286  3.4903  0.5769
  962MOL0     O26853   0.845   5.673   8.535 -0.1569 -0.0195 -0.3496
  962MOL0     C26854   0.935   5.679   8.623 -0.1610  0.0111  0.0708
  962MOL0     O26855   1.024   5.767   8.634 -0.2748  0.3206  0.4391
  962MOL0     C26856   1.014   5.875   8.550  0.9810  0.2636  0.0470
  962MOL0     C26857   0.920   5.971   8.565 -0.8207 -0.5524  0.5222
  962MOL0     C26858   0.918   6.084   8.469 -0.2610  0.9981 -1.3440
  962MOL0     C26859   1.010   6.084   8.360 -0.1571 -0.0783 -0.9042
  962MOL0     O26860   0.993   6.190   8.271 -0.2671  0.1398 -0.0724
  962MOL0     C26861   1.051   6.174   8.138 -1.0102  0.8556 -0.3129
  962MOL0     C26862   1.015   6.300   8.057 -0.5784  0.4507  0.6067
  962MOL0     C26863   1.138   6.363   8.000 -0.7352  0.0099  0.2584
  962MOL0     C26864   1.113   6.497   7.932 -0.0328 -0.6298  0.5206
  962MOL0     C26865   1.236   6.547   7.865 -0.0870 -0.9687 -0.2798
  962MOL0     C26866   1.224   6.688   7.839 -0.2495 -0.2653 -0.2812
  962MOL0     C26867   1.356   6.737   7.785  0.4372  0.0872  0.2048
  962MOL0     C26868   1.353   6.884   7.757 -0.3524 -0.1869  0.1347
  962MOL0     N26869   1.305   6.958   7.872  0.0484 -0.5064  0.9302
  962MOL0     C26870   1.369   6.981   7.987  0.5702 -0.4547 -0.2450
  962MOL0     C26871   1.281   7.060   8.062 -0.1524  0.5573  0.1219
  962MOL0     C26872   1.312   7.123   8.192  0.1834  0.0474 -0.4993
  962MOL0     C26873   1.403   7.247   8.172  0.7011  0.1406 -0.1388
  962MOL0     C26874   1.313   7.371   8.134 -0.2021  0.3365 -0.2806
  962MOL0     C26875   1.398   7.494   8.097 -0.8858 -0.8521 -0.2901
  962MOL0     O26876   1.474   7.476   7.986  0.2162  0.1161  0.0190
  962MOL0     C26877   1.539   7.581   7.923  0.4337  0.5578  0.8524
  962MOL0     C26878   1.593   7.558   7.799  0.3435  0.1283 -0.4315
  962MOL0     C26879   1.655   7.663   7.728  0.1772 -0.6043 -0.6902
  962MOL0     C26880   1.669   7.791   7.780  1.4141 -0.2127 -0.0928
  962MOL0     C26881   1.745   7.894   7.709  0.5077  0.2274 -0.1976
  962MOL0     O26882   1.785   7.882   7.574 -0.0228 -0.0776 -0.4573
  962MOL0     C26883   1.886   7.958   7.541 -0.4725  0.1608 -0.2838
  962MOL0     C26884   1.875   8.097   7.522  0.6836  0.7702  0.5904
  962MOL0     C26885   1.980   8.178   7.479  0.4488  0.1717  1.2431
  962MOL0     C26886   2.102   8.114   7.462 -0.7432  0.9911 -0.2995
  962MOL0     O26887   2.210   8.184   7.426 -0.0171  0.2264 -0.5852
  962MOL0     C26888   2.206   8.322   7.372  0.5161  0.0039 -0.1562
  962MOL0     C26889   2.331   8.353   7.285  0.1581  0.5272  0.4209
  962MOL0     C26890   2.459   8.296   7.356  0.0856  1.4422  0.1657
  962MOL0     C26891   2.585   8.345   7.296 -0.4005  0.0143 -0.7283
  962MOL0     C26892   2.706   8.285   7.374 -0.0620 -0.4380  0.3326
  962MOL0     C26893   2.796   8.222   7.272  0.0038  0.8504  0.2146
  962MOL0     C26894   2.901   8.135   7.333 -1.0489 -0.7631 -0.3338
  962MOL0     C26895   2.985   8.057   7.233 -0.5959 -0.1338  0.0071
  962MOL0    Cl26896   3.112   8.146   7.152 -0.1527 -0.0995  0.1573
  962MOL0     C26897   2.127   7.983   7.502  0.8245 -0.1287  0.4222
  962MOL0     C26898   2.015   7.903   7.532  0.4587  0.0635 -0.2906
  962MOL0     O26899   1.778   7.986   7.785  0.1008 -0.0730 -0.4107
  962MOL0     C26900   1.592   7.828   7.893  0.1779 -0.2024 -0.3968
  962MOL0     C26901   1.530   7.716   7.958 -0.1475  0.4855  0.4961
  962MOL0     N26902   1.172   7.083   7.976 -0.2597  0.5701 -0.5059
  962MOL0     N26903   1.186   7.023   7.862  0.9816  0.7983  0.8293
  962MOL0     C26904   1.108   5.991   8.348  0.9766  0.3115  0.0486
  962MOL0     C26905   1.104   5.885   8.439 -0.4473  1.3779 -0.4738
  962MOL0     C26906   0.941   5.564   8.713  0.3368  0.4474 -0.2881
  962MOL0     C26907   1.048   5.552   8.809 -0.1035 -0.7436  0.6598
  962MOL0     C26908   1.049   5.448   8.899  1.1229  0.3278 -0.6802
  962MOL0     C26909   0.945   5.342   8.895 -0.1767 -1.2659 -0.3368
  962MOL0     O26910   0.943   5.243   8.984  0.1809  0.0463 -0.0600
  962MOL0     C26911   1.066   5.182   9.027 -0.1205 -0.6918 -1.0668
  962MOL0     C26912   1.125   5.088   8.919 -0.0656  0.6305 -0.0899
  962MOL0     C26913   1.264   5.035   8.949 -0.2574 -0.1676  0.0958
  962MOL0     C26914   1.259   4.885   8.956  0.3427  0.0671 -1.0252
  962MOL0     C26915   1.165   4.836   9.056 -0.4476 -0.6116 -0.0629
  962MOL0     C26916   1.101   4.797   9.147 -0.2404  0.3251  0.8501
  962MOL0     C26917   0.848   5.358   8.802  0.4517  0.1637  0.0337
  962MOL0     C26918   0.849   5.462   8.713  0.7522  0.4286 -0.2876
  962MOL0     H26919   0.846   5.958   8.644 -1.2751  1.2883  0.4479
  962MOL0     H26920   0.839   6.156   8.488  1.1056  2.2113  0.0716
  962MOL0     H26921   1.026   6.077   8.095  1.6797 -0.0779  0.0016
  962MOL0     H26922   1.160   6.171   8.144 -0.9375 -0.1051 -1.6967
  962MOL0     H26923   0.955   6.361   8.124 -1.3493 -1.6114  1.8831
  962MOL0     H26924   0.969   6.273   7.961  2.4459  0.1320 -0.8879
  962MOL0     H26925   1.181   6.300   7.922  0.7941  0.6785  0.5220
  962MOL0     H26926   1.220   6.357   8.072 -0.6045 -0.5492  0.0696
  962MOL0     H26927   1.043   6.494   7.848  1.1949  1.2649 -0.6434
  962MOL0     H26928   1.081   6.562   8.014  2.2294 -1.4485  2.1272
  962MOL0     H26929   1.268   6.503   7.770  1.9972  1.1209 -0.6242
  962MOL0     H26930   1.316   6.535   7.938 -1.9443 -0.6789  1.9236
  962MOL0     H26931   1.205   6.735   7.936 -2.9447 -0.9162 -0.4016
  962MOL0     H26932   1.135   6.717   7.783  1.0254  0.0096 -2.2565
  962MOL0     H26933   1.439   6.718   7.854 -0.1414  0.0058  0.8748
  962MOL0     H26934   1.377   6.698   7.685 -2.0076 -0.3749 -0.1677
  962MOL0     H26935   1.287   6.913   7.675  1.4314  0.4427 -1.1529
  962MOL0     H26936   1.455   6.917   7.734  0.2750 -1.1872  1.3575
  962MOL0     H26937   1.461   6.933   8.019 -0.5400 -2.5381 -0.0023
  962MOL0     H26938   1.358   7.050   8.259 -0.6329 -2.0921 -2.1418
  962MOL0     H26939   1.220   7.142   8.247  0.4521 -2.9145  1.1647
  962MOL0     H26940   1.473   7.217   8.094 -1.2590 -2.9681 -0.8766
  962MOL0     H26941   1.453   7.252   8.269 -0.9493 -3.6216  1.0941
  962MOL0     H26942   1.243   7.343   8.055 -1.4310 -2.7810  1.7059
  962MOL0     H26943   1.244   7.392   8.217  2.9180 -0.1762  2.6554
  962MOL0     H26944   1.448   7.538   8.184 -1.3626  1.6828 -1.2196
  962MOL0     H26945   1.334   7.580   8.076  0.1521  0.4487  1.5549
  962MOL0     H26946   1.593   7.455   7.765 -0.8517 -0.5370  1.4220
  962MOL0     H26947   1.691   7.637   7.629 -0.1697 -0.7804 -0.7744
  962MOL0     H26948   1.781   8.152   7.528  0.5572  0.3926  3.5202
  962MOL0     H26949   1.969   8.284   7.462 -2.5631 -0.4674 -2.0838
  962MOL0     H26950   2.209   8.388   7.459  0.7778 -0.7509  0.4186
  962MOL0     H26951   2.118   8.337   7.310 -0.4794 -3.6955  0.1584
  962MOL0     H26952   2.329   8.461   7.266  0.9276  0.2275 -1.5857
  962MOL0     H26953   2.322   8.307   7.186  1.4996  2.3610 -0.6181
  962MOL0     H26954   2.458   8.186   7.358 -1.9128  1.3627 -1.5381
  962MOL0     H26955   2.457   8.331   7.459  1.6899  0.8643  0.4289
  962MOL0     H26956   2.583   8.314   7.192  0.0359 -1.8106 -0.2319
  962MOL0     H26957   2.593   8.454   7.307  0.9387 -0.2404  1.5889
  962MOL0     H26958   2.688   8.217   7.458  0.3276  0.3369  1.0612
  962MOL0     H26959   2.753   8.375   7.414  0.6092 -0.8742  0.5444
  962MOL0     H26960   2.841   8.306   7.218  2.2192 -0.0503  0.5615
  962MOL0     H26961   2.750   8.160   7.195  4.2147  1.0149 -2.7794
  962MOL0     H26962   2.968   8.204   7.384 -1.2257 -0.7026 -0.1828
  962MOL0     H26963   2.869   8.062   7.408 -1.6248  0.1820  0.3673
  962MOL0     H26964   2.917   8.008   7.163  1.5809  1.5248 -3.5447
  962MOL0     H26965   3.040   7.989   7.299 -0.6915  3.0774  3.7552
  962MOL0     H26966   2.227   7.942   7.491  1.7118  1.3506  2.4261
  962MOL0     H26967   2.024   7.796   7.549 -0.6107  0.2575  1.9450
  962MOL0     H26968   1.587   7.929   7.933  1.5513 -0.9804  1.9231
  962MOL0     H26969   1.486   7.753   8.051  0.6657 -0.4122  1.2614
  962MOL0     H26970   1.187   5.989   8.273 -0.8731  2.0419 -2.0912
  962MOL0     H26971   1.179   5.806   8.435 -1.7180  0.2149 -2.2808
  962MOL0     H26972   1.122   5.628   8.834 -2.3071  1.2536  1.4980
  962MOL0     H26973   1.124   5.448   8.978  0.5482 -5.2712  0.3280
  962MOL0     H26974   1.036   5.122   9.113 -0.4672  0.6787 -0.1997
  962MOL0     H26975   1.144   5.247   9.067  0.1422 -2.1849  1.0370
  962MOL0     H26976   1.048   5.010   8.923  0.5400  0.0642  2.7796
  962MOL0     H26977   1.134   5.153   8.832  1.6421  2.5055  1.3960
  962MOL0     H26978   1.311   5.075   9.040  0.0781  1.8401 -0.9045
  962MOL0     H26979   1.334   5.062   8.870 -0.4514  1.3047  0.3930
  962MOL0     H26980   1.246   4.838   8.859  2.1036  2.2618 -2.4396
  962MOL0     H26981   1.356   4.849   8.992 -1.6194 -2.3826  2.4812
  962MOL0     H26982   1.042   4.753   9.225 -1.4849  0.8803  0.2514
  962MOL0     H26983   0.772   5.283   8.781 -0.9818  1.1719  1.3754
  962MOL0     H26984   0.761   5.464   8.650 -0.4967 -0.6464  1.3715
  963MOL0     O26985   3.798   3.365   9.060  0.7132  0.2789  0.2951
  963MOL0     C26986   3.738   3.405   8.961  0.9265  0.3787  0.2000
  963MOL0     O26987   3.789   3.458   8.858  0.5872 -0.0344 -0.2315
  963MOL0     C26988   3.911   3.524   8.865  0.3393  0.4082 -0.3880
  963MOL0     C26989   3.970   3.560   8.745  0.0904 -0.1463  0.6565
  963MOL0     C26990   4.096   3.622   8.739  0.5709  0.0427 -0.1496
  963MOL0     C26991   4.152   3.681   8.851  0.1453 -0.9790 -1.2205
  963MOL0     O26992   4.272   3.748   8.872  0.0545  0.4311 -0.8670
  963MOL0     C26993   4.332   3.797   8.746  0.5816 -0.4936 -0.1990
  963MOL0     C26994   4.458   3.879   8.781  0.0350 -0.0250 -0.3583
  963MOL0     C26995   4.426   4.026   8.814  0.7079 -0.8289 -0.6715
  963MOL0     C26996   4.362   4.037   8.952  0.0961  0.6852 -0.6993
  963MOL0     C26997   4.352   4.187   9.001  0.6532  0.2083 -0.3471
  963MOL0     C26998   4.487   4.254   9.030 -0.0648 -0.0718  0.2983
  963MOL0     C26999   4.463   4.399   9.083 -0.4296  0.1766 -0.3749
  963MOL0     C27000   4.414   4.412   9.225 -0.6611  0.7325 -0.5297
  963MOL0     N27001   4.520   4.403   9.330  0.6989  0.4069  0.4998
  963MOL0     C27002   4.561   4.285   9.384  0.2591  0.7296 -0.3509
  963MOL0     C27003   4.669   4.318   9.459  0.1846  0.4254 -1.7616
  963MOL0     C27004   4.763   4.218   9.531 -0.7646 -0.0027  0.3722
  963MOL0     C27005   4.899   4.273   9.571 -0.5523  1.0488  0.8159
  963MOL0     C27006   4.998   4.319   9.461  0.4872  0.3858 -0.8988
  963MOL0     C27007   5.038   4.204   9.368  0.9286 -0.3948  1.0276
  963MOL0     O27008   5.130   4.123   9.433  0.6341  0.2077  0.1878
  963MOL0     C27009   5.146   3.992   9.394 -0.0572 -1.0580 -0.2236
  963MOL0     C27010   5.198   3.907   9.484  1.0489 -0.3969  1.3104
  963MOL0     C27011   5.213   3.775   9.446 -0.7978  0.0695  0.0646
  963MOL0     C27012   5.166   3.726   9.326 -0.2565 -0.3362  1.0688
  963MOL0     C27013   5.182   3.573   9.306 -0.3733  0.5878 -0.2529
  963MOL0     O27014   5.243   3.506   9.410 -0.2244  0.0295 -0.3974
  963MOL0     C27015   5.307   3.382   9.384  0.0242 -0.5408  0.0073
  963MOL0     C27016   5.432   3.388   9.330  1.1906  0.0113  0.2667
  963MOL0     C27017   5.511   3.267   9.320  0.5051 -1.1505  0.1779
  963MOL0     C27018   5.459   3.150   9.372 -0.2985 -0.5146  0.4086
  963MOL0     O27019   5.538   3.043   9.367  0.5306 -0.1231  0.8504
  963MOL0     C27020   5.491   2.909   9.363 -0.2993  0.1868 -0.6458
  963MOL0     C27021   5.575   2.802   9.271 -0.0088  0.3501  0.5129
  963MOL0     C27022   5.504   2.683   9.201  0.3854  0.0132  0.3028
  963MOL0     C27023   5.593   2.625   9.101  0.4421  0.6962  0.1824
  963MOL0     C27024   5.508   2.509   9.036 -1.2271  0.8072  0.3661
  963MOL0     C27025   5.586   2.446   8.923  0.6710  0.2709  0.3617
  963MOL0     C27026   5.501   2.374   8.818 -0.1333  0.1501  0.5642
  963MOL0     C27027   5.584   2.343   8.689  1.0034 -0.3623 -0.1765
  963MOL0    Cl27028   5.507   2.220   8.584 -0.3801 -0.1535 -0.3306
  963MOL0     C27029   5.322   3.141   9.418 -0.6986 -0.8512  0.2480
  963MOL0     C27030   5.244   3.253   9.419  0.1925 -0.3564 -0.4272
  963MOL0     O27031   5.156   3.527   9.198 -0.5084  0.4003  0.3309
  963MOL0     C27032   5.114   3.814   9.233  0.0706  0.6441 -0.8175
  963MOL0     C27033   5.105   3.955   9.262  0.0490  0.2839  0.9044
  963MOL0     N27034   4.683   4.460   9.470  0.3456  1.1207  0.6885
  963MOL0     N27035   4.589   4.505   9.386 -0.3198  0.1913  1.0545
  963MOL0     C27036   4.085   3.665   8.969  0.5531 -0.5195  0.1146
  963MOL0     C27037   3.969   3.587   8.980  1.1296 -0.0482  0.6661
  963MOL0     C27038   3.594   3.356   8.952  0.6750 -0.4406 -0.5402
  963MOL0     C27039   3.556   3.257   9.047 -0.2706 -0.1484  0.0149
  963MOL0     C27040   3.418   3.227   9.049 -0.0756  0.5681  0.2475
  963MOL0     C27041   3.323   3.284   8.967 -0.9503 -0.0670  0.1722
  963MOL0     O27042   3.192   3.249   8.978 -0.3071  0.9784  0.3456
  963MOL0     C27043   3.126   3.311   9.090 -0.3840  0.0233 -0.0534
  963MOL0     C27044   3.100   3.217   9.207  0.7339 -0.1440 -0.1633
  963MOL0     C27045   3.071   3.279   9.339  0.1499  0.3201 -0.2260
  963MOL0     C27046   3.099   3.185   9.455 -0.0030 -0.0673 -0.5014
  963MOL0     C27047   3.246   3.169   9.470 -0.3589 -0.3040 -0.1126
  963MOL0     C27048   3.365   3.156   9.475  0.3659 -0.0400  0.3995
  963MOL0     C27049   3.368   3.364   8.862  0.3941 -0.0128  0.1932
  963MOL0     C27050   3.504   3.405   8.853 -0.3257 -0.3395  0.0079
  963MOL0     H27051   3.942   3.511   8.652  3.3105 -2.0033  0.5021
  963MOL0     H27052   4.141   3.631   8.640  0.2151  1.5318 -0.2074
  963MOL0     H27053   4.264   3.857   8.685  0.2562 -3.0227 -2.5715
  963MOL0     H27054   4.368   3.707   8.695  3.0198  0.7170 -0.7261
  963MOL0     H27055   4.527   3.870   8.697 -0.6911 -2.1778 -0.7701
  963MOL0     H27056   4.493   3.832   8.873 -2.9891 -2.7465 -0.4265
  963MOL0     H27057   4.353   4.066   8.743  1.4573  3.2977  0.6175
  963MOL0     H27058   4.519   4.083   8.823 -0.0896  0.7239 -1.7658
  963MOL0     H27059   4.263   3.990   8.959  0.1968  0.6815  1.3235
  963MOL0     H27060   4.423   3.981   9.024 -0.2768 -1.1210 -1.7097
  963MOL0     H27061   4.301   4.188   9.098 -0.8502  1.4008 -1.1111
  963MOL0     H27062   4.279   4.238   8.937 -1.3905 -1.0718  0.8483
  963MOL0     H27063   4.550   4.280   8.944 -0.2433  1.0709  0.4916
  963MOL0     H27064   4.554   4.196   9.093  0.9850  0.0408 -0.6782
  963MOL0     H27065   4.555   4.458   9.076 -0.5003  0.4676  1.0084
  963MOL0     H27066   4.392   4.443   9.012 -1.8750 -1.2034  0.1528
  963MOL0     H27067   4.337   4.337   9.245 -0.7221 -0.2355 -3.9226
  963MOL0     H27068   4.364   4.506   9.251 -0.5318  0.4690  0.7789
  963MOL0     H27069   4.516   4.187   9.372 -1.4384  1.5353 -0.9059
  963MOL0     H27070   4.777   4.137   9.459 -0.7936 -0.7253  1.1626
  963MOL0     H27071   4.704   4.184   9.617 -2.4327 -0.1853 -0.8101
  963MOL0     H27072   4.953   4.199   9.631  1.3697  2.2340  0.6592
  963MOL0     H27073   4.885   4.335   9.660 -0.0471  1.6418  0.4896
  963MOL0     H27074   4.949   4.403   9.410 -1.5082  0.7616  1.4852
  963MOL0     H27075   5.087   4.368   9.501  1.9474 -1.4274 -1.8003
  963MOL0     H27076   5.079   4.251   9.278  1.4689 -2.0929  0.3498
  963MOL0     H27077   4.945   4.149   9.353  0.8361 -0.1044  0.5276
  963MOL0     H27078   5.241   3.927   9.581  2.5539 -2.4985  1.1616
  963MOL0     H27079   5.240   3.707   9.527 -4.6947 -1.9353 -0.0681
  963MOL0     H27080   5.461   3.479   9.279 -0.8939 -0.8795 -2.7767
  963MOL0     H27081   5.611   3.261   9.278 -0.3449 -1.0756 -1.9827
  963MOL0     H27082   5.383   2.904   9.345 -0.1941  0.6651 -1.4689
  963MOL0     H27083   5.507   2.863   9.460  0.4433  0.2551 -0.7254
  963MOL0     H27084   5.659   2.754   9.321  0.1808  0.5034  0.3434
  963MOL0     H27085   5.619   2.860   9.190  0.7260 -1.6591 -0.5779
  963MOL0     H27086   5.410   2.725   9.163  1.2795  0.8182 -1.1166
  963MOL0     H27087   5.472   2.605   9.271  0.3980  1.4734  2.0244
  963MOL0     H27088   5.620   2.703   9.029  3.1414  0.5056  0.8591
  963MOL0     H27089   5.683   2.590   9.153 -0.7462 -0.3069  1.6657
  963MOL0     H27090   5.410   2.538   8.997 -2.0624 -1.7906  0.4029
  963MOL0     H27091   5.490   2.436   9.115 -2.0506  0.9158  0.2809
  963MOL0     H27092   5.650   2.373   8.973  0.3314  1.2597  2.3296
  963MOL0     H27093   5.645   2.523   8.872 -0.6586  0.0738 -1.5600
  963MOL0     H27094   5.463   2.284   8.868 -0.6893  0.8474  1.4468
  963MOL0     H27095   5.405   2.419   8.791  0.0224  0.2883  0.2493
  963MOL0     H27096   5.691   2.320   8.699  1.5879  1.2825 -2.0981
  963MOL0     H27097   5.576   2.435   8.631 -0.6575 -1.0299 -1.0643
  963MOL0     H27098   5.275   3.048   9.448 -0.8836 -2.9416 -5.3294
  963MOL0     H27099   5.144   3.246   9.460  0.2236  0.5785 -0.1723
  963MOL0     H27100   5.084   3.784   9.133 -1.9336 -1.3898  0.3083
  963MOL0     H27101   5.072   4.027   9.187  0.3518  0.7986  1.2546
  963MOL0     H27102   4.108   3.708   9.066 -1.7497 -0.8837  0.8787
  963MOL0     H27103   3.925   3.571   9.078  0.7727 -0.2881  0.4693
  963MOL0     H27104   3.618   3.205   9.119 -1.4426  0.5882  1.6172
  963MOL0     H27105   3.389   3.152   9.122 -0.5296 -0.3567 -0.8508
  963MOL0     H27106   3.025   3.347   9.069  0.4252  1.6455 -1.4255
  963MOL0     H27107   3.170   3.404   9.126  0.0566  0.9781 -2.8479
  963MOL0     H27108   3.035   3.134   9.179  2.4209 -2.0968  1.3893
  963MOL0     H27109   3.197   3.166   9.216  0.8430  0.3249  1.6135
  963MOL0     H27110   2.967   3.312   9.340  0.4410  1.3171  1.2060
  963MOL0     H27111   3.127   3.370   9.361 -1.3230  1.6344 -1.7085
  963MOL0     H27112   3.071   3.228   9.552  0.7833 -0.0950 -0.2567
  963MOL0     H27113   3.048   3.089   9.442 -3.3318  1.5596 -0.6007
  963MOL0     H27114   3.471   3.141   9.477  0.0919 -2.3577  0.6162
  963MOL0     H27115   3.293   3.381   8.786 -2.2823 -2.1699  2.1645
  963MOL0     H27116   3.544   3.470   8.777  1.6060 -0.9836  0.4295
  964MOL0     O27117   4.632   3.792   4.636 -0.6885 -0.9680  0.1754
  964MOL0     C27118   4.723   3.716   4.660 -0.2416 -0.2420  0.3794
  964MOL0     O27119   4.783   3.641   4.560 -0.6841  0.1617  0.2824
  964MOL0     C27120   4.746   3.658   4.432 -0.0358 -0.0263  0.6979
  964MOL0     C27121   4.747   3.785   4.368  0.3527  0.2463 -0.2017
  964MOL0     C27122   4.714   3.787   4.236 -0.5089 -0.2735  1.1574
  964MOL0     C27123   4.670   3.664   4.166 -0.3136  0.5130  0.2796
  964MOL0     O27124   4.631   3.657   4.034 -0.3540  0.1581 -0.2218
  964MOL0     C27125   4.640   3.783   3.961  1.1151  0.3663  0.4713
  964MOL0     C27126   4.600   3.764   3.812  0.4552 -0.3020 -0.4597
  964MOL0     C27127   4.474   3.672   3.769  0.1450 -0.1877  0.4443
  964MOL0     C27128   4.455   3.657   3.626  0.3644  0.8941  0.1375
  964MOL0     C27129   4.307   3.628   3.599  0.6635 -0.1747 -0.5622
  964MOL0     C27130   4.268   3.653   3.454  0.8131  0.4896 -0.0155
  964MOL0     C27131   4.319   3.541   3.358 -0.7059  0.0874  0.2440
  964MOL0     C27132   4.253   3.530   3.226 -0.7168  0.7555  0.7601
  964MOL0     N27133   4.107   3.484   3.230  0.0081  0.8319 -0.4545
  964MOL0     C27134   4.062   3.355   3.256  0.0524 -0.2126 -1.3420
  964MOL0     C27135   3.931   3.351   3.229  0.2878 -0.5498  0.6243
  964MOL0     C27136   3.842   3.234   3.229  0.0429  0.8969  1.2969
  964MOL0     C27137   3.810   3.172   3.095  0.4624 -0.5211  0.1438
  964MOL0     C27138   3.846   3.032   3.064 -0.6109  0.7727  0.5979
  964MOL0     C27139   3.998   3.027   3.013 -0.5078 -0.2183 -0.1425
  964MOL0     O27140   4.081   3.029   3.133 -0.1529 -0.8206  0.8433
  964MOL0     C27141   4.223   3.058   3.133 -0.3490  0.3019  0.6716
  964MOL0     C27142   4.291   3.086   3.016  0.0694  1.5363  0.3304
  964MOL0     C27143   4.419   3.138   3.017 -0.6675 -0.8858  0.1903
  964MOL0     C27144   4.489   3.160   3.143 -0.5182 -0.6585  0.0698
  964MOL0     C27145   4.639   3.190   3.145 -0.5557 -0.6008  0.3361
  964MOL0     O27146   4.708   3.178   3.031 -0.1150  0.4419  0.3742
  964MOL0     C27147   4.842   3.218   3.015  0.7851  0.7182  0.0437
  964MOL0     C27148   4.905   3.177   2.889 -0.2221 -0.0723 -0.0386
  964MOL0     C27149   5.029   3.220   2.846  0.3124 -0.9623  0.1030
  964MOL0     C27150   5.108   3.298   2.923 -0.3491 -0.0026 -0.3748
  964MOL0     O27151   5.245   3.323   2.891  0.3193  0.1397 -1.1391
  964MOL0     C27152   5.327   3.371   2.997  0.5195 -0.1723  0.0447
  964MOL0     C27153   5.327   3.523   2.977 -1.0902 -0.2393 -0.1804
  964MOL0     C27154   5.387   3.605   3.087 -0.1254 -0.2122  0.9290
  964MOL0     C27155   5.532   3.628   3.088  0.2605  0.3965  1.0190
  964MOL0     C27156   5.573   3.683   3.227  0.7670 -0.1831  0.4588
  964MOL0     C27157   5.499   3.814   3.256  0.0850  0.7151  0.3863
  964MOL0     C27158   5.565   3.892   3.379 -0.3011 -0.2984  0.0073
  964MOL0     C27159   5.490   4.026   3.399 -0.4364 -0.4511  0.3083
  964MOL0    Cl27160   5.570   4.146   3.519  1.0140  0.7534  0.1895
  964MOL0     C27161   5.043   3.350   3.037 -0.0488  0.2076 -1.0507
  964MOL0     C27162   4.916   3.309   3.087 -0.2055 -0.3577  0.7606
  964MOL0     O27163   4.685   3.231   3.251 -0.2751  0.0708 -0.2169
  964MOL0     C27164   4.420   3.140   3.261  0.2583 -0.2138  0.4055
  964MOL0     C27165   4.290   3.072   3.250  0.1188 -1.1106  0.1794
  964MOL0     N27166   3.898   3.476   3.180  0.6951  0.0010  0.8791
  964MOL0     N27167   4.005   3.547   3.175  0.1130 -0.2031 -0.1801
  964MOL0     C27168   4.655   3.541   4.236  0.0616  0.0925 -0.9959
  964MOL0     C27169   4.700   3.541   4.373 -0.1717  0.5140  0.1421
  964MOL0     C27170   4.788   3.701   4.797  1.2086  0.4236  0.7533
  964MOL0     C27171   4.860   3.585   4.831  0.4342 -0.3552 -0.7559
  964MOL0     C27172   4.908   3.560   4.958 -0.1534 -0.7281  0.0609
  964MOL0     C27173   4.896   3.653   5.054  0.2535 -0.0237  0.4620
  964MOL0     O27174   4.957   3.626   5.169 -0.3684  0.1314 -0.2571
  964MOL0     C27175   4.986   3.730   5.265 -0.4566 -0.6097 -0.7368
  964MOL0     C27176   5.004   3.669   5.402 -0.4643  0.1923 -0.1240
  964MOL0     C27177   4.875   3.639   5.484 -0.0914  0.1630  0.2763
  964MOL0     C27178   4.810   3.506   5.465  0.3637 -0.6843  1.2262
  964MOL0     C27179   4.864   3.408   5.557 -0.0078  0.0608  0.4677
  964MOL0     C27180   4.880   3.305   5.614  0.3920  0.8317  0.4451
  964MOL0     C27181   4.827   3.775   5.033  0.1036  1.0949  0.6861
  964MOL0     C27182   4.775   3.789   4.902 -0.8258 -0.3619  0.4247
  964MOL0     H27183   4.798   3.866   4.418 -0.1735 -1.5976  3.6773
  964MOL0     H27184   4.722   3.882   4.184  1.7998  1.6808  4.5992
  964MOL0     H27185   4.741   3.826   3.955  0.7429  1.1332 -0.5541
  964MOL0     H27186   4.565   3.854   3.996 -3.4986 -2.0641 -3.3439
  964MOL0     H27187   4.685   3.723   3.754  0.1426 -0.0244 -1.1271
  964MOL0     H27188   4.583   3.866   3.777 -1.2236 -0.6994 -0.8861
  964MOL0     H27189   4.399   3.735   3.817  0.5368 -0.3368  1.2808
  964MOL0     H27190   4.470   3.573   3.816 -3.2138 -0.2573  0.2625
  964MOL0     H27191   4.498   3.748   3.582 -0.1410  1.9807  1.8038
  964MOL0     H27192   4.520   3.573   3.599 -2.1518 -0.4085 -2.4359
  964MOL0     H27193   4.247   3.693   3.665 -0.1761 -0.1636 -1.3254
  964MOL0     H27194   4.277   3.524   3.612  1.6338 -0.6606 -2.0181
  964MOL0     H27195   4.320   3.748   3.434  0.6157  0.5073 -0.4554
  964MOL0     H27196   4.160   3.669   3.460  0.5521 -1.5685  2.6664
  964MOL0     H27197   4.423   3.560   3.330 -0.6886 -0.8342 -0.3932
  964MOL0     H27198   4.319   3.447   3.414  0.4310 -0.3696 -0.4941
  964MOL0     H27199   4.307   3.453   3.170 -0.7490  3.1123 -2.8113
  964MOL0     H27200   4.271   3.631   3.189  3.7165 -1.0278 -2.9178
  964MOL0     H27201   4.109   3.262   3.287 -2.6105 -1.4539 -0.6477
  964MOL0     H27202   3.746   3.267   3.269  0.4763  1.7773  1.6395
  964MOL0     H27203   3.873   3.149   3.291 -4.0915 -0.5174  1.7123
  964MOL0     H27204   3.861   3.243   3.030  1.0144  1.8887  2.9912
  964MOL0     H27205   3.704   3.172   3.071 -0.0741 -1.0718  2.2983
  964MOL0     H27206   3.842   2.972   3.156 -1.3849 -0.4569 -0.2196
  964MOL0     H27207   3.786   2.981   2.989 -0.8462 -0.9195  1.8584
  964MOL0     H27208   4.017   3.113   2.949  1.0126  0.3092  0.9388
  964MOL0     H27209   4.023   2.945   2.945  1.4570  2.5573 -3.0477
  964MOL0     H27210   4.246   3.073   2.918  1.3342  1.6176 -0.2746
  964MOL0     H27211   4.464   3.163   2.921  0.4487  1.2675  1.2156
  964MOL0     H27212   4.842   3.124   2.818  0.6563 -2.1133  0.6230
  964MOL0     H27213   5.053   3.186   2.746 -2.3190 -1.7286 -0.3358
  964MOL0     H27214   5.430   3.341   2.979  0.1334 -3.3413  2.3878
  964MOL0     H27215   5.306   3.335   3.098 -1.2189  3.3065  1.0944
  964MOL0     H27216   5.221   3.552   2.975 -0.9628  0.2166 -1.4420
  964MOL0     H27217   5.366   3.558   2.881  0.7722  1.0762  1.0095
  964MOL0     H27218   5.359   3.565   3.185 -0.7960  0.8278  1.1801
  964MOL0     H27219   5.355   3.709   3.081  1.7210  0.4446  1.6825
  964MOL0     H27220   5.579   3.530   3.073 -1.7152 -0.3950 -0.5702
  964MOL0     H27221   5.561   3.688   3.002 -1.4508  1.2703  1.0129
  964MOL0     H27222   5.680   3.703   3.228  0.5994  1.1787 -1.8111
  964MOL0     H27223   5.544   3.609   3.302  4.0729  0.1505  2.2638
  964MOL0     H27224   5.392   3.797   3.264  0.0160 -1.0795 -2.6999
  964MOL0     H27225   5.511   3.882   3.171 -2.3971  0.7419  0.0081
  964MOL0     H27226   5.560   3.832   3.470  0.7791  1.6092  1.4053
  964MOL0     H27227   5.668   3.923   3.360  0.0358  0.1845  2.3799
  964MOL0     H27228   5.389   4.001   3.431 -0.5960 -3.6642 -2.2200
  964MOL0     H27229   5.474   4.072   3.301 -4.4200 -2.0928 -0.0111
  964MOL0     H27230   5.095   3.418   3.104  1.3858  0.1028 -2.0295
  964MOL0     H27231   4.873   3.356   3.175 -0.2896 -0.2799  0.6784
  964MOL0     H27232   4.464   3.147   3.360 -2.0772 -0.6801  1.5415
  964MOL0     H27233   4.233   3.050   3.340  1.2919 -0.6393  1.0711
  964MOL0     H27234   4.605   3.464   4.178 -0.3747  0.5366 -1.2252
  964MOL0     H27235   4.700   3.443   4.421 -2.3215 -0.1213 -1.0292
  964MOL0     H27236   4.880   3.506   4.760 -0.1774 -0.3009 -0.9948
  964MOL0     H27237   4.958   3.464   4.967  2.4197  0.6015  0.8311
  964MOL0     H27238   4.903   3.801   5.267 -0.0593 -0.1334  0.9963
  964MOL0     H27239   5.079   3.783   5.246 -1.2364  1.2248  0.2676
  964MOL0     H27240   5.074   3.585   5.408 -0.9661 -0.4459 -2.2299
  964MOL0     H27241   5.055   3.752   5.453  1.5033 -1.2417  0.3756
  964MOL0     H27242   4.804   3.710   5.441 -1.3496 -2.3080 -2.0594
  964MOL0     H27243   4.891   3.654   5.591 -0.3467  0.4973  0.2684
  964MOL0     H27244   4.708   3.528   5.495  0.2424  1.4693 -0.4902
  964MOL0     H27245   4.812   3.484   5.358  1.6939  2.7193  0.4120
  964MOL0     H27246   4.864   3.203   5.644 -1.2805  0.4634 -1.5039
  964MOL0     H27247   4.804   3.850   5.108 -0.0001  1.2828  0.4677
  964MOL0     H27248   4.700   3.867   4.896  0.0916  0.6075  1.1039
  965MOL0     O27249   0.913   7.501   4.710  0.7285  0.7656  0.2718
  965MOL0     C27250   0.902   7.539   4.826 -0.9477  0.6028 -1.5490
  965MOL0     O27251   1.002   7.559   4.919 -0.6716  0.6581  0.2961
  965MOL0     C27252   1.131   7.580   4.877 -0.6978  0.3766  0.0930
  965MOL0     C27253   1.175   7.702   4.826  0.0959  0.0043 -0.1464
  965MOL0     C27254   1.304   7.717   4.787 -0.8107  0.8611  0.3622
  965MOL0     C27255   1.389   7.603   4.797  0.4886 -1.3750  0.9174
  965MOL0     O27256   1.521   7.637   4.762 -0.1321 -0.3190  0.6911
  965MOL0     C27257   1.599   7.542   4.687 -0.5546  0.0565 -0.1379
  965MOL0     C27258   1.743   7.596   4.661 -0.3258 -0.1487  0.0195
  965MOL0     C27259   1.832   7.508   4.574  0.6108  0.3811  0.6632
  965MOL0     C27260   1.906   7.402   4.656 -0.0773  0.0145  0.3789
  965MOL0     C27261   1.866   7.262   4.599  0.3137 -0.1520  0.0906
  965MOL0     C27262   1.900   7.143   4.675  0.4260  0.1150 -0.0815
  965MOL0     C27263   2.052   7.131   4.684  0.4951 -0.1134  1.0120
  965MOL0     C27264   2.090   6.996   4.742  1.0550  1.0866  0.2644
  965MOL0     N27265   2.022   6.973   4.866  0.0169 -0.0639  0.2221
  965MOL0     C27266   1.935   6.867   4.891 -0.5444  0.2299  0.3267
  965MOL0     C27267   1.893   6.883   5.024  0.0082  0.0085  0.0218
  965MOL0     C27268   1.801   6.773   5.080 -0.7466 -0.4318 -0.3369
  965MOL0     C27269   1.872   6.650   5.124  0.4751  0.2175  0.4590
  965MOL0     C27270   1.771   6.559   5.193 -0.6185 -0.4096 -0.1535
  965MOL0     C27271   1.665   6.520   5.099  0.3666 -0.0280  1.2458
  965MOL0     O27272   1.599   6.408   5.162  0.5531  0.1487  0.4265
  965MOL0     C27273   1.607   6.284   5.095  0.6142 -0.0263  0.3361
  965MOL0     C27274   1.503   6.198   5.127  0.5123 -0.4258 -1.0351
  965MOL0     C27275   1.493   6.067   5.079  0.0219 -0.6141 -0.3718
  965MOL0     C27276   1.571   6.020   4.972  0.5473 -0.8555  0.3031
  965MOL0     C27277   1.557   5.887   4.912  0.3249 -0.2499  0.3261
  965MOL0     O27278   1.482   5.805   4.983  0.5396  0.1675  0.4050
  965MOL0     C27279   1.423   5.714   4.907  0.1933 -0.0226 -0.5982
  965MOL0     C27280   1.345   5.736   4.786 -0.8012  0.1057 -0.3999
  965MOL0     C27281   1.254   5.640   4.741  0.6686  0.5509 -0.0465
  965MOL0     C27282   1.236   5.516   4.810  0.0621 -0.6472  0.3772
  965MOL0     O27283   1.152   5.408   4.786  0.2035  0.1263 -0.1696
  965MOL0     C27284   1.098   5.400   4.657  0.5680  0.4771 -0.0348
  965MOL0     C27285   1.186   5.309   4.572  0.3068 -0.3456  0.0510
  965MOL0     C27286   1.230   5.178   4.644  0.3008  0.5514  0.1587
  965MOL0     C27287   1.341   5.099   4.566 -0.0405 -0.0044  0.5624
  965MOL0     C27288   1.279   5.019   4.448 -0.1262 -0.9139 -0.5706
  965MOL0     C27289   1.395   4.921   4.390  0.5488  0.3828 -0.1245
  965MOL0     C27290   1.485   4.996   4.301 -0.3413 -0.3158 -0.3303
  965MOL0     C27291   1.446   5.034   4.153  0.3637 -0.3005  0.5890
  965MOL0    Cl27292   1.308   5.134   4.134  0.1027 -0.2631 -0.2716
  965MOL0     C27293   1.317   5.496   4.923 -0.7939 -0.2244 -0.1981
  965MOL0     C27294   1.415   5.592   4.965 -0.6103  0.1620 -0.6286
  965MOL0     O27295   1.612   5.863   4.804 -1.0522 -0.1897 -0.1895
  965MOL0     C27296   1.667   6.119   4.928 -0.3203  1.1248 -0.0898
  965MOL0     C27297   1.688   6.247   4.988 -0.3130  0.5287  0.0945
  965MOL0     N27298   1.967   6.985   5.081 -1.1454 -0.9396 -0.6977
  965MOL0     N27299   2.024   7.047   4.974  1.1851  0.2139 -0.4610
  965MOL0     C27300   1.348   7.476   4.839  1.3120  0.0256  0.9282
  965MOL0     C27301   1.212   7.464   4.870 -0.3005  0.2051  0.4099
  965MOL0     C27302   0.764   7.557   4.885 -1.5747  0.7879  0.1850
  965MOL0     C27303   0.741   7.591   5.016 -0.0700  0.0603  0.0848
  965MOL0     C27304   0.614   7.601   5.064  0.5957  0.7401  0.2106
  965MOL0     C27305   0.499   7.581   4.984 -1.4071  0.0711  0.8912
  965MOL0     O27306   0.371   7.595   5.036 -0.6844  0.0490  0.1827
  965MOL0     C27307   0.277   7.688   4.983 -1.0793 -0.6567  0.2784
  965MOL0     C27308   0.141   7.649   5.038  0.2503  0.7264  0.2280
  965MOL0     C27309   0.022   7.680   4.950  0.8088 -0.8220  0.5777
  965MOL0     C27310  -0.104   7.592   4.987  0.2904  0.1394  0.6566
  965MOL0     C27311  -0.193   7.663   5.080 -0.2666 -0.4072  0.0283
  965MOL0     C27312  -0.270   7.731   5.146 -0.1119  0.4712  0.1462
  965MOL0     C27313   0.522   7.556   4.845 -0.4537  0.5633  0.9614
  965MOL0     C27314   0.651   7.542   4.801 -0.2653  0.2922 -0.6165
  965MOL0     H27315   1.110   7.788   4.815  1.7680  1.4247  0.4804
  965MOL0     H27316   1.341   7.811   4.746 -0.1983  0.4745  0.0251
  965MOL0     H27317   1.546   7.513   4.596  2.6557 -0.9015 -1.8508
  965MOL0     H27318   1.605   7.447   4.741 -1.6704  0.4308  0.6821
  965MOL0     H27319   1.804   7.607   4.751  1.6572  0.6589 -1.3644
  965MOL0     H27320   1.724   7.695   4.619  0.9801  0.1073  0.0172
  965MOL0     H27321   1.901   7.563   4.510  0.0253 -1.7838 -2.0058
  965MOL0     H27322   1.764   7.466   4.500 -4.2740  4.1077  2.5041
  965MOL0     H27323   2.013   7.412   4.638  0.1300 -1.2684  0.8012
  965MOL0     H27324   1.885   7.424   4.761  2.3509  0.3894  0.8387
  965MOL0     H27325   1.902   7.249   4.497 -2.2964  0.7171 -1.0420
  965MOL0     H27326   1.757   7.261   4.593  0.1995 -0.4635  1.6901
  965MOL0     H27327   1.866   7.055   4.620  0.3902 -0.2620  0.5318
  965MOL0     H27328   1.846   7.156   4.770 -1.6868  0.9274 -1.3250
  965MOL0     H27329   2.099   7.143   4.586 -0.9530  0.1936  0.3227
  965MOL0     H27330   2.090   7.209   4.750  1.6527 -0.8626  1.2586
  965MOL0     H27331   2.198   7.009   4.758  0.9642  0.8635  1.0563
  965MOL0     H27332   2.071   6.916   4.669 -1.7500  1.2289  0.7408
  965MOL0     H27333   1.906   6.789   4.822 -0.5840  2.1833 -1.9906
  965MOL0     H27334   1.733   6.755   4.995  0.9003 -1.0954 -1.5772
  965MOL0     H27335   1.752   6.826   5.162  1.3249  0.9774  0.0538
  965MOL0     H27336   1.951   6.679   5.195  2.9127  1.0735 -2.3922
  965MOL0     H27337   1.928   6.595   5.048 -1.4699 -1.7307  0.3436
  965MOL0     H27338   1.818   6.466   5.228  1.5622  1.1530  1.3261
  965MOL0     H27339   1.737   6.607   5.285 -0.2571 -0.9489  0.2686
  965MOL0     H27340   1.703   6.503   4.998  0.5197  0.2869  1.2490
  965MOL0     H27341   1.586   6.595   5.095 -0.0583 -0.5084 -1.6185
  965MOL0     H27342   1.446   6.232   5.213 -0.1193  1.0108 -1.9890
  965MOL0     H27343   1.417   6.005   5.124 -0.6886  0.8042  0.4430
  965MOL0     H27344   1.348   5.832   4.736 -3.9374  0.1197 -0.7751
  965MOL0     H27345   1.193   5.651   4.652  0.7056 -3.0258 -0.6653
  965MOL0     H27346   1.079   5.493   4.603  2.6003  0.9926  0.0552
  965MOL0     H27347   1.000   5.351   4.649  0.8378  0.2196 -4.9400
  965MOL0     H27348   1.284   5.350   4.543  0.4030 -2.7131 -3.6648
  965MOL0     H27349   1.144   5.292   4.473 -0.6462 -0.1949  0.4240
  965MOL0     H27350   1.144   5.114   4.661  0.9738  0.2686  3.0418
  965MOL0     H27351   1.269   5.214   4.740 -0.6327 -1.3586  1.3118
  965MOL0     H27352   1.409   5.179   4.538 -1.1703  0.5693 -0.6951
  965MOL0     H27353   1.388   5.024   4.630  0.0832 -2.4681 -2.2023
  965MOL0     H27354   1.236   5.085   4.373  0.5464  0.7326  0.4328
  965MOL0     H27355   1.199   4.964   4.499 -2.2587  1.2838 -1.3436
  965MOL0     H27356   1.339   4.849   4.330 -0.7136 -0.1814  1.6454
  965MOL0     H27357   1.456   4.875   4.468  3.1443  2.3736 -0.8336
  965MOL0     H27358   1.520   5.086   4.352 -0.6645 -1.2228  1.5687
  965MOL0     H27359   1.578   4.941   4.281  0.7553  1.1094  0.6274
  965MOL0     H27360   1.438   4.944   4.092 -1.2452  1.6883 -2.4272
  965MOL0     H27361   1.523   5.101   4.114 -1.3129  0.6175 -1.3046
  965MOL0     H27362   1.309   5.396   4.964 -2.9396  1.1295  3.1438
  965MOL0     H27363   1.460   5.591   5.063 -3.6511  2.1072  0.9413
  965MOL0     H27364   1.734   6.087   4.849  3.1836  0.8621  2.7185
  965MOL0     H27365   1.771   6.308   4.954  0.0604 -0.1699 -0.2853
  965MOL0     H27366   1.411   7.389   4.852  1.9212  0.3340  0.0900
  965MOL0     H27367   1.162   7.372   4.897 -1.9832  0.4571 -1.6088
  965MOL0     H27368   0.823   7.595   5.087 -0.0984  3.6310  0.1093
  965MOL0     H27369   0.594   7.622   5.168  1.9275 -0.5687  0.7627
  965MOL0     H27370   0.277   7.688   4.873  1.4968 -0.1962  0.2226
  965MOL0     H27371   0.300   7.791   5.011 -0.3462 -0.9231  0.6629
  965MOL0     H27372   0.138   7.541   5.057  1.2320  0.1758 -2.2862
  965MOL0     H27373   0.113   7.695   5.133 -1.9828 -0.2771  0.1222
  965MOL0     H27374   0.051   7.664   4.846  1.4311 -2.4554  0.9697
  965MOL0     H27375  -0.014   7.783   4.948  0.4939 -0.9364  0.2802
  965MOL0     H27376  -0.158   7.563   4.896  0.2012  0.7806  0.4977
  965MOL0     H27377  -0.067   7.504   5.040 -1.6275 -0.9711  0.2377
  965MOL0     H27378  -0.326   7.799   5.207  0.8978  4.1287 -2.6775
  965MOL0     H27379   0.433   7.547   4.783  0.1569 -0.2426  0.1858
  965MOL0     H27380   0.665   7.515   4.697 -1.1154  2.5118 -1.3810
  966MOL0     O27381   1.044   8.572   9.302 -0.1669 -0.5789 -0.4925
  966MOL0     C27382   1.042   8.449   9.275  0.4080  0.8807  0.4047
  966MOL0     O27383   1.103   8.379   9.170  0.2773 -0.8769 -0.0047
  966MOL0     C27384   1.189   8.443   9.086 -0.3269 -1.7269 -0.4304
  966MOL0     C27385   1.185   8.413   8.953 -0.8455 -0.0133 -0.6466
  966MOL0     C27386   1.274   8.468   8.859 -0.4892 -0.2480 -0.5015
  966MOL0     C27387   1.368   8.558   8.904 -0.9160 -0.5877 -0.3885
  966MOL0     O27388   1.472   8.616   8.834 -0.0284 -0.4762  0.5862
  966MOL0     C27389   1.550   8.538   8.743 -0.0994 -0.3842 -0.0048
  966MOL0     C27390   1.512   8.564   8.593  0.0301  0.6897 -1.3504
  966MOL0     C27391   1.603   8.476   8.495 -0.7457 -1.0890  0.1629
  966MOL0     C27392   1.545   8.491   8.354 -0.1213 -0.5773  0.0956
  966MOL0     C27393   1.647   8.456   8.241  0.4012  0.2320 -0.2331
  966MOL0     C27394   1.700   8.308   8.257 -0.4539  0.3835 -0.4644
  966MOL0     C27395   1.789   8.255   8.141  1.3266 -0.6019 -0.0372
  966MOL0     C27396   1.868   8.139   8.194 -0.1848 -0.2660  0.5321
  966MOL0     N27397   1.803   8.049   8.285  0.8733 -0.0491  0.4318
  966MOL0     C27398   1.818   8.024   8.410 -0.0168  0.9527 -0.3849
  966MOL0     C27399   1.725   7.937   8.442 -0.3807  0.3370 -0.6464
  966MOL0     C27400   1.698   7.865   8.569  0.3261  0.0545 -0.4124
  966MOL0     C27401   1.606   7.954   8.656  0.0819 -0.5742 -0.8081
  966MOL0     C27402   1.668   8.096   8.693  0.2491  1.1505 -0.5915
  966MOL0     C27403   1.621   8.166   8.829 -0.0549 -0.0361 -0.6917
  966MOL0     O27404   1.485   8.192   8.812 -0.0101  0.3077 -0.0746
  966MOL0     C27405   1.389   8.126   8.890 -0.1676 -1.3073  0.2625
  966MOL0     C27406   1.273   8.087   8.822 -0.2148 -0.8262  0.0276
  966MOL0     C27407   1.163   8.031   8.897 -0.0220 -1.2088  0.4277
  966MOL0     C27408   1.159   8.020   9.037  0.2401  0.0210  0.0722
  966MOL0     C27409   1.044   7.963   9.109 -0.1072 -0.2375 -0.1086
  966MOL0     O27410   0.929   7.927   9.040  0.4701  0.3356  0.2898
  966MOL0     C27411   0.842   7.860   9.107  0.7540  0.3743 -0.6757
  966MOL0     C27412   0.750   7.927   9.183 -0.0859  0.2111 -0.3934
  966MOL0     C27413   0.655   7.870   9.265 -0.3740 -0.9352  0.3819
  966MOL0     C27414   0.637   7.737   9.266  0.7257  0.3541  0.4314
  966MOL0     O27415   0.533   7.672   9.322 -0.4067 -0.5990  0.1684
  966MOL0     C27416   0.402   7.727   9.321 -0.0465 -0.9007 -0.3960
  966MOL0     C27417   0.360   7.806   9.455 -0.5646  0.2229 -1.0006
  966MOL0     C27418   0.399   7.720   9.578 -0.1012  0.0619  0.6468
  966MOL0     C27419   0.325   7.596   9.594 -0.6572 -0.1874  0.3325
  966MOL0     C27420   0.168   7.612   9.604 -0.3248  0.4377  0.1317
  966MOL0     C27421   0.123   7.691   9.730  0.2443 -0.0121 -0.1746
  966MOL0     C27422  -0.035   7.708   9.729  0.8205 -0.4878  0.1345
  966MOL0     C27423  -0.094   7.575   9.758  0.4224  0.4363 -0.2041
  966MOL0    Cl27424  -0.158   7.495   9.610  0.1803 -0.2365 -0.5723
  966MOL0     C27425   0.721   7.666   9.181  0.2355 -0.1467 -0.4337
  966MOL0     C27426   0.835   7.717   9.118 -0.6947  0.1176 -1.0714
  966MOL0     O27427   1.062   7.942   9.229 -0.0279  0.9142  0.4614
  966MOL0     C27428   1.286   8.052   9.093  0.6878  0.7912 -0.5326
  966MOL0     C27429   1.403   8.096   9.023  0.8804 -0.1036 -0.6729
  966MOL0     N27430   1.648   7.904   8.340  0.6937  0.5356  0.8343
  966MOL0     N27431   1.693   7.968   8.240 -0.7056  0.2821  0.2894
  966MOL0     C27432   1.369   8.599   9.039  0.7345  0.4836 -0.1365
  966MOL0     C27433   1.288   8.534   9.131 -0.3480  0.1112 -0.2398
  966MOL0     C27434   0.974   8.367   9.376  0.0484 -0.0155 -0.2290
  966MOL0     C27435   1.002   8.230   9.386 -0.3547 -0.1480  0.2527
  966MOL0     C27436   0.951   8.152   9.488 -0.2262 -0.4520 -0.1128
  966MOL0     C27437   0.866   8.210   9.583 -0.6345 -1.0228  0.1448
  966MOL0     O27438   0.807   8.145   9.689 -0.2822 -0.4819  0.9773
  966MOL0     C27439   0.823   8.004   9.708 -1.3036  0.2094 -0.0199
  966MOL0     C27440   0.718   7.945   9.811  0.8501 -0.3625  0.8732
  966MOL0     C27441   0.689   8.052   9.922 -0.1083 -0.9017  0.8888
  966MOL0     C27442   0.765   8.022  10.049 -0.4689  0.4915 -0.7919
  966MOL0     C27443   0.677   7.944  10.139  0.5281 -0.2731 -0.7088
  966MOL0     C27444   0.607   7.879  10.219  0.2426  0.2051  0.3441
  966MOL0     C27445   0.833   8.345   9.566  0.2780 -0.1560  0.9909
  966MOL0     C27446   0.894   8.427   9.470  0.1943  0.3667  0.4723
  966MOL0     H27447   1.109   8.343   8.923 -0.4587 -0.2592 -1.0791
  966MOL0     H27448   1.273   8.439   8.755 -3.7897 -2.7157  0.0474
  966MOL0     H27449   1.543   8.430   8.763 -0.6323 -0.6934 -1.7055
  966MOL0     H27450   1.647   8.578   8.774  0.1251  0.7562 -2.0205
  966MOL0     H27451   1.529   8.671   8.578  1.1007  0.6912 -0.2538
  966MOL0     H27452   1.405   8.544   8.579  0.1077  1.4304 -3.3682
  966MOL0     H27453   1.598   8.370   8.520 -2.1077 -0.8942  0.7835
  966MOL0     H27454   1.707   8.510   8.502 -0.8731 -0.1626 -1.7020
  966MOL0     H27455   1.456   8.427   8.351 -1.2162  0.8739  0.1462
  966MOL0     H27456   1.508   8.593   8.343 -2.6802 -1.4004  0.3759
  966MOL0     H27457   1.725   8.530   8.256  1.1482 -0.9206  1.9926
  966MOL0     H27458   1.596   8.459   8.144  1.3043 -2.4792 -0.8795
  966MOL0     H27459   1.611   8.245   8.262 -0.2167  0.1516  2.4160
  966MOL0     H27460   1.747   8.298   8.355  0.6128  1.2935 -0.8465
  966MOL0     H27461   1.726   8.230   8.055  1.3473 -0.7306 -0.0160
  966MOL0     H27462   1.846   8.338   8.098 -1.6213  0.9289 -1.2407
  966MOL0     H27463   1.956   8.173   8.249 -3.0267  3.8920  3.0859
  966MOL0     H27464   1.881   8.067   8.113  0.3301  3.0678 -2.6269
  966MOL0     H27465   1.909   8.041   8.468  0.1212 -1.9029  0.3622
  966MOL0     H27466   1.797   7.849   8.613 -0.1420  0.4685  0.8180
  966MOL0     H27467   1.651   7.769   8.545  0.7906 -0.8181  1.9330
  966MOL0     H27468   1.596   7.898   8.749  1.9455  0.2812 -0.0496
  966MOL0     H27469   1.513   7.967   8.599  0.1946 -0.8134 -1.0493
  966MOL0     H27470   1.771   8.073   8.718  0.3313  2.5536  0.4963
  966MOL0     H27471   1.651   8.166   8.610  0.0054  1.0827 -0.6013
  966MOL0     H27472   1.668   8.264   8.836 -0.6271  0.4512 -2.8841
  966MOL0     H27473   1.639   8.104   8.917 -4.0140 -1.9463 -1.0155
  966MOL0     H27474   1.267   8.109   8.716  0.0184  0.7169  0.3098
  966MOL0     H27475   1.072   8.015   8.841  0.8679 -1.9684 -0.8537
  966MOL0     H27476   0.745   8.035   9.173 -2.3759  0.5160  2.6350
  966MOL0     H27477   0.591   7.936   9.323 -1.0870 -0.8396 -0.5077
  966MOL0     H27478   0.335   7.643   9.299 -2.3242  0.8833 -0.6781
  966MOL0     H27479   0.393   7.798   9.238  1.3433  0.7771  0.8216
  966MOL0     H27480   0.253   7.826   9.458 -1.1427 -2.3607  2.4118
  966MOL0     H27481   0.412   7.902   9.465 -0.2852  0.2497 -2.5320
  966MOL0     H27482   0.388   7.790   9.662 -3.2390  0.6124 -0.1006
  966MOL0     H27483   0.503   7.689   9.565 -0.3161  0.1708 -1.8048
  966MOL0     H27484   0.347   7.544   9.501 -3.7884  1.2093 -1.3365
  966MOL0     H27485   0.369   7.548   9.682 -1.9354 -1.3036  0.4065
  966MOL0     H27486   0.133   7.508   9.604  1.4504 -0.3239 -3.4978
  966MOL0     H27487   0.134   7.656   9.510 -1.6139 -1.4064 -0.3239
  966MOL0     H27488   0.167   7.791   9.733 -1.0174  0.5518  1.6538
  966MOL0     H27489   0.157   7.630   9.814  1.1635  0.9730  0.1986
  966MOL0     H27490  -0.073   7.766   9.814  1.2201 -2.7477  1.9779
  966MOL0     H27491  -0.068   7.765   9.642  0.4354 -0.0523  0.5563
  966MOL0     H27492  -0.160   7.590   9.845  0.3573  0.3540 -0.2390
  966MOL0     H27493  -0.014   7.506   9.785 -0.7062 -0.5679  0.7450
  966MOL0     H27494   0.701   7.561   9.163  1.3600 -1.1634  3.2253
  966MOL0     H27495   0.895   7.653   9.054  1.3535  1.7042 -0.8513
  966MOL0     H27496   1.296   8.045   9.201  0.3360  0.1964 -0.5388
  966MOL0     H27497   1.498   8.092   9.076  1.1297 -0.1820 -1.1152
  966MOL0     H27498   1.441   8.677   9.058  3.0026 -0.1680 -4.7337
  966MOL0     H27499   1.304   8.563   9.235 -3.3075  4.4133 -0.7267
  966MOL0     H27500   1.078   8.192   9.318  2.9183  1.6858  2.5883
  966MOL0     H27501   0.984   8.049   9.498 -4.2335 -2.0052 -1.0808
  966MOL0     H27502   0.923   7.989   9.748 -1.8483 -1.9168  0.6678
  966MOL0     H27503   0.808   7.949   9.614 -0.1069  1.4097 -0.9523
  966MOL0     H27504   0.625   7.930   9.755  0.6014  0.3141  1.0872
  966MOL0     H27505   0.754   7.845   9.837  1.4803 -1.4625 -3.3743
  966MOL0     H27506   0.582   8.065   9.937 -0.1592  1.2176 -0.6476
  966MOL0     H27507   0.717   8.152   9.886  0.2907 -1.9707 -2.0316
  966MOL0     H27508   0.849   7.956  10.026 -1.5938 -1.0906 -0.5965
  966MOL0     H27509   0.790   8.116  10.099 -2.6134  0.9254 -0.4319
  966MOL0     H27510   0.533   7.824  10.274  0.0700  0.6066  0.5215
  966MOL0     H27511   0.757   8.376   9.637 -0.9778 -1.4331  0.2416
  966MOL0     H27512   0.878   8.534   9.454 -3.2612 -0.3042 -1.4567
  967MOL0     O27513   1.660   6.420   9.229  0.2158  0.3068  0.1479
  967MOL0     C27514   1.610   6.507   9.299 -0.0231 -0.3249  0.6113
  967MOL0     O27515   1.476   6.528   9.308 -0.0293  0.4295 -0.5906
  967MOL0     C27516   1.392   6.466   9.226  0.5816  0.0854  0.7820
  967MOL0     C27517   1.360   6.337   9.250 -0.1114 -0.1294 -0.3933
  967MOL0     C27518   1.282   6.269   9.161 -0.7158  0.2776  0.2124
  967MOL0     C27519   1.213   6.328   9.057 -0.2296  0.5763  0.5094
  967MOL0     O27520   1.116   6.264   8.979 -0.2548 -0.3727  0.2256
  967MOL0     C27521   1.129   6.272   8.833 -0.2515  0.1423 -0.4898
  967MOL0     C27522   1.263   6.204   8.794 -0.0748  0.0467  0.4756
  967MOL0     C27523   1.283   6.175   8.648  0.2972  1.0287 -0.5116
  967MOL0     C27524   1.336   6.300   8.587 -0.4825 -0.2269 -0.4113
  967MOL0     C27525   1.382   6.262   8.444  0.2678 -0.5253  0.8280
  967MOL0     C27526   1.483   6.352   8.382  0.6056  0.1390  0.8820
  967MOL0     C27527   1.488   6.342   8.228 -0.1746  0.4076  0.4078
  967MOL0     C27528   1.491   6.478   8.159  0.0920  0.7045  0.9739
  967MOL0     N27529   1.568   6.587   8.209  0.1849  0.5253  0.3103
  967MOL0     C27530   1.695   6.578   8.254 -0.4851  0.1527  0.5345
  967MOL0     C27531   1.735   6.706   8.272 -0.5221 -0.1392  1.1602
  967MOL0     C27532   1.882   6.741   8.301  0.2634 -0.1210  0.2089
  967MOL0     C27533   1.978   6.743   8.184  0.8120 -0.5406  0.5111
  967MOL0     C27534   2.083   6.631   8.169  0.3275 -1.1133  0.1864
  967MOL0     C27535   2.025   6.495   8.167 -0.1588 -0.5765 -0.2826
  967MOL0     O27536   2.040   6.426   8.291  0.9135  0.4387 -0.1677
  967MOL0     C27537   1.941   6.328   8.298  0.0205  0.1427 -0.1172
  967MOL0     C27538   1.893   6.253   8.190  0.4659  0.5287  0.0612
  967MOL0     C27539   1.809   6.138   8.215  0.1339  0.2279 -0.4402
  967MOL0     C27540   1.787   6.099   8.341  0.1650 -0.5120 -0.0698
  967MOL0     C27541   1.695   5.992   8.367  0.5326  0.4070 -0.3536
  967MOL0     O27542   1.664   5.970   8.497 -0.6808 -0.9783  0.2054
  967MOL0     C27543   1.597   5.855   8.517 -0.0916  0.2502 -0.2632
  967MOL0     C27544   1.667   5.753   8.584  1.1526 -0.8475  1.2099
  967MOL0     C27545   1.611   5.632   8.613 -0.1176 -0.4194  0.2266
  967MOL0     C27546   1.482   5.596   8.584 -0.1395  0.4771  0.4509
  967MOL0     O27547   1.413   5.480   8.616  0.5844 -0.0416  0.4372
  967MOL0     C27548   1.498   5.373   8.648  0.4350 -0.4046 -0.5100
  967MOL0     C27549   1.426   5.247   8.656 -0.3476  0.5224  0.4273
  967MOL0     C27550   1.343   5.195   8.537 -0.3347  0.3128  1.2448
  967MOL0     C27551   1.435   5.126   8.430 -0.2525  0.4273 -0.4996
  967MOL0     C27552   1.350   5.025   8.356 -0.6521 -0.2953  0.0535
  967MOL0     C27553   1.424   4.956   8.232  0.1608 -1.8108 -0.3186
  967MOL0     C27554   1.443   5.053   8.114  0.3400 -0.8915 -0.9378
  967MOL0     C27555   1.541   5.008   8.004  0.9006  0.6525 -0.1740
  967MOL0    Cl27556   1.692   4.968   8.077 -0.0844 -0.1702 -0.2316
  967MOL0     C27557   1.411   5.697   8.509  0.2307  0.6219 -0.7110
  967MOL0     C27558   1.465   5.830   8.488  0.8805 -0.1864 -0.6640
  967MOL0     O27559   1.659   5.921   8.275 -0.3103  0.1536 -0.1556
  967MOL0     C27560   1.822   6.183   8.448 -0.3939 -0.0206 -0.0098
  967MOL0     C27561   1.904   6.293   8.418 -1.1338 -0.2593 -0.4811
  967MOL0     N27562   1.629   6.782   8.243 -0.4536  0.4305  0.3813
  967MOL0     N27563   1.526   6.714   8.210 -0.3054 -0.8252  0.0103
  967MOL0     C27564   1.248   6.461   9.031  0.5228 -0.3918  0.0163
  967MOL0     C27565   1.329   6.525   9.121  0.0644 -0.6743 -0.6976
  967MOL0     C27566   1.705   6.587   9.386  0.2372  0.9606 -0.3283
  967MOL0     C27567   1.651   6.698   9.453  0.4767  0.2402 -0.7363
  967MOL0     C27568   1.738   6.769   9.544  0.1814 -0.3547  0.3825
  967MOL0     C27569   1.873   6.752   9.547 -0.8798  0.7303 -0.3904
  967MOL0     O27570   1.947   6.847   9.619  0.0957  0.0289  0.4670
  967MOL0     C27571   2.085   6.874   9.591 -0.6730 -0.3488  0.0956
  967MOL0     C27572   2.118   6.896   9.447 -0.3174  0.1401  0.2435
  967MOL0     C27573   2.252   6.960   9.409 -0.3638 -0.0929 -0.0522
  967MOL0     C27574   2.374   6.902   9.480 -0.3389 -0.2498 -0.4437
  967MOL0     C27575   2.401   6.760   9.462  0.6665 -0.7670 -0.6793
  967MOL0     C27576   2.422   6.649   9.415 -0.5962  1.0115 -0.4793
  967MOL0     C27577   1.930   6.648   9.461  0.7138 -0.6019 -0.3135
  967MOL0     C27578   1.849   6.571   9.388  0.2853  0.5369 -0.4329
  967MOL0     H27579   1.410   6.277   9.325  1.8593 -1.2010 -2.4313
  967MOL0     H27580   1.259   6.165   9.182 -0.1955 -0.2621 -1.6787
  967MOL0     H27581   1.111   6.376   8.803 -2.3913  0.0846  0.4433
  967MOL0     H27582   1.043   6.217   8.794 -0.3689  0.0041 -0.0396
  967MOL0     H27583   1.257   6.113   8.853 -4.2155  0.4497  0.9101
  967MOL0     H27584   1.353   6.253   8.833 -0.6496  2.2172 -0.7358
  967MOL0     H27585   1.189   6.150   8.597 -3.2868 -0.1123  5.5641
  967MOL0     H27586   1.351   6.090   8.640 -0.8647  0.2113 -2.4845
  967MOL0     H27587   1.277   6.392   8.578  2.9542  2.2901  0.3038
  967MOL0     H27588   1.420   6.337   8.647 -0.9602 -0.2063  0.2590
  967MOL0     H27589   1.283   6.254   8.398  0.5068 -0.2683  0.2648
  967MOL0     H27590   1.423   6.161   8.443 -0.0712 -0.6980 -1.4585
  967MOL0     H27591   1.584   6.339   8.423  2.2683 -0.3310 -2.9408
  967MOL0     H27592   1.464   6.455   8.411 -1.5081 -0.3975  1.5558
  967MOL0     H27593   1.579   6.284   8.212 -0.3174  0.1335  0.5845
  967MOL0     H27594   1.408   6.277   8.193 -0.2434 -0.4189  1.9938
  967MOL0     H27595   1.390   6.515   8.140  0.7919  2.4794  0.5038
  967MOL0     H27596   1.518   6.451   8.056 -0.1826 -0.5600  1.2140
  967MOL0     H27597   1.755   6.490   8.276  0.4028  0.9415  1.3865
  967MOL0     H27598   1.928   6.671   8.371 -1.0617  0.7795  2.0805
  967MOL0     H27599   1.880   6.830   8.365  1.2280  1.0613 -1.3287
  967MOL0     H27600   2.022   6.843   8.178  0.4469 -0.4503 -1.4500
  967MOL0     H27601   1.907   6.720   8.104 -1.5893 -3.1243  3.1505
  967MOL0     H27602   2.124   6.648   8.069 -3.3288  2.5958 -0.9537
  967MOL0     H27603   2.170   6.635   8.236  0.7870 -3.9654 -0.1128
  967MOL0     H27604   2.085   6.431   8.102 -2.3441 -3.2945  0.1773
  967MOL0     H27605   1.925   6.499   8.123 -0.2269  3.0645 -0.1671
  967MOL0     H27606   1.907   6.282   8.086 -0.3422 -0.7862 -0.4538
  967MOL0     H27607   1.764   6.075   8.138 -1.8897 -0.9013  1.5586
  967MOL0     H27608   1.770   5.779   8.606  1.1655  1.5808 -1.1280
  967MOL0     H27609   1.680   5.569   8.668 -0.3566  1.1010  2.4316
  967MOL0     H27610   1.551   5.387   8.743 -3.6432  1.2729  1.7953
  967MOL0     H27611   1.573   5.364   8.569 -1.1412  2.7409 -2.5850
  967MOL0     H27612   1.346   5.262   8.729 -1.5696  0.0660 -0.7717
  967MOL0     H27613   1.484   5.171   8.711  0.1945  1.0049  0.5342
  967MOL0     H27614   1.278   5.277   8.503 -3.8716 -2.7842 -0.1728
  967MOL0     H27615   1.276   5.117   8.575 -1.3818  0.4255 -0.3075
  967MOL0     H27616   1.475   5.212   8.375  1.8037  0.2626  0.6636
  967MOL0     H27617   1.523   5.089   8.483 -1.5756  1.1799  2.4062
  967MOL0     H27618   1.259   5.075   8.322 -1.5956 -1.3821  0.8910
  967MOL0     H27619   1.325   4.945   8.427  1.1617 -0.4204  0.5895
  967MOL0     H27620   1.368   4.874   8.185  0.3139 -1.6034 -0.8795
  967MOL0     H27621   1.522   4.920   8.263  0.2609 -0.3423  1.1536
  967MOL0     H27622   1.340   5.056   8.077 -0.4408  1.8965  1.1475
  967MOL0     H27623   1.456   5.155   8.150 -2.9089 -0.2520 -1.2098
  967MOL0     H27624   1.543   5.087   7.928 -2.4661  0.1704 -0.9279
  967MOL0     H27625   1.508   4.918   7.951 -0.1783  1.5276 -1.0142
  967MOL0     H27626   1.310   5.663   8.487  0.9024 -3.7345  1.7429
  967MOL0     H27627   1.413   5.910   8.437 -2.6854 -1.0556  1.2435
  967MOL0     H27628   1.802   6.159   8.551  1.1631 -0.5617  0.1801
  967MOL0     H27629   1.942   6.347   8.504  0.8942 -0.8240 -0.9603
  967MOL0     H27630   1.202   6.524   8.955 -3.0728 -2.3569  0.3380
  967MOL0     H27631   1.329   6.633   9.122  2.2074 -0.5097 -3.9954
  967MOL0     H27632   1.548   6.726   9.435  0.0382 -1.9175 -1.9174
  967MOL0     H27633   1.685   6.851   9.591  1.1705  0.5113  0.0364
  967MOL0     H27634   2.155   6.803   9.636  1.2036  1.6389  0.4785
  967MOL0     H27635   2.106   6.972   9.635  0.7562  0.0264 -1.3339
  967MOL0     H27636   2.119   6.807   9.382 -2.3706  1.2401 -1.4104
  967MOL0     H27637   2.038   6.966   9.422 -0.4832  0.5004  1.7139
  967MOL0     H27638   2.233   7.067   9.423  1.8357  0.9512 -3.6410
  967MOL0     H27639   2.287   6.951   9.306  1.2443  1.4596  0.3079
  967MOL0     H27640   2.461   6.966   9.462 -0.9882  1.0008  0.6373
  967MOL0     H27641   2.356   6.925   9.585  1.3569  6.6405 -1.1564
  967MOL0     H27642   2.447   6.547   9.392 -2.9280 -1.8994  6.7089
  967MOL0     H27643   2.035   6.623   9.450  0.2546 -1.8814 -2.2144
  967MOL0     H27644   1.894   6.496   9.324 -2.3012 -3.0220  1.5340
  968MOL0     O27645   1.777   7.419   4.189  0.5424  0.5901  0.0648
  968MOL0     C27646   1.787   7.398   4.069 -0.3565  0.0182 -0.5473
  968MOL0     O27647   1.906   7.369   4.009  0.1429 -0.4472 -0.1619
  968MOL0     C27648   2.035   7.387   4.063  0.5188  0.4241 -0.1141
  968MOL0     C27649   2.136   7.302   4.009 -0.2503  0.1743  0.6616
  968MOL0     C27650   2.265   7.304   4.047  0.3002 -0.0648 -0.8954
  968MOL0     C27651   2.305   7.382   4.155 -0.9328  0.5465  0.0460
  968MOL0     O27652   2.445   7.373   4.180  0.0219  0.6095  0.2176
  968MOL0     C27653   2.501   7.398   4.308 -0.4511 -0.3324 -0.6199
  968MOL0     C27654   2.431   7.306   4.416  0.0901 -0.4163  0.0508
  968MOL0     C27655   2.465   7.338   4.566  0.2515  0.2237  0.7435
  968MOL0     C27656   2.354   7.271   4.661  0.4405 -0.2661  0.6284
  968MOL0     C27657   2.384   7.296   4.807 -0.6924 -0.3333  0.1918
  968MOL0     C27658   2.316   7.427   4.844 -0.1200 -0.0105 -0.6570
  968MOL0     C27659   2.324   7.469   4.985  0.0417 -0.2907 -0.0145
  968MOL0     C27660   2.281   7.615   5.001  0.6160  0.9900 -0.5838
  968MOL0     N27661   2.134   7.640   5.011  0.1917  1.0666  1.2918
  968MOL0     C27662   2.040   7.602   5.104  0.2134  0.3671  0.1837
  968MOL0     C27663   1.921   7.631   5.054 -0.6023 -1.2719 -0.7331
  968MOL0     C27664   1.789   7.609   5.119 -0.9388 -0.2765  0.6718
  968MOL0     C27665   1.772   7.460   5.153  0.5900 -0.1013 -0.3814
  968MOL0     C27666   1.720   7.357   5.044  0.8121 -0.1427  0.3335
  968MOL0     C27667   1.692   7.211   5.084 -0.1366  0.3092 -0.0766
  968MOL0     O27668   1.582   7.153   5.015  0.2097 -0.3068 -0.2445
  968MOL0     C27669   1.524   7.037   5.060  0.1915 -0.2721  0.2582
  968MOL0     C27670   1.556   6.968   5.185 -0.0459  0.3458  0.9706
  968MOL0     C27671   1.478   6.867   5.231  0.1693 -0.7508  0.6653
  968MOL0     C27672   1.363   6.827   5.171  0.1452 -0.7832  0.2588
  968MOL0     C27673   1.261   6.738   5.229 -0.6363  0.5391 -0.1220
  968MOL0     O27674   1.148   6.713   5.151  0.2249 -0.1580  1.0215
  968MOL0     C27675   1.066   6.615   5.196  0.2727 -0.5110 -0.8101
  968MOL0     C27676   0.939   6.653   5.240 -0.3524  0.0687  0.2713
  968MOL0     C27677   0.843   6.564   5.308 -1.4666 -0.5284 -0.2765
  968MOL0     C27678   0.883   6.431   5.320  0.0761 -0.1734 -0.7555
  968MOL0     O27679   0.789   6.348   5.392 -0.6348 -0.1241  1.6587
  968MOL0     C27680   0.835   6.213   5.430  0.0667 -0.0547  0.1516
  968MOL0     C27681   0.779   6.093   5.344 -0.6400 -0.0170 -0.2338
  968MOL0     C27682   0.776   5.966   5.422 -0.9478 -0.2943  0.6997
  968MOL0     C27683   0.917   5.914   5.441  0.4883  0.4005 -1.2716
  968MOL0     C27684   0.900   5.772   5.494  0.1199  0.0124 -0.5529
  968MOL0     C27685   1.037   5.704   5.490  0.0778 -0.1074  0.4001
  968MOL0     C27686   1.024   5.555   5.506 -0.3170 -0.3902  0.0659
  968MOL0     C27687   0.996   5.513   5.652  0.0178  0.7524 -0.0549
  968MOL0    Cl27688   0.995   5.329   5.691  0.1607  0.0747  0.1347
  968MOL0     C27689   1.004   6.387   5.269 -0.1872  0.0451 -0.3250
  968MOL0     C27690   1.098   6.479   5.216  1.1631 -0.5405  0.4119
  968MOL0     O27691   1.272   6.698   5.340  0.4719  0.0292 -0.2560
  968MOL0     C27692   1.334   6.884   5.044  0.7460 -0.5470  0.5073
  968MOL0     C27693   1.420   6.976   4.987  0.5397  0.1181  0.9656
  968MOL0     N27694   1.936   7.693   4.938  0.1149 -0.3913  0.4075
  968MOL0     N27695   2.066   7.706   4.904 -0.6815  0.1698 -0.2362
  968MOL0     C27696   2.209   7.467   4.217  1.5503  0.5245 -0.0679
  968MOL0     C27697   2.071   7.472   4.166  0.0619  0.2124  0.0552
  968MOL0     C27698   1.668   7.410   3.986  0.2840  0.0086 -0.0871
  968MOL0     C27699   1.678   7.389   3.846 -0.4924  0.2689  0.1091
  968MOL0     C27700   1.566   7.408   3.766 -0.0502  0.9155  0.9059
  968MOL0     C27701   1.439   7.438   3.820  0.1532  0.0787 -0.6246
  968MOL0     O27702   1.327   7.459   3.750 -0.1841 -0.4916 -0.0713
  968MOL0     C27703   1.312   7.372   3.631 -0.1032  0.4127 -0.3952
  968MOL0     C27704   1.170   7.328   3.586 -0.4491 -0.4351 -0.4905
  968MOL0     C27705   1.091   7.463   3.561  0.1109  0.1730  0.2556
  968MOL0     C27706   0.942   7.441   3.527 -0.0022 -1.4526  0.8565
  968MOL0     C27707   0.875   7.386   3.642 -1.7296  0.2910  0.8158
  968MOL0     C27708   0.830   7.359   3.747  1.1687 -0.1062  0.1980
  968MOL0     C27709   1.426   7.464   3.957 -0.7214  0.7519  0.0618
  968MOL0     C27710   1.544   7.442   4.039 -0.5541 -0.7382 -0.3890
  968MOL0     H27711   2.091   7.242   3.930  0.4335  0.3255  0.1510
  968MOL0     H27712   2.333   7.233   4.001  0.0930 -1.3905  0.7342
  968MOL0     H27713   2.503   7.504   4.336  1.7865 -1.0366  2.3543
  968MOL0     H27714   2.607   7.370   4.305 -0.0286  1.1215 -0.1234
  968MOL0     H27715   2.439   7.200   4.392 -0.5714 -0.2302 -1.0837
  968MOL0     H27716   2.324   7.329   4.412  0.6527  2.6266  0.0466
  968MOL0     H27717   2.465   7.447   4.570 -1.3669  0.3115 -0.5250
  968MOL0     H27718   2.560   7.290   4.591  0.3044 -0.4825 -0.7274
  968MOL0     H27719   2.265   7.326   4.630  2.3178  3.0708  0.7058
  968MOL0     H27720   2.336   7.166   4.635  3.1791 -0.3115 -1.5632
  968MOL0     H27721   2.493   7.294   4.818 -0.8231 -2.3805  1.8059
  968MOL0     H27722   2.338   7.231   4.882 -2.7837  0.1378 -0.6265
  968MOL0     H27723   2.212   7.404   4.819  0.5838  0.1529 -4.2923
  968MOL0     H27724   2.354   7.496   4.768  0.1287  0.6337  0.0518
  968MOL0     H27725   2.263   7.397   5.041  1.2317 -2.2631 -1.1309
  968MOL0     H27726   2.428   7.458   5.015  0.4000 -1.5944 -1.5960
  968MOL0     H27727   2.310   7.672   4.912  0.1538  1.8752 -0.1856
  968MOL0     H27728   2.321   7.647   5.097 -1.1189 -0.6002  0.7513
  968MOL0     H27729   2.063   7.553   5.198 -1.4746 -1.2845 -0.2108
  968MOL0     H27730   1.706   7.659   5.069  0.6262  3.7554  1.6330
  968MOL0     H27731   1.784   7.652   5.219  0.8633 -1.7266  1.4590
  968MOL0     H27732   1.683   7.458   5.217  0.9802  2.2795  0.3277
  968MOL0     H27733   1.865   7.420   5.193  1.9161  1.6821 -1.5197
  968MOL0     H27734   1.632   7.400   4.994  2.3387  4.2277  0.9716
  968MOL0     H27735   1.798   7.354   4.968  0.7978 -2.4576  0.3386
  968MOL0     H27736   1.694   7.204   5.193  0.1092  0.1494 -0.0906
  968MOL0     H27737   1.782   7.157   5.051 -0.1805 -0.6666  1.3084
  968MOL0     H27738   1.639   7.000   5.247 -0.5983  1.3970  1.1717
  968MOL0     H27739   1.503   6.813   5.322  0.8989 -1.0506  0.2905
  968MOL0     H27740   0.918   6.759   5.243 -0.8881 -0.0139 -0.3125
  968MOL0     H27741   0.758   6.606   5.360 -2.1551 -2.4024  0.2062
  968MOL0     H27742   0.797   6.189   5.529 -0.3607 -1.4347 -0.3165
  968MOL0     H27743   0.943   6.207   5.448  0.1647  1.2598  0.0963
  968MOL0     H27744   0.844   6.085   5.256  0.5589 -0.7402  0.6987
  968MOL0     H27745   0.679   6.122   5.309 -1.7885 -1.6109  1.5528
  968MOL0     H27746   0.724   5.889   5.364 -0.5324 -0.9748  1.2063
  968MOL0     H27747   0.722   5.982   5.515  0.5811  2.0606  1.2776
  968MOL0     H27748   0.972   5.918   5.346  1.9158  0.4689 -0.4786
  968MOL0     H27749   0.975   5.981   5.505 -0.3789  0.9091 -0.9974
  968MOL0     H27750   0.829   5.713   5.435  1.5910 -1.2700 -1.1242
  968MOL0     H27751   0.869   5.777   5.599  3.7230  2.2633  0.5667
  968MOL0     H27752   1.111   5.736   5.564  1.7968 -2.6485 -0.0737
  968MOL0     H27753   1.079   5.719   5.390 -2.2274 -1.3587 -0.8481
  968MOL0     H27754   0.954   5.517   5.431 -0.6737  0.0044  0.1944
  968MOL0     H27755   1.123   5.512   5.493  0.3678  0.3370  2.3657
  968MOL0     H27756   0.896   5.553   5.670 -1.2196 -2.3109  0.5468
  968MOL0     H27757   1.062   5.560   5.724  1.3470 -0.9843 -0.0680
  968MOL0     H27758   1.038   6.284   5.274  3.1302  0.9076 -2.3054
  968MOL0     H27759   1.195   6.442   5.182  1.9216  0.2992  1.5940
  968MOL0     H27760   1.249   6.850   4.986  0.7817  2.2629 -1.3914
  968MOL0     H27761   1.417   7.020   4.887  2.8121  0.5352  1.0428
  968MOL0     H27762   2.227   7.532   4.302 -4.5430 -1.4840  3.3883
  968MOL0     H27763   2.001   7.549   4.198 -0.4011 -0.7918  1.5834
  968MOL0     H27764   1.768   7.354   3.796 -0.3411 -0.9511  1.1828
  968MOL0     H27765   1.580   7.398   3.659 -2.4917 -0.5880  0.6493
  968MOL0     H27766   1.378   7.285   3.639  0.9993  1.3103  0.8958
  968MOL0     H27767   1.352   7.433   3.550  1.7482  0.5617  0.5572
  968MOL0     H27768   1.177   7.276   3.490 -4.0364 -2.7753  0.3068
  968MOL0     H27769   1.123   7.269   3.665 -1.2949 -1.0168 -1.4124
  968MOL0     H27770   1.142   7.523   3.485 -0.2736  0.2590  0.0626
  968MOL0     H27771   1.088   7.522   3.652  0.2607  0.2751  0.1940
  968MOL0     H27772   0.896   7.540   3.516  3.0503 -0.0236 -0.3240
  968MOL0     H27773   0.920   7.396   3.429 -2.2808  2.7895 -0.8732
  968MOL0     H27774   0.809   7.338   3.850 -1.8925  3.6038  0.5393
  968MOL0     H27775   1.334   7.501   4.000 -1.3027 -1.3971  0.8093
  968MOL0     H27776   1.540   7.459   4.146  0.7168 -1.6022 -0.1780
  969MOL0     O27777  10.015   1.080   9.709  0.8154 -0.1853 -0.5021
  969MOL0     C27778  10.098   1.128   9.637 -0.7980  0.5614 -0.2541
  969MOL0     O27779  10.088   1.232   9.547 -0.8648  0.5968  0.6589
  969MOL0     C27780   9.964   1.263   9.506 -0.1399 -0.8122 -0.3958
  969MOL0     C27781   9.965   1.391   9.446  0.1711 -0.0581 -0.7204
  969MOL0     C27782   9.848   1.444   9.397  0.4649 -0.1666  0.2406
  969MOL0     C27783   9.727   1.371   9.400 -0.3070 -0.1204  0.6005
  969MOL0     O27784   9.610   1.405   9.323 -0.1449  0.2054  0.3031
  969MOL0     C27785   9.616   1.526   9.251  0.7906 -0.2385 -0.1004
  969MOL0     C27786   9.482   1.567   9.188  1.2606 -0.6546  0.2397
  969MOL0     C27787   9.357   1.577   9.276  0.1153 -0.3319  0.2309
  969MOL0     C27788   9.229   1.618   9.200  0.3632  0.5043  0.5307
  969MOL0     C27789   9.149   1.497   9.145 -0.1808  0.0365 -0.3547
  969MOL0     C27790   9.018   1.542   9.077 -0.4029 -0.4539  0.1281
  969MOL0     C27791   8.934   1.431   9.014  0.1632  0.5387 -0.5899
  969MOL0     C27792   8.817   1.494   8.927 -0.0161  0.0762 -1.1771
  969MOL0     N27793   8.726   1.382   8.901  0.2808  0.7618  0.3505
  969MOL0     C27794   8.613   1.346   8.979  0.2252 -1.1044 -0.0574
  969MOL0     C27795   8.536   1.268   8.901 -0.5157 -0.4063 -0.8200
  969MOL0     C27796   8.414   1.195   8.936  0.1110  0.1290 -0.6228
  969MOL0     C27797   8.444   1.085   9.035  0.3645  0.1920 -0.1815
  969MOL0     C27798   8.505   0.951   8.981  0.0508  0.3354  0.0759
  969MOL0     C27799   8.409   0.862   8.899 -0.8934  0.3115  0.0838
  969MOL0     O27800   8.471   0.827   8.776 -0.1057 -0.0955  0.1097
  969MOL0     C27801   8.415   0.887   8.663 -0.5667  0.7776 -0.4365
  969MOL0     C27802   8.475   1.003   8.618 -0.9170  0.2523 -0.7572
  969MOL0     C27803   8.425   1.072   8.508 -0.9523 -0.1071 -0.0899
  969MOL0     C27804   8.305   1.032   8.443 -0.0923 -0.0834 -0.3490
  969MOL0     C27805   8.248   1.118   8.339 -0.0029  0.0933  0.0721
  969MOL0     O27806   8.159   1.064   8.253  0.7562  0.9515  0.0328
  969MOL0     C27807   8.126   1.135   8.143 -0.0943  0.0384  0.2363
  969MOL0     C27808   8.184   1.115   8.022  0.1156 -0.0856 -0.6758
  969MOL0     C27809   8.148   1.188   7.907  0.1272  0.6489  0.3589
  969MOL0     C27810   8.059   1.296   7.914 -0.2610  0.0533 -0.2430
  969MOL0     O27811   8.025   1.371   7.809  0.5137  0.8855  0.2429
  969MOL0     C27812   8.069   1.324   7.676 -0.4584  1.0425 -0.4167
  969MOL0     C27813   7.982   1.394   7.567 -0.1534  0.4777 -0.2346
  969MOL0     C27814   7.982   1.346   7.422 -0.1128  0.0994  0.4544
  969MOL0     C27815   8.120   1.302   7.376  0.1945 -0.9125 -0.4587
  969MOL0     C27816   8.124   1.287   7.224 -0.2580 -0.2677 -0.3036
  969MOL0     C27817   8.073   1.398   7.136 -0.4464 -0.0877 -0.0749
  969MOL0     C27818   8.116   1.378   6.993  0.0218 -0.4064 -0.5713
  969MOL0     C27819   8.013   1.445   6.905  0.3195 -0.8986  0.1669
  969MOL0    Cl27820   8.077   1.419   6.749 -0.4067  0.3480  0.1322
  969MOL0     C27821   8.012   1.325   8.044 -0.3108  0.2649  0.3304
  969MOL0     C27822   8.041   1.245   8.152 -0.0114  0.1422  0.3582
  969MOL0     O27823   8.303   1.228   8.318  0.0959  0.9079 -0.7842
  969MOL0     C27824   8.242   0.914   8.488  0.0352  0.6811 -0.3360
  969MOL0     C27825   8.296   0.843   8.600 -0.1983 -0.6821 -1.3986
  969MOL0     N27826   8.590   1.258   8.777  0.2085  0.6258 -0.2700
  969MOL0     N27827   8.696   1.330   8.780  0.6584  0.2671 -0.0042
  969MOL0     C27828   9.719   1.253   9.460 -0.5668 -0.4869 -0.6224
  969MOL0     C27829   9.839   1.200   9.514  0.2271 -0.0191 -0.3133
  969MOL0     C27830  10.239   1.086   9.677  0.4294  0.0780 -0.0977
  969MOL0     C27831  10.350   1.163   9.635  0.0597 -0.6425  1.1592
  969MOL0     C27832  10.477   1.133   9.678 -0.3006  0.0331 -0.2001
  969MOL0     C27833  10.498   1.041   9.777  0.5698 -0.2353  0.1949
  969MOL0     O27834  10.615   1.014   9.826 -0.4712 -0.4232 -0.0326
  969MOL0     C27835  10.701   0.943   9.736  0.1696  0.1624  0.5154
  969MOL0     C27836  10.744   0.815   9.804 -0.1833  0.3017  1.4569
  969MOL0     C27837  10.755   0.818   9.957 -0.1391 -0.1759 -0.1715
  969MOL0     C27838  10.802   0.684  10.005 -0.0811  0.6005 -1.3996
  969MOL0     C27839  10.942   0.637   9.995 -0.1372 -1.0104  0.1255
  969MOL0     C27840  11.052   0.603   9.987  0.0452  0.1819  0.1061
  969MOL0     C27841  10.397   0.966   9.823  0.1864 -0.6537 -0.0808
  969MOL0     C27842  10.267   0.981   9.768 -0.2116 -0.0976 -0.0950
  969MOL0     H27843  10.064   1.431   9.427  0.7256 -1.7398 -1.5248
  969MOL0     H27844   9.875   1.531   9.339 -0.2698 -0.9133 -1.2639
  969MOL0     H27845   9.689   1.513   9.170  1.9498  0.9430  0.7228
  969MOL0     H27846   9.649   1.598   9.326  1.9700 -2.6442  1.8505
  969MOL0     H27847   9.460   1.482   9.122 -0.7189  0.2820 -0.3812
  969MOL0     H27848   9.496   1.657   9.128  1.1507 -0.0509  1.1081
  969MOL0     H27849   9.394   1.664   9.332  4.8355 -0.9267 -1.5730
  969MOL0     H27850   9.350   1.494   9.347  2.0238  0.9281  2.0032
  969MOL0     H27851   9.166   1.663   9.277  2.8425  2.5963  1.4907
  969MOL0     H27852   9.256   1.695   9.127 -0.5925  1.9661  1.6605
  969MOL0     H27853   9.107   1.439   9.228  1.5672 -0.3499  0.3064
  969MOL0     H27854   9.216   1.440   9.079  2.7051 -0.3778  2.6323
  969MOL0     H27855   9.037   1.620   9.003 -1.5615 -0.1501  0.1282
  969MOL0     H27856   8.957   1.577   9.161  0.6956 -4.0050  2.6179
  969MOL0     H27857   8.997   1.371   8.947 -0.3389  0.5468 -1.0826
  969MOL0     H27858   8.893   1.374   9.098  0.8551  1.0296  0.0906
  969MOL0     H27859   8.866   1.528   8.836 -1.7579 -0.0705 -2.2158
  969MOL0     H27860   8.765   1.581   8.968  1.4894  1.0691 -1.2844
  969MOL0     H27861   8.595   1.368   9.084  1.5447  0.3726 -0.0956
  969MOL0     H27862   8.369   1.146   8.849  1.3848  0.8198 -1.7059
  969MOL0     H27863   8.343   1.265   8.980 -1.3551 -0.9027 -1.2528
  969MOL0     H27864   8.346   1.060   9.077  0.5238  1.1125  0.8099
  969MOL0     H27865   8.490   1.120   9.129 -1.8182 -0.8583  1.3755
  969MOL0     H27866   8.584   0.966   8.907  1.5520  0.3742  1.6342
  969MOL0     H27867   8.554   0.895   9.061 -1.1816 -0.3102  0.4050
  969MOL0     H27868   8.313   0.915   8.892 -0.4542  1.0967 -0.1175
  969MOL0     H27869   8.407   0.767   8.953 -1.3187 -1.7369 -3.2762
  969MOL0     H27870   8.560   1.041   8.673  1.2607 -2.0879 -2.2416
  969MOL0     H27871   8.484   1.155   8.471 -0.8215 -0.3731 -0.4857
  969MOL0     H27872   8.260   1.039   8.009 -1.1031 -1.1172 -2.2479
  969MOL0     H27873   8.199   1.170   7.814  0.8852 -3.5732  1.3827
  969MOL0     H27874   8.053   1.216   7.671  0.6381  0.7900  0.8047
  969MOL0     H27875   8.175   1.347   7.669  0.4563 -0.8649  3.8485
  969MOL0     H27876   8.023   1.494   7.582  2.6579 -0.7415  0.9172
  969MOL0     H27877   7.876   1.394   7.594 -1.0748 -0.8141 -3.3674
  969MOL0     H27878   7.935   1.423   7.359  0.4334 -2.0711 -2.8221
  969MOL0     H27879   7.926   1.253   7.407  3.1043 -1.8778 -0.1916
  969MOL0     H27880   8.200   1.370   7.407  0.0822 -1.8834  2.2374
  969MOL0     H27881   8.139   1.206   7.425  0.2466 -1.2519 -1.1246
  969MOL0     H27882   8.057   1.206   7.192  1.0275 -1.0617 -1.0758
  969MOL0     H27883   8.230   1.272   7.204 -0.0377 -0.6774  1.0782
  969MOL0     H27884   8.111   1.499   7.158 -0.0813  0.5127 -3.0904
  969MOL0     H27885   7.964   1.405   7.149 -0.5848  2.5702 -1.9254
  969MOL0     H27886   8.213   1.420   6.963 -0.8844  0.2190 -2.8227
  969MOL0     H27887   8.125   1.270   6.974 -3.1917 -0.9259  0.3793
  969MOL0     H27888   8.009   1.553   6.926  0.9879 -0.6895 -0.6997
  969MOL0     H27889   7.910   1.408   6.911 -0.2623  0.4725 -0.5950
  969MOL0     H27890   7.942   1.408   8.039  1.0484  1.5489  1.6159
  969MOL0     H27891   7.999   1.262   8.250  2.1098 -1.1006  1.5627
  969MOL0     H27892   8.166   0.870   8.424 -2.3258 -0.2721  2.8816
  969MOL0     H27893   8.267   0.748   8.644 -3.6615  0.5345 -0.7828
  969MOL0     H27894   9.619   1.212   9.470 -1.8575  2.4816 -0.3072
  969MOL0     H27895   9.836   1.097   9.546  3.3951 -0.0111  0.3090
  969MOL0     H27896  10.333   1.239   9.561  3.9282 -1.6704 -1.0506
  969MOL0     H27897  10.562   1.185   9.637 -0.5734 -0.2358 -1.1195
  969MOL0     H27898  10.797   0.996   9.731  0.3894 -0.0428  2.0011
  969MOL0     H27899  10.655   0.923   9.639 -2.4042  0.0914  1.6548
  969MOL0     H27900  10.671   0.740   9.772  1.8653 -0.7385 -1.1079
  969MOL0     H27901  10.834   0.781   9.752 -1.2619 -1.3701  0.5814
  969MOL0     H27902  10.667   0.836  10.018 -0.7253 -1.6631 -0.5391
  969MOL0     H27903  10.831   0.892   9.986  1.2735 -2.3237  1.9576
  969MOL0     H27904  10.796   0.690  10.115  4.9631  1.1412 -0.9549
  969MOL0     H27905  10.738   0.600   9.975  3.4252 -2.1730 -1.7064
  969MOL0     H27906  11.157   0.581   9.980 -0.1125 -1.3399  1.9610
  969MOL0     H27907  10.398   0.890   9.900 -1.2707 -0.7332 -0.1118
  969MOL0     H27908  10.179   0.940   9.818 -0.4584 -0.6960 -0.9939
  970MOL0     O27909   6.000   5.232   1.274  0.0752 -0.3978 -0.7967
  970MOL0     C27910   6.067   5.297   1.195  0.4193 -0.4976  0.1232
  970MOL0     O27911   6.199   5.339   1.213 -0.1845  0.8535 -0.1759
  970MOL0     C27912   6.254   5.279   1.326 -0.6889 -0.5601  0.0774
  970MOL0     C27913   6.313   5.153   1.320  0.1943 -0.0111  0.1442
  970MOL0     C27914   6.355   5.087   1.440  0.5272 -0.6719 -0.1788
  970MOL0     C27915   6.347   5.159   1.564 -0.2242  0.6237  0.5344
  970MOL0     O27916   6.389   5.093   1.677 -0.2707  0.0273 -0.0632
  970MOL0     C27917   6.317   5.105   1.797  0.2316  0.2814  0.4123
  970MOL0     C27918   6.389   5.007   1.894 -0.9915  0.6871 -0.3674
  970MOL0     C27919   6.324   4.977   2.027 -0.0346  0.0876  0.0802
  970MOL0     C27920   6.296   5.110   2.104 -1.3416  0.4504  0.1129
  970MOL0     C27921   6.248   5.065   2.236  0.2092 -0.7242 -0.0159
  970MOL0     C27922   6.193   5.191   2.310 -0.2103  0.1743 -0.8066
  970MOL0     C27923   6.115   5.157   2.443  0.1089  0.0404 -0.2348
  970MOL0     C27924   6.205   5.117   2.554  0.2176  0.0283 -0.2173
  970MOL0     N27925   6.273   5.219   2.626 -0.1080 -0.1129 -0.4800
  970MOL0     C27926   6.224   5.335   2.681 -0.1273 -0.4842  0.7853
  970MOL0     C27927   6.310   5.439   2.648  1.1585  0.6404  0.5343
  970MOL0     C27928   6.296   5.582   2.692 -0.6384  0.0560  0.8505
  970MOL0     C27929   6.376   5.613   2.826  0.0771  0.1505  0.3946
  970MOL0     C27930   6.357   5.754   2.869  0.0736 -0.7885  0.5969
  970MOL0     C27931   6.444   5.853   2.782  0.5438  1.2937  0.0935
  970MOL0     O27932   6.419   5.996   2.787 -0.1522 -0.3785 -0.7883
  970MOL0     C27933   6.487   6.077   2.696  0.0780 -0.2326 -0.7695
  970MOL0     C27934   6.424   6.175   2.623  0.3038 -0.6368 -0.2704
  970MOL0     C27935   6.485   6.239   2.515  0.0649  1.2873 -0.1966
  970MOL0     C27936   6.620   6.210   2.489 -0.4100 -0.3442 -0.3601
  970MOL0     C27937   6.688   6.270   2.368  0.1941  0.4091  0.2171
  970MOL0     O27938   6.815   6.243   2.352 -0.5319  0.6878 -1.0225
  970MOL0     C27939   6.885   6.295   2.247  0.2690  0.7044  0.5595
  970MOL0     C27940   6.969   6.402   2.253 -0.4468  0.0520  0.6123
  970MOL0     C27941   7.027   6.444   2.130 -0.1925  0.3817  0.8909
  970MOL0     C27942   7.022   6.360   2.018  0.4070 -0.1955  0.1343
  970MOL0     O27943   7.101   6.400   1.909 -1.1638 -0.1164  0.1601
  970MOL0     C27944   7.038   6.403   1.782  0.6626 -0.1763  0.0775
  970MOL0     C27945   6.918   6.508   1.762 -0.2226  1.3687  0.0711
  970MOL0     C27946   6.866   6.513   1.613 -0.6895  0.3042 -0.3398
  970MOL0     C27947   6.728   6.582   1.628 -0.1308  0.4419  0.2023
  970MOL0     C27948   6.702   6.626   1.482 -0.1062  0.2951 -0.5482
  970MOL0     C27949   6.553   6.666   1.455 -0.1238  0.0508  0.5914
  970MOL0     C27950   6.540   6.697   1.303  1.1055  0.1400  0.1213
  970MOL0     C27951   6.605   6.826   1.258  0.1078  0.9054 -0.0371
  970MOL0    Cl27952   6.507   6.958   1.308  0.3815 -0.3271 -0.5826
  970MOL0     C27953   6.954   6.239   2.016  0.7262 -0.6996  0.4516
  970MOL0     C27954   6.890   6.206   2.135 -0.5403 -0.3206  0.2036
  970MOL0     O27955   6.627   6.336   2.296 -0.7422 -0.1257  0.1838
  970MOL0     C27956   6.686   6.106   2.567  0.0449 -0.0151  0.1957
  970MOL0     C27957   6.616   6.047   2.667 -0.3252  0.1300 -1.0441
  970MOL0     N27958   6.423   5.373   2.602 -0.2450 -0.4336 -0.1893
  970MOL0     N27959   6.403   5.240   2.588 -0.2059 -0.0220  0.1948
  970MOL0     C27960   6.286   5.287   1.570  0.2633  0.2811  0.4233
  970MOL0     C27961   6.231   5.345   1.454 -0.3530  0.4738 -0.9586
  970MOL0     C27962   5.991   5.358   1.084  1.1171 -0.0597  0.0330
  970MOL0     C27963   6.049   5.400   0.969 -0.5945 -0.2789  0.0690
  970MOL0     C27964   5.991   5.483   0.864  0.3190 -0.1537  0.2146
  970MOL0     C27965   5.855   5.519   0.875 -0.4523  1.1238  0.7399
  970MOL0     O27966   5.801   5.600   0.775 -0.2318 -0.6659 -0.6876
  970MOL0     C27967   5.692   5.680   0.818  0.1409  1.0275  1.2817
  970MOL0     C27968   5.649   5.746   0.688  0.6038  0.3851 -0.6635
  970MOL0     C27969   5.678   5.894   0.683  0.1735  0.7984 -0.8935
  970MOL0     C27970   5.615   5.971   0.570 -0.5578  0.3877  0.1059
  970MOL0     C27971   5.472   5.967   0.562 -0.8230  0.7607 -0.1691
  970MOL0     C27972   5.353   5.967   0.576  0.9664  0.4328  0.0431
  970MOL0     C27973   5.791   5.481   0.994  0.2814 -0.2830  0.4884
  970MOL0     C27974   5.856   5.399   1.093 -0.2728 -0.0822 -0.2347
  970MOL0     H27975   6.310   5.097   1.227  0.0668  0.0302  0.1227
  970MOL0     H27976   6.392   4.986   1.432 -2.4277 -2.1502  2.5715
  970MOL0     H27977   6.212   5.076   1.789 -0.0438  1.4826 -0.6382
  970MOL0     H27978   6.313   5.204   1.842  1.6870  0.2818  0.6090
  970MOL0     H27979   6.492   5.035   1.920 -1.4706  1.9516  0.2868
  970MOL0     H27980   6.398   4.908   1.850 -3.3929 -0.0216  0.6149
  970MOL0     H27981   6.391   4.909   2.082  1.6108 -0.3415 -2.2956
  970MOL0     H27982   6.233   4.919   2.008  0.9647 -1.3928 -0.4211
  970MOL0     H27983   6.385   5.172   2.107 -1.0040  0.1015 -1.8109
  970MOL0     H27984   6.208   5.161   2.065 -0.2284  1.6899 -0.8408
  970MOL0     H27985   6.336   5.034   2.293  2.7337  2.1302 -1.9501
  970MOL0     H27986   6.174   4.986   2.224 -2.1087  1.4449 -0.9789
  970MOL0     H27987   6.127   5.252   2.249 -0.8085  3.5025  2.7680
  970MOL0     H27988   6.270   5.264   2.336 -1.6588  1.3554  0.3684
  970MOL0     H27989   6.066   5.247   2.481 -0.2854 -0.0179 -0.5984
  970MOL0     H27990   6.045   5.075   2.424  1.3224 -0.3617 -3.7737
  970MOL0     H27991   6.270   5.031   2.531 -0.1572 -0.5078  0.6623
  970MOL0     H27992   6.137   5.070   2.625 -1.1348 -2.6102 -3.0261
  970MOL0     H27993   6.126   5.356   2.722 -0.1962  2.1041 -0.4672
  970MOL0     H27994   6.194   5.616   2.709 -0.7984 -1.1468  2.4936
  970MOL0     H27995   6.346   5.634   2.610 -0.8634  0.7692  1.1628
  970MOL0     H27996   6.480   5.585   2.810 -0.4080 -2.0349  0.7351
  970MOL0     H27997   6.338   5.555   2.911 -0.0483  2.5346  2.0827
  970MOL0     H27998   6.252   5.779   2.850  0.3487 -1.8890 -3.4992
  970MOL0     H27999   6.391   5.769   2.972  1.1485 -0.9902  0.2848
  970MOL0     H28000   6.437   5.819   2.678 -0.0393 -2.2753  1.1389
  970MOL0     H28001   6.543   5.834   2.823  0.9892 -0.4585 -1.6173
  970MOL0     H28002   6.330   6.219   2.656  0.8991  2.3947 -2.2075
  970MOL0     H28003   6.447   6.324   2.460  1.6127  1.8378 -0.4747
  970MOL0     H28004   6.995   6.455   2.344  0.7745  0.3390  0.1205
  970MOL0     H28005   7.095   6.529   2.131 -1.2272  1.2345  0.3666
  970MOL0     H28006   6.997   6.305   1.757  0.1063  0.1977 -0.4960
  970MOL0     H28007   7.117   6.420   1.709  0.4632  2.2320  0.3550
  970MOL0     H28008   6.955   6.605   1.796  4.4498  0.6671 -2.1337
  970MOL0     H28009   6.841   6.468   1.829  0.7792  1.7025  1.4756
  970MOL0     H28010   6.846   6.416   1.567 -0.3526  0.2407 -0.3556
  970MOL0     H28011   6.935   6.568   1.548  0.4322  0.0003  0.5644
  970MOL0     H28012   6.659   6.502   1.653  0.8744 -2.4358 -4.8660
  970MOL0     H28013   6.737   6.671   1.691 -2.4340  0.5305  0.4850
  970MOL0     H28014   6.722   6.540   1.417 -0.2040 -0.4497  0.3901
  970MOL0     H28015   6.771   6.709   1.464  1.1623 -0.4235  0.8105
  970MOL0     H28016   6.535   6.751   1.520 -2.9105 -0.4281  0.5793
  970MOL0     H28017   6.478   6.592   1.486 -2.4894  2.6718  1.5851
  970MOL0     H28018   6.583   6.613   1.247  0.8323  0.4420 -0.5452
  970MOL0     H28019   6.439   6.693   1.263  1.2389 -0.7869 -0.1393
  970MOL0     H28020   6.622   6.837   1.151 -0.5658 -0.2914 -0.2710
  970MOL0     H28021   6.701   6.840   1.309  1.9155  2.6233 -3.5204
  970MOL0     H28022   6.962   6.166   1.936 -1.3560 -0.7411  0.2215
  970MOL0     H28023   6.844   6.110   2.159 -1.1986  0.1139  0.7259
  970MOL0     H28024   6.790   6.079   2.550  0.1121  0.2780  0.1417
  970MOL0     H28025   6.672   5.976   2.728 -1.9206  2.0929  3.1229
  970MOL0     H28026   6.272   5.338   1.665 -2.4024 -1.4448  1.0748
  970MOL0     H28027   6.186   5.443   1.465  0.8568  0.7488  2.4560
  970MOL0     H28028   6.157   5.387   0.967 -0.7077 -1.2353 -0.5052
  970MOL0     H28029   6.048   5.502   0.774 -0.3845  1.4478  0.0686
  970MOL0     H28030   5.732   5.756   0.885  1.6360  1.5365 -0.1107
  970MOL0     H28031   5.616   5.617   0.865  0.3489  1.0612  1.6670
  970MOL0     H28032   5.692   5.693   0.603 -0.5214  3.1450 -3.1475
  970MOL0     H28033   5.540   5.732   0.688  0.4309  1.5017  0.8132
  970MOL0     H28034   5.785   5.910   0.668 -0.0265  0.0318 -3.5881
  970MOL0     H28035   5.645   5.950   0.771  4.5040 -0.2089  1.7149
  970MOL0     H28036   5.645   6.075   0.582  2.2497 -0.4403  0.8452
  970MOL0     H28037   5.643   5.937   0.469 -1.6479  1.1839 -0.4857
  970MOL0     H28038   5.249   5.991   0.564  0.6958 -0.7072 -0.0388
  970MOL0     H28039   5.689   5.510   1.019 -0.5480 -0.5334 -2.3278
  970MOL0     H28040   5.806   5.367   1.183 -2.2932 -0.7964 -1.5314
  971MOL0     O28041   9.810  10.849   0.654  0.6818 -0.7681  0.3266
  971MOL0     C28042   9.768  10.877   0.540  0.7084 -0.4868 -0.4917
  971MOL0     O28043   9.672  10.973   0.519 -0.1471 -0.4388 -0.6400
  971MOL0     C28044   9.602  11.022   0.626 -0.4736 -0.4757  0.1080
  971MOL0     C28045   9.669  11.112   0.717  0.0468 -0.1759 -0.4882
  971MOL0     C28046   9.593  11.167   0.820  0.2149  0.4981 -0.3833
  971MOL0     C28047   9.460  11.136   0.837 -0.6220 -0.2710 -0.3726
  971MOL0     O28048   9.386  11.186   0.938 -0.6022  0.2602 -0.2173
  971MOL0     C28049   9.452  11.253   1.046  0.4680 -0.1416  0.4658
  971MOL0     C28050   9.348  11.271   1.148  1.4399 -0.7740  0.0141
  971MOL0     C28051   9.391  11.362   1.266 -0.1525 -0.7673 -0.3576
  971MOL0     C28052   9.268  11.406   1.352  1.0042 -0.7242 -0.1870
  971MOL0     C28053   9.306  11.491   1.474 -0.3786 -0.0493 -0.3668
  971MOL0     C28054   9.398  11.418   1.571  0.5299 -0.8924 -0.4954
  971MOL0     C28055   9.339  11.279   1.624 -0.5510 -0.9259 -0.1945
  971MOL0     C28056   9.449  11.210   1.701 -0.1228 -0.1797 -0.9301
  971MOL0     N28057   9.562  11.153   1.619  0.4458 -0.2529 -0.0848
  971MOL0     C28058   9.559  11.047   1.525  0.6297  0.5897 -0.3542
  971MOL0     C28059   9.683  11.046   1.470  0.2350 -0.1965  0.0535
  971MOL0     C28060   9.727  10.934   1.378 -0.4634 -0.0068  1.2444
  971MOL0     C28061   9.656  10.948   1.241  0.6552  0.7783  0.1289
  971MOL0     C28062   9.690  10.819   1.153 -0.2735  0.2775  0.6192
  971MOL0     C28063   9.585  10.699   1.185 -1.1056 -0.6304  0.6389
  971MOL0     O28064   9.611  10.597   1.093  0.5950  1.2549  0.6250
  971MOL0     C28065   9.566  10.610   0.969  0.4471 -0.2033 -0.0225
  971MOL0     C28066   9.431  10.618   0.942 -0.2875  0.4148  0.2325
  971MOL0     C28067   9.381  10.598   0.807  0.1482  0.1412  0.5529
  971MOL0     C28068   9.467  10.586   0.697  0.4407  0.1708 -0.6101
  971MOL0     C28069   9.419  10.565   0.562  0.7202 -0.9599 -0.7575
  971MOL0     O28070   9.490  10.466   0.497  0.3850 -0.6505 -0.2214
  971MOL0     C28071   9.468  10.472   0.365 -0.9578  0.1905 -0.1008
  971MOL0     C28072   9.531  10.568   0.282  0.1078  0.2449 -0.6595
  971MOL0     C28073   9.517  10.573   0.144  0.4880  0.2912  1.1723
  971MOL0     C28074   9.445  10.474   0.074 -0.7254 -0.0234 -0.6885
  971MOL0     O28075   9.446  10.479  -0.064 -0.7929 -0.4812  0.7355
  971MOL0     C28076   9.317  10.494  -0.121 -0.0068  0.2153 -0.5323
  971MOL0     C28077   9.332  10.500  -0.269  0.1162 -0.2374 -0.7164
  971MOL0     C28078   9.191  10.480  -0.325  0.3046 -0.9176 -0.0902
  971MOL0     C28079   9.196  10.522  -0.468 -0.8420 -0.6186  0.8826
  971MOL0     C28080   9.311  10.456  -0.542  1.2540 -0.6336  0.0599
  971MOL0     C28081   9.295  10.454  -0.689 -0.9537 -1.0040 -0.6601
  971MOL0     C28082   9.387  10.344  -0.754  1.0780  0.2957 -0.2775
  971MOL0     C28083   9.538  10.353  -0.713  0.3876 -0.4626  0.5738
  971MOL0    Cl28084   9.608  10.200  -0.778 -0.0577  0.0101  0.1109
  971MOL0     C28085   9.390  10.365   0.151  0.1252 -0.6714  0.8350
  971MOL0     C28086   9.384  10.377   0.301 -0.5743  0.8267  0.6942
  971MOL0     O28087   9.315  10.619   0.519  0.0844  0.3288 -0.1309
  971MOL0     C28088   9.602  10.575   0.728 -0.6119  0.5423 -0.1219
  971MOL0     C28089   9.648  10.584   0.858 -0.3355 -0.7076  0.4771
  971MOL0     N28090   9.759  11.149   1.529 -0.7157  0.5431 -0.7032
  971MOL0     N28091   9.676  11.215   1.605  0.5595 -0.1073 -0.6312
  971MOL0     C28092   9.396  11.043   0.751  0.8006  0.2275  0.4407
  971MOL0     C28093   9.467  10.988   0.648 -0.4436 -0.0090  0.0448
  971MOL0     C28094   9.822  10.808   0.419 -0.0035 -0.2932 -0.2279
  971MOL0     C28095   9.776  10.845   0.284 -1.1094 -0.3249  0.0688
  971MOL0     C28096   9.816  10.780   0.174  1.0143  0.4693 -0.6434
  971MOL0     C28097   9.913  10.677   0.188  1.1149  0.6589 -1.0463
  971MOL0     O28098   9.967  10.596   0.084  0.1839 -0.6591 -0.1727
  971MOL0     C28099   9.870  10.577  -0.026 -0.5245 -0.3340  0.4658
  971MOL0     C28100   9.918  10.658  -0.140  0.4755 -0.1493  0.0666
  971MOL0     C28101   9.812  10.678  -0.237  1.3072 -0.2391  0.3042
  971MOL0     C28102   9.871  10.784  -0.335 -0.8171 -0.3618  0.2148
  971MOL0     C28103   9.807  10.770  -0.464 -0.0679  0.3196  0.7049
  971MOL0     C28104   9.736  10.751  -0.558 -0.6994  0.7853 -0.6861
  971MOL0     C28105   9.972  10.660   0.307 -0.8072  0.3435 -0.2505
  971MOL0     C28106   9.935  10.733   0.426 -0.2754  0.2379  0.2091
  971MOL0     H28107   9.776  11.126   0.717 -0.1205  1.7033  1.4219
  971MOL0     H28108   9.641  11.222   0.901 -2.3083 -0.3558  1.8605
  971MOL0     H28109   9.502  11.342   1.006  2.5183 -0.9480  1.1350
  971MOL0     H28110   9.529  11.188   1.088  1.3900  1.1971  0.9331
  971MOL0     H28111   9.326  11.176   1.197  2.1308  1.0877  4.3811
  971MOL0     H28112   9.263  11.307   1.089  0.7074 -0.1887  1.3644
  971MOL0     H28113   9.452  11.446   1.234  3.1716 -1.5324  3.2292
  971MOL0     H28114   9.466  11.307   1.323  1.9755 -0.1681 -2.4148
  971MOL0     H28115   9.194  11.469   1.301 -0.1347  0.5210  2.8051
  971MOL0     H28116   9.210  11.317   1.379 -1.0027 -0.4046 -2.9381
  971MOL0     H28117   9.209  11.514   1.520 -0.2023 -0.5172  0.2356
  971MOL0     H28118   9.359  11.579   1.437  1.3153 -1.6607 -1.9895
  971MOL0     H28119   9.418  11.487   1.654  1.1245 -2.6122  0.8504
  971MOL0     H28120   9.495  11.398   1.525  1.3037 -1.3282  1.2542
  971MOL0     H28121   9.256  11.285   1.695 -0.2664 -4.7221  0.6625
  971MOL0     H28122   9.313  11.211   1.543 -0.8186 -0.1019 -0.8107
  971MOL0     H28123   9.398  11.132   1.760  2.1637 -1.5469 -0.6475
  971MOL0     H28124   9.500  11.280   1.767 -0.3476 -0.3735 -0.5426
  971MOL0     H28125   9.480  10.973   1.529  1.6530 -0.4970  0.4305
  971MOL0     H28126   9.712  10.838   1.427 -1.0100 -1.2961 -1.2513
  971MOL0     H28127   9.833  10.941   1.352 -1.2395 -3.1632 -4.3370
  971MOL0     H28128   9.699  11.030   1.184 -0.2031 -0.1792 -1.9990
  971MOL0     H28129   9.549  10.964   1.249  0.5216  1.3894 -2.2003
  971MOL0     H28130   9.700  10.844   1.047  1.2800  1.2108  0.9527
  971MOL0     H28131   9.781  10.769   1.190 -0.1221  0.8413  1.0235
  971MOL0     H28132   9.482  10.733   1.170 -0.6560  0.1522 -0.9006
  971MOL0     H28133   9.593  10.671   1.290  2.8370  1.7880  1.1874
  971MOL0     H28134   9.349  10.624   1.014  0.0684  0.8074  0.6105
  971MOL0     H28135   9.276  10.601   0.778  0.6240 -0.3909 -1.3405
  971MOL0     H28136   9.577  10.654   0.329 -0.0405  1.6879 -2.9971
  971MOL0     H28137   9.560  10.654   0.085 -2.4993  0.8232 -0.4810
  971MOL0     H28138   9.267  10.580  -0.076 -3.3211 -1.4468 -0.7975
  971MOL0     H28139   9.259  10.406  -0.091  3.7233 -1.7637  1.6033
  971MOL0     H28140   9.392  10.414  -0.299 -0.3847 -0.1814 -1.9432
  971MOL0     H28141   9.385  10.586  -0.311 -3.0196  1.6804 -1.0277
  971MOL0     H28142   9.118  10.540  -0.270 -0.7991 -1.1396 -1.2568
  971MOL0     H28143   9.150  10.378  -0.323 -2.9256  0.1779 -2.1768
  971MOL0     H28144   9.106  10.495  -0.525 -1.0641  2.0274 -0.1857
  971MOL0     H28145   9.203  10.631  -0.477 -2.6792 -0.6055 -1.8608
  971MOL0     H28146   9.316  10.355  -0.501  2.2062 -1.1988 -1.3533
  971MOL0     H28147   9.407  10.503  -0.522 -0.8163  2.6790  3.5670
  971MOL0     H28148   9.316  10.552  -0.731 -1.4559  1.0464  3.3896
  971MOL0     H28149   9.192  10.438  -0.723 -0.3211 -1.7440 -2.3399
  971MOL0     H28150   9.350  10.247  -0.722  0.7193  1.0200  1.6489
  971MOL0     H28151   9.387  10.352  -0.864 -0.9320 -0.4728 -0.3623
  971MOL0     H28152   9.540  10.351  -0.604  1.5068 -0.3077  0.5690
  971MOL0     H28153   9.588  10.440  -0.757 -3.5478  0.7287 -2.0581
  971MOL0     H28154   9.333  10.287   0.102 -0.2872  0.1011  0.0491
  971MOL0     H28155   9.328  10.305   0.360 -0.4846  0.9844  0.9723
  971MOL0     H28156   9.676  10.557   0.650 -1.1517 -2.8674  0.0036
  971MOL0     H28157   9.753  10.562   0.870 -0.1987  0.2497  1.2415
  971MOL0     H28158   9.294  11.020   0.780  1.4578 -0.4564  2.3955
  971MOL0     H28159   9.423  10.916   0.580  1.3387  0.1113 -1.3190
  971MOL0     H28160   9.685  10.902   0.277 -0.8250  0.4190  1.8270
  971MOL0     H28161   9.769  10.806   0.079 -1.5945  0.0373  0.4522
  971MOL0     H28162   9.768  10.605   0.002 -1.0694 -1.0656 -0.7148
  971MOL0     H28163   9.857  10.472  -0.055 -0.4063  0.2879 -2.1221
  971MOL0     H28164   9.949  10.757  -0.105  1.7498 -0.9034  1.0998
  971MOL0     H28165   9.992  10.607  -0.202 -0.0570  0.2152 -0.9147
  971MOL0     H28166   9.725  10.722  -0.188  1.4141 -0.4589  0.6966
  971MOL0     H28167   9.787  10.588  -0.294 -3.7797  1.6371 -0.9765
  971MOL0     H28168   9.870  10.882  -0.285  2.1168  1.1190 -2.2655
  971MOL0     H28169   9.976  10.757  -0.350 -0.7608 -0.7766  1.2720
  971MOL0     H28170   9.677  10.748  -0.647 -0.4066  3.4863 -1.0414
  971MOL0     H28171  10.063  10.601   0.301 -1.6310 -0.9282 -0.6768
  971MOL0     H28172   9.999  10.736   0.513 -0.6665 -0.4227  0.5255
  972MOL0     O28173   3.212   0.154   5.041  0.5043 -0.2170 -0.1697
  972MOL0     C28174   3.142   0.250   5.066 -0.8454 -0.5795 -0.0618
  972MOL0     O28175   3.132   0.360   4.983 -1.2091 -0.1347  0.3932
  972MOL0     C28176   3.215   0.366   4.870  0.2609  0.2456 -0.5212
  972MOL0     C28177   3.185   0.267   4.774  0.1107 -0.3718  0.6481
  972MOL0     C28178   3.258   0.255   4.655 -0.6993 -0.4196 -0.8420
  972MOL0     C28179   3.366   0.346   4.627 -0.7405  0.2057  1.2477
  972MOL0     O28180   3.437   0.341   4.511 -0.0346 -0.3942  0.3336
  972MOL0     C28181   3.459   0.209   4.463 -0.0281  0.2072  0.1931
  972MOL0     C28182   3.368   0.175   4.333 -1.4794 -0.2710 -0.1272
  972MOL0     C28183   3.415   0.244   4.201  0.9755 -0.1047  0.0516
  972MOL0     C28184   3.300   0.230   4.104 -0.0910 -0.5567  0.0206
  972MOL0     C28185   3.329   0.300   3.970  0.5064  0.4848 -0.3001
  972MOL0     C28186   3.320   0.197   3.857 -0.0700 -0.5016  0.2344
  972MOL0     C28187   3.334   0.241   3.707  0.7976 -1.1208  0.0288
  972MOL0     C28188   3.269   0.136   3.611  0.4482 -0.0349  0.3743
  972MOL0     N28189   3.300   0.167   3.472 -0.3737  0.4569 -0.4876
  972MOL0     C28190   3.308   0.293   3.435  0.0836 -0.7475 -0.1173
  972MOL0     C28191   3.367   0.286   3.316  0.1235  0.7290  0.7088
  972MOL0     C28192   3.407   0.396   3.224  0.6815 -0.1222 -0.1379
  972MOL0     C28193   3.440   0.535   3.277 -0.6824  0.2625 -1.1795
  972MOL0     C28194   3.311   0.623   3.292 -1.1245  0.9037  0.7496
  972MOL0     C28195   3.261   0.683   3.167  0.8636  0.1612 -0.3465
  972MOL0     O28196   3.126   0.729   3.189  0.5214 -0.2529 -0.3241
  972MOL0     C28197   3.071   0.820   3.097 -0.7709  0.3846 -0.5547
  972MOL0     C28198   2.949   0.874   3.130 -0.0291 -0.3646  0.2563
  972MOL0     C28199   2.889   0.956   3.042  0.6434  0.3500 -0.7832
  972MOL0     C28200   2.949   0.992   2.921 -0.4844  0.3578  0.0839
  972MOL0     C28201   2.882   1.093   2.833 -0.1042  0.6692  0.0197
  972MOL0     O28202   2.925   1.111   2.702 -0.5249 -0.0791 -0.0232
  972MOL0     C28203   2.903   1.220   2.620  0.3816 -0.7772  0.0428
  972MOL0     C28204   2.849   1.340   2.655  0.2242 -1.0853  0.3235
  972MOL0     C28205   2.820   1.436   2.555 -0.2512  0.7769  0.1469
  972MOL0     C28206   2.865   1.414   2.416 -0.0728 -0.1544 -0.0201
  972MOL0     O28207   2.844   1.500   2.301 -0.0865 -0.2262  0.2638
  972MOL0     C28208   2.741   1.598   2.324  0.2769 -0.0389  0.6138
  972MOL0     C28209   2.723   1.685   2.195 -0.4324  0.5079 -0.8102
  972MOL0     C28210   2.582   1.733   2.194  0.1713 -0.1440 -0.6469
  972MOL0     C28211   2.560   1.843   2.089  0.0920  0.8547  0.4339
  972MOL0     C28212   2.450   1.943   2.119  1.2125  0.2657  0.6152
  972MOL0     C28213   2.479   2.086   2.082  0.0340 -0.0609 -0.8045
  972MOL0     C28214   2.358   2.162   2.032  0.7401 -0.1010  0.0092
  972MOL0     C28215   2.411   2.265   1.929  0.5914 -0.1135 -0.1735
  972MOL0    Cl28216   2.277   2.341   1.850 -0.0678 -0.5840 -0.0104
  972MOL0     C28217   2.922   1.287   2.387  0.1178  0.2643  0.1787
  972MOL0     C28218   2.936   1.193   2.492 -0.2392 -0.1077 -0.6527
  972MOL0     O28219   2.785   1.156   2.883  0.4487  0.5486 -0.4881
  972MOL0     C28220   3.078   0.955   2.897 -0.1260  0.3593 -0.7510
  972MOL0     C28221   3.140   0.861   2.984  0.2647 -0.5675 -0.3219
  972MOL0     N28222   3.382   0.151   3.282 -0.4640  0.9314  0.0119
  972MOL0     N28223   3.355   0.085   3.380  0.2769 -0.7885 -0.1444
  972MOL0     C28224   3.394   0.453   4.714  0.3661  0.3598 -0.9392
  972MOL0     C28225   3.316   0.463   4.843  0.5347  0.1216  0.1621
  972MOL0     C28226   3.052   0.247   5.182 -0.5245  0.7253 -0.2336
  972MOL0     C28227   2.976   0.364   5.222  0.2344  0.2186  0.4318
  972MOL0     C28228   2.889   0.356   5.337 -0.0942  0.0295  1.0408
  972MOL0     C28229   2.892   0.245   5.422 -0.0298  0.5478 -0.9989
  972MOL0     O28230   2.822   0.252   5.545 -0.1426 -0.3600  0.1769
  972MOL0     C28231   2.685   0.236   5.524 -0.4023  0.1562 -0.7158
  972MOL0     C28232   2.639   0.092   5.554  0.0730 -0.9558  0.0720
  972MOL0     C28233   2.671   0.032   5.686 -0.9184  0.6782  0.3734
  972MOL0     C28234   2.809   0.002   5.724  0.4650  0.0472  0.1756
  972MOL0     C28235   2.821  -0.095   5.835  0.5884  0.2750  0.6284
  972MOL0     C28236   2.830  -0.148   5.943 -0.2093 -0.2236  0.6149
  972MOL0     C28237   2.965   0.137   5.386  0.3281 -0.5399  0.5983
  972MOL0     C28238   3.044   0.136   5.260  0.1498  0.5834  0.5686
  972MOL0     H28239   3.110   0.191   4.789 -0.5060  0.1467  0.2412
  972MOL0     H28240   3.220   0.181   4.585  0.3065 -0.9855 -0.8155
  972MOL0     H28241   3.445   0.143   4.548  1.5915  2.8015  2.6416
  972MOL0     H28242   3.565   0.211   4.436  0.7246  2.1796  2.8775
  972MOL0     H28243   3.261   0.195   4.343 -0.8261  2.7015  2.5795
  972MOL0     H28244   3.357   0.069   4.313 -2.0808 -0.2942  0.3127
  972MOL0     H28245   3.505   0.195   4.163 -0.3753 -1.1179 -2.0110
  972MOL0     H28246   3.431   0.351   4.220 -2.0693  0.1603  1.7410
  972MOL0     H28247   3.285   0.123   4.085  3.7743 -1.2645  0.1302
  972MOL0     H28248   3.211   0.272   4.151 -0.2469 -1.6310  0.7161
  972MOL0     H28249   3.430   0.342   3.966  0.9159 -0.4699 -0.1463
  972MOL0     H28250   3.249   0.372   3.949 -1.6270 -0.9157  2.3943
  972MOL0     H28251   3.231   0.136   3.872 -2.5424  2.9743  0.9299
  972MOL0     H28252   3.407   0.135   3.881 -0.1713 -1.1023 -0.8757
  972MOL0     H28253   3.280   0.335   3.692  0.5816 -1.4276 -1.1875
  972MOL0     H28254   3.439   0.253   3.681  0.4643 -1.8601 -1.7562
  972MOL0     H28255   3.160   0.133   3.621  0.4449 -1.6085  0.0556
  972MOL0     H28256   3.316   0.040   3.633  2.4737 -0.2049 -3.6956
  972MOL0     H28257   3.282   0.384   3.488 -0.8552 -0.2468 -1.3817
  972MOL0     H28258   3.338   0.404   3.139 -2.0541 -0.9227  1.8645
  972MOL0     H28259   3.503   0.362   3.183 -0.4890 -2.2247 -1.3179
  972MOL0     H28260   3.514   0.580   3.209 -0.8669  2.3749 -0.0629
  972MOL0     H28261   3.486   0.532   3.376 -0.7011  0.0081 -1.1786
  972MOL0     H28262   3.243   0.547   3.332 -1.7106  0.4864 -0.9748
  972MOL0     H28263   3.341   0.704   3.359  0.2046 -0.0160  1.3117
  972MOL0     H28264   3.254   0.620   3.077 -2.6670  2.2934 -1.7718
  972MOL0     H28265   3.330   0.764   3.139  0.5498  0.5022 -0.1445
  972MOL0     H28266   2.885   0.827   3.204 -2.8743  0.5725 -1.4494
  972MOL0     H28267   2.795   0.984   3.089  1.0046 -1.3797  1.0965
  972MOL0     H28268   2.831   1.366   2.759  2.1169 -0.1601  0.4692
  972MOL0     H28269   2.790   1.530   2.598 -0.9692  0.8609 -0.5178
  972MOL0     H28270   2.764   1.664   2.408 -0.1829  0.8451  0.0714
  972MOL0     H28271   2.646   1.551   2.352 -0.5620 -0.2656 -2.2501
  972MOL0     H28272   2.741   1.624   2.106  2.3127  1.6217 -1.1045
  972MOL0     H28273   2.798   1.765   2.193  0.8736 -0.6812 -2.8872
  972MOL0     H28274   2.552   1.775   2.290  2.1309  4.1088 -1.6157
  972MOL0     H28275   2.518   1.647   2.174  1.3280 -1.1342 -0.1779
  972MOL0     H28276   2.656   1.893   2.070  0.7191 -1.1025 -2.1114
  972MOL0     H28277   2.544   1.790   1.995  0.4609 -0.4096  1.0646
  972MOL0     H28278   2.423   1.939   2.225 -1.0055  0.5882  0.1159
  972MOL0     H28279   2.361   1.911   2.065  0.4619 -0.3509  2.1838
  972MOL0     H28280   2.555   2.087   2.003 -1.0984  1.7041 -1.9373
  972MOL0     H28281   2.527   2.145   2.161  3.0500  0.3671 -2.8113
  972MOL0     H28282   2.289   2.089   1.991 -3.0385  1.5267  2.8771
  972MOL0     H28283   2.305   2.218   2.109 -0.1721 -0.3054 -0.4569
  972MOL0     H28284   2.457   2.216   1.842  0.5239 -2.0196  0.7927
  972MOL0     H28285   2.480   2.337   1.973  1.4813  0.4577 -2.3646
  972MOL0     H28286   2.964   1.279   2.287  0.1542  0.3254  0.1890
  972MOL0     H28287   2.971   1.095   2.461 -0.7528 -0.6676  0.4690
  972MOL0     H28288   3.126   1.006   2.815 -1.9234 -0.5272 -2.4616
  972MOL0     H28289   3.241   0.830   2.958  0.9490  2.0517 -1.0612
  972MOL0     H28290   3.482   0.516   4.702  0.6496  0.1384 -0.1013
  972MOL0     H28291   3.342   0.535   4.921  0.1834  1.0484 -0.5589
  972MOL0     H28292   2.968   0.453   5.161 -0.6754 -0.7541 -0.9359
  972MOL0     H28293   2.842   0.448   5.372  1.7478  1.4691 -0.0522
  972MOL0     H28294   2.653   0.266   5.424  0.7563  0.3172 -1.0586
  972MOL0     H28295   2.630   0.306   5.588  0.1455 -1.0429  1.1669
  972MOL0     H28296   2.531   0.084   5.542 -0.6358 -0.2304  4.2582
  972MOL0     H28297   2.703   0.041   5.482  1.1630  0.4210  0.0117
  972MOL0     H28298   2.619  -0.063   5.702  0.8086 -0.3740 -0.0112
  972MOL0     H28299   2.627   0.088   5.770 -2.6466 -1.6634  1.1315
  972MOL0     H28300   2.864  -0.040   5.639 -0.9728 -0.8310 -0.3485
  972MOL0     H28301   2.874   0.089   5.738 -1.2526  1.4313 -0.2390
  972MOL0     H28302   2.853  -0.196   6.035  0.7079 -2.2185 -0.5876
  972MOL0     H28303   2.967   0.042   5.438  0.6604 -0.4780  0.7041
  972MOL0     H28304   3.097   0.044   5.235  1.8119  2.2194 -2.5572
  973MOL0     O28305   2.921  10.124   2.236 -0.1280 -0.7078 -0.4808
  973MOL0     C28306   3.028  10.166   2.203 -0.0757  0.0811  0.1388
  973MOL0     O28307   3.120  10.240   2.275  0.6013 -0.0827  0.4182
  973MOL0     C28308   3.072  10.301   2.396  0.1632 -0.0335 -0.7388
  973MOL0     C28309   2.951  10.376   2.399 -1.0596 -0.5611 -0.3070
  973MOL0     C28310   2.895  10.430   2.517 -0.4490 -0.0627 -0.0421
  973MOL0     C28311   2.966  10.409   2.634 -0.1455 -0.0004 -0.5818
  973MOL0     O28312   2.934  10.456   2.761 -1.2062 -0.8212  0.4312
  973MOL0     C28313   2.804  10.434   2.810 -0.7104 -0.4798  0.9847
  973MOL0     C28314   2.796  10.481   2.960  0.9762 -0.4369  0.6313
  973MOL0     C28315   2.911  10.440   3.057  0.1814  0.1533  0.6224
  973MOL0     C28316   2.874  10.476   3.197 -0.6771 -0.1414 -0.0715
  973MOL0     C28317   2.993  10.459   3.300 -0.5877 -0.3994 -0.4069
  973MOL0     C28318   2.953  10.497   3.445 -0.2701  0.1003  0.6188
  973MOL0     C28319   3.054  10.476   3.550 -0.6196 -0.1758 -0.3074
  973MOL0     C28320   3.117  10.339   3.570  0.5854 -0.0961 -0.1855
  973MOL0     N28321   3.012  10.261   3.644  0.6828 -0.6096 -0.0687
  973MOL0     C28322   2.978  10.264   3.773  0.2397  1.0762 -0.7300
  973MOL0     C28323   2.888  10.163   3.784 -0.1705  0.3821  0.1303
  973MOL0     C28324   2.839  10.128   3.926 -0.5395 -0.4167 -0.2619
  973MOL0     C28325   2.799   9.978   3.942  0.1978  0.5788  1.3756
  973MOL0     C28326   2.727   9.963   4.078  0.5647  0.7594 -0.3324
  973MOL0     C28327   2.588  10.013   4.087  0.0965  0.3546  0.2149
  973MOL0     O28328   2.514   9.908   4.024  0.4415  0.5264 -0.2749
  973MOL0     C28329   2.471   9.794   4.097  0.4045  0.2125  0.6619
  973MOL0     C28330   2.467   9.778   4.232 -0.5814  0.3395 -0.2984
  973MOL0     C28331   2.438   9.650   4.287  0.9923 -0.4188 -0.3489
  973MOL0     C28332   2.407   9.538   4.200 -0.1161 -0.3066  0.7991
  973MOL0     C28333   2.384   9.406   4.251  0.1350  0.0066 -0.3971
  973MOL0     O28334   2.368   9.404   4.388  0.2716  0.1421  0.0509
  973MOL0     C28335   2.336   9.283   4.455 -0.2650 -0.2465 -0.3420
  973MOL0     C28336   2.248   9.188   4.410  0.8921 -0.3580  0.2817
  973MOL0     C28337   2.263   9.057   4.457  0.0195  0.7771 -0.2147
  973MOL0     C28338   2.337   9.038   4.576 -0.3405  0.1377 -0.0510
  973MOL0     O28339   2.354   8.925   4.650 -0.4627 -0.2986  0.3139
  973MOL0     C28340   2.355   8.803   4.578  0.5909  0.1119  0.2802
  973MOL0     C28341   2.360   8.688   4.682 -0.2898 -0.0732  0.2856
  973MOL0     C28342   2.409   8.560   4.615  0.5971 -0.7317  0.8893
  973MOL0     C28343   2.443   8.442   4.715 -0.3494  0.3819 -0.4812
  973MOL0     C28344   2.506   8.327   4.631 -0.2387 -0.0057 -0.4575
  973MOL0     C28345   2.397   8.217   4.605 -0.4316 -0.1022 -0.6337
  973MOL0     C28346   2.464   8.086   4.543  0.1988 -0.3265  0.6785
  973MOL0     C28347   2.360   7.978   4.520  0.1719  0.5288  0.5663
  973MOL0    Cl28348   2.228   8.048   4.411  0.1691  0.2640 -0.0299
  973MOL0     C28349   2.406   9.147   4.636  0.1229  0.2560  0.3761
  973MOL0     C28350   2.411   9.267   4.571 -0.2013  0.9766  1.4270
  973MOL0     O28351   2.363   9.312   4.174  0.2620  0.2632  0.0676
  973MOL0     C28352   2.414   9.562   4.065  0.0380 -0.3745  0.3395
  973MOL0     C28353   2.441   9.683   4.011 -0.4114 -0.3883  0.4233
  973MOL0     N28354   2.865  10.108   3.664 -0.2738 -0.2361  0.4579
  973MOL0     N28355   2.933  10.177   3.577  0.8284 -0.0751 -0.2332
  973MOL0     C28356   3.086  10.344   2.624 -0.4311 -0.6699 -1.2135
  973MOL0     C28357   3.153  10.302   2.509  0.0094 -0.1998  0.9498
  973MOL0     C28358   3.043  10.129   2.059  0.6872  0.0471 -0.3520
  973MOL0     C28359   2.932  10.095   1.976 -0.5323 -0.7906 -0.0824
  973MOL0     C28360   2.950  10.052   1.844  0.2542  0.5404  0.8060
  973MOL0     C28361   3.081  10.043   1.787 -0.0160  0.6634 -0.2822
  973MOL0     O28362   3.108   9.997   1.655  0.5729 -0.4459 -0.2024
  973MOL0     C28363   2.992   9.962   1.571 -0.3632  0.2755  0.1477
  973MOL0     C28364   3.038   9.867   1.449 -0.5635  0.0768 -0.0712
  973MOL0     C28365   3.072   9.933   1.323 -1.0699 -0.1133  0.5395
  973MOL0     C28366   3.211  10.000   1.309  0.3607  1.6319  0.4206
  973MOL0     C28367   3.307   9.889   1.278  0.5042 -0.4662 -0.0796
  973MOL0     C28368   3.378   9.803   1.216  0.9970 -0.6554 -0.2507
  973MOL0     C28369   3.189  10.096   1.855 -0.6197  0.3974 -0.5541
  973MOL0     C28370   3.172  10.128   1.994  0.5929 -0.2256 -0.5365
  973MOL0     H28371   2.893  10.400   2.310  1.6023  0.7572 -1.8163
  973MOL0     H28372   2.803  10.486   2.507  0.9180  2.2840 -0.1226
  973MOL0     H28373   2.790  10.325   2.809  1.4489 -0.8490 -2.0503
  973MOL0     H28374   2.737  10.486   2.741  0.3055 -0.8873 -0.3370
  973MOL0     H28375   2.704  10.447   3.007 -1.4217  2.8946 -1.2276
  973MOL0     H28376   2.795  10.590   2.965 -0.6229 -0.2427 -2.1256
  973MOL0     H28377   2.997  10.503   3.031  1.2738 -0.8484  1.7149
  973MOL0     H28378   2.926  10.333   3.043 -1.8975  0.0710 -1.8611
  973MOL0     H28379   2.851  10.583   3.191 -0.5592  0.0955  2.4914
  973MOL0     H28380   2.783  10.426   3.230 -1.3519 -0.6600 -2.5599
  973MOL0     H28381   3.074  10.530   3.279 -2.8623  2.4058 -0.3040
  973MOL0     H28382   3.032  10.357   3.292 -0.0890 -0.0694 -3.1446
  973MOL0     H28383   2.856  10.451   3.466  0.3986  0.0553  4.3427
  973MOL0     H28384   2.937  10.604   3.453 -0.4512  0.2117 -1.0492
  973MOL0     H28385   3.136  10.541   3.516 -0.3852 -0.6548 -0.6677
  973MOL0     H28386   3.013  10.518   3.643 -0.5971  1.8688 -1.1626
  973MOL0     H28387   3.200  10.346   3.642 -0.5904 -2.7105  1.5396
  973MOL0     H28388   3.156  10.299   3.476  1.2652  0.0598  0.0179
  973MOL0     H28389   3.014  10.331   3.850  1.5410 -0.9407  0.5104
  973MOL0     H28390   2.764  10.195   3.969  0.5668 -0.5012  1.9547
  973MOL0     H28391   2.928  10.134   3.989 -0.0623 -0.1756 -0.9560
  973MOL0     H28392   2.871   9.896   3.935 -1.4301 -1.0931  3.0663
  973MOL0     H28393   2.727   9.947   3.865 -1.1405  1.5489  2.1880
  973MOL0     H28394   2.723   9.855   4.097  2.1688  0.5194 -1.1587
  973MOL0     H28395   2.790  10.006   4.155 -0.6502  0.9971  0.5509
  973MOL0     H28396   2.580  10.100   4.021  2.0404 -0.1336 -0.7517
  973MOL0     H28397   2.555  10.024   4.190 -0.4549 -3.5024  0.5848
  973MOL0     H28398   2.491   9.862   4.297  1.9143  0.3640 -1.1544
  973MOL0     H28399   2.433   9.652   4.396 -1.6675 -1.4858 -0.3495
  973MOL0     H28400   2.179   9.205   4.328 -0.6462  0.5382  1.7140
  973MOL0     H28401   2.203   8.976   4.416 -4.9186  3.8158  0.1118
  973MOL0     H28402   2.446   8.801   4.517  1.0113  1.5075  0.8295
  973MOL0     H28403   2.257   8.797   4.530 -0.6670  0.5332  2.6244
  973MOL0     H28404   2.261   8.680   4.729 -2.0962  4.7653 -2.0078
  973MOL0     H28405   2.427   8.711   4.765  1.3480 -0.0122 -1.0137
  973MOL0     H28406   2.498   8.584   4.556  1.8106 -0.2605  2.8338
  973MOL0     H28407   2.331   8.527   4.545  0.6750 -2.8762  1.7487
  973MOL0     H28408   2.527   8.460   4.784  1.6086 -2.6594 -1.8507
  973MOL0     H28409   2.359   8.398   4.771 -2.4392 -1.2326 -4.4819
  973MOL0     H28410   2.599   8.301   4.681  0.0240 -0.4494 -1.1755
  973MOL0     H28411   2.536   8.350   4.529 -0.0744 -0.5354 -0.5317
  973MOL0     H28412   2.323   8.255   4.535 -0.6746  0.5322 -0.0419
  973MOL0     H28413   2.341   8.199   4.698 -2.0854 -1.1734 -1.7751
  973MOL0     H28414   2.515   8.104   4.448 -0.9591  0.0824  0.1114
  973MOL0     H28415   2.539   8.063   4.618  1.1815  1.4928  0.2994
  973MOL0     H28416   2.310   7.948   4.612  0.6900 -0.6595  0.4780
  973MOL0     H28417   2.415   7.896   4.473  1.6375  2.9207 -2.2353
  973MOL0     H28418   2.468   9.138   4.724  2.0363 -0.4206 -0.9746
  973MOL0     H28419   2.455   9.360   4.605 -1.3209  1.8845  0.5067
  973MOL0     H28420   2.386   9.490   3.988 -2.5953  0.8270  0.0786
  973MOL0     H28421   2.450   9.701   3.904  1.9720 -0.4090  0.5722
  973MOL0     H28422   3.148  10.317   2.708  1.7641 -1.6602 -3.0448
  973MOL0     H28423   3.243  10.241   2.509 -1.4409 -2.5235 -1.2243
  973MOL0     H28424   2.830  10.083   2.011 -0.4923  0.0211  0.3287
  973MOL0     H28425   2.860  10.024   1.789  2.4857 -1.5139 -2.1259
  973MOL0     H28426   2.934  10.052   1.549 -4.2231 -1.8687  0.6737
  973MOL0     H28427   2.920   9.911   1.637  0.3202 -0.4356  0.3637
  973MOL0     H28428   3.118   9.801   1.483 -0.7405 -1.8491 -2.9801
  973MOL0     H28429   2.949   9.804   1.438 -1.1179  0.3108  2.5500
  973MOL0     H28430   2.997  10.012   1.309 -0.4266  0.2846 -0.8448
  973MOL0     H28431   3.066   9.873   1.232  2.1412  1.6759 -1.0125
  973MOL0     H28432   3.201  10.065   1.222  0.2824  0.6294 -0.3400
  973MOL0     H28433   3.225  10.052   1.404  0.3348  1.3711  0.5695
  973MOL0     H28434   3.438   9.732   1.163 -1.8202 -1.6443 -2.3595
  973MOL0     H28435   3.288  10.102   1.811  1.4072 -4.6014  2.5158
  973MOL0     H28436   3.257  10.186   2.031 -0.7125  1.1605  0.3914
  974MOL0     O28437  10.711   1.078   8.454 -0.1215 -0.2173  1.1622
  974MOL0     C28438  10.767   1.016   8.540  0.0096 -0.7662  0.1452
  974MOL0     O28439  10.770   0.886   8.548  0.6770 -0.0435 -0.1895
  974MOL0     C28440  10.697   0.818   8.462  0.3148 -0.3052  0.9219
  974MOL0     C28441  10.557   0.798   8.488 -0.0956  0.6305 -0.1631
  974MOL0     C28442  10.478   0.723   8.392 -0.1463  0.1830  0.4235
  974MOL0     C28443  10.540   0.665   8.286 -0.7533  0.3491  0.9402
  974MOL0     O28444  10.472   0.581   8.205  0.2545 -1.1059  0.5377
  974MOL0     C28445  10.363   0.643   8.135 -0.1773  0.1109 -0.7637
  974MOL0     C28446  10.416   0.727   8.023  0.0593  0.3844 -0.7220
  974MOL0     C28447  10.304   0.740   7.909  0.5033  0.1590 -0.3495
  974MOL0     C28448  10.161   0.778   7.964 -0.8771 -0.0505 -0.1300
  974MOL0     C28449  10.132   0.932   7.963 -0.0918  0.8444 -0.6127
  974MOL0     C28450  10.000   0.959   8.038 -0.1108 -0.1743 -0.9268
  974MOL0     C28451   9.998   0.923   8.190  0.7485  0.8500  0.5071
  974MOL0     C28452  10.052   1.033   8.292  1.2659  0.0964  0.5794
  974MOL0     N28453  10.158   1.119   8.238 -0.5480  0.3342  0.7810
  974MOL0     C28454  10.298   1.092   8.245  0.4118  0.2063 -0.3272
  974MOL0     C28455  10.353   1.199   8.175 -0.4564  0.1896  0.4764
  974MOL0     C28456  10.502   1.231   8.147  0.4463 -0.1492 -0.0611
  974MOL0     C28457  10.587   1.150   8.041  0.4565  0.2735  0.5048
  974MOL0     C28458  10.658   1.035   8.108 -0.1807  0.0769 -0.4952
  974MOL0     C28459  10.767   0.958   8.020  0.4938  0.0408 -0.8191
  974MOL0     O28460  10.865   1.063   7.988  0.0199  0.1907  0.4878
  974MOL0     C28461  11.001   1.033   7.980  1.1009  0.7578  0.0394
  974MOL0     C28462  11.048   0.905   7.973 -0.4844 -0.7336 -0.2771
  974MOL0     C28463  11.190   0.880   7.960  0.0826 -1.3637 -1.0202
  974MOL0     C28464  11.279   0.987   7.949  0.0877 -1.2566 -0.1293
  974MOL0     C28465  11.431   0.976   7.927  0.1164 -0.7983 -0.2637
  974MOL0     O28466  11.484   0.848   7.960  0.4489 -0.0266  0.1417
  974MOL0     C28467  11.615   0.803   7.934  0.0483  0.6229 -1.0218
  974MOL0     C28468  11.649   0.667   7.976  0.5849 -0.3056 -0.4180
  974MOL0     C28469  11.776   0.610   7.968 -1.5207 -0.8504 -0.7566
  974MOL0     C28470  11.885   0.685   7.905 -0.5812  0.3117  0.3124
  974MOL0     O28471  12.011   0.625   7.884 -0.1769  0.6127  0.4714
  974MOL0     C28472  12.088   0.639   7.772 -0.0116 -1.2097 -0.3042
  974MOL0     C28473  12.222   0.548   7.774  0.0264 -0.1662  0.7191
  974MOL0     C28474  12.322   0.617   7.852 -0.1503 -0.1985  0.5961
  974MOL0     C28475  12.451   0.534   7.834 -0.0793  0.3128  0.3404
  974MOL0     C28476  12.571   0.592   7.915  0.0582  0.0666  1.4488
  974MOL0     C28477  12.605   0.731   7.863 -0.1634 -0.5575  0.3328
  974MOL0     C28478  12.754   0.774   7.890 -0.4714 -0.7916 -0.1968
  974MOL0     C28479  12.779   0.921   7.863  0.0081 -0.1550 -0.9494
  974MOL0    Cl28480  12.963   0.923   7.877 -0.1302  0.1194  0.0465
  974MOL0     C28481  11.849   0.813   7.853 -0.7570 -0.5433  0.2795
  974MOL0     C28482  11.721   0.876   7.871 -0.3430 -0.0711  0.0548
  974MOL0     O28483  11.493   1.079   7.902  0.2258  0.1210 -0.0933
  974MOL0     C28484  11.233   1.116   7.959  1.0216 -0.3417  0.1201
  974MOL0     C28485  11.091   1.142   7.975 -0.0014  0.4274 -0.5491
  974MOL0     N28486  10.257   1.282   8.140 -0.6134 -0.3743  0.4801
  974MOL0     N28487  10.146   1.249   8.179 -0.1489  0.0984 -0.4257
  974MOL0     C28488  10.674   0.684   8.267  0.1269 -0.2804  0.8085
  974MOL0     C28489  10.752   0.762   8.345 -0.6711  0.8255 -0.8393
  974MOL0     C28490  10.814   1.091   8.659 -0.4466 -1.2438 -0.4538
  974MOL0     C28491  10.786   1.230   8.673  0.5356  0.9423  0.7448
  974MOL0     C28492  10.823   1.302   8.788  0.1292  0.3133  0.3184
  974MOL0     C28493  10.905   1.239   8.884  0.0989 -0.3655  0.2762
  974MOL0     O28494  10.937   1.315   8.991 -0.5380  0.1796 -0.6700
  974MOL0     C28495  10.997   1.246   9.105  0.1871 -1.6213 -0.2407
  974MOL0     C28496  10.980   1.322   9.234  1.0806 -0.0931 -0.2939
  974MOL0     C28497  11.061   1.442   9.282  0.4846  0.6052  0.0548
  974MOL0     C28498  11.194   1.396   9.333  0.3747 -0.0761  0.3967
  974MOL0     C28499  11.255   1.505   9.415 -0.7165 -0.1444  0.2600
  974MOL0     C28500  11.312   1.599   9.467 -0.2709 -0.3472  0.1336
  974MOL0     C28501  10.934   1.109   8.868 -0.1483 -0.2219 -0.1604
  974MOL0     C28502  10.894   1.030   8.763 -0.3036  0.3355  1.0056
  974MOL0     H28503  10.524   0.851   8.578  1.0023  1.1400 -0.0432
  974MOL0     H28504  10.371   0.708   8.401 -0.8726  2.8215 -2.0869
  974MOL0     H28505  10.310   0.718   8.195 -0.5913 -0.8932  0.1428
  974MOL0     H28506  10.299   0.568   8.088 -0.8664  0.4531 -0.3937
  974MOL0     H28507  10.506   0.678   7.985  1.6838  1.7203  1.1959
  974MOL0     H28508  10.442   0.829   8.056  1.3776  1.0884 -3.5640
  974MOL0     H28509  10.297   0.642   7.860 -4.9443 -0.6941  1.4305
  974MOL0     H28510  10.340   0.828   7.857  0.5425  0.0527 -0.4997
  974MOL0     H28511  10.087   0.728   7.901 -1.5854  1.4028 -0.4963
  974MOL0     H28512  10.146   0.725   8.058  0.7816 -0.4913 -0.0831
  974MOL0     H28513  10.129   0.946   7.855 -1.7003 -0.1921 -0.7332
  974MOL0     H28514  10.215   0.983   8.014 -0.6047 -0.9002  2.2220
  974MOL0     H28515   9.922   0.912   7.976  0.7936  0.2975 -2.4816
  974MOL0     H28516   9.972   1.064   8.034  0.1233  0.1278  2.5128
  974MOL0     H28517   9.893   0.916   8.221  0.6653 -3.2191 -0.0598
  974MOL0     H28518  10.038   0.824   8.216  0.2928  0.7883  0.9950
  974MOL0     H28519  10.090   0.983   8.382 -0.3224  1.2509  1.9595
  974MOL0     H28520   9.966   1.089   8.330 -2.5389 -2.4293 -3.3286
  974MOL0     H28521  10.350   1.016   8.303  1.5150  1.4898  0.4169
  974MOL0     H28522  10.545   1.225   8.247  0.9774  0.1530 -0.2665
  974MOL0     H28523  10.497   1.338   8.126 -2.5761 -0.4212 -1.2142
  974MOL0     H28524  10.671   1.210   8.003  2.1335 -2.4181 -0.3180
  974MOL0     H28525  10.531   1.108   7.957  0.8619 -3.0897  1.7716
  974MOL0     H28526  10.714   1.087   8.186 -1.8825  2.3043 -0.6597
  974MOL0     H28527  10.585   0.968   8.155 -1.7198  0.6067 -2.0068
  974MOL0     H28528  10.734   0.905   7.930  4.1911 -1.8522 -1.2526
  974MOL0     H28529  10.816   0.883   8.082 -1.4706 -0.5106  0.1363
  974MOL0     H28530  10.977   0.823   7.969 -0.4569 -0.7428 -0.6004
  974MOL0     H28531  11.219   0.776   7.946 -2.8577 -2.0436 -2.8629
  974MOL0     H28532  11.568   0.606   8.017  0.3554  0.2696 -0.0009
  974MOL0     H28533  11.798   0.508   7.999 -1.0670  0.0127  2.0559
  974MOL0     H28534  12.121   0.742   7.759 -0.0916 -0.8023  2.2241
  974MOL0     H28535  12.031   0.618   7.681  4.9192 -1.1483 -3.8192
  974MOL0     H28536  12.262   0.531   7.673 -2.1715 -1.8172  0.0329
  974MOL0     H28537  12.192   0.453   7.817 -1.2791  1.3013  3.2850
  974MOL0     H28538  12.291   0.628   7.957  0.1991 -1.6436  0.8665
  974MOL0     H28539  12.334   0.713   7.801  0.9015 -1.1342 -0.9920
  974MOL0     H28540  12.444   0.429   7.864  2.7577  0.7945  3.2907
  974MOL0     H28541  12.478   0.535   7.727 -0.1604 -3.7679  0.1187
  974MOL0     H28542  12.648   0.519   7.888 -2.5677 -2.2518 -0.3530
  974MOL0     H28543  12.549   0.595   8.022 -3.4667  1.3826  0.8206
  974MOL0     H28544  12.552   0.810   7.918  0.5504  0.0023  0.2328
  974MOL0     H28545  12.581   0.733   7.756 -2.6206 -4.2155  0.6219
  974MOL0     H28546  12.783   0.744   7.991  1.0328  1.4593  0.1302
  974MOL0     H28547  12.813   0.713   7.820  1.2476 -1.2690  1.5922
  974MOL0     H28548  12.730   0.990   7.932 -3.3896  0.4790 -3.7151
  974MOL0     H28549  12.751   0.961   7.765 -2.4559  0.0394 -0.2395
  974MOL0     H28550  11.913   0.877   7.793 -1.7596  0.0943 -0.1411
  974MOL0     H28551  11.711   0.975   7.827 -0.0122  1.1554  2.5445
  974MOL0     H28552  11.294   1.204   7.943 -1.8492  1.4096 -2.4737
  974MOL0     H28553  11.075   1.249   7.974  0.4517  0.5406  0.9350
  974MOL0     H28554  10.728   0.633   8.187 -1.1407 -2.6330  1.3683
  974MOL0     H28555  10.858   0.772   8.324 -0.8144  2.1987 -1.0296
  974MOL0     H28556  10.720   1.279   8.602 -0.3198  4.3503  3.5692
  974MOL0     H28557  10.819   1.410   8.776  1.3400  0.6673  2.5286
  974MOL0     H28558  11.104   1.233   9.085  1.3540  4.5558  0.1050
  974MOL0     H28559  10.954   1.145   9.105  1.8050 -2.3461 -0.3728
  974MOL0     H28560  10.880   1.365   9.248  0.7420 -1.7695  3.6860
  974MOL0     H28561  10.983   1.239   9.305 -3.2097  0.5640  0.9614
  974MOL0     H28562  11.002   1.492   9.360 -1.3751  1.3509 -1.7441
  974MOL0     H28563  11.074   1.507   9.196 -0.1586 -1.5600 -1.7837
  974MOL0     H28564  11.190   1.304   9.392  3.1389  1.3094  3.0034
  974MOL0     H28565  11.259   1.381   9.246 -3.2336 -0.3458 -2.5547
  974MOL0     H28566  11.358   1.691   9.496  0.7899 -1.2812  1.5783
  974MOL0     H28567  11.009   1.066   8.934  0.0622  1.3287  0.6708
  974MOL0     H28568  10.911   0.923   8.760 -2.3517 -0.0888 -4.1311
  975MOL0     O28569  10.237   3.679   6.425  0.0122 -0.0397  0.1303
  975MOL0     C28570  10.262   3.775   6.507  0.8347  0.7340  0.3810
  975MOL0     O28571  10.293   3.759   6.636 -0.8652  0.3076  0.3905
  975MOL0     C28572  10.360   3.641   6.656 -0.1448 -0.2440 -0.6270
  975MOL0     C28573  10.490   3.628   6.596 -0.1748 -0.7033  0.1038
  975MOL0     C28574  10.562   3.510   6.614 -0.0549 -0.2194 -0.0050
  975MOL0     C28575  10.518   3.416   6.701  0.2954 -0.7069  0.7491
  975MOL0     O28576  10.594   3.303   6.706 -0.0127  0.6592 -1.0000
  975MOL0     C28577  10.702   3.323   6.798  0.0414  0.0740  0.2351
  975MOL0     C28578  10.836   3.324   6.710  0.7462 -0.1357 -0.7283
  975MOL0     C28579  10.861   3.183   6.651  0.7492  0.4173 -0.4562
  975MOL0     C28580  10.983   3.181   6.559  0.3622  0.5648  0.4196
  975MOL0     C28581  11.050   3.039   6.571  0.1942  0.2643 -0.1196
  975MOL0     C28582  11.170   3.019   6.467 -0.3806 -0.5253 -0.4042
  975MOL0     C28583  11.225   2.878   6.492 -0.1618  0.4796  0.7163
  975MOL0     C28584  11.345   2.850   6.399  0.2023  0.2794 -1.2646
  975MOL0     N28585  11.398   2.714   6.423 -0.0019 -0.3382  0.2483
  975MOL0     C28586  11.491   2.677   6.521 -0.4216 -1.1164 -0.4346
  975MOL0     C28587  11.501   2.541   6.505  0.1585 -0.3559 -0.6389
  975MOL0     C28588  11.604   2.456   6.567  0.3545  0.2754 -0.4977
  975MOL0     C28589  11.533   2.357   6.666 -0.0005 -0.3350 -0.0649
  975MOL0     C28590  11.631   2.254   6.723  0.4252  0.0065  0.0812
  975MOL0     C28591  11.557   2.124   6.752  0.3020  0.2913 -0.1565
  975MOL0     O28592  11.644   2.033   6.809 -0.0262 -0.5184 -1.1534
  975MOL0     C28593  11.635   1.901   6.790  0.8053  0.0452  0.0021
  975MOL0     C28594  11.516   1.830   6.762  0.0205 -0.0349 -1.1152
  975MOL0     C28595  11.517   1.688   6.750  0.3888  0.5707 -0.2317
  975MOL0     C28596  11.646   1.616   6.764 -0.1970 -0.2854  0.2136
  975MOL0     C28597  11.663   1.472   6.752  0.1836  0.1461  0.1127
  975MOL0     O28598  11.780   1.428   6.724 -0.2728  0.1050  0.1350
  975MOL0     C28599  11.806   1.299   6.694  1.0642  0.0693  0.6403
  975MOL0     C28600  11.923   1.236   6.748 -0.6196 -0.7813  0.7078
  975MOL0     C28601  11.956   1.103   6.716 -0.0108 -0.7585  0.0459
  975MOL0     C28602  11.881   1.018   6.632  0.3433 -0.4540  0.7255
  975MOL0     O28603  11.926   0.898   6.597  0.1453 -0.1681 -0.3368
  975MOL0     C28604  11.835   0.801   6.543 -0.0648  0.2174  0.0724
  975MOL0     C28605  11.907   0.666   6.526 -0.6905  0.5224  0.1908
  975MOL0     C28606  11.812   0.546   6.495  0.1627  0.1546 -0.7232
  975MOL0     C28607  11.726   0.539   6.366  0.2793  0.9892 -0.8300
  975MOL0     C28608  11.802   0.445   6.261  0.1214 -1.0196  0.2928
  975MOL0     C28609  11.721   0.441   6.126 -1.0693  0.0594 -1.0549
  975MOL0     C28610  11.745   0.569   6.051  0.2020  1.2200 -0.6547
  975MOL0     C28611  11.863   0.561   5.960 -0.9107  0.0558 -0.5733
  975MOL0    Cl28612  11.823   0.480   5.796 -0.1050  0.1033  0.0054
  975MOL0     C28613  11.758   1.081   6.586 -0.3168 -0.2890  0.5214
  975MOL0     C28614  11.719   1.214   6.611 -0.3471 -1.0293 -0.2359
  975MOL0     O28615  11.564   1.403   6.766 -0.4514  0.2494 -0.6317
  975MOL0     C28616  11.758   1.697   6.794 -0.1584 -0.3322 -0.4388
  975MOL0     C28617  11.748   1.830   6.815 -0.0620  1.1248  0.1625
  975MOL0     N28618  11.411   2.500   6.410  0.1217  0.3438  0.0413
  975MOL0     N28619  11.356   2.602   6.359  0.0150  0.2530 -0.7546
  975MOL0     C28620  10.387   3.418   6.745  0.3939 -0.4621 -1.2498
  975MOL0     C28621  10.312   3.541   6.739  0.0101  0.3206 -0.2796
  975MOL0     C28622  10.249   3.916   6.464  0.8852 -1.1499  0.4168
  975MOL0     C28623  10.307   4.015   6.539 -0.8989 -0.8502  0.6038
  975MOL0     C28624  10.290   4.151   6.515  0.8459  0.3160 -0.6585
  975MOL0     C28625  10.229   4.202   6.409 -0.7831 -0.5341 -0.4011
  975MOL0     O28626  10.253   4.335   6.382  0.1487 -0.7165 -0.5950
  975MOL0     C28627  10.195   4.390   6.259 -0.8358 -0.6398 -0.1126
  975MOL0     C28628  10.047   4.417   6.274 -0.1916 -0.2341  0.9618
  975MOL0     C28629  10.009   4.546   6.360  0.4329 -0.3680  0.7952
  975MOL0     C28630   9.961   4.664   6.262  0.1320 -0.0374  0.4813
  975MOL0     C28631   9.842   4.632   6.181 -0.2927  0.2540 -0.5831
  975MOL0     C28632   9.740   4.599   6.121  0.7323  0.3313 -0.0889
  975MOL0     C28633  10.166   4.105   6.325 -0.6347  0.4481 -0.1603
  975MOL0     C28634  10.175   3.960   6.351 -0.6094 -0.0085 -0.1535
  975MOL0     H28635  10.530   3.717   6.547  1.8728 -0.5839  1.8731
  975MOL0     H28636  10.658   3.498   6.565 -0.0773  0.6517 -0.2804
  975MOL0     H28637  10.705   3.238   6.866 -0.2880  0.5909  0.9054
  975MOL0     H28638  10.696   3.419   6.850  2.5412  0.1134  0.5689
  975MOL0     H28639  10.929   3.346   6.763  0.9466 -1.9359 -0.2663
  975MOL0     H28640  10.831   3.390   6.622 -3.9345  0.9860  0.1588
  975MOL0     H28641  10.780   3.140   6.592 -0.5310  1.1073  0.7583
  975MOL0     H28642  10.868   3.119   6.740 -2.9523  1.8920  1.0679
  975MOL0     H28643  10.963   3.191   6.452 -0.0415 -3.6408 -0.0645
  975MOL0     H28644  11.041   3.265   6.599 -0.5107  0.2773  2.4049
  975MOL0     H28645  10.976   2.960   6.556  2.7840 -2.1365 -1.1645
  975MOL0     H28646  11.091   3.026   6.672  1.3491 -2.7633 -0.8464
  975MOL0     H28647  11.253   3.085   6.493  0.0935 -1.6755  1.1709
  975MOL0     H28648  11.130   3.032   6.366  0.5960 -1.1461 -0.8854
  975MOL0     H28649  11.250   2.860   6.597 -2.0637 -1.1041  0.9612
  975MOL0     H28650  11.140   2.816   6.460  1.2478  0.3415 -3.3566
  975MOL0     H28651  11.433   2.914   6.417  0.6788 -0.4820 -0.8528
  975MOL0     H28652  11.309   2.862   6.297 -0.8748  0.5976 -0.8601
  975MOL0     H28653  11.546   2.743   6.587 -4.4646  1.4902  0.6799
  975MOL0     H28654  11.678   2.523   6.612 -0.4868 -0.0774  1.5426
  975MOL0     H28655  11.647   2.395   6.487 -1.0933 -3.5307  1.3812
  975MOL0     H28656  11.454   2.315   6.604 -1.0529  2.1854 -0.5476
  975MOL0     H28657  11.478   2.407   6.746  1.2550 -0.6504  1.0433
  975MOL0     H28658  11.714   2.242   6.653 -0.4710  0.6233 -1.1295
  975MOL0     H28659  11.675   2.296   6.813  3.0298  2.5949 -2.2212
  975MOL0     H28660  11.530   2.078   6.657  0.8942 -1.7361  0.6147
  975MOL0     H28661  11.462   2.147   6.800  1.1026 -0.6980  2.0548
  975MOL0     H28662  11.423   1.884   6.753 -0.8872 -1.4972 -0.7901
  975MOL0     H28663  11.421   1.641   6.731  0.1119  0.8970  0.3225
  975MOL0     H28664  11.983   1.301   6.810 -1.4566  0.4962  0.2028
  975MOL0     H28665  12.046   1.069   6.767 -0.9067 -2.7274  0.4044
  975MOL0     H28666  11.785   0.831   6.450 -2.6182  0.7590  1.5538
  975MOL0     H28667  11.758   0.779   6.617  1.3206 -0.3724  1.3854
  975MOL0     H28668  11.958   0.640   6.619  1.1042  1.6811 -0.4156
  975MOL0     H28669  11.983   0.677   6.448  1.2405 -1.9846  1.5533
  975MOL0     H28670  11.731   0.536   6.567  0.2781  1.6266 -0.3484
  975MOL0     H28671  11.877   0.458   6.493  2.4626  1.7718 -1.3798
  975MOL0     H28672  11.625   0.508   6.394 -0.5874  2.1183 -2.5326
  975MOL0     H28673  11.703   0.638   6.327 -2.2013  0.6087 -0.5013
  975MOL0     H28674  11.804   0.341   6.294  0.5683 -1.5730 -1.3831
  975MOL0     H28675  11.906   0.471   6.242 -0.6758  1.8862 -0.6204
  975MOL0     H28676  11.615   0.438   6.150 -1.1610 -0.1423 -1.4923
  975MOL0     H28677  11.756   0.358   6.063  1.3218  1.1656 -1.2859
  975MOL0     H28678  11.660   0.579   5.983 -0.6460  0.0428  0.2090
  975MOL0     H28679  11.748   0.651   6.123 -0.3371  1.5892 -1.0446
  975MOL0     H28680  11.953   0.519   6.005 -1.4544 -2.2487 -1.5178
  975MOL0     H28681  11.874   0.669   5.942  0.2839  0.1648  0.6525
  975MOL0     H28682  11.693   1.030   6.516  3.1007  1.0126 -4.0575
  975MOL0     H28683  11.626   1.260   6.578 -0.3027  0.3090  1.4044
  975MOL0     H28684  11.858   1.660   6.815 -0.9697 -1.0142  2.6826
  975MOL0     H28685  11.839   1.886   6.830  0.1879  1.1993 -1.4236
  975MOL0     H28686  10.333   3.332   6.782 -1.3617  1.1424  0.1161
  975MOL0     H28687  10.209   3.552   6.775 -0.0523 -2.9318  0.8471
  975MOL0     H28688  10.368   4.011   6.628  0.2437 -0.5107 -0.1346
  975MOL0     H28689  10.322   4.216   6.595 -2.2964 -0.8183  1.7214
  975MOL0     H28690  10.217   4.316   6.181  2.1516 -2.6563  2.3988
  975MOL0     H28691  10.253   4.481   6.240 -3.1156  0.7724 -0.8018
  975MOL0     H28692   9.997   4.425   6.177 -1.8926  0.7144  1.8755
  975MOL0     H28693  10.001   4.333   6.327 -0.5345 -0.8193 -0.2411
  975MOL0     H28694  10.096   4.594   6.406  0.9554  0.9388 -1.4261
  975MOL0     H28695   9.930   4.522   6.432  2.4042 -1.7148  2.6560
  975MOL0     H28696   9.943   4.756   6.319 -0.0981 -0.9130  1.8810
  975MOL0     H28697  10.038   4.691   6.189  1.3720 -1.7778  1.0832
  975MOL0     H28698   9.655   4.583   6.059  2.4692 -1.3714 -2.2010
  975MOL0     H28699  10.117   4.123   6.230 -0.2015 -0.4229 -0.5660
  975MOL0     H28700  10.143   3.889   6.275 -0.4235 -0.1412 -0.1076
  976MOL0     O28701   7.171   7.596   7.613  0.9666  0.8646 -0.2215
  976MOL0     C28702   7.189   7.563   7.498 -0.0969 -0.5841 -1.0145
  976MOL0     O28703   7.247   7.645   7.403  0.3534  0.1113 -0.0986
  976MOL0     C28704   7.232   7.775   7.419  0.5071 -0.3423 -0.9208
  976MOL0     C28705   7.103   7.830   7.418  1.0645 -0.2551 -0.3339
  976MOL0     C28706   7.087   7.968   7.425  0.3798  0.6155  0.0238
  976MOL0     C28707   7.190   8.066   7.445 -0.2242  0.1835 -1.1511
  976MOL0     O28708   7.159   8.198   7.472  0.0233 -0.8135 -0.0243
  976MOL0     C28709   7.255   8.313   7.478  1.4870  0.6450  0.4591
  976MOL0     C28710   7.201   8.421   7.389  0.2773 -0.6657  0.0681
  976MOL0     C28711   7.281   8.548   7.405  0.0220 -0.2501  0.0675
  976MOL0     C28712   7.198   8.670   7.351  0.2495  0.4308  0.7083
  976MOL0     C28713   7.227   8.799   7.424 -0.3380  0.2303  0.9156
  976MOL0     C28714   7.129   8.913   7.389 -0.7325 -0.0227  0.2467
  976MOL0     C28715   6.997   8.905   7.473 -0.6991  0.4158  0.6034
  976MOL0     C28716   6.872   8.940   7.384 -0.6965  0.3004 -0.9589
  976MOL0     N28717   6.761   8.911   7.476 -0.6207 -0.0167 -0.0656
  976MOL0     C28718   6.711   8.786   7.515 -0.1087 -0.5956  0.5312
  976MOL0     C28719   6.588   8.809   7.561  0.0061  0.8040  0.5682
  976MOL0     C28720   6.480   8.707   7.597  0.2953 -0.3746  0.2262
  976MOL0     C28721   6.386   8.666   7.486 -0.0227 -0.5045 -0.1122
  976MOL0     C28722   6.445   8.606   7.359 -0.4501 -0.1955  0.3589
  976MOL0     C28723   6.536   8.484   7.386  1.0703  0.5411 -0.6211
  976MOL0     O28724   6.478   8.361   7.432  0.0016  0.2438 -0.1980
  976MOL0     C28725   6.414   8.268   7.358  0.2558 -0.2469 -0.2783
  976MOL0     C28726   6.379   8.159   7.432 -0.1234 -0.4347 -0.1912
  976MOL0     C28727   6.307   8.053   7.381 -0.1863  0.1406  0.1247
  976MOL0     C28728   6.260   8.068   7.243  0.4647 -1.2747  0.1670
  976MOL0     C28729   6.183   7.966   7.169  0.2294  0.2507 -0.3897
  976MOL0     O28730   6.126   7.869   7.256  0.4900  0.2744 -0.1650
  976MOL0     C28731   6.064   7.755   7.214  0.0174  0.0377 -0.4932
  976MOL0     C28732   5.971   7.697   7.301  0.4652 -0.5764 -0.3826
  976MOL0     C28733   5.921   7.571   7.270 -0.0520 -0.1313 -0.1942
  976MOL0     C28734   5.948   7.508   7.146  0.6363  0.8608 -1.1117
  976MOL0     O28735   5.891   7.392   7.104  0.3882 -0.8709 -0.3767
  976MOL0     C28736   5.747   7.392   7.090 -0.2376 -0.3662 -0.2631
  976MOL0     C28737   5.714   7.257   7.018  0.1795  0.1861  0.8219
  976MOL0     C28738   5.721   7.136   7.113  0.1050 -0.3668 -0.4463
  976MOL0     C28739   5.615   7.031   7.080 -0.0866  0.1913  0.4527
  976MOL0     C28740   5.633   6.895   7.141 -0.1419 -0.4179 -0.3273
  976MOL0     C28741   5.625   6.905   7.296 -1.1962  0.3213 -1.2230
  976MOL0     C28742   5.639   6.769   7.369 -0.4570 -0.0990  0.9937
  976MOL0     C28743   5.574   6.767   7.512  0.0717 -0.1092 -0.2231
  976MOL0    Cl28744   5.626   6.613   7.592 -0.0916 -0.2180  0.1581
  976MOL0     C28745   6.037   7.567   7.056 -0.5921 -0.1975 -0.9950
  976MOL0     C28746   6.091   7.695   7.085 -0.1084  0.4938 -0.0071
  976MOL0     O28747   6.176   7.968   7.048  0.2661  0.5633  0.1137
  976MOL0     C28748   6.308   8.176   7.166 -0.1159  0.7532  0.4326
  976MOL0     C28749   6.375   8.282   7.222 -0.2341 -0.1102 -0.0576
  976MOL0     N28750   6.565   8.944   7.551  0.9499 -0.2038 -0.0873
  976MOL0     N28751   6.669   9.001   7.511  0.8214 -0.6527  0.2537
  976MOL0     C28752   7.319   8.004   7.435  0.1825 -0.0082  0.3785
  976MOL0     C28753   7.338   7.864   7.422  0.9490 -0.0205 -0.3980
  976MOL0     C28754   7.185   7.420   7.478  0.4236 -0.0938  1.2027
  976MOL0     C28755   7.255   7.365   7.370 -0.0996  0.4721 -0.1651
  976MOL0     C28756   7.241   7.231   7.346  0.5887  1.2867  0.0202
  976MOL0     C28757   7.188   7.140   7.434 -0.5292  0.3551 -1.1416
  976MOL0     O28758   7.199   7.004   7.404 -1.0927 -0.1483 -0.9199
  976MOL0     C28759   7.072   6.949   7.391  0.8566  0.6203 -0.3871
  976MOL0     C28760   7.078   6.819   7.315  0.5673 -0.9017  1.3083
  976MOL0     C28761   7.066   6.827   7.151  0.5946 -0.4045  0.0571
  976MOL0     C28762   7.175   6.905   7.084 -0.2317 -0.8647  0.4084
  976MOL0     C28763   7.293   6.831   7.071  0.1078  0.0611 -0.5038
  976MOL0     C28764   7.400   6.779   7.069  0.9254 -0.3893  0.3998
  976MOL0     C28765   7.120   7.196   7.541 -0.5916  0.4122 -0.1275
  976MOL0     C28766   7.106   7.334   7.558  0.1588  0.5211  0.1036
  976MOL0     H28767   7.014   7.768   7.417 -0.6507  1.9829  1.4974
  976MOL0     H28768   6.988   8.013   7.430 -0.7198 -1.0955 -3.2560
  976MOL0     H28769   7.360   8.286   7.461  1.7208  2.1550 -0.7076
  976MOL0     H28770   7.252   8.338   7.584 -1.7694  1.3287  0.3088
  976MOL0     H28771   7.100   8.441   7.427  0.1249  0.1426 -0.7142
  976MOL0     H28772   7.191   8.398   7.283  1.0554  1.1468 -0.4332
  976MOL0     H28773   7.373   8.541   7.347 -0.7773 -0.9663 -1.1471
  976MOL0     H28774   7.306   8.565   7.510 -1.5835  0.3922  0.3803
  976MOL0     H28775   7.246   8.671   7.253 -1.5274 -2.9187 -0.3468
  976MOL0     H28776   7.092   8.651   7.333  0.1809  2.4071 -1.4638
  976MOL0     H28777   7.328   8.826   7.392 -0.6601 -2.4427 -3.0083
  976MOL0     H28778   7.230   8.786   7.532 -0.3342 -0.5382  0.8299
  976MOL0     H28779   7.112   8.923   7.282 -1.4760 -3.1029 -0.0090
  976MOL0     H28780   7.190   8.999   7.420  0.2218 -2.0690  5.1164
  976MOL0     H28781   6.977   8.802   7.506  0.3025 -0.2756 -0.8270
  976MOL0     H28782   7.009   8.975   7.555  3.4377 -0.7462  1.2472
  976MOL0     H28783   6.867   8.892   7.286  1.5131  0.7644 -1.3420
  976MOL0     H28784   6.874   9.047   7.360 -0.6867  0.4112 -0.4695
  976MOL0     H28785   6.761   8.690   7.504  1.9104  0.3697  0.9008
  976MOL0     H28786   6.418   8.754   7.675  0.7090  0.9932 -0.2407
  976MOL0     H28787   6.533   8.625   7.645 -0.1259 -1.2649 -0.7694
  976MOL0     H28788   6.325   8.748   7.447 -2.7319 -1.5963  1.5336
  976MOL0     H28789   6.305   8.606   7.530 -1.6376  2.6093  1.5389
  976MOL0     H28790   6.370   8.580   7.284  1.3557  0.1997 -1.7056
  976MOL0     H28791   6.510   8.682   7.314  0.9378 -0.4344  1.8696
  976MOL0     H28792   6.602   8.523   7.463  1.5098  2.1311 -1.7533
  976MOL0     H28793   6.589   8.468   7.291  1.0474  1.6431 -0.8283
  976MOL0     H28794   6.401   8.173   7.537  4.2220 -2.5161 -0.5810
  976MOL0     H28795   6.291   7.960   7.435 -1.4815 -0.1035 -0.6435
  976MOL0     H28796   5.940   7.732   7.399  1.0668  2.7738 -1.2683
  976MOL0     H28797   5.859   7.524   7.345 -1.6274 -0.9920 -1.9314
  976MOL0     H28798   5.721   7.475   7.024 -0.1122 -1.7088 -2.0824
  976MOL0     H28799   5.714   7.393   7.194 -0.2306 -2.4090 -0.1879
  976MOL0     H28800   5.785   7.234   6.938 -1.6921  0.0500 -0.8860
  976MOL0     H28801   5.614   7.269   6.975 -1.4605  0.5395  4.3459
  976MOL0     H28802   5.703   7.170   7.216 -0.7875  0.9901 -1.0080
  976MOL0     H28803   5.822   7.096   7.105  0.6843  0.7271  0.8831
  976MOL0     H28804   5.515   7.069   7.102 -0.5916 -1.1297  0.5673
  976MOL0     H28805   5.618   7.009   6.973 -6.8086 -2.0852  0.2520
  976MOL0     H28806   5.730   6.854   7.110 -0.8715 -2.4559 -0.0446
  976MOL0     H28807   5.560   6.825   7.100  1.1889 -0.8734 -2.0917
  976MOL0     H28808   5.529   6.945   7.330  0.0753  1.2376  1.6135
  976MOL0     H28809   5.696   6.983   7.327 -1.9053 -0.0565  1.6033
  976MOL0     H28810   5.587   6.691   7.313 -3.9017  1.1535  2.1741
  976MOL0     H28811   5.747   6.754   7.378  0.8742  4.3590 -3.2326
  976MOL0     H28812   5.466   6.760   7.504  0.1474 -0.1210 -1.3541
  976MOL0     H28813   5.605   6.854   7.571  2.1603 -0.1206 -1.1943
  976MOL0     H28814   6.090   7.525   6.971 -2.6573  0.0476 -2.4969
  976MOL0     H28815   6.166   7.734   7.017 -1.6252  0.0924 -2.0432
  976MOL0     H28816   6.276   8.184   7.063 -0.8703  0.8379  0.6698
  976MOL0     H28817   6.412   8.372   7.173  5.0752 -2.5100 -1.1919
  976MOL0     H28818   7.409   8.065   7.436  2.1249 -2.3088 -4.2185
  976MOL0     H28819   7.439   7.831   7.398 -0.3332 -3.6096 -1.5151
  976MOL0     H28820   7.316   7.428   7.306 -1.4095  0.3567 -1.5895
  976MOL0     H28821   7.298   7.193   7.261  0.6461  0.6747  0.3306
  976MOL0     H28822   6.992   7.003   7.339 -0.0305  1.7438  1.9561
  976MOL0     H28823   7.030   6.924   7.489  1.7992  1.3286  0.2150
  976MOL0     H28824   7.181   6.791   7.335  1.2077  0.8539  0.6137
  976MOL0     H28825   6.995   6.755   7.348 -2.1025  0.8839 -1.4310
  976MOL0     H28826   6.964   6.861   7.128  1.1984  0.5469 -1.3620
  976MOL0     H28827   7.073   6.723   7.116  2.9401 -0.3384  0.2116
  976MOL0     H28828   7.138   6.912   6.981  0.9597 -3.0041 -0.2446
  976MOL0     H28829   7.202   7.001   7.129 -2.3533 -0.5161  1.0261
  976MOL0     H28830   7.487   6.717   7.056 -0.4950 -2.3359 -0.2853
  976MOL0     H28831   7.085   7.123   7.613  3.1311 -0.4792  1.0163
  976MOL0     H28832   7.036   7.374   7.631  0.4330  0.3525  0.4581
  977MOL0     O28833   0.140   5.062   9.969 -0.4828  0.7569 -0.1865
  977MOL0     C28834   0.043   5.062   9.884 -0.4227  0.0704 -0.7452
  977MOL0     O28835   0.035   5.118   9.766  1.7813  0.2939 -0.2218
  977MOL0     C28836   0.145   5.186   9.704 -1.0653 -0.7474  0.7177
  977MOL0     C28837   0.254   5.120   9.645  0.2286 -0.1081  0.6969
  977MOL0     C28838   0.359   5.197   9.590  1.3464 -0.4170 -0.7010
  977MOL0     C28839   0.357   5.342   9.599  0.6848 -0.2168  0.0842
  977MOL0     O28840   0.465   5.407   9.552  0.1026 -0.4337  1.4607
  977MOL0     C28841   0.491   5.534   9.614  0.0243 -0.0279  0.1815
  977MOL0     C28842   0.610   5.615   9.544  0.5135 -0.7007  0.7116
  977MOL0     C28843   0.640   5.736   9.620 -0.0093 -0.0987 -0.8601
  977MOL0     C28844   0.776   5.799   9.596 -0.4050  0.6412 -0.5703
  977MOL0     C28845   0.814   5.909   9.698  0.0864 -0.2954 -0.1724
  977MOL0     C28846   0.957   5.979   9.681  0.3141 -0.0082 -0.6568
  977MOL0     C28847   0.946   6.097   9.585 -1.2009 -1.0412 -0.2137
  977MOL0     C28848   1.085   6.167   9.549  0.0020  0.2818  0.8272
  977MOL0     N28849   1.170   6.056   9.493  0.2826  0.3390  0.7750
  977MOL0     C28850   1.270   6.007   9.566  0.0860  0.1940  0.7497
  977MOL0     C28851   1.318   5.891   9.503  0.6674 -0.1066  0.2113
  977MOL0     C28852   1.420   5.794   9.563 -0.2511  0.1549  0.0256
  977MOL0     C28853   1.479   5.845   9.694 -0.5518  0.2256  0.2615
  977MOL0     C28854   1.587   5.743   9.743 -1.2016 -0.6717 -0.3452
  977MOL0     C28855   1.610   5.759   9.895  0.2771 -0.1780 -0.1243
  977MOL0     O28856   1.708   5.664   9.936  0.1153 -0.4386 -0.0063
  977MOL0     C28857   1.730   5.643  10.073  0.1247  0.8700  0.9187
  977MOL0     C28858   1.851   5.590  10.115  0.2042 -0.6493  0.1177
  977MOL0     C28859   1.878   5.579  10.250  0.3357  0.4157  0.0349
  977MOL0     C28860   1.780   5.606  10.348 -0.1658  0.5209  0.1509
  977MOL0     C28861   1.818   5.594  10.496 -0.3276  0.2529  0.3797
  977MOL0     O28862   1.953   5.566  10.525 -0.2552  0.5600  0.4846
  977MOL0     C28863   1.994   5.584  10.656  0.6349 -0.0623  0.4688
  977MOL0     C28864   2.064   5.706  10.676 -0.7449  0.1538 -0.1145
  977MOL0     C28865   2.123   5.724  10.800 -0.4595  0.1554  0.1456
  977MOL0     C28866   2.108   5.634  10.910  0.6490 -0.3670  0.1524
  977MOL0     O28867   2.151   5.674  11.036  0.4092  0.2661  0.7252
  977MOL0     C28868   2.210   5.570  11.111 -0.4905 -0.2395 -0.2012
  977MOL0     C28869   2.302   5.616  11.230  0.4582  0.3688 -0.0514
  977MOL0     C28870   2.391   5.742  11.190  0.1560  0.1697  0.1311
  977MOL0     C28871   2.459   5.810  11.311  0.4803 -0.0335 -0.7050
  977MOL0     C28872   2.514   5.713  11.423 -0.8231 -0.1345 -0.5700
  977MOL0     C28873   2.586   5.814  11.525  0.5028 -0.4662 -0.4661
  977MOL0     C28874   2.690   5.740  11.605 -0.1697  0.1004 -1.0106
  977MOL0     C28875   2.682   5.766  11.752  1.1473  0.4196  0.1512
  977MOL0    Cl28876   2.763   5.642  11.857 -0.7541  0.4742  0.3505
  977MOL0     C28877   2.053   5.505  10.884 -1.5939  0.0538  0.7320
  977MOL0     C28878   1.992   5.477  10.758 -0.1032  0.9341  0.2079
  977MOL0     O28879   1.728   5.623  10.577  0.4543  0.4851 -0.2959
  977MOL0     C28880   1.655   5.655  10.303  0.6482 -0.1190  0.3270
  977MOL0     C28881   1.634   5.676  10.173  0.7663  0.1247 -0.0377
  977MOL0     N28882   1.234   5.875   9.395  0.4526  0.5596 -0.0819
  977MOL0     N28883   1.137   5.967   9.390 -0.4581 -0.3105 -0.2292
  977MOL0     C28884   0.247   5.406   9.656 -1.0086  0.1202  0.2229
  977MOL0     C28885   0.140   5.326   9.702 -0.7911 -0.1435 -0.1112
  977MOL0     C28886  -0.064   4.987   9.934 -0.1630 -1.0091  0.2840
  977MOL0     C28887  -0.128   4.891   9.845  0.2986  0.0441  0.5645
  977MOL0     C28888  -0.235   4.820   9.895 -0.1839 -0.3144  0.3742
  977MOL0     C28889  -0.297   4.835  10.026 -0.1662  0.4139  1.3012
  977MOL0     O28890  -0.406   4.762  10.054  0.7889 -0.3066  0.3957
  977MOL0     C28891  -0.411   4.718  10.194  0.5502  0.0350 -0.2976
  977MOL0     C28892  -0.496   4.817  10.277  0.3296 -0.3125 -0.1895
  977MOL0     C28893  -0.532   4.773  10.422  0.2195 -0.0110  0.2413
  977MOL0     C28894  -0.462   4.837  10.539  0.6216 -1.0116 -0.2106
  977MOL0     C28895  -0.314   4.855  10.533  0.1778  0.1567  0.7149
  977MOL0     C28896  -0.191   4.871  10.515  0.1062  1.2888  0.3641
  977MOL0     C28897  -0.230   4.925  10.103  0.2506  0.0135 -0.3870
  977MOL0     C28898  -0.114   5.004  10.064  0.0487  0.3702  0.1837
  977MOL0     H28899   0.267   5.013   9.658 -2.2855 -0.7107 -1.1065
  977MOL0     H28900   0.443   5.144   9.548  2.6446  1.7594 -0.9967
  977MOL0     H28901   0.514   5.515   9.719  0.6695  1.7923  0.4147
  977MOL0     H28902   0.405   5.602   9.612  0.2337  0.2444  0.3423
  977MOL0     H28903   0.571   5.646   9.447  1.1323 -2.2695 -0.0801
  977MOL0     H28904   0.692   5.544   9.530 -0.1461 -0.9841 -2.1829
  977MOL0     H28905   0.624   5.710   9.725  0.9683 -2.6768 -1.2768
  977MOL0     H28906   0.564   5.812   9.596 -3.3824 -3.0475 -0.4255
  977MOL0     H28907   0.843   5.716   9.622 -2.8171 -0.7248  1.8652
  977MOL0     H28908   0.796   5.812   9.490  6.8811  1.7951  0.3866
  977MOL0     H28909   0.807   5.860   9.796 -0.0409 -1.6255 -0.8292
  977MOL0     H28910   0.739   5.988   9.688 -0.2293 -0.8609 -3.3930
  977MOL0     H28911   1.029   5.906   9.642  0.2518  0.6061 -1.9827
  977MOL0     H28912   1.001   6.017   9.774  2.8550 -3.3591 -0.3050
  977MOL0     H28913   0.909   6.062   9.489  0.2061  2.0712 -2.0313
  977MOL0     H28914   0.883   6.183   9.611  1.4307  1.3597 -1.2641
  977MOL0     H28915   1.119   6.218   9.639 -1.0478  1.8597  0.3674
  977MOL0     H28916   1.074   6.244   9.472 -0.1256  1.1694  1.7297
  977MOL0     H28917   1.311   6.052   9.656  2.4127  0.4387 -0.3512
  977MOL0     H28918   1.490   5.789   9.479 -0.4439 -0.4771 -0.1068
  977MOL0     H28919   1.373   5.696   9.580 -0.6901  0.2772 -0.4405
  977MOL0     H28920   1.392   5.838   9.759  0.1886 -3.0412  1.0550
  977MOL0     H28921   1.521   5.944   9.671 -3.3887  1.1870 -1.2577
  977MOL0     H28922   1.555   5.642   9.718  1.3796 -1.0001 -2.8193
  977MOL0     H28923   1.684   5.758   9.695 -1.5377  1.1155 -0.5485
  977MOL0     H28924   1.515   5.739   9.945 -1.4877  2.3666 -2.1899
  977MOL0     H28925   1.635   5.860   9.928 -0.2177  1.2473 -3.6843
  977MOL0     H28926   1.924   5.567  10.038  0.4467 -0.5497  0.3164
  977MOL0     H28927   1.973   5.542  10.289  0.2042 -0.3599 -0.3570
  977MOL0     H28928   2.070   5.775  10.592  2.4887 -0.8463 -0.8803
  977MOL0     H28929   2.173   5.818  10.822 -3.1826  1.6330  0.4329
  977MOL0     H28930   2.280   5.522  11.042 -2.1959 -1.6502 -1.0122
  977MOL0     H28931   2.136   5.498  11.147 -3.2963  2.5655  0.1166
  977MOL0     H28932   2.373   5.535  11.247  3.3652  2.4694 -1.2790
  977MOL0     H28933   2.251   5.643  11.323 -0.5694 -1.6008 -0.0053
  977MOL0     H28934   2.324   5.818  11.149 -1.4816 -0.9164  0.6811
  977MOL0     H28935   2.466   5.708  11.118  0.0825 -5.5829  2.2399
  977MOL0     H28936   2.537   5.862  11.255  1.1518 -1.6017 -1.3044
  977MOL0     H28937   2.380   5.877  11.346 -0.9997 -0.6675 -2.5972
  977MOL0     H28938   2.582   5.642  11.375  2.3175  2.5282 -0.4524
  977MOL0     H28939   2.440   5.662  11.486  0.1281 -0.9460 -0.0793
  977MOL0     H28940   2.521   5.869  11.594  2.7737 -0.3765  1.7158
  977MOL0     H28941   2.638   5.897  11.475  0.1428  0.2338  0.2959
  977MOL0     H28942   2.668   5.633  11.597 -0.1827  0.1353 -1.4467
  977MOL0     H28943   2.793   5.760  11.576  0.1029 -4.1999 -3.9733
  977MOL0     H28944   2.574   5.770  11.772  0.6017  2.5073 -2.6245
  977MOL0     H28945   2.728   5.862  11.778  0.3146  0.8619  0.0412
  977MOL0     H28946   2.047   5.438  10.969 -0.1297  1.5571  2.0990
  977MOL0     H28947   1.948   5.379  10.740 -1.0403  1.1883  1.0061
  977MOL0     H28948   1.572   5.668  10.372 -1.1825 -1.7187 -1.4595
  977MOL0     H28949   1.541   5.729  10.153 -0.5738 -2.5096 -1.3267
  977MOL0     H28950   0.239   5.512   9.676 -2.6726 -0.4138  2.8720
  977MOL0     H28951   0.051   5.379   9.733 -1.3177 -0.8244 -0.4311
  977MOL0     H28952  -0.093   4.864   9.746  0.8116 -0.0520  0.7663
  977MOL0     H28953  -0.282   4.742   9.835  0.7262 -1.1802  0.7611
  977MOL0     H28954  -0.313   4.689  10.236  0.0476 -2.9113 -0.9250
  977MOL0     H28955  -0.464   4.622  10.202 -1.5950  1.1850 -0.2515
  977MOL0     H28956  -0.435   4.907  10.284  1.3548 -0.9398 -0.7590
  977MOL0     H28957  -0.582   4.855  10.222 -1.7642 -2.1098  1.6182
  977MOL0     H28958  -0.506   4.667  10.429 -0.3326 -0.0907  1.4522
  977MOL0     H28959  -0.641   4.777  10.428  0.0428 -1.8689 -1.0918
  977MOL0     H28960  -0.504   4.938  10.544 -1.3083 -1.8206  1.3551
  977MOL0     H28961  -0.500   4.796  10.633 -1.2158 -0.6107 -0.7268
  977MOL0     H28962  -0.084   4.877  10.517  0.1042  2.3680 -1.2373
  977MOL0     H28963  -0.251   4.936  10.209  2.9295  1.2723  0.0941
  977MOL0     H28964  -0.068   5.078  10.129  0.4281 -1.4357  2.0561
  978MOL0     O28965   6.939   9.618   5.153 -0.7053  0.2324 -0.3361
  978MOL0     C28966   6.915   9.724   5.102 -0.3265 -0.1131  1.2068
  978MOL0     O28967   6.830   9.732   4.992 -0.3355 -0.1646  0.5532
  978MOL0     C28968   6.799   9.622   4.922  0.4873  0.4370 -0.2358
  978MOL0     C28969   6.847   9.608   4.789  0.3941  0.2938  0.1116
  978MOL0     C28970   6.817   9.490   4.714  0.2760 -0.5584  0.0452
  978MOL0     C28971   6.721   9.398   4.758 -0.6391 -0.6952 -0.0661
  978MOL0     O28972   6.682   9.300   4.673 -0.0510  0.2417 -0.2315
  978MOL0     C28973   6.572   9.214   4.705  0.4155  0.0896  0.1737
  978MOL0     C28974   6.600   9.075   4.652 -0.6845 -0.7667  0.4561
  978MOL0     C28975   6.609   9.052   4.498  0.9348 -0.3578 -0.3155
  978MOL0     C28976   6.625   8.902   4.468 -0.1892  0.3028 -0.0377
  978MOL0     C28977   6.751   8.832   4.529  0.4705  0.5419  0.9553
  978MOL0     C28978   6.762   8.703   4.446 -0.1738 -0.0114 -0.1432
  978MOL0     C28979   6.885   8.615   4.467  0.0605 -0.1105 -0.1393
  978MOL0     C28980   6.877   8.484   4.393  0.1341 -0.0191 -0.2048
  978MOL0     N28981   6.987   8.391   4.424 -0.1635 -0.1733  0.2470
  978MOL0     C28982   6.973   8.274   4.494 -0.1969 -0.4683 -0.1003
  978MOL0     C28983   7.105   8.247   4.521 -0.3609  0.2517 -1.2264
  978MOL0     C28984   7.149   8.151   4.622  0.0156 -0.9378 -0.1384
  978MOL0     C28985   7.217   8.032   4.552  0.7188 -0.3118  0.3573
  978MOL0     C28986   7.239   7.912   4.647  0.9486 -1.0008  0.3760
  978MOL0     C28987   7.308   7.790   4.574  0.2837 -0.3470 -0.0036
  978MOL0     O28988   7.446   7.813   4.558  0.7957  0.4605  0.1449
  978MOL0     C28989   7.496   7.727   4.463  0.0457  0.2555 -0.2517
  978MOL0     C28990   7.442   7.603   4.428  0.4543  1.0510 -0.0315
  978MOL0     C28991   7.502   7.510   4.345 -0.6510 -0.3766  0.2059
  978MOL0     C28992   7.635   7.540   4.295 -0.2689  0.3839 -1.8265
  978MOL0     C28993   7.693   7.445   4.197  0.1214  0.6000  0.2718
  978MOL0     O28994   7.601   7.371   4.119  0.3603  0.7973  0.3178
  978MOL0     C28995   7.636   7.274   4.026  0.5028 -0.2114  0.3196
  978MOL0     C28996   7.528   7.190   3.978 -0.6201 -0.5217  0.3501
  978MOL0     C28997   7.546   7.084   3.882  0.6007 -0.6801 -0.4871
  978MOL0     C28998   7.669   7.076   3.813  0.4778  0.0399  0.1115
  978MOL0     O28999   7.684   7.002   3.702 -1.3826 -0.3110  0.1803
  978MOL0     C29000   7.628   6.877   3.697 -0.5677  0.2438  0.4299
  978MOL0     C29001   7.709   6.801   3.587 -1.0581  0.5254 -0.3526
  978MOL0     C29002   7.840   6.759   3.659 -0.2718 -0.5293  0.0100
  978MOL0     C29003   7.959   6.688   3.596 -0.1737  0.1581 -0.2418
  978MOL0     C29004   8.098   6.688   3.680 -0.0215 -0.0737  0.3037
  978MOL0     C29005   8.178   6.820   3.686  0.3391 -0.3803  0.6165
  978MOL0     C29006   8.263   6.835   3.558 -0.6449 -0.4679 -1.7564
  978MOL0     C29007   8.351   6.958   3.572  0.0164 -1.1175  1.0070
  978MOL0    Cl29008   8.455   6.962   3.424 -0.1299  0.1900  0.5644
  978MOL0     C29009   7.780   7.153   3.858  0.2420 -0.0470 -0.8064
  978MOL0     C29010   7.755   7.253   3.959  0.6936 -0.4426  0.0762
  978MOL0     O29011   7.821   7.435   4.193 -0.1175 -0.5471  0.3481
  978MOL0     C29012   7.701   7.664   4.339 -0.7050  0.5157  0.2096
  978MOL0     C29013   7.624   7.759   4.413 -0.0010  0.4610  0.0828
  978MOL0     N29014   7.193   8.335   4.463  0.5503 -0.0400 -0.2391
  978MOL0     N29015   7.116   8.422   4.409  0.5797 -0.6235  0.1546
  978MOL0     C29016   6.669   9.413   4.890  0.1768  0.1879 -0.8818
  978MOL0     C29017   6.710   9.524   4.967  0.5277 -0.1961 -0.1071
  978MOL0     C29018   6.968   9.851   5.173  0.5563 -0.0969  0.2541
  978MOL0     C29019   7.041   9.845   5.288 -0.7514  0.4645 -0.6744
  978MOL0     C29020   7.077   9.966   5.354 -0.6215  0.2385  0.0505
  978MOL0     C29021   7.045  10.083   5.290  0.2525  0.0444 -0.0547
  978MOL0     O29022   7.080  10.196   5.353  0.5600  0.8385  0.2458
  978MOL0     C29023   7.087  10.309   5.275 -0.6728 -0.2156  0.5162
  978MOL0     C29024   6.954  10.386   5.285  0.6296  0.8348  0.1687
  978MOL0     C29025   6.954  10.525   5.227  0.4879  0.2552  0.7508
  978MOL0     C29026   6.878  10.540   5.096  0.5246  1.0981 -0.3382
  978MOL0     C29027   6.733  10.500   5.104 -0.0592  0.5784 -0.8338
  978MOL0     C29028   6.609  10.479   5.109  0.1575  0.4478 -0.2600
  978MOL0     C29029   6.976  10.084   5.170 -0.3248  0.0015 -0.4161
  978MOL0     C29030   6.935   9.970   5.111  0.1969 -0.0811 -0.5789
  978MOL0     H29031   6.910   9.682   4.741 -1.7653  1.2008 -1.5027
  978MOL0     H29032   6.862   9.480   4.615 -0.0946  0.7188 -0.2765
  978MOL0     H29033   6.477   9.244   4.659  0.0324 -0.5756  0.5178
  978MOL0     H29034   6.552   9.205   4.812  1.3668 -1.6370  0.2420
  978MOL0     H29035   6.527   9.003   4.691  0.1300 -1.2498  1.0905
  978MOL0     H29036   6.699   9.051   4.692 -0.8406  0.6630  1.7779
  978MOL0     H29037   6.693   9.105   4.452  1.4961 -1.9855 -1.2706
  978MOL0     H29038   6.518   9.087   4.450  2.7346  2.8338 -1.6642
  978MOL0     H29039   6.538   8.842   4.497  0.2915  0.2316  1.3077
  978MOL0     H29040   6.619   8.882   4.360  0.6720 -1.4244  0.2091
  978MOL0     H29041   6.750   8.808   4.636  0.4813  1.8881  1.2752
  978MOL0     H29042   6.840   8.896   4.525  1.2361 -0.1708  3.8883
  978MOL0     H29043   6.774   8.719   4.339  3.8430 -2.5746 -0.2939
  978MOL0     H29044   6.675   8.641   4.469  0.5300 -0.3874  1.7207
  978MOL0     H29045   6.975   8.667   4.433 -0.3495  0.9292  0.3089
  978MOL0     H29046   6.895   8.589   4.573  0.5024 -2.9104 -0.8153
  978MOL0     H29047   6.871   8.499   4.285  2.0152 -1.1210 -0.5060
  978MOL0     H29048   6.783   8.441   4.430  0.1500 -0.1374 -0.3030
  978MOL0     H29049   6.881   8.237   4.538  1.4693 -1.1629  3.0935
  978MOL0     H29050   7.072   8.126   4.695  0.6094 -1.1360  0.4291
  978MOL0     H29051   7.223   8.200   4.687 -2.6394  2.6769  0.4920
  978MOL0     H29052   7.309   8.037   4.493 -0.2224 -4.5167 -1.9166
  978MOL0     H29053   7.132   8.010   4.486  0.1485  2.1728  0.1807
  978MOL0     H29054   7.309   7.954   4.720 -0.3548  1.3190  0.3479
  978MOL0     H29055   7.146   7.884   4.696  0.1844 -0.2404 -0.6097
  978MOL0     H29056   7.268   7.775   4.473  1.3911  1.3088 -0.7286
  978MOL0     H29057   7.295   7.699   4.634  1.0898 -0.8319 -0.5451
  978MOL0     H29058   7.343   7.584   4.468 -0.0547  3.1821 -0.1850
  978MOL0     H29059   7.453   7.420   4.309 -2.9452  0.3850  1.1893
  978MOL0     H29060   7.431   7.214   4.019 -0.8637 -1.9850  0.6983
  978MOL0     H29061   7.465   7.025   3.841 -0.8924  2.5300 -2.5395
  978MOL0     H29062   7.525   6.881   3.660  0.5379 -0.5217 -3.0742
  978MOL0     H29063   7.629   6.843   3.801 -1.2314 -0.0331  0.3533
  978MOL0     H29064   7.723   6.863   3.498 -3.2121 -1.6347 -2.3018
  978MOL0     H29065   7.662   6.710   3.550 -0.1828  0.5027 -1.4485
  978MOL0     H29066   7.806   6.698   3.744  0.6786  1.6908  2.1121
  978MOL0     H29067   7.882   6.847   3.707  0.2362 -0.5024 -0.4784
  978MOL0     H29068   7.921   6.587   3.577 -2.6146  1.1527 -1.0821
  978MOL0     H29069   7.968   6.733   3.496  0.0118  1.4059  0.3271
  978MOL0     H29070   8.165   6.608   3.650 -0.4610  0.1595 -1.4513
  978MOL0     H29071   8.072   6.652   3.780 -1.1301 -2.3461 -0.7478
  978MOL0     H29072   8.253   6.818   3.766  1.3408 -0.3676 -0.3032
  978MOL0     H29073   8.109   6.905   3.701  1.5845  0.8536 -0.4371
  978MOL0     H29074   8.330   6.752   3.535 -0.8595 -0.9993 -0.5223
  978MOL0     H29075   8.188   6.843   3.479 -2.6488 -0.1571  0.0868
  978MOL0     H29076   8.400   6.964   3.669 -1.5333 -0.2251  1.7686
  978MOL0     H29077   8.281   7.043   3.566 -0.9555 -1.9586 -0.2019
  978MOL0     H29078   7.870   7.148   3.798  0.8857 -2.3226  0.2261
  978MOL0     H29079   7.842   7.312   3.986  1.5178 -1.4633 -0.3060
  978MOL0     H29080   7.800   7.682   4.298  0.2864  2.2791  3.0708
  978MOL0     H29081   7.657   7.859   4.439  0.2127  1.2462 -2.8473
  978MOL0     H29082   6.578   9.371   4.933 -2.9711 -1.0074 -7.4720
  978MOL0     H29083   6.651   9.543   5.055 -1.1767  0.8055 -1.4080
  978MOL0     H29084   7.049   9.745   5.328 -2.0252  0.3297 -0.7291
  978MOL0     H29085   7.128   9.956   5.449 -1.1533  1.9450  0.5444
  978MOL0     H29086   7.124  10.288   5.175 -2.6836  0.2015 -0.3735
  978MOL0     H29087   7.156  10.380   5.322 -0.2036 -0.1432 -0.2664
  978MOL0     H29088   6.873  10.320   5.254  2.4595 -1.0967 -0.7547
  978MOL0     H29089   6.943  10.396   5.393  1.8280  2.3400  0.1846
  978MOL0     H29090   7.063  10.533   5.215  0.7824 -0.6852  2.4064
  978MOL0     H29091   6.912  10.605   5.288 -1.6410  0.2541 -0.6022
  978MOL0     H29092   6.889  10.645   5.068  0.8523  1.7820  2.1561
  978MOL0     H29093   6.933  10.479   5.023  2.0543  0.7949  1.0026
  978MOL0     H29094   6.507  10.455   5.090  0.9967 -2.3324 -1.7641
  978MOL0     H29095   6.953  10.173   5.113 -3.6212 -1.7675 -2.1137
  978MOL0     H29096   6.891   9.974   5.012 -0.8305  0.2763 -0.1144
  979MOL0     O29097  10.574   7.556   2.949  0.5203  0.0797  0.4742
  979MOL0     C29098  10.635   7.626   2.872 -0.2201 -0.3370  1.1822
  979MOL0     O29099  10.585   7.720   2.790  0.4775  0.4957 -0.2828
  979MOL0     C29100  10.448   7.739   2.777  0.0985  0.9620  0.4750
  979MOL0     C29101  10.362   7.641   2.738  0.5099 -0.3780  0.1577
  979MOL0     C29102  10.225   7.671   2.738 -0.2375 -0.6586  1.0490
  979MOL0     C29103  10.177   7.801   2.769  0.3152 -0.0479 -1.4207
  979MOL0     O29104  10.050   7.840   2.749  0.3788 -1.1318 -0.0450
  979MOL0     C29105   9.944   7.755   2.696  0.6307 -0.7666 -0.0126
  979MOL0     C29106   9.815   7.836   2.664  0.1707 -0.2620 -0.2802
  979MOL0     C29107   9.744   7.896   2.789 -0.6791  0.0218 -0.1467
  979MOL0     C29108   9.633   8.002   2.751 -0.9553 -1.1419 -0.3812
  979MOL0     C29109   9.491   7.979   2.808  0.0721 -0.3228 -0.4951
  979MOL0     C29110   9.420   7.859   2.748 -0.2579 -0.2845 -0.1737
  979MOL0     C29111   9.470   7.714   2.761  0.5357  0.2360  0.2572
  979MOL0     C29112   9.374   7.617   2.700  0.2087 -0.9697  0.1085
  979MOL0     N29113   9.448   7.491   2.706 -0.2098 -0.6019  0.2636
  979MOL0     C29114   9.469   7.412   2.825 -0.7196  0.2293  0.2229
  979MOL0     C29115   9.533   7.300   2.784  0.1142 -0.2057  0.0831
  979MOL0     C29116   9.564   7.185   2.868 -0.1340 -0.0353 -0.0545
  979MOL0     C29117   9.452   7.153   2.968  0.2270  0.4754  0.1540
  979MOL0     C29118   9.486   7.029   3.052 -0.4611 -0.2744  0.0113
  979MOL0     C29119   9.378   6.998   3.148  1.2417 -0.8670 -0.1903
  979MOL0     O29120   9.256   6.934   3.093 -0.0476  0.2047 -0.1725
  979MOL0     C29121   9.242   6.807   3.153  0.1259  0.0289  1.2861
  979MOL0     C29122   9.303   6.690   3.099 -0.6446 -0.4768  0.7795
  979MOL0     C29123   9.289   6.566   3.168 -0.5107 -0.7549  0.5836
  979MOL0     C29124   9.204   6.552   3.271  0.1439  1.1382 -0.5505
  979MOL0     C29125   9.170   6.417   3.336 -0.4505 -0.9267 -0.3514
  979MOL0     O29126   9.065   6.407   3.421  1.3907  0.0687 -0.4225
  979MOL0     C29127   9.011   6.283   3.448 -0.1489 -0.3643 -0.2827
  979MOL0     C29128   9.075   6.194   3.547  0.3778 -1.1293  0.0668
  979MOL0     C29129   9.025   6.074   3.565 -0.2245 -0.4871 -0.0384
  979MOL0     C29130   8.917   6.017   3.495  0.6540 -0.2223 -0.6057
  979MOL0     O29131   8.882   5.891   3.527 -0.0959 -0.6009 -0.6628
  979MOL0     C29132   8.767   5.842   3.470  0.4097 -0.3043 -0.3360
  979MOL0     C29133   8.751   5.684   3.489 -0.3984 -0.1271  0.9664
  979MOL0     C29134   8.635   5.630   3.408 -0.4588 -0.3358 -1.1173
  979MOL0     C29135   8.606   5.483   3.444 -0.4969  0.0872 -0.2380
  979MOL0     C29136   8.522   5.412   3.335 -0.5235  0.1567  0.1183
  979MOL0     C29137   8.382   5.465   3.317  0.4802 -0.4078  0.4070
  979MOL0     C29138   8.299   5.432   3.452  0.8685  1.2068 -0.0093
  979MOL0     C29139   8.147   5.435   3.443  0.3078  0.5281  0.6885
  979MOL0    Cl29140   8.105   5.604   3.439 -0.1302 -0.7142 -0.3330
  979MOL0     C29141   8.846   6.112   3.406  0.3285 -0.2260 -0.1696
  979MOL0     C29142   8.896   6.236   3.381 -0.3703  1.0802  0.1439
  979MOL0     O29143   9.204   6.320   3.269 -0.8196 -0.2791  0.0815
  979MOL0     C29144   9.147   6.664   3.325 -0.1141  0.3586  0.3754
  979MOL0     C29145   9.170   6.789   3.263 -0.2268  0.0050 -0.1550
  979MOL0     N29146   9.556   7.308   2.644 -0.2393  0.4936  0.4278
  979MOL0     N29147   9.504   7.421   2.606 -0.4965 -1.3154  0.5922
  979MOL0     C29148  10.262   7.894   2.828 -1.1488  0.0022 -0.5773
  979MOL0     C29149  10.395   7.861   2.825 -0.6010  0.1460  0.8843
  979MOL0     C29150  10.777   7.599   2.846 -0.3690 -0.4416 -0.7171
  979MOL0     C29151  10.863   7.703   2.793 -0.7450  0.6913 -0.0674
  979MOL0     C29152  11.002   7.678   2.775 -0.1155  0.2522  0.6524
  979MOL0     C29153  11.060   7.553   2.813  0.7489  0.1143  0.4914
  979MOL0     O29154  11.195   7.533   2.777  0.3543  0.1483 -0.0645
  979MOL0     C29155  11.266   7.416   2.823 -0.1287 -0.9255 -0.2396
  979MOL0     C29156  11.382   7.402   2.734 -0.0670 -0.0726 -0.9689
  979MOL0     C29157  11.475   7.287   2.778  0.5609  0.6209  1.0631
  979MOL0     C29158  11.572   7.244   2.667 -0.7404  0.3404  0.2643
  979MOL0     C29159  11.665   7.152   2.746  0.4834 -0.3180  0.2774
  979MOL0     C29160  11.741   7.099   2.814 -0.7152  0.0860 -0.5539
  979MOL0     C29161  10.972   7.460   2.867  0.9624  0.6489 -0.0271
  979MOL0     C29162  10.836   7.482   2.877 -0.3107  0.9222  0.1109
  979MOL0     H29163  10.403   7.546   2.706  0.7654 -0.1274 -0.2582
  979MOL0     H29164  10.156   7.600   2.694 -0.7902  1.6099 -2.1162
  979MOL0     H29165   9.921   7.676   2.767  1.3882 -0.7983  0.1955
  979MOL0     H29166   9.984   7.705   2.608  3.5552 -0.1933  0.8824
  979MOL0     H29167   9.752   7.764   2.612 -2.6844  2.1499 -0.4884
  979MOL0     H29168   9.831   7.913   2.588 -2.6990 -0.6399 -1.3896
  979MOL0     H29169   9.825   7.950   2.838  0.5443 -1.2266 -0.7299
  979MOL0     H29170   9.712   7.827   2.867 -1.9853  2.1088  1.2708
  979MOL0     H29171   9.664   8.093   2.803 -0.5618 -1.6770  0.3445
  979MOL0     H29172   9.630   8.005   2.642 -2.2059  0.2591 -0.3351
  979MOL0     H29173   9.441   8.077   2.803  1.3565  0.3098 -4.0516
  979MOL0     H29174   9.517   7.959   2.912 -2.7808  1.8376  0.7510
  979MOL0     H29175   9.415   7.885   2.642 -2.7832 -1.6287 -0.4370
  979MOL0     H29176   9.320   7.857   2.791  0.1285  0.4791  0.8034
  979MOL0     H29177   9.567   7.716   2.711  0.4970 -2.8767 -0.1662
  979MOL0     H29178   9.490   7.688   2.865  0.0991  1.0363  0.5424
  979MOL0     H29179   9.354   7.643   2.596  0.2672 -0.1495  0.2938
  979MOL0     H29180   9.283   7.629   2.759 -1.2848  1.1874 -2.4269
  979MOL0     H29181   9.428   7.438   2.922 -1.5123 -1.2583  0.3205
  979MOL0     H29182   9.658   7.216   2.916  0.3791  0.8634 -1.5547
  979MOL0     H29183   9.595   7.102   2.804  1.8409 -0.4266  1.2997
  979MOL0     H29184   9.359   7.130   2.917  0.4768 -1.7031  0.5989
  979MOL0     H29185   9.439   7.234   3.041 -0.4724  1.6448 -1.2091
  979MOL0     H29186   9.494   6.945   2.982 -0.4282 -1.5034  1.4517
  979MOL0     H29187   9.579   7.048   3.106 -0.1135  1.6929 -1.1884
  979MOL0     H29188   9.338   7.078   3.211 -4.7242 -3.1870 -0.4092
  979MOL0     H29189   9.419   6.923   3.216  0.3550 -2.6500 -1.5395
  979MOL0     H29190   9.363   6.691   3.008 -0.0258 -3.9022  1.0043
  979MOL0     H29191   9.358   6.493   3.126  1.0606  1.3871 -0.7737
  979MOL0     H29192   9.164   6.235   3.594  0.9999 -1.2369 -0.9788
  979MOL0     H29193   9.072   6.017   3.645 -0.5421  0.3285  0.7410
  979MOL0     H29194   8.758   5.866   3.364 -4.2418  2.6855  0.4953
  979MOL0     H29195   8.687   5.891   3.525  3.9461  4.0094  1.6058
  979MOL0     H29196   8.740   5.663   3.595  5.0233 -1.2669  1.5882
  979MOL0     H29197   8.852   5.648   3.471 -0.6908 -0.8144  0.6645
  979MOL0     H29198   8.666   5.657   3.307 -1.5514  2.8672 -0.7271
  979MOL0     H29199   8.541   5.684   3.423 -0.9550 -1.9636  2.7033
  979MOL0     H29200   8.696   5.423   3.454  0.2267  1.3063  0.8554
  979MOL0     H29201   8.563   5.467   3.543  1.2009  1.5405  0.7919
  979MOL0     H29202   8.515   5.306   3.360  1.7284  0.3686  1.9240
  979MOL0     H29203   8.573   5.425   3.239 -0.0690  3.0230  0.6437
  979MOL0     H29204   8.336   5.427   3.226 -1.4716  4.0806 -0.7813
  979MOL0     H29205   8.392   5.573   3.302 -0.6392 -0.4429 -0.7412
  979MOL0     H29206   8.329   5.336   3.496 -0.6960  1.6502  2.1967
  979MOL0     H29207   8.306   5.499   3.537  1.0996  1.0850  0.0671
  979MOL0     H29208   8.105   5.381   3.528 -0.8669 -1.9143 -1.3166
  979MOL0     H29209   8.104   5.388   3.354  0.0121 -0.1598  1.1889
  979MOL0     H29210   8.755   6.081   3.356 -1.1009 -0.3922  2.3277
  979MOL0     H29211   8.859   6.303   3.304 -3.4517 -1.6780 -1.0041
  979MOL0     H29212   9.087   6.652   3.414 -3.6123  2.2154 -1.5123
  979MOL0     H29213   9.132   6.876   3.315 -2.3989 -1.3757  0.7489
  979MOL0     H29214  10.231   7.989   2.870 -0.9228 -0.2202  0.1111
  979MOL0     H29215  10.468   7.933   2.858 -0.1625  0.3512 -0.4620
  979MOL0     H29216  10.829   7.804   2.772 -2.5273 -0.1087 -1.2634
  979MOL0     H29217  11.076   7.749   2.738  1.4562 -0.1236  2.8482
  979MOL0     H29218  11.204   7.325   2.822 -1.5957  0.0386  0.2193
  979MOL0     H29219  11.289   7.417   2.930  1.1273 -0.4143 -0.4991
  979MOL0     H29220  11.357   7.391   2.628  0.9409  4.3368 -1.8357
  979MOL0     H29221  11.442   7.491   2.750  3.6875 -2.4579 -0.6165
  979MOL0     H29222  11.412   7.200   2.798  1.1411 -0.0733 -0.0538
  979MOL0     H29223  11.524   7.312   2.872 -1.6807 -0.5055  2.6385
  979MOL0     H29224  11.530   7.193   2.580  1.9473 -2.0489  0.2149
  979MOL0     H29225  11.622   7.331   2.626 -1.1896 -1.0248 -3.5659
  979MOL0     H29226  11.802   7.041   2.880  0.8166 -0.6693 -2.5461
  979MOL0     H29227  11.001   7.357   2.883 -0.9483 -0.3356 -2.2613
  979MOL0     H29228  10.780   7.393   2.906 -1.7528  2.1250  1.1663
  980MOL0     O29229   9.343   7.151   8.217  0.1358 -0.1727  0.8286
  980MOL0     C29230   9.438   7.169   8.291 -1.6519  0.7749 -0.1350
  980MOL0     O29231   9.557   7.092   8.285 -0.1405 -0.7071 -1.0680
  980MOL0     C29232   9.603   7.043   8.168 -0.4622  0.7477 -0.0017
  980MOL0     C29233   9.616   6.901   8.164  0.2834 -0.4831 -0.3798
  980MOL0     C29234   9.678   6.835   8.062 -1.5288 -0.6211  0.2320
  980MOL0     C29235   9.734   6.918   7.950 -0.2363  0.6476 -1.1598
  980MOL0     O29236   9.807   6.865   7.849  0.1930  0.4571  0.5350
  980MOL0     C29237   9.793   6.731   7.800  0.1289  0.0007  0.3218
  980MOL0     C29238   9.875   6.623   7.864 -0.1425 -1.0419  0.2399
  980MOL0     C29239  10.025   6.668   7.854  1.0394 -0.9536 -0.3184
  980MOL0     C29240  10.111   6.551   7.891  0.0613 -0.4967 -0.0794
  980MOL0     C29241  10.258   6.562   7.900  0.0605 -0.0430  0.0084
  980MOL0     C29242  10.325   6.422   7.924  1.3938 -0.1171  0.2092
  980MOL0     C29243  10.339   6.386   8.071 -0.8488 -0.2404 -0.4892
  980MOL0     C29244  10.430   6.479   8.137 -0.2607 -0.0258  0.6861
  980MOL0     N29245  10.568   6.454   8.071  0.8042 -0.7245  0.6888
  980MOL0     C29246  10.650   6.351   8.104  0.2036 -0.5842  0.0721
  980MOL0     C29247  10.750   6.358   8.024  0.8416  0.4628  0.3959
  980MOL0     C29248  10.862   6.255   8.038  0.9595  0.2775 -0.1828
  980MOL0     C29249  10.820   6.111   8.043  0.3319  0.8930  0.2259
  980MOL0     C29250  10.937   6.014   8.086 -1.2765 -0.0870  0.3044
  980MOL0     C29251  10.906   5.864   8.084 -1.1478  0.2142 -0.3029
  980MOL0     O29252  10.812   5.836   7.975  0.3813  0.1158  1.0731
  980MOL0     C29253  10.868   5.748   7.887 -0.1464 -0.1002 -0.6387
  980MOL0     C29254  10.901   5.784   7.756  0.2557 -0.0660 -1.6345
  980MOL0     C29255  10.930   5.691   7.663 -1.4767  0.4833  0.1747
  980MOL0     C29256  10.939   5.549   7.698 -1.0938 -0.4326 -0.1887
  980MOL0     C29257  10.954   5.450   7.586 -0.1415 -0.0117 -0.5979
  980MOL0     O29258  11.016   5.326   7.616 -0.6643 -0.2571 -0.7441
  980MOL0     C29259  11.034   5.229   7.524  0.1648  0.0582 -0.7789
  980MOL0     C29260  11.051   5.092   7.568 -1.6111  0.0923 -0.1988
  980MOL0     C29261  11.066   4.982   7.486  0.0880  0.2887 -0.6234
  980MOL0     C29262  11.066   4.994   7.342 -0.6745  0.3097 -1.5712
  980MOL0     O29263  11.065   4.881   7.261  0.8943 -0.2210  0.3333
  980MOL0     C29264  11.131   4.763   7.302 -0.1387  0.5003 -0.3796
  980MOL0     C29265  11.212   4.710   7.180  0.6679  0.1402  0.5485
  980MOL0     C29266  11.369   4.749   7.165 -0.3632 -0.1400  0.2497
  980MOL0     C29267  11.379   4.899   7.123 -0.2421 -0.0349  0.4608
  980MOL0     C29268  11.517   4.960   7.141 -0.1215 -0.0538  0.9440
  980MOL0     C29269  11.532   5.004   7.292 -0.4184 -0.0475  0.3105
  980MOL0     C29270  11.494   5.159   7.323  0.1740  0.1260  0.0501
  980MOL0     C29271  11.424   5.176   7.456  1.1783 -0.7218 -0.4476
  980MOL0    Cl29272  11.396   5.358   7.463 -0.1671  0.7387 -0.4442
  980MOL0     C29273  11.065   5.135   7.301 -0.8335  0.1529 -0.9791
  980MOL0     C29274  11.053   5.245   7.383  0.3753  0.9854  0.0404
  980MOL0     O29275  10.915   5.481   7.478  0.2251 -0.6850  0.0165
  980MOL0     C29276  10.927   5.518   7.834 -0.5613  0.3295  0.1036
  980MOL0     C29277  10.890   5.618   7.926  0.0315  0.1052 -0.8553
  980MOL0     N29278  10.741   6.468   7.945 -0.3258  0.5303 -0.5286
  980MOL0     N29279  10.626   6.531   7.973  0.3566 -0.4544 -0.3490
  980MOL0     C29280   9.719   7.059   7.961  0.3713  0.6497  0.0395
  980MOL0     C29281   9.651   7.124   8.070 -0.2935  0.5373  0.0162
  980MOL0     C29282   9.428   7.273   8.393  1.1510 -0.5552 -0.1836
  980MOL0     C29283   9.321   7.363   8.388 -0.0231 -0.1743 -0.3068
  980MOL0     C29284   9.314   7.472   8.484  0.2677 -0.7407  0.3336
  980MOL0     C29285   9.412   7.483   8.580 -0.4586 -0.4581 -0.1342
  980MOL0     O29286   9.425   7.589   8.666  0.5725 -0.7688  0.2569
  980MOL0     C29287   9.328   7.688   8.650 -0.5448 -0.3437 -0.1687
  980MOL0     C29288   9.379   7.799   8.744  1.0581  0.1747  0.7535
  980MOL0     C29289   9.262   7.862   8.826  0.0655  0.3910 -0.1182
  980MOL0     C29290   9.181   7.964   8.755 -0.1286 -0.0807  0.0335
  980MOL0     C29291   9.101   7.901   8.641  0.1833 -0.8276 -1.1202
  980MOL0     C29292   9.024   7.853   8.557 -0.0152 -0.5441  1.0087
  980MOL0     C29293   9.526   7.398   8.582  0.7150 -0.0348  0.2646
  980MOL0     C29294   9.529   7.283   8.495 -0.9034 -0.3764 -0.4450
  980MOL0     H29295   9.560   6.843   8.237 -1.2788  3.4162  1.8168
  980MOL0     H29296   9.691   6.727   8.060 -0.0287 -0.5181  1.9118
  980MOL0     H29297   9.827   6.731   7.696 -2.9427  1.6942 -0.8323
  980MOL0     H29298   9.688   6.702   7.804  0.9315 -3.1572  1.2777
  980MOL0     H29299   9.860   6.528   7.812  0.0873  0.0852 -2.0018
  980MOL0     H29300   9.851   6.607   7.970  0.3546 -2.3953  0.1585
  980MOL0     H29301  10.038   6.734   7.940  2.4547  1.6443 -2.3702
  980MOL0     H29302  10.052   6.708   7.756  0.5427 -1.2783 -0.5912
  980MOL0     H29303  10.081   6.523   7.992 -4.0577  1.4541 -0.5770
  980MOL0     H29304  10.089   6.478   7.812  1.0266 -0.2835 -0.5633
  980MOL0     H29305  10.277   6.640   7.974 -2.3259  0.7317 -0.1115
  980MOL0     H29306  10.294   6.593   7.802 -0.5825  0.2617 -0.1407
  980MOL0     H29307  10.420   6.404   7.874  1.3695 -1.3016  0.5650
  980MOL0     H29308  10.259   6.342   7.889 -1.9220  2.6320 -0.3623
  980MOL0     H29309  10.245   6.397   8.125 -0.7748  1.2247 -0.5970
  980MOL0     H29310  10.381   6.286   8.084  2.3451  0.5287 -3.1939
  980MOL0     H29311  10.433   6.466   8.245 -3.6321 -0.4181  0.8119
  980MOL0     H29312  10.405   6.584   8.124 -0.4644 -0.1868 -0.3438
  980MOL0     H29313  10.613   6.290   8.186 -2.1565  1.6430  0.7781
  980MOL0     H29314  10.901   6.292   8.134  0.6174 -0.1378  0.1217
  980MOL0     H29315  10.936   6.271   7.960 -1.6395 -0.3027 -2.9324
  980MOL0     H29316  10.791   6.082   7.941 -0.6545 -1.3371  1.0677
  980MOL0     H29317  10.736   6.097   8.112  1.8661 -3.8082  1.5011
  980MOL0     H29318  11.018   6.046   8.019 -1.2258 -0.5336  0.1531
  980MOL0     H29319  10.975   6.035   8.186 -1.3957 -0.1418  0.3613
  980MOL0     H29320  10.858   5.847   8.181 -1.6365 -2.7414 -0.9887
  980MOL0     H29321  11.003   5.814   8.084 -0.9053  0.6769 -0.7916
  980MOL0     H29322  10.889   5.887   7.723  3.0027 -0.6052 -4.7665
  980MOL0     H29323  10.945   5.712   7.558 -2.3553 -1.1270 -0.2982
  980MOL0     H29324  11.034   5.081   7.675  0.5431  1.0366  0.2994
  980MOL0     H29325  11.085   4.884   7.529  3.7491  0.5257 -1.3750
  980MOL0     H29326  11.058   4.690   7.338  0.5265  0.7197  1.5363
  980MOL0     H29327  11.202   4.766   7.385 -1.0441 -4.3218  0.8497
  980MOL0     H29328  11.153   4.742   7.093  0.1550 -1.4277  0.2936
  980MOL0     H29329  11.206   4.601   7.186  2.4613 -0.0363 -0.2116
  980MOL0     H29330  11.403   4.687   7.081  0.6173 -0.1564  0.6416
  980MOL0     H29331  11.436   4.732   7.250  2.3160  0.8155 -1.5479
  980MOL0     H29332  11.346   4.891   7.019  1.1276 -2.8509  0.1711
  980MOL0     H29333  11.302   4.965   7.166 -0.2653  0.0587  0.2777
  980MOL0     H29334  11.534   5.045   7.075 -0.3598  0.9661  2.1652
  980MOL0     H29335  11.580   4.879   7.103 -0.5657 -0.0218  0.1176
  980MOL0     H29336  11.637   4.986   7.316 -0.1993  1.3501  0.5169
  980MOL0     H29337  11.477   4.938   7.360 -0.0810 -1.3620 -0.6483
  980MOL0     H29338  11.582   5.223   7.314  2.3197 -2.6865 -0.5517
  980MOL0     H29339  11.430   5.200   7.245 -1.0666 -1.7329  0.0308
  980MOL0     H29340  11.474   5.143   7.547  1.1196 -0.6711 -0.3969
  980MOL0     H29341  11.323   5.135   7.448 -1.7963  5.1629  0.7738
  980MOL0     H29342  11.067   5.149   7.194  1.5999  0.4278 -0.9518
  980MOL0     H29343  11.063   5.344   7.340  0.0171  0.9210 -0.1955
  980MOL0     H29344  10.949   5.419   7.873 -2.8028 -1.1374 -2.0579
  980MOL0     H29345  10.883   5.584   8.029  0.3416  0.0235 -0.8601
  980MOL0     H29346   9.784   7.115   7.895  1.7979 -1.9886 -0.9721
  980MOL0     H29347   9.634   7.231   8.072  0.4989  0.6594  0.5592
  980MOL0     H29348   9.244   7.349   8.313  0.6209 -2.6483 -0.5935
  980MOL0     H29349   9.235   7.545   8.475  1.8006  1.2321  1.9708
  980MOL0     H29350   9.222   7.672   8.672 -1.7728  3.3372 -2.5597
  980MOL0     H29351   9.338   7.708   8.543  0.1755 -6.0818 -1.4970
  980MOL0     H29352   9.460   7.770   8.812  1.2565  2.4536  1.5717
  980MOL0     H29353   9.423   7.878   8.683 -1.6740 -0.2257 -1.9372
  980MOL0     H29354   9.308   7.910   8.913  1.6958 -0.4170 -0.5059
  980MOL0     H29355   9.199   7.778   8.859 -0.2177 -0.1122 -1.8651
  980MOL0     H29356   9.113   8.016   8.824 -1.0204  2.9311 -2.8522
  980MOL0     H29357   9.235   8.043   8.702 -1.2909 -1.2131 -3.0670
  980MOL0     H29358   8.956   7.815   8.484 -0.0818  1.0494  0.2054
  980MOL0     H29359   9.609   7.412   8.650  2.6093  4.0818 -2.5117
  980MOL0     H29360   9.605   7.206   8.495 -0.1959  0.2582  1.5477
  981MOL0     O29361   0.669   0.264   1.631  0.3331  0.2030  1.1517
  981MOL0     C29362   0.688   0.350   1.718 -1.0577  0.3342  0.7401
  981MOL0     O29363   0.727   0.313   1.849 -0.0921  0.2380  0.0475
  981MOL0     C29364   0.728   0.181   1.890  0.0435  0.7364 -0.0860
  981MOL0     C29365   0.622   0.097   1.871  0.0223  0.5087 -0.7157
  981MOL0     C29366   0.632  -0.030   1.921 -0.0260 -0.3159 -0.5810
  981MOL0     C29367   0.752  -0.087   1.981  0.8227 -0.2003  0.4428
  981MOL0     O29368   0.772  -0.230   2.007  0.6051 -0.3511 -0.4469
  981MOL0     C29369   0.687  -0.324   1.929 -0.4335 -0.2424 -0.3614
  981MOL0     C29370   0.756  -0.460   1.960  0.6532  0.8035  0.2296
  981MOL0     C29371   0.849  -0.516   1.848 -0.8336 -0.6675 -0.6468
  981MOL0     C29372   0.789  -0.542   1.717 -0.5914  0.8127  0.2125
  981MOL0     C29373   0.886  -0.599   1.616 -0.1070 -0.0854  0.0525
  981MOL0     C29374   0.819  -0.641   1.479  0.4962 -0.2332 -0.0505
  981MOL0     C29375   0.923  -0.704   1.387  0.2648  0.1500  0.2960
  981MOL0     C29376   0.882  -0.727   1.232  0.4430  0.5103 -0.6497
  981MOL0     N29377   0.983  -0.796   1.151 -0.4532 -0.5989  0.7617
  981MOL0     C29378   1.085  -0.731   1.086 -0.0049  0.4150  0.2210
  981MOL0     C29379   1.149  -0.831   1.027 -0.9820  0.4793  0.8749
  981MOL0     C29380   1.266  -0.840   0.931  0.3704  0.0937  0.1352
  981MOL0     C29381   1.238  -0.802   0.783  0.2398  1.0461 -0.4424
  981MOL0     C29382   1.362  -0.799   0.686  0.3277  0.2469  0.6978
  981MOL0     C29383   1.487  -0.724   0.741  0.7268  0.0441 -0.1165
  981MOL0     O29384   1.581  -0.819   0.785  0.4658 -0.1733 -0.0918
  981MOL0     C29385   1.707  -0.787   0.821 -0.3981 -0.0811  0.5295
  981MOL0     C29386   1.776  -0.662   0.819 -0.7383 -0.4701 -0.3069
  981MOL0     C29387   1.909  -0.646   0.866  0.4125 -0.2439 -0.4436
  981MOL0     C29388   1.974  -0.755   0.919 -0.1136  0.1905  0.0735
  981MOL0     C29389   2.108  -0.743   0.974  0.5288 -0.1868 -0.1218
  981MOL0     O29390   2.175  -0.851   0.998 -0.7254 -0.1358 -0.4166
  981MOL0     C29391   2.303  -0.838   1.049 -0.2720  0.5205  0.6424
  981MOL0     C29392   2.409  -0.803   0.968  0.6966  1.3878 -0.6609
  981MOL0     C29393   2.540  -0.788   1.024  0.5756 -0.7906  0.7496
  981MOL0     C29394   2.566  -0.830   1.148  0.4215  0.5659 -0.5638
  981MOL0     O29395   2.694  -0.830   1.206  0.6720  0.1138  0.8206
  981MOL0     C29396   2.710  -0.747   1.319  0.2451 -1.0471  0.1302
  981MOL0     C29397   2.861  -0.703   1.338 -0.5562  0.6250  0.1749
  981MOL0     C29398   2.904  -0.699   1.483  0.2336  0.9570  0.5723
  981MOL0     C29399   2.794  -0.643   1.584 -0.0072  0.0577 -0.0104
  981MOL0     C29400   2.853  -0.597   1.713 -0.8026  0.4135 -0.5410
  981MOL0     C29401   2.908  -0.715   1.798 -0.2181  0.8570 -0.7758
  981MOL0     C29402   2.919  -0.686   1.943 -0.2024  0.2672  0.5136
  981MOL0     C29403   2.946  -0.803   2.030  0.3446  0.9411  0.0016
  981MOL0    Cl29404   2.815  -0.935   2.028 -0.4972  0.1795 -0.1607
  981MOL0     C29405   2.462  -0.880   1.235  0.3974  0.5822 -0.1868
  981MOL0     C29406   2.334  -0.877   1.183  0.2871  0.3950  0.7654
  981MOL0     O29407   2.151  -0.630   1.007 -0.3979  0.6481 -0.2696
  981MOL0     C29408   1.912  -0.878   0.908 -0.2161  0.6650  0.1559
  981MOL0     C29409   1.782  -0.898   0.862  0.7306  0.0062 -0.8168
  981MOL0     N29410   1.088  -0.948   1.060  0.0121  0.6183  0.3863
  981MOL0     N29411   0.980  -0.922   1.121 -0.5219 -0.1599 -0.1756
  981MOL0     C29412   0.844   0.012   2.014 -0.3575 -0.4137  0.3427
  981MOL0     C29413   0.835   0.146   1.970 -0.3749  0.6573  0.3041
  981MOL0     C29414   0.671   0.492   1.684  0.3517  0.0603 -0.3978
  981MOL0     C29415   0.634   0.531   1.556 -0.0752 -0.0396 -0.1222
  981MOL0     C29416   0.608   0.667   1.526  0.4468  0.0926  0.2944
  981MOL0     C29417   0.626   0.761   1.629 -0.3374  0.3774 -0.2231
  981MOL0     O29418   0.605   0.892   1.609 -0.1872 -0.2238 -0.1817
  981MOL0     C29419   0.475   0.938   1.643 -0.6176 -0.7399 -0.2885
  981MOL0     C29420   0.461   1.095   1.632  0.7041  0.7630  0.5842
  981MOL0     C29421   0.590   1.175   1.641 -0.1166 -0.1541 -0.6730
  981MOL0     C29422   0.557   1.321   1.648 -0.6984  0.4471  0.1779
  981MOL0     C29423   0.516   1.370   1.516 -0.1541 -0.2675 -0.2395
  981MOL0     C29424   0.509   1.411   1.402 -0.2547  0.6370 -0.3328
  981MOL0     C29425   0.663   0.723   1.756  0.4445  0.0642 -0.1095
  981MOL0     C29426   0.692   0.588   1.782  0.4485  0.2780  0.4038
  981MOL0     H29427   0.527   0.116   1.822 -1.3931  2.1626  2.4374
  981MOL0     H29428   0.545  -0.093   1.908 -2.0631  1.8836  1.3709
  981MOL0     H29429   0.685  -0.308   1.821 -2.2449 -1.3294 -0.5191
  981MOL0     H29430   0.590  -0.325   1.979 -0.0941  0.1762  0.3237
  981MOL0     H29431   0.672  -0.528   1.976 -0.7896  2.7098  1.1801
  981MOL0     H29432   0.816  -0.453   2.052  2.1697  3.9979 -0.8512
  981MOL0     H29433   0.898  -0.609   1.879 -0.6598  0.6623  3.7245
  981MOL0     H29434   0.920  -0.436   1.823 -0.5003 -1.1069 -1.1330
  981MOL0     H29435   0.709  -0.615   1.731  0.0571  0.0367 -0.0953
  981MOL0     H29436   0.737  -0.456   1.674 -0.3334  1.8411  1.8607
  981MOL0     H29437   0.936  -0.686   1.660  1.2464  0.8653  0.4707
  981MOL0     H29438   0.971  -0.534   1.594  0.1537 -0.4636 -0.0697
  981MOL0     H29439   0.780  -0.554   1.426  3.2908  0.6009 -0.9338
  981MOL0     H29440   0.741  -0.714   1.502 -0.6853  2.1899  5.0803
  981MOL0     H29441   1.010  -0.639   1.391 -0.9643  1.8184  1.7393
  981MOL0     H29442   0.950  -0.800   1.434 -0.0355  0.2568  0.6991
  981MOL0     H29443   0.856  -0.628   1.192 -0.9921  1.2339  1.8694
  981MOL0     H29444   0.785  -0.777   1.233  0.4501  0.4314  1.5884
  981MOL0     H29445   1.106  -0.624   1.085 -1.6417  0.8877  3.3359
  981MOL0     H29446   1.302  -0.943   0.925  1.0122  0.3024  0.2792
  981MOL0     H29447   1.343  -0.771   0.967  0.0731 -0.4942  1.9896
  981MOL0     H29448   1.179  -0.710   0.786 -0.2849  0.7277  2.9601
  981MOL0     H29449   1.166  -0.873   0.741 -0.0395  0.8132  0.4209
  981MOL0     H29450   1.368  -0.899   0.641  0.5399  0.4045  0.3718
  981MOL0     H29451   1.335  -0.734   0.602 -0.4627 -0.5454  0.3226
  981MOL0     H29452   1.456  -0.655   0.820  1.7459  1.5165 -0.9617
  981MOL0     H29453   1.528  -0.660   0.663 -1.1239 -1.0313 -2.0801
  981MOL0     H29454   1.716  -0.573   0.805 -1.1613 -0.0521  3.2449
  981MOL0     H29455   1.937  -0.542   0.879  0.0242  0.0309 -1.7077
  981MOL0     H29456   2.373  -0.773   0.870  0.2699  0.2498 -0.8723
  981MOL0     H29457   2.621  -0.739   0.971 -0.8365  1.0549  0.2192
  981MOL0     H29458   2.670  -0.793   1.409  1.8416 -0.3110  1.2547
  981MOL0     H29459   2.653  -0.658   1.293  1.0773 -0.9910 -1.7006
  981MOL0     H29460   2.865  -0.604   1.292 -2.8134  1.0680  0.7730
  981MOL0     H29461   2.928  -0.773   1.288  2.1856  2.2338  1.3927
  981MOL0     H29462   2.997  -0.644   1.495 -0.2598  1.7981  0.6702
  981MOL0     H29463   2.922  -0.803   1.509  0.7422  1.1604  1.0584
  981MOL0     H29464   2.733  -0.565   1.537  0.0125 -1.0489 -1.9800
  981MOL0     H29465   2.730  -0.726   1.614  0.2650 -0.0543  0.2584
  981MOL0     H29466   2.767  -0.556   1.767 -0.6537  1.5630 -1.1462
  981MOL0     H29467   2.940  -0.534   1.693  0.7816 -1.3590  0.3855
  981MOL0     H29468   2.999  -0.751   1.749 -0.8006  1.3331 -2.2540
  981MOL0     H29469   2.837  -0.798   1.802 -0.9793  1.5067  2.6764
  981MOL0     H29470   2.999  -0.612   1.948  0.0284  0.6135 -4.0522
  981MOL0     H29471   2.820  -0.648   1.969  0.5192  3.0120 -0.5141
  981MOL0     H29472   2.977  -0.775   2.131 -0.9192 -0.2951  0.7681
  981MOL0     H29473   3.030  -0.855   1.983  0.7381  0.4574  1.1894
  981MOL0     H29474   2.483  -0.918   1.334  1.6606 -2.6875 -1.5770
  981MOL0     H29475   2.245  -0.912   1.235 -0.9707 -0.1848 -1.6588
  981MOL0     H29476   1.977  -0.961   0.935  1.2558  2.2928  1.8544
  981MOL0     H29477   1.736  -0.995   0.880  1.9162 -0.9783 -2.7960
  981MOL0     H29478   0.936   0.000   2.070  0.5155 -0.7720 -1.1274
  981MOL0     H29479   0.913   0.222   1.968 -0.8116  1.1759  1.3912
  981MOL0     H29480   0.624   0.452   1.482 -0.9947  0.4103 -0.4950
  981MOL0     H29481   0.580   0.699   1.426 -4.0058 -2.2921  0.5254
  981MOL0     H29482   0.458   0.907   1.746  0.8036 -2.1561 -0.4475
  981MOL0     H29483   0.396   0.906   1.575 -0.6399  0.7392 -1.0033
  981MOL0     H29484   0.432   1.105   1.527  0.8542 -1.6105  0.2745
  981MOL0     H29485   0.378   1.133   1.693  0.1393  3.1341 -1.5042
  981MOL0     H29486   0.657   1.165   1.554  1.4810 -2.4915  0.7015
  981MOL0     H29487   0.640   1.135   1.730  1.3483  0.6810 -1.0728
  981MOL0     H29488   0.478   1.335   1.722 -1.2724  2.5269 -0.7597
  981MOL0     H29489   0.650   1.367   1.683 -1.0423  3.1396 -2.1248
  981MOL0     H29490   0.506   1.455   1.304  4.5629 -0.2668 -1.1342
  981MOL0     H29491   0.639   0.796   1.832 -0.5629  0.5366 -0.8639
  981MOL0     H29492   0.723   0.567   1.884 -0.8035  1.2945  1.0297
  982MOL0     O29493   6.448   4.614   0.839  0.4092 -0.0880 -0.5039
  982MOL0     C29494   6.485   4.706   0.774  0.3039 -0.7708  0.5900
  982MOL0     O29495   6.422   4.826   0.774  0.1780  0.1313  0.0087
  982MOL0     C29496   6.300   4.844   0.825  0.4168 -0.8840  0.3347
  982MOL0     C29497   6.183   4.788   0.780 -0.9561  0.3840  0.1697
  982MOL0     C29498   6.059   4.841   0.823  0.1486  0.3750 -0.1849
  982MOL0     C29499   6.054   4.945   0.918 -0.1679 -0.0690 -0.2339
  982MOL0     O29500   5.941   4.997   0.976 -0.3949 -0.5551 -0.0568
  982MOL0     C29501   5.812   4.957   0.924 -0.3633  0.2782 -0.9481
  982MOL0     C29502   5.700   4.986   1.030 -0.3611  0.3462 -1.1605
  982MOL0     C29503   5.574   4.888   1.007  1.5200 -0.5686 -0.8524
  982MOL0     C29504   5.464   4.986   0.949 -0.1587  0.0371 -0.5402
  982MOL0     C29505   5.337   4.909   0.947  0.3768 -0.4762 -1.3944
  982MOL0     C29506   5.225   4.965   0.866  0.8252  0.0089  0.3115
  982MOL0     C29507   5.093   4.888   0.881  0.0075  0.7450  0.4939
  982MOL0     C29508   4.989   4.906   0.770  0.1239  0.0035 -0.9448
  982MOL0     N29509   4.926   5.036   0.783  0.2577 -0.4027  0.2381
  982MOL0     C29510   4.847   5.093   0.883  0.2924 -0.2830  0.4608
  982MOL0     C29511   4.844   5.229   0.858  0.9196 -0.3194  0.3380
  982MOL0     C29512   4.795   5.329   0.958 -0.7739  0.2031 -0.5658
  982MOL0     C29513   4.646   5.361   0.942  0.0320 -0.1773 -0.6126
  982MOL0     C29514   4.624   5.425   0.811 -0.5458 -0.3203 -0.0450
  982MOL0     C29515   4.483   5.481   0.795 -0.0224  0.0071 -0.2876
  982MOL0     O29516   4.450   5.589   0.886  0.1593  0.0518  0.0656
  982MOL0     C29517   4.314   5.635   0.873 -0.1304  0.6942 -0.2701
  982MOL0     C29518   4.254   5.690   0.986 -1.0442  0.4765 -0.1754
  982MOL0     C29519   4.117   5.724   0.993  0.2838 -0.8422  0.8145
  982MOL0     C29520   4.043   5.724   0.876  1.0030  0.1137  1.1644
  982MOL0     C29521   3.905   5.781   0.880 -0.1844  0.7072  0.8975
  982MOL0     O29522   3.868   5.827   0.758  0.2602 -0.1985  0.9302
  982MOL0     C29523   3.733   5.808   0.720  0.3445  0.3838  0.4822
  982MOL0     C29524   3.698   5.680   0.666  0.5485 -0.8524  0.5457
  982MOL0     C29525   3.560   5.661   0.620 -0.5087  0.4648 -0.7327
  982MOL0     C29526   3.463   5.763   0.636  0.3602 -0.0395 -0.1595
  982MOL0     O29527   3.331   5.742   0.610  0.8795 -0.0632  0.4847
  982MOL0     C29528   3.259   5.732   0.731  0.2009 -0.9500 -0.2840
  982MOL0     C29529   3.109   5.731   0.697 -0.2118 -0.1649  0.0092
  982MOL0     C29530   3.030   5.690   0.816  0.3492  0.6798  0.0263
  982MOL0     C29531   2.878   5.662   0.807  0.5193 -0.0814 -0.0551
  982MOL0     C29532   2.829   5.640   0.955 -0.2241  0.8634 -0.1091
  982MOL0     C29533   2.679   5.607   0.979 -0.3049  0.9846 -0.3600
  982MOL0     C29534   2.623   5.495   0.885  0.2525  0.7485 -0.5762
  982MOL0     C29535   2.487   5.424   0.931 -0.1849 -0.0060 -0.4383
  982MOL0    Cl29536   2.354   5.543   0.919 -0.1501 -0.0604 -0.1770
  982MOL0     C29537   3.513   5.882   0.696  0.3138  0.3037 -0.4339
  982MOL0     C29538   3.638   5.912   0.730 -0.3119 -0.2025  0.1502
  982MOL0     O29539   3.842   5.789   0.986  0.1656  0.0557  0.7550
  982MOL0     C29540   4.102   5.670   0.760  0.0138  0.3882  0.6685
  982MOL0     C29541   4.230   5.618   0.764 -0.5968  0.8960  0.3226
  982MOL0     N29542   4.922   5.257   0.744 -0.3215 -0.1053 -0.5242
  982MOL0     N29543   4.970   5.141   0.701  1.1248  0.3782 -0.2237
  982MOL0     C29544   6.173   4.984   0.976 -0.0760 -0.4001  0.4079
  982MOL0     C29545   6.299   4.950   0.915 -0.1636 -0.3404  0.3936
  982MOL0     C29546   6.617   4.684   0.705 -0.2321 -0.5946 -0.6920
  982MOL0     C29547   6.666   4.550   0.700 -0.0997  0.8147  0.9092
  982MOL0     C29548   6.777   4.521   0.619  0.7573 -0.2288  0.8613
  982MOL0     C29549   6.842   4.619   0.550 -1.5517  0.2961  0.7883
  982MOL0     O29550   6.958   4.589   0.481 -0.2029 -0.8315 -0.5901
  982MOL0     C29551   7.058   4.498   0.542  0.7813 -0.6345  0.9226
  982MOL0     C29552   7.133   4.420   0.432 -0.4026 -0.3415  0.3076
  982MOL0     C29553   7.225   4.510   0.344  0.1918  1.0244 -0.5419
  982MOL0     C29554   7.252   4.450   0.201  0.6688 -0.2438 -0.1532
  982MOL0     C29555   7.341   4.340   0.203 -2.0002  0.0117 -0.3813
  982MOL0     C29556   7.405   4.233   0.202  0.1440 -0.2095 -0.5807
  982MOL0     C29557   6.796   4.749   0.543 -0.1161  0.5949 -0.1524
  982MOL0     C29558   6.680   4.786   0.620  0.7551  0.6751  0.4762
  982MOL0     H29559   6.188   4.713   0.702 -0.4084  0.8393 -0.2412
  982MOL0     H29560   5.968   4.796   0.783 -0.8171  0.3158  1.9723
  982MOL0     H29561   5.808   4.848   0.912 -0.3520  0.2869 -1.0355
  982MOL0     H29562   5.808   5.004   0.825  1.8785  6.2634  1.3923
  982MOL0     H29563   5.685   5.095   1.036  1.0039  0.5217 -0.6937
  982MOL0     H29564   5.750   4.961   1.123  0.5063 -2.5580 -2.2949
  982MOL0     H29565   5.546   4.844   1.103  1.3306  0.1212 -0.5821
  982MOL0     H29566   5.588   4.805   0.938 -0.4002 -2.3893  0.8275
  982MOL0     H29567   5.454   5.080   1.003  3.2494 -1.8471  4.0844
  982MOL0     H29568   5.506   5.005   0.850  2.0051  0.3868  0.3787
  982MOL0     H29569   5.291   4.921   1.046  0.6304  2.9852 -1.5629
  982MOL0     H29570   5.356   4.806   0.916  1.6768 -0.1200 -1.8497
  982MOL0     H29571   5.257   4.958   0.762 -0.7005  0.2138 -0.1942
  982MOL0     H29572   5.207   5.072   0.885 -2.0630 -0.3541 -0.0316
  982MOL0     H29573   5.127   4.785   0.870 -2.5510 -0.4331  2.5650
  982MOL0     H29574   5.057   4.883   0.984 -1.5477 -3.4246 -0.0535
  982MOL0     H29575   4.912   4.829   0.783  0.7696 -0.7008 -1.2929
  982MOL0     H29576   5.033   4.893   0.671  1.4696 -0.8471 -0.2642
  982MOL0     H29577   4.820   5.060   0.983  0.6842 -1.8152  0.0903
  982MOL0     H29578   4.851   5.421   0.943  2.3525 -1.7965 -2.2288
  982MOL0     H29579   4.815   5.298   1.061  1.5762  2.4656 -0.2496
  982MOL0     H29580   4.614   5.427   1.023 -1.0143  1.4425 -2.2816
  982MOL0     H29581   4.594   5.265   0.945  4.8559 -3.4112 -4.0179
  982MOL0     H29582   4.687   5.512   0.791 -0.2486 -0.5059  0.0836
  982MOL0     H29583   4.640   5.347   0.736 -0.7309 -0.8659  0.4729
  982MOL0     H29584   4.409   5.402   0.800 -1.2967  1.1084 -0.9399
  982MOL0     H29585   4.485   5.500   0.687  0.5268  0.9738 -0.1178
  982MOL0     H29586   4.314   5.712   1.073  2.7375  2.5048 -3.0325
  982MOL0     H29587   4.072   5.766   1.082 -2.8331 -1.8341 -0.1764
  982MOL0     H29588   3.775   5.606   0.651  1.8111  0.2513  1.3243
  982MOL0     H29589   3.536   5.561   0.586  2.2933 -0.8210  0.6877
  982MOL0     H29590   3.285   5.814   0.799  2.0218  2.2074 -4.4119
  982MOL0     H29591   3.300   5.644   0.781 -0.6586 -0.3685  1.5410
  982MOL0     H29592   3.096   5.661   0.614 -0.9960  2.4267 -2.1697
  982MOL0     H29593   3.076   5.832   0.670 -0.3423  0.1128  1.1344
  982MOL0     H29594   3.059   5.762   0.892  2.5647  1.1111 -1.1463
  982MOL0     H29595   3.065   5.591   0.847 -1.2218 -0.2822 -1.1041
  982MOL0     H29596   2.836   5.745   0.749  3.4524  1.4606 -0.1832
  982MOL0     H29597   2.859   5.565   0.759  1.0115 -0.3068  0.1966
  982MOL0     H29598   2.843   5.730   1.015 -1.9539 -0.0527  1.7594
  982MOL0     H29599   2.883   5.559   1.004 -1.5637  0.6104  0.9862
  982MOL0     H29600   2.612   5.693   0.963 -1.6014  0.9673  3.8765
  982MOL0     H29601   2.671   5.586   1.086 -0.7555 -2.7994 -0.9963
  982MOL0     H29602   2.603   5.533   0.784 -0.3101 -0.2235 -0.8474
  982MOL0     H29603   2.691   5.410   0.883 -1.2535 -0.5261  0.6348
  982MOL0     H29604   2.501   5.394   1.036  4.5039  3.3667  0.2043
  982MOL0     H29605   2.474   5.341   0.861  1.5297 -0.5511 -0.1604
  982MOL0     H29606   3.430   5.952   0.700  0.8332  0.8477  1.4229
  982MOL0     H29607   3.678   6.001   0.778  0.0380 -0.4296  0.2928
  982MOL0     H29608   4.048   5.668   0.667  2.2637  0.1727 -0.7213
  982MOL0     H29609   4.273   5.565   0.679  0.6003  1.4532  0.5567
  982MOL0     H29610   6.160   5.042   1.067 -1.1315 -2.7071  1.8402
  982MOL0     H29611   6.393   4.996   0.943 -0.5730 -0.5458  2.2408
  982MOL0     H29612   6.618   4.468   0.751 -0.8295 -0.3095 -1.4163
  982MOL0     H29613   6.796   4.415   0.627  2.9581  0.1679  1.5692
  982MOL0     H29614   7.015   4.415   0.599 -3.8435 -2.3198 -4.1212
  982MOL0     H29615   7.121   4.563   0.603 -0.2889  0.1937  1.1738
  982MOL0     H29616   7.210   4.359   0.481 -0.6879 -1.9130 -1.1248
  982MOL0     H29617   7.074   4.345   0.379  1.8740 -1.0691 -1.3533
  982MOL0     H29618   7.323   4.511   0.393  0.2436  0.4515 -0.6201
  982MOL0     H29619   7.179   4.608   0.336  2.2195  2.1664  0.8020
  982MOL0     H29620   7.155   4.430   0.156 -0.0546  1.1385  0.6856
  982MOL0     H29621   7.313   4.520   0.142 -0.6811 -0.2191 -1.5697
  982MOL0     H29622   7.460   4.141   0.204 -0.9430 -0.8768  0.6734
  982MOL0     H29623   6.840   4.828   0.483  4.3760  0.1033  2.0165
  982MOL0     H29624   6.640   4.886   0.608 -3.4864 -0.0570  5.2982
  983MOL0     O29625   8.144   2.943  11.067  0.7950 -0.4620 -0.8238
  983MOL0     C29626   8.184   2.982  10.963  0.0213 -0.9237 -0.1382
  983MOL0     O29627   8.161   2.914  10.841 -0.1034 -0.9725  0.0178
  983MOL0     C29628   8.062   2.817  10.833 -0.0717 -0.9914 -0.0308
  983MOL0     C29629   7.949   2.852  10.756 -0.3158 -0.3676 -0.3045
  983MOL0     C29630   7.833   2.776  10.749 -0.6220  0.5320  0.3004
  983MOL0     C29631   7.838   2.657  10.821  0.0155 -0.1241 -0.6657
  983MOL0     O29632   7.711   2.599  10.825  0.2746 -0.1378  0.9028
  983MOL0     C29633   7.676   2.507  10.931 -0.2163  0.0526 -0.3273
  983MOL0     C29634   7.690   2.368  10.867 -0.2638 -0.2594 -0.1906
  983MOL0     C29635   7.666   2.266  10.977  0.0392 -0.2734  0.0589
  983MOL0     C29636   7.605   2.141  10.918  0.8508 -0.3630 -0.9371
  983MOL0     C29637   7.568   2.041  11.030 -0.4888  0.0239  0.2271
  983MOL0     C29638   7.529   1.902  10.978 -0.6188  0.2357  0.3737
  983MOL0     C29639   7.469   1.804  11.077 -1.2191  0.1307 -0.3127
  983MOL0     C29640   7.411   1.666  11.019 -0.2486  0.5296 -0.7592
  983MOL0     N29641   7.269   1.664  10.985 -0.2422 -0.5095 -0.2664
  983MOL0     C29642   7.191   1.769  10.932 -0.5342  0.8647  0.8817
  983MOL0     C29643   7.058   1.741  10.929 -0.1529  0.6841  0.1531
  983MOL0     C29644   6.939   1.832  10.884  0.8553 -0.1402 -0.7551
  983MOL0     C29645   6.854   1.881  10.997  1.2655  0.7371  0.4954
  983MOL0     C29646   6.740   1.781  11.025 -0.6668 -0.0811  0.3765
  983MOL0     C29647   6.635   1.851  11.111 -0.1759 -0.7072 -0.0373
  983MOL0     O29648   6.697   1.882  11.244  0.5769  0.8799  0.0539
  983MOL0     C29649   6.602   1.923  11.335 -0.1868  0.5218  0.2733
  983MOL0     C29650   6.642   1.927  11.461 -0.0527 -0.2229 -1.3171
  983MOL0     C29651   6.556   1.962  11.569  0.1925  1.0420 -0.7701
  983MOL0     C29652   6.422   1.995  11.540 -0.9299 -0.3072 -0.6293
  983MOL0     C29653   6.341   2.047  11.649  0.7288  0.5451  0.1288
  983MOL0     O29654   6.365   2.174  11.682 -0.5692  1.7726 -0.6379
  983MOL0     C29655   6.280   2.232  11.775 -0.3057 -0.5305  0.0899
  983MOL0     C29656   6.243   2.366  11.748  0.6638  0.0265  0.3972
  983MOL0     C29657   6.180   2.437  11.847  0.1793 -0.4919  0.3022
  983MOL0     C29658   6.178   2.396  11.979  0.2075  0.5492 -0.1696
  983MOL0     O29659   6.129   2.484  12.076 -0.2838  0.5067  0.3781
  983MOL0     C29660   6.034   2.419  12.169 -0.7711  0.8719  0.0322
  983MOL0     C29661   6.006   2.524  12.275 -0.7987 -0.3374  0.1586
  983MOL0     C29662   6.135   2.545  12.366  0.1016 -0.4874 -0.0681
  983MOL0     C29663   6.091   2.597  12.506 -0.5675 -0.1783 -0.3176
  983MOL0     C29664   6.196   2.582  12.627 -0.4047  0.0257  0.1509
  983MOL0     C29665   6.344   2.559  12.597 -0.0446 -0.3119 -0.1418
  983MOL0     C29666   6.424   2.533  12.720 -0.6005  0.6039 -1.0220
  983MOL0     C29667   6.569   2.478  12.703  0.9267  1.0074 -0.0819
  983MOL0    Cl29668   6.654   2.560  12.574  0.0408 -0.2170  0.1426
  983MOL0     C29669   6.208   2.258  12.011 -0.0171 -0.1492  0.7810
  983MOL0     C29670   6.260   2.176  11.903  0.3633  1.0311  0.4381
  983MOL0     O29671   6.249   1.973  11.686 -0.7144 -0.9238  1.6408
  983MOL0     C29672   6.377   1.985  11.408  0.3737 -0.7756 -0.2536
  983MOL0     C29673   6.463   1.940  11.308 -0.4944 -0.3774  0.7264
  983MOL0     N29674   7.051   1.620  11.002  0.1691 -0.6858 -0.2247
  983MOL0     N29675   7.170   1.579  11.025  0.1629  0.0894  0.5399
  983MOL0     C29676   7.954   2.626  10.903  1.0489 -0.5628  0.3350
  983MOL0     C29677   8.062   2.705  10.904 -0.0199 -0.6848 -0.4544
  983MOL0     C29678   8.283   3.095  10.958 -0.2891 -0.1211 -0.4697
  983MOL0     C29679   8.310   3.170  11.073  0.8012 -0.0975 -0.2297
  983MOL0     C29680   8.396   3.282  11.073  0.1032 -0.3170  0.0255
  983MOL0     C29681   8.462   3.309  10.955  0.9197  0.0511  0.0171
  983MOL0     O29682   8.543   3.412  10.958 -0.4515  0.1447  1.3505
  983MOL0     C29683   8.561   3.510  10.854 -0.4146 -0.0623 -0.2028
  983MOL0     C29684   8.464   3.624  10.850 -0.1390 -0.9263  0.0235
  983MOL0     C29685   8.468   3.726  10.976  0.1028 -0.8729 -0.6190
  983MOL0     C29686   8.396   3.674  11.098 -0.7629 -0.3090 -1.4164
  983MOL0     C29687   8.426   3.759  11.213 -0.3502 -0.0931 -0.1426
  983MOL0     C29688   8.439   3.844  11.301 -0.5282  0.3124  0.1788
  983MOL0     C29689   8.436   3.231  10.841 -0.6209 -0.1266  0.5220
  983MOL0     C29690   8.343   3.130  10.837  0.4076 -0.3916  0.6533
  983MOL0     H29691   7.961   2.953  10.719  0.2230 -0.8843 -1.5903
  983MOL0     H29692   7.748   2.818  10.696  1.7062  2.4155 -2.2235
  983MOL0     H29693   7.574   2.521  10.968  1.5642  2.1278  4.7460
  983MOL0     H29694   7.734   2.530  11.021  0.6281  0.2021 -0.9013
  983MOL0     H29695   7.792   2.345  10.833  0.7848 -1.4418  3.3390
  983MOL0     H29696   7.620   2.359  10.783  1.9993  0.8782 -2.3571
  983MOL0     H29697   7.597   2.304  11.052  0.6550 -0.3372  0.6655
  983MOL0     H29698   7.762   2.244  11.024  0.5283 -0.4209 -0.9871
  983MOL0     H29699   7.511   2.174  10.873 -0.7423  0.2436  2.4986
  983MOL0     H29700   7.672   2.095  10.845  0.9441 -1.3406 -0.2635
  983MOL0     H29701   7.493   2.099  11.083 -1.7670  2.9757 -4.2882
  983MOL0     H29702   7.652   2.043  11.101  0.0866  3.2152 -0.3990
  983MOL0     H29703   7.627   1.871  10.941  0.0068  2.2344  0.2497
  983MOL0     H29704   7.460   1.911  10.894 -0.6654  0.3587  0.4230
  983MOL0     H29705   7.532   1.779  11.163 -0.2083  1.4776 -0.6441
  983MOL0     H29706   7.383   1.859  11.116 -2.9377 -2.6067  0.1034
  983MOL0     H29707   7.427   1.578  11.083 -2.4205 -0.3387 -1.3158
  983MOL0     H29708   7.470   1.624  10.936  0.4157  0.9706 -0.5163
  983MOL0     H29709   7.223   1.860  10.882  1.2795 -0.7627 -1.1652
  983MOL0     H29710   6.889   1.761  10.819 -0.2704  0.7624 -0.9150
  983MOL0     H29711   6.976   1.911  10.819 -0.4290 -0.5199 -1.9904
  983MOL0     H29712   6.830   1.985  10.969  6.1940  1.6031 -1.5012
  983MOL0     H29713   6.907   1.900  11.090  2.3191  2.3875 -0.4031
  983MOL0     H29714   6.696   1.748  10.931  0.2723  2.6671 -1.1205
  983MOL0     H29715   6.795   1.701  11.078  1.2888  0.1620 -1.1631
  983MOL0     H29716   6.545   1.790  11.121 -0.6789  0.2831  1.9350
  983MOL0     H29717   6.605   1.947  11.067 -1.0030 -0.7108  0.5001
  983MOL0     H29718   6.743   1.907  11.493  0.4365  0.8439 -2.1267
  983MOL0     H29719   6.600   1.974  11.667  1.1239  1.3382 -1.2204
  983MOL0     H29720   6.251   2.409  11.649 -1.2734 -2.0136 -0.7273
  983MOL0     H29721   6.124   2.525  11.818 -0.2128 -0.2173  1.7885
  983MOL0     H29722   6.079   2.335  12.221 -0.6718  1.1519  0.3988
  983MOL0     H29723   5.940   2.392  12.119 -1.4522  1.9319  0.6993
  983MOL0     H29724   5.920   2.491  12.335 -3.2160  0.2161 -2.7525
  983MOL0     H29725   5.974   2.616  12.226 -2.5582 -0.5864  0.7559
  983MOL0     H29726   6.199   2.628  12.334 -1.5052 -0.2598 -2.9605
  983MOL0     H29727   6.195   2.454  12.378  1.5398  0.2883 -1.0872
  983MOL0     H29728   6.074   2.703  12.487  1.8361  0.4576  0.7641
  983MOL0     H29729   5.995   2.555  12.540 -1.1550  1.2986 -0.0745
  983MOL0     H29730   6.157   2.500  12.688  1.8245 -0.1869  1.3849
  983MOL0     H29731   6.189   2.679  12.676  4.1077  0.3608  0.5245
  983MOL0     H29732   6.394   2.650  12.565  1.6649 -0.6958  1.2633
  983MOL0     H29733   6.361   2.486  12.517 -2.0732  4.2847 -5.4360
  983MOL0     H29734   6.436   2.619  12.786  1.7672  0.2817 -0.9715
  983MOL0     H29735   6.365   2.467  12.784 -1.4371  1.4575 -0.8886
  983MOL0     H29736   6.573   2.373  12.671  5.5006  0.9024  0.1170
  983MOL0     H29737   6.630   2.481  12.794  0.1506  1.8608  0.4316
  983MOL0     H29738   6.192   2.213  12.108 -2.6385 -2.3754 -0.5440
  983MOL0     H29739   6.290   2.072  11.917  1.0892  1.3898  1.7346
  983MOL0     H29740   6.271   1.994  11.387 -0.9708 -3.4968  4.1480
  983MOL0     H29741   6.425   1.944  11.206  2.5238  0.2642 -0.4908
  983MOL0     H29742   7.952   2.533  10.958 -1.4668 -0.2461  0.8853
  983MOL0     H29743   8.135   2.690  10.982 -1.6417 -1.5762  0.9595
  983MOL0     H29744   8.247   3.161  11.161 -1.9692  0.6710 -2.0095
  983MOL0     H29745   8.418   3.344  11.159 -0.9301 -0.3992  0.3576
  983MOL0     H29746   8.551   3.471  10.752 -1.4772 -0.0925 -0.0916
  983MOL0     H29747   8.663   3.550  10.862 -0.3212  0.0850 -1.7491
  983MOL0     H29748   8.495   3.678  10.760 -2.2173  1.2377  0.4992
  983MOL0     H29749   8.364   3.580  10.843 -0.8268  0.1705  2.0874
  983MOL0     H29750   8.421   3.817  10.939  1.2223 -0.3475 -0.7980
  983MOL0     H29751   8.571   3.749  11.006  0.4962 -1.7375 -1.2537
  983MOL0     H29752   8.288   3.673  11.083 -1.1377  2.0659  0.5515
  983MOL0     H29753   8.432   3.573  11.122  1.3608  0.2528 -1.9674
  983MOL0     H29754   8.455   3.910  11.384 -1.6327  0.9390 -0.0852
  983MOL0     H29755   8.495   3.248  10.752 -0.5839  1.4514  0.8164
  983MOL0     H29756   8.325   3.081  10.742 -0.0304  1.0371 -0.0406
  984MOL0     O29757   2.824   4.004   0.131  0.4909  0.4641  0.6226
  984MOL0     C29758   2.810   4.127   0.142 -0.6843  0.0448  0.6676
  984MOL0     O29759   2.754   4.202   0.243 -0.4363 -0.3000  0.3710
  984MOL0     C29760   2.685   4.152   0.343  0.2061  0.2079 -0.6178
  984MOL0     C29761   2.659   4.013   0.367 -0.9519  0.2858  0.7071
  984MOL0     C29762   2.572   3.974   0.463 -0.7905 -0.4921 -0.9815
  984MOL0     C29763   2.527   4.058   0.562  0.2431 -0.5398 -0.4694
  984MOL0     O29764   2.455   4.003   0.666  0.4514 -0.1913 -0.3079
  984MOL0     C29765   2.325   4.052   0.694 -0.1719  0.6293  0.3482
  984MOL0     C29766   2.316   4.083   0.841 -0.6437  0.3998 -0.1464
  984MOL0     C29767   2.337   3.956   0.930  0.5310  0.3616  0.5817
  984MOL0     C29768   2.353   3.967   1.080 -0.3133  0.4271 -0.2568
  984MOL0     C29769   2.272   4.078   1.152 -0.6388 -0.0971  0.9563
  984MOL0     C29770   2.322   4.088   1.297 -0.3447 -0.6817 -0.2327
  984MOL0     C29771   2.279   4.216   1.349 -1.1607  0.1873 -0.3133
  984MOL0     C29772   2.302   4.213   1.505 -0.1899  0.3855 -0.0298
  984MOL0     N29773   2.281   4.347   1.555 -0.0618  0.5451 -0.8238
  984MOL0     C29774   2.151   4.391   1.581 -0.3359  0.0932  0.4311
  984MOL0     C29775   2.172   4.519   1.595  0.2495 -1.3682  0.2466
  984MOL0     C29776   2.064   4.611   1.627  0.2301 -0.6400 -0.8504
  984MOL0     C29777   1.978   4.577   1.748  0.3498 -0.1591 -0.0720
  984MOL0     C29778   1.832   4.628   1.718  0.1683  0.8347 -0.1114
  984MOL0     C29779   1.810   4.785   1.728 -1.0169  1.0132 -0.1883
  984MOL0     O29780   1.665   4.797   1.755  0.3015  0.6275  0.1851
  984MOL0     C29781   1.610   4.795   1.880 -0.1060  0.7871 -0.3553
  984MOL0     C29782   1.473   4.787   1.880 -1.0208  0.1009  0.2061
  984MOL0     C29783   1.401   4.776   2.004  0.3060  0.7799 -0.2084
  984MOL0     C29784   1.476   4.778   2.128  0.3439 -0.0161  1.0188
  984MOL0     C29785   1.420   4.761   2.263  0.6193 -1.1867 -0.3694
  984MOL0     O29786   1.280   4.761   2.280  0.1521 -0.5634  0.0631
  984MOL0     C29787   1.230   4.746   2.403  0.2432  0.2619  0.1712
  984MOL0     C29788   1.235   4.625   2.471  0.1437  0.6694 -0.1502
  984MOL0     C29789   1.165   4.597   2.589  0.1723 -0.7692 -0.7732
  984MOL0     C29790   1.085   4.705   2.646  0.1232 -0.3152  0.7475
  984MOL0     O29791   1.010   4.687   2.765  0.2365 -0.3503 -0.2763
  984MOL0     C29792   1.063   4.607   2.878 -0.3213 -0.0823  0.2339
  984MOL0     C29793   1.126   4.717   2.974 -0.4558  0.7935  0.5924
  984MOL0     C29794   1.022   4.816   3.025  0.1556 -0.6814 -0.0171
  984MOL0     C29795   0.919   4.733   3.104 -1.2341  0.3204  0.3014
  984MOL0     C29796   0.819   4.830   3.180 -0.5747 -0.8212 -0.2110
  984MOL0     C29797   0.698   4.751   3.238 -0.2170 -0.5888 -0.6936
  984MOL0     C29798   0.633   4.833   3.357  0.0692 -0.7788  1.0949
  984MOL0     C29799   0.597   4.980   3.318  0.7664  0.5573  0.6989
  984MOL0    Cl29800   0.502   4.974   3.169  0.4165 -0.0848 -0.9791
  984MOL0     C29801   1.075   4.831   2.583  0.3880 -0.3407  0.0082
  984MOL0     C29802   1.139   4.841   2.454 -0.5315  0.5401  0.3325
  984MOL0     O29803   1.496   4.760   2.361 -0.1724  0.6390  0.0051
  984MOL0     C29804   1.616   4.781   2.121  0.0563 -0.4887 -1.0504
  984MOL0     C29805   1.684   4.779   2.000  0.7535 -0.1287  0.2870
  984MOL0     N29806   2.309   4.551   1.582 -0.1054 -0.4335 -0.2243
  984MOL0     N29807   2.372   4.442   1.559 -0.7715  0.3106 -0.2074
  984MOL0     C29808   2.561   4.197   0.552  0.6283 -0.2702  0.2845
  984MOL0     C29809   2.639   4.241   0.444  0.0592 -0.3910 -0.0374
  984MOL0     C29810   2.877   4.212   0.036 -0.5723  0.0768  0.2861
  984MOL0     C29811   2.975   4.149  -0.039 -0.0062 -0.2880  0.5440
  984MOL0     C29812   3.036   4.216  -0.143 -0.1021 -0.3108  0.1653
  984MOL0     C29813   3.006   4.351  -0.167 -0.1460 -0.4645  0.1283
  984MOL0     O29814   3.083   4.431  -0.247 -0.4082  0.4743  0.8099
  984MOL0     C29815   3.004   4.538  -0.312  0.0385 -0.3704  0.0159
  984MOL0     C29816   3.043   4.672  -0.249  0.6058  0.7508  0.3459
  984MOL0     C29817   2.981   4.787  -0.331 -0.0226  0.3677 -0.1315
  984MOL0     C29818   3.067   4.821  -0.453 -0.4087  0.7702  0.4129
  984MOL0     C29819   3.184   4.891  -0.404 -0.3933 -0.2476 -0.4749
  984MOL0     C29820   3.299   4.931  -0.374  0.3886 -0.3366 -1.1108
  984MOL0     C29821   2.914   4.413  -0.077 -0.5195  0.4643 -1.0996
  984MOL0     C29822   2.846   4.352   0.020 -0.5204  0.2999 -0.1998
  984MOL0     H29823   2.699   3.930   0.310 -0.2361  2.0454 -1.4638
  984MOL0     H29824   2.558   3.866   0.470 -0.9637 -0.3587  4.2303
  984MOL0     H29825   2.240   3.995   0.655 -0.3413 -0.0353  1.6149
  984MOL0     H29826   2.312   4.145   0.638 -1.8503 -0.8105 -1.8046
  984MOL0     H29827   2.219   4.129   0.860 -3.0947 -4.2007 -0.0448
  984MOL0     H29828   2.399   4.150   0.866  0.0144  0.1683 -1.6204
  984MOL0     H29829   2.431   3.917   0.889  0.8644  1.5586  0.1845
  984MOL0     H29830   2.268   3.875   0.904  2.2361 -0.3823 -2.0137
  984MOL0     H29831   2.325   3.871   1.124 -2.0370  1.6696  1.5617
  984MOL0     H29832   2.460   3.989   1.081 -0.0068 -0.8973  1.7395
  984MOL0     H29833   2.165   4.052   1.145 -0.8064  0.8024 -0.1494
  984MOL0     H29834   2.284   4.172   1.098  0.6444 -0.2542  0.9410
  984MOL0     H29835   2.431   4.097   1.293 -0.1944 -2.4291 -1.2899
  984MOL0     H29836   2.302   3.998   1.355  1.4683 -0.1550  1.2994
  984MOL0     H29837   2.345   4.290   1.303 -0.7446 -1.3573 -2.3737
  984MOL0     H29838   2.175   4.228   1.318 -0.9157  0.2697 -1.1333
  984MOL0     H29839   2.403   4.180   1.532  0.0149  1.5429  0.7064
  984MOL0     H29840   2.226   4.150   1.551 -1.6874  0.5153 -2.1726
  984MOL0     H29841   2.057   4.341   1.599 -0.4156 -0.4728 -1.3793
  984MOL0     H29842   2.015   4.619   1.529  1.8625  0.2240 -1.6414
  984MOL0     H29843   2.089   4.714   1.651 -0.6448 -0.4750 -0.5995
  984MOL0     H29844   2.018   4.629   1.835  0.7518  0.7034 -0.7630
  984MOL0     H29845   1.968   4.470   1.768  0.7950  0.0374  1.2719
  984MOL0     H29846   1.787   4.600   1.623 -2.1336  3.3338  0.1462
  984MOL0     H29847   1.776   4.566   1.789  3.0109 -0.1579  1.4585
  984MOL0     H29848   1.831   4.837   1.633 -0.2293 -1.6195 -1.5696
  984MOL0     H29849   1.871   4.816   1.813  0.1057  1.3774 -1.0978
  984MOL0     H29850   1.416   4.786   1.788 -0.8871 -1.7487  0.1016
  984MOL0     H29851   1.293   4.780   2.006  0.3214  0.8822  0.7549
  984MOL0     H29852   1.282   4.540   2.422 -0.4466  0.8715 -1.0971
  984MOL0     H29853   1.155   4.498   2.632  0.9168 -1.8447 -2.9653
  984MOL0     H29854   1.139   4.537   2.844  2.3816  0.2161  4.8101
  984MOL0     H29855   0.985   4.544   2.922  0.8918 -0.5122  1.8761
  984MOL0     H29856   1.223   4.757   2.945  0.3199 -0.3074  1.5707
  984MOL0     H29857   1.151   4.655   3.060 -1.0620  2.1523  1.8071
  984MOL0     H29858   0.975   4.872   2.943 -3.1177 -1.6931  1.0245
  984MOL0     H29859   1.081   4.882   3.089  0.4110 -1.9571  1.0998
  984MOL0     H29860   0.859   4.677   3.032 -0.5920  0.5851 -0.4584
  984MOL0     H29861   0.966   4.667   3.177  0.0735  0.6817 -0.1835
  984MOL0     H29862   0.778   4.905   3.113 -1.9166  1.3448  2.8269
  984MOL0     H29863   0.876   4.884   3.256  0.9682  0.2103 -2.0204
  984MOL0     H29864   0.738   4.659   3.282  0.1549  0.2352  0.7255
  984MOL0     H29865   0.630   4.723   3.157 -1.0727  0.2111 -0.2681
  984MOL0     H29866   0.553   4.769   3.397  0.0893 -3.2606 -2.3998
  984MOL0     H29867   0.708   4.842   3.436  3.3735  2.2770 -2.0198
  984MOL0     H29868   0.687   5.037   3.296 -0.1404  1.6663 -0.2811
  984MOL0     H29869   0.542   5.014   3.407 -0.5021 -0.5118  0.3662
  984MOL0     H29870   1.016   4.907   2.634  2.2269 -0.2929  2.2222
  984MOL0     H29871   1.127   4.942   2.415 -2.5237  0.2023 -0.0061
  984MOL0     H29872   1.688   4.765   2.201 -1.5098  0.3304  0.6213
  984MOL0     H29873   1.792   4.778   2.008  0.8811 -0.8697 -1.2642
  984MOL0     H29874   2.521   4.263   0.628 -1.4902 -2.0613  0.8529
  984MOL0     H29875   2.664   4.343   0.417  1.1033 -1.1366 -2.0944
  984MOL0     H29876   3.001   4.046  -0.019 -0.6089  0.0472  3.4704
  984MOL0     H29877   3.117   4.161  -0.190 -1.0760 -2.6753  1.0869
  984MOL0     H29878   2.895   4.543  -0.301 -0.2406 -0.9592 -2.0649
  984MOL0     H29879   3.025   4.532  -0.419 -0.0832 -2.8624  0.0900
  984MOL0     H29880   3.015   4.668  -0.143  1.1534 -4.3775  0.5842
  984MOL0     H29881   3.153   4.669  -0.249  0.6103 -0.3139  1.7776
  984MOL0     H29882   2.973   4.877  -0.269 -1.1213  0.0149  0.2728
  984MOL0     H29883   2.877   4.768  -0.362  0.0283  0.9560 -0.6794
  984MOL0     H29884   3.093   4.737  -0.518  1.0301  0.4524  1.3722
  984MOL0     H29885   2.994   4.880  -0.511 -2.4436  0.0106  2.0613
  984MOL0     H29886   3.401   4.927  -0.342  0.1233 -1.7736 -0.3569
  984MOL0     H29887   2.896   4.520  -0.067  0.1029  0.4785  0.0369
  984MOL0     H29888   2.775   4.398   0.088 -0.7561 -0.4160  0.0470
  985MOL0     O29889   4.199   0.515   7.377 -0.2674  0.3175 -0.0253
  985MOL0     C29890   4.233   0.623   7.337  0.2156 -0.4092 -0.7238
  985MOL0     O29891   4.323   0.695   7.397 -0.3432  0.0430  0.3208
  985MOL0     C29892   4.401   0.645   7.493 -0.1824 -0.2831  0.9441
  985MOL0     C29893   4.508   0.557   7.468 -0.9055  0.0710 -0.1187
  985MOL0     C29894   4.590   0.514   7.572 -1.3274 -0.1419 -0.1406
  985MOL0     C29895   4.567   0.561   7.701 -0.1490  0.4898  0.1569
  985MOL0     O29896   4.654   0.526   7.805  0.4115 -0.3115 -0.0057
  985MOL0     C29897   4.783   0.592   7.793  0.7853  0.3318  0.3770
  985MOL0     C29898   4.825   0.651   7.922 -0.6224  0.6108 -0.0338
  985MOL0     C29899   4.702   0.735   7.981  0.8269 -0.1511  1.2828
  985MOL0     C29900   4.751   0.834   8.083 -0.3907 -0.9701 -0.0436
  985MOL0     C29901   4.839   0.775   8.185  0.2609 -0.1894  0.4117
  985MOL0     C29902   4.901   0.882   8.283 -0.2553 -0.2915 -0.3249
  985MOL0     C29903   4.792   0.935   8.371  0.0208  0.2364  0.5892
  985MOL0     C29904   4.855   0.994   8.494 -0.0424 -1.1656  0.0484
  985MOL0     N29905   4.864   1.142   8.495 -0.6623 -0.1939 -0.5481
  985MOL0     C29906   4.945   1.222   8.430 -0.3901  0.0986  0.8238
  985MOL0     C29907   4.924   1.345   8.477  0.2159  0.3436  0.1128
  985MOL0     C29908   4.989   1.472   8.433 -0.6542 -0.7723 -0.4270
  985MOL0     C29909   4.897   1.584   8.374 -1.1337  0.0313 -0.4423
  985MOL0     C29910   4.961   1.722   8.358  0.1928  1.2373 -0.4153
  985MOL0     C29911   5.047   1.729   8.225  0.1903  1.0568 -1.1099
  985MOL0     O29912   5.132   1.851   8.238  1.1082  0.1141 -0.3145
  985MOL0     C29913   5.233   1.864   8.150 -1.3868  0.4131  0.9453
  985MOL0     C29914   5.322   1.962   8.161  0.5196 -0.0258 -0.0110
  985MOL0     C29915   5.423   1.974   8.064 -0.0027 -0.5388  0.2961
  985MOL0     C29916   5.445   1.881   7.962 -0.0748 -0.7209 -0.1140
  985MOL0     C29917   5.563   1.888   7.872 -0.0736 -0.1627 -0.0214
  985MOL0     O29918   5.652   1.991   7.912 -1.0493 -0.1371 -0.6709
  985MOL0     C29919   5.759   2.039   7.839 -0.0939 -0.3127 -0.7175
  985MOL0     C29920   5.806   2.168   7.868  0.2366  0.2196  0.5185
  985MOL0     C29921   5.903   2.225   7.789  0.3884 -0.2279  0.4483
  985MOL0     C29922   5.960   2.155   7.692  0.2071  0.0574  0.8753
  985MOL0     O29923   6.064   2.206   7.621 -0.2524 -0.8582  0.4216
  985MOL0     C29924   6.037   2.336   7.558 -0.8886 -0.1617  0.5828
  985MOL0     C29925   6.107   2.343   7.422 -1.3649 -0.8915 -0.7677
  985MOL0     C29926   6.069   2.459   7.327 -0.3932  0.0467 -0.5592
  985MOL0     C29927   6.134   2.455   7.189 -0.0857 -0.3183  0.6612
  985MOL0     C29928   6.079   2.562   7.091 -0.0066 -0.3681 -0.6390
  985MOL0     C29929   6.141   2.562   6.950  0.2714  0.0988 -0.5981
  985MOL0     C29930   6.130   2.692   6.877  0.8954 -0.3932 -0.4031
  985MOL0     C29931   6.236   2.718   6.765  0.7616  0.1686 -0.6975
  985MOL0    Cl29932   6.183   2.627   6.616  0.2253  0.3723 -0.0166
  985MOL0     C29933   5.914   2.031   7.653  0.2794  0.0078  0.1017
  985MOL0     C29934   5.812   1.971   7.728  1.3474  0.4879 -0.6130
  985MOL0     O29935   5.582   1.805   7.782 -0.0573  0.4575 -0.5341
  985MOL0     C29936   5.355   1.783   7.947  0.7041 -0.3050 -0.1782
  985MOL0     C29937   5.251   1.771   8.034  0.1399 -0.6904 -0.7984
  985MOL0     N29938   4.820   1.334   8.574  1.0348  0.0290  0.3135
  985MOL0     N29939   4.786   1.207   8.577 -0.2929  1.2542 -0.3792
  985MOL0     C29940   4.449   0.633   7.729  1.5037  1.1661  0.8104
  985MOL0     C29941   4.367   0.671   7.623 -0.2949 -0.5051  0.0054
  985MOL0     C29942   4.156   0.681   7.226  0.4753  0.3294  0.0375
  985MOL0     C29943   4.050   0.609   7.168  0.1651  0.5098 -0.0531
  985MOL0     C29944   3.979   0.658   7.056 -0.4269  0.1672 -0.6683
  985MOL0     C29945   4.018   0.779   6.998 -0.3273 -0.5092  0.6866
  985MOL0     O29946   3.953   0.815   6.886 -0.4148  0.0793 -0.1810
  985MOL0     C29947   3.964   0.949   6.842  1.1631  0.2047 -0.1173
  985MOL0     C29948   3.871   0.970   6.718 -0.3324  0.0905  0.0490
  985MOL0     C29949   3.904   0.868   6.610 -0.1502  0.6466 -0.0524
  985MOL0     C29950   3.844   0.907   6.473 -0.1802  0.5946 -0.0066
  985MOL0     C29951   3.870   0.790   6.387  0.2201 -0.4293  0.1745
  985MOL0     C29952   3.897   0.692   6.320  0.6672 -0.8019  0.2992
  985MOL0     C29953   4.120   0.858   7.056  0.2373 -0.0446  0.9939
  985MOL0     C29954   4.186   0.808   7.174 -0.1998 -0.8390  0.3042
  985MOL0     H29955   4.520   0.507   7.372  2.3850  0.4755 -0.0347
  985MOL0     H29956   4.671   0.444   7.554 -0.2685  1.0011  0.0673
  985MOL0     H29957   4.766   0.674   7.723 -0.8275 -2.2819 -2.5405
  985MOL0     H29958   4.872   0.543   7.754  0.9781  1.1801 -0.2562
  985MOL0     H29959   4.918   0.707   7.914  0.9567 -2.0351 -1.2905
  985MOL0     H29960   4.835   0.577   8.002  2.2804  3.6507  2.7808
  985MOL0     H29961   4.635   0.661   8.024 -3.5550 -0.0748 -4.2670
  985MOL0     H29962   4.649   0.787   7.901 -0.6086  0.7461  2.7635
  985MOL0     H29963   4.797   0.918   8.030 -1.6098 -1.3165 -1.7059
  985MOL0     H29964   4.658   0.868   8.129 -1.1262 -4.0004  0.9182
  985MOL0     H29965   4.922   0.723   8.136  0.4953 -0.3459  0.9561
  985MOL0     H29966   4.790   0.695   8.242 -0.5196 -1.5727 -2.0826
  985MOL0     H29967   4.937   0.967   8.224  0.4042  0.0783  0.5891
  985MOL0     H29968   4.988   0.842   8.335  1.5076 -1.5635 -3.9273
  985MOL0     H29969   4.722   1.000   8.319 -0.0924 -0.4270 -0.1070
  985MOL0     H29970   4.718   0.860   8.399  1.0627 -1.0972 -0.0556
  985MOL0     H29971   4.948   0.948   8.529 -1.9480 -2.2409  4.3656
  985MOL0     H29972   4.782   0.954   8.566 -0.2183  0.3289  0.7347
  985MOL0     H29973   5.017   1.196   8.353 -1.5566 -1.9270  0.3431
  985MOL0     H29974   5.075   1.457   8.366  2.1281 -1.8211  3.0948
  985MOL0     H29975   5.038   1.513   8.522  1.3028 -1.5635 -1.0797
  985MOL0     H29976   4.808   1.582   8.438 -1.4257  0.2301 -0.8405
  985MOL0     H29977   4.861   1.550   8.277 -0.4117  3.2778 -1.9821
  985MOL0     H29978   4.872   1.783   8.341 -2.8513 -2.9612 -1.3538
  985MOL0     H29979   5.029   1.747   8.440  3.6301 -0.0924 -2.6345
  985MOL0     H29980   4.982   1.740   8.137  0.5862 -0.4719 -1.6189
  985MOL0     H29981   5.105   1.637   8.222 -2.3645 -0.8131  0.9742
  985MOL0     H29982   5.324   2.036   8.241  3.8952 -1.2850  1.2615
  985MOL0     H29983   5.482   2.065   8.076 -0.8409 -0.0951  1.2027
  985MOL0     H29984   5.764   2.224   7.951  1.6498  1.8202  0.2178
  985MOL0     H29985   5.949   2.323   7.802  0.0692  0.5882 -3.4079
  985MOL0     H29986   6.076   2.417   7.620  1.1743  0.1835 -1.0187
  985MOL0     H29987   5.929   2.355   7.554 -1.3110 -0.2326  5.5571
  985MOL0     H29988   6.091   2.246   7.373  0.6418 -1.6070 -0.1068
  985MOL0     H29989   6.214   2.348   7.442 -1.6952  2.6454  0.7417
  985MOL0     H29990   6.095   2.553   7.377  1.1591  1.4778 -3.8026
  985MOL0     H29991   5.962   2.477   7.313 -0.5994 -0.3626  0.4233
  985MOL0     H29992   6.242   2.469   7.192  0.3541 -2.8836 -0.1095
  985MOL0     H29993   6.135   2.355   7.144  2.7029 -0.6983  1.3535
  985MOL0     H29994   6.095   2.661   7.134 -1.6196  0.6320 -2.1953
  985MOL0     H29995   5.972   2.545   7.076 -0.0893 -0.9865  0.5950
  985MOL0     H29996   6.091   2.478   6.901  2.2089 -2.8439  2.0909
  985MOL0     H29997   6.247   2.536   6.947  0.6878  1.6852 -0.5559
  985MOL0     H29998   6.033   2.681   6.828  0.7613 -1.3078  0.0654
  985MOL0     H29999   6.129   2.776   6.947  2.1662 -1.6010  1.1112
  985MOL0     H30000   6.337   2.696   6.802  1.6090 -1.3652 -3.5977
  985MOL0     H30001   6.231   2.824   6.737 -1.9479  0.9769  2.2662
  985MOL0     H30002   5.962   1.979   7.570 -1.2726 -0.6382 -0.4286
  985MOL0     H30003   5.788   1.869   7.701 -2.0151  1.6982 -2.9208
  985MOL0     H30004   5.375   1.708   7.870  4.0619  0.9667 -0.7198
  985MOL0     H30005   5.171   1.699   8.016  1.6963 -3.6394  2.7712
  985MOL0     H30006   4.428   0.663   7.831  2.3441  1.7982  0.8180
  985MOL0     H30007   4.272   0.722   7.636 -0.5550 -0.6584 -1.1663
  985MOL0     H30008   4.034   0.510   7.210  1.7262  0.7454  1.2047
  985MOL0     H30009   3.899   0.602   7.009 -3.5003  0.8675  3.1521
  985MOL0     H30010   4.067   0.971   6.813  2.1590 -1.7538  1.7452
  985MOL0     H30011   3.932   1.018   6.921  1.9651 -2.2619  2.5204
  985MOL0     H30012   3.768   0.951   6.751 -0.6589 -3.5156 -2.4963
  985MOL0     H30013   3.871   1.076   6.693  0.6996 -0.3002 -1.7585
  985MOL0     H30014   3.868   0.770   6.645  0.1321  0.1757 -1.0327
  985MOL0     H30015   4.013   0.862   6.601 -0.1121  2.3166 -1.0149
  985MOL0     H30016   3.739   0.920   6.501  0.3108 -2.2254  3.9248
  985MOL0     H30017   3.899   0.992   6.432 -2.3892  0.2580 -4.2446
  985MOL0     H30018   3.912   0.598   6.270  1.0805  0.5792 -2.3517
  985MOL0     H30019   4.153   0.950   7.008 -2.2072 -0.1985 -1.2126
  985MOL0     H30020   4.268   0.871   7.208  0.4468 -1.2969 -0.3677
  986MOL0     O30021   5.409   1.419   1.397 -0.1413  0.0663 -0.7213
  986MOL0     C30022   5.323   1.446   1.315  0.6150 -0.1533 -0.4128
  986MOL0     O30023   5.239   1.557   1.331 -0.4200  0.5394  0.0979
  986MOL0     C30024   5.264   1.644   1.435 -0.4865 -0.4411  0.0062
  986MOL0     C30025   5.162   1.666   1.527  0.1631  0.0699 -0.0338
  986MOL0     C30026   5.187   1.750   1.630  0.5528  0.1228 -0.3493
  986MOL0     C30027   5.304   1.829   1.638 -0.5839  0.7449  0.4625
  986MOL0     O30028   5.320   1.919   1.734 -0.4963 -0.5998 -0.0263
  986MOL0     C30029   5.236   1.931   1.852 -0.4707 -0.1951  0.8919
  986MOL0     C30030   5.102   2.010   1.833 -0.1588  0.8221  0.5046
  986MOL0     C30031   5.037   2.053   1.961 -1.0170 -0.3591  0.2280
  986MOL0     C30032   4.905   2.118   1.929 -0.5909  0.8226 -0.1349
  986MOL0     C30033   4.827   2.150   2.055  0.5507 -0.0111 -0.2207
  986MOL0     C30034   4.726   2.269   2.037 -0.1302 -0.4535  0.5095
  986MOL0     C30035   4.624   2.216   1.923 -1.0095  0.3049 -0.6377
  986MOL0     C30036   4.511   2.319   1.918  0.8633 -0.3889  0.0713
  986MOL0     N30037   4.410   2.321   2.030  0.2304  0.0428  0.7227
  986MOL0     C30038   4.332   2.214   2.055 -0.2739 -0.5784  0.5893
  986MOL0     C30039   4.216   2.250   2.104 -0.4555  0.3624 -0.4503
  986MOL0     C30040   4.085   2.179   2.126 -0.6908  0.1304 -0.8123
  986MOL0     C30041   4.109   2.056   2.212 -0.5902  0.0258 -0.6900
  986MOL0     C30042   3.973   1.995   2.269 -0.0807  0.9217 -0.8240
  986MOL0     C30043   3.984   1.874   2.353 -0.5109 -0.0747  0.5584
  986MOL0     O30044   4.038   1.758   2.280  0.1434  0.1273  0.0980
  986MOL0     C30045   3.962   1.648   2.302  0.2144  0.7225  0.3522
  986MOL0     C30046   3.963   1.547   2.201  1.1238  0.4898 -0.1889
  986MOL0     C30047   3.908   1.420   2.216 -0.6380  0.0559 -0.3025
  986MOL0     C30048   3.853   1.390   2.344  0.5543  1.2385 -0.5281
  986MOL0     C30049   3.810   1.254   2.380 -0.0544  0.9393 -0.1685
  986MOL0     O30050   3.770   1.180   2.272 -0.2612  0.2581 -0.3045
  986MOL0     C30051   3.749   1.044   2.293 -0.3530 -0.4174  0.1826
  986MOL0     C30052   3.862   0.962   2.305 -0.4445 -0.6041  0.2965
  986MOL0     C30053   3.839   0.823   2.315  0.5699  0.2300 -0.1308
  986MOL0     C30054   3.706   0.774   2.320  0.5580 -0.4627  0.0381
  986MOL0     O30055   3.681   0.632   2.319 -0.5575  0.3454 -0.6449
  986MOL0     C30056   3.757   0.549   2.232 -0.1415  0.7107 -0.5592
  986MOL0     C30057   3.704   0.405   2.250 -0.0303 -0.8950  0.4933
  986MOL0     C30058   3.816   0.294   2.247  0.7330  0.0625  0.2521
  986MOL0     C30059   3.945   0.325   2.331 -0.3882 -0.1523  0.2928
  986MOL0     C30060   3.907   0.374   2.472  0.5227 -0.4310  0.7263
  986MOL0     C30061   4.017   0.351   2.572 -0.3947  0.4312  0.5911
  986MOL0     C30062   4.019   0.213   2.632  0.6605  0.5058 -0.2989
  986MOL0     C30063   4.107   0.213   2.759 -0.9069  0.6697 -0.1547
  986MOL0    Cl30064   4.019   0.290   2.894 -0.4377  0.1887  0.2240
  986MOL0     C30065   3.594   0.858   2.304 -0.1781 -0.2317 -0.0077
  986MOL0     C30066   3.617   0.997   2.296 -0.4391 -0.2679 -0.1669
  986MOL0     O30067   3.792   1.227   2.496  1.0409 -0.3994  0.0041
  986MOL0     C30068   3.867   1.485   2.453 -0.3212 -1.5133  0.3332
  986MOL0     C30069   3.930   1.607   2.430  0.2147 -0.3187 -0.3428
  986MOL0     N30070   4.218   2.385   2.096  0.7690 -0.2948 -0.4656
  986MOL0     N30071   4.335   2.425   2.063  0.2791 -0.5399 -1.1727
  986MOL0     C30072   5.402   1.814   1.538 -1.2949  0.7838 -0.9427
  986MOL0     C30073   5.378   1.728   1.436 -0.1740  1.0453  0.0352
  986MOL0     C30074   5.314   1.370   1.182 -0.5710 -0.6060 -0.7106
  986MOL0     C30075   5.404   1.254   1.158  0.4681 -1.0383  0.0905
  986MOL0     C30076   5.411   1.196   1.029  0.1239  0.4586 -0.4779
  986MOL0     C30077   5.326   1.241   0.923 -0.2388  0.2955  0.3216
  986MOL0     O30078   5.311   1.194   0.791  0.1583  0.3991 -0.2792
  986MOL0     C30079   5.397   1.091   0.755  0.0313  0.2231 -0.4074
  986MOL0     C30080   5.369   1.086   0.604 -0.3234 -0.4318 -0.6803
  986MOL0     C30081   5.466   1.009   0.517  0.6518  0.3160  0.9649
  986MOL0     C30082   5.422   1.029   0.368  0.0180  0.1165 -0.5107
  986MOL0     C30083   5.422   1.161   0.306  0.4836  0.4985 -0.4747
  986MOL0     C30084   5.438   1.263   0.250  0.3962 -0.1738  0.8668
  986MOL0     C30085   5.239   1.338   0.954 -0.6186 -0.4320  0.3016
  986MOL0     C30086   5.227   1.400   1.080  0.5152  0.4449  0.5097
  986MOL0     H30087   5.076   1.601   1.516  0.3233 -0.1906  0.2326
  986MOL0     H30088   5.114   1.755   1.711  1.1362  1.3942  0.1383
  986MOL0     H30089   5.299   1.977   1.928  0.0464 -5.2176  3.9578
  986MOL0     H30090   5.221   1.827   1.885 -1.6884 -0.5966 -0.7910
  986MOL0     H30091   5.036   1.943   1.778  2.1767 -0.0855 -1.3729
  986MOL0     H30092   5.116   2.101   1.775 -2.4898  0.0954 -1.3302
  986MOL0     H30093   5.114   2.117   2.005  3.3318 -3.0994 -2.6113
  986MOL0     H30094   5.023   1.967   2.027  1.3985 -1.0172 -0.0214
  986MOL0     H30095   4.922   2.212   1.875  0.2650  2.8196  3.2878
  986MOL0     H30096   4.846   2.050   1.867 -0.1819  1.6886 -1.5393
  986MOL0     H30097   4.899   2.164   2.136 -0.2296 -1.3346  0.7294
  986MOL0     H30098   4.771   2.063   2.091 -0.8537  2.3392  3.9093
  986MOL0     H30099   4.773   2.364   2.010 -0.8731 -0.1651  0.2116
  986MOL0     H30100   4.675   2.281   2.133  1.7644 -2.8631  1.9185
  986MOL0     H30101   4.668   2.216   1.822 -1.8761  0.9275 -1.0310
  986MOL0     H30102   4.588   2.115   1.944 -2.5234  0.6166 -1.5842
  986MOL0     H30103   4.460   2.320   1.821 -0.6274  0.2042  0.8217
  986MOL0     H30104   4.548   2.421   1.923 -1.7086  0.5835  3.5529
  986MOL0     H30105   4.337   2.108   2.030 -1.4333 -0.8513  1.4201
  986MOL0     H30106   4.037   2.147   2.033  0.4660 -1.9664 -0.7680
  986MOL0     H30107   4.020   2.246   2.182  1.5083  2.2893 -0.7185
  986MOL0     H30108   4.175   2.074   2.297  0.7405 -0.9981 -1.4643
  986MOL0     H30109   4.153   1.978   2.150  0.1206 -2.9595  3.1924
  986MOL0     H30110   3.919   2.074   2.321 -0.6260  0.1643 -0.2156
  986MOL0     H30111   3.912   1.972   2.181 -2.7802  1.3613  0.8425
  986MOL0     H30112   3.879   1.873   2.384 -1.4360  6.4153 -0.7581
  986MOL0     H30113   4.047   1.885   2.441  3.7401 -0.4820 -2.1249
  986MOL0     H30114   3.994   1.582   2.104 -1.6957  1.3104 -0.8989
  986MOL0     H30115   3.896   1.356   2.129  1.2704  0.8019 -1.1714
  986MOL0     H30116   3.957   1.005   2.275  0.1542 -1.5881  0.6998
  986MOL0     H30117   3.926   0.760   2.334  1.4152  1.7221  1.1100
  986MOL0     H30118   3.863   0.555   2.259 -0.9754  2.2166  2.8332
  986MOL0     H30119   3.748   0.588   2.130  0.8540 -2.4818 -2.0062
  986MOL0     H30120   3.627   0.384   2.175 -1.1627  4.2575 -0.1266
  986MOL0     H30121   3.654   0.410   2.347  3.1843 -1.5785  2.3246
  986MOL0     H30122   3.831   0.285   2.139 -2.8204  2.0037 -0.5776
  986MOL0     H30123   3.770   0.201   2.282  2.1825 -2.8224 -4.6788
  986MOL0     H30124   4.006   0.235   2.335 -1.8215 -1.2918 -1.7634
  986MOL0     H30125   4.005   0.402   2.282  0.8322 -1.0839  0.2708
  986MOL0     H30126   3.816   0.318   2.494 -0.0927 -0.2841 -1.2825
  986MOL0     H30127   3.881   0.480   2.468  3.9071  0.4743 -1.2049
  986MOL0     H30128   4.022   0.430   2.648  0.4434  1.2068 -0.2421
  986MOL0     H30129   4.112   0.353   2.518 -0.4034 -0.5295  0.5371
  986MOL0     H30130   3.918   0.176   2.648  0.5813  0.6974 -0.3602
  986MOL0     H30131   4.065   0.155   2.552 -1.6014 -0.1415 -1.1869
  986MOL0     H30132   4.197   0.271   2.736 -1.3896  1.0502 -1.1603
  986MOL0     H30133   4.137   0.113   2.791  5.6630  2.3305  0.4102
  986MOL0     H30134   3.494   0.816   2.291  0.3413 -0.7729 -2.9614
  986MOL0     H30135   3.535   1.068   2.294 -1.7011 -1.6724 -1.4785
  986MOL0     H30136   3.840   1.456   2.554 -0.6456 -0.0895  0.6724
  986MOL0     H30137   3.938   1.680   2.510 -3.3044  2.1498 -1.9943
  986MOL0     H30138   5.497   1.867   1.545  1.2817 -3.0202 -3.2061
  986MOL0     H30139   5.450   1.717   1.355  0.9656 -1.1268  1.2447
  986MOL0     H30140   5.475   1.208   1.226  0.0475 -2.0206 -0.1122
  986MOL0     H30141   5.490   1.121   1.023 -3.1031 -3.5714  1.9424
  986MOL0     H30142   5.371   0.995   0.800  0.4617 -0.6377 -1.9347
  986MOL0     H30143   5.504   1.114   0.768  0.6242 -2.0067 -0.8595
  986MOL0     H30144   5.263   1.062   0.592 -0.5458  0.0437  0.2472
  986MOL0     H30145   5.381   1.189   0.571  1.3452 -0.7276 -1.0795
  986MOL0     H30146   5.460   0.906   0.553  0.7344  1.5514  5.0038
  986MOL0     H30147   5.567   1.049   0.529  2.3925 -2.3157 -2.9248
  986MOL0     H30148   5.487   0.968   0.305  1.2342  0.0167  0.7933
  986MOL0     H30149   5.326   0.982   0.347 -0.7089  2.4641 -2.9141
  986MOL0     H30150   5.478   1.356   0.215  0.8904 -0.4032  0.8137
  986MOL0     H30151   5.180   1.391   0.879 -3.1604  0.3327  2.7096
  986MOL0     H30152   5.154   1.480   1.085 -1.9645 -1.5599 -1.0467
  987MOL0     O30153   6.135   5.103  10.763 -0.0554  0.6457  0.8938
  987MOL0     C30154   6.188   5.188  10.825 -0.2057 -0.7512  0.2820
  987MOL0     O30155   6.316   5.240  10.805  0.6713  0.3843  0.2806
  987MOL0     C30156   6.377   5.214  10.683 -0.0530  0.2445 -0.9674
  987MOL0     C30157   6.515   5.222  10.697 -0.2930  0.1353 -0.0699
  987MOL0     C30158   6.601   5.210  10.591 -0.1932 -0.3753 -0.3239
  987MOL0     C30159   6.552   5.176  10.465 -1.2505  0.7733 -0.1126
  987MOL0     O30160   6.642   5.170  10.370 -0.1549  0.7878  0.1549
  987MOL0     C30161   6.591   5.202  10.242  0.1307 -0.5474  0.1254
  987MOL0     C30162   6.551   5.067  10.164 -0.0075  0.1156 -0.0412
  987MOL0     C30163   6.475   5.101  10.039 -0.1197 -0.2691  0.0748
  987MOL0     C30164   6.566   5.153   9.926 -0.8100  0.7075 -0.0104
  987MOL0     C30165   6.489   5.177   9.793 -0.2259  0.0163 -0.7113
  987MOL0     C30166   6.450   5.330   9.799 -0.4476  0.9706 -0.2674
  987MOL0     C30167   6.360   5.366   9.682  0.0718 -0.2092  0.2297
  987MOL0     C30168   6.376   5.518   9.674  0.4121 -0.5458  0.3783
  987MOL0     N30169   6.333   5.568   9.541  0.9505  0.1545  0.1941
  987MOL0     C30170   6.371   5.695   9.488 -0.0869  0.0342  0.2762
  987MOL0     C30171   6.323   5.707   9.363  0.1389  0.4605  0.1175
  987MOL0     C30172   6.358   5.812   9.262 -0.3778 -0.1464  0.0646
  987MOL0     C30173   6.274   5.946   9.275 -0.0716  0.8670 -1.0722
  987MOL0     C30174   6.339   6.067   9.199  0.5433 -0.2904  0.7799
  987MOL0     C30175   6.222   6.159   9.179 -0.5536 -0.7254 -0.0676
  987MOL0     O30176   6.281   6.287   9.135  0.8225 -0.1811 -0.3672
  987MOL0     C30177   6.269   6.344   9.010  1.1742 -0.2595 -0.3082
  987MOL0     C30178   6.178   6.450   8.983 -0.6483  0.1414 -0.8469
  987MOL0     C30179   6.186   6.520   8.863 -0.3036  0.9735 -0.0116
  987MOL0     C30180   6.272   6.474   8.758 -0.4470  0.1266 -0.2750
  987MOL0     C30181   6.272   6.555   8.635 -0.6353 -0.3676 -0.1116
  987MOL0     O30182   6.381   6.545   8.560 -1.1154 -0.2763 -0.3679
  987MOL0     C30183   6.378   6.603   8.435 -0.7267  0.0530 -0.1472
  987MOL0     C30184   6.278   6.583   8.339  0.4726  0.4358  0.1066
  987MOL0     C30185   6.283   6.642   8.205  1.0071 -0.6391 -0.0289
  987MOL0     C30186   6.402   6.723   8.179  0.8747 -0.0676  0.8847
  987MOL0     O30187   6.428   6.761   8.050 -0.1040 -0.2167 -0.9358
  987MOL0     C30188   6.373   6.893   8.020  0.0703  1.2774  0.3221
  987MOL0     C30189   6.395   6.920   7.865  0.0514  0.2375  1.2041
  987MOL0     C30190   6.319   7.049   7.825  1.0536 -0.4452  0.7070
  987MOL0     C30191   6.333   7.083   7.678  0.5774  0.0936  0.4816
  987MOL0     C30192   6.214   7.167   7.640 -0.3731  0.3317  0.5437
  987MOL0     C30193   6.241   7.190   7.489 -0.0882 -1.0254 -0.0631
  987MOL0     C30194   6.309   7.327   7.482 -0.9195 -0.3033  0.5171
  987MOL0     C30195   6.213   7.440   7.469 -0.2655 -0.7454 -0.1108
  987MOL0    Cl30196   6.308   7.596   7.446 -0.2663 -0.0862  0.0659
  987MOL0     C30197   6.489   6.760   8.277  0.2141  0.2389  0.0735
  987MOL0     C30198   6.476   6.704   8.404 -0.0607  0.6498 -0.3639
  987MOL0     O30199   6.187   6.644   8.619 -0.1670  0.2986  0.0798
  987MOL0     C30200   6.364   6.367   8.790  0.2403  0.3995  0.4349
  987MOL0     C30201   6.354   6.299   8.913 -0.1731  0.1749 -0.5971
  987MOL0     N30202   6.247   5.593   9.346  0.2430  0.1337 -0.1608
  987MOL0     N30203   6.264   5.508   9.444 -0.1045  1.3073 -0.5931
  987MOL0     C30204   6.412   5.158  10.457  0.5492 -0.9751 -0.7760
  987MOL0     C30205   6.319   5.185  10.556  0.0268  0.8574 -0.3658
  987MOL0     C30206   6.122   5.253  10.946 -0.7180 -0.2683  0.5787
  987MOL0     C30207   5.985   5.264  10.951 -0.5786 -1.4134  0.7502
  987MOL0     C30208   5.917   5.327  11.059 -0.7674 -0.4675  0.9117
  987MOL0     C30209   5.991   5.369  11.160  0.1041 -0.6915  0.4113
  987MOL0     O30210   5.929   5.431  11.268 -0.3068  0.0786 -0.4838
  987MOL0     C30211   5.826   5.356  11.336 -0.1852 -1.4255 -0.4748
  987MOL0     C30212   5.736   5.452  11.415 -0.2081 -0.2652 -0.1141
  987MOL0     C30213   5.678   5.575  11.345 -0.1949 -0.5012 -0.2208
  987MOL0     C30214   5.598   5.534  11.234  0.7030  0.0043 -0.0042
  987MOL0     C30215   5.505   5.633  11.181  0.4495  0.5062  0.2501
  987MOL0     C30216   5.426   5.704  11.118 -0.1605 -0.2401 -1.1486
  987MOL0     C30217   6.127   5.365  11.162  0.5028  0.9640  0.6453
  987MOL0     C30218   6.190   5.307  11.053 -1.7490 -0.3126  0.4502
  987MOL0     H30219   6.556   5.244  10.795 -0.1005 -0.8871  0.0879
  987MOL0     H30220   6.707   5.232  10.599 -0.3392  0.2070  0.0339
  987MOL0     H30221   6.665   5.260  10.186  1.1962 -2.3511 -0.4347
  987MOL0     H30222   6.509   5.274  10.243 -0.1655 -0.8803  0.7981
  987MOL0     H30223   6.484   5.015  10.232  0.6793  0.1976  0.7191
  987MOL0     H30224   6.637   5.002  10.146 -0.3929 -0.5020  0.3330
  987MOL0     H30225   6.397   5.172  10.066 -1.3560 -0.7812 -1.9173
  987MOL0     H30226   6.421   5.015   9.998 -1.3143  0.0029  1.0217
  987MOL0     H30227   6.615   5.243   9.965 -0.0820 -0.2668  1.3998
  987MOL0     H30228   6.639   5.073   9.911 -0.7934  0.0062  3.1495
  987MOL0     H30229   6.398   5.118   9.780 -0.8151  0.5994  0.5840
  987MOL0     H30230   6.554   5.165   9.706  0.6617 -0.2195 -0.0239
  987MOL0     H30231   6.545   5.385   9.803  2.2011 -3.1376  4.1438
  987MOL0     H30232   6.411   5.349   9.899  0.1734  2.4270 -0.2684
  987MOL0     H30233   6.408   5.327   9.592  0.8382  1.0209  0.0908
  987MOL0     H30234   6.255   5.341   9.702 -0.4048  2.6525  1.8662
  987MOL0     H30235   6.479   5.554   9.683 -0.2523  1.6486 -0.1756
  987MOL0     H30236   6.325   5.560   9.761 -0.2580 -2.5245  0.9911
  987MOL0     H30237   6.441   5.769   9.525  2.0859 -0.8885 -1.7276
  987MOL0     H30238   6.345   5.776   9.159  3.5956 -1.4109 -0.1609
  987MOL0     H30239   6.464   5.841   9.265 -1.1775  3.1284  0.2671
  987MOL0     H30240   6.251   5.970   9.379 -2.5534 -0.0693 -1.3416
  987MOL0     H30241   6.181   5.919   9.223 -1.7619  0.7524  1.7959
  987MOL0     H30242   6.419   6.121   9.249  2.2745  0.1098 -2.2040
  987MOL0     H30243   6.383   6.033   9.105  2.3934  1.7340  0.8516
  987MOL0     H30244   6.160   6.185   9.265  1.9940 -0.2038  1.7485
  987MOL0     H30245   6.157   6.119   9.101 -0.2475 -0.3981 -0.5002
  987MOL0     H30246   6.101   6.476   9.056  0.1807 -0.7771  0.3999
  987MOL0     H30247   6.111   6.595   8.847 -1.2501 -0.4471 -2.7889
  987MOL0     H30248   6.208   6.509   8.377 -2.4200  2.8740 -0.1235
  987MOL0     H30249   6.200   6.625   8.138  1.0879 -2.9489  0.4017
  987MOL0     H30250   6.424   6.974   8.074  0.2270  1.8659 -0.6860
  987MOL0     H30251   6.265   6.897   8.036 -0.0367  0.1774 -0.0237
  987MOL0     H30252   6.348   6.840   7.806 -1.4723  0.2740  2.2834
  987MOL0     H30253   6.498   6.937   7.834  0.6828 -2.5266  1.4960
  987MOL0     H30254   6.339   7.132   7.892 -0.6319 -0.5699  1.4027
  987MOL0     H30255   6.213   7.025   7.840  0.6298  0.7714 -0.2022
  987MOL0     H30256   6.428   7.136   7.666  0.3646 -0.0412 -2.8273
  987MOL0     H30257   6.340   6.998   7.609  0.9039  1.7483 -1.6399
  987MOL0     H30258   6.213   7.258   7.701  0.0427  0.1373  0.8430
  987MOL0     H30259   6.123   7.110   7.659  1.0520 -3.3191 -2.3780
  987MOL0     H30260   6.143   7.198   7.441 -0.7501  1.1250  1.5197
  987MOL0     H30261   6.290   7.106   7.438 -3.9175 -3.9698  0.7071
  987MOL0     H30262   6.361   7.334   7.578 -1.1322 -3.0136  0.9058
  987MOL0     H30263   6.387   7.336   7.406 -2.1156 -0.4794 -0.7737
  987MOL0     H30264   6.166   7.444   7.567  2.9619 -6.5618  2.1901
  987MOL0     H30265   6.154   7.421   7.379 -0.6781  0.3492 -0.0912
  987MOL0     H30266   6.577   6.818   8.251  0.1148  0.1805 -0.4032
  987MOL0     H30267   6.561   6.728   8.467  1.8483 -2.8225 -1.3736
  987MOL0     H30268   6.439   6.352   8.713 -0.5801 -0.6867 -0.1870
  987MOL0     H30269   6.428   6.222   8.931  0.6816  0.6725 -1.8332
  987MOL0     H30270   6.358   5.144  10.363 -0.7511 -0.3741 -0.1367
  987MOL0     H30271   6.216   5.200  10.526 -0.2127 -1.6294 -0.9784
  987MOL0     H30272   5.922   5.224  10.873 -2.0098  4.0173 -1.3467
  987MOL0     H30273   5.809   5.334  11.063 -0.7695  0.6770 -0.1798
  987MOL0     H30274   5.880   5.300  11.414  2.3065  1.6737  0.2320
  987MOL0     H30275   5.767   5.291  11.271 -1.5935 -0.8700  0.2095
  987MOL0     H30276   5.661   5.387  11.462 -0.0163 -0.2100  0.2726
  987MOL0     H30277   5.797   5.493  11.496  1.9409 -4.6511  0.7974
  987MOL0     H30278   5.757   5.631  11.294 -0.3616  2.2986  2.2875
  987MOL0     H30279   5.621   5.643  11.410 -0.1188 -1.9821  1.4749
  987MOL0     H30280   5.670   5.519  11.154  1.2062  3.2763 -0.2862
  987MOL0     H30281   5.539   5.444  11.255 -0.4957  0.3058 -1.8578
  987MOL0     H30282   5.372   5.762  11.045 -1.0157 -0.3886 -0.6441
  987MOL0     H30283   6.172   5.405  11.253 -1.1996  2.1458  1.0140
  987MOL0     H30284   6.297   5.321  11.063 -1.6895  0.2787 -0.7757
  988MOL0     O30285   4.573   1.245   5.837 -0.4499 -0.0513 -0.0949
  988MOL0     C30286   4.634   1.348   5.825 -1.4562  0.6623  0.4854
  988MOL0     O30287   4.639   1.427   5.715  0.0248 -0.1013  0.3014
  988MOL0     C30288   4.601   1.374   5.592 -0.0162 -0.9942  0.2447
  988MOL0     C30289   4.657   1.252   5.547 -0.0993  0.0901 -0.6391
  988MOL0     C30290   4.635   1.206   5.420  0.2841  0.6117  0.0118
  988MOL0     C30291   4.541   1.271   5.336 -0.7476 -0.1844 -0.1856
  988MOL0     O30292   4.517   1.226   5.209 -0.1050  0.5518  0.3576
  988MOL0     C30293   4.379   1.195   5.178 -0.5274 -0.0644  1.1526
  988MOL0     C30294   4.327   1.281   5.072  0.2318 -0.7193  0.0990
  988MOL0     C30295   4.183   1.284   5.075 -0.0513  0.7255  0.0593
  988MOL0     C30296   4.111   1.382   4.971 -0.2512  0.6657  0.0615
  988MOL0     C30297   3.990   1.330   4.885 -0.1413  0.1739 -1.2527
  988MOL0     C30298   4.041   1.212   4.794  0.8314  1.0282  0.2050
  988MOL0     C30299   3.921   1.164   4.700 -1.9317 -0.4595  0.5471
  988MOL0     C30300   3.813   1.086   4.765  0.9172  0.1877  0.8854
  988MOL0     N30301   3.871   0.972   4.819  0.8118 -0.1070  0.5659
  988MOL0     C30302   3.869   0.848   4.747 -0.3891 -0.0613  0.2276
  988MOL0     C30303   3.938   0.768   4.829 -0.5752  0.1862  0.5633
  988MOL0     C30304   3.950   0.622   4.805 -0.6268 -0.7769  0.5044
  988MOL0     C30305   4.081   0.577   4.870 -0.7432  0.7890  0.0741
  988MOL0     C30306   4.104   0.425   4.848 -0.7156 -0.1212 -0.7947
  988MOL0     C30307   4.227   0.374   4.933 -0.5844  0.2831 -0.9825
  988MOL0     O30308   4.352   0.396   4.869 -0.0900 -0.2843  0.1533
  988MOL0     C30309   4.390   0.317   4.757 -0.5343 -0.3004  0.2176
  988MOL0     C30310   4.465   0.388   4.664 -0.6070  0.0654  0.1309
  988MOL0     C30311   4.501   0.320   4.544 -0.4197 -0.8693 -0.5333
  988MOL0     C30312   4.470   0.188   4.525 -0.5457  0.1295  0.1558
  988MOL0     C30313   4.497   0.129   4.396 -0.3173  0.6099  0.5567
  988MOL0     O30314   4.397   0.045   4.337  0.2520 -0.4717  0.3538
  988MOL0     C30315   4.424   0.003   4.211  1.0881  0.1383  0.0512
  988MOL0     C30316   4.362   0.063   4.102 -0.0400  0.4787  0.2964
  988MOL0     C30317   4.385   0.025   3.968  0.9168 -0.6075 -0.4518
  988MOL0     C30318   4.468  -0.082   3.937 -0.7928  1.0248 -0.2427
  988MOL0     O30319   4.496  -0.129   3.808 -0.2447 -0.4645  0.5540
  988MOL0     C30320   4.522  -0.031   3.698 -0.1347 -0.0403  0.0750
  988MOL0     C30321   4.676  -0.010   3.681  0.6438  0.0058 -0.6441
  988MOL0     C30322   4.719   0.016   3.536  0.4478 -0.0138  0.4262
  988MOL0     C30323   4.868  -0.018   3.510  0.2772  0.0863 -0.5013
  988MOL0     C30324   4.908  -0.025   3.359  0.4727  0.0976  0.4361
  988MOL0     C30325   4.864  -0.153   3.281  0.2583  0.3190  1.0398
  988MOL0     C30326   4.898  -0.157   3.133 -0.1613  0.8509 -0.1377
  988MOL0     C30327   4.829  -0.268   3.049  1.1428 -0.3786 -0.6315
  988MOL0    Cl30328   4.855  -0.238   2.876 -0.1168 -0.1131  0.6191
  988MOL0     C30329   4.539  -0.143   4.048  0.0285  0.3069  0.1957
  988MOL0     C30330   4.518  -0.100   4.182  0.1671 -0.8214  0.1629
  988MOL0     O30331   4.599   0.164   4.342  0.6292 -0.5959  0.0660
  988MOL0     C30332   4.403   0.118   4.619 -0.3811 -0.3621 -1.0866
  988MOL0     C30333   4.362   0.182   4.737 -0.3255  0.3851 -0.2054
  988MOL0     N30334   3.978   0.842   4.942  0.4034  0.0741 -0.4023
  988MOL0     N30335   3.935   0.960   4.935  1.0762  0.1159  0.0717
  988MOL0     C30336   4.488   1.391   5.376  0.2204 -0.4403  0.4244
  988MOL0     C30337   4.519   1.435   5.503 -0.1806  0.3720  0.1683
  988MOL0     C30338   4.706   1.399   5.947  0.0203 -0.8579 -0.3688
  988MOL0     C30339   4.822   1.480   5.927  0.1449  0.7496 -0.1372
  988MOL0     C30340   4.897   1.530   6.035 -0.8571 -0.3954  0.8506
  988MOL0     C30341   4.860   1.494   6.165  0.3056 -0.2031  0.1851
  988MOL0     O30342   4.942   1.543   6.263 -0.7907  0.4854  0.1551
  988MOL0     C30343   4.903   1.526   6.400  1.0854 -0.0246 -0.2693
  988MOL0     C30344   4.793   1.628   6.440  0.6118 -0.5255 -0.1235
  988MOL0     C30345   4.849   1.739   6.528 -0.9011 -0.0753  0.3764
  988MOL0     C30346   4.740   1.823   6.578 -0.3253 -0.0012 -0.0644
  988MOL0     C30347   4.652   1.752   6.681  0.6695  0.3139 -0.4056
  988MOL0     C30348   4.575   1.695   6.762  0.3572 -0.0690 -0.0498
  988MOL0     C30349   4.745   1.415   6.184 -0.2073  0.3573  0.0492
  988MOL0     C30350   4.675   1.366   6.074 -0.1551 -0.1944 -0.3511
  988MOL0     H30351   4.729   1.202   5.612 -0.1019  1.6891  0.6531
  988MOL0     H30352   4.694   1.120   5.388 -1.6144 -0.7904  0.0436
  988MOL0     H30353   4.318   1.188   5.268  0.4956  0.1166  1.8703
  988MOL0     H30354   4.377   1.093   5.137 -3.7863  0.7974 -1.2231
  988MOL0     H30355   4.361   1.247   4.974  1.2222  0.3018  0.0588
  988MOL0     H30356   4.352   1.387   5.087 -0.2384 -0.4728 -0.7793
  988MOL0     H30357   4.153   1.318   5.175 -2.4238  0.8917 -0.6579
  988MOL0     H30358   4.151   1.181   5.061  0.7528  0.1593  1.9994
  988MOL0     H30359   4.091   1.475   5.026 -0.8539  0.3041  0.4638
  988MOL0     H30360   4.181   1.410   4.892 -2.0287  3.3133 -0.7111
  988MOL0     H30361   3.965   1.420   4.826 -0.1680  2.2550  1.7044
  988MOL0     H30362   3.918   1.293   4.959 -0.2604  0.9134 -0.9903
  988MOL0     H30363   4.081   1.125   4.846  0.1088 -0.9894 -2.4069
  988MOL0     H30364   4.115   1.250   4.724  2.0747 -0.3912  0.6990
  988MOL0     H30365   3.896   1.257   4.648 -0.2038  0.1605  0.7541
  988MOL0     H30366   3.963   1.090   4.631  3.5676  2.4767  0.1461
  988MOL0     H30367   3.733   1.064   4.694  0.8294  2.0505  0.3763
  988MOL0     H30368   3.768   1.143   4.846 -0.5746 -1.4704  1.3002
  988MOL0     H30369   3.827   0.827   4.649  1.4374 -0.7588 -0.4448
  988MOL0     H30370   3.946   0.597   4.698 -2.0882 -0.5822  0.4977
  988MOL0     H30371   3.872   0.571   4.862 -2.9536  0.3454 -1.4765
  988MOL0     H30372   4.083   0.587   4.979  3.0653 -4.4453  0.8828
  988MOL0     H30373   4.165   0.632   4.827  0.1349 -0.1221  0.5862
  988MOL0     H30374   4.010   0.374   4.872 -1.2305  0.6970 -1.0166
  988MOL0     H30375   4.124   0.407   4.742 -0.3691  0.1334 -0.7722
  988MOL0     H30376   4.201   0.268   4.945 -1.1359  0.3817 -1.2634
  988MOL0     H30377   4.214   0.406   5.037  0.4029 -4.0126  0.6848
  988MOL0     H30378   4.498   0.488   4.691 -0.1125  0.6261 -2.2891
  988MOL0     H30379   4.577   0.361   4.477 -0.6740 -1.6664 -1.3271
  988MOL0     H30380   4.312   0.157   4.123 -0.2707  0.5888 -0.6687
  988MOL0     H30381   4.328   0.080   3.894  1.0223 -0.1269 -0.1807
  988MOL0     H30382   4.461   0.058   3.712  0.7601  0.3950  1.3446
  988MOL0     H30383   4.486  -0.085   3.610 -3.2663 -0.5571  1.5484
  988MOL0     H30384   4.728  -0.093   3.729 -0.9236 -0.0467  1.0907
  988MOL0     H30385   4.706   0.079   3.736 -1.8946 -0.8570  2.4244
  988MOL0     H30386   4.701   0.121   3.513 -2.7540 -0.8262 -1.5318
  988MOL0     H30387   4.657  -0.047   3.470  1.6005 -1.9617  1.1272
  988MOL0     H30388   4.932   0.060   3.552 -0.2357  1.1767 -1.6544
  988MOL0     H30389   4.902  -0.105   3.567 -0.7438 -2.7741 -3.9020
  988MOL0     H30390   5.018  -0.023   3.355  0.5407 -2.0880 -0.0932
  988MOL0     H30391   4.873   0.065   3.307 -0.6904 -0.1047  0.8446
  988MOL0     H30392   4.755  -0.160   3.288  0.2201  0.5559  0.6845
  988MOL0     H30393   4.898  -0.237   3.342  1.9776 -0.8766 -1.4146
  988MOL0     H30394   4.868  -0.065   3.082 -1.2500  1.4375  1.4934
  988MOL0     H30395   5.006  -0.172   3.122  0.2650  0.9185  3.1363
  988MOL0     H30396   4.722  -0.265   3.072  1.1312 -0.6407 -0.6470
  988MOL0     H30397   4.855  -0.369   3.080  2.0947  0.0248 -0.0930
  988MOL0     H30398   4.613  -0.216   4.016  0.9052  2.0685 -2.0265
  988MOL0     H30399   4.580  -0.139   4.262 -0.3230 -1.1664  0.3800
  988MOL0     H30400   4.372   0.015   4.604 -2.2058 -0.1855  0.9934
  988MOL0     H30401   4.318   0.126   4.819  0.8890  1.5553  1.2908
  988MOL0     H30402   4.425   1.440   5.303 -1.2700  0.7856  2.4187
  988MOL0     H30403   4.483   1.535   5.525  0.4945  0.3986  1.2143
  988MOL0     H30404   4.842   1.516   5.826 -2.1542  1.4130 -0.4296
  988MOL0     H30405   4.978   1.599   6.014 -2.7431  2.3385  1.9691
  988MOL0     H30406   4.989   1.543   6.466 -1.5298  0.1754  3.4263
  988MOL0     H30407   4.867   1.427   6.430 -2.6899  2.2843  4.2241
  988MOL0     H30408   4.764   1.674   6.345 -0.5109 -2.0466 -0.5556
  988MOL0     H30409   4.708   1.569   6.477 -0.9689 -0.6679 -3.6237
  988MOL0     H30410   4.921   1.801   6.474 -1.8208  3.1076  2.5125
  988MOL0     H30411   4.900   1.690   6.611  3.0548  1.6622 -0.8063
  988MOL0     H30412   4.785   1.906   6.634  0.9442  0.4555 -1.6594
  988MOL0     H30413   4.684   1.862   6.493  0.6068  0.9549 -0.2678
  988MOL0     H30414   4.506   1.648   6.828  0.6120  1.2405  1.2032
  988MOL0     H30415   4.712   1.391   6.285  0.3417 -1.7246 -0.2336
  988MOL0     H30416   4.596   1.292   6.084 -0.6100  0.1103 -1.5474
  989MOL0     O30417   7.660   2.798  10.055  0.7329 -0.0293 -0.2206
  989MOL0     C30418   7.744   2.766   9.971  0.8145 -0.4420  0.0448
  989MOL0     O30419   7.878   2.800   9.984  0.0992 -0.9099  0.2083
  989MOL0     C30420   7.908   2.876  10.098  0.1870  0.5961  0.3623
  989MOL0     C30421   7.941   3.012  10.087 -0.2899 -0.0634 -0.4531
  989MOL0     C30422   7.969   3.093  10.212  0.1838 -0.9157 -0.8110
  989MOL0     C30423   7.988   3.034  10.336  0.4914  0.0969  0.3792
  989MOL0     O30424   8.013   3.098  10.449 -0.7359  0.2236 -0.3689
  989MOL0     C30425   8.049   3.242  10.445 -0.2074  0.4228  0.7629
  989MOL0     C30426   8.111   3.286  10.586  0.5526  0.4066 -0.4815
  989MOL0     C30427   7.998   3.344  10.675 -1.7733  0.7043  0.0596
  989MOL0     C30428   8.067   3.410  10.799 -0.2839 -0.4955  0.3907
  989MOL0     C30429   7.961   3.494  10.878  0.1286  0.7334 -0.9924
  989MOL0     C30430   7.999   3.526  11.038 -0.6127  0.7093  0.0654
  989MOL0     C30431   8.043   3.390  11.103 -0.0981 -0.5383 -0.3532
  989MOL0     C30432   8.004   3.382  11.258  0.5362 -0.8089 -0.3545
  989MOL0     N30433   8.104   3.448  11.337 -0.7019  0.4692 -0.1036
  989MOL0     C30434   8.089   3.568  11.404  0.1820 -0.0027  0.5747
  989MOL0     C30435   8.209   3.583  11.467 -0.2483  0.1390 -0.3730
  989MOL0     C30436   8.254   3.687  11.566 -0.1497  0.7445 -0.3798
  989MOL0     C30437   8.277   3.625  11.701  0.2065  0.1938 -0.6569
  989MOL0     C30438   8.169   3.529  11.765  0.0638 -0.2534  0.7004
  989MOL0     C30439   8.227   3.459  11.889  0.3018 -0.4895  0.1232
  989MOL0     O30440   8.340   3.377  11.852  0.2603  0.2156  0.4635
  989MOL0     C30441   8.311   3.247  11.815 -0.1115  0.9292  0.2167
  989MOL0     C30442   8.235   3.145  11.886  0.6484 -0.1592  0.2836
  989MOL0     C30443   8.191   3.033  11.824 -0.6577  0.0139 -0.7257
  989MOL0     C30444   8.237   2.999  11.696 -0.5614 -1.0577 -0.0306
  989MOL0     C30445   8.200   2.868  11.627  0.5041 -1.6364  0.1872
  989MOL0     O30446   8.172   2.879  11.493 -0.4818 -0.4154  0.0324
  989MOL0     C30447   8.137   2.768  11.428  0.0296  0.0867  0.7274
  989MOL0     C30448   8.209   2.696  11.331 -0.6503  0.0035  0.2931
  989MOL0     C30449   8.172   2.567  11.280  0.1803  0.1382 -1.0439
  989MOL0     C30450   8.051   2.497  11.319  1.0392  0.9364  0.8324
  989MOL0     O30451   8.005   2.368  11.272  0.0887  0.3774  0.6047
  989MOL0     C30452   8.089   2.307  11.175 -1.0838 -1.0812 -0.8395
  989MOL0     C30453   8.016   2.178  11.154 -0.1380 -0.1999 -1.3902
  989MOL0     C30454   8.085   2.064  11.233 -0.8559  0.1393  0.3336
  989MOL0     C30455   8.001   1.933  11.245 -0.1248 -0.0219  0.7058
  989MOL0     C30456   7.984   1.881  11.393  0.2075 -0.4545  0.2478
  989MOL0     C30457   8.097   1.771  11.436 -0.2633 -0.4955  1.0145
  989MOL0     C30458   8.230   1.837  11.474  0.5988 -1.2069 -1.1803
  989MOL0     C30459   8.316   1.718  11.537  0.5968 -0.1969 -0.0850
  989MOL0    Cl30460   8.253   1.641  11.688  0.1237 -0.3019  0.1384
  989MOL0     C30461   7.968   2.578  11.406  0.0051  0.5780 -0.0378
  989MOL0     C30462   8.015   2.703  11.455  0.8138 -0.6981  0.8134
  989MOL0     O30463   8.180   2.776  11.697 -0.8818  0.4423 -0.0410
  989MOL0     C30464   8.324   3.096  11.627 -0.4241  0.8032  0.6092
  989MOL0     C30465   8.351   3.217  11.680  0.1733 -0.2186 -0.7919
  989MOL0     N30466   8.289   3.475  11.443 -0.0188  0.5901 -0.0244
  989MOL0     N30467   8.223   3.390  11.371  0.5621 -0.3262  1.3919
  989MOL0     C30468   7.961   2.898  10.340 -0.4255  0.0563 -0.4032
  989MOL0     C30469   7.918   2.822  10.229 -0.0265  0.0623  0.1136
  989MOL0     C30470   7.700   2.681   9.852 -0.1458 -0.0890  0.0192
  989MOL0     C30471   7.798   2.634   9.769  0.6501  0.6025  1.0869
  989MOL0     C30472   7.762   2.525   9.675 -0.0408 -0.4104 -0.2394
  989MOL0     C30473   7.631   2.481   9.659 -0.5939 -0.0185  0.1390
  989MOL0     O30474   7.615   2.375   9.570  0.5426 -0.1952  0.4455
  989MOL0     C30475   7.479   2.310   9.546 -0.3049 -0.3011 -0.6602
  989MOL0     C30476   7.448   2.192   9.640  0.0431  0.1060  0.0089
  989MOL0     C30477   7.562   2.093   9.651 -0.6051  0.5196 -0.2663
  989MOL0     C30478   7.569   2.001   9.531  0.5942 -0.5954 -0.3644
  989MOL0     C30479   7.564   1.866   9.579  0.6648  0.7806  0.1703
  989MOL0     C30480   7.562   1.768   9.650 -0.1512 -0.9883 -0.4104
  989MOL0     C30481   7.530   2.549   9.737  0.6296  0.3009 -0.8937
  989MOL0     C30482   7.568   2.645   9.830  0.6324  0.1468  0.1291
  989MOL0     H30483   7.950   3.065   9.993  1.1796 -2.3932 -1.7281
  989MOL0     H30484   7.976   3.199  10.191  0.8416 -0.6219  0.7532
  989MOL0     H30485   7.968   3.312  10.419  0.4095  0.4273 -1.3782
  989MOL0     H30486   8.117   3.273  10.365 -1.1609  1.3739  0.2794
  989MOL0     H30487   8.184   3.367  10.578  2.2258 -0.6805  2.1930
  989MOL0     H30488   8.160   3.207  10.643  0.6590  0.7427 -0.0983
  989MOL0     H30489   7.934   3.264  10.713  0.3881 -1.3842 -0.4188
  989MOL0     H30490   7.935   3.419  10.626 -1.8603  1.5472  1.4312
  989MOL0     H30491   8.119   3.329  10.849  2.5148 -0.1388 -1.7095
  989MOL0     H30492   8.147   3.479  10.771 -0.0532 -1.5845 -1.8449
  989MOL0     H30493   7.863   3.447  10.882 -0.4064  1.8101  3.3988
  989MOL0     H30494   7.941   3.579  10.813 -3.4855 -1.7452 -3.5005
  989MOL0     H30495   7.917   3.568  11.096  0.9744  1.1150  2.1012
  989MOL0     H30496   8.080   3.598  11.048 -1.6372  2.0948 -1.1816
  989MOL0     H30497   7.993   3.306  11.053  1.4948 -0.8350 -1.5042
  989MOL0     H30498   8.149   3.369  11.095 -0.1311 -1.4641  1.1702
  989MOL0     H30499   8.007   3.277  11.290  0.2782 -0.3478  1.2915
  989MOL0     H30500   7.903   3.424  11.270  1.2212  0.7545  0.2407
  989MOL0     H30501   8.010   3.642  11.400 -3.4262 -3.5904 -2.0525
  989MOL0     H30502   8.171   3.758  11.575  1.6372  2.8796  0.2092
  989MOL0     H30503   8.336   3.748  11.529  0.3393 -1.0573 -2.4667
  989MOL0     H30504   8.286   3.713  11.765  0.8602 -0.6635  0.4727
  989MOL0     H30505   8.375   3.575  11.703  0.9800  1.6443 -1.0099
  989MOL0     H30506   8.088   3.597  11.794 -0.6475 -0.5907 -0.3908
  989MOL0     H30507   8.135   3.463  11.684  2.8601 -1.4894  0.4244
  989MOL0     H30508   8.143   3.396  11.920 -1.5541 -0.6299 -4.4041
  989MOL0     H30509   8.262   3.525  11.970  0.1125 -1.3565  0.9318
  989MOL0     H30510   8.210   3.149  11.991 -0.9885  2.5447 -0.1005
  989MOL0     H30511   8.126   2.966  11.879  0.3588 -1.4817 -1.2717
  989MOL0     H30512   8.308   2.729  11.303 -0.8001  0.8913  0.7883
  989MOL0     H30513   8.235   2.520  11.205  0.1164 -1.6468 -0.0221
  989MOL0     H30514   8.192   2.278  11.199 -1.4670 -1.1160  0.9111
  989MOL0     H30515   8.087   2.371  11.086 -2.1596  0.6803  0.3934
  989MOL0     H30516   8.005   2.149  11.049 -0.7831  1.2390 -1.7481
  989MOL0     H30517   7.913   2.184  11.190  0.1160 -0.3240 -0.6304
  989MOL0     H30518   8.107   2.103  11.333  0.8118 -0.0331  0.0599
  989MOL0     H30519   8.182   2.037  11.190 -0.3439  3.6974 -1.0938
  989MOL0     H30520   7.903   1.935  11.195 -0.4417 -2.4875  1.1168
  989MOL0     H30521   8.067   1.865  11.190  0.5586  1.1641 -0.0061
  989MOL0     H30522   7.884   1.837  11.398  0.2591 -0.4605  1.5971
  989MOL0     H30523   7.966   1.955  11.471 -4.0704  0.3755 -1.2657
  989MOL0     H30524   8.107   1.698  11.355  1.2330  1.0886 -0.2895
  989MOL0     H30525   8.054   1.720  11.522 -1.8845  0.0485  0.5608
  989MOL0     H30526   8.282   1.876  11.386 -1.0571  0.5228 -1.4615
  989MOL0     H30527   8.203   1.913  11.548  2.4552  2.4518 -3.9394
  989MOL0     H30528   8.413   1.761  11.565  0.9577 -1.2706  0.3567
  989MOL0     H30529   8.339   1.635  11.470 -2.2980 -0.2618 -1.1246
  989MOL0     H30530   7.871   2.546  11.444 -2.0294  2.1036 -3.4320
  989MOL0     H30531   7.936   2.765  11.496  1.3973  1.5616 -1.2325
  989MOL0     H30532   8.354   3.082  11.523  1.4319 -0.1500  1.2160
  989MOL0     H30533   8.408   3.284  11.617  0.1688  0.5038 -0.0410
  989MOL0     H30534   7.968   2.849  10.437 -0.6405 -3.3267 -1.9477
  989MOL0     H30535   7.897   2.718  10.251 -1.1987  0.6310  1.8732
  989MOL0     H30536   7.898   2.675   9.779  0.9908 -0.0975  0.6324
  989MOL0     H30537   7.844   2.481   9.620 -0.2495  0.1776 -1.0423
  989MOL0     H30538   7.474   2.275   9.443 -1.8191 -0.4478 -0.5509
  989MOL0     H30539   7.396   2.381   9.555 -1.5666 -1.4882 -2.2359
  989MOL0     H30540   7.426   2.238   9.737  0.1180 -1.5797  0.8559
  989MOL0     H30541   7.350   2.154   9.610 -1.0593 -0.1489  3.4809
  989MOL0     H30542   7.545   2.040   9.745 -2.8199  1.0211 -0.3226
  989MOL0     H30543   7.654   2.151   9.650  0.4665 -1.1045 -1.7355
  989MOL0     H30544   7.492   2.028   9.458  0.5435  0.7329  0.1552
  989MOL0     H30545   7.662   2.006   9.472 -1.1421  1.8979 -3.1786
  989MOL0     H30546   7.583   1.679   9.706  5.1506 -0.1937 -0.6155
  989MOL0     H30547   7.422   2.535   9.742 -0.0284  4.4134  0.0085
  989MOL0     H30548   7.487   2.679   9.894 -0.3976 -1.8954 -0.0070
  990MOL0     O30549   1.783  10.817   2.219  0.0856 -0.6453 -0.5042
  990MOL0     C30550   1.766  10.701   2.187 -0.5423 -0.4155 -0.5090
  990MOL0     O30551   1.866  10.611   2.162 -0.8264  0.9835  1.0959
  990MOL0     C30552   1.991  10.655   2.209  0.4709 -0.6874 -0.9207
  990MOL0     C30553   2.094  10.679   2.118  0.4233 -0.1687 -0.5138
  990MOL0     C30554   2.226  10.711   2.162 -0.4292 -0.6568 -0.4282
  990MOL0     C30555   2.254  10.715   2.296 -0.3652 -0.0347  0.0891
  990MOL0     O30556   2.382  10.732   2.323 -0.7073  1.0990 -0.5109
  990MOL0     C30557   2.415  10.871   2.355  0.2732  1.1520  0.2137
  990MOL0     C30558   2.554  10.901   2.398 -0.1021  0.2347  0.4729
  990MOL0     C30559   2.594  10.822   2.521  0.3219 -1.6757 -0.5033
  990MOL0     C30560   2.722  10.879   2.582 -0.7277 -0.2666 -0.2118
  990MOL0     C30561   2.734  10.824   2.725 -0.2990 -1.0203  0.3058
  990MOL0     C30562   2.857  10.893   2.789 -1.0197  0.4592 -0.0051
  990MOL0     C30563   2.995  10.897   2.706 -0.2438  0.0621  0.3484
  990MOL0     C30564   3.041  10.753   2.662  0.6342 -0.5270  0.1451
  990MOL0     N30565   3.149  10.765   2.570 -0.7027  0.9014  0.1236
  990MOL0     C30566   3.264  10.832   2.596 -0.5198 -0.8695 -1.0436
  990MOL0     C30567   3.327  10.813   2.481 -1.0041 -0.8588 -0.1911
  990MOL0     C30568   3.470  10.868   2.466 -0.2878  0.2350 -0.4985
  990MOL0     C30569   3.451  11.006   2.395 -1.1549  0.7373  0.1445
  990MOL0     C30570   3.583  11.051   2.325  0.3276  0.5645  1.0490
  990MOL0     C30571   3.580  10.978   2.189 -0.3654  0.1540  0.9295
  990MOL0     O30572   3.722  10.978   2.135  0.2677  0.3822 -0.8579
  990MOL0     C30573   3.741  10.939   2.004  0.5601  0.6463  0.9401
  990MOL0     C30574   3.870  10.922   1.950  0.5052  1.0148 -0.7145
  990MOL0     C30575   3.887  10.905   1.809  0.7199  0.1301  0.6790
  990MOL0     C30576   3.776  10.907   1.717  0.3974  0.3801 -0.0850
  990MOL0     C30577   3.807  10.904   1.573  0.2649 -0.2033 -0.4635
  990MOL0     O30578   3.714  10.929   1.491  0.1507  0.0331  0.5919
  990MOL0     C30579   3.740  10.951   1.355 -0.4391 -0.7118  0.0742
  990MOL0     C30580   3.621  11.001   1.289  0.6498 -0.3480 -0.0437
  990MOL0     C30581   3.630  11.031   1.152 -0.9391  0.5495 -0.2687
  990MOL0     C30582   3.751  11.032   1.076  0.6090  0.7653  0.2616
  990MOL0     O30583   3.753  11.099   0.956 -0.2175  0.3850  0.2484
  990MOL0     C30584   3.840  11.053   0.859  0.6778  0.2641  0.0216
  990MOL0     C30585   3.823  11.120   0.725 -1.0503  0.7069 -0.5463
  990MOL0     C30586   3.851  11.274   0.727  0.7931  0.7123 -0.1118
  990MOL0     C30587   3.892  11.340   0.596  0.0336  0.3961 -0.3312
  990MOL0     C30588   3.922  11.483   0.617 -0.0587 -0.2120 -0.1395
  990MOL0     C30589   3.995  11.537   0.500  0.0987  0.2621 -0.1856
  990MOL0     C30590   3.910  11.550   0.365 -0.4415  0.6599 -1.1366
  990MOL0     C30591   3.775  11.631   0.372  0.3520  0.6631  0.4930
  990MOL0    Cl30592   3.640  11.530   0.421 -0.3763 -0.6455  0.3132
  990MOL0     C30593   3.864  10.987   1.142  0.9789 -0.1981  0.0381
  990MOL0     C30594   3.861  10.938   1.273  0.2024  0.7000 -0.4179
  990MOL0     O30595   3.929  10.888   1.539  0.2573  0.8771 -0.2447
  990MOL0     C30596   3.647  10.928   1.774  0.0707  0.1370  0.5397
  990MOL0     C30597   3.626  10.935   1.908 -0.0102  1.1449 -0.1213
  990MOL0     N30598   3.260  10.739   2.394 -0.2479 -0.1420 -0.1241
  990MOL0     N30599   3.154  10.699   2.448 -0.7282  0.4847 -0.9025
  990MOL0     C30600   2.149  10.689   2.383 -0.3917 -0.7163 -0.1153
  990MOL0     C30601   2.015  10.659   2.349  0.6921 -0.9651  1.0256
  990MOL0     C30602   1.616  10.663   2.184  0.2325 -0.5782 -0.4989
  990MOL0     C30603   1.582  10.526   2.194  0.1490 -0.2633 -0.5631
  990MOL0     C30604   1.453  10.490   2.177  0.0485 -0.4387  0.2257
  990MOL0     C30605   1.352  10.576   2.142 -0.1557 -0.6743  1.0601
  990MOL0     O30606   1.227  10.530   2.137 -0.3704  0.7271 -0.4276
  990MOL0     C30607   1.108  10.609   2.155  1.3751  0.0297  1.0866
  990MOL0     C30608   1.094  10.663   2.294  0.6453 -0.1881 -1.2966
  990MOL0     C30609   0.959  10.742   2.325  0.0702 -1.1055 -0.4517
  990MOL0     C30610   0.830  10.660   2.317 -0.9237 -0.0319  0.3594
  990MOL0     C30611   0.723  10.720   2.396 -0.6369  0.1393 -0.3701
  990MOL0     C30612   0.626  10.754   2.462  0.4349  0.2586  0.0427
  990MOL0     C30613   1.386  10.709   2.122 -0.2497  0.1516  0.0389
  990MOL0     C30614   1.515  10.749   2.143 -0.0258 -0.0825 -0.3121
  990MOL0     H30615   2.070  10.673   2.012  1.5344  0.7837 -0.8468
  990MOL0     H30616   2.300  10.717   2.083 -2.1382  0.0724 -2.0324
  990MOL0     H30617   2.346  10.904   2.433 -1.5647 -0.2479 -0.7099
  990MOL0     H30618   2.413  10.923   2.259  1.8947 -0.3281 -0.6769
  990MOL0     H30619   2.559  11.008   2.422 -2.1315  0.4932 -0.1198
  990MOL0     H30620   2.612  10.858   2.316 -3.8506 -3.8036 -0.4247
  990MOL0     H30621   2.621  10.717   2.503  2.6766 -1.2574  0.2988
  990MOL0     H30622   2.519  10.829   2.600  1.0641  4.3377  0.1408
  990MOL0     H30623   2.811  10.846   2.528  0.1580 -2.2989  2.2533
  990MOL0     H30624   2.726  10.988   2.583 -1.3757 -0.2312 -0.8061
  990MOL0     H30625   2.745  10.715   2.722  3.7664 -0.7757 -2.3210
  990MOL0     H30626   2.639  10.847   2.774  0.2080  0.6664  0.5660
  990MOL0     H30627   2.873  10.850   2.888 -1.3906  0.9107  0.2588
  990MOL0     H30628   2.834  10.998   2.810  1.1130  1.0286 -0.2448
  990MOL0     H30629   2.982  10.958   2.616 -2.3909 -0.4556  0.2511
  990MOL0     H30630   3.065  10.951   2.771 -2.9514  4.5585 -0.0123
  990MOL0     H30631   2.958  10.700   2.614 -0.3358 -0.4702  1.6973
  990MOL0     H30632   3.058  10.709   2.760 -0.7261  0.0226  0.6590
  990MOL0     H30633   3.287  10.893   2.682 -0.1616  0.6419 -2.1739
  990MOL0     H30634   3.520  10.791   2.406 -1.9124 -1.4008  0.1131
  990MOL0     H30635   3.522  10.891   2.559  0.6219  3.2241 -1.6257
  990MOL0     H30636   3.408  11.068   2.474 -3.3077 -2.9823  2.2214
  990MOL0     H30637   3.365  11.003   2.327  0.6181  0.8965 -2.2152
  990MOL0     H30638   3.572  11.160   2.317  0.6210  0.4759 -1.0281
  990MOL0     H30639   3.674  11.014   2.374  2.1909  1.6242 -1.4028
  990MOL0     H30640   3.507  11.029   2.124 -2.0505 -2.5491  0.5406
  990MOL0     H30641   3.552  10.872   2.193 -0.3275  0.0779 -0.3354
  990MOL0     H30642   3.957  10.918   2.014  0.9896 -3.6207 -1.3072
  990MOL0     H30643   3.985  10.897   1.762  0.5314 -0.5759  0.3982
  990MOL0     H30644   3.525  11.018   1.338  0.7419 -0.7749  0.2885
  990MOL0     H30645   3.542  11.050   1.091 -1.0165 -1.9667 -1.0526
  990MOL0     H30646   3.817  10.947   0.847  1.5377 -0.0929  1.2731
  990MOL0     H30647   3.946  11.061   0.887  0.9093  2.2226 -1.2131
  990MOL0     H30648   3.722  11.100   0.688 -0.9022 -2.4749  0.4428
  990MOL0     H30649   3.898  11.078   0.657  0.4095  0.3751  1.1802
  990MOL0     H30650   3.933  11.302   0.795  0.9740  1.5515 -0.6675
  990MOL0     H30651   3.761  11.329   0.757  1.3919  0.3783  2.5378
  990MOL0     H30652   3.988  11.303   0.559  1.2730  2.5057  0.6398
  990MOL0     H30653   3.816  11.326   0.518 -0.3889 -0.3270  0.1923
  990MOL0     H30654   3.986  11.493   0.705 -1.8391  1.1207  1.0515
  990MOL0     H30655   3.825  11.527   0.641 -0.8151 -2.8999  2.2539
  990MOL0     H30656   4.077  11.468   0.476 -1.0817 -1.2286 -0.0900
  990MOL0     H30657   4.017  11.642   0.519 -2.2328  1.3382 -2.8638
  990MOL0     H30658   3.977  11.611   0.304 -1.4228  2.2034 -0.7307
  990MOL0     H30659   3.895  11.454   0.315 -0.3679 -0.6984  1.3028
  990MOL0     H30660   3.760  11.683   0.277 -1.2226  1.8862  1.3677
  990MOL0     H30661   3.772  11.708   0.449 -5.0034 -0.5027  1.8490
  990MOL0     H30662   3.964  10.988   1.099 -0.2108  1.1902 -2.9826
  990MOL0     H30663   3.947  10.877   1.297 -0.5464 -0.4752 -0.6356
  990MOL0     H30664   3.564  10.946   1.706 -1.4703 -2.1944  1.6990
  990MOL0     H30665   3.527  10.963   1.943 -1.9887 -2.0800 -2.6727
  990MOL0     H30666   2.167  10.716   2.487  1.1736  1.8139 -0.9664
  990MOL0     H30667   1.931  10.639   2.414 -0.4938 -0.0252 -0.1701
  990MOL0     H30668   1.660  10.451   2.201  0.0134 -0.3528  0.0390
  990MOL0     H30669   1.432  10.384   2.191 -1.9821 -0.3454 -1.6459
  990MOL0     H30670   1.014  10.558   2.135  0.2755  1.4789  2.3158
  990MOL0     H30671   1.114  10.691   2.083  2.4058 -0.8541  0.1428
  990MOL0     H30672   1.102  10.579   2.363 -2.1181  2.0753  2.1303
  990MOL0     H30673   1.178  10.725   2.326  0.2201 -0.3639  0.2245
  990MOL0     H30674   0.948  10.825   2.254  2.1285 -2.3233 -2.3416
  990MOL0     H30675   0.967  10.786   2.424 -0.1180 -4.5946  1.2511
  990MOL0     H30676   0.799  10.660   2.212 -0.4659  0.1513  0.2218
  990MOL0     H30677   0.846  10.555   2.341  0.8716 -0.1168 -0.9909
  990MOL0     H30678   0.536  10.784   2.511 -2.3298 -1.6062 -3.4324
  990MOL0     H30679   1.311  10.783   2.097 -0.7752 -0.2453  0.4090
  990MOL0     H30680   1.528  10.856   2.126  1.0019 -0.2783 -0.8180
  991MOL0     O30681   2.527   1.633   0.625 -0.1843  0.0226  0.0309
  991MOL0     C30682   2.472   1.661   0.518 -0.2195 -0.4004 -0.4483
  991MOL0     O30683   2.527   1.681   0.396  0.7996 -0.3746 -0.3817
  991MOL0     C30684   2.663   1.686   0.366  0.0221  0.6838 -0.3152
  991MOL0     C30685   2.771   1.669   0.458 -0.4313  0.2700 -0.2964
  991MOL0     C30686   2.908   1.691   0.406  0.1066  0.4394  0.0045
  991MOL0     C30687   2.947   1.745   0.289 -0.5567 -0.7780  0.4722
  991MOL0     O30688   3.072   1.778   0.238  0.5546  0.2803 -0.0718
  991MOL0     C30689   3.173   1.801   0.331 -1.1112  0.9785 -0.2767
  991MOL0     C30690   3.137   1.921   0.412 -0.1697 -0.9487 -0.2175
  991MOL0     C30691   3.163   2.049   0.332 -0.3785  0.4531  0.5360
  991MOL0     C30692   3.131   2.177   0.419  0.1816  0.6238 -0.6815
  991MOL0     C30693   3.091   2.301   0.325  0.5667 -0.8489  0.7389
  991MOL0     C30694   3.194   2.326   0.218  0.3085  0.1179 -0.2250
  991MOL0     C30695   3.164   2.436   0.115  0.8260  0.6247 -0.4790
  991MOL0     C30696   3.072   2.366   0.011 -0.2240 -0.0767  0.3676
  991MOL0     N30697   3.139   2.265  -0.064  0.9317 -0.0260 -0.2185
  991MOL0     C30698   3.085   2.164  -0.128 -0.1137 -0.2131  0.1728
  991MOL0     C30699   3.180   2.130  -0.214  0.0795  0.6287  0.3642
  991MOL0     C30700   3.169   2.026  -0.317 -1.1124  1.0352 -0.6971
  991MOL0     C30701   3.244   1.894  -0.273  0.2977 -0.2429  0.7904
  991MOL0     C30702   3.198   1.830  -0.138 -1.4033  0.4146  0.1082
  991MOL0     C30703   3.309   1.727  -0.100  1.2156  0.5916 -0.9048
  991MOL0     O30704   3.442   1.785  -0.070 -0.6280 -0.0956  0.1620
  991MOL0     C30705   3.462   1.850   0.048 -0.1940 -0.1662  0.3676
  991MOL0     C30706   3.486   1.989   0.027  0.1948 -0.0489  0.0037
  991MOL0     C30707   3.516   2.062   0.145  1.4872 -0.5416 -0.6492
  991MOL0     C30708   3.535   1.993   0.265  0.0814 -0.0977 -0.3472
  991MOL0     C30709   3.561   2.066   0.388 -0.2472 -0.3939  0.3477
  991MOL0     O30710   3.546   2.199   0.395 -0.0639  0.4096  0.7180
  991MOL0     C30711   3.581   2.262   0.508 -0.8387  0.5789 -0.1834
  991MOL0     C30712   3.486   2.328   0.581  0.2205 -0.3850  0.7430
  991MOL0     C30713   3.507   2.388   0.704 -0.2331  0.0997  0.0301
  991MOL0     C30714   3.641   2.369   0.759 -0.3230  0.1077  0.4296
  991MOL0     O30715   3.679   2.425   0.879 -0.4851  0.5983 -0.1283
  991MOL0     C30716   3.644   2.566   0.888  0.4852 -0.5310  0.8542
  991MOL0     C30717   3.714   2.651   0.995 -0.8041  0.6687  0.8711
  991MOL0     C30718   3.690   2.806   0.983  0.3818 -0.3762 -0.4391
  991MOL0     C30719   3.722   2.872   0.842 -0.5998 -0.9004 -0.3483
  991MOL0     C30720   3.765   3.023   0.864 -0.1470 -0.1327 -0.3534
  991MOL0     C30721   3.809   3.098   0.737 -0.3952  1.0394 -0.2576
  991MOL0     C30722   3.908   3.018   0.643  0.6265 -0.3171  0.7544
  991MOL0     C30723   3.947   3.100   0.516  0.7926 -0.3749  1.3360
  991MOL0    Cl30724   4.014   3.021   0.379 -0.0806 -0.0929  0.4458
  991MOL0     C30725   3.741   2.327   0.682 -0.5381 -0.4497 -0.3394
  991MOL0     C30726   3.714   2.255   0.555 -0.2380 -0.2250 -0.5418
  991MOL0     O30727   3.597   1.995   0.483  0.0348  0.7664  0.3532
  991MOL0     C30728   3.518   1.847   0.272 -0.5781 -0.1539  0.4770
  991MOL0     C30729   3.485   1.772   0.156  0.3051  0.3342 -0.0052
  991MOL0     N30730   3.292   2.206  -0.199  0.9228 -0.1170 -0.2636
  991MOL0     N30731   3.259   2.286  -0.110 -0.1247  0.8279  0.7819
  991MOL0     C30732   2.832   1.755   0.196  0.3115  0.2068  0.0608
  991MOL0     C30733   2.699   1.724   0.230  0.2146 -0.2308 -1.0834
  991MOL0     C30734   2.319   1.651   0.536  0.2181 -0.7179 -0.2357
  991MOL0     C30735   2.263   1.668   0.656  0.2023 -0.8647 -1.0946
  991MOL0     C30736   2.130   1.667   0.673  0.1674  0.1419 -0.4039
  991MOL0     C30737   2.049   1.642   0.561  0.0067 -0.3220 -0.4789
  991MOL0     O30738   1.919   1.655   0.588  0.6042  0.5017 -0.0860
  991MOL0     C30739   1.874   1.794   0.579 -0.3157 -0.0468  0.4390
  991MOL0     C30740   1.723   1.786   0.566  1.0479  0.0631 -0.0150
  991MOL0     C30741   1.670   1.931   0.528  0.1370  0.2957  0.1946
  991MOL0     C30742   1.515   1.925   0.499 -0.1437 -0.3274 -0.7760
  991MOL0     C30743   1.483   2.053   0.450  0.5599  0.1612  0.1393
  991MOL0     C30744   1.458   2.164   0.395  0.3299  0.7488 -0.5825
  991MOL0     C30745   2.095   1.617   0.437  0.0488  0.0690  0.4827
  991MOL0     C30746   2.236   1.619   0.428 -1.0336  1.1653 -0.5864
  991MOL0     H30747   2.762   1.618   0.553  0.2216  0.9052  0.1111
  991MOL0     H30748   2.978   1.667   0.486  0.9637  2.1099 -0.2054
  991MOL0     H30749   3.263   1.825   0.274  0.4502  2.4874  2.6161
  991MOL0     H30750   3.185   1.704   0.380 -0.7105  0.6546 -0.9929
  991MOL0     H30751   3.208   1.934   0.494 -0.8014  0.2594  0.1566
  991MOL0     H30752   3.032   1.919   0.442 -0.5914  0.6108 -1.4355
  991MOL0     H30753   3.100   2.031   0.244  0.1898  2.4111 -0.3343
  991MOL0     H30754   3.269   2.042   0.305 -0.2315  2.2591  0.5109
  991MOL0     H30755   3.042   2.162   0.481  2.5068  3.0830  3.7938
  991MOL0     H30756   3.215   2.200   0.485 -0.6655 -0.9963  1.0391
  991MOL0     H30757   3.074   2.391   0.385 -0.1712 -0.2027 -0.4096
  991MOL0     H30758   2.995   2.274   0.280  0.4478  0.3743  0.2308
  991MOL0     H30759   3.226   2.235   0.166  1.9890  1.2914 -1.3436
  991MOL0     H30760   3.280   2.369   0.269 -0.4629  1.3368  0.0886
  991MOL0     H30761   3.105   2.514   0.165  3.0156  1.6881  0.6089
  991MOL0     H30762   3.244   2.493   0.067 -2.0792  2.7512 -3.2476
  991MOL0     H30763   3.032   2.447  -0.051 -1.4965  1.5784  3.1461
  991MOL0     H30764   2.982   2.321   0.055 -3.3594  3.2358 -1.9965
  991MOL0     H30765   2.981   2.132  -0.133  0.6150 -2.7014 -1.0460
  991MOL0     H30766   3.225   2.061  -0.404  1.8567  1.2436  1.1230
  991MOL0     H30767   3.068   1.988  -0.334  0.1615 -2.2668 -1.6281
  991MOL0     H30768   3.349   1.916  -0.250 -0.3014  0.1015  3.5658
  991MOL0     H30769   3.237   1.823  -0.355  1.9589 -1.1765  1.4023
  991MOL0     H30770   3.189   1.899  -0.053 -2.6228  0.9914 -0.4635
  991MOL0     H30771   3.100   1.787  -0.157 -2.5293  2.4899  0.8868
  991MOL0     H30772   3.321   1.662  -0.188 -2.3898 -0.0313 -1.0920
  991MOL0     H30773   3.273   1.664  -0.018 -0.3133  0.3438 -1.7305
  991MOL0     H30774   3.475   2.031  -0.072  0.5014  2.6705  1.0465
  991MOL0     H30775   3.510   2.170   0.149  0.4453 -0.6032  2.3320
  991MOL0     H30776   3.385   2.339   0.542  0.9587  0.5354 -1.0457
  991MOL0     H30777   3.432   2.444   0.761 -0.3731 -0.2074  0.1490
  991MOL0     H30778   3.536   2.582   0.887  0.6402  0.6021  0.6131
  991MOL0     H30779   3.663   2.618   0.794 -1.3896  0.3561  0.9055
  991MOL0     H30780   3.821   2.627   0.983 -1.4334 -1.4797 -1.4762
  991MOL0     H30781   3.699   2.611   1.095  1.4162 -0.7054  0.7414
  991MOL0     H30782   3.761   2.841   1.058  1.4155 -0.1964 -1.4718
  991MOL0     H30783   3.591   2.837   1.019  1.1468  2.8974 -0.8506
  991MOL0     H30784   3.811   2.827   0.796  0.9611  1.8733 -0.2673
  991MOL0     H30785   3.637   2.857   0.776 -1.6924  1.1835  0.5224
  991MOL0     H30786   3.845   3.009   0.937  1.7724 -1.8913 -2.6529
  991MOL0     H30787   3.692   3.087   0.916  0.2249  0.6189 -0.7460
  991MOL0     H30788   3.869   3.184   0.771  0.4995  1.3623 -2.4460
  991MOL0     H30789   3.728   3.127   0.670 -0.8340 -0.0830 -0.2305
  991MOL0     H30790   4.002   2.999   0.695  0.6269  0.2701  0.9685
  991MOL0     H30791   3.862   2.922   0.615 -0.5178  0.6301 -0.7675
  991MOL0     H30792   4.018   3.179   0.544  0.7550  0.4202 -0.6781
  991MOL0     H30793   3.857   3.149   0.479  2.6235  1.2516 -1.3239
  991MOL0     H30794   3.845   2.326   0.714 -0.1143 -3.0041 -1.5259
  991MOL0     H30795   3.788   2.196   0.502 -0.1560  1.0455 -1.9080
  991MOL0     H30796   3.526   1.787   0.363  0.6417 -2.7917 -1.2554
  991MOL0     H30797   3.471   1.664   0.151 -0.2853  0.4366 -3.5822
  991MOL0     H30798   2.864   1.779   0.095  1.2536 -0.8998  0.0903
  991MOL0     H30799   2.619   1.736   0.158 -0.9447  1.2521  0.3868
  991MOL0     H30800   2.316   1.692   0.748 -1.6646  0.7526 -0.3439
  991MOL0     H30801   2.083   1.680   0.770 -2.0961 -2.3512 -1.0379
  991MOL0     H30802   1.905   1.835   0.482 -0.3836  1.0417  0.8640
  991MOL0     H30803   1.914   1.849   0.664  0.5705 -0.6147  0.4027
  991MOL0     H30804   1.697   1.718   0.485 -1.2974  0.2921  0.4803
  991MOL0     H30805   1.663   1.743   0.647 -2.4624  0.6366 -2.1109
  991MOL0     H30806   1.720   1.975   0.441  2.0124  2.3236  2.1515
  991MOL0     H30807   1.693   1.994   0.615  0.3437  0.0860  0.2921
  991MOL0     H30808   1.479   1.845   0.434  1.2817 -1.2409 -0.4866
  991MOL0     H30809   1.472   1.917   0.599  0.1104 -0.3515 -0.6682
  991MOL0     H30810   1.428   2.258   0.355  0.6626  1.6213  1.1129
  991MOL0     H30811   2.038   1.595   0.348  1.3962 -2.8467  0.2134
  991MOL0     H30812   2.267   1.579   0.331 -1.9673  2.3359 -1.3942
  992MOL0     O30813   4.722   8.908   4.121 -0.8135 -0.0075 -0.4239
  992MOL0     C30814   4.612   8.908   4.163  0.6492  0.3687 -0.1632
  992MOL0     O30815   4.575   8.932   4.292  0.1762 -0.3222  0.1841
  992MOL0     C30816   4.666   8.997   4.375 -0.2721 -0.6216  1.2391
  992MOL0     C30817   4.745   8.931   4.462 -0.2806 -0.3213 -0.1816
  992MOL0     C30818   4.829   8.993   4.557 -0.4640 -0.9158 -0.4289
  992MOL0     C30819   4.833   9.134   4.547  0.1509 -0.3388 -0.0894
  992MOL0     O30820   4.908   9.202   4.649 -0.4273 -0.2606  0.7036
  992MOL0     C30821   5.049   9.185   4.641 -0.8585 -0.3428 -0.0309
  992MOL0     C30822   5.116   9.278   4.742  0.1287  0.1532 -0.0144
  992MOL0     C30823   5.107   9.426   4.706 -0.5482 -0.1323  0.0627
  992MOL0     C30824   5.178   9.443   4.571  0.1948  0.3571 -1.2528
  992MOL0     C30825   5.200   9.595   4.537 -0.7619  0.1688  0.2598
  992MOL0     C30826   5.082   9.692   4.556 -1.2371 -0.0133  0.3405
  992MOL0     C30827   4.963   9.648   4.474  0.5624  0.1991 -0.6011
  992MOL0     C30828   4.836   9.727   4.506 -0.2209 -0.0111  0.4637
  992MOL0     N30829   4.779   9.683   4.630  0.3154  0.6039 -0.5013
  992MOL0     C30830   4.740   9.554   4.650  0.1755 -0.3338  1.0345
  992MOL0     C30831   4.643   9.564   4.743 -0.1632 -0.0163  1.4293
  992MOL0     C30832   4.588   9.438   4.810 -0.5759 -0.2375 -0.4980
  992MOL0     C30833   4.449   9.452   4.864 -0.2877 -0.1668 -0.8406
  992MOL0     C30834   4.349   9.469   4.745 -0.2374  0.0591  0.2683
  992MOL0     C30835   4.341   9.365   4.640  0.0935 -0.3385  0.2704
  992MOL0     O30836   4.222   9.396   4.559  0.3492  0.7577  0.4654
  992MOL0     C30837   4.212   9.347   4.432  0.2245  0.3778 -0.2566
  992MOL0     C30838   4.116   9.406   4.350  1.0024 -0.6816 -0.2518
  992MOL0     C30839   4.108   9.375   4.213 -0.6891  0.1873  0.8797
  992MOL0     C30840   4.191   9.276   4.158  1.1706 -0.5552 -0.8039
  992MOL0     C30841   4.194   9.259   4.013 -0.2041 -0.2002  0.5628
  992MOL0     O30842   4.130   9.357   3.945  0.3632  0.4284  0.3124
  992MOL0     C30843   4.113   9.347   3.808  0.4039 -0.4950  0.1886
  992MOL0     C30844   3.994   9.408   3.755  0.1844  0.9482 -0.0706
  992MOL0     C30845   3.970   9.413   3.619 -0.6170 -0.2859  0.3012
  992MOL0     C30846   4.067   9.367   3.527 -0.2388 -0.2300  0.1984
  992MOL0     O30847   4.026   9.390   3.395 -0.5212 -0.3100 -0.0550
  992MOL0     C30848   4.113   9.322   3.300  0.7850  0.1126 -0.8137
  992MOL0     C30849   4.089   9.373   3.155  0.5142 -0.6672 -0.3799
  992MOL0     C30850   4.078   9.520   3.144 -0.6351 -1.2221  0.5729
  992MOL0     C30851   4.040   9.556   2.995  1.0088  0.7962 -0.8855
  992MOL0     C30852   4.070   9.695   2.940 -0.6610 -0.0273 -1.8701
  992MOL0     C30853   4.011   9.727   2.806 -0.1233  0.1968 -1.1973
  992MOL0     C30854   4.070   9.863   2.762 -0.0676  0.2315 -0.4305
  992MOL0     C30855   3.993   9.909   2.639 -0.2600 -0.0872  0.5612
  992MOL0    Cl30856   4.022   9.801   2.511 -0.0579 -0.3385 -0.6056
  992MOL0     C30857   4.186   9.305   3.579  1.0705  0.0889 -0.3753
  992MOL0     C30858   4.209   9.295   3.720  0.3967  0.4639  0.7142
  992MOL0     O30859   4.235   9.152   3.971 -0.3954 -0.1246  1.2521
  992MOL0     C30860   4.290   9.220   4.241  0.2421  0.6620 -0.2894
  992MOL0     C30861   4.298   9.251   4.377 -0.3203 -0.4053  0.1295
  992MOL0     N30862   4.625   9.695   4.779 -0.1709  0.6212 -0.9881
  992MOL0     N30863   4.716   9.764   4.714  0.3674 -0.7390  0.3856
  992MOL0     C30864   4.752   9.207   4.456  0.1473  0.1263  0.3247
  992MOL0     C30865   4.667   9.134   4.370 -0.9524 -0.1211  0.0287
  992MOL0     C30866   4.518   8.840   4.067 -0.8039  0.2917  0.3898
  992MOL0     C30867   4.387   8.867   4.060 -0.0078 -0.0398  0.0346
  992MOL0     C30868   4.295   8.812   3.972 -0.7271 -0.1507 -0.6953
  992MOL0     C30869   4.348   8.711   3.885 -1.0863  1.2217  0.2109
  992MOL0     O30870   4.246   8.669   3.800 -0.1999  1.0273  0.2873
  992MOL0     C30871   4.279   8.576   3.702  0.4458 -0.2012 -1.0157
  992MOL0     C30872   4.148   8.553   3.622  0.0011 -0.1627  0.3181
  992MOL0     C30873   4.150   8.418   3.539 -0.4439  0.6060 -0.1460
  992MOL0     C30874   4.007   8.393   3.486  0.5681 -0.3939 -0.1617
  992MOL0     C30875   3.999   8.245   3.446  0.5961 -1.2088  0.5934
  992MOL0     C30876   4.008   8.124   3.451  0.2346 -0.6209 -0.3523
  992MOL0     C30877   4.485   8.668   3.896  0.4611 -0.3089  0.6154
  992MOL0     C30878   4.571   8.735   3.980  0.9565 -0.9195 -0.3688
  992MOL0     H30879   4.748   8.823   4.469  0.4649 -0.4316 -1.8091
  992MOL0     H30880   4.900   8.947   4.624  0.1742  0.7895  0.1270
  992MOL0     H30881   5.084   9.211   4.541 -1.5175 -0.7055 -0.3596
  992MOL0     H30882   5.075   9.082   4.667 -2.2009 -0.9506 -1.0112
  992MOL0     H30883   5.220   9.245   4.748  0.9118  2.1746 -1.4925
  992MOL0     H30884   5.059   9.265   4.834 -0.6678  0.4342 -0.4632
  992MOL0     H30885   5.165   9.473   4.786 -1.0066 -0.2995  0.4972
  992MOL0     H30886   5.007   9.468   4.700 -0.5410 -0.2592 -1.2826
  992MOL0     H30887   5.275   9.392   4.570  0.4585  0.8050 -0.1833
  992MOL0     H30888   5.115   9.408   4.490 -2.6090  3.4885 -0.6217
  992MOL0     H30889   5.233   9.603   4.433 -0.1545 -0.8328  0.3544
  992MOL0     H30890   5.283   9.628   4.600  0.3387 -2.0172  0.0648
  992MOL0     H30891   5.100   9.793   4.520 -1.7055  0.0274  0.2229
  992MOL0     H30892   5.065   9.689   4.664  1.7803  0.0760  0.9282
  992MOL0     H30893   4.978   9.656   4.366 -2.1048  0.1083 -1.0453
  992MOL0     H30894   4.950   9.540   4.487 -0.7826 -0.2443 -4.4658
  992MOL0     H30895   4.758   9.703   4.432 -0.3288 -1.0707  0.9033
  992MOL0     H30896   4.856   9.834   4.510  1.6462 -0.3849  2.4939
  992MOL0     H30897   4.785   9.466   4.605 -0.1057  0.3013 -0.5740
  992MOL0     H30898   4.652   9.404   4.892  0.7619 -1.9616 -2.1745
  992MOL0     H30899   4.593   9.352   4.744 -0.8420  0.1669 -1.0529
  992MOL0     H30900   4.431   9.525   4.944 -1.2405  0.7470 -1.8589
  992MOL0     H30901   4.443   9.360   4.924 -0.6827  1.2054  1.3464
  992MOL0     H30902   4.250   9.472   4.791 -0.5370 -0.0701 -0.3595
  992MOL0     H30903   4.376   9.566   4.701  1.5484 -0.2638  0.5504
  992MOL0     H30904   4.333   9.264   4.681  2.7812 -2.3659 -3.5218
  992MOL0     H30905   4.433   9.374   4.582  0.2999  4.7055  0.9719
  992MOL0     H30906   4.059   9.481   4.404  1.1482 -0.3737 -0.5244
  992MOL0     H30907   4.044   9.433   4.147  0.3216  0.8401  0.4416
  992MOL0     H30908   3.941   9.465   3.831 -0.5337 -2.2961  2.0661
  992MOL0     H30909   3.896   9.482   3.582 -0.0363  1.2104  1.7989
  992MOL0     H30910   4.145   9.218   3.310  3.7578  0.7927 -2.2174
  992MOL0     H30911   4.209   9.363   3.331  0.7478  0.8398 -1.6462
  992MOL0     H30912   3.991   9.334   3.126 -0.8408  1.9845  0.3133
  992MOL0     H30913   4.167   9.331   3.091  0.1806 -5.9871  2.1610
  992MOL0     H30914   4.176   9.567   3.157 -0.3679 -1.1891 -1.2263
  992MOL0     H30915   4.018   9.559   3.227  0.1397 -0.6165  0.8624
  992MOL0     H30916   4.067   9.492   2.909 -2.5976  1.8283 -2.9892
  992MOL0     H30917   3.933   9.536   2.991  0.8919  1.4328 -0.9239
  992MOL0     H30918   4.177   9.688   2.921  0.0949  2.7664  0.6173
  992MOL0     H30919   4.036   9.760   3.021  0.4984 -1.9845  0.3310
  992MOL0     H30920   3.902   9.733   2.816  0.0281 -1.0650  2.8601
  992MOL0     H30921   4.045   9.651   2.734  0.5673  0.6231 -1.3239
  992MOL0     H30922   4.064   9.932   2.846  0.5252  1.7676 -1.6028
  992MOL0     H30923   4.176   9.862   2.735  0.5334 -1.2362  1.7168
  992MOL0     H30924   4.037  10.001   2.601  1.9777 -1.2469  0.1741
  992MOL0     H30925   3.887   9.926   2.662  0.0890  0.4045  1.8371
  992MOL0     H30926   4.261   9.268   3.510  0.0899  0.2784 -1.5799
  992MOL0     H30927   4.306   9.250   3.739 -0.3470 -2.6460 -1.8844
  992MOL0     H30928   4.353   9.145   4.194 -1.2438 -1.1454  0.4632
  992MOL0     H30929   4.368   9.199   4.442 -1.0485 -0.2088  1.1012
  992MOL0     H30930   4.760   9.315   4.463  0.4958  0.1130  0.1471
  992MOL0     H30931   4.598   9.185   4.303 -3.3482 -2.6450  0.4099
  992MOL0     H30932   4.350   8.947   4.123 -0.1028 -0.2847  0.2961
  992MOL0     H30933   4.196   8.857   3.983 -0.7004 -0.7423  4.4009
  992MOL0     H30934   4.322   8.482   3.736 -0.2472 -0.3262 -0.4510
  992MOL0     H30935   4.359   8.622   3.644  1.9236  0.5213  1.4260
  992MOL0     H30936   4.056   8.557   3.680 -1.0089 -3.5355 -0.8534
  992MOL0     H30937   4.144   8.628   3.542  1.9530 -1.5931 -1.2296
  992MOL0     H30938   4.180   8.334   3.602 -0.6057  1.6757  1.4156
  992MOL0     H30939   4.210   8.424   3.448 -2.2187  1.4486 -1.3251
  992MOL0     H30940   3.935   8.422   3.563  1.0556  1.7139 -0.4512
  992MOL0     H30941   3.991   8.459   3.400  1.9356  2.9820  1.9394
  992MOL0     H30942   4.025   8.019   3.448  2.0856 -0.3375 -1.5977
  992MOL0     H30943   4.516   8.589   3.828 -2.9078  0.4503 -2.0934
  992MOL0     H30944   4.669   8.690   3.992  0.2089 -3.2902 -2.2665
  993MOL0     O30945   1.801   3.141   3.843  0.2229  0.2210 -0.7240
  993MOL0     C30946   1.861   3.246   3.868  0.3965  0.9511  0.2041
  993MOL0     O30947   2.005   3.255   3.881  0.5110  0.5474  0.1309
  993MOL0     C30948   2.095   3.141   3.876  0.4235 -0.2989  0.0295
  993MOL0     C30949   2.077   3.020   3.811 -0.0769  0.2979  0.4612
  993MOL0     C30950   2.176   2.924   3.812  0.6180  0.5430 -1.0805
  993MOL0     C30951   2.290   2.940   3.893  1.1393 -0.0814  0.6951
  993MOL0     O30952   2.385   2.840   3.916 -0.1190  0.5819  0.4003
  993MOL0     C30953   2.365   2.711   3.864 -0.6844  0.4948 -0.3579
  993MOL0     C30954   2.479   2.621   3.911  0.4134  0.2405 -0.3890
  993MOL0     C30955   2.594   2.643   3.818 -0.4042  0.4844 -0.1501
  993MOL0     C30956   2.710   2.561   3.870  0.0542  0.0873  0.4482
  993MOL0     C30957   2.828   2.582   3.766 -0.2514  0.5870  0.7742
  993MOL0     C30958   2.957   2.508   3.790  0.0047 -0.0170  0.6750
  993MOL0     C30959   3.057   2.514   3.673  0.8716 -0.0790 -0.8613
  993MOL0     C30960   3.145   2.399   3.664  0.2471  0.2098 -0.0116
  993MOL0     N30961   3.213   2.351   3.791  0.0481 -0.2144  0.1359
  993MOL0     C30962   3.286   2.448   3.866  0.4226  0.6868 -0.9565
  993MOL0     C30963   3.334   2.378   3.967 -1.3417  1.0552 -0.1206
  993MOL0     C30964   3.420   2.424   4.084 -0.5549 -0.1888  0.4981
  993MOL0     C30965   3.338   2.484   4.204 -0.7798 -0.2667 -0.2485
  993MOL0     C30966   3.231   2.393   4.270 -0.2797  0.3915 -0.1780
  993MOL0     C30967   3.134   2.489   4.363 -0.4755  1.1125 -0.1536
  993MOL0     O30968   3.041   2.396   4.419 -0.4716 -0.8387  0.2560
  993MOL0     C30969   2.915   2.441   4.417  0.2575 -0.1016  1.3002
  993MOL0     C30970   2.859   2.504   4.526 -0.6464  0.5630  0.0467
  993MOL0     C30971   2.726   2.539   4.516  0.3323 -0.1760 -0.2830
  993MOL0     C30972   2.642   2.524   4.411 -0.2328  0.9087 -0.3268
  993MOL0     C30973   2.508   2.590   4.398  0.0962 -0.8488  1.1905
  993MOL0     O30974   2.428   2.558   4.298 -0.2067 -0.5191 -0.9003
  993MOL0     C30975   2.298   2.603   4.307  0.7323 -0.0550 -0.3448
  993MOL0     C30976   2.207   2.566   4.402  0.5693  0.1283 -0.9023
  993MOL0     C30977   2.083   2.633   4.405  0.0451 -0.1755  0.4285
  993MOL0     C30978   2.060   2.755   4.326 -0.1098 -0.3212  1.2156
  993MOL0     O30979   1.942   2.820   4.334 -0.4830  0.4209 -0.2905
  993MOL0     C30980   1.909   2.909   4.224  0.6137  0.0793 -0.2406
  993MOL0     C30981   1.972   3.056   4.246 -0.0363  0.0385 -0.0946
  993MOL0     C30982   1.888   3.134   4.352  0.5796 -0.3547  0.2290
  993MOL0     C30983   1.956   3.277   4.377  1.2377 -0.9033 -1.7151
  993MOL0     C30984   1.869   3.371   4.462  0.5961  0.0024  0.0737
  993MOL0     C30985   1.899   3.521   4.437  0.0937 -0.6615  0.8986
  993MOL0     C30986   2.047   3.560   4.481  0.7293 -0.3238 -0.0364
  993MOL0     C30987   2.042   3.664   4.591 -0.3843 -0.2343  0.4322
  993MOL0    Cl30988   1.985   3.617   4.749  0.1027  0.6185 -0.0033
  993MOL0     C30989   2.164   2.790   4.236  0.5958  0.2325  0.9311
  993MOL0     C30990   2.286   2.715   4.230  0.1145  0.1711 -0.4314
  993MOL0     O30991   2.485   2.678   4.482  0.1059 -0.3699  0.1564
  993MOL0     C30992   2.700   2.449   4.304  0.3970 -0.1652 -1.0110
  993MOL0     C30993   2.837   2.421   4.305  0.5450 -0.4353 -0.1966
  993MOL0     N30994   3.294   2.233   3.948  0.4736 -0.1475 -0.4193
  993MOL0     N30995   3.217   2.228   3.840 -0.3510  0.4193 -0.3241
  993MOL0     C30996   2.305   3.061   3.957 -0.4565 -0.1682 -0.3863
  993MOL0     C30997   2.215   3.161   3.948  0.8975 -0.3784  0.6836
  993MOL0     C30998   1.783   3.369   3.896 -0.3303 -1.0048  0.3266
  993MOL0     C30999   1.645   3.367   3.872 -0.3042 -0.3966 -0.1862
  993MOL0     C31000   1.571   3.481   3.900 -0.7048 -0.5346 -0.5052
  993MOL0     C31001   1.625   3.579   3.992  0.9422  0.4570 -0.9545
  993MOL0     O31002   1.536   3.674   4.039  0.4837  0.7383  0.2700
  993MOL0     C31003   1.581   3.774   4.120 -0.1550 -0.7863 -0.2396
  993MOL0     C31004   1.475   3.879   4.165  0.7001  0.3737  0.6304
  993MOL0     C31005   1.349   3.821   4.230 -0.4403 -0.5409  0.0433
  993MOL0     C31006   1.303   3.907   4.352 -0.9526  0.6378 -0.4258
  993MOL0     C31007   1.178   3.857   4.400  0.6312  0.2776  0.1995
  993MOL0     C31008   1.075   3.804   4.435  0.3243  0.2155 -0.3645
  993MOL0     C31009   1.762   3.574   4.020  0.4859 -0.2459  0.6096
  993MOL0     C31010   1.841   3.469   3.973  0.0092 -0.4349  0.0961
  993MOL0     H31011   1.995   2.983   3.751  0.3985  0.2225 -0.1492
  993MOL0     H31012   2.156   2.827   3.767 -3.1138 -0.2681  1.7674
  993MOL0     H31013   2.344   2.690   3.759  4.1144 -4.0201 -0.8504
  993MOL0     H31014   2.278   2.670   3.917 -0.5325 -0.2682 -0.6950
  993MOL0     H31015   2.452   2.516   3.919  1.8613 -0.0301  1.8625
  993MOL0     H31016   2.520   2.666   4.002 -0.8946 -1.1597  0.9431
  993MOL0     H31017   2.612   2.750   3.809  0.0905  0.3095 -1.6038
  993MOL0     H31018   2.567   2.605   3.718 -3.1578 -0.4674  0.8504
  993MOL0     H31019   2.726   2.595   3.972  1.5120  0.5304  0.1023
  993MOL0     H31020   2.674   2.459   3.887  3.8712 -1.4906  0.1252
  993MOL0     H31021   2.838   2.691   3.765 -2.1342  0.8910  3.4345
  993MOL0     H31022   2.791   2.561   3.665  0.8489  2.7532 -0.1495
  993MOL0     H31023   2.931   2.403   3.810 -3.2272  0.0617 -2.1746
  993MOL0     H31024   3.003   2.548   3.881  0.4546  1.8691 -0.3342
  993MOL0     H31025   2.998   2.512   3.581 -0.4441 -1.0292 -0.0345
  993MOL0     H31026   3.117   2.605   3.684 -0.2030  0.3993  1.7784
  993MOL0     H31027   3.226   2.423   3.594 -1.4440  1.4621 -1.6233
  993MOL0     H31028   3.085   2.318   3.620 -3.6618  3.4274 -1.1705
  993MOL0     H31029   3.304   2.554   3.855 -0.5189  0.8803 -0.7805
  993MOL0     H31030   3.487   2.502   4.050 -0.3076  0.2631  1.9688
  993MOL0     H31031   3.477   2.337   4.117 -1.3672 -0.0322  2.4185
  993MOL0     H31032   3.287   2.573   4.166 -0.0242  0.8928  1.3385
  993MOL0     H31033   3.409   2.519   4.280 -1.2781  4.0192 -1.4810
  993MOL0     H31034   3.174   2.332   4.200 -1.0474 -1.8698  2.2761
  993MOL0     H31035   3.280   2.331   4.346  1.5242  3.1321  1.0495
  993MOL0     H31036   3.076   2.563   4.307 -2.4821  0.2900  0.7297
  993MOL0     H31037   3.202   2.530   4.438  0.6474  1.2697 -1.2116
  993MOL0     H31038   2.926   2.531   4.607 -0.3145  2.6705 -0.8670
  993MOL0     H31039   2.685   2.598   4.598 -0.0006  0.4009 -0.8495
  993MOL0     H31040   2.226   2.470   4.449  0.9433 -0.2134 -1.7227
  993MOL0     H31041   2.011   2.612   4.483  0.8319  0.2373  1.2733
  993MOL0     H31042   1.801   2.918   4.206  0.4234 -0.6746  0.4707
  993MOL0     H31043   1.934   2.871   4.125  0.1982 -0.4273 -0.1574
  993MOL0     H31044   1.977   3.105   4.148  1.8578 -1.4934 -0.8116
  993MOL0     H31045   2.071   3.038   4.289 -0.4632  4.1669  3.3827
  993MOL0     H31046   1.880   3.082   4.448 -1.1797  0.9241  0.8422
  993MOL0     H31047   1.786   3.149   4.315 -0.3340 -3.4790  1.1563
  993MOL0     H31048   2.055   3.264   4.421  1.3770  2.9473 -0.6028
  993MOL0     H31049   1.963   3.332   4.284 -0.8966  0.9494 -0.8603
  993MOL0     H31050   1.875   3.347   4.569 -1.5775  1.1607  0.5097
  993MOL0     H31051   1.769   3.343   4.428 -0.2263  0.6081  1.8834
  993MOL0     H31052   1.825   3.586   4.487  0.4441 -0.6462  1.4056
  993MOL0     H31053   1.876   3.551   4.335 -1.3946 -2.7124  0.5784
  993MOL0     H31054   2.106   3.470   4.502  1.0043 -0.9528 -3.0304
  993MOL0     H31055   2.092   3.605   4.391 -3.2562 -3.2846 -3.9692
  993MOL0     H31056   1.977   3.744   4.554  1.3430  1.0333  0.0404
  993MOL0     H31057   2.136   3.718   4.606 -1.5993  2.0186  0.3411
  993MOL0     H31058   2.154   2.875   4.170 -0.3516 -1.4003 -1.1678
  993MOL0     H31059   2.374   2.760   4.184 -0.7334  2.6307  0.2015
  993MOL0     H31060   2.652   2.445   4.207  0.4822 -0.5311 -1.0393
  993MOL0     H31061   2.890   2.393   4.214 -0.3709 -0.6383 -0.6807
  993MOL0     H31062   2.390   3.061   4.024 -0.7797 -1.6816  0.0678
  993MOL0     H31063   2.231   3.251   4.007 -0.0024 -0.1886  0.6420
  993MOL0     H31064   1.592   3.283   3.829 -3.3100 -0.4396  3.1234
  993MOL0     H31065   1.465   3.491   3.877 -0.7222 -2.1770 -1.2730
  993MOL0     H31066   1.662   3.833   4.075 -0.9782  0.7465  0.2154
  993MOL0     H31067   1.629   3.725   4.205 -0.8520  1.9932  1.9085
  993MOL0     H31068   1.538   3.944   4.227  0.5496  0.9571  0.1837
  993MOL0     H31069   1.431   3.943   4.088 -2.5948 -2.5278 -0.1595
  993MOL0     H31070   1.357   3.719   4.268 -3.8936 -0.3894  1.5861
  993MOL0     H31071   1.276   3.828   4.148  0.3896 -1.2094 -0.7731
  993MOL0     H31072   1.381   3.898   4.428 -1.6907 -0.0882  0.2553
  993MOL0     H31073   1.309   4.013   4.324  0.5206  0.4945 -0.7046
  993MOL0     H31074   0.991   3.744   4.463 -1.2506  1.4273 -2.2234
  993MOL0     H31075   1.809   3.646   4.087  1.8660  0.4491 -1.0177
  993MOL0     H31076   1.947   3.472   3.996  0.0925  0.9769 -0.4148
  994MOL0     O31077   9.796   4.560   4.420 -0.5003 -0.0840  0.1039
  994MOL0     C31078   9.840   4.542   4.303 -0.3593  0.1353 -0.0307
  994MOL0     O31079   9.791   4.453   4.216  0.0505 -0.5622  0.6417
  994MOL0     C31080   9.665   4.395   4.227 -0.0063 -0.0637 -1.1658
  994MOL0     C31081   9.609   4.352   4.343 -0.6707  0.0594  0.5253
  994MOL0     C31082   9.479   4.298   4.347 -0.9005 -0.7895  0.3485
  994MOL0     C31083   9.405   4.282   4.224  0.0785  0.0057 -0.5214
  994MOL0     O31084   9.277   4.229   4.245 -0.3844 -0.8754 -0.2872
  994MOL0     C31085   9.206   4.160   4.148  0.0584 -0.1623  0.2302
  994MOL0     C31086   9.079   4.101   4.213  1.0323  0.3201  0.0812
  994MOL0     C31087   8.972   4.195   4.271 -0.1163 -0.4031  0.4850
  994MOL0     C31088   8.956   4.323   4.175  0.0542  0.3580  0.3463
  994MOL0     C31089   8.896   4.450   4.243 -0.5164 -0.4179  0.6510
  994MOL0     C31090   8.906   4.568   4.157 -0.5512 -0.6351 -0.1320
  994MOL0     C31091   9.001   4.663   4.235  0.1918 -0.4888 -0.0414
  994MOL0     C31092   8.942   4.714   4.376 -0.5560 -0.0149  0.4717
  994MOL0     N31093   8.801   4.751   4.378 -0.3060  0.0795 -0.1214
  994MOL0     C31094   8.732   4.862   4.322  0.2291  0.7153  0.1048
  994MOL0     C31095   8.600   4.815   4.321  1.4053 -0.7778 -0.9135
  994MOL0     C31096   8.483   4.903   4.257  0.0871  0.8722 -0.4041
  994MOL0     C31097   8.371   4.799   4.232  0.2160 -0.7241 -0.7668
  994MOL0     C31098   8.392   4.734   4.096  0.2333  0.1262  1.2500
  994MOL0     C31099   8.399   4.837   3.976 -0.2384  0.2531 -1.0128
  994MOL0     O31100   8.364   4.769   3.859 -0.4046  0.3706 -0.3430
  994MOL0     C31101   8.306   4.825   3.750 -0.6054  0.0991 -0.4787
  994MOL0     C31102   8.281   4.963   3.744 -0.3937 -0.2208 -0.9705
  994MOL0     C31103   8.240   5.031   3.626  0.5960 -0.3859  0.3684
  994MOL0     C31104   8.221   4.950   3.513  0.0620 -0.1327 -0.1674
  994MOL0     C31105   8.181   5.004   3.390 -0.5978 -0.5467  1.1146
  994MOL0     O31106   8.219   4.936   3.286  0.3946  0.3325  0.6712
  994MOL0     C31107   8.191   4.960   3.153 -0.8163  0.0115 -0.8272
  994MOL0     C31108   8.210   4.862   3.056 -0.7224 -0.1818  0.6013
  994MOL0     C31109   8.210   4.874   2.916 -0.4293  0.0954  0.7493
  994MOL0     C31110   8.157   4.991   2.868  0.3033 -0.4489  0.5077
  994MOL0     O31111   8.150   5.023   2.731  0.4013 -0.4362  0.4741
  994MOL0     C31112   8.246   4.979   2.634 -0.1336 -0.4543  0.0007
  994MOL0     C31113   8.371   5.061   2.653  0.4782 -0.3316 -0.0500
  994MOL0     C31114   8.488   5.025   2.555 -0.6682 -0.7121  0.3185
  994MOL0     C31115   8.480   5.082   2.409  0.1578 -0.1432  0.6186
  994MOL0     C31116   8.558   4.995   2.309  0.4339 -0.1968 -0.5813
  994MOL0     C31117   8.593   5.056   2.175  0.6691  0.7291  0.4753
  994MOL0     C31118   8.707   5.154   2.173  0.1133 -0.3455 -1.0927
  994MOL0     C31119   8.809   5.118   2.282  0.8753  0.4218 -0.7857
  994MOL0    Cl31120   8.903   4.982   2.222 -0.1689 -0.3698  0.1005
  994MOL0     C31121   8.114   5.091   2.960 -0.8968 -0.1133  0.5351
  994MOL0     C31122   8.130   5.080   3.102 -0.4195  0.0829 -0.7929
  994MOL0     O31123   8.109   5.100   3.390  0.0817 -0.0515  0.3520
  994MOL0     C31124   8.241   4.802   3.522 -0.0809 -0.1117 -0.2919
  994MOL0     C31125   8.280   4.747   3.639  0.6879  0.4501 -0.2516
  994MOL0     N31126   8.592   4.695   4.388 -0.2960  0.2633  0.1428
  994MOL0     N31127   8.709   4.662   4.419  0.4741 -0.5888 -0.1469
  994MOL0     C31128   9.466   4.309   4.103 -0.6393 -1.4552  0.1018
  994MOL0     C31129   9.594   4.368   4.105  0.3844  0.5996 -0.4910
  994MOL0     C31130   9.960   4.599   4.249 -0.8485 -0.0732 -0.9134
  994MOL0     C31131   9.982   4.604   4.115  0.6766  0.2251  0.2871
  994MOL0     C31132  10.102   4.656   4.062 -0.3122 -0.7331  0.8037
  994MOL0     C31133  10.204   4.702   4.147  0.0817  0.0445 -0.3581
  994MOL0     O31134  10.317   4.747   4.080  0.0277  0.0645 -0.1061
  994MOL0     C31135  10.440   4.681   4.132 -0.8327  0.6553  0.6108
  994MOL0     C31136  10.558   4.718   4.042  0.3689  0.6100 -1.0982
  994MOL0     C31137  10.555   4.675   3.899  0.8541 -0.8249  0.6008
  994MOL0     C31138  10.679   4.707   3.814 -0.7392 -0.0864  0.2260
  994MOL0     C31139  10.717   4.852   3.811  0.4535  0.1563  0.8172
  994MOL0     C31140  10.753   4.962   3.835 -1.2902 -0.5497  0.6414
  994MOL0     C31141  10.187   4.695   4.286  0.5526  0.4095  0.3095
  994MOL0     C31142  10.067   4.638   4.335  0.0504  0.3445 -0.6166
  994MOL0     H31143   9.662   4.361   4.438  1.0384  2.7311 -0.5667
  994MOL0     H31144   9.422   4.259   4.431 -1.8162 -2.3313 -0.9508
  994MOL0     H31145   9.265   4.073   4.117 -0.9576 -1.4645  1.7476
  994MOL0     H31146   9.177   4.229   4.069  0.0852  0.5548  0.8349
  994MOL0     H31147   9.103   4.021   4.285 -1.1959  0.8939  1.5939
  994MOL0     H31148   9.031   4.045   4.132 -1.7751 -1.6319  2.8051
  994MOL0     H31149   9.009   4.221   4.370 -0.2417 -0.9275  0.6743
  994MOL0     H31150   8.872   4.151   4.275  0.2040 -1.2766 -0.5814
  994MOL0     H31151   9.051   4.354   4.130  1.7156 -1.5633  2.2672
  994MOL0     H31152   8.886   4.301   4.095  0.9190 -0.7744 -0.1280
  994MOL0     H31153   8.947   4.468   4.338  1.5903  0.6711 -0.6023
  994MOL0     H31154   8.793   4.424   4.270 -0.9761 -1.4366 -1.7841
  994MOL0     H31155   8.815   4.628   4.154  0.3402  0.7461 -2.4833
  994MOL0     H31156   8.938   4.547   4.054  0.6789  1.5848 -0.2615
  994MOL0     H31157   9.097   4.612   4.248  0.9293  0.3778 -1.7743
  994MOL0     H31158   9.024   4.756   4.183 -1.8035  1.3672  2.1492
  994MOL0     H31159   9.006   4.799   4.404 -2.8828  1.4707  1.5337
  994MOL0     H31160   8.964   4.643   4.456  0.3250 -1.9035 -1.3417
  994MOL0     H31161   8.786   4.946   4.279  1.0241  1.1121  1.8258
  994MOL0     H31162   8.507   4.961   4.168  1.1092  4.2186  1.8544
  994MOL0     H31163   8.443   4.976   4.328 -0.9358 -2.6980  3.0747
  994MOL0     H31164   8.279   4.858   4.234  0.1086 -0.9149  0.4701
  994MOL0     H31165   8.367   4.725   4.312  1.1428  0.8309  0.7901
  994MOL0     H31166   8.486   4.680   4.090 -0.8052 -1.5874 -1.5024
  994MOL0     H31167   8.310   4.663   4.087  0.3072 -0.3223  3.4233
  994MOL0     H31168   8.503   4.868   3.965  0.1389 -0.6341 -0.1115
  994MOL0     H31169   8.330   4.919   3.999 -0.6329 -0.2908 -0.2450
  994MOL0     H31170   8.294   5.019   3.836 -1.0797 -1.1199 -0.3067
  994MOL0     H31171   8.228   5.138   3.619 -0.6923 -0.2900  2.9556
  994MOL0     H31172   8.221   4.762   3.098  0.8935  0.8605  2.8372
  994MOL0     H31173   8.234   4.787   2.856 -1.4512 -1.1594  2.0718
  994MOL0     H31174   8.208   5.000   2.533 -0.4610 -2.3609 -0.3077
  994MOL0     H31175   8.257   4.871   2.627  1.5139 -0.2640 -0.6245
  994MOL0     H31176   8.406   5.047   2.756  0.6735 -2.1180 -0.3353
  994MOL0     H31177   8.345   5.165   2.628 -0.4822 -0.8537 -1.3091
  994MOL0     H31178   8.508   4.918   2.557 -0.0991 -0.8386 -4.0840
  994MOL0     H31179   8.583   5.063   2.594  1.1955 -2.6529 -1.9928
  994MOL0     H31180   8.374   5.081   2.382 -0.9621  0.4953  4.3521
  994MOL0     H31181   8.509   5.188   2.405  0.3042 -0.2153 -1.5279
  994MOL0     H31182   8.486   4.914   2.295 -2.0452  0.7806  4.3503
  994MOL0     H31183   8.644   4.944   2.356 -0.0021 -0.2443  0.1860
  994MOL0     H31184   8.495   5.092   2.141  0.3193  2.9408  3.3941
  994MOL0     H31185   8.626   4.969   2.118 -0.0330  1.5723 -1.2768
  994MOL0     H31186   8.758   5.147   2.077  1.1203 -5.0362 -0.4311
  994MOL0     H31187   8.667   5.254   2.196 -2.7897 -1.9346  1.6002
  994MOL0     H31188   8.769   5.100   2.382  0.3948 -1.2530 -1.2439
  994MOL0     H31189   8.871   5.206   2.296 -0.0736  0.7491  1.8946
  994MOL0     H31190   8.082   5.188   2.921 -0.3021  1.2078  3.0926
  994MOL0     H31191   8.101   5.155   3.174  0.0799 -1.1762  0.7898
  994MOL0     H31192   8.224   4.735   3.439 -2.0161  2.4556 -2.1637
  994MOL0     H31193   8.293   4.640   3.648  0.1719  0.4062  0.0338
  994MOL0     H31194   9.415   4.289   4.010  0.5130  3.2917 -1.8389
  994MOL0     H31195   9.646   4.399   4.015  2.5829  3.0963  1.4683
  994MOL0     H31196   9.908   4.567   4.045  0.6903 -1.8080  1.2696
  994MOL0     H31197  10.114   4.658   3.954 -0.6780 -0.4964  0.7638
  994MOL0     H31198  10.433   4.572   4.128 -0.0123  0.5761  1.1706
  994MOL0     H31199  10.476   4.720   4.228  2.7489  0.8776 -0.6799
  994MOL0     H31200  10.577   4.825   4.052 -1.0211  0.7850 -0.0010
  994MOL0     H31201  10.648   4.676   4.089 -0.4271  1.8716  1.7314
  994MOL0     H31202  10.476   4.743   3.866  2.4390  1.4229  1.1480
  994MOL0     H31203  10.521   4.573   3.883  0.3791 -1.0648  2.8228
  994MOL0     H31204  10.766   4.650   3.849 -0.4402 -0.4428 -1.0350
  994MOL0     H31205  10.669   4.676   3.709 -1.6776 -1.4495  0.6943
  994MOL0     H31206  10.785   5.060   3.865  0.9623 -1.7669  2.5395
  994MOL0     H31207  10.261   4.721   4.361 -0.5081  0.9607  1.1880
  994MOL0     H31208  10.067   4.637   4.444  1.0907  1.8887 -0.5746
  995MOL0     O31209   4.186   0.668   1.473 -0.1782 -0.6281  0.2848
  995MOL0     C31210   4.136   0.574   1.414  0.4798 -1.1983  0.4710
  995MOL0     O31211   4.117   0.452   1.479  0.1492 -0.1645  0.9618
  995MOL0     C31212   4.170   0.428   1.610 -0.1246  0.0150  0.4471
  995MOL0     C31213   4.302   0.433   1.630  0.0367  0.0637 -0.7387
  995MOL0     C31214   4.355   0.402   1.757 -0.5228 -0.3657  0.4548
  995MOL0     C31215   4.275   0.358   1.857  0.9944  0.8700  0.5062
  995MOL0     O31216   4.319   0.326   1.984 -0.1551  0.7576  0.0327
  995MOL0     C31217   4.454   0.268   1.989 -0.0022 -0.0736 -0.1557
  995MOL0     C31218   4.468   0.217   2.134  1.1812  0.9612  0.1040
  995MOL0     C31219   4.461   0.326   2.238 -0.7434  0.4111  0.2192
  995MOL0     C31220   4.490   0.272   2.377 -0.2519  0.4625  0.3483
  995MOL0     C31221   4.493   0.388   2.483 -0.0003 -0.1624  0.3980
  995MOL0     C31222   4.600   0.500   2.464 -0.0500 -0.2765 -0.0605
  995MOL0     C31223   4.571   0.602   2.572 -0.2549  0.4310  0.0716
  995MOL0     C31224   4.669   0.711   2.571 -0.5973  0.4985 -0.1602
  995MOL0     N31225   4.651   0.822   2.478  0.3293  0.1250  0.1839
  995MOL0     C31226   4.665   0.828   2.343 -0.2815 -0.7862  0.4160
  995MOL0     C31227   4.632   0.949   2.290  0.3893  0.9638 -0.5513
  995MOL0     C31228   4.618   0.984   2.142 -0.3882  0.7013  0.9332
  995MOL0     C31229   4.717   1.094   2.102  0.8498 -0.0712  0.2272
  995MOL0     C31230   4.654   1.194   2.004 -0.0057 -0.3231 -0.2681
  995MOL0     C31231   4.584   1.128   1.883  0.7606 -1.2004  0.0239
  995MOL0     O31232   4.566   1.219   1.780  0.4771  0.9383 -0.1909
  995MOL0     C31233   4.503   1.179   1.671  0.3569 -0.1948  0.5075
  995MOL0     C31234   4.549   1.069   1.600  0.9553  0.1363  0.1634
  995MOL0     C31235   4.497   1.039   1.471  0.3837  0.9789 -0.6015
  995MOL0     C31236   4.383   1.109   1.420  0.2283 -0.4983  1.1082
  995MOL0     C31237   4.319   1.081   1.282 -0.2178  0.4896  0.4189
  995MOL0     O31238   4.393   0.999   1.202  0.2936 -0.3844 -0.2561
  995MOL0     C31239   4.366   0.973   1.069 -0.8684  1.0468  0.0498
  995MOL0     C31240   4.303   1.059   0.978 -0.0397  0.5355  0.8618
  995MOL0     C31241   4.271   1.020   0.847 -0.5690 -0.1684  0.4648
  995MOL0     C31242   4.335   0.915   0.793 -1.3015  0.7556 -0.2095
  995MOL0     O31243   4.321   0.879   0.667 -1.0914  0.1091  0.0097
  995MOL0     C31244   4.407   0.952   0.579 -1.1712 -0.3606  0.2392
  995MOL0     C31245   4.448   0.875   0.453  0.0575 -0.2277  0.2340
  995MOL0     C31246   4.327   0.864   0.364 -0.1143 -0.0283 -0.2613
  995MOL0     C31247   4.336   0.763   0.254 -0.1228  0.2532 -0.2968
  995MOL0     C31248   4.197   0.732   0.185  0.3107 -0.0872  0.6766
  995MOL0     C31249   4.210   0.611   0.088 -0.6680  0.1363 -0.8741
  995MOL0     C31250   4.223   0.478   0.152  0.2336  0.6788  0.7149
  995MOL0     C31251   4.242   0.374   0.040 -0.4501  0.2285 -0.1168
  995MOL0    Cl31252   4.091   0.341  -0.069  0.3325 -0.0035 -0.3300
  995MOL0     C31253   4.417   0.838   0.873 -0.9784 -0.1010 -0.4954
  995MOL0     C31254   4.421   0.859   1.007  0.7048  0.3309  0.5407
  995MOL0     O31255   4.211   1.133   1.253 -0.1604 -0.4011  0.1362
  995MOL0     C31256   4.335   1.224   1.494 -0.3437  0.1875  0.0148
  995MOL0     C31257   4.394   1.255   1.617  0.5539 -0.0833  1.2454
  995MOL0     N31258   4.578   1.012   2.399 -0.4739 -1.2233  0.1383
  995MOL0     N31259   4.592   0.937   2.502  0.3576  0.0786 -0.2699
  995MOL0     C31260   4.134   0.361   1.833  0.6354 -0.1506  0.6922
  995MOL0     C31261   4.080   0.398   1.709  0.6542 -0.0504 -0.5274
  995MOL0     C31262   4.071   0.587   1.280 -0.1601  0.1092  0.4511
  995MOL0     C31263   3.988   0.489   1.214  0.0494 -0.1454 -1.3083
  995MOL0     C31264   3.950   0.504   1.088  0.2396  0.7618 -0.4116
  995MOL0     C31265   3.988   0.612   1.012  0.5173 -0.2933 -0.3171
  995MOL0     O31266   3.939   0.631   0.885  0.5692 -0.3385  0.0793
  995MOL0     C31267   3.988   0.559   0.780 -0.1389 -0.4997  0.9679
  995MOL0     C31268   4.117   0.606   0.722 -0.1820  0.4184  0.4116
  995MOL0     C31269   4.145   0.509   0.605  0.3743 -0.6714 -0.3082
  995MOL0     C31270   4.286   0.507   0.565 -0.2307 -0.7448 -0.2077
  995MOL0     C31271   4.371   0.437   0.661  0.2501  0.6636  0.2406
  995MOL0     C31272   4.471   0.385   0.706  0.0459 -0.1454 -0.5921
  995MOL0     C31273   4.070   0.712   1.065 -0.4911 -0.3509 -0.3564
  995MOL0     C31274   4.114   0.694   1.205  0.2497 -0.1580 -0.7523
  995MOL0     H31275   4.359   0.461   1.542  0.6888 -1.6369 -0.8996
  995MOL0     H31276   4.461   0.426   1.747 -1.0803  1.2615 -3.8697
  995MOL0     H31277   4.529   0.347   1.977  1.2939 -1.0732  1.0046
  995MOL0     H31278   4.463   0.192   1.911 -0.9730 -0.3590 -0.0017
  995MOL0     H31279   4.564   0.164   2.133  1.2803  1.0289 -2.5751
  995MOL0     H31280   4.391   0.141   2.152  1.8959  0.2840  0.3467
  995MOL0     H31281   4.367   0.379   2.251 -0.1296  1.7742 -0.6864
  995MOL0     H31282   4.535   0.399   2.202  0.2881 -0.7804 -0.1912
  995MOL0     H31283   4.411   0.205   2.411  4.3129 -4.3063  2.9457
  995MOL0     H31284   4.579   0.211   2.394 -0.8173 -0.2223  0.9062
  995MOL0     H31285   4.520   0.344   2.579  1.5210  0.3372  0.2199
  995MOL0     H31286   4.390   0.423   2.492 -0.9941 -1.4691 -3.7013
  995MOL0     H31287   4.598   0.554   2.369  0.7347  0.6256  0.4144
  995MOL0     H31288   4.698   0.452   2.474  0.0173  0.0579  1.0657
  995MOL0     H31289   4.469   0.640   2.562  1.2747  4.5173 -2.5117
  995MOL0     H31290   4.583   0.561   2.673 -1.2006 -0.3836 -0.1328
  995MOL0     H31291   4.773   0.675   2.570 -0.0764  1.6276  2.9947
  995MOL0     H31292   4.671   0.758   2.669 -1.6038  0.9473 -0.3408
  995MOL0     H31293   4.684   0.748   2.273 -1.4087  0.8513 -1.8654
  995MOL0     H31294   4.518   1.019   2.113 -0.0860  0.3494 -0.6162
  995MOL0     H31295   4.636   0.893   2.084 -2.4199 -1.0851  2.9044
  995MOL0     H31296   4.808   1.046   2.064  2.4614  2.9794 -0.1006
  995MOL0     H31297   4.760   1.135   2.194  1.2105 -0.4023  0.2123
  995MOL0     H31298   4.582   1.255   2.059 -1.3748 -0.6359 -1.6331
  995MOL0     H31299   4.729   1.264   1.967 -1.2343  1.3676  0.3099
  995MOL0     H31300   4.491   1.082   1.917 -1.2731  1.9282 -0.8200
  995MOL0     H31301   4.637   1.041   1.843 -1.0765 -0.1947 -5.4701
  995MOL0     H31302   4.624   1.006   1.645  0.4041 -0.9671 -0.4304
  995MOL0     H31303   4.558   0.958   1.433  1.8606  0.5307  2.4133
  995MOL0     H31304   4.263   1.157   1.001  0.6422  1.9855 -3.2967
  995MOL0     H31305   4.207   1.083   0.785 -0.5492 -3.4019 -3.2511
  995MOL0     H31306   4.494   0.979   0.640 -1.3697  0.4983  0.1448
  995MOL0     H31307   4.358   1.046   0.553 -0.4142 -0.2110 -0.6678
  995MOL0     H31308   4.484   0.779   0.491  0.8089 -1.2924 -2.9117
  995MOL0     H31309   4.526   0.915   0.388 -2.8224 -0.7656 -3.9049
  995MOL0     H31310   4.302   0.965   0.332  0.8981  0.4269  0.3513
  995MOL0     H31311   4.246   0.827   0.428  0.7968 -1.0931  0.2965
  995MOL0     H31312   4.398   0.793   0.170  1.6639 -2.2102  0.0531
  995MOL0     H31313   4.380   0.675   0.300 -1.8227  0.1564  1.2620
  995MOL0     H31314   4.157   0.824   0.141  0.6975  1.9695  4.2362
  995MOL0     H31315   4.106   0.718   0.244 -0.0409 -1.0653 -0.0689
  995MOL0     H31316   4.305   0.641   0.043 -0.2701  1.6231  0.8379
  995MOL0     H31317   4.135   0.619   0.009  0.0274 -1.4049 -1.7431
  995MOL0     H31318   4.311   0.474   0.217  0.9999  0.8829 -0.2860
  995MOL0     H31319   4.130   0.456   0.205 -0.5916 -1.8055 -1.5694
  995MOL0     H31320   4.271   0.286   0.096  0.8376  0.3948 -0.4966
  995MOL0     H31321   4.331   0.406  -0.015  0.5274  0.1538  1.3643
  995MOL0     H31322   4.485   0.759   0.842  0.7937  1.1220  0.1112
  995MOL0     H31323   4.476   0.783   1.062  1.7049  2.5209  2.7430
  995MOL0     H31324   4.257   1.293   1.465 -1.6126 -2.0202 -2.2406
  995MOL0     H31325   4.371   1.344   1.674  4.1589  1.3254  0.7515
  995MOL0     H31326   4.065   0.333   1.912 -0.0993 -0.0314  0.1098
  995MOL0     H31327   3.975   0.415   1.687  0.1099  2.6752  3.1073
  995MOL0     H31328   3.959   0.409   1.282 -0.8331 -1.3881 -3.0655
  995MOL0     H31329   3.891   0.424   1.043  0.9727  0.0800 -0.1731
  995MOL0     H31330   3.910   0.564   0.703 -1.5726 -2.0069  2.2277
  995MOL0     H31331   3.999   0.453   0.804  3.2093 -0.6378 -0.6420
  995MOL0     H31332   4.114   0.706   0.678 -2.6203 -0.2430 -1.0939
  995MOL0     H31333   4.208   0.598   0.783  0.6159 -2.8070 -0.9704
  995MOL0     H31334   4.092   0.542   0.515 -1.0476  0.6693  0.9686
  995MOL0     H31335   4.127   0.403   0.621  2.2409 -0.8540  0.8499
  995MOL0     H31336   4.284   0.453   0.469  3.8366  1.2171 -1.6269
  995MOL0     H31337   4.330   0.603   0.535 -2.4822  0.2203 -0.6382
  995MOL0     H31338   4.562   0.351   0.750 -1.4957 -0.1607  2.9455
  995MOL0     H31339   4.096   0.791   0.995  1.1042 -0.6831 -0.1710
  995MOL0     H31340   4.170   0.780   1.242  0.7454 -1.3487  1.3748
  996MOL0     O31341   1.261   7.406  10.142 -0.6812 -0.2896 -0.5941
  996MOL0     C31342   1.344   7.328  10.180 -0.6643  0.2200 -0.3668
  996MOL0     O31343   1.339   7.260  10.289 -0.1509 -0.1039  0.0464
  996MOL0     C31344   1.218   7.251  10.353  0.0826 -0.4459  0.4413
  996MOL0     C31345   1.159   7.122  10.372 -0.1275 -0.6880  0.2796
  996MOL0     C31346   1.043   7.113  10.455 -0.0004  0.1997 -0.2014
  996MOL0     C31347   0.994   7.227  10.527  0.5503 -0.9036  0.1341
  996MOL0     O31348   0.906   7.214  10.632 -0.7024 -0.1651 -0.1022
  996MOL0     C31349   0.793   7.131  10.607  1.1078  0.2266 -0.9017
  996MOL0     C31350   0.663   7.189  10.660 -0.1552  0.8043  0.6647
  996MOL0     C31351   0.565   7.064  10.683  0.1167  1.1528  0.1149
  996MOL0     C31352   0.420   7.109  10.712 -0.7762  0.9235 -0.5336
  996MOL0     C31353   0.325   6.991  10.733  0.3972  0.3125 -0.0348
  996MOL0     C31354   0.365   6.859  10.814  0.7689 -0.6141 -0.1340
  996MOL0     C31355   0.258   6.746  10.800 -0.3918  0.5030 -0.9325
  996MOL0     C31356   0.284   6.640  10.912 -0.5610  0.0220 -0.0386
  996MOL0     N31357   0.412   6.561  10.911  0.3494 -0.1713 -0.1866
  996MOL0     C31358   0.509   6.587  11.012  0.2947  0.7767 -0.9913
  996MOL0     C31359   0.580   6.471  11.015 -0.0366  0.6957  0.6899
  996MOL0     C31360   0.700   6.450  11.110 -0.1644 -1.7948  0.1114
  996MOL0     C31361   0.839   6.427  11.043  0.0233 -0.3193 -0.3090
  996MOL0     C31362   0.894   6.287  11.071  0.1035  0.0634 -0.2151
  996MOL0     C31363   0.790   6.176  11.033 -1.2847  0.2089 -0.6760
  996MOL0     O31364   0.858   6.055  11.073 -0.3545 -0.1796 -0.1110
  996MOL0     C31365   0.781   5.945  11.055 -0.4900 -0.0495  0.2422
  996MOL0     C31366   0.768   5.887  10.929 -0.7148 -0.0751 -0.1494
  996MOL0     C31367   0.670   5.788  10.905  0.2020 -1.0479 -0.3205
  996MOL0     C31368   0.592   5.736  11.005 -0.4022 -0.2894  0.3439
  996MOL0     C31369   0.499   5.629  10.973 -0.1356 -0.8836  1.0934
  996MOL0     O31370   0.469   5.621  10.833 -0.5100 -0.1763 -0.0485
  996MOL0     C31371   0.370   5.536  10.800  0.5154  0.1004 -0.2030
  996MOL0     C31372   0.234   5.577  10.817 -0.2696 -0.2825  1.2377
  996MOL0     C31373   0.134   5.483  10.766 -0.2379 -0.2216 -0.6888
  996MOL0     C31374   0.168   5.369  10.695 -0.0574  0.3229 -0.0836
  996MOL0     O31375   0.058   5.294  10.664  0.8123 -0.4482  0.5887
  996MOL0     C31376   0.065   5.188  10.562 -0.2308  0.1044  0.8134
  996MOL0     C31377  -0.020   5.234  10.435 -0.2673  0.7461  0.1557
  996MOL0     C31378  -0.179   5.260  10.452  0.3315 -0.3149 -0.2696
  996MOL0     C31379  -0.255   5.300  10.325  0.5170  0.0847  0.5616
  996MOL0     C31380  -0.396   5.348  10.361  0.9030 -1.1479  0.6803
  996MOL0     C31381  -0.491   5.409  10.248 -1.2076 -0.0042  0.3803
  996MOL0     C31382  -0.611   5.480  10.311 -0.2544  0.0632 -0.5786
  996MOL0     C31383  -0.715   5.389  10.377  0.3992 -0.0010 -0.4499
  996MOL0    Cl31384  -0.793   5.267  10.270 -0.1906 -0.6371  0.2252
  996MOL0     C31385   0.301   5.338  10.674  0.0126 -0.6241 -0.0327
  996MOL0     C31386   0.405   5.422  10.733 -0.5582 -0.1874 -0.0109
  996MOL0     O31387   0.447   5.578  11.061 -0.4053  0.1339 -0.5278
  996MOL0     C31388   0.611   5.790  11.139 -0.6324  0.1286  0.4615
  996MOL0     C31389   0.698   5.902  11.158 -0.3979  0.2295 -0.3590
  996MOL0     N31390   0.532   6.379  10.921  0.4423  0.1864 -0.3715
  996MOL0     N31391   0.425   6.433  10.863 -0.6659 -0.5366 -0.4018
  996MOL0     C31392   1.043   7.351  10.500  1.1492  0.0240 -0.1371
  996MOL0     C31393   1.148   7.360  10.407 -0.1621  0.1290  0.3906
  996MOL0     C31394   1.459   7.307  10.082 -0.3858 -0.4487  0.0300
  996MOL0     C31395   1.481   7.378   9.967  0.0914  0.0280  0.7229
  996MOL0     C31396   1.588   7.361   9.885  0.4283  0.1080 -0.5922
  996MOL0     C31397   1.680   7.257   9.912 -0.2460 -1.2611 -0.1832
  996MOL0     O31398   1.770   7.216   9.814  0.4102 -0.4754  0.2408
  996MOL0     C31399   1.910   7.215   9.851  0.0445  0.5677 -0.5594
  996MOL0     C31400   1.987   7.315   9.768 -0.3019 -0.0672  0.9029
  996MOL0     C31401   2.034   7.243   9.633 -0.9257  0.5957  0.0786
  996MOL0     C31402   2.078   7.352   9.546 -0.4945  0.7199 -0.1237
  996MOL0     C31403   2.052   7.316   9.409 -0.9310  0.0739  0.2242
  996MOL0     C31404   2.031   7.291   9.290  0.5202  0.1535 -0.6465
  996MOL0     C31405   1.672   7.200  10.033  0.3246  0.1433  0.8357
  996MOL0     C31406   1.563   7.222  10.119  1.1242 -0.2270 -0.4362
  996MOL0     H31407   1.207   7.035  10.330  2.4607  0.5640  0.4130
  996MOL0     H31408   0.995   7.019  10.479 -2.1419  1.0694 -0.8361
  996MOL0     H31409   0.807   7.032  10.652  1.2776  1.4337  1.9575
  996MOL0     H31410   0.788   7.110  10.500  1.9180  2.6708 -1.4769
  996MOL0     H31411   0.621   7.257  10.585  0.5604 -2.1207 -2.6405
  996MOL0     H31412   0.687   7.244  10.751  4.5308 -1.3994  1.0539
  996MOL0     H31413   0.610   7.003  10.762  2.0086 -1.1311 -2.5161
  996MOL0     H31414   0.581   6.999  10.596  1.8537  0.4939  0.8795
  996MOL0     H31415   0.431   7.170  10.802 -2.9711 -1.9440  1.9070
  996MOL0     H31416   0.377   7.164  10.628 -1.3627  0.8173 -0.3101
  996MOL0     H31417   0.295   6.954  10.634 -0.4144  1.5066 -0.2511
  996MOL0     H31418   0.234   7.038  10.770  0.6188 -0.0826  1.0526
  996MOL0     H31419   0.376   6.901  10.915  2.7330 -1.6822  0.1469
  996MOL0     H31420   0.462   6.824  10.778  0.4341 -0.5732 -1.0899
  996MOL0     H31421   0.158   6.786  10.819 -1.3254 -1.2246 -1.8740
  996MOL0     H31422   0.262   6.690  10.706  1.9880 -1.7652  0.3894
  996MOL0     H31423   0.191   6.583  10.912 -0.1210 -0.7102 -0.0705
  996MOL0     H31424   0.295   6.702  11.002  0.8450 -2.0258  1.2708
  996MOL0     H31425   0.522   6.679  11.069 -0.2452 -0.8670  2.0021
  996MOL0     H31426   0.686   6.381  11.194  1.3237  1.1991  3.0192
  996MOL0     H31427   0.713   6.551  11.150  2.4489 -0.6963 -3.0715
  996MOL0     H31428   0.903   6.505  11.085  0.3713 -0.8222  0.0950
  996MOL0     H31429   0.829   6.444  10.936  1.6433  1.8287 -0.1857
  996MOL0     H31430   0.994   6.281  11.026  0.5929  3.4846  0.1649
  996MOL0     H31431   0.907   6.280  11.179 -6.3739  1.8581  1.0419
  996MOL0     H31432   0.737   6.186  10.938 -1.2792  1.1093 -0.5880
  996MOL0     H31433   0.710   6.192  11.105  1.4648  2.5876  2.1520
  996MOL0     H31434   0.830   5.918  10.846 -0.6245  2.2254  0.7226
  996MOL0     H31435   0.669   5.762  10.799  3.2454  0.6962 -0.8914
  996MOL0     H31436   0.209   5.679  10.844 -2.3115  0.6072 -3.0354
  996MOL0     H31437   0.027   5.495  10.779 -0.4881 -0.0225 -2.6719
  996MOL0     H31438   0.029   5.094  10.604  1.0488 -2.1116 -2.5877
  996MOL0     H31439   0.170   5.168  10.535 -0.4392  0.7238 -0.5703
  996MOL0     H31440  -0.011   5.159  10.356  0.1324  1.2769 -0.3048
  996MOL0     H31441   0.020   5.326  10.392 -0.0819  1.2825  1.4237
  996MOL0     H31442  -0.203   5.327  10.536 -0.5486 -2.6105  1.4253
  996MOL0     H31443  -0.224   5.171  10.496  1.8259 -1.1358 -0.3522
  996MOL0     H31444  -0.214   5.387  10.274 -2.9591  0.3326 -2.2120
  996MOL0     H31445  -0.255   5.222  10.249  0.6965  1.6053 -1.0528
  996MOL0     H31446  -0.388   5.429  10.434  2.6561  0.1229 -0.8285
  996MOL0     H31447  -0.455   5.262  10.396  0.1610 -1.5386 -1.3521
  996MOL0     H31448  -0.518   5.333  10.174  3.5654  1.2369 -3.1469
  996MOL0     H31449  -0.423   5.478  10.196  0.7445 -2.3920 -0.4083
  996MOL0     H31450  -0.578   5.546  10.391  2.7749 -1.8751 -0.0678
  996MOL0     H31451  -0.672   5.537  10.240 -4.2242 -2.6395  0.2992
  996MOL0     H31452  -0.790   5.454  10.424  1.1020  0.3704  0.1692
  996MOL0     H31453  -0.671   5.324  10.453 -1.7929 -4.1227 -2.3609
  996MOL0     H31454   0.322   5.244  10.624 -3.3678 -2.2246  1.2131
  996MOL0     H31455   0.511   5.399  10.729 -0.6743 -1.1449  1.4474
  996MOL0     H31456   0.550   5.753  11.221 -0.1433  1.2701  1.3793
  996MOL0     H31457   0.701   5.950  11.255 -2.1863 -1.0962  0.3885
  996MOL0     H31458   1.012   7.444  10.548 -2.1026 -0.8207 -0.3734
  996MOL0     H31459   1.203   7.452  10.389  1.8024 -0.9019  0.8520
  996MOL0     H31460   1.397   7.443   9.945 -1.0337 -0.7801  2.3852
  996MOL0     H31461   1.585   7.419   9.793 -2.4295 -1.2105 -1.4599
  996MOL0     H31462   1.954   7.116   9.844  0.2527  0.7957 -3.7334
  996MOL0     H31463   1.923   7.250   9.954 -0.1440  0.0896 -0.3710
  996MOL0     H31464   1.921   7.402   9.756 -0.0913  0.1230  1.1118
  996MOL0     H31465   2.075   7.353   9.820 -1.5158 -1.9845  4.7878
  996MOL0     H31466   1.947   7.186   9.599 -2.6732 -0.2190  5.0282
  996MOL0     H31467   2.116   7.175   9.655  1.1929  2.6536 -1.0181
  996MOL0     H31468   2.021   7.439   9.582  0.1010  0.4144  1.6719
  996MOL0     H31469   2.177   7.385   9.576 -0.9655  2.1318 -0.0604
  996MOL0     H31470   2.034   7.265   9.186  0.3165 -2.0514 -0.1488
  996MOL0     H31471   1.744   7.122  10.055 -0.9275 -2.3075 -2.7878
  996MOL0     H31472   1.545   7.153  10.201  1.0565  1.1035  0.7016
  997MOL0     O31473   0.799   5.667   3.306 -0.7795  0.4167 -0.1335
  997MOL0     C31474   0.893   5.745   3.341  0.4032 -0.4055 -0.7992
  997MOL0     O31475   0.882   5.865   3.398 -0.2911  0.8985 -0.8662
  997MOL0     C31476   0.762   5.892   3.461  0.3699 -0.2541  0.1148
  997MOL0     C31477   0.722   6.019   3.433  0.1896 -1.0163 -0.3175
  997MOL0     C31478   0.612   6.077   3.496 -1.1298 -0.3696 -0.9408
  997MOL0     C31479   0.536   6.002   3.585  0.4481 -0.1167  0.5953
  997MOL0     O31480   0.428   6.072   3.629 -0.3971  0.1253 -0.6013
  997MOL0     C31481   0.338   6.022   3.728 -0.3085  0.3969  0.2784
  997MOL0     C31482   0.191   6.008   3.695  0.0219  0.6093  0.0738
  997MOL0     C31483   0.167   5.874   3.631  0.2136 -0.2098 -0.5702
  997MOL0     C31484   0.013   5.878   3.604 -0.2358 -0.6269 -0.0830
  997MOL0     C31485  -0.035   5.763   3.527 -0.3074  0.3968  0.6105
  997MOL0     C31486  -0.034   5.623   3.592  0.4170 -0.2403 -0.1037
  997MOL0     C31487  -0.085   5.515   3.498  0.1125 -0.8520 -0.3220
  997MOL0     C31488   0.010   5.471   3.388  0.4487 -0.8513  0.0334
  997MOL0     N31489  -0.034   5.345   3.329 -0.2218 -0.2132  0.1818
  997MOL0     C31490  -0.167   5.320   3.300 -0.3762 -0.6319 -0.8627
  997MOL0     C31491  -0.171   5.212   3.224 -0.2169 -0.3097  0.1929
  997MOL0     C31492  -0.303   5.137   3.179 -0.0072 -0.1638 -0.0302
  997MOL0     C31493  -0.260   4.993   3.135  0.1539 -0.9281 -0.2818
  997MOL0     C31494  -0.375   4.912   3.086 -0.5374  0.2547  0.0314
  997MOL0     C31495  -0.304   4.775   3.046 -0.0236 -0.0847  0.3672
  997MOL0     O31496  -0.386   4.696   2.971 -0.0856 -0.4132  0.0427
  997MOL0     C31497  -0.504   4.646   3.008  0.3529  0.0654  0.2342
  997MOL0     C31498  -0.564   4.653   3.137  0.0300 -0.1149 -0.2817
  997MOL0     C31499  -0.682   4.583   3.168 -0.6235  1.0457  0.2698
  997MOL0     C31500  -0.750   4.509   3.072  0.4495  0.1783  0.0582
  997MOL0     C31501  -0.877   4.435   3.104  0.5886 -0.4199  1.0676
  997MOL0     O31502  -0.912   4.337   3.021  0.1746  0.1480 -0.3563
  997MOL0     C31503  -1.033   4.278   3.038  0.7181 -0.1926  0.1769
  997MOL0     C31504  -1.115   4.286   2.925  0.2781  0.0663  0.5349
  997MOL0     C31505  -1.249   4.229   2.930  0.0525 -0.4910  0.3402
  997MOL0     C31506  -1.303   4.174   3.049 -0.7915  0.4401 -1.3738
  997MOL0     O31507  -1.423   4.111   3.065 -0.2963 -0.1294  0.6202
  997MOL0     C31508  -1.523   4.143   2.971 -0.6188  0.1937  0.4506
  997MOL0     C31509  -1.643   4.053   3.005  0.1729 -0.1283 -0.0469
  997MOL0     C31510  -1.613   3.904   2.999 -0.4117 -1.2236 -0.1248
  997MOL0     C31511  -1.751   3.829   3.027 -0.2232 -0.1157 -0.2070
  997MOL0     C31512  -1.726   3.678   3.024  0.2295  0.3567  0.1315
  997MOL0     C31513  -1.847   3.597   3.072  0.3146 -0.2955 -0.1162
  997MOL0     C31514  -1.821   3.448   3.089 -0.1789 -0.8673  0.2961
  997MOL0     C31515  -1.938   3.382   3.173  0.3758  0.1854 -0.6387
  997MOL0    Cl31516  -2.092   3.399   3.120  0.0550  0.2593 -0.2880
  997MOL0     C31517  -1.212   4.166   3.159  0.0155 -0.8687  0.1185
  997MOL0     C31518  -1.085   4.223   3.154  0.7724  0.2347 -0.5438
  997MOL0     O31519  -0.935   4.467   3.209 -0.5034  0.8363 -0.2172
  997MOL0     C31520  -0.695   4.504   2.941  0.1258  0.9871  0.4489
  997MOL0     C31521  -0.569   4.561   2.916  1.1477  0.4768 -0.2184
  997MOL0     N31522  -0.033   5.169   3.209 -0.0468  0.0728 -0.2145
  997MOL0     N31523   0.047   5.254   3.277  0.6967  0.4624  0.3186
  997MOL0     C31524   0.584   5.876   3.617 -0.1906  0.3167 -0.4774
  997MOL0     C31525   0.704   5.825   3.569 -0.3655  0.4327  0.1214
  997MOL0     C31526   1.036   5.707   3.317 -1.7014  0.9032  0.8070
  997MOL0     C31527   1.074   5.581   3.283  0.0976  0.7031 -0.1807
  997MOL0     C31528   1.208   5.542   3.262  0.0667  0.5463 -0.6081
  997MOL0     C31529   1.316   5.627   3.285  0.3772 -0.1486  1.2641
  997MOL0     O31530   1.437   5.580   3.240  0.2081  0.2624  0.0243
  997MOL0     C31531   1.548   5.656   3.253 -0.1250  0.8809 -0.2183
  997MOL0     C31532   1.577   5.758   3.142 -0.4893  0.0185 -0.9104
  997MOL0     C31533   1.560   5.709   2.993 -0.8524 -0.5551 -0.4116
  997MOL0     C31534   1.427   5.746   2.914 -1.2022  0.1049  0.1642
  997MOL0     C31535   1.441   5.747   2.766 -0.9695 -0.3387 -0.3512
  997MOL0     C31536   1.461   5.750   2.642  0.4382 -0.2612 -0.8124
  997MOL0     C31537   1.279   5.755   3.332  0.3615 -0.1225 -0.3588
  997MOL0     C31538   1.145   5.794   3.345 -0.1026  0.3816 -1.1302
  997MOL0     H31539   0.771   6.075   3.354  1.6557  0.3141  1.4573
  997MOL0     H31540   0.575   6.172   3.459  0.5440  1.0715  0.9108
  997MOL0     H31541   0.328   6.086   3.816 -4.2422  2.7676 -1.6308
  997MOL0     H31542   0.384   5.929   3.764  2.1445  1.5828  0.4304
  997MOL0     H31543   0.166   6.082   3.619  0.9059 -2.2780 -3.3469
  997MOL0     H31544   0.130   6.011   3.786 -0.7196 -2.2843 -0.2158
  997MOL0     H31545   0.193   5.790   3.697 -0.7314  0.7422  1.0892
  997MOL0     H31546   0.230   5.855   3.544  2.2674  0.9084  0.5874
  997MOL0     H31547  -0.050   5.888   3.693  1.8823 -1.4734  1.5976
  997MOL0     H31548  -0.004   5.959   3.531  1.6601  0.2189  0.3426
  997MOL0     H31549   0.025   5.756   3.436 -1.0808 -2.2957  0.2010
  997MOL0     H31550  -0.139   5.777   3.495 -0.1835  1.7412  0.7788
  997MOL0     H31551  -0.105   5.621   3.675  1.4281  2.1638  0.9117
  997MOL0     H31552   0.068   5.600   3.625  0.6057  1.5817  0.7047
  997MOL0     H31553  -0.122   5.428   3.554  2.7815 -0.6916  1.8761
  997MOL0     H31554  -0.173   5.546   3.441  1.6065 -1.0040 -2.8573
  997MOL0     H31555   0.107   5.451   3.436  0.8613 -0.3235 -0.5654
  997MOL0     H31556   0.021   5.548   3.311  0.7356 -2.1515 -1.2743
  997MOL0     H31557  -0.251   5.372   3.345 -1.1930 -0.7977 -2.1659
  997MOL0     H31558  -0.338   5.202   3.098  0.4202  1.4849  1.0454
  997MOL0     H31559  -0.392   5.132   3.243 -1.8984 -0.9928 -2.5661
  997MOL0     H31560  -0.209   4.943   3.218  2.2508  0.3900 -0.6939
  997MOL0     H31561  -0.183   4.996   3.057  2.9798  2.2955  2.3115
  997MOL0     H31562  -0.450   4.894   3.163 -1.5379  2.0952 -0.4580
  997MOL0     H31563  -0.428   4.959   3.003 -1.0878 -3.3562 -1.8634
  997MOL0     H31564  -0.272   4.717   3.133 -1.0128  1.9010  2.1503
  997MOL0     H31565  -0.208   4.791   2.995  1.2474  1.8579  3.0807
  997MOL0     H31566  -0.511   4.709   3.213 -0.6799  1.0793 -0.6572
  997MOL0     H31567  -0.729   4.593   3.265 -0.1990 -0.1903  0.6215
  997MOL0     H31568  -1.080   4.317   2.827  1.8376  2.2442  1.7001
  997MOL0     H31569  -1.317   4.250   2.848 -2.3302 -0.8591  2.1214
  997MOL0     H31570  -1.491   4.120   2.869  1.8726  0.8697  1.0053
  997MOL0     H31571  -1.558   4.246   2.987 -0.2803  0.3009  0.4997
  997MOL0     H31572  -1.721   4.068   2.929 -0.8063  2.2342  1.3384
  997MOL0     H31573  -1.679   4.078   3.104 -2.7181 -3.4787 -0.0525
  997MOL0     H31574  -1.532   3.879   3.067 -1.0611 -0.5272  0.9173
  997MOL0     H31575  -1.572   3.893   2.898  1.0913  0.3937  0.2759
  997MOL0     H31576  -1.793   3.857   3.124  0.2750  1.8762 -0.5091
  997MOL0     H31577  -1.828   3.861   2.956  0.6653 -2.1615 -2.2241
  997MOL0     H31578  -1.638   3.650   3.083 -0.5707  0.5899  1.4795
  997MOL0     H31579  -1.716   3.657   2.917 -1.9057  1.6658 -0.3866
  997MOL0     H31580  -1.934   3.606   3.006  0.4149 -4.1203 -0.9993
  997MOL0     H31581  -1.877   3.636   3.170  0.0520  1.2802 -0.7981
  997MOL0     H31582  -1.809   3.406   2.989  0.1646  2.0223 -0.9658
  997MOL0     H31583  -1.725   3.429   3.138  0.0798  1.3162  0.7479
  997MOL0     H31584  -1.946   3.431   3.271 -1.6904 -0.0983 -0.6126
  997MOL0     H31585  -1.925   3.275   3.187 -0.0828 -0.0721 -2.0903
  997MOL0     H31586  -1.254   4.129   3.252  0.0073  2.3182  1.5113
  997MOL0     H31587  -1.021   4.225   3.242 -1.0432 -0.1299  0.8692
  997MOL0     H31588  -0.741   4.451   2.858  2.6732 -0.9738  0.1736
  997MOL0     H31589  -0.517   4.530   2.826  2.3744 -1.4295  1.0549
  997MOL0     H31590   0.535   5.816   3.693 -0.9159  1.2399 -0.1948
  997MOL0     H31591   0.755   5.731   3.587  0.4550  0.5905 -1.2178
  997MOL0     H31592   0.996   5.511   3.253  1.4344 -2.0358  2.1590
  997MOL0     H31593   1.229   5.448   3.212 -2.1489  1.2835 -3.1730
  997MOL0     H31594   1.634   5.590   3.265 -0.7960 -0.0538 -0.4895
  997MOL0     H31595   1.544   5.716   3.344  3.2205  1.4927 -0.3519
  997MOL0     H31596   1.517   5.846   3.166 -0.1165 -0.4673  2.2779
  997MOL0     H31597   1.680   5.793   3.158 -1.1912  1.7290  0.0701
  997MOL0     H31598   1.572   5.601   2.985 -0.0565 -0.8644  3.4021
  997MOL0     H31599   1.643   5.753   2.936 -0.6539  0.7545  0.8388
  997MOL0     H31600   1.356   5.668   2.941  0.0371 -1.4049 -0.7852
  997MOL0     H31601   1.393   5.842   2.955 -2.5132 -1.5595  3.2874
  997MOL0     H31602   1.483   5.743   2.537  1.4194 -2.1523 -0.5175
  997MOL0     H31603   1.356   5.832   3.329 -0.4976  0.7295 -1.3967
  997MOL0     H31604   1.130   5.899   3.368 -2.2171  0.4106 -2.2944
  998MOL0     O31605   4.078   0.950   3.551 -0.0031  0.0536 -0.3398
  998MOL0     C31606   3.982   0.974   3.485  0.3944 -1.0929 -0.1289
  998MOL0     O31607   3.964   0.956   3.350 -0.2992  0.1439  0.5435
  998MOL0     C31608   4.061   0.871   3.287  0.6561  0.9532 -1.8014
  998MOL0     C31609   4.041   0.736   3.269  0.0779  0.2773  0.9597
  998MOL0     C31610   4.134   0.658   3.191 -0.0872 -1.1187 -0.9006
  998MOL0     C31611   4.252   0.720   3.144  0.6980 -0.5262 -0.8581
  998MOL0     O31612   4.324   0.642   3.054  0.0289  0.8671  0.8407
  998MOL0     C31613   4.458   0.685   3.009  0.1264 -0.3609  0.7401
  998MOL0     C31614   4.531   0.576   2.927  0.1877  0.5452 -0.4811
  998MOL0     C31615   4.554   0.446   3.014  0.1981  0.0601  0.1056
  998MOL0     C31616   4.568   0.314   2.935 -0.2720 -0.5042 -0.0909
  998MOL0     C31617   4.689   0.309   2.833 -0.4695 -0.2129 -0.1228
  998MOL0     C31618   4.683   0.186   2.742 -0.4481  0.2401  0.0634
  998MOL0     C31619   4.706   0.053   2.816  0.0252 -0.9080 -0.0716
  998MOL0     C31620   4.572  -0.011   2.867 -0.0904  0.1468  0.0319
  998MOL0     N31621   4.490  -0.045   2.755  0.4890 -1.0751  0.6327
  998MOL0     C31622   4.512  -0.139   2.650 -0.1834 -0.2105 -0.1768
  998MOL0     C31623   4.401  -0.126   2.565  0.6027 -1.1304 -0.8546
  998MOL0     C31624   4.399  -0.208   2.438  0.4115  0.5069  0.3254
  998MOL0     C31625   4.273  -0.176   2.352 -0.1163 -0.3284 -0.1441
  998MOL0     C31626   4.134  -0.190   2.433  0.5847 -0.0316  1.1380
  998MOL0     C31627   4.008  -0.165   2.338  0.5551 -0.1341 -0.2512
  998MOL0     O31628   4.004  -0.037   2.280  0.4993  0.0507  0.3652
  998MOL0     C31629   3.940  -0.034   2.153 -0.4167 -0.0821 -0.4929
  998MOL0     C31630   3.833  -0.118   2.127  0.5182 -0.5161  0.4822
  998MOL0     C31631   3.777  -0.122   2.001 -0.0432  0.2349  0.3379
  998MOL0     C31632   3.816  -0.035   1.899 -0.5887  0.1805  0.9928
  998MOL0     C31633   3.751  -0.028   1.763 -0.5884 -0.8646  0.3694
  998MOL0     O31634   3.649  -0.119   1.736 -0.4020 -0.4934 -0.4205
  998MOL0     C31635   3.583  -0.107   1.620 -0.3608 -0.7317  0.2987
  998MOL0     C31636   3.645  -0.133   1.497 -0.2499  0.9935 -0.4299
  998MOL0     C31637   3.590  -0.093   1.374  0.1490  0.0933 -0.0257
  998MOL0     C31638   3.464  -0.029   1.361  0.5550 -0.5985 -0.3077
  998MOL0     O31639   3.406   0.015   1.248  0.3476 -0.3809 -0.3544
  998MOL0     C31640   3.431  -0.044   1.124 -0.4543  0.1291  0.0142
  998MOL0     C31641   3.330   0.025   1.018 -0.0628  0.0536 -0.0967
  998MOL0     C31642   3.320  -0.055   0.890 -0.7037 -1.7773  0.1833
  998MOL0     C31643   3.439  -0.077   0.803  0.4619 -0.1872 -0.6765
  998MOL0     C31644   3.398  -0.123   0.661  0.1433 -0.2387 -0.3715
  998MOL0     C31645   3.334   0.003   0.583  0.3479 -0.3687 -0.6206
  998MOL0     C31646   3.303  -0.050   0.441 -0.0546 -0.1604 -0.3556
  998MOL0     C31647   3.237   0.057   0.345  0.1036  0.3886 -0.9735
  998MOL0    Cl31648   3.339   0.206   0.351 -0.2146 -0.4656 -0.2066
  998MOL0     C31649   3.407   0.003   1.484  0.2913  1.0004 -0.3400
  998MOL0     C31650   3.458  -0.039   1.612  0.5686 -0.4564 -0.2636
  998MOL0     O31651   3.800   0.049   1.680  0.1927  0.3593  0.0731
  998MOL0     C31652   3.932   0.043   1.929 -0.3051 -0.3871  0.7349
  998MOL0     C31653   3.994   0.042   2.053  0.3549  0.2348 -0.5186
  998MOL0     N31654   4.312  -0.026   2.622  0.0918 -0.7517 -0.6459
  998MOL0     N31655   4.375   0.030   2.718 -0.1715 -0.0989  0.3682
  998MOL0     C31656   4.274   0.859   3.161 -0.0428  0.3798  0.4480
  998MOL0     C31657   4.177   0.934   3.226  0.2326  0.5819  0.3573
  998MOL0     C31658   3.877   1.046   3.556  0.2294  0.6221 -0.5172
  998MOL0     C31659   3.869   1.047   3.697  0.0148  0.2155 -0.3642
  998MOL0     C31660   3.782   1.132   3.771 -0.2698  0.0229 -0.6157
  998MOL0     C31661   3.701   1.220   3.701 -0.6861 -0.1089 -0.7572
  998MOL0     O31662   3.643   1.317   3.779  0.0666  0.0334 -0.4573
  998MOL0     C31663   3.589   1.429   3.720 -0.7498 -0.4119 -1.2615
  998MOL0     C31664   3.462   1.399   3.647  0.0533 -0.2907 -0.3958
  998MOL0     C31665   3.340   1.389   3.742 -0.2130 -0.5868 -0.1784
  998MOL0     C31666   3.213   1.366   3.673  0.9980 -0.8061  0.2198
  998MOL0     C31667   3.193   1.224   3.655  0.0044  0.2481  0.3280
  998MOL0     C31668   3.191   1.103   3.651  0.6241 -0.0455 -0.2987
  998MOL0     C31669   3.703   1.218   3.561 -0.4143 -0.8803  0.1190
  998MOL0     C31670   3.793   1.132   3.486  0.0001  0.6189  0.2106
  998MOL0     H31671   3.945   0.692   3.289  1.2753 -2.5691  0.9002
  998MOL0     H31672   4.112   0.556   3.162 -1.9926 -0.2361 -2.9052
  998MOL0     H31673   4.514   0.723   3.094  0.1967  0.5856  0.2824
  998MOL0     H31674   4.441   0.768   2.940  4.2123  1.5065  1.6900
  998MOL0     H31675   4.626   0.599   2.880 -0.9452 -0.4735 -3.4986
  998MOL0     H31676   4.468   0.552   2.841 -0.0645 -0.1763 -0.1061
  998MOL0     H31677   4.471   0.436   3.085 -0.1983  1.0726 -0.1946
  998MOL0     H31678   4.650   0.450   3.065  0.3726 -1.2899 -0.0594
  998MOL0     H31679   4.586   0.233   3.006  0.7818  0.3707  0.6661
  998MOL0     H31680   4.464   0.300   2.904 -0.5355  1.8061 -0.4066
  998MOL0     H31681   4.783   0.316   2.888 -0.4074  1.7723 -0.4105
  998MOL0     H31682   4.695   0.403   2.776 -0.0366 -0.5106 -0.5810
  998MOL0     H31683   4.770   0.202   2.676 -1.5577  1.3639 -1.1815
  998MOL0     H31684   4.590   0.179   2.684  0.4881  2.9765 -2.0266
  998MOL0     H31685   4.772  -0.010   2.756  2.0890  0.5779  0.5085
  998MOL0     H31686   4.762   0.073   2.908 -0.4199 -0.3268  0.0810
  998MOL0     H31687   4.510   0.046   2.937  0.0354 -0.0070  0.2702
  998MOL0     H31688   4.603  -0.106   2.912  4.4840 -0.8853 -4.3091
  998MOL0     H31689   4.598  -0.206   2.648  0.9020  1.0687  0.9442
  998MOL0     H31690   4.396  -0.315   2.459 -2.1561  0.1456 -1.4177
  998MOL0     H31691   4.492  -0.197   2.381  1.9628 -0.8582  2.4537
  998MOL0     H31692   4.278  -0.242   2.265  1.4995 -1.0964  0.4850
  998MOL0     H31693   4.285  -0.074   2.314 -2.2280  0.6067  1.4860
  998MOL0     H31694   4.130  -0.285   2.487  1.4177  1.0307  3.1754
  998MOL0     H31695   4.125  -0.112   2.510  0.1715  0.4043  0.6569
  998MOL0     H31696   3.916  -0.169   2.399 -0.3334 -0.1239 -1.5533
  998MOL0     H31697   4.000  -0.249   2.268 -0.0679 -1.2240  1.0712
  998MOL0     H31698   3.790  -0.180   2.205  3.0187 -2.6417  0.3025
  998MOL0     H31699   3.701  -0.197   1.981  2.4342 -2.6534  1.1242
  998MOL0     H31700   3.738  -0.189   1.508 -1.0760  0.0721  3.8012
  998MOL0     H31701   3.647  -0.100   1.282 -1.8829  0.3086 -1.3757
  998MOL0     H31702   3.407  -0.151   1.128 -2.3167  0.5120  0.3011
  998MOL0     H31703   3.534  -0.031   1.089 -0.2441  2.4336  1.2534
  998MOL0     H31704   3.365   0.121   0.979  1.8067 -0.5885 -0.0970
  998MOL0     H31705   3.235   0.026   1.073  1.3455  0.5877  2.4725
  998MOL0     H31706   3.240  -0.007   0.833  0.5067  0.8156  0.5329
  998MOL0     H31707   3.271  -0.145   0.929 -0.8149 -2.2772 -1.0629
  998MOL0     H31708   3.510   0.006   0.797 -0.6981  0.9213  0.2247
  998MOL0     H31709   3.493  -0.155   0.858 -0.4022  0.6416  1.4669
  998MOL0     H31710   3.315  -0.194   0.665 -0.9525  1.0722  1.5969
  998MOL0     H31711   3.479  -0.184   0.620 -0.9899 -2.7824  0.9891
  998MOL0     H31712   3.401   0.089   0.574  0.8304 -0.6622  0.1319
  998MOL0     H31713   3.238   0.038   0.623 -1.9805 -3.2640 -3.1107
  998MOL0     H31714   3.395  -0.069   0.385 -1.0287  2.7080 -3.2509
  998MOL0     H31715   3.251  -0.147   0.440 -0.0407 -0.2322  1.6859
  998MOL0     H31716   3.137   0.077   0.385  0.2331 -2.9489  1.4733
  998MOL0     H31717   3.235   0.015   0.244  2.3365 -2.5476  0.0611
  998MOL0     H31718   3.312   0.055   1.480  0.2397  1.1555  1.6270
  998MOL0     H31719   3.396  -0.023   1.700 -0.7917 -4.0516 -0.3777
  998MOL0     H31720   3.974   0.111   1.855 -1.3216  0.4423  0.8829
  998MOL0     H31721   4.082   0.093   2.090  1.5911 -1.1692 -1.3974
  998MOL0     H31722   4.357   0.905   3.109 -1.0484  0.9020 -0.7553
  998MOL0     H31723   4.190   1.041   3.242  0.5613  0.8984 -1.7629
  998MOL0     H31724   3.938   0.979   3.747  0.2951 -1.7247 -3.1721
  998MOL0     H31725   3.777   1.126   3.879 -1.9174  0.8493 -0.6121
  998MOL0     H31726   3.663   1.470   3.652 -0.4125  3.6141  1.2006
  998MOL0     H31727   3.575   1.499   3.804 -1.6001 -1.6946 -0.2921
  998MOL0     H31728   3.447   1.487   3.583 -1.0201  0.7041  1.1389
  998MOL0     H31729   3.463   1.301   3.599  1.5243 -1.3501  1.6677
  998MOL0     H31730   3.343   1.475   3.810  1.1666 -1.6805  1.2195
  998MOL0     H31731   3.361   1.310   3.815 -1.4406 -0.6847  0.0840
  998MOL0     H31732   3.139   1.409   3.743  1.6287  0.4143  0.1665
  998MOL0     H31733   3.213   1.415   3.576  1.4582 -2.7123 -0.7935
  998MOL0     H31734   3.198   0.997   3.638 -0.8412 -0.1255 -0.5654
  998MOL0     H31735   3.626   1.267   3.502 -1.8357 -3.0747  0.0448
  998MOL0     H31736   3.785   1.123   3.378  0.0130  1.9652  0.0802
  999MOL0     O31737   4.644   1.056   6.810 -0.6288 -0.8066 -1.5590
  999MOL0     C31738   4.647   1.029   6.685 -0.4713 -0.2363  0.3690
  999MOL0     O31739   4.750   1.036   6.602 -0.1818  0.4053  0.2361
  999MOL0     C31740   4.874   1.050   6.647 -0.1580 -0.1797 -0.4573
  999MOL0     C31741   4.976   0.966   6.600  0.5003  0.1413 -0.3617
  999MOL0     C31742   5.102   0.983   6.652 -0.5969 -0.0309 -0.2113
  999MOL0     C31743   5.136   1.067   6.765 -1.6325 -0.2351  0.6520
  999MOL0     O31744   5.250   1.086   6.837 -0.7193  0.2977  0.1968
  999MOL0     C31745   5.254   0.992   6.946 -1.2879 -0.4233  0.3238
  999MOL0     C31746   5.371   1.024   7.043  0.0421 -0.2097  0.1473
  999MOL0     C31747   5.339   1.158   7.126 -0.2625  0.2842 -0.4122
  999MOL0     C31748   5.459   1.180   7.222 -0.7533  0.2016  0.0868
  999MOL0     C31749   5.573   1.083   7.227 -0.2355 -0.1560 -0.4849
  999MOL0     C31750   5.687   1.160   7.293  0.0478 -0.3922 -0.1418
  999MOL0     C31751   5.808   1.077   7.307 -0.2007  0.3447  1.0625
  999MOL0     C31752   5.874   1.062   7.165 -0.4244  0.2738  0.5138
  999MOL0     N31753   6.009   0.993   7.189 -0.5345  0.5838  0.7380
  999MOL0     C31754   6.109   1.035   7.274  0.1836  0.1855 -0.6244
  999MOL0     C31755   6.209   0.957   7.237 -0.5988 -0.7434 -0.2585
  999MOL0     C31756   6.353   0.990   7.281 -0.5919  0.6021  0.1503
  999MOL0     C31757   6.442   1.056   7.175  0.1365 -0.1406  0.3843
  999MOL0     C31758   6.515   0.975   7.066 -0.7117  0.2864 -0.0249
  999MOL0     C31759   6.621   1.063   6.994  0.1125 -1.0222 -0.0353
  999MOL0     O31760   6.741   1.059   7.071 -0.2362 -0.7596 -0.3190
  999MOL0     C31761   6.863   1.074   7.007  0.2078 -0.5839  0.4867
  999MOL0     C31762   6.970   1.023   7.076 -0.6326 -0.1423 -0.5999
  999MOL0     C31763   7.099   1.037   7.029 -0.2149 -0.0339 -0.0401
  999MOL0     C31764   7.122   1.105   6.906 -0.0255  0.4760  0.5132
  999MOL0     C31765   7.255   1.123   6.853 -0.1925  0.6863  0.4563
  999MOL0     O31766   7.268   1.188   6.735  0.7269  0.3159 -0.8585
  999MOL0     C31767   7.398   1.226   6.711  0.2536 -0.4895 -1.1284
  999MOL0     C31768   7.449   1.353   6.748 -1.2052 -0.8560 -0.0582
  999MOL0     C31769   7.579   1.392   6.722  0.2717  0.3038  0.2140
  999MOL0     C31770   7.671   1.300   6.669  0.4055 -0.1423  0.4278
  999MOL0     O31771   7.798   1.343   6.646 -0.1406  0.1101 -0.4193
  999MOL0     C31772   7.831   1.389   6.508  0.2555 -0.1168 -0.5535
  999MOL0     C31773   7.901   1.278   6.433 -0.1478  0.5894 -0.3558
  999MOL0     C31774   7.938   1.327   6.293  0.3082 -0.4820  0.3710
  999MOL0     C31775   8.008   1.212   6.218  0.3466 -0.3227  0.4285
  999MOL0     C31776   8.052   1.246   6.079  0.7445 -0.3305 -0.1296
  999MOL0     C31777   7.949   1.228   5.961  0.5460 -0.7074 -0.1585
  999MOL0     C31778   7.998   1.325   5.846  0.2610  0.1429  0.2797
  999MOL0     C31779   7.965   1.477   5.861  0.2850 -0.6290  0.4332
  999MOL0    Cl31780   7.796   1.518   5.822 -0.6718  0.3671 -0.1286
  999MOL0     C31781   7.622   1.178   6.623 -0.4184  0.8713 -0.5470
  999MOL0     C31782   7.480   1.140   6.643 -0.5793 -0.4807  0.2555
  999MOL0     O31783   7.343   1.063   6.915 -0.4092  0.4985 -0.5314
  999MOL0     C31784   7.010   1.147   6.835 -0.6623 -0.6076  1.2094
  999MOL0     C31785   6.884   1.135   6.893 -0.4395  0.1013 -0.2328
  999MOL0     N31786   6.163   0.867   7.138  0.1236 -0.2323 -0.1188
  999MOL0     N31787   6.043   0.886   7.108  1.2626 -0.0039  0.2065
  999MOL0     C31788   5.034   1.164   6.800  0.3559 -0.5298 -0.0885
  999MOL0     C31789   4.908   1.162   6.731  0.3355  0.0144 -0.2354
  999MOL0     C31790   4.521   1.006   6.608  0.1544  0.5459 -0.0516
  999MOL0     C31791   4.398   1.046   6.665  0.7732 -0.4168 -0.4689
  999MOL0     C31792   4.286   1.049   6.578  0.4899 -0.5353 -0.0010
  999MOL0     C31793   4.292   1.019   6.444  0.0475  0.0227 -0.1548
  999MOL0     O31794   4.179   1.032   6.367 -0.3957 -0.8368 -0.2906
  999MOL0     C31795   4.153   0.944   6.263  0.3785 -0.7229  0.0753
  999MOL0     C31796   4.168   1.004   6.129 -0.2425 -0.6817  0.4502
  999MOL0     C31797   4.075   1.116   6.078 -0.7790 -0.7441  0.0707
  999MOL0     C31798   3.953   1.092   5.972 -0.0924  0.1804 -0.6224
  999MOL0     C31799   3.871   0.986   6.030  0.3646 -0.1323 -0.4028
  999MOL0     C31800   3.811   0.898   6.091  0.2851 -0.6951  0.0567
  999MOL0     C31801   4.411   0.982   6.386 -1.0977  0.5622 -0.0032
  999MOL0     C31802   4.530   0.982   6.462 -0.1753 -0.1382 -0.5112
  999MOL0     H31803   4.953   0.879   6.539 -2.0348 -1.2316  2.2960
  999MOL0     H31804   5.184   0.922   6.616  0.2793  1.4269 -0.7816
  999MOL0     H31805   5.267   0.893   6.900  0.7187  0.4357 -1.0740
  999MOL0     H31806   5.155   0.975   6.990 -2.3756 -0.1581 -1.8866
  999MOL0     H31807   5.460   1.037   6.981  1.4381  2.1032  2.4289
  999MOL0     H31808   5.374   0.937   7.109 -1.2427 -1.5432 -1.4538
  999MOL0     H31809   5.242   1.162   7.175  1.6285  0.2815  3.7584
  999MOL0     H31810   5.351   1.239   7.054 -1.5031  1.3031  0.4848
  999MOL0     H31811   5.496   1.278   7.192 -4.8977  1.3364 -2.0911
  999MOL0     H31812   5.411   1.202   7.318  0.0434  0.7661  0.3630
  999MOL0     H31813   5.609   1.058   7.127 -1.1729  0.7772 -1.0784
  999MOL0     H31814   5.544   0.995   7.285 -2.2686  1.4293  1.0692
  999MOL0     H31815   5.649   1.186   7.393  0.5127 -2.9661  0.7843
  999MOL0     H31816   5.708   1.245   7.229  1.2529 -2.7513 -3.1185
  999MOL0     H31817   5.881   1.123   7.375 -0.0063 -2.0169  2.5714
  999MOL0     H31818   5.789   0.982   7.357  0.5720  0.8117  2.3093
  999MOL0     H31819   5.883   1.161   7.120 -1.5940  0.0882 -0.1582
  999MOL0     H31820   5.825   0.990   7.099 -2.6509  0.9778  1.2879
  999MOL0     H31821   6.099   1.121   7.339 -1.5458  1.2682 -2.2239
  999MOL0     H31822   6.400   0.896   7.311  0.6440  0.4914 -1.9510
  999MOL0     H31823   6.353   1.045   7.376 -0.2944 -2.3315  1.9625
  999MOL0     H31824   6.522   1.093   7.241  0.5982 -0.5981  0.0845
  999MOL0     H31825   6.383   1.135   7.126 -1.4567 -1.3705  0.2514
  999MOL0     H31826   6.561   0.886   7.111  0.7307 -0.0604 -2.0325
  999MOL0     H31827   6.450   0.932   6.990 -1.7997  0.7070  0.6548
  999MOL0     H31828   6.583   1.166   6.988 -0.4850 -1.1993  0.5589
  999MOL0     H31829   6.629   1.016   6.895  1.0124 -3.8897  1.2957
  999MOL0     H31830   6.958   0.972   7.171  1.6435  0.0949 -0.1276
  999MOL0     H31831   7.179   0.996   7.089  0.8470  2.8551  0.6672
  999MOL0     H31832   7.380   1.418   6.801  2.7050  2.2284  1.7234
  999MOL0     H31833   7.610   1.491   6.755  0.7586  0.4746 -0.7134
  999MOL0     H31834   7.902   1.470   6.531 -0.0063 -0.3386  1.2054
  999MOL0     H31835   7.749   1.427   6.447 -1.3214 -1.4708  0.6295
  999MOL0     H31836   7.843   1.186   6.441  0.9976 -0.0144  2.4294
  999MOL0     H31837   7.989   1.249   6.491 -0.6451 -1.0383 -0.3611
  999MOL0     H31838   7.996   1.419   6.283 -3.1869  1.7048 -1.8880
  999MOL0     H31839   7.846   1.356   6.241  1.6657  2.1543 -0.7477
  999MOL0     H31840   8.093   1.178   6.278  2.7950  2.4647 -1.1932
  999MOL0     H31841   7.938   1.128   6.214  2.4382 -2.0918 -0.4340
  999MOL0     H31842   8.139   1.180   6.064  1.0619 -0.2462  1.2024
  999MOL0     H31843   8.085   1.350   6.068 -0.5193  0.2931  1.6196
  999MOL0     H31844   7.849   1.255   5.996  0.6414  1.8349 -1.5908
  999MOL0     H31845   7.943   1.122   5.934  1.3032 -1.3110  1.8807
  999MOL0     H31846   8.107   1.321   5.833  0.0238  0.0665 -2.4003
  999MOL0     H31847   7.944   1.287   5.759  2.1946 -0.6068 -0.6715
  999MOL0     H31848   8.021   1.547   5.798 -2.1695  1.3942  0.3250
  999MOL0     H31849   7.989   1.502   5.964 -0.9967  0.7911  0.4333
  999MOL0     H31850   7.682   1.111   6.563 -1.6193  1.0650 -2.0473
  999MOL0     H31851   7.426   1.053   6.607 -1.3132 -0.3323  0.9681
  999MOL0     H31852   7.023   1.178   6.732  1.2215  1.3916  1.9651
  999MOL0     H31853   6.807   1.185   6.835  1.0336  0.1052 -2.3083
  999MOL0     H31854   5.050   1.236   6.879  0.8579 -0.7846  0.0484
  999MOL0     H31855   4.834   1.237   6.757  1.5376  0.5724  1.8336
  999MOL0     H31856   4.387   1.066   6.771  0.0924  1.4331 -0.8542
  999MOL0     H31857   4.182   1.055   6.611  1.1388 -1.4789  2.3985
  999MOL0     H31858   4.052   0.902   6.270 -0.5202  1.5357  2.3410
  999MOL0     H31859   4.217   0.856   6.255 -0.6502 -1.6922  2.0156
  999MOL0     H31860   4.271   1.040   6.122  0.5056 -2.6760  0.2743
  999MOL0     H31861   4.163   0.922   6.056 -0.8926 -1.6906  1.5936
  999MOL0     H31862   4.129   1.201   6.036 -4.3705  1.7306 -0.0410
  999MOL0     H31863   4.021   1.155   6.166 -3.1086  1.4517 -2.1283
  999MOL0     H31864   3.898   1.186   5.956 -0.8425 -0.4898 -2.1631
  999MOL0     H31865   3.982   1.057   5.873 -2.1585  0.5709 -1.4068
  999MOL0     H31866   3.752   0.817   6.129  1.7908 -1.2177  1.3859
  999MOL0     H31867   4.415   0.931   6.290 -0.6488 -0.6704  0.6453
  999MOL0     H31868   4.628   0.964   6.418 -0.8891 -0.7016 -1.9060
 1000MOL0     O31869  10.302   9.921   0.653  0.5978  0.2819  0.3963
 1000MOL0     C31870  10.374   9.957   0.561 -0.0326 -0.1921 -0.1422
 1000MOL0     O31871  10.346   9.929   0.433 -0.5408 -0.4639 -0.3094
 1000MOL0     C31872  10.251   9.840   0.397  0.9266 -0.0385 -0.1338
 1000MOL0     C31873  10.120   9.885   0.343  0.2810  0.3666 -0.2242
 1000MOL0     C31874  10.029   9.791   0.299 -0.2012 -0.4438 -0.3526
 1000MOL0     C31875  10.058   9.655   0.316 -0.6122 -0.4427 -0.5628
 1000MOL0     O31876   9.968   9.560   0.300 -0.1123 -0.4342  0.4796
 1000MOL0     C31877   9.846   9.572   0.227  0.7559 -0.8362  0.1625
 1000MOL0     C31878   9.830   9.431   0.165 -0.1052  0.5482 -0.4762
 1000MOL0     C31879   9.686   9.416   0.105 -1.1078  0.0370 -0.8164
 1000MOL0     C31880   9.652   9.271   0.080 -0.0652  0.2502  0.1718
 1000MOL0     C31881   9.509   9.248   0.030  0.1301  0.5980 -0.1681
 1000MOL0     C31882   9.433   9.198   0.153 -0.0150 -0.1393 -0.5168
 1000MOL0     C31883   9.334   9.083   0.121  1.0108  1.1220  0.9401
 1000MOL0     C31884   9.407   8.955   0.104 -0.7856 -0.6431  0.2076
 1000MOL0     N31885   9.333   8.839   0.053 -0.2904 -0.7522  0.2953
 1000MOL0     C31886   9.363   8.707   0.075  0.4831  0.3637  0.6232
 1000MOL0     C31887   9.283   8.636  -0.010  0.5671  1.3957  0.2446
 1000MOL0     C31888   9.296   8.491  -0.033 -0.0489  0.3018  0.6284
 1000MOL0     C31889   9.405   8.456  -0.146 -0.1969  0.1343 -0.0627
 1000MOL0     C31890   9.552   8.485  -0.120 -0.0965 -0.7219  0.2930
 1000MOL0     C31891   9.627   8.487  -0.252 -0.6005 -0.7234  0.2226
 1000MOL0     O31892   9.630   8.345  -0.300 -0.4107 -0.4338 -0.8944
 1000MOL0     C31893   9.666   8.318  -0.432  0.4834  0.6124  0.1154
 1000MOL0     C31894   9.703   8.411  -0.530  0.5178  0.4179  0.8747
 1000MOL0     C31895   9.720   8.367  -0.669 -0.0688 -0.6897 -0.4297
 1000MOL0     C31896   9.716   8.227  -0.700  0.3573  0.0608 -0.6086
 1000MOL0     C31897   9.739   8.175  -0.838  0.8449 -1.3328  0.2451
 1000MOL0     O31898   9.784   8.271  -0.928 -0.2978  0.2104  0.3853
 1000MOL0     C31899   9.787   8.223  -1.067  0.5254  0.3535 -0.9359
 1000MOL0     C31900   9.687   8.263  -1.158  0.6175  0.4108  0.2658
 1000MOL0     C31901   9.684   8.210  -1.283  0.4655  0.6023  0.2186
 1000MOL0     C31902   9.787   8.130  -1.338  0.2648 -0.8455  0.1275
 1000MOL0     O31903   9.773   8.075  -1.462 -0.3097 -0.1997  0.5111
 1000MOL0     C31904   9.896   8.027  -1.515  0.0667  0.2656  0.2238
 1000MOL0     C31905   9.882   7.959  -1.660  0.5278  0.8577 -0.6397
 1000MOL0     C31906   9.780   7.851  -1.672  0.3999 -0.5747 -0.2758
 1000MOL0     C31907   9.781   7.789  -1.811  0.0540  0.4765 -0.2067
 1000MOL0     C31908   9.645   7.718  -1.840 -0.3879 -0.1180  0.2626
 1000MOL0     C31909   9.597   7.607  -1.743  0.0821  0.2117 -1.2701
 1000MOL0     C31910   9.468   7.545  -1.796  0.3736  0.5679  0.6174
 1000MOL0     C31911   9.485   7.445  -1.910  0.4000  0.2262  0.3119
 1000MOL0    Cl31912   9.333   7.387  -1.964 -0.4571 -0.1705 -0.4737
 1000MOL0     C31913   9.884   8.091  -1.245  0.3686  0.3502  0.2507
 1000MOL0     C31914   9.890   8.141  -1.116  0.0204 -0.3054  0.3409
 1000MOL0     O31915   9.695   8.064  -0.867 -0.2231 -0.0125 -0.7858
 1000MOL0     C31916   9.684   8.137  -0.602  0.2255 -0.8059 -0.4932
 1000MOL0     C31917   9.667   8.180  -0.465 -0.6372 -0.0541  0.5101
 1000MOL0     N31918   9.212   8.727  -0.087  0.2900  0.4611  0.9894
 1000MOL0     N31919   9.246   8.846  -0.051  0.9232 -1.3357 -0.4537
 1000MOL0     C31920  10.177   9.612   0.376 -0.1857 -0.0774 -0.1264
 1000MOL0     C31921  10.273   9.707   0.424  0.8236  0.2122  0.3358
 1000MOL0     C31922  10.481  10.056   0.601 -0.2116 -0.2724 -0.5727
 1000MOL0     C31923  10.562  10.124   0.511  0.4108  0.6479  0.2943
 1000MOL0     C31924  10.666  10.212   0.549  0.2978  0.2168  0.3730
 1000MOL0     C31925  10.689  10.229   0.687 -0.6119 -0.0825 -0.2844
 1000MOL0     O31926  10.792  10.318   0.725  0.1055 -0.9610 -0.4562
 1000MOL0     C31927  10.761  10.389   0.848 -0.6639  1.1089  0.4760
 1000MOL0     C31928  10.828  10.328   0.972 -0.2829 -0.6751  1.0459
 1000MOL0     C31929  10.749  10.369   1.098  0.5750 -0.3616  0.2201
 1000MOL0     C31930  10.813  10.323   1.227 -0.7100 -0.9846 -0.8120
 1000MOL0     C31931  10.842  10.177   1.253  0.8040  0.2072  0.2329
 1000MOL0     C31932  10.862  10.061   1.264  0.4519 -0.7125  0.7543
 1000MOL0     C31933  10.610  10.161   0.778 -0.4984 -0.3173 -0.3338
 1000MOL0     C31934  10.511  10.070   0.738  0.3642  0.1561 -0.5463
 1000MOL0     H31935  10.103   9.992   0.344 -2.5541 -0.0110  0.5198
 1000MOL0     H31936   9.928   9.814   0.264  0.2550  0.2599 -1.2528
 1000MOL0     H31937   9.848   9.648   0.148 -1.9089 -0.5406  0.2947
 1000MOL0     H31938   9.761   9.599   0.289  0.5494  3.1545 -1.5480
 1000MOL0     H31939   9.850   9.361   0.247 -1.8383 -1.4295 -1.6495
 1000MOL0     H31940   9.896   9.406   0.081  0.9924  2.5151 -0.2548
 1000MOL0     H31941   9.690   9.479   0.016 -2.2648  3.1288  1.1097
 1000MOL0     H31942   9.603   9.459   0.162 -0.5868 -0.4925  0.3861
 1000MOL0     H31943   9.718   9.243  -0.003 -3.0960  1.4861 -2.9282
 1000MOL0     H31944   9.674   9.204   0.163 -0.7004  0.1450  0.2642
 1000MOL0     H31945   9.502   9.178  -0.054 -0.9763 -1.9380  1.8870
 1000MOL0     H31946   9.451   9.340   0.019 -1.4916 -0.0242  2.3950
 1000MOL0     H31947   9.380   9.272   0.213  1.0057 -1.5234  2.2729
 1000MOL0     H31948   9.497   9.146   0.225  2.5568  0.8471 -1.9375
 1000MOL0     H31949   9.250   9.078   0.191 -2.0244  1.7845 -2.3636
 1000MOL0     H31950   9.283   9.112   0.029  1.8282  1.4325  0.5724
 1000MOL0     H31951   9.460   8.926   0.194  1.0725 -0.9865 -0.9508
 1000MOL0     H31952   9.486   8.981   0.033 -0.9873  0.1322  0.2534
 1000MOL0     H31953   9.445   8.662   0.130  3.0667  4.2920  0.3492
 1000MOL0     H31954   9.201   8.446  -0.062 -1.2858  2.5599  0.9402
 1000MOL0     H31955   9.337   8.447   0.058  0.2651 -1.1206 -0.1649
 1000MOL0     H31956   9.368   8.506  -0.237 -0.0919 -0.5359 -0.4788
 1000MOL0     H31957   9.407   8.347  -0.151  0.9719  0.0688  1.3559
 1000MOL0     H31958   9.558   8.583  -0.071 -3.6164 -0.1171 -0.2039
 1000MOL0     H31959   9.601   8.415  -0.052  0.5829  0.7880  1.4244
 1000MOL0     H31960   9.729   8.522  -0.235 -1.1256  1.9342 -1.6409
 1000MOL0     H31961   9.599   8.557  -0.330 -0.7603 -0.0038  0.9138
 1000MOL0     H31962   9.692   8.518  -0.517 -1.8423  0.3658 -0.2908
 1000MOL0     H31963   9.747   8.443  -0.741  3.3950 -2.3841 -1.1174
 1000MOL0     H31964   9.610   8.330  -1.122  2.3472  1.2163  2.7835
 1000MOL0     H31965   9.604   8.235  -1.352  3.1673 -0.1904 -3.5106
 1000MOL0     H31966   9.931   7.940  -1.459 -0.8929 -0.6550 -0.5716
 1000MOL0     H31967   9.974   8.104  -1.521  0.4886  0.1437  2.9447
 1000MOL0     H31968   9.981   7.917  -1.676  0.8757 -0.1150  3.0270
 1000MOL0     H31969   9.866   8.043  -1.728  0.8541  0.3215 -1.3918
 1000MOL0     H31970   9.678   7.888  -1.661  0.4374 -0.0275 -1.5845
 1000MOL0     H31971   9.792   7.772  -1.598  4.9334  2.8419  3.1853
 1000MOL0     H31972   9.800   7.851  -1.899 -0.2390 -0.8927 -1.2862
 1000MOL0     H31973   9.866   7.724  -1.832  1.1966  1.7086  0.4815
 1000MOL0     H31974   9.633   7.685  -1.944  1.6284 -0.6986  0.1783
 1000MOL0     H31975   9.561   7.787  -1.846 -2.3414 -2.4638 -1.5730
 1000MOL0     H31976   9.567   7.640  -1.643 -0.1441 -0.8612 -0.9686
 1000MOL0     H31977   9.681   7.538  -1.733  1.1032  1.7351  2.6253
 1000MOL0     H31978   9.432   7.484  -1.713  4.1757 -0.2221  1.9145
 1000MOL0     H31979   9.397   7.626  -1.815 -0.2183  0.4820  2.2913
 1000MOL0     H31980   9.543   7.356  -1.882 -2.6514 -1.5640  1.3869
 1000MOL0     H31981   9.525   7.503  -1.994 -0.1568 -0.0134 -0.1251
 1000MOL0     H31982   9.966   8.022  -1.265 -0.6665 -1.6971  2.4976
 1000MOL0     H31983   9.971   8.129  -1.044 -0.5159 -0.6125  0.9063
 1000MOL0     H31984   9.677   8.029  -0.610 -1.7197 -0.6182 -2.0332
 1000MOL0     H31985   9.635   8.115  -0.384 -2.3329  0.5074  0.3303
 1000MOL0     H31986  10.200   9.507   0.395  1.4403  0.4584  1.1103
 1000MOL0     H31987  10.366   9.675   0.471  2.7759 -0.6078 -3.5897
 1000MOL0     H31988  10.544  10.112   0.404  2.8803  1.1997 -0.2578
 1000MOL0     H31989  10.705  10.280   0.474 -2.0999 -0.4587 -1.6067
 1000MOL0     H31990  10.655  10.398   0.870 -0.5782  0.7242  1.0619
 1000MOL0     H31991  10.808  10.484   0.822 -2.4077  0.9268 -4.3113
 1000MOL0     H31992  10.834  10.220   0.959  1.4759 -0.5242  0.3529
 1000MOL0     H31993  10.933  10.356   0.988 -0.6046  1.4321 -0.1247
 1000MOL0     H31994  10.651  10.322   1.087  0.5836  0.0687 -2.5499
 1000MOL0     H31995  10.732  10.477   1.089 -0.8851 -0.3758  2.1775
 1000MOL0     H31996  10.906  10.377   1.245 -1.1500 -0.7696  1.0895
 1000MOL0     H31997  10.752  10.364   1.308 -2.2868  1.7222 -3.2040
 1000MOL0     H31998  10.889   9.957   1.274 -2.5230 -1.6618  0.1690
 1000MOL0     H31999  10.624  10.160   0.886 -1.1064 -0.9291 -0.2488
 1000MOL0     H32000  10.463  10.006   0.812  2.1189  0.1114  0.6166
 1001MOL0     O32001   2.851  10.341   0.633 -0.7405  0.1416 -0.5257
 1001MOL0     C32002   2.847  10.450   0.586  0.4221 -0.7509 -0.4225
 1001MOL0     O32003   2.727  10.520   0.552  0.5472 -0.0026  0.6829
 1001MOL0     C32004   2.604  10.457   0.567 -0.1249  1.0766  0.4070
 1001MOL0     C32005   2.527  10.422   0.463 -0.1678 -0.0261 -0.2337
 1001MOL0     C32006   2.403  10.359   0.475  0.0092 -0.4604  0.7388
 1001MOL0     C32007   2.351  10.345   0.596  0.1099  0.1246  0.2515
 1001MOL0     O32008   2.229  10.286   0.600  0.4432  0.1134 -0.1928
 1001MOL0     C32009   2.166  10.288   0.730  0.0303  0.8778 -0.2030
 1001MOL0     C32010   2.021  10.271   0.703  1.2333 -0.6137 -0.7459
 1001MOL0     C32011   1.982  10.124   0.667 -0.6528 -0.4980  0.0991
 1001MOL0     C32012   1.958  10.109   0.513 -0.2814  0.1727  0.5816
 1001MOL0     C32013   1.905   9.969   0.488  0.2698 -0.5718  0.4366
 1001MOL0     C32014   1.860   9.936   0.342 -0.3564  1.0725 -1.1933
 1001MOL0     C32015   1.736  10.015   0.316 -0.4665 -0.2366  0.4824
 1001MOL0     C32016   1.665   9.947   0.201  0.3880 -0.7798  0.1033
 1001MOL0     N32017   1.730   9.949   0.070 -0.5484  0.1657 -0.2338
 1001MOL0     C32018   1.809   9.857   0.003 -1.6507 -0.2206  0.0287
 1001MOL0     C32019   1.827   9.904  -0.124 -1.0442  0.5422  0.0349
 1001MOL0     C32020   1.869   9.818  -0.239  0.6338  0.1183 -0.5026
 1001MOL0     C32021   1.913   9.893  -0.368 -0.4017  0.0952  0.7586
 1001MOL0     C32022   1.978   9.791  -0.472 -1.0316 -0.4923  0.4345
 1001MOL0     C32023   2.052   9.886  -0.580  0.0466 -0.2459 -0.3936
 1001MOL0     O32024   2.163   9.955  -0.532  0.4159  0.0998  0.7702
 1001MOL0     C32025   2.287   9.903  -0.541 -0.4655  0.8457 -0.0188
 1001MOL0     C32026   2.319   9.767  -0.508 -0.1368 -0.1444  0.5080
 1001MOL0     C32027   2.448   9.720  -0.501 -1.1688 -0.7043  0.5203
 1001MOL0     C32028   2.559   9.801  -0.554  0.0299  0.3472  0.1193
 1001MOL0     C32029   2.695   9.752  -0.571  0.3438 -0.8163 -0.6787
 1001MOL0     O32030   2.727   9.652  -0.481  0.1232  0.7534 -0.5881
 1001MOL0     C32031   2.853   9.616  -0.477 -0.5219 -0.0062 -0.1170
 1001MOL0     C32032   2.950   9.695  -0.415  0.3777 -0.4142 -0.5846
 1001MOL0     C32033   3.084   9.669  -0.429 -0.4368 -0.3224 -0.1183
 1001MOL0     C32034   3.127   9.551  -0.494  0.4727 -0.3157 -0.8039
 1001MOL0     O32035   3.261   9.541  -0.511 -0.0655  0.4176  1.0194
 1001MOL0     C32036   3.305   9.410  -0.570 -0.6238  0.6101 -0.8065
 1001MOL0     C32037   3.447   9.402  -0.530 -0.4927  0.0110  0.1491
 1001MOL0     C32038   3.536   9.461  -0.644  1.1303  0.8120  0.7452
 1001MOL0     C32039   3.669   9.522  -0.602  0.0493 -0.1590  0.6237
 1001MOL0     C32040   3.639   9.644  -0.522  0.0385 -0.1102 -0.2581
 1001MOL0     C32041   3.749   9.759  -0.528  0.5991 -0.1412  0.0499
 1001MOL0     C32042   3.869   9.719  -0.452 -0.1892  1.0711 -1.0435
 1001MOL0     C32043   3.950   9.843  -0.404  0.7326 -0.8168  0.6754
 1001MOL0    Cl32044   4.002   9.944  -0.539  0.1427 -0.1282  0.1048
 1001MOL0     C32045   3.026   9.468  -0.549 -0.6565  0.0862 -0.4665
 1001MOL0     C32046   2.897   9.493  -0.530  0.3216 -0.2906  1.2266
 1001MOL0     O32047   2.767   9.794  -0.659 -0.2221 -0.2972  0.7612
 1001MOL0     C32048   2.523   9.933  -0.595 -0.8056  0.7768 -0.0040
 1001MOL0     C32049   2.393   9.986  -0.580  0.4468  0.2391 -0.6395
 1001MOL0     N32050   1.770  10.028  -0.130 -0.0200 -0.1091 -0.6929
 1001MOL0     N32051   1.709  10.044  -0.021  0.0965  0.5279 -1.2124
 1001MOL0     C32052   2.425  10.381   0.710  0.2830  0.7109  0.4321
 1001MOL0     C32053   2.558  10.430   0.694 -0.6161  0.0544  1.4006
 1001MOL0     C32054   2.973  10.528   0.582 -0.5097 -0.1089 -0.0492
 1001MOL0     C32055   2.962  10.672   0.572  0.6012 -0.3132 -0.6196
 1001MOL0     C32056   3.072  10.761   0.577  0.3468 -0.5722 -0.1429
 1001MOL0     C32057   3.195  10.708   0.586 -0.0541 -0.3615 -0.4996
 1001MOL0     O32058   3.311  10.785   0.582  0.1220  0.0895  0.2812
 1001MOL0     C32059   3.311  10.900   0.671 -0.2883 -0.3702 -0.1384
 1001MOL0     C32060   3.400  10.877   0.790 -0.6886 -0.1333 -0.1633
 1001MOL0     C32061   3.349  10.770   0.885  0.5007  0.3390 -0.3517
 1001MOL0     C32062   3.213  10.786   0.943 -0.4149 -0.1868  0.4413
 1001MOL0     C32063   3.201  10.699   1.060  0.0395 -0.3800  0.3341
 1001MOL0     C32064   3.192  10.622   1.153 -0.2618  1.1508 -0.9049
 1001MOL0     C32065   3.217  10.570   0.594  0.3750  0.0225 -0.4227
 1001MOL0     C32066   3.106  10.480   0.593  0.1338 -0.6436 -0.3638
 1001MOL0     H32067   2.565  10.437   0.363 -4.8028 -0.5610 -2.3475
 1001MOL0     H32068   2.356  10.328   0.382 -1.7274  3.2989  0.1376
 1001MOL0     H32069   2.168  10.383   0.785  0.1724  1.9236 -1.9479
 1001MOL0     H32070   2.207  10.210   0.795  0.5858  1.6034  0.3594
 1001MOL0     H32071   1.983  10.341   0.628  2.9542 -0.8424 -1.8854
 1001MOL0     H32072   1.963  10.292   0.793  1.5688  0.5470 -0.7725
 1001MOL0     H32073   1.892  10.103   0.726 -0.3344 -0.0804  0.7436
 1001MOL0     H32074   2.054  10.054   0.711 -1.3127  2.1655  6.4915
 1001MOL0     H32075   1.884  10.188   0.494  0.0467  1.1470  2.9096
 1001MOL0     H32076   2.048  10.145   0.462  0.6320  3.6435  4.1248
 1001MOL0     H32077   1.830   9.944   0.564 -0.9858  1.9146  0.1332
 1001MOL0     H32078   1.983   9.895   0.506 -0.9417 -1.8688  0.5002
 1001MOL0     H32079   1.837   9.830   0.326  0.8338  1.2566 -5.4867
 1001MOL0     H32080   1.942   9.950   0.272  0.7077 -1.6096 -0.6190
 1001MOL0     H32081   1.670  10.011   0.403  0.6386 -0.0259  1.3613
 1001MOL0     H32082   1.768  10.118   0.297  2.5487 -1.2824 -0.7899
 1001MOL0     H32083   1.572   9.998   0.174  1.3047  0.4099 -0.9508
 1001MOL0     H32084   1.646   9.846   0.238 -1.6920  0.4588  2.7468
 1001MOL0     H32085   1.847   9.760   0.033  2.1525 -0.1077 -3.5363
 1001MOL0     H32086   1.781   9.759  -0.263  0.5106 -0.2109  0.6691
 1001MOL0     H32087   1.938   9.736  -0.217 -0.1911 -0.4897 -0.1344
 1001MOL0     H32088   1.985   9.975  -0.355 -0.8317  0.7993 -0.9662
 1001MOL0     H32089   1.821   9.936  -0.410 -0.4336 -0.2015  0.5242
 1001MOL0     H32090   2.050   9.735  -0.411  0.0808  0.4088 -0.0073
 1001MOL0     H32091   1.901   9.737  -0.527 -1.5243  1.4501 -0.9086
 1001MOL0     H32092   1.984   9.954  -0.633  0.9916 -0.9904 -2.6464
 1001MOL0     H32093   2.080   9.831  -0.670 -1.7655  1.2075 -1.9474
 1001MOL0     H32094   2.250   9.696  -0.464 -0.6918  1.3322  2.1376
 1001MOL0     H32095   2.466   9.619  -0.466 -2.8249 -2.3971 -2.9778
 1001MOL0     H32096   2.914   9.787  -0.371  1.2218 -1.0066  1.4804
 1001MOL0     H32097   3.149   9.735  -0.373 -1.1453  0.4235 -0.1560
 1001MOL0     H32098   3.278   9.416  -0.676  0.1405  2.9153 -0.9288
 1001MOL0     H32099   3.258   9.326  -0.519  2.2742 -0.7889 -0.3037
 1001MOL0     H32100   3.481   9.298  -0.525  2.6005  0.8451 -1.2628
 1001MOL0     H32101   3.458   9.453  -0.434 -2.7353 -1.4370  1.2653
 1001MOL0     H32102   3.479   9.538  -0.696  0.3134  1.2736  2.2494
 1001MOL0     H32103   3.551   9.381  -0.717 -0.8916  2.1072 -1.1927
 1001MOL0     H32104   3.722   9.454  -0.534  0.7922  0.4676  0.6899
 1001MOL0     H32105   3.728   9.556  -0.688 -1.1784 -0.2051 -0.2570
 1001MOL0     H32106   3.610   9.607  -0.424 -0.3487  2.0512  0.4852
 1001MOL0     H32107   3.551   9.692  -0.565  1.3269  1.7403 -0.9276
 1001MOL0     H32108   3.709   9.853  -0.488  0.7073 -0.3513  0.6644
 1001MOL0     H32109   3.773   9.780  -0.633  0.7705  1.1522  0.3361
 1001MOL0     H32110   3.840   9.680  -0.354 -0.8788 -2.1071 -2.3779
 1001MOL0     H32111   3.930   9.638  -0.494 -1.1228  1.3213 -2.9812
 1001MOL0     H32112   4.036   9.805  -0.349 -0.7811 -0.2539  3.6226
 1001MOL0     H32113   3.882   9.892  -0.334 -2.3377 -1.9132 -1.3012
 1001MOL0     H32114   3.060   9.373  -0.589  2.2799  0.9017 -0.1821
 1001MOL0     H32115   2.820   9.420  -0.550 -2.0983  2.5377 -0.6533
 1001MOL0     H32116   2.597   9.995  -0.644  2.3100 -1.3982  1.5837
 1001MOL0     H32117   2.382  10.091  -0.604 -0.3031  0.2492 -0.2607
 1001MOL0     H32118   2.389  10.374   0.812  1.4686  3.9888  1.1855
 1001MOL0     H32119   2.610  10.449   0.787  2.4489  1.2253 -0.4189
 1001MOL0     H32120   2.868  10.727   0.569  0.8180  0.2431  1.1958
 1001MOL0     H32121   3.054  10.865   0.554 -1.7598 -1.2059 -1.6866
 1001MOL0     H32122   3.211  10.933   0.704 -1.7047 -1.9562 -2.5610
 1001MOL0     H32123   3.346  10.990   0.619 -3.2071  0.1149 -1.4723
 1001MOL0     H32124   3.505  10.867   0.762  0.0221  1.7816  1.5802
 1001MOL0     H32125   3.402  10.969   0.848  3.3060 -0.5519  0.6396
 1001MOL0     H32126   3.425  10.751   0.961 -0.0528  2.1913  0.7384
 1001MOL0     H32127   3.349  10.675   0.830  0.6660 -1.9821  3.2861
 1001MOL0     H32128   3.198  10.893   0.965  1.2553  0.3112 -0.6604
 1001MOL0     H32129   3.140  10.763   0.865  1.1882 -3.2680 -0.2725
 1001MOL0     H32130   3.186  10.552   1.234 -1.3852  2.0370 -0.2114
 1001MOL0     H32131   3.315  10.523   0.598  0.1542 -0.3426  1.2995
 1001MOL0     H32132   3.124  10.373   0.597 -0.9140 -0.8634 -1.2206
 1002MOL0     O32133   6.758   4.359   2.978 -0.0648  0.2346  0.6020
 1002MOL0     C32134   6.807   4.247   2.965 -0.2997  0.5951  1.4447
 1002MOL0     O32135   6.731   4.132   2.950 -0.8111  0.1791 -0.6684
 1002MOL0     C32136   6.600   4.148   2.912  0.2441 -0.0230 -0.1926
 1002MOL0     C32137   6.490   4.102   2.988  0.6846  0.3340 -0.1338
 1002MOL0     C32138   6.361   4.107   2.933 -0.5499  0.4482  0.0406
 1002MOL0     C32139   6.350   4.143   2.799 -0.2771 -0.5666 -0.0888
 1002MOL0     O32140   6.232   4.125   2.747  0.4240  0.7442  0.4047
 1002MOL0     C32141   6.176   4.240   2.684 -0.0909 -0.0230 -1.0932
 1002MOL0     C32142   6.156   4.361   2.778  0.2406 -0.8637  0.5623
 1002MOL0     C32143   6.080   4.317   2.904 -0.4731 -0.2744 -0.4286
 1002MOL0     C32144   6.052   4.435   2.999  0.5515  0.1348  0.5665
 1002MOL0     C32145   6.183   4.504   3.043 -0.8356 -0.0746  0.5154
 1002MOL0     C32146   6.172   4.545   3.181 -0.2538 -0.0160  0.1801
 1002MOL0     C32147   6.300   4.624   3.233  0.6183  0.2490 -1.1064
 1002MOL0     C32148   6.271   4.639   3.390  0.0331 -0.6773  0.0191
 1002MOL0     N32149   6.380   4.702   3.459 -0.6235  0.1048  0.5519
 1002MOL0     C32150   6.384   4.831   3.517 -0.4045 -0.1898 -0.1693
 1002MOL0     C32151   6.489   4.826   3.603  0.3407  0.3204  0.7143
 1002MOL0     C32152   6.526   4.934   3.697  0.1162 -0.0016 -0.6943
 1002MOL0     C32153   6.622   5.040   3.632  0.8878  0.7944  0.2455
 1002MOL0     C32154   6.746   4.964   3.593 -0.0734  1.0089  0.8192
 1002MOL0     C32155   6.855   5.065   3.549 -0.1513 -0.1602  0.0257
 1002MOL0     O32156   6.816   5.151   3.436 -0.6812 -0.3917 -0.0860
 1002MOL0     C32157   6.907   5.246   3.394 -0.4543  1.4146 -0.3160
 1002MOL0     C32158   7.018   5.287   3.463  0.0757 -0.6802 -0.6937
 1002MOL0     C32159   7.105   5.377   3.411 -0.3118  0.1955 -0.8321
 1002MOL0     C32160   7.089   5.429   3.278  0.1232  0.2888 -0.7961
 1002MOL0     C32161   7.199   5.509   3.220  1.0207 -0.0183 -0.7848
 1002MOL0     O32162   7.180   5.567   3.100 -0.8889 -0.2278 -0.1871
 1002MOL0     C32163   7.264   5.668   3.075  0.6519  0.1099  0.2237
 1002MOL0     C32164   7.218   5.799   3.104 -0.4919 -0.7056 -0.0335
 1002MOL0     C32165   7.313   5.910   3.084  0.0267 -0.0010  0.1450
 1002MOL0     C32166   7.439   5.894   3.026  1.5154  0.0174 -0.6075
 1002MOL0     O32167   7.533   5.987   3.002 -0.0742  0.0209  0.1343
 1002MOL0     C32168   7.515   6.126   3.034  0.4665 -0.5663 -0.0850
 1002MOL0     C32169   7.632   6.210   2.973 -0.5021  0.3088  0.6878
 1002MOL0     C32170   7.661   6.167   2.826  0.5209  0.0068  0.4514
 1002MOL0     C32171   7.544   6.217   2.741  1.0945  0.2048  0.6181
 1002MOL0     C32172   7.558   6.212   2.594  0.0864 -0.3692 -0.1892
 1002MOL0     C32173   7.455   6.306   2.534  0.8052  0.3522  0.0420
 1002MOL0     C32174   7.312   6.254   2.548 -0.1523  0.5568  0.2206
 1002MOL0     C32175   7.209   6.345   2.482 -0.0536  0.0649  0.6551
 1002MOL0    Cl32176   7.231   6.510   2.562  0.1125 -0.4047  0.2635
 1002MOL0     C32177   7.464   5.766   2.981 -0.1645  0.9555  0.0716
 1002MOL0     C32178   7.382   5.651   3.001 -0.4417  0.0037 -0.2302
 1002MOL0     O32179   7.300   5.524   3.292  0.1200  0.0163  0.0425
 1002MOL0     C32180   6.975   5.390   3.210 -1.4251  0.3990 -0.1705
 1002MOL0     C32181   6.888   5.292   3.265  0.5032 -0.1442 -0.8337
 1002MOL0     N32182   6.553   4.703   3.594 -0.8274  0.2548 -0.4521
 1002MOL0     N32183   6.488   4.637   3.511  0.4141  0.6222  0.6123
 1002MOL0     C32184   6.461   4.202   2.728  1.4885 -0.0869  0.3133
 1002MOL0     C32185   6.584   4.204   2.781  0.3405 -0.5888 -0.0192
 1002MOL0     C32186   6.946   4.232   2.968  0.2867 -0.4176  0.1256
 1002MOL0     C32187   7.011   4.108   2.960 -0.2297 -0.8115 -0.6009
 1002MOL0     C32188   7.150   4.097   2.970  0.8789  0.3501  0.1558
 1002MOL0     C32189   7.231   4.207   3.001 -0.1114  0.1692  0.2946
 1002MOL0     O32190   7.369   4.195   3.001 -0.2457  0.6875  0.4466
 1002MOL0     C32191   7.422   4.113   3.105 -0.3389  1.1069  0.4121
 1002MOL0     C32192   7.487   4.185   3.222  0.6106  0.0871  0.9378
 1002MOL0     C32193   7.388   4.239   3.329  1.0770  1.1339 -0.6094
 1002MOL0     C32194   7.449   4.325   3.442  0.7221  1.6575  0.2794
 1002MOL0     C32195   7.371   4.305   3.571 -0.6714 -0.9899 -0.2022
 1002MOL0     C32196   7.304   4.308   3.677  0.5163 -0.8038  0.6200
 1002MOL0     C32197   7.164   4.334   3.032 -0.2077 -0.4618 -1.0897
 1002MOL0     C32198   7.027   4.343   2.993 -0.9531 -0.6252 -0.1033
 1002MOL0     H32199   6.489   4.048   3.082  0.3961 -0.4450 -0.5815
 1002MOL0     H32200   6.276   4.062   2.983  0.4367 -2.5251 -0.7723
 1002MOL0     H32201   6.078   4.212   2.643  0.3006  0.0237 -2.0843
 1002MOL0     H32202   6.235   4.261   2.594  0.1144  0.2122 -0.9052
 1002MOL0     H32203   6.104   4.437   2.720  2.5514 -0.5336 -1.2414
 1002MOL0     H32204   6.250   4.411   2.802 -0.8761  1.1187  0.9616
 1002MOL0     H32205   6.138   4.246   2.964  0.3447  4.1433  4.7749
 1002MOL0     H32206   5.989   4.266   2.868  0.1687 -2.5056  0.8827
 1002MOL0     H32207   5.998   4.514   2.945  2.7141  1.2551 -0.1039
 1002MOL0     H32208   5.995   4.400   3.086 -2.3694  0.0728 -1.2608
 1002MOL0     H32209   6.210   4.582   2.971 -2.4104  2.9582  2.9894
 1002MOL0     H32210   6.266   4.432   3.035 -0.6804  0.1563 -0.0029
 1002MOL0     H32211   6.142   4.464   3.249 -3.6602  0.4832 -0.5305
 1002MOL0     H32212   6.091   4.616   3.162  1.3644  1.8298 -0.1496
 1002MOL0     H32213   6.384   4.556   3.218  1.2076  1.2131 -2.4192
 1002MOL0     H32214   6.335   4.712   3.179  3.1205 -0.8197 -1.3557
 1002MOL0     H32215   6.264   4.547   3.448 -0.2959 -1.5759 -1.4174
 1002MOL0     H32216   6.176   4.692   3.396 -0.1731 -0.9549 -0.7477
 1002MOL0     H32217   6.310   4.909   3.501  2.2862  2.0792 -2.6490
 1002MOL0     H32218   6.589   4.895   3.778 -1.2099 -2.9895 -0.9591
 1002MOL0     H32219   6.431   4.975   3.733  1.8353  2.9264  0.8787
 1002MOL0     H32220   6.651   5.119   3.702  0.7641 -0.2565  1.5049
 1002MOL0     H32221   6.584   5.081   3.538 -0.2175 -0.4443  0.1295
 1002MOL0     H32222   6.776   4.914   3.685  1.6847 -3.1454 -1.7333
 1002MOL0     H32223   6.721   4.895   3.512  0.0072 -0.4542  1.9942
 1002MOL0     H32224   6.942   5.005   3.522  0.3705  1.7837 -3.2071
 1002MOL0     H32225   6.886   5.132   3.630  1.1842  0.1377 -0.7069
 1002MOL0     H32226   7.028   5.270   3.570 -3.2649  3.1264  0.4501
 1002MOL0     H32227   7.186   5.398   3.479 -0.8855 -0.2265  0.0050
 1002MOL0     H32228   7.120   5.809   3.149 -0.0789 -1.7904  1.1865
 1002MOL0     H32229   7.279   6.010   3.111 -0.8080 -0.6315  1.5699
 1002MOL0     H32230   7.504   6.143   3.142 -0.0935 -3.4883  0.4034
 1002MOL0     H32231   7.418   6.161   2.997 -0.7735 -0.8665  2.5877
 1002MOL0     H32232   7.720   6.192   3.035  0.0572 -2.0194 -0.6330
 1002MOL0     H32233   7.619   6.318   2.984 -0.6283  0.4212 -0.3691
 1002MOL0     H32234   7.682   6.062   2.803  2.9590 -0.1013  2.7369
 1002MOL0     H32235   7.752   6.222   2.800 -1.4604  2.7530 -1.2809
 1002MOL0     H32236   7.461   6.148   2.754 -1.1994  2.5893 -0.3362
 1002MOL0     H32237   7.514   6.317   2.775 -0.7169 -0.1137  0.0746
 1002MOL0     H32238   7.545   6.109   2.560 -0.8792  0.1837 -1.5848
 1002MOL0     H32239   7.661   6.224   2.558  0.1141 -2.0846 -0.7962
 1002MOL0     H32240   7.477   6.311   2.427  1.9159  2.2280  0.3146
 1002MOL0     H32241   7.450   6.409   2.568 -1.4499  0.1044  0.6353
 1002MOL0     H32242   7.303   6.164   2.486 -0.4918 -0.4269  1.6260
 1002MOL0     H32243   7.278   6.228   2.649 -0.1618  0.5457  0.2144
 1002MOL0     H32244   7.113   6.312   2.521 -0.9296  1.8536  0.1255
 1002MOL0     H32245   7.214   6.352   2.373  0.2238 -0.4990  0.6305
 1002MOL0     H32246   7.560   5.744   2.937 -0.1915  1.3821 -0.2084
 1002MOL0     H32247   7.396   5.549   2.965 -0.2863 -0.5361  1.2693
 1002MOL0     H32248   6.959   5.422   3.107  0.8182  0.3977 -0.5826
 1002MOL0     H32249   6.809   5.249   3.205 -0.2000  0.9826 -0.7520
 1002MOL0     H32250   6.453   4.229   2.623  1.9138  1.1292  0.5820
 1002MOL0     H32251   6.650   4.253   2.710 -0.3288 -0.8402 -0.8274
 1002MOL0     H32252   6.943   4.029   2.932 -2.8430  1.2013 -0.3389
 1002MOL0     H32253   7.186   3.996   2.952  0.8806  0.3609  0.0998
 1002MOL0     H32254   7.490   4.045   3.052 -0.7838  1.8616 -1.2042
 1002MOL0     H32255   7.346   4.044   3.141 -0.7401  0.6742 -1.1854
 1002MOL0     H32256   7.541   4.114   3.285 -0.0126  3.2833  5.6049
 1002MOL0     H32257   7.552   4.267   3.191 -0.2990 -0.1831 -2.0502
 1002MOL0     H32258   7.335   4.154   3.372  3.9264  0.2279  1.3972
 1002MOL0     H32259   7.312   4.305   3.285 -1.8772 -1.5597  0.0667
 1002MOL0     H32260   7.555   4.297   3.449  0.5169  0.9336  0.5352
 1002MOL0     H32261   7.447   4.433   3.422  0.4787  1.2776 -2.1484
 1002MOL0     H32262   7.255   4.330   3.770  0.0711 -1.4259  0.5346
 1002MOL0     H32263   7.230   4.417   3.056  1.2405 -0.6108 -4.0422
 1002MOL0     H32264   6.977   4.439   3.005 -0.6810 -0.8166  3.9801
 1003MOL0     O32265   0.278   6.231   0.055 -0.1984 -0.1817  0.9710
 1003MOL0     C32266   0.393   6.206   0.065  0.1135  0.3495  0.2009
 1003MOL0     O32267   0.460   6.111  -0.016  0.3929  0.2594 -0.0266
 1003MOL0     C32268   0.382   6.041  -0.105 -0.2833  0.6604 -0.7755
 1003MOL0     C32269   0.302   5.937  -0.068  0.5231 -0.1108 -0.4953
 1003MOL0     C32270   0.222   5.872  -0.159  0.7565  0.4828  0.6878
 1003MOL0     C32271   0.205   5.933  -0.285 -0.2607  1.0107  0.0065
 1003MOL0     O32272   0.097   5.902  -0.374 -0.7605  0.6927  0.2903
 1003MOL0     C32273   0.027   5.775  -0.358  0.8830 -0.7469  0.2957
 1003MOL0     C32274  -0.092   5.769  -0.462  0.3370  0.8093 -0.0047
 1003MOL0     C32275  -0.185   5.666  -0.399 -0.9355  1.0204 -0.4628
 1003MOL0     C32276  -0.304   5.659  -0.490 -0.5684  0.2707  0.2215
 1003MOL0     C32277  -0.429   5.604  -0.416 -0.2962 -0.0849 -0.2707
 1003MOL0     C32278  -0.549   5.634  -0.503  0.7091 -0.4529  0.0455
 1003MOL0     C32279  -0.684   5.578  -0.460  0.3971  0.8166 -0.0107
 1003MOL0     C32280  -0.690   5.422  -0.469 -0.1538  0.6587 -0.1693
 1003MOL0     N32281  -0.835   5.385  -0.451 -1.0605  0.3161 -0.1005
 1003MOL0     C32282  -0.902   5.354  -0.328  0.0778 -0.5690  0.6132
 1003MOL0     C32283  -1.020   5.299  -0.356 -0.0048  0.0269  0.5073
 1003MOL0     C32284  -1.111   5.271  -0.235 -0.5694 -0.2696 -0.9928
 1003MOL0     C32285  -1.150   5.133  -0.223 -0.0252 -0.6757 -0.6255
 1003MOL0     C32286  -1.260   5.092  -0.313 -0.7456  0.1352  0.5197
 1003MOL0     C32287  -1.346   4.983  -0.258  1.0207  0.5192 -0.6072
 1003MOL0     O32288  -1.270   4.870  -0.220  0.0887 -0.1293 -0.3949
 1003MOL0     C32289  -1.307   4.801  -0.114 -0.0195  0.3551  0.4096
 1003MOL0     C32290  -1.206   4.759  -0.025  0.0369  0.9432  0.9586
 1003MOL0     C32291  -1.243   4.672   0.081 -0.5396 -0.1122 -0.0521
 1003MOL0     C32292  -1.373   4.627   0.100 -0.3978 -0.2670 -1.0154
 1003MOL0     C32293  -1.410   4.542   0.211  0.2963  0.2581 -0.3089
 1003MOL0     O32294  -1.544   4.528   0.240  0.3942  0.6499  0.1878
 1003MOL0     C32295  -1.586   4.452   0.355  0.3387  0.3157  0.0998
 1003MOL0     C32296  -1.714   4.484   0.385 -0.5613 -0.0450 -1.0409
 1003MOL0     C32297  -1.792   4.404   0.473  0.2898  0.1247  0.5899
 1003MOL0     C32298  -1.737   4.292   0.538  0.8656 -0.0842  0.3580
 1003MOL0     O32299  -1.821   4.216   0.607  0.2854  0.4896 -0.2652
 1003MOL0     C32300  -1.777   4.134   0.711 -0.3871 -0.2673  0.7509
 1003MOL0     C32301  -1.715   4.215   0.825 -0.0947  0.4942 -0.5077
 1003MOL0     C32302  -1.695   4.124   0.945  0.5861  0.4489  0.0794
 1003MOL0     C32303  -1.590   4.011   0.938 -0.2511  1.3739  0.1019
 1003MOL0     C32304  -1.451   4.069   0.964 -0.7327 -0.2874  0.5376
 1003MOL0     C32305  -1.335   3.980   0.984  0.0776  0.8989  0.7551
 1003MOL0     C32306  -1.342   3.904   1.120 -1.1920 -0.4398  0.1954
 1003MOL0     C32307  -1.216   3.822   1.143 -0.3612  0.1737  0.7806
 1003MOL0    Cl32308  -1.079   3.930   1.169 -0.1587  0.2257  0.1712
 1003MOL0     C32309  -1.598   4.264   0.513 -0.3274 -1.0165  0.2068
 1003MOL0     C32310  -1.526   4.348   0.424 -0.3802 -0.7199  0.4292
 1003MOL0     O32311  -1.321   4.486   0.267 -0.1502  0.0679 -0.0197
 1003MOL0     C32312  -1.472   4.667   0.010  0.2767 -0.3252 -0.0343
 1003MOL0     C32313  -1.434   4.754  -0.097 -0.0509 -0.4819 -0.0631
 1003MOL0     N32314  -1.037   5.293  -0.491  0.3028  0.4565 -0.4591
 1003MOL0     N32315  -0.922   5.338  -0.539 -0.0300  0.4842 -0.1909
 1003MOL0     C32316   0.288   6.042  -0.321 -0.8087  0.6080  0.1888
 1003MOL0     C32317   0.390   6.091  -0.239 -0.1036  0.1246  0.0702
 1003MOL0     C32318   0.466   6.283   0.160 -0.2511  0.0125 -0.7311
 1003MOL0     C32319   0.397   6.391   0.221  0.5333  0.0575 -0.1088
 1003MOL0     C32320   0.466   6.493   0.283  0.4590  0.5457  0.8448
 1003MOL0     C32321   0.604   6.490   0.299  1.3619 -0.7259 -0.2703
 1003MOL0     O32322   0.680   6.598   0.342 -0.4408 -0.0463  0.4809
 1003MOL0     C32323   0.740   6.598   0.478 -1.4858 -0.1866 -0.6510
 1003MOL0     C32324   0.750   6.737   0.541 -0.2161 -0.8844 -0.1962
 1003MOL0     C32325   0.861   6.816   0.463  0.0017  0.6149 -0.5433
 1003MOL0     C32326   1.001   6.760   0.489 -0.4410 -1.2034 -0.3824
 1003MOL0     C32327   1.105   6.827   0.412 -1.2226  0.0338  0.7036
 1003MOL0     C32328   1.191   6.873   0.340 -0.7659 -0.8164  0.1569
 1003MOL0     C32329   0.672   6.383   0.265  0.1830  0.1463  0.1649
 1003MOL0     C32330   0.604   6.273   0.195  1.1062 -0.4025 -0.1673
 1003MOL0     H32331   0.301   5.899   0.034 -1.5040 -0.6378 -0.6670
 1003MOL0     H32332   0.168   5.782  -0.132 -1.2501  1.7823  1.2321
 1003MOL0     H32333  -0.010   5.780  -0.256  0.0231  0.5936 -0.0529
 1003MOL0     H32334   0.101   5.694  -0.369 -0.1170 -1.6684  0.1664
 1003MOL0     H32335  -0.052   5.723  -0.553  0.2079 -0.8200  0.7335
 1003MOL0     H32336  -0.149   5.856  -0.495 -1.9908 -0.3959  0.6018
 1003MOL0     H32337  -0.216   5.690  -0.297  1.7953  0.6491  0.5430
 1003MOL0     H32338  -0.138   5.567  -0.394  0.2773  1.4769 -1.8682
 1003MOL0     H32339  -0.329   5.762  -0.518 -2.5285 -0.8004 -2.3011
 1003MOL0     H32340  -0.285   5.599  -0.579  2.1186  1.1658  0.0919
 1003MOL0     H32341  -0.447   5.639  -0.314  1.1110 -1.8460  0.6413
 1003MOL0     H32342  -0.424   5.495  -0.402  1.3791 -0.2930 -2.0789
 1003MOL0     H32343  -0.533   5.607  -0.608  0.4374 -0.2523 -0.0519
 1003MOL0     H32344  -0.548   5.743  -0.495  0.8548 -0.5693  1.9656
 1003MOL0     H32345  -0.706   5.603  -0.356 -0.2479  0.3647 -0.0337
 1003MOL0     H32346  -0.764   5.613  -0.525 -2.6411 -4.6527  0.1546
 1003MOL0     H32347  -0.618   5.393  -0.392 -0.2906  0.0748 -0.2571
 1003MOL0     H32348  -0.662   5.391  -0.570 -1.7188  1.4415 -0.8825
 1003MOL0     H32349  -0.864   5.365  -0.227  0.9636  2.6642  0.0156
 1003MOL0     H32350  -1.196   5.339  -0.243 -0.7523 -0.2750  0.5006
 1003MOL0     H32351  -1.063   5.297  -0.140 -0.0692 -2.0007 -0.7276
 1003MOL0     H32352  -1.187   5.125  -0.120 -1.2731  0.2455 -0.9829
 1003MOL0     H32353  -1.062   5.068  -0.231  1.5875  1.5453 -2.4298
 1003MOL0     H32354  -1.327   5.177  -0.323 -1.5600 -0.7051 -1.6036
 1003MOL0     H32355  -1.215   5.062  -0.408 -1.3011  0.1234  0.2613
 1003MOL0     H32356  -1.424   4.958  -0.331 -0.1610 -0.7386  1.0106
 1003MOL0     H32357  -1.396   5.025  -0.170  2.0090  1.7676 -0.6062
 1003MOL0     H32358  -1.104   4.790  -0.045  0.3112 -0.0726  0.7402
 1003MOL0     H32359  -1.159   4.635   0.139 -1.0018 -1.2273 -0.0710
 1003MOL0     H32360  -1.756   4.566   0.327 -4.3359 -1.2564 -0.3330
 1003MOL0     H32361  -1.896   4.435   0.484  0.2381 -0.4618  1.9992
 1003MOL0     H32362  -1.710   4.058   0.669 -1.9048 -0.7662 -0.8886
 1003MOL0     H32363  -1.869   4.083   0.742  0.2070 -1.8150  0.0472
 1003MOL0     H32364  -1.795   4.287   0.846 -0.5580  0.4313 -1.9692
 1003MOL0     H32365  -1.623   4.273   0.811 -0.2379  1.2480  1.3358
 1003MOL0     H32366  -1.788   4.069   0.959 -0.3737  1.3783 -2.2728
 1003MOL0     H32367  -1.679   4.173   1.042 -1.5222 -1.2714  1.3996
 1003MOL0     H32368  -1.618   3.942   1.018 -0.3380  0.0475 -1.0229
 1003MOL0     H32369  -1.596   3.940   0.854  1.8930 -3.7241  3.7158
 1003MOL0     H32370  -1.460   4.133   1.053  1.2608 -0.4834  0.9334
 1003MOL0     H32371  -1.425   4.137   0.883  2.6924 -0.6494  1.1690
 1003MOL0     H32372  -1.240   4.033   0.971  0.0990  0.4856 -1.0255
 1003MOL0     H32373  -1.326   3.908   0.902  0.4736 -1.2065  2.5547
 1003MOL0     H32374  -1.347   3.972   1.205  0.5031 -2.0453  1.6599
 1003MOL0     H32375  -1.437   3.850   1.119 -2.8951  2.3418 -0.8967
 1003MOL0     H32376  -1.195   3.766   1.051  3.5971  2.7935 -0.1397
 1003MOL0     H32377  -1.231   3.750   1.224  1.1678 -2.0087 -0.7506
 1003MOL0     H32378  -1.539   4.182   0.554  0.8863 -0.9993 -1.4392
 1003MOL0     H32379  -1.431   4.313   0.384 -0.1413 -1.0591  1.2716
 1003MOL0     H32380  -1.577   4.642   0.021 -0.2797  2.1433  1.0505
 1003MOL0     H32381  -1.510   4.788  -0.166  3.0570 -0.4079 -3.8263
 1003MOL0     H32382   0.287   6.091  -0.418 -1.3249 -0.7596 -0.5149
 1003MOL0     H32383   0.467   6.161  -0.269 -0.4330  0.5403  0.1769
 1003MOL0     H32384   0.289   6.397   0.218  0.2223 -1.9339  2.7933
 1003MOL0     H32385   0.409   6.573   0.328 -1.7053 -0.4361 -0.0470
 1003MOL0     H32386   0.836   6.546   0.478 -1.6662 -0.5269 -0.9061
 1003MOL0     H32387   0.682   6.538   0.549 -0.2337  0.0450  0.5992
 1003MOL0     H32388   0.651   6.785   0.542  1.0218  1.9815 -1.9177
 1003MOL0     H32389   0.770   6.730   0.648 -0.3986  1.1324  0.0091
 1003MOL0     H32390   0.860   6.921   0.494  3.9358  0.4832  0.6047
 1003MOL0     H32391   0.844   6.813   0.355 -1.8956 -0.6617 -0.2359
 1003MOL0     H32392   1.031   6.781   0.592  1.4568 -0.6112 -1.0308
 1003MOL0     H32393   1.005   6.651   0.477 -1.2380 -1.4064  0.9403
 1003MOL0     H32394   1.273   6.898   0.276 -0.6777 -0.5698  0.3692
 1003MOL0     H32395   0.779   6.364   0.254 -0.0781  0.0542 -3.0730
 1003MOL0     H32396   0.676   6.195   0.171 -0.0245 -1.6301  0.3109
 1004MOL0     O32397   8.202   2.852   9.452  0.4022 -1.4239 -0.1278
 1004MOL0     C32398   8.193   2.811   9.570  0.4284 -0.1084  0.2567
 1004MOL0     O32399   8.145   2.686   9.608  0.0134 -0.2168 -0.1673
 1004MOL0     C32400   8.133   2.586   9.513  0.2170 -0.1659 -0.7289
 1004MOL0     C32401   8.181   2.457   9.539  1.0306  0.2817 -0.7728
 1004MOL0     C32402   8.180   2.356   9.443 -0.9295  0.4263  0.3395
 1004MOL0     C32403   8.139   2.388   9.313  0.3036  0.4248 -0.6483
 1004MOL0     O32404   8.162   2.287   9.214 -0.2591 -0.3801  0.5652
 1004MOL0     C32405   8.144   2.323   9.077 -0.4680 -0.0988  1.0739
 1004MOL0     C32406   8.172   2.200   8.986 -0.1746  0.5917  0.3197
 1004MOL0     C32407   8.175   2.247   8.836  0.0345  0.1318  0.1791
 1004MOL0     C32408   8.113   2.148   8.744  0.1282 -0.3640  0.3231
 1004MOL0     C32409   8.130   2.190   8.600  0.0934 -0.6283 -0.8345
 1004MOL0     C32410   8.072   2.091   8.497  0.0896 -0.7897 -1.0480
 1004MOL0     C32411   8.101   2.146   8.354  0.7469  0.8082 -0.4653
 1004MOL0     C32412   8.059   2.050   8.241  0.1182 -0.1010 -0.4940
 1004MOL0     N32413   8.131   1.918   8.250 -0.6144  0.1346  0.0447
 1004MOL0     C32414   8.080   1.799   8.289  0.5888 -0.0685  0.7579
 1004MOL0     C32415   8.175   1.704   8.290 -0.6516  0.6694 -0.3772
 1004MOL0     C32416   8.157   1.561   8.338 -0.4779  0.7107 -0.7987
 1004MOL0     C32417   8.178   1.541   8.489  0.1236  0.2478 -0.6339
 1004MOL0     C32418   8.325   1.537   8.523 -0.7860 -0.7678 -0.6207
 1004MOL0     C32419   8.351   1.535   8.669  0.2793 -0.4745  0.2407
 1004MOL0     O32420   8.292   1.649   8.739 -0.6263  0.5097  0.8038
 1004MOL0     C32421   8.353   1.770   8.731 -1.5120  0.4553 -0.2106
 1004MOL0     C32422   8.422   1.806   8.843 -0.0390 -0.5532 -0.1474
 1004MOL0     C32423   8.495   1.927   8.845  0.4597 -0.1702 -0.2193
 1004MOL0     C32424   8.483   2.021   8.738 -0.5239  0.0703  0.5064
 1004MOL0     C32425   8.567   2.146   8.733 -0.0458 -0.0941  0.2134
 1004MOL0     O32426   8.620   2.177   8.610 -0.6548  0.1130 -0.3261
 1004MOL0     C32427   8.734   2.260   8.613 -0.1001 -0.4905  0.4070
 1004MOL0     C32428   8.847   2.209   8.670 -0.7893 -0.4045 -1.8215
 1004MOL0     C32429   8.960   2.288   8.670 -0.2797  0.2942  0.2424
 1004MOL0     C32430   8.973   2.410   8.596 -0.1895  1.2946  0.7964
 1004MOL0     O32431   9.095   2.462   8.557  0.0738 -0.2583  0.3381
 1004MOL0     C32432   9.220   2.435   8.622 -0.8273 -0.0065 -0.8069
 1004MOL0     C32433   9.337   2.529   8.583  0.0082  0.1977 -0.4309
 1004MOL0     C32434   9.292   2.672   8.596  0.2865 -0.5096 -0.1013
 1004MOL0     C32435   9.405   2.772   8.559  0.6680 -0.1709 -0.1006
 1004MOL0     C32436   9.351   2.915   8.574  0.2273 -0.3593  0.4715
 1004MOL0     C32437   9.339   2.962   8.723  0.9482 -0.3859  0.4246
 1004MOL0     C32438   9.481   2.977   8.788  0.1533 -0.1524  1.8054
 1004MOL0     C32439   9.460   3.076   8.902  0.4766  0.2804 -0.2831
 1004MOL0    Cl32440   9.382   3.238   8.856  0.3663 -0.6553  0.0256
 1004MOL0     C32441   8.846   2.457   8.537  0.0887 -0.1940  0.1019
 1004MOL0     C32442   8.729   2.385   8.552 -1.0123  1.0718  0.5804
 1004MOL0     O32443   8.561   2.220   8.834 -0.3535  0.6132 -0.2844
 1004MOL0     C32444   8.414   1.978   8.623  1.0377 -1.5477 -0.3663
 1004MOL0     C32445   8.350   1.853   8.622 -0.8936 -0.1165 -0.8693
 1004MOL0     N32446   8.288   1.764   8.245  0.3154 -1.2913  0.1031
 1004MOL0     N32447   8.256   1.893   8.218 -0.3449  0.0267  0.5711
 1004MOL0     C32448   8.085   2.515   9.290 -0.6120  0.5595  0.1707
 1004MOL0     C32449   8.072   2.614   9.391 -0.1528 -1.2774 -0.2212
 1004MOL0     C32450   8.229   2.898   9.689  0.8498 -0.4832 -0.2078
 1004MOL0     C32451   8.187   2.862   9.818 -1.0140 -0.1654 -0.5816
 1004MOL0     C32452   8.225   2.940   9.928  0.0461 -1.0649 -0.1169
 1004MOL0     C32453   8.313   3.050   9.910 -0.2118 -0.7114  0.7439
 1004MOL0     O32454   8.368   3.111  10.019  0.2246 -0.8260  0.2381
 1004MOL0     C32455   8.341   3.255  10.029  0.0419 -0.8853  0.2996
 1004MOL0     C32456   8.352   3.310  10.165 -0.0117 -0.9811 -0.1780
 1004MOL0     C32457   8.487   3.294  10.236 -0.0585  0.6949  0.3217
 1004MOL0     C32458   8.469   3.300  10.389  0.0511  0.4661 -0.3439
 1004MOL0     C32459   8.429   3.438  10.427  0.1886  0.3765 -0.2231
 1004MOL0     C32460   8.379   3.542  10.449  0.0666 -0.0431  0.7679
 1004MOL0     C32461   8.348   3.087   9.783 -0.1803  0.4628  0.2912
 1004MOL0     C32462   8.307   3.004   9.671 -0.0900 -1.2350  0.0428
 1004MOL0     H32463   8.234   2.430   9.629  1.2789 -3.1435 -1.8111
 1004MOL0     H32464   8.227   2.263   9.474  3.4023  2.4759  0.4997
 1004MOL0     H32465   8.221   2.398   9.056 -1.5223  1.0329  1.1267
 1004MOL0     H32466   8.044   2.360   9.055  0.0797  1.3421  0.8624
 1004MOL0     H32467   8.093   2.126   9.001  1.3091 -1.1795 -0.2749
 1004MOL0     H32468   8.271   2.162   9.011 -0.9323 -1.0691  0.9597
 1004MOL0     H32469   8.274   2.283   8.807 -0.3602  2.0023  0.9934
 1004MOL0     H32470   8.107   2.333   8.831 -1.3686 -0.8682  1.2813
 1004MOL0     H32471   8.174   2.058   8.756  1.7226  0.6705  0.3504
 1004MOL0     H32472   8.007   2.123   8.755 -0.4841 -1.0760 -4.5609
 1004MOL0     H32473   8.237   2.210   8.587  0.4831 -0.2560  2.1240
 1004MOL0     H32474   8.084   2.287   8.580 -0.5400 -1.0540 -1.5146
 1004MOL0     H32475   7.965   2.073   8.514  0.2031 -2.1417 -1.6585
 1004MOL0     H32476   8.114   1.992   8.514  2.2085 -0.1952 -2.4046
 1004MOL0     H32477   8.053   2.244   8.340 -2.1512 -0.4146  0.1936
 1004MOL0     H32478   8.209   2.157   8.365  0.5277  1.6332  1.1848
 1004MOL0     H32479   8.091   2.107   8.154 -2.3760  0.4163 -1.1696
 1004MOL0     H32480   7.951   2.034   8.251  0.1335  1.1472  3.3113
 1004MOL0     H32481   7.978   1.779   8.319 -0.3156  3.2791  0.3488
 1004MOL0     H32482   8.230   1.496   8.290 -1.0832 -3.2943  3.0859
 1004MOL0     H32483   8.064   1.513   8.305 -0.2437 -0.7694  0.5791
 1004MOL0     H32484   8.141   1.442   8.517  1.1287  0.1926  0.5970
 1004MOL0     H32485   8.124   1.620   8.542  0.3136  1.0613 -1.6227
 1004MOL0     H32486   8.352   1.437   8.486  3.4905  0.1187 -0.4349
 1004MOL0     H32487   8.371   1.620   8.468  3.9564 -0.6055  2.9561
 1004MOL0     H32488   8.457   1.542   8.694  0.5321 -0.2836 -0.8146
 1004MOL0     H32489   8.314   1.439   8.707 -0.4553  0.4232  1.9006
 1004MOL0     H32490   8.442   1.746   8.931  2.2057 -1.0287 -0.9095
 1004MOL0     H32491   8.556   1.957   8.929 -1.2382  0.3445  0.8769
 1004MOL0     H32492   8.843   2.111   8.717 -0.0246  0.8341  1.0391
 1004MOL0     H32493   9.047   2.254   8.725 -0.4180  0.5771  0.6417
 1004MOL0     H32494   9.238   2.329   8.602 -1.2853 -1.0720  3.4650
 1004MOL0     H32495   9.207   2.461   8.727 -0.2064 -0.5792 -0.5875
 1004MOL0     H32496   9.359   2.516   8.477 -0.2130  2.2828 -0.7612
 1004MOL0     H32497   9.421   2.511   8.650  0.8961  1.6579 -1.1073
 1004MOL0     H32498   9.263   2.692   8.700 -2.1326  0.1981 -0.8330
 1004MOL0     H32499   9.200   2.688   8.539 -0.5753 -0.9281  1.1165
 1004MOL0     H32500   9.497   2.763   8.618  0.0405  0.1768  0.9563
 1004MOL0     H32501   9.449   2.755   8.460  2.7338  1.4845  0.4733
 1004MOL0     H32502   9.254   2.925   8.524 -0.1686 -1.2805  1.0370
 1004MOL0     H32503   9.418   2.990   8.530 -0.2511 -0.0328  0.2961
 1004MOL0     H32504   9.288   2.888   8.786  1.4578 -1.8427 -0.8111
 1004MOL0     H32505   9.279   3.053   8.721 -0.1059 -1.0342  1.3100
 1004MOL0     H32506   9.533   2.884   8.815  1.3362 -0.2287 -0.4991
 1004MOL0     H32507   9.551   3.012   8.712 -0.4689  1.9510  2.1565
 1004MOL0     H32508   9.556   3.102   8.948 -0.1637  1.4549  0.4358
 1004MOL0     H32509   9.398   3.031   8.979  0.4846 -0.3499 -0.6399
 1004MOL0     H32510   8.832   2.551   8.486 -2.1843 -1.0629 -0.9840
 1004MOL0     H32511   8.644   2.434   8.507  0.7045  2.6857 -1.0988
 1004MOL0     H32512   8.393   2.043   8.539 -0.8624  0.7660  1.7431
 1004MOL0     H32513   8.289   1.830   8.535 -3.5049 -2.0782  1.3207
 1004MOL0     H32514   8.048   2.552   9.196 -1.5192  0.5345  0.5131
 1004MOL0     H32515   8.031   2.714   9.376  3.4221  0.8045  2.3063
 1004MOL0     H32516   8.123   2.776   9.839 -6.2568  4.0250  3.2808
 1004MOL0     H32517   8.200   2.911  10.030 -0.2115  2.7469  1.0610
 1004MOL0     H32518   8.237   3.276  10.002  0.1757 -0.0078  0.4562
 1004MOL0     H32519   8.401   3.310   9.956  0.9131  1.3905  2.5849
 1004MOL0     H32520   8.327   3.416  10.172 -2.1482 -1.4892  0.7989
 1004MOL0     H32521   8.277   3.264  10.230 -0.3829  0.7650  0.6895
 1004MOL0     H32522   8.543   3.386  10.214 -0.5298  0.6516 -1.1614
 1004MOL0     H32523   8.545   3.206  10.206 -2.1854 -0.3846 -0.9251
 1004MOL0     H32524   8.388   3.236  10.425  0.2433  1.9031  2.9148
 1004MOL0     H32525   8.558   3.285  10.449  0.5450  4.1553  0.0921
 1004MOL0     H32526   8.347   3.643  10.469  0.5814 -0.0157  1.4724
 1004MOL0     H32527   8.412   3.174   9.771  1.7715 -0.9186  0.1726
 1004MOL0     H32528   8.332   3.015   9.566 -3.4393  1.5687 -0.6365
 1005MOL0     O32529   5.878   4.477   9.923 -0.2224 -0.1501  0.5445
 1005MOL0     C32530   5.912   4.595   9.913  0.2113 -0.2097 -0.1976
 1005MOL0     O32531   5.993   4.644   9.810 -0.2672  0.0227  0.2081
 1005MOL0     C32532   6.084   4.548   9.777 -0.4668  0.2943  0.9182
 1005MOL0     C32533   6.179   4.484   9.859  0.1910 -0.2136  0.9729
 1005MOL0     C32534   6.271   4.390   9.802 -0.5707  0.1780  0.1346
 1005MOL0     C32535   6.266   4.355   9.664 -0.5877  0.1678  0.1541
 1005MOL0     O32536   6.363   4.270   9.609 -0.2230 -0.2245 -0.0382
 1005MOL0     C32537   6.322   4.183   9.499 -0.1581  0.0008 -0.5403
 1005MOL0     C32538   6.388   4.229   9.369  0.2404 -0.2487  0.4522
 1005MOL0     C32539   6.328   4.135   9.256 -0.4369  0.9157 -0.3671
 1005MOL0     C32540   6.333   4.194   9.123  0.0503  0.5618 -0.3864
 1005MOL0     C32541   6.276   4.106   9.009 -0.4096  0.0471  0.5151
 1005MOL0     C32542   6.123   4.085   9.002 -0.2682  0.4857 -0.0465
 1005MOL0     C32543   6.034   4.204   8.953 -0.5588 -0.0925 -0.2759
 1005MOL0     C32544   5.890   4.175   8.950 -1.5109 -0.7370  0.2256
 1005MOL0     N32545   5.851   4.055   8.865 -0.7556 -0.6915  0.2668
 1005MOL0     C32546   5.863   4.028   8.727 -0.3016 -0.2053 -0.5775
 1005MOL0     C32547   5.828   3.899   8.710 -0.1478  0.0468 -0.5446
 1005MOL0     C32548   5.807   3.837   8.581  0.2926  0.1406  0.3785
 1005MOL0     C32549   5.650   3.830   8.556  0.7670  0.0284 -0.0046
 1005MOL0     C32550   5.620   3.776   8.414 -0.2782 -0.0846  1.1548
 1005MOL0     C32551   5.649   3.888   8.303 -0.6487 -0.0085 -0.3972
 1005MOL0     O32552   5.517   3.903   8.252  0.5093  0.3493  0.1540
 1005MOL0     C32553   5.489   4.015   8.182 -0.2771  0.2665  0.2372
 1005MOL0     C32554   5.552   4.142   8.187 -0.7811  0.0521 -0.5311
 1005MOL0     C32555   5.537   4.241   8.092  0.4695 -0.0307  0.5470
 1005MOL0     C32556   5.442   4.228   7.986 -0.5381 -0.1130  0.6319
 1005MOL0     C32557   5.430   4.320   7.879  0.2338 -0.4110  0.0478
 1005MOL0     O32558   5.318   4.296   7.795 -0.5108 -0.2317 -0.3603
 1005MOL0     C32559   5.280   4.385   7.705  0.2072 -0.8852  0.8584
 1005MOL0     C32560   5.214   4.338   7.589 -0.2782 -0.0549 -0.1686
 1005MOL0     C32561   5.192   4.418   7.475  1.0697 -1.1045 -0.4512
 1005MOL0     C32562   5.215   4.554   7.475 -1.1352  0.8538  0.3040
 1005MOL0     O32563   5.172   4.612   7.360  0.2694 -0.0275 -0.5777
 1005MOL0     C32564   5.168   4.755   7.339 -0.1010  0.0294  0.1851
 1005MOL0     C32565   5.122   4.778   7.193 -0.5576 -0.0679 -0.1215
 1005MOL0     C32566   5.246   4.743   7.109 -0.5230 -0.4216  0.8936
 1005MOL0     C32567   5.210   4.738   6.960  0.1184  0.3076 -0.6947
 1005MOL0     C32568   5.232   4.866   6.876  0.1129 -1.0919 -0.5425
 1005MOL0     C32569   5.160   4.998   6.920  2.2272  0.2967 -1.2250
 1005MOL0     C32570   5.176   5.108   6.808 -0.1011  0.5221  0.6284
 1005MOL0     C32571   5.316   5.152   6.788  0.5921  0.0385  0.0695
 1005MOL0    Cl32572   5.302   5.309   6.693  0.0051 -0.3098  0.0762
 1005MOL0     C32573   5.267   4.609   7.591 -0.7063 -0.1157 -0.0960
 1005MOL0     C32574   5.311   4.521   7.690 -0.6850  0.1978  0.4703
 1005MOL0     O32575   5.521   4.410   7.869 -0.3389  0.4035  0.0171
 1005MOL0     C32576   5.364   4.112   7.995 -0.4681 -0.1960  1.0896
 1005MOL0     C32577   5.388   4.011   8.088  0.1197 -0.2441 -0.4123
 1005MOL0     N32578   5.787   3.851   8.837  0.7590  0.1221  0.9497
 1005MOL0     N32579   5.804   3.944   8.923  0.3319  0.5748  0.1240
 1005MOL0     C32580   6.181   4.418   9.580  0.1768  0.2109 -0.1110
 1005MOL0     C32581   6.102   4.521   9.638 -0.3398 -0.4956 -0.0352
 1005MOL0     C32582   5.826   4.691   9.996 -0.1844  0.1284 -0.4401
 1005MOL0     C32583   5.697   4.652  10.042  0.6044  0.5861 -0.2819
 1005MOL0     C32584   5.615   4.753  10.098  0.6667  0.0236 -1.0306
 1005MOL0     C32585   5.660   4.883  10.120 -0.0425  0.0775 -0.6560
 1005MOL0     O32586   5.574   4.959  10.203 -0.2162  0.3292  0.2422
 1005MOL0     C32587   5.644   5.066  10.275  0.4481 -0.1632 -1.3975
 1005MOL0     C32588   5.624   5.199  10.212  0.4649  0.6738  0.3637
 1005MOL0     C32589   5.725   5.298  10.275 -0.7119  0.5972  0.1641
 1005MOL0     C32590   5.728   5.429  10.194 -0.9542  0.0246 -0.4467
 1005MOL0     C32591   5.594   5.495  10.183 -0.3932 -0.1237 -0.1989
 1005MOL0     C32592   5.485   5.554  10.177 -0.1795  0.0851 -0.5393
 1005MOL0     C32593   5.791   4.920  10.078  0.1328 -0.0084 -0.2324
 1005MOL0     C32594   5.873   4.819  10.023 -0.5820 -0.3032 -0.9149
 1005MOL0     H32595   6.179   4.503   9.966 -3.4237 -0.1407  1.0832
 1005MOL0     H32596   6.341   4.346   9.872 -0.8804  0.0057  0.3345
 1005MOL0     H32597   6.214   4.167   9.492  0.3037 -3.4664 -2.5666
 1005MOL0     H32598   6.340   4.079   9.528 -3.4096  0.0021  1.9630
 1005MOL0     H32599   6.496   4.222   9.377  0.4083  2.7963  2.4757
 1005MOL0     H32600   6.366   4.335   9.348  1.6265 -0.2011 -0.9537
 1005MOL0     H32601   6.226   4.112   9.288  0.3857 -0.7381  1.1994
 1005MOL0     H32602   6.379   4.038   9.263 -2.9130 -0.6474 -2.1926
 1005MOL0     H32603   6.280   4.289   9.117 -0.3193  0.2666 -2.8873
 1005MOL0     H32604   6.438   4.207   9.096 -0.2539  0.1062 -1.8986
 1005MOL0     H32605   6.323   4.009   9.026  1.3445  0.9934  1.3927
 1005MOL0     H32606   6.309   4.158   8.918 -1.6119  3.7983  2.0348
 1005MOL0     H32607   6.103   4.062   9.107  1.1073 -0.9585 -0.0756
 1005MOL0     H32608   6.108   3.991   8.948  1.4324 -1.0519  2.0058
 1005MOL0     H32609   6.041   4.295   9.012 -0.0008  0.1649 -0.7350
 1005MOL0     H32610   6.069   4.239   8.855  1.1014  0.3627  0.4583
 1005MOL0     H32611   5.826   4.257   8.914 -1.6512 -1.3717 -1.0207
 1005MOL0     H32612   5.858   4.155   9.052  2.3157 -0.5195  1.6075
 1005MOL0     H32613   5.871   4.100   8.646 -1.4264 -0.1718 -0.6656
 1005MOL0     H32614   5.863   3.744   8.570 -1.5270 -0.9502 -0.0519
 1005MOL0     H32615   5.854   3.905   8.508 -1.3744  1.4811  0.4808
 1005MOL0     H32616   5.604   3.928   8.572  0.2136 -0.6744  3.4270
 1005MOL0     H32617   5.596   3.770   8.630 -0.8059  1.1013 -0.2428
 1005MOL0     H32618   5.688   3.693   8.392  1.2798  1.4175 -0.0056
 1005MOL0     H32619   5.517   3.746   8.393 -0.8006  1.9251  0.6275
 1005MOL0     H32620   5.705   3.845   8.219 -4.1415 -0.3323 -2.8064
 1005MOL0     H32621   5.698   3.976   8.344 -2.1024  0.0953  1.2707
 1005MOL0     H32622   5.609   4.148   8.278  1.5357 -0.6777 -1.8484
 1005MOL0     H32623   5.600   4.328   8.110 -0.4314  0.8242 -0.2823
 1005MOL0     H32624   5.189   4.233   7.595  3.1194 -1.3250 -4.0272
 1005MOL0     H32625   5.139   4.367   7.395 -5.4480  2.0302  1.1671
 1005MOL0     H32626   5.256   4.817   7.359 -2.3777  3.5422  0.1843
 1005MOL0     H32627   5.078   4.790   7.392 -1.3897 -2.9105  0.1583
 1005MOL0     H32628   5.083   4.880   7.186 -1.9499 -0.5307  0.4756
 1005MOL0     H32629   5.043   4.704   7.175  0.6464 -1.1025 -1.3725
 1005MOL0     H32630   5.299   4.654   7.143  1.5069 -0.1019 -1.2296
 1005MOL0     H32631   5.318   4.823   7.127 -0.8764  0.3937 -1.0899
 1005MOL0     H32632   5.265   4.652   6.922 -2.5817 -1.6136 -0.5945
 1005MOL0     H32633   5.105   4.708   6.949 -0.0171  0.3536  0.3328
 1005MOL0     H32634   5.210   4.843   6.771  0.1219  0.5035 -0.9266
 1005MOL0     H32635   5.337   4.896   6.871 -0.1711 -0.2315 -2.4097
 1005MOL0     H32636   5.208   5.036   7.011  1.7910  2.5770 -1.8912
 1005MOL0     H32637   5.058   4.972   6.948  2.8049 -1.8750 -0.9589
 1005MOL0     H32638   5.143   5.073   6.709 -1.0922 -2.4911  1.9177
 1005MOL0     H32639   5.117   5.196   6.838 -0.3148  0.1982  1.1666
 1005MOL0     H32640   5.367   5.071   6.733  2.0704 -2.3117  4.4200
 1005MOL0     H32641   5.377   5.178   6.875  2.0694  2.1141 -1.4838
 1005MOL0     H32642   5.293   4.714   7.603  0.9999 -0.6247  1.0303
 1005MOL0     H32643   5.369   4.564   7.771  3.5783 -3.3433 -0.2900
 1005MOL0     H32644   5.286   4.093   7.922 -0.2102 -0.5700  0.9071
 1005MOL0     H32645   5.332   3.918   8.077  0.1983 -0.1103 -2.2519
 1005MOL0     H32646   6.177   4.400   9.473 -1.7139  1.6735 -0.3373
 1005MOL0     H32647   6.036   4.584   9.578 -0.8243 -0.5767  0.4101
 1005MOL0     H32648   5.667   4.548  10.054 -2.8046  1.4436 -0.4392
 1005MOL0     H32649   5.518   4.722  10.135  0.2256  2.1113 -0.3325
 1005MOL0     H32650   5.747   5.029  10.284 -0.2861 -2.6837 -2.3578
 1005MOL0     H32651   5.600   5.067  10.375 -1.5545 -3.0457 -2.1054
 1005MOL0     H32652   5.632   5.202  10.102 -0.3197  0.4938  0.3011
 1005MOL0     H32653   5.526   5.245  10.228  0.1087 -0.1934  0.7035
 1005MOL0     H32654   5.823   5.251  10.288 -0.5539  0.6635 -0.7385
 1005MOL0     H32655   5.676   5.337  10.365 -2.4192 -2.7288  0.8254
 1005MOL0     H32656   5.803   5.498  10.233  0.1115 -0.8172 -0.9869
 1005MOL0     H32657   5.760   5.399  10.094  4.2381 -0.5244  1.0868
 1005MOL0     H32658   5.389   5.601  10.180 -0.3097  0.0241 -2.4419
 1005MOL0     H32659   5.821   5.023  10.093 -2.5454  1.0628 -1.5237
 1005MOL0     H32660   5.964   4.845   9.970 -0.8263 -0.7936 -1.5921
 1006MOL0     O32661   4.976   7.136   7.814  0.6000  0.1488 -0.0096
 1006MOL0     C32662   4.910   7.199   7.894 -0.3711  0.3718  0.5605
 1006MOL0     O32663   4.873   7.330   7.889 -0.3967  0.4895 -0.2101
 1006MOL0     C32664   4.921   7.402   7.787  0.8162  0.2496 -0.4263
 1006MOL0     C32665   5.060   7.411   7.748 -0.5811  0.4255  0.3342
 1006MOL0     C32666   5.102   7.498   7.647 -0.6284 -0.6941 -0.3527
 1006MOL0     C32667   5.017   7.585   7.587  0.6103 -0.5188  0.0841
 1006MOL0     O32668   5.069   7.665   7.493 -0.5819 -0.4928 -1.3247
 1006MOL0     C32669   5.000   7.716   7.385 -0.1203 -0.2158 -0.4040
 1006MOL0     C32670   5.074   7.728   7.251 -0.1638 -0.1941  0.0862
 1006MOL0     C32671   4.988   7.812   7.152 -0.4256 -0.7541  0.5793
 1006MOL0     C32672   5.050   7.823   7.008  0.5972 -0.5317 -0.0664
 1006MOL0     C32673   4.964   7.912   6.915  0.7795 -0.2116 -0.5535
 1006MOL0     C32674   4.960   8.063   6.956  0.6106  0.2433  0.3473
 1006MOL0     C32675   5.079   8.127   7.029 -0.7701  0.2597 -0.5222
 1006MOL0     C32676   5.046   8.275   7.047 -0.0887  0.5864  0.7250
 1006MOL0     N32677   5.097   8.333   7.169  0.0007 -0.3443  0.0658
 1006MOL0     C32678   5.051   8.296   7.290  0.9644 -0.1412 -0.9683
 1006MOL0     C32679   5.090   8.393   7.371  0.3895 -0.2796 -0.5599
 1006MOL0     C32680   5.075   8.410   7.514 -0.2636 -0.9732  0.7855
 1006MOL0     C32681   4.964   8.501   7.538 -0.2725 -0.3844 -0.1324
 1006MOL0     C32682   4.977   8.550   7.683 -0.3533  0.4551  0.0770
 1006MOL0     C32683   5.004   8.440   7.773 -0.1390 -1.3540  0.1942
 1006MOL0     O32684   4.902   8.349   7.778  0.0611  0.3862  0.2032
 1006MOL0     C32685   4.892   8.272   7.892 -0.3620  0.2080  0.2083
 1006MOL0     C32686   4.962   8.292   8.011 -0.1527 -0.3398 -1.7825
 1006MOL0     C32687   4.949   8.225   8.134 -0.6216  0.8532 -0.2036
 1006MOL0     C32688   4.855   8.122   8.146  0.5891 -0.6286  0.0582
 1006MOL0     C32689   4.838   8.030   8.263  0.1647 -0.3258 -0.1861
 1006MOL0     O32690   4.904   8.060   8.386 -0.5551  1.3323  0.5317
 1006MOL0     C32691   4.872   7.982   8.494 -0.3073 -0.0647  0.7022
 1006MOL0     C32692   4.747   7.990   8.558  0.6385  0.1775  0.4028
 1006MOL0     C32693   4.709   7.906   8.664 -0.5524 -0.4541 -0.2444
 1006MOL0     C32694   4.811   7.814   8.710 -0.0097  0.6034  0.8189
 1006MOL0     O32695   4.793   7.730   8.826  0.3293 -0.0319 -0.2798
 1006MOL0     C32696   4.683   7.744   8.910 -0.4485 -0.2452  0.2987
 1006MOL0     C32697   4.724   7.721   9.061  0.5107 -0.4249  0.2491
 1006MOL0     C32698   4.629   7.787   9.157 -0.1213  0.0440  0.1460
 1006MOL0     C32699   4.662   7.938   9.144 -0.2842 -0.6904  0.0454
 1006MOL0     C32700   4.623   8.014   9.277  0.3347 -0.8053 -0.0761
 1006MOL0     C32701   4.565   8.153   9.256  0.2896 -0.2808 -0.4713
 1006MOL0     C32702   4.535   8.231   9.387  0.0450 -0.1871 -0.7123
 1006MOL0     C32703   4.433   8.339   9.349  0.7898  1.5992 -1.3850
 1006MOL0    Cl32704   4.398   8.427   9.502  0.1046  0.1263 -0.5134
 1006MOL0     C32705   4.921   7.798   8.628 -0.4899 -0.6008 -0.0857
 1006MOL0     C32706   4.956   7.880   8.527  0.9677  0.0714  0.1453
 1006MOL0     O32707   4.754   7.943   8.249  0.1771  0.0671  0.6991
 1006MOL0     C32708   4.786   8.095   8.023 -0.1403  0.0153 -0.6036
 1006MOL0     C32709   4.793   8.167   7.905 -0.5254 -0.5504  0.6613
 1006MOL0     N32710   5.145   8.494   7.296  0.5983 -0.1141  0.6220
 1006MOL0     N32711   5.162   8.453   7.178  0.8720 -0.3579 -1.3105
 1006MOL0     C32712   4.879   7.573   7.619 -0.4286  0.4206  0.1407
 1006MOL0     C32713   4.835   7.490   7.721 -0.2406 -0.2442  0.2623
 1006MOL0     C32714   4.879   7.130   8.017  0.0554 -0.7888 -0.6375
 1006MOL0     C32715   4.861   6.997   8.021  0.5881  1.5096  0.1388
 1006MOL0     C32716   4.827   6.924   8.134 -0.4846  0.1980  0.0093
 1006MOL0     C32717   4.805   6.989   8.251  0.3939  0.2470 -0.0958
 1006MOL0     O32718   4.805   6.898   8.357  0.1750 -0.7829 -0.7501
 1006MOL0     C32719   4.822   6.955   8.486 -0.4524  0.1052 -0.1015
 1006MOL0     C32720   4.857   6.846   8.585  0.4873  0.2817 -0.4578
 1006MOL0     C32721   4.832   6.891   8.738 -0.0502  0.1098 -0.0078
 1006MOL0     C32722   4.913   6.807   8.819 -0.0061  0.0007  0.1535
 1006MOL0     C32723   4.900   6.667   8.792 -0.6409 -1.0648  0.5042
 1006MOL0     C32724   4.885   6.550   8.763  0.2819  0.1595 -0.6152
 1006MOL0     C32725   4.801   7.134   8.249 -0.2816 -0.2944 -0.1580
 1006MOL0     C32726   4.834   7.195   8.132  0.3787 -0.4776  1.2714
 1006MOL0     H32727   5.127   7.340   7.795 -2.2960 -1.2071  0.4458
 1006MOL0     H32728   5.203   7.493   7.607 -0.7082 -0.3488 -0.6057
 1006MOL0     H32729   4.956   7.812   7.416  0.6571 -0.5408  1.8750
 1006MOL0     H32730   4.914   7.650   7.369 -1.2093  1.0136  0.1455
 1006MOL0     H32731   5.099   7.631   7.208 -0.9912 -1.6085  2.5574
 1006MOL0     H32732   5.170   7.775   7.274 -1.0272  1.0708  1.3532
 1006MOL0     H32733   4.976   7.913   7.191  4.2530  0.7642 -1.1308
 1006MOL0     H32734   4.890   7.765   7.139 -0.9124 -0.0005  1.4167
 1006MOL0     H32735   5.150   7.866   7.020  0.0753  0.1535  2.4876
 1006MOL0     H32736   5.063   7.724   6.964 -1.4533 -0.4720 -0.9058
 1006MOL0     H32737   4.865   7.869   6.902  0.0252  0.2204  2.7978
 1006MOL0     H32738   5.013   7.906   6.818  3.7564  0.3703  0.7856
 1006MOL0     H32739   4.876   8.074   7.025  0.6072 -2.1389  0.8232
 1006MOL0     H32740   4.945   8.102   6.855  3.4352 -3.0653 -1.6083
 1006MOL0     H32741   5.081   8.096   7.134  1.2225  0.0339 -0.5894
 1006MOL0     H32742   5.178   8.112   6.985 -0.0727  3.5101 -0.3095
 1006MOL0     H32743   4.938   8.287   7.046 -0.4753 -2.1092 -0.8024
 1006MOL0     H32744   5.086   8.319   6.955  0.9807 -3.0472 -0.7108
 1006MOL0     H32745   4.997   8.207   7.321  0.8878 -0.3218 -1.6178
 1006MOL0     H32746   5.167   8.456   7.551 -0.9953  0.4275  0.9216
 1006MOL0     H32747   5.051   8.318   7.569 -1.9402 -1.0263  0.0149
 1006MOL0     H32748   4.874   8.441   7.524  0.2408 -1.3130  0.4281
 1006MOL0     H32749   4.952   8.579   7.462  0.3561  0.4312  0.5875
 1006MOL0     H32750   5.045   8.634   7.696 -0.7740  0.7571  0.3676
 1006MOL0     H32751   4.879   8.595   7.701  0.4697  2.2280  0.3106
 1006MOL0     H32752   5.025   8.499   7.862 -0.2399  1.8626 -1.7692
 1006MOL0     H32753   5.106   8.404   7.752  1.6447  3.1988 -0.1475
 1006MOL0     H32754   5.041   8.366   8.014  0.3822 -0.9398 -0.8124
 1006MOL0     H32755   5.020   8.248   8.213  1.8007 -0.4732 -1.8918
 1006MOL0     H32756   4.666   8.057   8.533 -0.9135 -0.5262  3.0985
 1006MOL0     H32757   4.618   7.922   8.721 -0.5452 -2.1037  0.2802
 1006MOL0     H32758   4.614   7.663   8.887 -0.1892 -1.2560  2.7437
 1006MOL0     H32759   4.619   7.833   8.915 -2.8940 -1.9263  0.4417
 1006MOL0     H32760   4.828   7.755   9.070  0.5586 -0.2248 -0.8656
 1006MOL0     H32761   4.724   7.614   9.079 -0.8733 -0.4900 -0.0564
 1006MOL0     H32762   4.647   7.762   9.262 -1.7569 -0.4743  0.3262
 1006MOL0     H32763   4.522   7.768   9.152 -0.5829  2.4255 -0.0814
 1006MOL0     H32764   4.766   7.967   9.127  0.1793 -0.1724  3.1522
 1006MOL0     H32765   4.608   7.988   9.063  0.5232  1.9761  1.0391
 1006MOL0     H32766   4.717   8.021   9.333 -1.1930  0.0322  2.6023
 1006MOL0     H32767   4.552   7.953   9.334  1.9590 -2.7174  0.0127
 1006MOL0     H32768   4.478   8.144   9.190  0.4898  1.8451 -1.1038
 1006MOL0     H32769   4.636   8.211   9.196 -0.3995 -0.8301 -1.8756
 1006MOL0     H32770   4.489   8.159   9.455 -2.1112  0.4422 -1.4357
 1006MOL0     H32771   4.628   8.268   9.430 -1.2102  0.4507  1.5979
 1006MOL0     H32772   4.336   8.304   9.314 -0.7201 -1.1158  4.3183
 1006MOL0     H32773   4.479   8.419   9.290  1.9530  1.0799 -1.2133
 1006MOL0     H32774   4.998   7.731   8.664  1.6623  2.3626  1.2397
 1006MOL0     H32775   5.047   7.871   8.468  0.9886 -0.6278  0.2800
 1006MOL0     H32776   4.716   8.012   8.019  1.6412 -1.5720 -0.8237
 1006MOL0     H32777   4.727   8.139   7.824 -1.2375 -0.5276  1.2250
 1006MOL0     H32778   4.807   7.646   7.583 -0.7598  0.3633  0.6804
 1006MOL0     H32779   4.732   7.499   7.753 -0.3037 -2.3763  0.8256
 1006MOL0     H32780   4.867   6.926   7.939  2.2454  0.3486  1.2165
 1006MOL0     H32781   4.838   6.816   8.137  2.1512  0.3985  0.0923
 1006MOL0     H32782   4.729   7.010   8.507  0.8627  1.7184  1.8758
 1006MOL0     H32783   4.897   7.034   8.487 -3.3718  3.1199 -0.3267
 1006MOL0     H32784   4.806   6.751   8.569  3.1548 -1.1478 -0.9994
 1006MOL0     H32785   4.963   6.830   8.564  0.0489  0.6096 -3.3299
 1006MOL0     H32786   4.730   6.869   8.770  0.2492 -5.8985 -1.8373
 1006MOL0     H32787   4.863   6.994   8.757  5.7661 -0.9408 -1.8637
 1006MOL0     H32788   5.020   6.827   8.826  0.3294 -1.9660  1.3025
 1006MOL0     H32789   4.878   6.806   8.923 -0.1919 -0.4533  0.0863
 1006MOL0     H32790   4.869   6.449   8.734 -0.0172  0.3527 -1.1222
 1006MOL0     H32791   4.778   7.192   8.338  3.0658 -1.6549  1.7974
 1006MOL0     H32792   4.816   7.302   8.138 -4.0837 -1.0998  2.5286
 1007MOL0     O32793   8.677   7.171   9.118  0.2747  0.2992  0.5722
 1007MOL0     C32794   8.684   7.292   9.100  0.3879  0.5642  0.7911
 1007MOL0     O32795   8.652   7.360   8.984  0.6818 -0.1340 -0.6419
 1007MOL0     C32796   8.614   7.294   8.863 -0.2108 -0.1090  0.1081
 1007MOL0     C32797   8.662   7.174   8.814  0.1521 -0.2869  0.0096
 1007MOL0     C32798   8.625   7.125   8.686 -0.2590  0.3160  0.5187
 1007MOL0     C32799   8.531   7.197   8.601 -0.1960 -0.8412 -1.3219
 1007MOL0     O32800   8.512   7.154   8.470 -0.2000  0.4581 -0.3809
 1007MOL0     C32801   8.496   7.249   8.363 -0.5436  0.3424  0.2368
 1007MOL0     C32802   8.428   7.185   8.242 -0.1161 -1.8756 -0.0611
 1007MOL0     C32803   8.377   7.282   8.133  1.0464  0.0754  0.5066
 1007MOL0     C32804   8.495   7.360   8.069 -0.5567  0.1182  0.9044
 1007MOL0     C32805   8.591   7.261   7.994  0.0164 -1.2206  0.1147
 1007MOL0     C32806   8.737   7.282   8.014 -0.1822 -0.7897  0.1524
 1007MOL0     C32807   8.809   7.191   7.927  0.3140 -0.3894 -0.4482
 1007MOL0     C32808   8.954   7.227   7.944  0.0096  0.1273 -0.0509
 1007MOL0     N32809   9.033   7.154   7.847 -0.4686  0.1413 -0.1286
 1007MOL0     C32810   9.169   7.137   7.855  0.4207 -0.1287 -0.2917
 1007MOL0     C32811   9.204   7.081   7.737  0.6398  0.4334  0.7730
 1007MOL0     C32812   9.329   7.026   7.689  0.3821  0.2515  0.9202
 1007MOL0     C32813   9.401   6.928   7.781  0.2142  0.7448 -0.1741
 1007MOL0     C32814   9.358   6.779   7.750  0.6772  0.9961  0.2860
 1007MOL0     C32815   9.344   6.700   7.885 -0.1310 -0.2601  0.5558
 1007MOL0     O32816   9.217   6.731   7.941  0.3550  0.0608  0.0704
 1007MOL0     C32817   9.209   6.704   8.071 -0.4655 -1.0755 -0.1894
 1007MOL0     C32818   9.222   6.814   8.167 -0.5828  0.0435  0.9342
 1007MOL0     C32819   9.213   6.788   8.305  0.4657  1.1716 -0.4811
 1007MOL0     C32820   9.197   6.668   8.365 -0.0279  0.9750  0.6224
 1007MOL0     C32821   9.212   6.652   8.506  0.1240 -0.5950  0.5827
 1007MOL0     O32822   9.171   6.764   8.576  0.1872  0.4808  0.8998
 1007MOL0     C32823   9.141   6.762   8.698 -0.5081  1.1126 -0.7832
 1007MOL0     C32824   9.189   6.692   8.812 -0.6146  0.4867  0.7626
 1007MOL0     C32825   9.136   6.712   8.943 -1.7178  0.0862  0.5445
 1007MOL0     C32826   9.038   6.807   8.962 -0.6530  0.0808 -0.6758
 1007MOL0     O32827   8.989   6.799   9.089  0.5040  0.0607 -0.5410
 1007MOL0     C32828   8.887   6.898   9.130  0.5055  0.3970  0.8224
 1007MOL0     C32829   8.816   6.860   9.260  0.7027 -0.2405  0.4202
 1007MOL0     C32830   8.919   6.845   9.374 -0.0230  0.3461  0.2009
 1007MOL0     C32831   8.967   6.976   9.429  0.3499 -0.4071  0.0759
 1007MOL0     C32832   9.060   6.950   9.546 -0.5847 -0.7568  0.3450
 1007MOL0     C32833   9.102   7.077   9.609 -0.5751 -0.0608  0.0277
 1007MOL0     C32834   9.234   7.047   9.686  0.3475  0.3753  0.0683
 1007MOL0     C32835   9.273   7.167   9.758 -0.3268 -0.0594 -0.2865
 1007MOL0    Cl32836   9.411   7.148   9.866  0.1006 -0.5077 -0.1054
 1007MOL0     C32837   8.997   6.885   8.849  0.6161  0.9879  0.3069
 1007MOL0     C32838   9.051   6.858   8.720  0.4447 -0.2827  0.1637
 1007MOL0     O32839   9.271   6.547   8.544  1.0386  0.3864 -0.5462
 1007MOL0     C32840   9.166   6.565   8.270 -0.4764  0.3819 -0.1028
 1007MOL0     C32841   9.179   6.583   8.126  0.6684  0.9469 -0.7063
 1007MOL0     N32842   9.086   7.078   7.660 -0.4882 -0.0331  0.5346
 1007MOL0     N32843   8.994   7.132   7.721  0.3216 -0.0067  0.9081
 1007MOL0     C32844   8.495   7.325   8.645 -0.6324  0.3788  0.6459
 1007MOL0     C32845   8.540   7.370   8.773 -0.4469 -0.0521 -0.2390
 1007MOL0     C32846   8.750   7.386   9.205 -1.4012  0.1541 -1.1051
 1007MOL0     C32847   8.842   7.338   9.290 -0.0361 -0.5670 -1.5941
 1007MOL0     C32848   8.906   7.422   9.383  1.1927 -0.0431  0.6540
 1007MOL0     C32849   8.880   7.562   9.385 -0.4203 -0.0032 -0.0451
 1007MOL0     O32850   8.936   7.650   9.474 -0.4550  0.4138  0.2196
 1007MOL0     C32851   9.014   7.598   9.595 -0.2732 -0.7703  0.4105
 1007MOL0     C32852   9.015   7.697   9.707  0.0374  0.0181 -0.5677
 1007MOL0     C32853   9.109   7.659   9.824  0.0399 -0.3335 -0.0633
 1007MOL0     C32854   9.029   7.563   9.918 -0.7199  1.0434 -0.0484
 1007MOL0     C32855   9.133   7.496  10.010 -0.3030 -0.5484  0.8773
 1007MOL0     C32856   9.222   7.437  10.070  0.0122  0.8494  0.1657
 1007MOL0     C32857   8.784   7.606   9.301  0.6028 -0.2499 -0.1701
 1007MOL0     C32858   8.731   7.526   9.202  0.3158  0.2004  1.3872
 1007MOL0     H32859   8.726   7.124   8.885  0.4741  0.6872  0.4270
 1007MOL0     H32860   8.651   7.022   8.667 -2.9980 -0.3198 -0.2150
 1007MOL0     H32861   8.594   7.281   8.327  0.2480  0.0161  2.0251
 1007MOL0     H32862   8.421   7.323   8.393 -1.9685 -1.2820  0.8223
 1007MOL0     H32863   8.338   7.146   8.290 -0.8592  1.4412  1.5520
 1007MOL0     H32864   8.484   7.094   8.220  2.3633 -0.9380  1.7693
 1007MOL0     H32865   8.313   7.357   8.180  0.2985  0.9546 -1.7610
 1007MOL0     H32866   8.322   7.219   8.062 -0.3538  1.5212  0.2562
 1007MOL0     H32867   8.450   7.426   7.994 -0.8711 -1.1962 -0.1098
 1007MOL0     H32868   8.548   7.419   8.144 -0.2377  2.5090 -1.0658
 1007MOL0     H32869   8.568   7.262   7.887 -0.0979 -0.8877  0.1444
 1007MOL0     H32870   8.562   7.161   8.028 -1.2215 -0.3060  1.8951
 1007MOL0     H32871   8.765   7.269   8.120 -0.6789 -0.3687  0.3398
 1007MOL0     H32872   8.759   7.384   7.980  0.9974 -1.7420 -2.1122
 1007MOL0     H32873   8.792   7.086   7.953  0.2922 -0.6693 -1.5313
 1007MOL0     H32874   8.777   7.222   7.827 -2.4212 -0.5219  0.3158
 1007MOL0     H32875   8.980   7.215   8.050 -1.2215 -1.3821  0.1044
 1007MOL0     H32876   8.977   7.333   7.928  1.3760  0.4178  3.0687
 1007MOL0     H32877   9.226   7.148   7.946 -0.6620  2.8917  0.1436
 1007MOL0     H32878   9.398   7.109   7.674 -0.8596  0.9510 -1.5597
 1007MOL0     H32879   9.293   6.993   7.591  0.9745  1.2189  0.3690
 1007MOL0     H32880   9.378   6.956   7.884 -1.5191  0.9339 -0.5724
 1007MOL0     H32881   9.507   6.945   7.760 -0.3827  2.4112 -2.2772
 1007MOL0     H32882   9.264   6.771   7.696 -0.5133  0.5458  2.3150
 1007MOL0     H32883   9.432   6.725   7.690 -1.6480 -2.4008  0.1792
 1007MOL0     H32884   9.427   6.731   7.948  0.4378 -0.5581 -0.0426
 1007MOL0     H32885   9.347   6.592   7.872 -2.9194 -0.6432  2.1676
 1007MOL0     H32886   9.254   6.909   8.125 -3.0785  0.3129 -0.5925
 1007MOL0     H32887   9.225   6.873   8.372  0.5022  0.1704  0.8342
 1007MOL0     H32888   9.260   6.614   8.789 -0.0135  0.7002  1.7984
 1007MOL0     H32889   9.165   6.643   9.022  0.5597 -0.3011 -0.5461
 1007MOL0     H32890   8.807   6.911   9.057  3.3745  1.4702 -2.3429
 1007MOL0     H32891   8.939   6.994   9.136 -0.8365  1.4429 -2.2713
 1007MOL0     H32892   8.757   6.769   9.245 -1.2858  0.9139  0.8719
 1007MOL0     H32893   8.747   6.941   9.285 -0.8940 -2.1095  2.4732
 1007MOL0     H32894   9.007   6.799   9.328 -0.5595  0.9103 -1.4678
 1007MOL0     H32895   8.877   6.775   9.447 -1.1306  1.5342  0.7384
 1007MOL0     H32896   9.027   7.036   9.360  0.6705 -1.1912 -0.3400
 1007MOL0     H32897   8.878   7.033   9.458  0.1946 -0.5677 -0.0798
 1007MOL0     H32898   9.142   6.891   9.506 -0.9003  0.3446 -2.0890
 1007MOL0     H32899   9.004   6.884   9.614 -1.0387 -0.4653  0.2638
 1007MOL0     H32900   9.025   7.125   9.670 -1.4599 -0.9733 -0.3431
 1007MOL0     H32901   9.135   7.147   9.532 -0.4147 -0.4907 -0.3035
 1007MOL0     H32902   9.224   6.973   9.766  1.3594  0.8397  0.6362
 1007MOL0     H32903   9.315   7.017   9.619 -0.3158  1.3706 -1.2345
 1007MOL0     H32904   9.190   7.210   9.814 -0.9564 -0.6156 -0.7860
 1007MOL0     H32905   9.312   7.244   9.691  0.7432 -0.8643 -0.6324
 1007MOL0     H32906   8.935   6.972   8.866  1.0528  1.1927  0.8689
 1007MOL0     H32907   9.005   6.919   8.643  2.4404  1.5212  0.2927
 1007MOL0     H32908   9.141   6.466   8.308 -2.7180  0.5754 -0.9297
 1007MOL0     H32909   9.156   6.495   8.067  0.5420  0.0955  0.5781
 1007MOL0     H32910   8.428   7.392   8.591  1.3627  0.4019 -2.0455
 1007MOL0     H32911   8.505   7.471   8.795 -0.5380  0.3533 -2.0999
 1007MOL0     H32912   8.865   7.232   9.284  0.2675 -0.5646 -0.6524
 1007MOL0     H32913   8.969   7.377   9.460  1.2170 -0.0903  0.6064
 1007MOL0     H32914   9.114   7.586   9.551  0.0758 -1.6365  1.4078
 1007MOL0     H32915   8.990   7.497   9.629  1.7571 -1.5144 -0.1589
 1007MOL0     H32916   9.045   7.795   9.669 -0.4699  1.5949  2.7098
 1007MOL0     H32917   8.914   7.722   9.741 -0.1113 -0.2445 -0.8151
 1007MOL0     H32918   9.130   7.755   9.873 -3.9852  0.6310  0.0792
 1007MOL0     H32919   9.210   7.627   9.797  0.9050 -1.4295  3.7568
 1007MOL0     H32920   8.957   7.611   9.984 -1.3026  0.0061  0.1018
 1007MOL0     H32921   8.983   7.473   9.875 -2.9816  0.0514  3.9154
 1007MOL0     H32922   9.304   7.393  10.122 -0.1231  0.0961 -0.2424
 1007MOL0     H32923   8.747   7.707   9.308 -1.8353 -1.1571  1.4988
 1007MOL0     H32924   8.663   7.559   9.124 -1.9306 -4.2196  1.1930
 1008MOL0     O32925   6.022   0.676   9.599 -0.0268  0.6251 -0.2138
 1008MOL0     C32926   6.070   0.566   9.629 -0.4777  0.5797  0.0638
 1008MOL0     O32927   6.086   0.527   9.753 -0.6539 -0.8098 -0.3272
 1008MOL0     C32928   5.987   0.548   9.842 -0.4693  0.1598 -1.0110
 1008MOL0     C32929   5.852   0.548   9.805  0.3937 -0.6425 -0.8788
 1008MOL0     C32930   5.761   0.601   9.909  0.2043  0.2983 -0.0217
 1008MOL0     C32931   5.815   0.637  10.036 -0.1440 -0.2851  0.3922
 1008MOL0     O32932   5.746   0.682  10.148 -0.2990  0.2998 -0.0410
 1008MOL0     C32933   5.605   0.720  10.126 -0.3685  0.4737  0.5357
 1008MOL0     C32934   5.528   0.742  10.249  0.1981 -0.3265  0.2605
 1008MOL0     C32935   5.514   0.628  10.345 -0.6302  1.0989 -0.1715
 1008MOL0     C32936   5.643   0.578  10.422  0.6094  0.0663  0.0562
 1008MOL0     C32937   5.614   0.471  10.529 -0.2261 -0.8917 -0.8510
 1008MOL0     C32938   5.603   0.527  10.666 -0.5178 -0.4180  0.6855
 1008MOL0     C32939   5.584   0.417  10.779 -0.4050  0.1806 -0.0034
 1008MOL0     C32940   5.450   0.346  10.777  0.0632  1.0032 -0.1337
 1008MOL0     N32941   5.340   0.443  10.775  0.2242  0.5827 -0.1935
 1008MOL0     C32942   5.292   0.523  10.874 -0.3288  0.0396  0.6114
 1008MOL0     C32943   5.169   0.562  10.839  0.0859 -0.4589  0.4596
 1008MOL0     C32944   5.097   0.655  10.941 -0.1369  0.1555 -0.0900
 1008MOL0     C32945   4.945   0.629  10.953  0.6963  1.5109  0.3558
 1008MOL0     C32946   4.902   0.483  10.989  0.1752 -0.4327  0.9168
 1008MOL0     C32947   4.959   0.425  11.117 -0.2263  0.0675  0.3749
 1008MOL0     O32948   4.899   0.477  11.233 -0.1109  0.2345  0.0457
 1008MOL0     C32949   4.810   0.401  11.304  0.0871  0.5342 -0.2785
 1008MOL0     C32950   4.805   0.419  11.449 -0.6991  0.6812 -0.5174
 1008MOL0     C32951   4.726   0.336  11.533 -0.4499  0.0573  0.2722
 1008MOL0     C32952   4.635   0.242  11.465  0.0580  0.7625 -0.7251
 1008MOL0     C32953   4.542   0.166  11.553 -0.2526 -0.3370  0.6027
 1008MOL0     O32954   4.430   0.120  11.480 -0.1715  0.0189  0.5606
 1008MOL0     C32955   4.336   0.042  11.540 -0.3543 -0.8036 -0.8675
 1008MOL0     C32956   4.352  -0.036  11.649 -1.1936 -0.1802 -0.5179
 1008MOL0     C32957   4.259  -0.117  11.691 -0.2583 -0.4135 -0.6998
 1008MOL0     C32958   4.138  -0.118  11.626 -0.5139  0.2780  0.1137
 1008MOL0     O32959   4.049  -0.204  11.691 -0.0710 -0.1598 -0.4621
 1008MOL0     C32960   3.929  -0.231  11.627  0.4636 -0.0672  0.8380
 1008MOL0     C32961   3.843  -0.317  11.718 -0.1562  0.5825  0.6230
 1008MOL0     C32962   3.695  -0.326  11.672  0.1271 -0.3774 -0.1504
 1008MOL0     C32963   3.618  -0.439  11.731  0.2084  0.7143  0.6713
 1008MOL0     C32964   3.680  -0.583  11.711  0.5555 -0.2700 -0.1801
 1008MOL0     C32965   3.595  -0.702  11.745 -0.4261  0.3461 -0.6304
 1008MOL0     C32966   3.648  -0.834  11.678  0.5115 -0.0638 -0.3179
 1008MOL0     C32967   3.572  -0.945  11.740 -0.2893  0.0096 -0.4287
 1008MOL0    Cl32968   3.406  -0.933  11.681 -0.0771 -0.4151 -0.9359
 1008MOL0     C32969   4.112  -0.033  11.512  0.0358 -0.8965 -0.5450
 1008MOL0     C32970   4.219   0.040  11.463 -0.0583  0.1851 -0.7951
 1008MOL0     O32971   4.551   0.173  11.680 -0.2866  0.2472 -0.5507
 1008MOL0     C32972   4.643   0.225  11.328 -0.0865 -0.2305  0.1747
 1008MOL0     C32973   4.724   0.296  11.251 -0.5015  0.6253  0.4136
 1008MOL0     N32974   5.134   0.513  10.719 -0.3764 -0.0098  0.0170
 1008MOL0     N32975   5.241   0.437  10.676 -0.5904  0.4839 -0.1731
 1008MOL0     C32976   5.945   0.616  10.062  0.9104 -0.2942 -0.6548
 1008MOL0     C32977   6.033   0.578   9.967 -0.9900 -0.1202  0.5161
 1008MOL0     C32978   6.138   0.486   9.533  0.0279  0.0664  0.5459
 1008MOL0     C32979   6.138   0.512   9.401  0.2756  1.0018 -0.3255
 1008MOL0     C32980   6.216   0.433   9.303  0.1127 -0.3226  0.0297
 1008MOL0     C32981   6.288   0.320   9.351 -0.9340  0.1337  0.9631
 1008MOL0     O32982   6.356   0.247   9.260 -0.1536 -0.4323 -0.0739
 1008MOL0     C32983   6.401   0.115   9.296 -0.9747  0.1887  0.5551
 1008MOL0     C32984   6.516   0.097   9.197  0.4909  0.0732 -0.4220
 1008MOL0     C32985   6.586  -0.032   9.215 -0.2705 -0.2258  0.0782
 1008MOL0     C32986   6.696  -0.067   9.125  0.7916  0.7251 -0.6904
 1008MOL0     C32987   6.810   0.011   9.126 -0.2766 -0.5025 -0.3990
 1008MOL0     C32988   6.921   0.055   9.121  0.7148 -0.0502  0.9459
 1008MOL0     C32989   6.259   0.283   9.486  0.2381  0.5097  0.4533
 1008MOL0     C32990   6.185   0.363   9.574  0.0524 -0.6943 -0.3282
 1008MOL0     H32991   5.827   0.522   9.702  1.0956  2.4546 -1.9438
 1008MOL0     H32992   5.657   0.619   9.884  0.1320  2.6599  1.6553
 1008MOL0     H32993   5.553   0.656  10.054  0.3060  1.4570 -0.8873
 1008MOL0     H32994   5.618   0.818  10.079  5.5949 -1.0647 -1.9489
 1008MOL0     H32995   5.430   0.776  10.216  0.1880 -1.3401 -0.8196
 1008MOL0     H32996   5.567   0.829  10.303  1.8863  0.7111 -2.3960
 1008MOL0     H32997   5.477   0.542  10.289  0.3755  0.9191 -0.5862
 1008MOL0     H32998   5.437   0.649  10.419  1.8875 -1.8784  3.6818
 1008MOL0     H32999   5.713   0.524  10.358  0.7421  1.1263 -0.7203
 1008MOL0     H33000   5.693   0.666  10.464  0.7128  1.1798 -2.2550
 1008MOL0     H33001   5.694   0.397  10.536  1.0255  0.4510 -0.2644
 1008MOL0     H33002   5.521   0.417  10.506 -0.6880  0.1575 -1.5411
 1008MOL0     H33003   5.519   0.598  10.663 -1.9887 -2.0773  0.6371
 1008MOL0     H33004   5.690   0.588  10.691 -1.0962  0.5971  0.3079
 1008MOL0     H33005   5.663   0.342  10.777 -0.5279  0.0404  0.3015
 1008MOL0     H33006   5.598   0.470  10.874 -0.2923 -0.7097  0.4880
 1008MOL0     H33007   5.453   0.282  10.866  1.8418  2.4401  0.9333
 1008MOL0     H33008   5.451   0.279  10.691  0.8802 -1.0130  1.3571
 1008MOL0     H33009   5.335   0.550  10.970  2.0300  2.1441 -0.9017
 1008MOL0     H33010   5.118   0.759  10.912 -1.6555  0.1794 -1.2534
 1008MOL0     H33011   5.143   0.630  11.037 -0.5820 -3.8234 -0.7597
 1008MOL0     H33012   4.886   0.671  10.871 -0.3434  0.6118  0.6228
 1008MOL0     H33013   4.930   0.681  11.048  0.7026 -3.6275  3.5691
 1008MOL0     H33014   4.793   0.478  10.985 -0.0170  2.5129  0.0396
 1008MOL0     H33015   4.916   0.416  10.904 -0.8254  0.2243  0.2124
 1008MOL0     H33016   5.066   0.441  11.129 -0.1264 -2.0661  4.0202
 1008MOL0     H33017   4.965   0.315  11.116 -3.3423 -0.1906 -0.0149
 1008MOL0     H33018   4.878   0.493  11.478  0.3757 -0.6183  0.2146
 1008MOL0     H33019   4.734   0.354  11.640 -0.2474  1.3285  0.0635
 1008MOL0     H33020   4.443  -0.035  11.707 -0.1942 -3.4853 -1.7999
 1008MOL0     H33021   4.252  -0.184  11.775 -3.3230  1.3009  0.5909
 1008MOL0     H33022   3.944  -0.275  11.529  0.3783  1.5313  0.0672
 1008MOL0     H33023   3.866  -0.143  11.610 -0.4321 -1.3091 -3.1355
 1008MOL0     H33024   3.847  -0.283  11.822  2.9067  2.7460 -0.0634
 1008MOL0     H33025   3.894  -0.414  11.716 -0.3069  0.4677  1.6537
 1008MOL0     H33026   3.685  -0.333  11.563 -0.8215  3.0927 -0.4159
 1008MOL0     H33027   3.648  -0.237  11.715  2.6729 -0.7677  4.0474
 1008MOL0     H33028   3.608  -0.418  11.838 -1.0415  1.8549  0.3534
 1008MOL0     H33029   3.513  -0.441  11.700  0.2950  1.5107  0.2940
 1008MOL0     H33030   3.769  -0.576  11.773 -0.3092  2.7854  0.9091
 1008MOL0     H33031   3.702  -0.581  11.604  1.0403  5.1803 -0.2855
 1008MOL0     H33032   3.493  -0.680  11.712 -2.1270 -1.3114  2.9672
 1008MOL0     H33033   3.585  -0.694  11.853 -0.8343  0.4067 -0.6713
 1008MOL0     H33034   3.634  -0.840  11.570 -0.2030  0.7031 -0.2734
 1008MOL0     H33035   3.756  -0.842  11.695  0.6496  2.9887  0.8587
 1008MOL0     H33036   3.564  -0.924  11.847  0.3333  1.8720 -0.7096
 1008MOL0     H33037   3.626  -1.039  11.724  0.2668  0.3047 -0.3226
 1008MOL0     H33038   4.012  -0.026  11.471 -0.0240 -1.0583 -0.4270
 1008MOL0     H33039   4.204   0.091  11.368  0.1109 -3.6769 -3.1131
 1008MOL0     H33040   4.584   0.148  11.279  1.0584 -0.3080 -1.1270
 1008MOL0     H33041   4.739   0.277  11.145  1.2779 -1.4450  0.9521
 1008MOL0     H33042   5.971   0.650  10.162  2.3699 -0.6761 -0.8812
 1008MOL0     H33043   6.141   0.573   9.976 -0.9147  2.4479  1.8126
 1008MOL0     H33044   6.077   0.597   9.373 -2.1451 -0.9000 -1.2338
 1008MOL0     H33045   6.230   0.480   9.206  0.2890  0.8762  0.6160
 1008MOL0     H33046   6.327   0.035   9.296  2.6673 -3.7382 -3.0362
 1008MOL0     H33047   6.443   0.115   9.397  0.4790 -1.2243 -0.0136
 1008MOL0     H33048   6.469   0.088   9.098  1.0623 -1.3766 -0.5873
 1008MOL0     H33049   6.570   0.192   9.205  0.9993 -0.1239 -1.3711
 1008MOL0     H33050   6.508  -0.108   9.199 -3.2262  2.8307 -1.2032
 1008MOL0     H33051   6.618  -0.040   9.320  0.7482  1.9078 -0.0161
 1008MOL0     H33052   6.727  -0.169   9.149  1.3276  1.1932  0.7001
 1008MOL0     H33053   6.656  -0.084   9.024  1.5550 -3.3900 -0.4673
 1008MOL0     H33054   7.022   0.090   9.123  2.2796 -3.8908 -1.3404
 1008MOL0     H33055   6.284   0.184   9.524 -2.4693 -0.7930 -0.8937
 1008MOL0     H33056   6.180   0.330   9.677  0.6358  0.5555  0.1227
 1009MOL0     O33057   1.896   0.657   2.505 -0.2972  0.5646 -0.6388
 1009MOL0     C33058   1.896   0.582   2.405 -0.7865 -0.7593  0.7174
 1009MOL0     O33059   1.993   0.492   2.366  0.5128  0.1879 -0.0373
 1009MOL0     C33060   2.092   0.462   2.454  0.5756 -0.0529 -0.0886
 1009MOL0     C33061   2.065   0.430   2.589 -0.3268 -0.3780  0.1879
 1009MOL0     C33062   2.172   0.406   2.674  0.8646  0.1492 -0.6000
 1009MOL0     C33063   2.302   0.393   2.626 -0.2618 -1.0446 -0.2644
 1009MOL0     O33064   2.413   0.362   2.701 -0.1496 -0.1200  0.8730
 1009MOL0     C33065   2.394   0.283   2.817  0.5435 -0.8190  0.7034
 1009MOL0     C33066   2.542   0.265   2.864 -0.2739  0.8099  0.2937
 1009MOL0     C33067   2.551   0.166   2.992  0.1556  0.6510 -0.1777
 1009MOL0     C33068   2.542   0.242   3.121  0.3592  0.0407 -0.5132
 1009MOL0     C33069   2.561   0.154   3.247  1.1687 -0.4347  0.3881
 1009MOL0     C33070   2.477   0.017   3.244 -0.8200 -0.0099 -0.2223
 1009MOL0     C33071   2.458  -0.046   3.387  0.9457  0.1652 -0.4525
 1009MOL0     C33072   2.584  -0.070   3.466 -0.2754 -1.4252  1.1844
 1009MOL0     N33073   2.557  -0.153   3.580  0.1399  0.1070 -0.0640
 1009MOL0     C33074   2.439  -0.191   3.640 -0.0379 -0.9679 -0.0013
 1009MOL0     C33075   2.482  -0.275   3.739 -0.2433  0.9579 -0.4828
 1009MOL0     C33076   2.410  -0.352   3.843 -0.1632 -0.0657  0.5093
 1009MOL0     C33077   2.423  -0.281   3.980 -0.2783  1.1480  0.9777
 1009MOL0     C33078   2.345  -0.148   3.991 -0.8895  0.2039  0.2672
 1009MOL0     C33079   2.194  -0.158   4.019 -0.5017 -0.0425  0.5310
 1009MOL0     O33080   2.137  -0.227   3.907 -0.5073  0.6118  0.1166
 1009MOL0     C33081   2.116  -0.158   3.787  0.5334  0.7572  0.1244
 1009MOL0     C33082   2.152  -0.018   3.764 -0.1953  0.3027  0.2191
 1009MOL0     C33083   2.149   0.038   3.642  0.5856  0.4614  0.1254
 1009MOL0     C33084   2.098  -0.036   3.532  0.5244  0.5578 -0.7077
 1009MOL0     C33085   2.089   0.012   3.394 -1.0445 -0.9487  1.4036
 1009MOL0     O33086   2.092  -0.082   3.293 -0.7811 -0.1993  0.1445
 1009MOL0     C33087   2.075  -0.051   3.159 -0.5370 -0.5144 -0.5417
 1009MOL0     C33088   2.149  -0.113   3.060 -0.1868  1.3683  0.2184
 1009MOL0     C33089   2.128  -0.082   2.924 -0.1645 -0.2694  0.1089
 1009MOL0     C33090   2.039   0.015   2.887 -0.2563 -0.2206 -0.4460
 1009MOL0     O33091   2.012   0.029   2.755 -0.1945  0.0440  0.3823
 1009MOL0     C33092   1.912   0.120   2.720  0.1044  0.1798 -0.1852
 1009MOL0     C33093   1.875   0.104   2.567  0.4640 -0.8045 -0.0217
 1009MOL0     C33094   1.750   0.186   2.527  0.4036  0.7781 -0.1457
 1009MOL0     C33095   1.748   0.206   2.369 -0.1414 -0.5657  0.1167
 1009MOL0     C33096   1.625   0.281   2.307  0.4679 -0.2096 -0.6494
 1009MOL0     C33097   1.498   0.195   2.311  0.3812 -0.3980  0.4872
 1009MOL0     C33098   1.386   0.270   2.225 -0.8415 -0.0521 -0.2708
 1009MOL0     C33099   1.252   0.201   2.208 -0.5341  0.2340 -0.9990
 1009MOL0    Cl33100   1.250   0.024   2.166 -0.0822 -0.0228 -0.2967
 1009MOL0     C33101   1.972   0.085   2.988 -0.5459  0.4018 -0.1834
 1009MOL0     C33102   1.986   0.040   3.120 -0.2306 -0.0382 -0.6334
 1009MOL0     O33103   2.091   0.128   3.377  0.0731  0.0124  0.3194
 1009MOL0     C33104   2.066  -0.170   3.553 -0.1495  0.9938  0.6766
 1009MOL0     C33105   2.073  -0.230   3.683 -0.1450  0.6497 -0.0651
 1009MOL0     N33106   2.618  -0.282   3.732  0.4822  0.0645  0.9177
 1009MOL0     N33107   2.658  -0.195   3.648 -0.6427 -0.1542 -0.0132
 1009MOL0     C33108   2.325   0.427   2.496  0.0173 -0.0824  1.3042
 1009MOL0     C33109   2.221   0.451   2.406 -0.7213 -0.3361  0.9886
 1009MOL0     C33110   1.792   0.605   2.308  0.6501  0.4099 -0.1135
 1009MOL0     C33111   1.700   0.705   2.333 -0.0611 -0.5461  0.2955
 1009MOL0     C33112   1.596   0.740   2.252 -0.2994  0.1017 -1.4950
 1009MOL0     C33113   1.580   0.665   2.136 -0.0224 -0.6980 -0.8126
 1009MOL0     O33114   1.469   0.700   2.064 -0.0099  0.0278 -0.4747
 1009MOL0     C33115   1.403   0.609   1.967 -0.1536 -0.5506  0.2036
 1009MOL0     C33116   1.306   0.695   1.886  0.1011 -0.0216 -0.1533
 1009MOL0     C33117   1.231   0.606   1.782 -0.9225  0.6218 -0.9766
 1009MOL0     C33118   1.090   0.647   1.736 -1.1550  0.0276  1.2997
 1009MOL0     C33119   1.070   0.774   1.663  0.2717 -0.3224 -0.2267
 1009MOL0     C33120   1.051   0.883   1.617 -0.0281 -0.1341  1.1240
 1009MOL0     C33121   1.678   0.572   2.103 -0.3251 -0.1530 -0.4352
 1009MOL0     C33122   1.781   0.543   2.184 -0.9754 -0.1535  0.8497
 1009MOL0     H33123   1.966   0.440   2.634  1.0109 -0.2230  3.3514
 1009MOL0     H33124   2.143   0.387   2.777  0.2505  0.3099 -0.7441
 1009MOL0     H33125   2.340   0.191   2.790 -0.1060  0.5988 -3.8607
 1009MOL0     H33126   2.330   0.330   2.891  0.0568  0.5460 -0.5279
 1009MOL0     H33127   2.577   0.366   2.884 -5.9680  3.6037 -1.6577
 1009MOL0     H33128   2.604   0.214   2.789 -1.9521 -1.4265  0.3222
 1009MOL0     H33129   2.643   0.108   2.999 -1.9224 -2.7744  1.4501
 1009MOL0     H33130   2.467   0.096   2.985  1.2177 -0.7535  0.6109
 1009MOL0     H33131   2.610   0.326   3.134 -0.3651  0.4956  0.5694
 1009MOL0     H33132   2.449   0.301   3.121  1.2426  1.6981  2.8998
 1009MOL0     H33133   2.526   0.203   3.337 -0.3166 -3.1290  1.3768
 1009MOL0     H33134   2.668   0.131   3.255  0.7106 -3.6332 -0.9819
 1009MOL0     H33135   2.507  -0.054   3.166 -1.7405 -3.1230  2.0438
 1009MOL0     H33136   2.381   0.057   3.211 -3.0364 -2.6003  2.4472
 1009MOL0     H33137   2.397   0.011   3.458 -1.4221  1.6440 -3.4564
 1009MOL0     H33138   2.398  -0.137   3.375  2.2503 -0.7961  0.0320
 1009MOL0     H33139   2.629   0.021   3.507  2.4907 -2.8020  1.4798
 1009MOL0     H33140   2.658  -0.107   3.394 -1.5515 -0.2680 -0.8050
 1009MOL0     H33141   2.346  -0.142   3.612  0.4095  1.3473  2.0870
 1009MOL0     H33142   2.462  -0.448   3.852 -3.2337 -1.7763  1.7222
 1009MOL0     H33143   2.304  -0.359   3.818  0.0248 -1.4893 -0.0238
 1009MOL0     H33144   2.531  -0.279   3.998 -0.3128  0.2124  1.3420
 1009MOL0     H33145   2.394  -0.347   4.063  2.1757  3.1665  3.6161
 1009MOL0     H33146   2.390  -0.094   4.074 -1.2246 -0.5933  0.9803
 1009MOL0     H33147   2.382  -0.087   3.908  1.7526 -1.6051 -0.0407
 1009MOL0     H33148   2.147  -0.061   4.041 -1.5999  0.1230 -2.1773
 1009MOL0     H33149   2.184  -0.217   4.110  0.7877  0.1107  0.7945
 1009MOL0     H33150   2.200   0.035   3.846  1.0588  0.6827 -0.7228
 1009MOL0     H33151   2.183   0.139   3.622 -0.0102  0.7644  0.6366
 1009MOL0     H33152   2.224  -0.189   3.080 -0.6442  1.0380  0.7172
 1009MOL0     H33153   2.185  -0.138   2.850  0.8792 -0.5060  1.0665
 1009MOL0     H33154   1.945   0.220   2.748 -0.8895  0.7264 -0.9199
 1009MOL0     H33155   1.815   0.091   2.763 -0.0302  1.7958  0.6770
 1009MOL0     H33156   1.839   0.004   2.542 -0.7864 -0.5853  0.8013
 1009MOL0     H33157   1.957   0.140   2.504 -1.2376  2.0745 -0.7672
 1009MOL0     H33158   1.740   0.284   2.574 -0.2715 -0.3027  2.0966
 1009MOL0     H33159   1.668   0.122   2.562  3.4155 -2.3647  1.7819
 1009MOL0     H33160   1.834   0.269   2.346  0.1168 -0.2746  1.7462
 1009MOL0     H33161   1.775   0.117   2.310  1.5536  0.7248 -1.1471
 1009MOL0     H33162   1.643   0.289   2.200 -0.0955  2.3370 -0.6362
 1009MOL0     H33163   1.593   0.380   2.342  0.3446  0.9117 -3.6405
 1009MOL0     H33164   1.471   0.199   2.417 -0.4033  0.7880  0.2535
 1009MOL0     H33165   1.519   0.095   2.272  1.0504 -1.0180  2.3146
 1009MOL0     H33166   1.356   0.369   2.259  1.1143  0.3767  0.3161
 1009MOL0     H33167   1.433   0.289   2.128  0.7508  2.5117  0.9143
 1009MOL0     H33168   1.201   0.254   2.127  1.3938  1.4806 -1.4391
 1009MOL0     H33169   1.190   0.228   2.294  0.2651  1.4427 -0.7915
 1009MOL0     H33170   1.912   0.170   2.958 -0.8155  0.2902  0.0313
 1009MOL0     H33171   1.922   0.090   3.192 -1.3205 -2.5184  0.2218
 1009MOL0     H33172   2.026  -0.233   3.474  3.3853 -0.3820 -0.2207
 1009MOL0     H33173   2.040  -0.333   3.683  1.3464  0.1413 -0.5993
 1009MOL0     H33174   2.427   0.441   2.462 -0.4554 -2.8804 -1.7613
 1009MOL0     H33175   2.236   0.463   2.299 -0.3265  1.7476  1.2376
 1009MOL0     H33176   1.724   0.773   2.414 -0.9423  1.4958 -1.0701
 1009MOL0     H33177   1.523   0.817   2.275 -0.2762 -0.3289  0.1844
 1009MOL0     H33178   1.338   0.532   2.008 -2.5941  0.3385 -1.7476
 1009MOL0     H33179   1.481   0.563   1.905  1.0876  0.8859  0.6173
 1009MOL0     H33180   1.230   0.736   1.953  0.7572 -0.1336  0.6881
 1009MOL0     H33181   1.366   0.778   1.846 -1.4577  0.4171 -1.7240
 1009MOL0     H33182   1.203   0.513   1.831 -1.3402  0.9167 -0.6502
 1009MOL0     H33183   1.298   0.581   1.699  0.7371  2.3402 -0.2266
 1009MOL0     H33184   1.075   0.579   1.651  1.5565 -0.6377  1.2710
 1009MOL0     H33185   1.028   0.648   1.826 -1.6675  2.2933  0.9765
 1009MOL0     H33186   1.043   0.981   1.573 -1.9359 -1.1328 -0.9690
 1009MOL0     H33187   1.669   0.521   2.008 -0.1339  0.8554 -1.0088
 1009MOL0     H33188   1.854   0.465   2.165 -1.2532 -0.4683  1.0412
 1010MOL0     O33189   7.611   4.580   4.786  0.3767 -0.1819  0.5781
 1010MOL0     C33190   7.603   4.466   4.829 -0.6658  0.8730  0.1710
 1010MOL0     O33191   7.719   4.378   4.852  0.2903  0.7275 -0.5489
 1010MOL0     C33192   7.845   4.421   4.856  0.5960  0.4327  1.2016
 1010MOL0     C33193   7.899   4.487   4.741  0.3132  0.5841  0.4951
 1010MOL0     C33194   8.025   4.515   4.731 -0.6501 -0.1945 -0.2733
 1010MOL0     C33195   8.121   4.479   4.830  0.3392 -1.1576  0.4576
 1010MOL0     O33196   8.248   4.512   4.794  0.3173  0.5299 -0.0447
 1010MOL0     C33197   8.345   4.488   4.899 -0.1954 -0.5470  0.8751
 1010MOL0     C33198   8.490   4.524   4.857  0.3150  0.4679  0.2931
 1010MOL0     C33199   8.521   4.662   4.819  0.9815 -0.4823  0.2418
 1010MOL0     C33200   8.667   4.703   4.858 -0.0306 -0.0551 -0.0529
 1010MOL0     C33201   8.674   4.848   4.883 -0.5881  0.0648  0.5048
 1010MOL0     C33202   8.651   4.928   4.756 -0.6333 -0.2244  0.2092
 1010MOL0     C33203   8.695   5.070   4.798  0.1003 -0.1417  0.3030
 1010MOL0     C33204   8.698   5.162   4.676  0.1376 -0.0691  0.5244
 1010MOL0     N33205   8.812   5.127   4.582  0.4842  0.4721 -0.7596
 1010MOL0     C33206   8.946   5.118   4.624  1.0064  0.3569  0.5849
 1010MOL0     C33207   9.024   5.123   4.509  0.1531  0.2989 -0.4045
 1010MOL0     C33208   9.174   5.142   4.503 -0.7239  0.9484  0.5405
 1010MOL0     C33209   9.236   5.198   4.625 -0.4626  0.7782 -0.0568
 1010MOL0     C33210   9.382   5.255   4.610 -0.4031 -0.2974 -0.6000
 1010MOL0     C33211   9.381   5.397   4.542  0.1377 -0.0640 -0.3083
 1010MOL0     O33212   9.505   5.457   4.567 -0.9368  0.2687  0.0718
 1010MOL0     C33213   9.534   5.587   4.531  0.2397 -0.4372  1.0884
 1010MOL0     C33214   9.666   5.625   4.539 -0.8373  0.8645 -0.1031
 1010MOL0     C33215   9.704   5.756   4.512  0.4371 -0.3058  0.8295
 1010MOL0     C33216   9.618   5.852   4.472  0.2087  0.4736 -0.0753
 1010MOL0     C33217   9.666   5.989   4.438 -0.2965 -0.2337  0.6251
 1010MOL0     O33218   9.805   6.022   4.455  0.5090  0.0931 -1.0206
 1010MOL0     C33219   9.843   6.148   4.416  0.5741 -0.3482 -0.1996
 1010MOL0     C33220   9.935   6.142   4.314  0.4397 -0.0486 -0.3529
 1010MOL0     C33221   9.996   6.256   4.265 -0.1636  0.0699 -0.7090
 1010MOL0     C33222   9.954   6.379   4.321 -0.4704 -1.0257 -0.4606
 1010MOL0     O33223  10.033   6.486   4.284  1.1584  0.1773  0.2885
 1010MOL0     C33224  10.020   6.611   4.354 -0.4019 -0.1878 -0.3290
 1010MOL0     C33225  10.092   6.626   4.497 -0.9291 -0.6034 -0.2500
 1010MOL0     C33226  10.243   6.596   4.467  0.5618  0.0765 -0.4437
 1010MOL0     C33227  10.346   6.617   4.582 -0.3307  0.5959 -1.5954
 1010MOL0     C33228  10.326   6.508   4.688  0.1461 -1.0531 -0.9177
 1010MOL0     C33229  10.454   6.525   4.788 -0.6155  0.1403  0.2592
 1010MOL0     C33230  10.451   6.410   4.885  0.8261  0.8016 -0.6801
 1010MOL0     C33231  10.578   6.407   4.964 -0.2826  0.2302 -0.3964
 1010MOL0    Cl33232  10.568   6.265   5.074  0.0636  0.0812  0.0638
 1010MOL0     C33233   9.853   6.391   4.419 -0.8298 -0.3841  0.0408
 1010MOL0     C33234   9.800   6.272   4.476  0.3542  0.1187  0.3579
 1010MOL0     O33235   9.589   6.068   4.370 -0.5274  0.5981  0.1080
 1010MOL0     C33236   9.480   5.810   4.456  1.1926  0.4557 -0.2477
 1010MOL0     C33237   9.437   5.683   4.499  0.8108  0.2839  0.2464
 1010MOL0     N33238   8.936   5.133   4.404 -0.1390  0.2260  0.1514
 1010MOL0     N33239   8.813   5.141   4.445  0.2789  0.4833  0.3575
 1010MOL0     C33240   8.080   4.404   4.938 -0.1125 -0.6241 -0.1050
 1010MOL0     C33241   7.935   4.372   4.947  0.6874 -0.0315 -0.6394
 1010MOL0     C33242   7.477   4.402   4.848 -0.0195 -0.0918  0.4182
 1010MOL0     C33243   7.475   4.275   4.914 -0.7305 -0.4597 -0.1618
 1010MOL0     C33244   7.364   4.197   4.925 -0.2226 -0.5196 -0.3803
 1010MOL0     C33245   7.246   4.237   4.860 -0.2361  0.9052  0.0971
 1010MOL0     O33246   7.142   4.157   4.884  0.1756  0.5068 -0.4539
 1010MOL0     C33247   7.081   4.102   4.766  0.5076 -0.1192  0.5839
 1010MOL0     C33248   6.940   4.045   4.789 -0.5142  0.6950 -0.0687
 1010MOL0     C33249   6.837   4.146   4.837  0.0995  0.5624 -0.2323
 1010MOL0     C33250   6.816   4.255   4.731 -0.6844 -0.3313  1.0488
 1010MOL0     C33251   6.716   4.356   4.755  0.9222  0.0176  0.4168
 1010MOL0     C33252   6.621   4.429   4.783  0.5372  0.5389  1.0427
 1010MOL0     C33253   7.236   4.354   4.800 -0.1842 -0.3691 -1.4932
 1010MOL0     C33254   7.355   4.439   4.786  0.8984  0.8923 -0.1100
 1010MOL0     H33255   7.828   4.512   4.663  0.8516 -0.4084 -0.3420
 1010MOL0     H33256   8.055   4.579   4.649 -1.8031 -0.8540 -1.2409
 1010MOL0     H33257   8.349   4.388   4.943 -0.1700 -1.9934 -2.1488
 1010MOL0     H33258   8.313   4.545   4.986 -4.3184  1.0721 -1.4179
 1010MOL0     H33259   8.523   4.454   4.780 -1.2082 -2.5410  2.1711
 1010MOL0     H33260   8.550   4.520   4.948 -0.6611  0.4904  0.9537
 1010MOL0     H33261   8.454   4.723   4.881 -1.1640  0.1812 -2.5350
 1010MOL0     H33262   8.497   4.688   4.716  1.7515  3.6864  0.8934
 1010MOL0     H33263   8.695   4.641   4.943 -0.1762 -0.2053 -0.1125
 1010MOL0     H33264   8.738   4.682   4.777  3.1704  0.4282  2.4406
 1010MOL0     H33265   8.778   4.856   4.919  1.2005 -3.0761 -3.1997
 1010MOL0     H33266   8.602   4.881   4.958  1.4964 -0.9531  3.1124
 1010MOL0     H33267   8.548   4.949   4.725  1.0351  3.5308 -4.0989
 1010MOL0     H33268   8.705   4.890   4.669  1.2054  0.4582  1.0138
 1010MOL0     H33269   8.637   5.122   4.875  1.9108  2.5397 -0.0089
 1010MOL0     H33270   8.798   5.074   4.836  0.7944  0.9816 -1.5634
 1010MOL0     H33271   8.696   5.269   4.700 -0.5861  0.6222 -2.3139
 1010MOL0     H33272   8.607   5.147   4.617 -1.3319  0.4389  2.5398
 1010MOL0     H33273   8.990   5.126   4.723 -0.0488  1.0249  1.0251
 1010MOL0     H33274   9.197   5.190   4.408 -2.2067 -2.8577 -1.9862
 1010MOL0     H33275   9.211   5.042   4.477 -1.6450  0.4883  0.9752
 1010MOL0     H33276   9.242   5.120   4.701  2.7980  1.8218  0.9472
 1010MOL0     H33277   9.182   5.285   4.663  0.5147  1.2582  0.2730
 1010MOL0     H33278   9.423   5.267   4.711 -2.0200 -1.3332  0.2248
 1010MOL0     H33279   9.431   5.184   4.543 -0.5361 -0.7153 -0.2536
 1010MOL0     H33280   9.303   5.453   4.594  0.5006  0.6612 -0.5211
 1010MOL0     H33281   9.355   5.379   4.438 -0.9799 -1.5809  0.2026
 1010MOL0     H33282   9.726   5.550   4.590 -0.3634 -1.5569 -3.8684
 1010MOL0     H33283   9.808   5.788   4.506  0.5428 -0.8077 -0.2596
 1010MOL0     H33284   9.966   6.040   4.294 -1.5524 -0.4161 -1.8212
 1010MOL0     H33285  10.092   6.262   4.215  0.0203 -2.3772 -0.7403
 1010MOL0     H33286   9.925   6.664   4.364  0.6586  1.5055  1.5850
 1010MOL0     H33287  10.083   6.678   4.294 -2.0987  0.3548 -1.5976
 1010MOL0     H33288  10.036   6.555   4.559 -0.9010 -1.6817 -1.4170
 1010MOL0     H33289  10.072   6.727   4.537  3.9474  0.9724 -1.1562
 1010MOL0     H33290  10.265   6.646   4.372 -4.2235  0.2947 -1.7293
 1010MOL0     H33291  10.244   6.488   4.447  0.2794  0.5457 -3.6218
 1010MOL0     H33292  10.444   6.617   4.533  0.6380 -0.6316  0.2153
 1010MOL0     H33293  10.329   6.711   4.635 -2.1920 -0.2089 -0.6891
 1010MOL0     H33294  10.324   6.409   4.640 -4.1911 -1.1078 -0.9868
 1010MOL0     H33295  10.235   6.524   4.747  3.1917  2.1568  3.5454
 1010MOL0     H33296  10.446   6.620   4.841 -0.5760  0.5541 -0.4514
 1010MOL0     H33297  10.548   6.529   4.733 -0.9257  2.6031 -0.2044
 1010MOL0     H33298  10.361   6.410   4.948  1.5593  0.7135  0.3882
 1010MOL0     H33299  10.457   6.313   4.836  0.3435  0.8263 -0.7918
 1010MOL0     H33300  10.586   6.489   5.036  2.3014 -0.5510  0.3202
 1010MOL0     H33301  10.668   6.397   4.902 -1.0267 -2.6072 -1.1482
 1010MOL0     H33302   9.822   6.485   4.464  2.2332 -0.1718  2.0087
 1010MOL0     H33303   9.721   6.274   4.551  0.2880  2.4770  0.2936
 1010MOL0     H33304   9.407   5.886   4.430  1.0608  0.2408 -0.5162
 1010MOL0     H33305   9.331   5.668   4.511  1.0949 -1.3659  0.9965
 1010MOL0     H33306   8.135   4.359   5.019 -2.6157 -0.9609  1.5267
 1010MOL0     H33307   7.902   4.295   5.017  0.0672  1.4215  0.7398
 1010MOL0     H33308   7.557   4.244   4.979 -1.4530 -1.2042  0.4093
 1010MOL0     H33309   7.368   4.099   4.971 -0.6477  1.0868  3.4504
 1010MOL0     H33310   7.150   4.036   4.711  1.4945  1.5455 -0.2407
 1010MOL0     H33311   7.064   4.180   4.692 -2.9353 -1.6193 -0.4161
 1010MOL0     H33312   6.906   4.016   4.688 -3.4073  0.7837  0.7810
 1010MOL0     H33313   6.937   3.962   4.860 -0.8389  0.1392 -0.7186
 1010MOL0     H33314   6.878   4.197   4.925 -1.8195  1.0453  0.4442
 1010MOL0     H33315   6.743   4.102   4.870  0.1655  2.1236  2.3802
 1010MOL0     H33316   6.911   4.309   4.729  0.1028 -1.6876 -0.2059
 1010MOL0     H33317   6.802   4.203   4.636  0.1491 -0.3743  0.9399
 1010MOL0     H33318   6.542   4.497   4.805 -0.9713 -0.0457 -2.0416
 1010MOL0     H33319   7.138   4.381   4.760 -1.1631  1.8113  1.9059
 1010MOL0     H33320   7.336   4.531   4.733 -2.6704  0.1959 -0.3388
 1011MOL0     O33321   1.085   8.103   5.761 -0.5519 -0.6478  0.2622
 1011MOL0     C33322   1.138   8.054   5.659 -0.6646 -0.6308 -0.3082
 1011MOL0     O33323   1.092   7.941   5.586  0.3895 -0.2073 -0.7633
 1011MOL0     C33324   0.973   7.877   5.636  0.7299 -0.3523  0.7660
 1011MOL0     C33325   0.969   7.827   5.765  0.5167  0.4432 -0.5005
 1011MOL0     C33326   0.853   7.750   5.806  0.1926 -0.2097 -0.0434
 1011MOL0     C33327   0.748   7.725   5.719  0.7456  0.7034  0.3024
 1011MOL0     O33328   0.634   7.636   5.740 -0.5827  0.6501 -0.2265
 1011MOL0     C33329   0.625   7.563   5.869  0.7590 -0.6911  0.4694
 1011MOL0     C33330   0.503   7.473   5.880 -0.6202 -0.0471  0.4393
 1011MOL0     C33331   0.505   7.391   6.006  0.4219  0.0180 -0.3704
 1011MOL0     C33332   0.487   7.469   6.133 -0.5424  0.2287 -0.9657
 1011MOL0     C33333   0.470   7.376   6.254  0.6152 -0.6662 -0.2633
 1011MOL0     C33334   0.598   7.300   6.303  0.9790 -0.5439 -0.1904
 1011MOL0     C33335   0.602   7.300   6.456  0.2485 -0.3657  0.6119
 1011MOL0     C33336   0.666   7.427   6.512  0.7383 -0.4402  0.7685
 1011MOL0     N33337   0.743   7.407   6.633 -0.5078 -0.1892  0.9806
 1011MOL0     C33338   0.712   7.375   6.761 -0.2929 -0.2590 -0.7755
 1011MOL0     C33339   0.828   7.349   6.821  0.0448  0.7709 -0.7221
 1011MOL0     C33340   0.855   7.307   6.972 -0.2398 -0.4065  0.7328
 1011MOL0     C33341   0.777   7.395   7.067  0.4968  0.6992  0.5331
 1011MOL0     C33342   0.809   7.380   7.214 -0.4968  0.2921 -0.4457
 1011MOL0     C33343   0.826   7.242   7.273 -0.3640 -0.4594 -0.5914
 1011MOL0     O33344   0.745   7.150   7.202 -0.2897  0.2636 -0.2246
 1011MOL0     C33345   0.744   7.019   7.242  0.1025 -0.9747  0.0974
 1011MOL0     C33346   0.826   6.966   7.338 -0.7238  0.0622  0.6520
 1011MOL0     C33347   0.832   6.825   7.349 -0.8682  0.2016 -0.3492
 1011MOL0     C33348   0.730   6.742   7.294 -0.4792  0.7455  0.5361
 1011MOL0     C33349   0.718   6.597   7.333 -0.5327  0.3859  0.3532
 1011MOL0     O33350   0.619   6.533   7.271 -0.1283  0.3074 -0.3201
 1011MOL0     C33351   0.616   6.396   7.282  0.6561 -0.4229 -0.1887
 1011MOL0     C33352   0.685   6.319   7.200  0.1470  0.1410  0.4926
 1011MOL0     C33353   0.683   6.178   7.206  0.2519  0.4167  0.5794
 1011MOL0     C33354   0.601   6.110   7.295 -0.2459  0.1010  0.0612
 1011MOL0     O33355   0.610   5.977   7.312 -0.4839 -0.5600  0.0294
 1011MOL0     C33356   0.502   5.905   7.385  0.6686  0.4039 -1.1603
 1011MOL0     C33357   0.503   5.762   7.338  0.3401  0.0488 -1.0997
 1011MOL0     C33358   0.385   5.681   7.399  1.1225  0.3878 -0.0455
 1011MOL0     C33359   0.372   5.529   7.372 -0.0741 -0.7369 -0.9166
 1011MOL0     C33360   0.466   5.447   7.466 -0.7461  0.9378  0.2174
 1011MOL0     C33361   0.434   5.300   7.456  0.6375 -0.1091  0.5737
 1011MOL0     C33362   0.548   5.216   7.514 -0.0846 -0.4330 -0.6455
 1011MOL0     C33363   0.509   5.073   7.485 -1.3151  0.8057  0.7734
 1011MOL0    Cl33364   0.653   4.962   7.487 -0.0653  0.3998 -0.1381
 1011MOL0     C33365   0.515   6.192   7.377  0.3296 -0.8934  0.1534
 1011MOL0     C33366   0.523   6.329   7.369  0.2752 -0.0523 -0.2028
 1011MOL0     O33367   0.800   6.546   7.414  0.5611  0.4002 -0.2788
 1011MOL0     C33368   0.641   6.804   7.202  0.8081  0.0739 -0.0821
 1011MOL0     C33369   0.645   6.945   7.181  0.6358 -0.5480 -0.0498
 1011MOL0     N33370   0.930   7.360   6.735 -0.5649 -0.3748  0.5868
 1011MOL0     N33371   0.880   7.404   6.626 -0.4137  0.8471  0.3060
 1011MOL0     C33372   0.751   7.788   5.591 -0.8407  0.1392  0.3675
 1011MOL0     C33373   0.869   7.858   5.547  0.3607 -0.8614  0.7181
 1011MOL0     C33374   1.246   8.146   5.597 -0.1088  0.3147  0.8250
 1011MOL0     C33375   1.294   8.259   5.660 -0.6147 -0.8559 -0.4891
 1011MOL0     C33376   1.384   8.338   5.592 -0.2261 -0.7766  0.1611
 1011MOL0     C33377   1.421   8.326   5.456  0.8760  0.4458 -0.0352
 1011MOL0     O33378   1.512   8.413   5.395  0.8506 -0.2658 -0.4462
 1011MOL0     C33379   1.580   8.358   5.291 -0.0098 -0.5777  0.0548
 1011MOL0     C33380   1.676   8.451   5.228  0.1906  0.2751 -0.0832
 1011MOL0     C33381   1.761   8.527   5.342 -0.0403 -0.6517  0.9053
 1011MOL0     C33382   1.789   8.674   5.303 -0.5579  0.3776  0.8671
 1011MOL0     C33383   1.899   8.662   5.205  0.4725  0.0901 -0.2765
 1011MOL0     C33384   1.976   8.637   5.117 -0.2632 -0.4758 -0.2827
 1011MOL0     C33385   1.365   8.212   5.392 -0.6959 -0.6743 -0.8708
 1011MOL0     C33386   1.283   8.119   5.458  0.2088  0.3869  0.3099
 1011MOL0     H33387   1.050   7.846   5.835  1.2807 -2.9881 -0.2381
 1011MOL0     H33388   0.864   7.716   5.909  0.9373  1.9383  0.6299
 1011MOL0     H33389   0.616   7.641   5.945 -0.9580 -0.9039  0.5223
 1011MOL0     H33390   0.713   7.501   5.887  1.4555  0.2903  0.5519
 1011MOL0     H33391   0.509   7.395   5.803 -2.9348  0.0568  0.0778
 1011MOL0     H33392   0.407   7.526   5.873 -0.9981 -0.6840  0.7457
 1011MOL0     H33393   0.600   7.337   6.010  1.1247  1.1898 -0.8086
 1011MOL0     H33394   0.424   7.318   6.010  0.1000  0.0378 -3.7656
 1011MOL0     H33395   0.577   7.524   6.160  0.6887 -1.8092 -0.7017
 1011MOL0     H33396   0.398   7.530   6.113 -0.8301 -0.0733 -0.6277
 1011MOL0     H33397   0.391   7.301   6.244  0.9584 -0.7655 -2.8801
 1011MOL0     H33398   0.416   7.432   6.331  0.1137 -0.3394 -0.8451
 1011MOL0     H33399   0.690   7.348   6.265 -0.5835  2.0308 -1.0000
 1011MOL0     H33400   0.579   7.198   6.269  2.8181 -0.8053 -0.5780
 1011MOL0     H33401   0.502   7.299   6.501  0.6972  1.9696  1.8221
 1011MOL0     H33402   0.655   7.212   6.493 -2.1909 -1.1911  2.4220
 1011MOL0     H33403   0.586   7.498   6.534  1.8329  1.6588 -1.5650
 1011MOL0     H33404   0.735   7.471   6.441 -0.3661  1.8100  0.9986
 1011MOL0     H33405   0.613   7.369   6.804  0.6201 -2.4190  1.2725
 1011MOL0     H33406   0.961   7.316   6.998 -0.2492 -1.0305  1.0011
 1011MOL0     H33407   0.835   7.201   6.987  2.8569 -0.8544  2.3542
 1011MOL0     H33408   0.677   7.352   7.057  2.1302 -4.0641  2.2722
 1011MOL0     H33409   0.788   7.499   7.033  2.4566  0.1529 -0.6605
 1011MOL0     H33410   0.903   7.434   7.225  0.3384 -1.2582  0.5282
 1011MOL0     H33411   0.742   7.442   7.274  0.3434  0.7632  0.0236
 1011MOL0     H33412   0.788   7.230   7.375 -1.2328 -1.6208 -1.0298
 1011MOL0     H33413   0.933   7.220   7.269 -0.1966 -0.4321  2.2204
 1011MOL0     H33414   0.892   7.023   7.404 -0.5562 -0.2035  0.7152
 1011MOL0     H33415   0.892   6.786   7.431 -0.2059  0.9098 -0.4903
 1011MOL0     H33416   0.754   6.377   7.140 -1.0271  0.3520 -0.7193
 1011MOL0     H33417   0.754   6.121   7.147  4.5547  2.9531  2.7437
 1011MOL0     H33418   0.404   5.948   7.362  0.7066  0.0352 -2.0713
 1011MOL0     H33419   0.537   5.923   7.487  1.4707  1.1308 -1.5539
 1011MOL0     H33420   0.598   5.711   7.358  0.3069 -0.9129 -3.1370
 1011MOL0     H33421   0.483   5.754   7.231 -1.9306  1.2400 -0.8162
 1011MOL0     H33422   0.304   5.731   7.345  0.8109  1.5432  1.4261
 1011MOL0     H33423   0.370   5.687   7.507 -1.5712  1.7572 -0.4105
 1011MOL0     H33424   0.268   5.498   7.388 -0.3279  0.5905  0.0857
 1011MOL0     H33425   0.403   5.513   7.268  0.4835 -1.2543 -0.6754
 1011MOL0     H33426   0.467   5.476   7.571 -0.5606  1.6868  0.0099
 1011MOL0     H33427   0.567   5.449   7.426 -1.0392  1.0404 -0.5405
 1011MOL0     H33428   0.435   5.279   7.349  0.3953  2.5823 -0.0199
 1011MOL0     H33429   0.338   5.272   7.499  1.1022  0.2581  1.8973
 1011MOL0     H33430   0.645   5.250   7.477 -0.4722  1.8565  0.3250
 1011MOL0     H33431   0.553   5.225   7.623  0.2534  0.7338 -0.7495
 1011MOL0     H33432   0.466   5.067   7.385 -1.8280 -1.5415  1.0740
 1011MOL0     H33433   0.438   5.047   7.564 -0.1620 -1.8453  1.0715
 1011MOL0     H33434   0.453   6.141   7.450  2.3030 -2.6501  0.7317
 1011MOL0     H33435   0.467   6.399   7.431  1.2053  0.2623  0.2989
 1011MOL0     H33436   0.558   6.752   7.154  1.5698 -1.4730  0.2229
 1011MOL0     H33437   0.581   7.000   7.113 -2.4255  0.1978  3.1385
 1011MOL0     H33438   0.663   7.773   5.530  0.8778 -1.5729 -1.8612
 1011MOL0     H33439   0.887   7.901   5.450 -0.5724  0.4532  1.0951
 1011MOL0     H33440   1.267   8.274   5.764  0.5807 -0.3935 -0.2261
 1011MOL0     H33441   1.425   8.430   5.632  1.0911 -0.2005 -2.2951
 1011MOL0     H33442   1.519   8.324   5.207  1.4021  0.1967 -1.3280
 1011MOL0     H33443   1.635   8.274   5.334  0.4984  0.7954  2.3194
 1011MOL0     H33444   1.737   8.385   5.165  2.6344  1.3328  1.0145
 1011MOL0     H33445   1.628   8.515   5.154  0.0931 -2.3800 -2.4603
 1011MOL0     H33446   1.854   8.487   5.383 -0.1580 -1.2230  0.6195
 1011MOL0     H33447   1.705   8.529   5.436  1.5098  0.9051  1.8648
 1011MOL0     H33448   1.702   8.727   5.261  0.4263 -1.1800 -3.7400
 1011MOL0     H33449   1.816   8.735   5.389  2.4842  1.3608 -0.6564
 1011MOL0     H33450   2.046   8.633   5.035 -0.8269  1.7586 -0.9646
 1011MOL0     H33451   1.391   8.191   5.289 -1.0597 -0.0757 -1.0925
 1011MOL0     H33452   1.242   8.038   5.398 -2.6661  1.0293  1.2172
 1012MOL0     O33453   3.081   7.179  10.441  0.2755  0.0217 -0.0731
 1012MOL0     C33454   3.046   7.277  10.380  0.6941 -0.7752  0.3289
 1012MOL0     O33455   3.094   7.408  10.386 -0.9057  0.5092  0.2463
 1012MOL0     C33456   3.210   7.445  10.452 -0.3802  0.6998 -0.2736
 1012MOL0     C33457   3.320   7.362  10.469 -0.3858 -0.2072 -0.7820
 1012MOL0     C33458   3.433   7.416  10.534  0.2737 -0.5884  0.2774
 1012MOL0     C33459   3.429   7.547  10.575 -0.0777  0.1637 -0.5526
 1012MOL0     O33460   3.535   7.589  10.641  1.0233  0.2619 -0.9468
 1012MOL0     C33461   3.513   7.656  10.767 -0.0902 -0.0352 -0.1653
 1012MOL0     C33462   3.431   7.582  10.867  0.4685  0.1516 -0.5724
 1012MOL0     C33463   3.416   7.657  11.002 -0.2560 -0.6192  1.0777
 1012MOL0     C33464   3.376   7.549  11.106 -0.9423 -0.6222 -0.7594
 1012MOL0     C33465   3.227   7.508  11.103 -0.3180 -0.2464  0.5645
 1012MOL0     C33466   3.196   7.391  11.199  0.1513  0.5656 -0.0102
 1012MOL0     C33467   3.047   7.368  11.212  0.3851  0.1019 -0.3066
 1012MOL0     C33468   2.992   7.461  11.322  0.0064  0.8452 -0.2158
 1012MOL0     N33469   2.859   7.406  11.364 -0.0901  0.0353  0.2262
 1012MOL0     C33470   2.820   7.284  11.408  0.0554 -0.1708 -0.3219
 1012MOL0     C33471   2.681   7.294  11.429  0.3196  0.1339  0.5102
 1012MOL0     C33472   2.582   7.196  11.487 -0.6100  1.6066  0.0234
 1012MOL0     C33473   2.490   7.146  11.379 -0.4529  0.4832  0.2157
 1012MOL0     C33474   2.381   7.241  11.348 -0.4889 -0.1614 -1.4481
 1012MOL0     C33475   2.300   7.179  11.236 -0.5561  0.6304 -0.1403
 1012MOL0     O33476   2.203   7.105  11.298  0.6648  0.3700  0.2176
 1012MOL0     C33477   2.163   6.996  11.220  0.1115  0.3888 -0.3012
 1012MOL0     C33478   2.080   7.023  11.105 -1.3825 -0.0827  0.2478
 1012MOL0     C33479   2.032   6.914  11.032 -0.4700  0.0156 -0.0708
 1012MOL0     C33480   2.072   6.781  11.073  0.0644  0.7615 -0.1343
 1012MOL0     C33481   2.007   6.667  10.988  0.9656  0.2446 -0.2228
 1012MOL0     O33482   1.901   6.707  10.918  0.1459  0.8709  0.0060
 1012MOL0     C33483   1.871   6.633  10.806  0.6273 -0.0331  0.1999
 1012MOL0     C33484   1.975   6.578  10.728 -0.2776 -0.1287 -1.3170
 1012MOL0     C33485   1.942   6.533  10.603 -0.2381 -0.4764 -0.5216
 1012MOL0     C33486   1.821   6.509  10.558  0.6293 -0.0647  1.1553
 1012MOL0     O33487   1.787   6.455  10.434  0.8895  0.6332 -0.0541
 1012MOL0     C33488   1.882   6.445  10.329 -0.0514 -0.3982  0.2461
 1012MOL0     C33489   1.824   6.362  10.222 -0.7491 -0.3632  0.1848
 1012MOL0     C33490   1.901   6.376  10.094  0.4254  0.7418 -0.8865
 1012MOL0     C33491   1.846   6.281   9.985  0.0899 -0.1288 -0.1321
 1012MOL0     C33492   1.893   6.324   9.845  0.1859 -0.3622  0.2157
 1012MOL0     C33493   1.853   6.229   9.735 -0.6859 -0.4281  0.4400
 1012MOL0     C33494   1.867   6.299   9.597 -0.2980  0.3071  0.6259
 1012MOL0     C33495   1.785   6.233   9.486 -0.8233  0.7480  0.5550
 1012MOL0    Cl33496   1.840   6.067   9.459  0.0275  0.1149 -0.3574
 1012MOL0     C33497   1.714   6.550  10.640 -0.1864  0.4809  0.4410
 1012MOL0     C33498   1.741   6.628  10.754  0.3545  1.0768  0.2399
 1012MOL0     O33499   2.053   6.556  11.001  0.3251 -0.2996 -0.5078
 1012MOL0     C33500   2.162   6.751  11.176 -0.1676 -0.9049  0.0640
 1012MOL0     C33501   2.212   6.868  11.246  0.3752  0.5878 -0.8157
 1012MOL0     N33502   2.647   7.424  11.395 -0.4126  1.2291  0.5566
 1012MOL0     N33503   2.754   7.491  11.353  0.5961 -0.0161  0.4777
 1012MOL0     C33504   3.323   7.630  10.550  0.3083 -0.2600 -1.4025
 1012MOL0     C33505   3.211   7.583  10.487  0.0359  0.3651  0.1542
 1012MOL0     C33506   2.920   7.262  10.298  0.3413  0.8842 -0.0678
 1012MOL0     C33507   2.895   7.336  10.190  0.3507 -0.6173 -0.7283
 1012MOL0     C33508   2.785   7.313  10.102 -0.2913  0.0155 -0.3242
 1012MOL0     C33509   2.695   7.193  10.130 -1.2297  0.2021 -0.6307
 1012MOL0     O33510   2.575   7.157  10.069 -0.1812  0.2869 -0.6288
 1012MOL0     C33511   2.536   7.229   9.955 -0.2039 -0.9838 -0.1974
 1012MOL0     C33512   2.427   7.153   9.883 -0.0222 -0.3587 -0.2583
 1012MOL0     C33513   2.284   7.188   9.927 -0.5310  0.7683 -0.9064
 1012MOL0     C33514   2.226   7.114  10.049  0.2171  0.1181 -0.2364
 1012MOL0     C33515   2.288   7.145  10.177  0.5156  0.8032 -0.0197
 1012MOL0     C33516   2.329   7.164  10.286  0.9279  0.8409  0.0059
 1012MOL0     C33517   2.729   7.116  10.240  0.9662  0.5442 -0.6160
 1012MOL0     C33518   2.832   7.149  10.320 -0.2538 -0.7954  0.5805
 1012MOL0     H33519   3.302   7.261  10.432  0.5271 -0.2334 -1.1782
 1012MOL0     H33520   3.523   7.359  10.553  0.3364 -0.3597  0.6731
 1012MOL0     H33521   3.467   7.755  10.765  0.5662  0.3141  0.8921
 1012MOL0     H33522   3.614   7.665  10.807 -0.6500 -0.1893  1.3475
 1012MOL0     H33523   3.471   7.480  10.875  1.0533  0.2814 -1.6476
 1012MOL0     H33524   3.326   7.579  10.836  0.7649  1.5413 -1.7797
 1012MOL0     H33525   3.345   7.739  10.997  0.4678 -0.0447 -0.1388
 1012MOL0     H33526   3.510   7.699  11.039 -0.2048  0.3922 -0.1650
 1012MOL0     H33527   3.445   7.465  11.096  2.1777  1.6051  0.4854
 1012MOL0     H33528   3.388   7.599  11.203 -0.3658 -0.3240 -0.9816
 1012MOL0     H33529   3.205   7.462  11.007  0.0436 -1.0195  0.8413
 1012MOL0     H33530   3.161   7.593  11.122 -1.4467 -1.1790  0.9124
 1012MOL0     H33531   3.234   7.425  11.296 -1.7578 -0.5570  1.2007
 1012MOL0     H33532   3.251   7.305  11.161 -0.9358 -1.5029  2.7719
 1012MOL0     H33533   3.002   7.376  11.113 -2.4366 -0.8470  0.7746
 1012MOL0     H33534   3.022   7.265  11.237 -0.7861  0.2934 -0.6328
 1012MOL0     H33535   2.976   7.563  11.287 -2.6947  0.8235  0.7463
 1012MOL0     H33536   3.059   7.463  11.409 -1.0500 -1.8080  0.7616
 1012MOL0     H33537   2.886   7.199  11.422  0.6508  0.1025 -1.3242
 1012MOL0     H33538   2.531   7.231  11.578 -1.1745  1.2342 -0.1425
 1012MOL0     H33539   2.640   7.113  11.531 -1.1301  1.3289  0.1927
 1012MOL0     H33540   2.452   7.048  11.410  3.0002 -1.5896 -1.4033
 1012MOL0     H33541   2.557   7.121  11.296  2.5073 -2.8967  3.2445
 1012MOL0     H33542   2.319   7.254  11.437 -3.6634 -0.1239 -3.5179
 1012MOL0     H33543   2.424   7.337  11.320  1.9549 -0.9963 -0.8191
 1012MOL0     H33544   2.359   7.116  11.169 -1.4980 -2.8717  2.0598
 1012MOL0     H33545   2.256   7.258  11.174  0.9432  1.8994  0.3618
 1012MOL0     H33546   2.038   7.123  11.094  0.9345  0.9882  0.4888
 1012MOL0     H33547   1.971   6.929  10.943  0.7922 -2.1619 -1.3857
 1012MOL0     H33548   2.080   6.580  10.757 -0.8094  3.4921  1.0317
 1012MOL0     H33549   2.035   6.503  10.554  0.2330 -0.6198  0.4435
 1012MOL0     H33550   1.977   6.401  10.361  0.9610 -0.2337 -2.3274
 1012MOL0     H33551   1.894   6.547  10.292 -0.9244 -1.3166 -2.8142
 1012MOL0     H33552   1.722   6.396  10.198 -1.7167 -2.5451  0.9530
 1012MOL0     H33553   1.806   6.261  10.260 -1.3422 -0.8794 -1.4172
 1012MOL0     H33554   2.008   6.356  10.097  0.6217  1.7526 -0.7219
 1012MOL0     H33555   1.897   6.475  10.046  1.2116  0.2835 -1.9545
 1012MOL0     H33556   1.868   6.175   9.999 -2.7163 -1.0362 -1.7673
 1012MOL0     H33557   1.737   6.288   9.992  0.2307  0.8275  1.8559
 1012MOL0     H33558   2.002   6.328   9.856 -0.0097  2.0094  2.3578
 1012MOL0     H33559   1.857   6.427   9.833  5.9864  1.8309 -2.2584
 1012MOL0     H33560   1.748   6.201   9.743 -0.4913 -0.9799  1.0846
 1012MOL0     H33561   1.916   6.140   9.725 -2.6879 -1.7483 -1.5793
 1012MOL0     H33562   1.838   6.404   9.598 -2.0905 -0.1547  1.5594
 1012MOL0     H33563   1.969   6.286   9.559 -1.0444 -0.2359 -1.2918
 1012MOL0     H33564   1.805   6.293   9.397 -1.7917  0.7407  0.3158
 1012MOL0     H33565   1.678   6.240   9.510 -1.0691  0.1830 -0.3088
 1012MOL0     H33566   1.614   6.545  10.599  0.0091  2.4137 -0.3671
 1012MOL0     H33567   1.662   6.663  10.819  0.5495 -4.1807  4.0061
 1012MOL0     H33568   2.191   6.650  11.200  4.1269  0.0125 -0.4404
 1012MOL0     H33569   2.284   6.856  11.328  2.1787 -1.0858 -2.5241
 1012MOL0     H33570   3.336   7.732  10.585 -0.6069 -1.4067  2.6900
 1012MOL0     H33571   3.122   7.642  10.465 -1.5554 -1.8204  0.4503
 1012MOL0     H33572   2.963   7.415  10.160 -1.5028  0.2925 -2.7915
 1012MOL0     H33573   2.759   7.381  10.022 -2.7065 -0.8228 -0.3480
 1012MOL0     H33574   2.626   7.254   9.899  2.1453  0.5702  3.8850
 1012MOL0     H33575   2.498   7.327   9.987  0.1600  0.3991 -3.6097
 1012MOL0     H33576   2.432   7.191   9.781 -0.7694 -2.0546 -0.9688
 1012MOL0     H33577   2.455   7.048   9.881  3.2976  0.3693 -4.1467
 1012MOL0     H33578   2.226   7.163   9.837 -2.3381  1.7571 -0.0617
 1012MOL0     H33579   2.269   7.291   9.958  1.9576  1.4925 -1.8303
 1012MOL0     H33580   2.121   7.144  10.052  0.8604  2.5188  0.3077
 1012MOL0     H33581   2.221   7.005  10.037 -2.0367 -0.0498  1.5986
 1012MOL0     H33582   2.353   7.197  10.385 -0.3856 -2.1593  1.4446
 1012MOL0     H33583   2.660   7.039  10.274  0.1979  1.6279  0.3493
 1012MOL0     H33584   2.850   7.081  10.402  1.3160 -2.9974 -1.4388
 1013MOL0     O33585  10.945  10.612   6.008  1.1060 -1.2385 -0.2578
 1013MOL0     C33586  10.917  10.702   5.927 -0.4266  0.1765 -0.3134
 1013MOL0     O33587  11.005  10.788   5.872  0.1366 -0.7439 -0.1905
 1013MOL0     C33588  11.140  10.782   5.905 -0.2494  0.5012  0.2178
 1013MOL0     C33589  11.170  10.791   6.040 -0.5430 -0.5675 -0.0083
 1013MOL0     C33590  11.304  10.792   6.070 -0.4044  0.0147 -0.9357
 1013MOL0     C33591  11.410  10.792   5.981  1.0509  0.1595  0.1597
 1013MOL0     O33592  11.535  10.785   6.040  0.2103 -0.2651  0.1338
 1013MOL0     C33593  11.654  10.799   5.961  0.3894  0.0825  0.5903
 1013MOL0     C33594  11.765  10.777   6.057 -0.6139  0.3436  0.7215
 1013MOL0     C33595  11.787  10.877   6.169  1.0217  0.0766 -0.1991
 1013MOL0     C33596  11.875  10.825   6.277  0.0116  0.1411 -0.3331
 1013MOL0     C33597  11.879  10.928   6.394  0.4275  0.0745  0.1904
 1013MOL0     C33598  11.938  10.871   6.528 -0.5113  0.2273  0.5077
 1013MOL0     C33599  11.906  10.951   6.663  0.6988 -0.1867  0.1231
 1013MOL0     C33600  11.750  10.979   6.689  0.0729  0.4559 -0.3095
 1013MOL0     N33601  11.718  11.046   6.812 -0.6909 -0.5535  0.5683
 1013MOL0     C33602  11.724  10.986   6.933 -0.3949 -0.0345  0.6495
 1013MOL0     C33603  11.664  11.075   7.016  0.4403 -1.0790 -0.4631
 1013MOL0     C33604  11.628  11.053   7.166  1.4221 -1.0735  0.2229
 1013MOL0     C33605  11.477  11.030   7.182 -0.7490 -0.0828  0.1188
 1013MOL0     C33606  11.393  11.155   7.155 -0.2771  0.4766 -0.5740
 1013MOL0     C33607  11.425  11.272   7.256  0.4021  1.0250 -0.8670
 1013MOL0     O33608  11.430  11.236   7.406  0.2089 -0.0281  0.3796
 1013MOL0     C33609  11.314  11.198   7.476  0.3054  0.1776 -0.4941
 1013MOL0     C33610  11.344  11.132   7.598 -0.3192  1.0347  0.4070
 1013MOL0     C33611  11.246  11.105   7.692 -0.8988  0.0718 -0.1082
 1013MOL0     C33612  11.114  11.127   7.658  0.4392 -0.1726  0.7563
 1013MOL0     C33613  11.017  11.090   7.758 -0.0695 -0.1332 -1.0812
 1013MOL0     O33614  10.888  11.118   7.729  0.5416  0.4638  0.7240
 1013MOL0     C33615  10.788  11.091   7.820 -0.4774 -1.3872 -0.5781
 1013MOL0     C33616  10.666  11.047   7.764  0.0758 -0.1607 -0.4925
 1013MOL0     C33617  10.557  11.025   7.854  0.1156 -0.6471  0.7379
 1013MOL0     C33618  10.568  11.067   7.990  0.0873  0.5959 -0.6522
 1013MOL0     O33619  10.455  11.063   8.067  0.3437 -0.8026 -0.5674
 1013MOL0     C33620  10.458  11.085   8.206 -0.4513  0.0001 -0.1309
 1013MOL0     C33621  10.368  11.193   8.264 -0.2850 -0.5084 -0.6184
 1013MOL0     C33622  10.229  11.196   8.199  0.5644 -1.1323 -0.5562
 1013MOL0     C33623  10.133  11.292   8.268 -0.2006  0.0646  0.5357
 1013MOL0     C33624   9.992  11.269   8.212 -0.7780  0.1010 -0.0267
 1013MOL0     C33625   9.895  11.384   8.234 -0.1999 -0.3118  0.2425
 1013MOL0     C33626   9.895  11.433   8.374 -0.7348  0.4582 -0.1388
 1013MOL0     C33627   9.802  11.543   8.407 -0.5768  0.0444 -0.5634
 1013MOL0    Cl33628   9.638  11.485   8.364 -0.1942  0.2287  0.2229
 1013MOL0     C33629  10.698  11.111   8.035  0.3987  0.3490  1.0355
 1013MOL0     C33630  10.800  11.128   7.950 -0.8185  0.2946 -0.2310
 1013MOL0     O33631  11.055  11.025   7.854 -0.1045 -0.0212 -1.1940
 1013MOL0     C33632  11.085  11.185   7.538 -0.4690  0.4531 -0.2385
 1013MOL0     C33633  11.181  11.228   7.450  0.4526  0.7446  1.1852
 1013MOL0     N33634  11.621  11.186   6.948 -0.6339 -0.1004  0.4528
 1013MOL0     N33635  11.653  11.172   6.822 -0.7699  0.6011  0.3596
 1013MOL0     C33636  11.379  10.798   5.845  0.3182 -0.1832 -0.3108
 1013MOL0     C33637  11.241  10.791   5.806 -0.2240  1.0759  0.1869
 1013MOL0     C33638  10.774  10.705   5.875 -0.6127  0.0457 -0.6930
 1013MOL0     C33639  10.697  10.594   5.905  0.5004  0.0089 -0.4402
 1013MOL0     C33640  10.562  10.604   5.877 -0.9338  0.0125  0.4000
 1013MOL0     C33641  10.494  10.717   5.814 -0.0985  0.0809 -0.7949
 1013MOL0     O33642  10.356  10.707   5.809  0.6176  0.5165 -0.1454
 1013MOL0     C33643  10.285  10.835   5.839  0.0146  0.7943  0.0050
 1013MOL0     C33644  10.129  10.814   5.825  0.2358  0.8919  0.0556
 1013MOL0     C33645  10.029  10.925   5.866 -0.2831  0.1989 -0.0889
 1013MOL0     C33646   9.893  10.870   5.899  0.6636 -0.2958  0.0259
 1013MOL0     C33647   9.826  10.987   5.963  0.7288  0.6994 -0.1913
 1013MOL0     C33648   9.785  11.093   5.996 -0.3840 -0.2615  0.2928
 1013MOL0     C33649  10.580  10.812   5.772 -0.6747  0.0293 -0.6734
 1013MOL0     C33650  10.721  10.809   5.790 -0.3555  0.7999  0.2514
 1013MOL0     H33651  11.100  10.779   6.122  0.4064 -0.7538  0.8018
 1013MOL0     H33652  11.339  10.798   6.172 -0.8640 -1.5076 -0.6523
 1013MOL0     H33653  11.658  10.899   5.916 -0.3120  2.0754  4.5415
 1013MOL0     H33654  11.670  10.728   5.879  2.1355  0.5692  0.4572
 1013MOL0     H33655  11.861  10.768   6.004  0.6530  2.0976  2.5593
 1013MOL0     H33656  11.762  10.682   6.110  3.3357 -0.2189  0.2678
 1013MOL0     H33657  11.690  10.908   6.209  0.0092 -2.0389 -0.8634
 1013MOL0     H33658  11.822  10.973   6.132  0.9504  0.2574  0.1989
 1013MOL0     H33659  11.824  10.735   6.312 -0.2919  0.3152 -0.3163
 1013MOL0     H33660  11.976  10.810   6.239  0.3510 -2.3445  1.3313
 1013MOL0     H33661  11.778  10.957   6.426 -0.5428 -3.8391  1.2508
 1013MOL0     H33662  11.935  11.014   6.357 -1.3945  1.7484  1.1117
 1013MOL0     H33663  12.043  10.840   6.530 -1.0996 -1.8707  2.0753
 1013MOL0     H33664  11.886  10.775   6.531 -1.0874  0.4811 -0.5557
 1013MOL0     H33665  11.946  10.888   6.743  1.9809  2.7245  1.9530
 1013MOL0     H33666  11.968  11.041   6.671 -2.0106  1.7904  0.0865
 1013MOL0     H33667  11.708  10.878   6.696  0.4182  0.4256  2.8087
 1013MOL0     H33668  11.697  11.028   6.607  1.8631  0.9076 -1.2403
 1013MOL0     H33669  11.759  10.890   6.969 -1.0970 -0.9967 -1.1243
 1013MOL0     H33670  11.659  11.138   7.227 -1.3468  0.7246 -0.6552
 1013MOL0     H33671  11.690  10.972   7.205  1.9460 -0.7436  0.0883
 1013MOL0     H33672  11.461  10.990   7.282 -0.3216 -0.6060 -0.0144
 1013MOL0     H33673  11.451  10.947   7.116  0.8623 -1.2590  0.8760
 1013MOL0     H33674  11.402  11.200   7.056 -0.1263 -1.0126 -1.2649
 1013MOL0     H33675  11.288  11.128   7.172  0.7221 -3.2807  0.4822
 1013MOL0     H33676  11.343  11.344   7.243 -0.2020  0.7640  1.1856
 1013MOL0     H33677  11.520  11.322   7.235 -0.5286  3.6442  0.5876
 1013MOL0     H33678  11.445  11.098   7.619  1.2393  3.6827 -1.9963
 1013MOL0     H33679  11.277  11.069   7.790 -1.0427  2.3397  0.8301
 1013MOL0     H33680  10.655  11.019   7.659  0.5970  0.2283 -0.6579
 1013MOL0     H33681  10.463  11.000   7.806  1.7783 -1.8727 -2.1261
 1013MOL0     H33682  10.558  11.092   8.250 -0.6450 -3.1701  1.1304
 1013MOL0     H33683  10.430  10.988   8.249 -0.8351  0.5389  0.8753
 1013MOL0     H33684  10.400  11.296   8.243 -2.8874  0.3180 -0.9065
 1013MOL0     H33685  10.363  11.179   8.372  1.7720  0.5258 -0.3404
 1013MOL0     H33686  10.181  11.100   8.182 -1.6948  0.3817 -3.7316
 1013MOL0     H33687  10.243  11.227   8.095  0.5644  1.2156  0.0654
 1013MOL0     H33688  10.136  11.272   8.376  0.5254 -0.3146  0.4564
 1013MOL0     H33689  10.159  11.394   8.242 -0.7135  0.1767  0.4506
 1013MOL0     H33690   9.946  11.176   8.246  1.7187 -1.2383 -0.0697
 1013MOL0     H33691  10.003  11.257   8.104  0.0176  0.8936 -0.0446
 1013MOL0     H33692   9.801  11.349   8.190 -0.3025 -2.7901  2.2003
 1013MOL0     H33693   9.929  11.467   8.172  1.3311  2.1290  3.9833
 1013MOL0     H33694   9.874  11.346   8.437 -1.2219  0.4173 -0.3506
 1013MOL0     H33695   9.996  11.470   8.394  1.1675 -4.0253 -0.2775
 1013MOL0     H33696   9.835  11.633   8.353  1.3142 -0.7986 -0.9158
 1013MOL0     H33697   9.810  11.542   8.516 -0.7116 -4.3938 -0.3984
 1013MOL0     H33698  10.707  11.148   8.137 -0.6574 -2.0100  2.0688
 1013MOL0     H33699  10.892  11.168   7.991  0.4496 -1.5475 -1.1469
 1013MOL0     H33700  10.986  11.220   7.510 -0.7749 -0.9818 -1.0224
 1013MOL0     H33701  11.153  11.280   7.359  0.4967 -2.2698 -0.6940
 1013MOL0     H33702  11.444  10.811   5.759 -1.0323 -0.6144 -1.4279
 1013MOL0     H33703  11.219  10.805   5.700 -0.8355 -0.1613  0.1350
 1013MOL0     H33704  10.733  10.504   5.954  2.0312  0.1698 -1.2108
 1013MOL0     H33705  10.504  10.520   5.915  0.2828  0.4180  3.3665
 1013MOL0     H33706  10.312  10.905   5.760 -1.4025 -0.6148 -1.8269
 1013MOL0     H33707  10.330  10.875   5.930  1.7104 -2.5426  0.8073
 1013MOL0     H33708  10.122  10.782   5.720  1.0866 -1.8012  0.7425
 1013MOL0     H33709  10.109  10.726   5.887  0.3417  0.2867 -0.7579
 1013MOL0     H33710  10.021  10.995   5.783  1.5627  0.6721  0.0945
 1013MOL0     H33711  10.074  10.969   5.955  1.5625 -2.1919  0.2795
 1013MOL0     H33712   9.835  10.830   5.815  1.0700 -1.6970  0.3844
 1013MOL0     H33713   9.890  10.790   5.974  1.2724  1.3246  1.8511
 1013MOL0     H33714   9.728  11.180   6.022 -1.7438  0.1806 -3.5224
 1013MOL0     H33715  10.543  10.891   5.707  1.5855  0.8948 -1.0163
 1013MOL0     H33716  10.775  10.890   5.742 -0.2446  0.3549 -0.3819
 1014MOL0     O33717   7.732   0.655   8.094  0.1454 -0.1383  0.7366
 1014MOL0     C33718   7.739   0.763   8.152  0.8729  1.0259 -0.0593
 1014MOL0     O33719   7.745   0.894   8.100  0.0348  0.0855  0.7550
 1014MOL0     C33720   7.719   0.934   7.969 -0.0642 -0.8818  0.5148
 1014MOL0     C33721   7.753   1.066   7.934  0.0392  0.0809  0.6514
 1014MOL0     C33722   7.753   1.115   7.805 -0.3015  0.1584  0.2622
 1014MOL0     C33723   7.710   1.015   7.706  0.1334  0.7244  0.0357
 1014MOL0     O33724   7.705   1.058   7.579  0.7351  0.4064 -0.6931
 1014MOL0     C33725   7.638   0.989   7.480  0.2771  0.7570  0.6224
 1014MOL0     C33726   7.588   1.087   7.360 -0.2244 -0.3680 -0.0203
 1014MOL0     C33727   7.455   1.143   7.401  0.6385 -0.2581 -0.4030
 1014MOL0     C33728   7.392   1.205   7.274  0.1857  0.6295 -0.4909
 1014MOL0     C33729   7.249   1.249   7.306  0.3278  0.2554 -0.3250
 1014MOL0     C33730   7.243   1.361   7.414 -0.0775  0.3256 -0.0610
 1014MOL0     C33731   7.099   1.383   7.480 -0.2294  0.4198  0.2323
 1014MOL0     C33732   7.104   1.443   7.622  0.1481  1.4852 -0.4924
 1014MOL0     N33733   7.134   1.586   7.619 -0.6943  1.2489 -0.1737
 1014MOL0     C33734   7.248   1.652   7.568  0.3864 -0.6866  0.2689
 1014MOL0     C33735   7.206   1.770   7.537  0.0316 -0.6464 -0.3048
 1014MOL0     C33736   7.289   1.879   7.473  0.8548  0.4182  0.0385
 1014MOL0     C33737   7.368   1.945   7.586 -0.4476 -0.6811  0.2371
 1014MOL0     C33738   7.488   2.020   7.543  0.9522  0.6361  0.5939
 1014MOL0     C33739   7.564   2.079   7.660  0.2387 -0.4666 -0.8216
 1014MOL0     O33740   7.489   2.183   7.719  0.3689  0.5299 -0.2607
 1014MOL0     C33741   7.487   2.309   7.666 -0.3312  0.4539 -0.5274
 1014MOL0     C33742   7.410   2.406   7.735 -0.0063  1.1574  0.3161
 1014MOL0     C33743   7.385   2.536   7.684 -0.0451 -0.7923 -1.0031
 1014MOL0     C33744   7.460   2.568   7.565 -0.1251 -0.3809 -1.1179
 1014MOL0     C33745   7.441   2.703   7.516 -0.1391  0.6389 -1.0195
 1014MOL0     O33746   7.400   2.799   7.603 -0.2809 -0.1699 -0.1298
 1014MOL0     C33747   7.401   2.926   7.564  0.1235  0.6652 -0.0262
 1014MOL0     C33748   7.492   3.018   7.627  0.1656 -0.7983 -0.0288
 1014MOL0     C33749   7.492   3.151   7.583  0.0362  0.8623  0.3996
 1014MOL0     C33750   7.408   3.189   7.482 -0.6243  0.1839  0.1750
 1014MOL0     O33751   7.417   3.328   7.447  0.2649  0.1710 -0.1613
 1014MOL0     C33752   7.353   3.389   7.336 -1.3546 -0.3049 -0.8085
 1014MOL0     C33753   7.427   3.530   7.315  0.3446 -0.2989 -0.3594
 1014MOL0     C33754   7.366   3.648   7.392 -0.3843 -0.1258 -0.1773
 1014MOL0     C33755   7.429   3.778   7.335  0.1223  0.4126 -0.3738
 1014MOL0     C33756   7.583   3.782   7.338 -0.4098  0.1443  0.1156
 1014MOL0     C33757   7.642   3.915   7.296 -0.2100 -0.0434  0.6462
 1014MOL0     C33758   7.791   3.920   7.255  0.2922  0.3383  0.3977
 1014MOL0     C33759   7.837   4.050   7.195 -0.4789  1.4346  0.2442
 1014MOL0    Cl33760   7.831   4.193   7.302 -0.1973  0.2606 -0.0314
 1014MOL0     C33761   7.311   3.102   7.427  0.7802 -0.3484  0.3325
 1014MOL0     C33762   7.310   2.963   7.467 -0.2048 -0.8886  0.1231
 1014MOL0     O33763   7.474   2.724   7.399 -0.2458  0.8066  0.3902
 1014MOL0     C33764   7.541   2.474   7.495  1.3848 -0.2682  0.0323
 1014MOL0     C33765   7.549   2.340   7.545 -0.4242 -0.2071  1.0709
 1014MOL0     N33766   7.073   1.781   7.577 -0.0890  0.5338 -0.4412
 1014MOL0     N33767   7.030   1.664   7.617  0.2647  0.4227  0.1296
 1014MOL0     C33768   7.674   0.885   7.740  0.4139  0.9189  0.0571
 1014MOL0     C33769   7.676   0.842   7.873 -0.7954 -0.0452  0.5417
 1014MOL0     C33770   7.750   0.759   8.299  0.1138  0.7462 -0.1587
 1014MOL0     C33771   7.732   0.633   8.370 -0.1757  0.0055  0.4143
 1014MOL0     C33772   7.746   0.622   8.505  0.7447 -0.3164 -0.5558
 1014MOL0     C33773   7.787   0.734   8.583  0.2164  0.3788  0.1022
 1014MOL0     O33774   7.824   0.721   8.715 -0.4902  0.5543  0.6833
 1014MOL0     C33775   7.813   0.592   8.783 -0.6687 -0.4412 -0.8263
 1014MOL0     C33776   7.889   0.607   8.912  0.8566 -0.3188  0.4077
 1014MOL0     C33777   8.037   0.618   8.879  0.1245  0.8933  0.2891
 1014MOL0     C33778   8.136   0.625   8.998  0.0999  0.1335 -1.2815
 1014MOL0     C33779   8.149   0.762   9.054 -0.0968 -0.2903  0.2995
 1014MOL0     C33780   8.160   0.869   9.111  0.2216 -0.5277 -0.2700
 1014MOL0     C33781   7.803   0.862   8.519 -0.3590 -0.6901 -0.0471
 1014MOL0     C33782   7.786   0.869   8.374  1.2072 -0.2474  0.4836
 1014MOL0     H33783   7.807   1.126   8.006 -1.2753  0.1728  1.5925
 1014MOL0     H33784   7.776   1.217   7.777  1.6612 -0.7233 -1.6722
 1014MOL0     H33785   7.548   0.942   7.522 -0.8676  2.1828 -0.1388
 1014MOL0     H33786   7.702   0.906   7.450 -0.9784 -0.1926  0.4908
 1014MOL0     H33787   7.590   1.028   7.268  0.1858  1.2395 -1.0763
 1014MOL0     H33788   7.652   1.175   7.351 -3.0634  2.2108  2.6975
 1014MOL0     H33789   7.455   1.211   7.486 -0.2545  0.8425 -1.2555
 1014MOL0     H33790   7.390   1.061   7.434  2.2572 -1.7740 -0.7962
 1014MOL0     H33791   7.455   1.284   7.232  1.5275  2.6579  4.6487
 1014MOL0     H33792   7.368   1.127   7.201 -1.6986  0.7133 -0.0148
 1014MOL0     H33793   7.203   1.161   7.352 -0.2478  1.8455  2.3519
 1014MOL0     H33794   7.193   1.275   7.215 -1.0105 -2.9517 -0.5586
 1014MOL0     H33795   7.279   1.454   7.368  0.2988  0.3555  0.2941
 1014MOL0     H33796   7.306   1.335   7.499  1.4839 -3.0068 -2.0430
 1014MOL0     H33797   7.030   1.448   7.425  2.1198  3.4468  0.6288
 1014MOL0     H33798   7.060   1.282   7.499 -0.3384  0.3311 -0.4380
 1014MOL0     H33799   7.179   1.392   7.683 -2.4572  0.1052  1.7776
 1014MOL0     H33800   7.012   1.431   7.681 -1.2576  3.7255 -2.0770
 1014MOL0     H33801   7.352   1.622   7.570  0.4575 -0.4112  1.5932
 1014MOL0     H33802   7.222   1.938   7.409  1.4819 -2.1864 -3.3203
 1014MOL0     H33803   7.339   1.823   7.394 -0.2154  1.0282 -1.1118
 1014MOL0     H33804   7.387   1.879   7.671  2.1468  3.2960  3.1066
 1014MOL0     H33805   7.303   2.022   7.629 -0.1073  1.0274 -2.0872
 1014MOL0     H33806   7.547   1.943   7.494 -0.7525 -0.7230  0.5832
 1014MOL0     H33807   7.459   2.103   7.478 -1.4975  1.4691  2.6021
 1014MOL0     H33808   7.666   2.101   7.629  0.6882  1.8885  1.9221
 1014MOL0     H33809   7.574   2.001   7.736  1.7518  0.3730 -0.1109
 1014MOL0     H33810   7.358   2.374   7.824  1.8697 -2.1015  0.4031
 1014MOL0     H33811   7.322   2.609   7.734  2.3079  2.1594 -2.0048
 1014MOL0     H33812   7.560   2.973   7.699 -3.9720 -4.9197  1.8099
 1014MOL0     H33813   7.549   3.228   7.634  1.7561 -0.3216  0.3362
 1014MOL0     H33814   7.245   3.399   7.332 -1.9288 -3.3707  2.5867
 1014MOL0     H33815   7.374   3.330   7.246 -2.5035 -0.1279 -1.1990
 1014MOL0     H33816   7.423   3.558   7.209 -0.3650  1.8191  0.1734
 1014MOL0     H33817   7.532   3.525   7.345  0.7498  0.6114 -1.5495
 1014MOL0     H33818   7.395   3.644   7.497  0.6141 -0.8332 -0.4713
 1014MOL0     H33819   7.257   3.647   7.397 -0.3890 -0.7072 -0.2995
 1014MOL0     H33820   7.390   3.796   7.235 -0.8636  1.8742  0.2205
 1014MOL0     H33821   7.387   3.858   7.397 -0.0079  0.7170 -0.8522
 1014MOL0     H33822   7.624   3.702   7.274 -1.4554  0.7351 -1.3599
 1014MOL0     H33823   7.620   3.760   7.438 -2.7747  1.8007  1.4463
 1014MOL0     H33824   7.648   3.973   7.388  1.4711  2.5736 -0.9885
 1014MOL0     H33825   7.575   3.974   7.231  1.6601  2.4823  0.8638
 1014MOL0     H33826   7.854   3.894   7.341  1.0353  3.7370  1.0341
 1014MOL0     H33827   7.805   3.845   7.177 -1.8513 -0.5009  0.7462
 1014MOL0     H33828   7.774   4.084   7.112 -0.1246  4.1448  0.9939
 1014MOL0     H33829   7.942   4.042   7.167  0.6984  2.0894  3.8873
 1014MOL0     H33830   7.246   3.144   7.351 -1.7921  0.2147  2.6728
 1014MOL0     H33831   7.232   2.895   7.435 -2.9342  1.9368  0.2704
 1014MOL0     H33832   7.583   2.495   7.398 -1.8504  2.0045 -1.0249
 1014MOL0     H33833   7.611   2.273   7.486 -0.3855 -1.9139  2.9403
 1014MOL0     H33834   7.640   0.809   7.670 -0.2787  1.3189 -0.0466
 1014MOL0     H33835   7.660   0.739   7.900 -2.9879  0.4473  1.3694
 1014MOL0     H33836   7.704   0.540   8.321 -0.6629  0.8855 -1.0331
 1014MOL0     H33837   7.725   0.523   8.545  0.8337  0.7276  2.3327
 1014MOL0     H33838   7.850   0.504   8.729 -1.1295 -1.4240  0.3985
 1014MOL0     H33839   7.707   0.570   8.798 -0.5099 -1.8055 -1.4991
 1014MOL0     H33840   7.848   0.696   8.960 -0.7873 -1.0398  0.3867
 1014MOL0     H33841   7.877   0.522   8.979  3.3471 -0.8122  0.3268
 1014MOL0     H33842   8.052   0.693   8.801 -1.4712 -1.1777 -2.1688
 1014MOL0     H33843   8.062   0.532   8.815  2.7170  2.2640 -0.6723
 1014MOL0     H33844   8.105   0.559   9.079  0.4697  0.2345 -1.0538
 1014MOL0     H33845   8.238   0.595   8.968  0.5094  2.6150 -2.6316
 1014MOL0     H33846   8.165   0.964   9.160 -2.5397  0.7060 -2.1655
 1014MOL0     H33847   7.845   0.950   8.566  1.3600  0.8649 -4.0202
 1014MOL0     H33848   7.816   0.960   8.322 -1.2150  0.1200 -0.4503
 1015MOL0     O33849   4.505   7.097   8.893 -0.7854 -0.5412  0.1758
 1015MOL0     C33850   4.483   6.996   8.830 -0.1988  0.5120  0.3137
 1015MOL0     O33851   4.465   6.880   8.885  0.4615  0.8871 -0.2953
 1015MOL0     C33852   4.448   6.880   9.024  1.0954  0.5128  0.2290
 1015MOL0     C33853   4.545   6.846   9.117  0.1073 -0.2204  0.1224
 1015MOL0     C33854   4.518   6.844   9.249  0.2045  0.7652  0.7266
 1015MOL0     C33855   4.399   6.885   9.297  1.1904  0.2298  0.4761
 1015MOL0     O33856   4.388   6.893   9.436  0.4352 -1.1731 -0.6772
 1015MOL0     C33857   4.328   7.009   9.491  0.4963 -0.2515  0.0864
 1015MOL0     C33858   4.373   7.024   9.635 -0.4689 -0.2176 -0.6627
 1015MOL0     C33859   4.283   7.119   9.722 -0.7525 -0.2092  0.1420
 1015MOL0     C33860   4.309   7.269   9.691  0.7648  0.7672  0.3904
 1015MOL0     C33861   4.228   7.352   9.793 -0.3395  0.2913 -0.7808
 1015MOL0     C33862   4.228   7.506   9.792 -0.9977 -0.0633  0.5981
 1015MOL0     C33863   4.361   7.578   9.805 -0.1713  0.0306 -0.1512
 1015MOL0     C33864   4.439   7.540   9.933 -1.6557 -0.5282 -0.3525
 1015MOL0     N33865   4.374   7.588  10.053  0.0305  0.5156  0.3505
 1015MOL0     C33866   4.327   7.516  10.160  0.1157  0.2620  0.1914
 1015MOL0     C33867   4.235   7.595  10.225  0.2576 -0.0586 -0.7178
 1015MOL0     C33868   4.158   7.565  10.341  0.9932 -0.2595  0.2430
 1015MOL0     C33869   4.012   7.523  10.298  0.7403 -0.4864 -0.0266
 1015MOL0     C33870   3.997   7.386  10.229 -0.0828 -0.3470  1.1363
 1015MOL0     C33871   3.993   7.398  10.073  0.8276  0.2016  0.3708
 1015MOL0     O33872   4.004   7.270  10.006  0.3021 -0.1017 -0.4632
 1015MOL0     C33873   3.895   7.195   9.985 -0.7549 -0.2668  0.9893
 1015MOL0     C33874   3.762   7.233  10.007 -0.4342 -0.0279 -0.5202
 1015MOL0     C33875   3.652   7.155   9.982  0.3952  0.3817  0.0768
 1015MOL0     C33876   3.665   7.039   9.912 -0.0548 -0.0322 -0.4448
 1015MOL0     C33877   3.543   6.960   9.872 -0.1045 -0.1424  0.2755
 1015MOL0     O33878   3.569   6.822   9.860 -0.1489 -0.1490 -0.4519
 1015MOL0     C33879   3.478   6.742   9.807 -0.5921  0.1827 -0.0952
 1015MOL0     C33880   3.348   6.735   9.843 -0.1254 -0.6003 -0.1223
 1015MOL0     C33881   3.254   6.671   9.763 -0.2215  0.5634 -0.2556
 1015MOL0     C33882   3.296   6.599   9.647 -1.1340  0.4184  0.4196
 1015MOL0     O33883   3.221   6.535   9.560  1.0942  0.8527 -0.3099
 1015MOL0     C33884   3.081   6.576   9.539  0.2727 -0.7575  0.3168
 1015MOL0     C33885   3.033   6.547   9.395  0.2974 -0.1713  0.5602
 1015MOL0     C33886   3.096   6.631   9.293 -0.9381 -0.4982  0.2475
 1015MOL0     C33887   3.062   6.593   9.152  0.1000 -0.7163  0.2343
 1015MOL0     C33888   3.113   6.701   9.060 -0.2100  0.3558  0.4094
 1015MOL0     C33889   3.118   6.648   8.912 -0.8336  0.6304 -0.1225
 1015MOL0     C33890   2.982   6.621   8.856 -0.0493 -0.0610 -0.0135
 1015MOL0     C33891   2.905   6.746   8.835 -0.6258 -0.3603  0.1568
 1015MOL0    Cl33892   2.763   6.743   8.730  0.1497  0.2833 -0.3167
 1015MOL0     C33893   3.436   6.595   9.617 -0.2251 -0.1480 -0.6543
 1015MOL0     C33894   3.524   6.666   9.698  1.1406  0.5771  0.5541
 1015MOL0     O33895   3.427   7.011   9.858 -0.1159  0.3877 -0.2038
 1015MOL0     C33896   3.797   6.988   9.903 -0.1415  0.1479  0.4605
 1015MOL0     C33897   3.911   7.069   9.930 -0.4565 -0.4410  0.5890
 1015MOL0     N33898   4.218   7.707  10.144  0.1991  0.5460 -0.2963
 1015MOL0     N33899   4.302   7.703  10.052  0.2539  0.8227  0.2441
 1015MOL0     C33900   4.290   6.922   9.206  0.2861  0.6351 -0.4192
 1015MOL0     C33901   4.320   6.919   9.071 -0.1086 -0.9255 -0.6913
 1015MOL0     C33902   4.472   6.997   8.681  0.3074 -0.0841  0.7207
 1015MOL0     C33903   4.455   7.125   8.619  0.4471  1.1435  0.7713
 1015MOL0     C33904   4.427   7.133   8.481 -0.3420 -0.0348 -0.0642
 1015MOL0     C33905   4.434   7.010   8.410  0.8443  0.3408  0.6365
 1015MOL0     O33906   4.416   7.024   8.279  0.7816  1.1024 -0.0435
 1015MOL0     C33907   4.421   6.902   8.205 -0.1650  0.1087  0.6790
 1015MOL0     C33908   4.374   6.923   8.057 -0.0899  0.2503  0.3735
 1015MOL0     C33909   4.460   6.995   7.958  1.1287 -0.0887 -1.0238
 1015MOL0     C33910   4.393   7.025   7.817  0.2690 -0.4021 -1.1895
 1015MOL0     C33911   4.497   7.092   7.740  0.0219  0.1381 -0.1672
 1015MOL0     C33912   4.573   7.164   7.679  0.7980 -0.2475  0.6734
 1015MOL0     C33913   4.464   6.887   8.470  0.6788  0.2189  0.1160
 1015MOL0     C33914   4.482   6.878   8.607  0.5753 -0.1698 -0.7301
 1015MOL0     H33915   4.640   6.814   9.075  0.2783  1.0385 -0.5026
 1015MOL0     H33916   4.595   6.805   9.314 -0.9547 -1.3659  0.9105
 1015MOL0     H33917   4.219   6.998   9.490  0.5318 -1.1368  1.8575
 1015MOL0     H33918   4.359   7.097   9.433 -1.4432 -1.4438 -2.9816
 1015MOL0     H33919   4.472   7.068   9.650 -1.8273  2.0773  2.9878
 1015MOL0     H33920   4.383   6.924   9.680  0.3038 -0.0941 -0.5530
 1015MOL0     H33921   4.320   7.099   9.824  0.0481  1.9636  0.3368
 1015MOL0     H33922   4.178   7.091   9.713 -0.3163 -1.4721 -1.5004
 1015MOL0     H33923   4.414   7.292   9.712 -0.0217  2.1031  3.4581
 1015MOL0     H33924   4.275   7.296   9.591  0.4438 -2.9302 -0.6403
 1015MOL0     H33925   4.264   7.324   9.893 -0.4020  0.9099 -0.5806
 1015MOL0     H33926   4.125   7.316   9.788 -1.6055  3.1726  1.3828
 1015MOL0     H33927   4.167   7.547   9.873  0.5970 -0.4306  2.0331
 1015MOL0     H33928   4.197   7.546   9.695  2.1450  3.7673  0.9253
 1015MOL0     H33929   4.429   7.556   9.722  0.4898  0.0216  0.3886
 1015MOL0     H33930   4.350   7.686   9.788 -3.6137 -0.3177 -1.0057
 1015MOL0     H33931   4.540   7.581   9.927 -1.6217 -0.1897  1.6704
 1015MOL0     H33932   4.457   7.432   9.937 -0.6735 -0.4672 -2.3233
 1015MOL0     H33933   4.353   7.414  10.188 -0.0625  0.1634  0.0016
 1015MOL0     H33934   4.163   7.656  10.403  0.5319 -1.5068  2.2191
 1015MOL0     H33935   4.197   7.476  10.393 -0.0270  0.1507  1.7972
 1015MOL0     H33936   3.967   7.595  10.230  0.6217  0.8486  1.4202
 1015MOL0     H33937   3.960   7.539  10.393 -1.9479  0.2976 -1.5070
 1015MOL0     H33938   4.072   7.312  10.257  1.2411 -0.1205 -1.5111
 1015MOL0     H33939   3.897   7.356  10.262 -0.7706  2.5465  1.9516
 1015MOL0     H33940   4.086   7.446  10.039  1.0834 -1.7555 -2.0222
 1015MOL0     H33941   3.915   7.466  10.039  1.0688  1.4530  2.1627
 1015MOL0     H33942   3.744   7.326  10.060  2.3626  0.0381  0.5052
 1015MOL0     H33943   3.553   7.197  10.002  0.8813  2.7497 -1.9573
 1015MOL0     H33944   3.307   6.793   9.925  2.3022  2.9561 -1.2199
 1015MOL0     H33945   3.150   6.673   9.795  0.0960 -2.2420  1.3481
 1015MOL0     H33946   3.067   6.684   9.545  3.8959 -0.0906 -1.0975
 1015MOL0     H33947   3.020   6.537   9.621  2.4481 -1.6034  1.6114
 1015MOL0     H33948   2.926   6.568   9.393  0.5551  1.1657  0.1851
 1015MOL0     H33949   3.062   6.442   9.385  0.8536 -0.0284  0.6149
 1015MOL0     H33950   3.205   6.640   9.298 -0.9887  0.1778  0.2169
 1015MOL0     H33951   3.055   6.731   9.307  1.8568  1.4308 -3.6662
 1015MOL0     H33952   3.113   6.497   9.136 -0.7350 -1.4666  1.7760
 1015MOL0     H33953   2.954   6.576   9.153 -0.3407  1.4881  3.0627
 1015MOL0     H33954   3.216   6.729   9.082  0.3260  0.2373 -1.7375
 1015MOL0     H33955   3.052   6.791   9.065  0.4465  0.8307 -0.0077
 1015MOL0     H33956   3.164   6.550   8.925 -0.8604  0.5110 -0.8496
 1015MOL0     H33957   3.175   6.711   8.843 -2.5311  1.4614 -0.8277
 1015MOL0     H33958   2.991   6.577   8.756  1.2039  3.1839 -1.4728
 1015MOL0     H33959   2.926   6.552   8.921 -0.9560  1.1249  0.5051
 1015MOL0     H33960   2.974   6.820   8.794 -1.6988 -0.5905 -2.2191
 1015MOL0     H33961   2.872   6.782   8.933  0.5592 -1.8943  1.1703
 1015MOL0     H33962   3.464   6.525   9.539 -0.8426 -1.8205  0.5571
 1015MOL0     H33963   3.629   6.654   9.674  0.3310  0.0714 -3.3052
 1015MOL0     H33964   3.821   6.895   9.852  0.3495  0.8447 -0.6007
 1015MOL0     H33965   4.015   7.042   9.912 -0.3087  0.4811 -0.0304
 1015MOL0     H33966   4.192   6.946   9.246  0.0582  0.3049 -0.7682
 1015MOL0     H33967   4.250   6.937   8.990  0.8481  0.7535 -1.2024
 1015MOL0     H33968   4.451   7.214   8.682 -5.1376  0.5489  1.7680
 1015MOL0     H33969   4.389   7.219   8.427  0.4481 -0.8700 -2.0497
 1015MOL0     H33970   4.372   6.818   8.255 -2.6723  0.2454 -1.3256
 1015MOL0     H33971   4.526   6.874   8.194 -0.2712 -0.1398  0.2920
 1015MOL0     H33972   4.373   6.818   8.025  0.3434  0.7829 -1.5063
 1015MOL0     H33973   4.271   6.958   8.048 -0.4060 -1.0640 -1.8929
 1015MOL0     H33974   4.553   6.938   7.949  2.6106  2.0049 -0.0637
 1015MOL0     H33975   4.478   7.092   8.007 -0.7123  0.6328 -1.6940
 1015MOL0     H33976   4.363   6.928   7.778  1.9021 -0.8015 -1.5266
 1015MOL0     H33977   4.307   7.092   7.824 -0.7962 -1.8342 -0.2277
 1015MOL0     H33978   4.647   7.229   7.636  1.2661  0.0507  1.8898
 1015MOL0     H33979   4.476   6.785   8.434  0.1558 -1.2376  3.6232
 1015MOL0     H33980   4.508   6.793   8.669  0.4238  0.4413  0.1852
 1016MOL0     O33981  11.291   7.683   8.594  0.2582  0.9836  0.2108
 1016MOL0     C33982  11.339   7.772   8.663  0.5729 -0.0159 -0.0162
 1016MOL0     O33983  11.451   7.846   8.636  0.3005  0.5374  0.4220
 1016MOL0     C33984  11.506   7.807   8.520 -0.6562 -0.3230 -0.4941
 1016MOL0     C33985  11.470   7.856   8.391 -0.2146  1.6215  0.0337
 1016MOL0     C33986  11.523   7.795   8.277  0.1222  0.5649  0.0856
 1016MOL0     C33987  11.614   7.691   8.286  0.1041 -0.0287  0.4728
 1016MOL0     O33988  11.676   7.657   8.163  0.3813  0.3580  0.0705
 1016MOL0     C33989  11.807   7.599   8.175 -0.4334  0.7680 -0.1204
 1016MOL0     C33990  11.859   7.575   8.032  0.1118  0.2339  0.3076
 1016MOL0     C33991  12.004   7.531   8.024 -0.7033  0.2980  0.2012
 1016MOL0     C33992  12.028   7.495   7.873 -0.0613 -0.7009 -0.3208
 1016MOL0     C33993  12.171   7.466   7.838 -0.3608 -0.2572 -0.1530
 1016MOL0     C33994  12.173   7.395   7.705  0.3909  0.6471  0.5087
 1016MOL0     C33995  12.319   7.365   7.662  0.1021  0.0972 -0.1579
 1016MOL0     C33996  12.380   7.493   7.598 -0.8202  0.2286 -0.2400
 1016MOL0     N33997  12.509   7.462   7.529  0.1847 -0.3235 -0.2026
 1016MOL0     C33998  12.623   7.404   7.578 -0.0623 -0.1178 -0.1315
 1016MOL0     C33999  12.711   7.407   7.483 -0.1043  0.3690 -0.0162
 1016MOL0     C34000  12.848   7.346   7.461 -0.3171 -0.9089  0.6438
 1016MOL0     C34001  12.849   7.217   7.379 -0.4949  0.2984  0.5785
 1016MOL0     C34002  12.909   7.103   7.464  1.3196 -0.0622  0.5322
 1016MOL0     C34003  12.941   6.982   7.365 -0.4359  0.8123  0.1793
 1016MOL0     O34004  12.818   6.929   7.297 -0.4884 -0.1123 -0.1667
 1016MOL0     C34005  12.775   6.810   7.339 -0.3694 -0.5608 -0.0411
 1016MOL0     C34006  12.661   6.793   7.424 -0.8419  0.6004  0.4404
 1016MOL0     C34007  12.625   6.666   7.466  0.1556 -0.4263 -0.6410
 1016MOL0     C34008  12.699   6.553   7.433  0.1158 -0.6622  0.9329
 1016MOL0     C34009  12.643   6.419   7.466  0.4152  0.6674 -0.2690
 1016MOL0     O34010  12.518   6.412   7.516  0.2136  0.3170  0.0675
 1016MOL0     C34011  12.472   6.285   7.550  1.1253  0.1624 -0.2682
 1016MOL0     C34012  12.345   6.236   7.492  0.5799 -0.3729 -0.3379
 1016MOL0     C34013  12.291   6.120   7.545 -0.1630  0.2199 -0.3008
 1016MOL0     C34014  12.351   6.062   7.661 -0.5300  0.8525  0.2552
 1016MOL0     O34015  12.287   5.939   7.692 -0.7156 -0.5375  0.6538
 1016MOL0     C34016  12.364   5.865   7.791 -0.1338  0.5323  0.7065
 1016MOL0     C34017  12.315   5.726   7.805  0.4479 -0.0036 -0.2304
 1016MOL0     C34018  12.346   5.636   7.684 -0.3690  0.2856  0.6893
 1016MOL0     C34019  12.319   5.490   7.719 -0.1723 -0.6852  1.1173
 1016MOL0     C34020  12.370   5.407   7.589  0.1621  0.4917 -0.4397
 1016MOL0     C34021  12.347   5.252   7.624 -0.2264 -0.7776  0.7846
 1016MOL0     C34022  12.398   5.151   7.517 -0.1186  0.4855  0.6193
 1016MOL0     C34023  12.541   5.176   7.457  0.3971  0.5052 -0.1930
 1016MOL0    Cl34024  12.659   5.135   7.589 -0.5825 -0.2472 -0.4761
 1016MOL0     C34025  12.463   6.110   7.713  0.2052  0.3235  0.0659
 1016MOL0     C34026  12.537   6.218   7.656 -0.1374  0.7248  0.1325
 1016MOL0     O34027  12.709   6.319   7.429  0.3891 -0.1407 -0.0955
 1016MOL0     C34028  12.808   6.569   7.343 -0.1555 -0.0191  0.0479
 1016MOL0     C34029  12.842   6.695   7.298  0.5070 -0.5053 -0.2234
 1016MOL0     N34030  12.653   7.462   7.373 -0.9046  0.7904 -0.0770
 1016MOL0     N34031  12.534   7.491   7.397  0.2743  0.5466 -0.5074
 1016MOL0     C34032  11.648   7.642   8.414  0.7831  0.5541 -0.3044
 1016MOL0     C34033  11.592   7.697   8.523  0.1848  0.3177 -0.4358
 1016MOL0     C34034  11.282   7.779   8.807 -0.0513  0.6339 -0.0625
 1016MOL0     C34035  11.168   7.715   8.843  0.7688  0.7412 -0.0066
 1016MOL0     C34036  11.121   7.716   8.973  1.1458  0.2667 -0.8652
 1016MOL0     C34037  11.193   7.770   9.079  0.3349 -0.1578 -0.8430
 1016MOL0     O34038  11.151   7.783   9.212  0.0120  0.3186  0.1988
 1016MOL0     C34039  11.012   7.767   9.241  0.4632 -0.2231  0.8501
 1016MOL0     C34040  10.968   7.824   9.376  0.4898 -0.2951 -0.7326
 1016MOL0     C34041  10.987   7.699   9.481  1.1340 -0.7596 -0.0935
 1016MOL0     C34042  10.916   7.739   9.616  0.4266  0.1013  0.0646
 1016MOL0     C34043  10.997   7.832   9.688 -0.2897  0.0742  0.3318
 1016MOL0     C34044  11.083   7.899   9.742  0.6576 -1.1020 -0.9205
 1016MOL0     C34045  11.311   7.826   9.047 -1.1350  1.0574  0.0280
 1016MOL0     C34046  11.356   7.835   8.911  0.3075 -0.5552 -0.9754
 1016MOL0     H34047  11.409   7.945   8.382 -4.3939 -0.8027  1.3495
 1016MOL0     H34048  11.508   7.837   8.178 -2.7801  3.1995  1.4699
 1016MOL0     H34049  11.801   7.500   8.221 -0.7854  1.9040  2.4399
 1016MOL0     H34050  11.873   7.667   8.228 -0.9269  3.2082 -2.3929
 1016MOL0     H34051  11.839   7.664   7.972 -2.5311 -0.0205  0.7022
 1016MOL0     H34052  11.795   7.498   7.989 -3.8433  1.9995  2.4288
 1016MOL0     H34053  12.017   7.444   8.088 -1.0020  0.0267 -0.1022
 1016MOL0     H34054  12.065   7.616   8.057 -1.4901 -0.2356  3.3775
 1016MOL0     H34055  11.978   7.402   7.843 -0.2438 -0.2074 -1.6077
 1016MOL0     H34056  11.974   7.568   7.812  1.4005 -0.3245 -1.1932
 1016MOL0     H34057  12.215   7.400   7.912 -0.3783  1.0388  1.0480
 1016MOL0     H34058  12.225   7.560   7.829  0.6043 -0.9366 -2.3276
 1016MOL0     H34059  12.118   7.452   7.630 -0.9315  0.0026  0.9521
 1016MOL0     H34060  12.115   7.302   7.711 -0.1198  0.7685 -1.6017
 1016MOL0     H34061  12.372   7.338   7.754  0.7599  0.2615 -0.4821
 1016MOL0     H34062  12.325   7.277   7.598 -2.8832 -0.4317  0.1366
 1016MOL0     H34063  12.398   7.581   7.659  1.4582 -1.4705  1.7376
 1016MOL0     H34064  12.313   7.535   7.523  1.0697 -0.6872 -2.6042
 1016MOL0     H34065  12.636   7.357   7.674 -3.1506 -3.2570 -1.0276
 1016MOL0     H34066  12.896   7.338   7.559 -1.7330  0.4782  1.5027
 1016MOL0     H34067  12.906   7.422   7.408  1.2015 -1.2259  1.7902
 1016MOL0     H34068  12.910   7.231   7.290  1.1419 -0.0305  1.6002
 1016MOL0     H34069  12.746   7.191   7.355 -0.3286  0.9527 -0.8974
 1016MOL0     H34070  12.998   7.139   7.517  0.5282  0.7196  1.3751
 1016MOL0     H34071  12.834   7.076   7.539  2.3177  0.1055  1.6302
 1016MOL0     H34072  12.995   6.908   7.425  1.1721 -1.8806 -4.1046
 1016MOL0     H34073  13.023   7.009   7.297  0.4620 -0.8337  0.5437
 1016MOL0     H34074  12.605   6.884   7.444 -0.6724  1.1183 -1.2895
 1016MOL0     H34075  12.525   6.653   7.507  1.9380  0.8885  5.1459
 1016MOL0     H34076  12.308   6.284   7.402 -0.4225 -1.3204 -0.4508
 1016MOL0     H34077  12.209   6.070   7.494  0.0268  1.2046 -1.6070
 1016MOL0     H34078  12.366   5.916   7.887  1.1414  1.0744  0.4200
 1016MOL0     H34079  12.462   5.850   7.744 -0.4928  1.4411 -0.3777
 1016MOL0     H34080  12.210   5.710   7.831  0.9312 -2.4589  0.4812
 1016MOL0     H34081  12.365   5.694   7.897  1.6824 -1.0374 -1.2307
 1016MOL0     H34082  12.446   5.648   7.641 -0.0900 -3.0192  0.1614
 1016MOL0     H34083  12.274   5.664   7.606 -1.1494 -2.4559  0.3169
 1016MOL0     H34084  12.384   5.473   7.806  0.2872 -2.1651  0.5091
 1016MOL0     H34085  12.215   5.466   7.741 -1.4856  2.6293 -0.7173
 1016MOL0     H34086  12.475   5.430   7.569  0.3258 -0.7209 -1.0605
 1016MOL0     H34087  12.311   5.431   7.500  1.5793 -3.3861 -2.6734
 1016MOL0     H34088  12.238   5.248   7.631 -0.4752  1.6806 -0.6565
 1016MOL0     H34089  12.400   5.235   7.718  3.0763  0.1394 -0.7583
 1016MOL0     H34090  12.395   5.047   7.551 -1.9289 -0.6399 -2.5673
 1016MOL0     H34091  12.322   5.147   7.439  0.5654 -1.7319  0.0016
 1016MOL0     H34092  12.564   5.281   7.437  1.4299 -0.1124 -2.6805
 1016MOL0     H34093  12.557   5.115   7.368  1.2032  1.7105 -0.9141
 1016MOL0     H34094  12.504   6.065   7.803 -1.4644  0.7877  1.0971
 1016MOL0     H34095  12.618   6.263   7.712  1.4314  0.6108 -1.9633
 1016MOL0     H34096  12.868   6.483   7.314  1.6810 -1.4918  6.6485
 1016MOL0     H34097  12.916   6.711   7.220 -0.7438  1.9978 -0.9851
 1016MOL0     H34098  11.710   7.554   8.428 -1.4240 -0.4833  5.5600
 1016MOL0     H34099  11.621   7.649   8.616 -0.0785 -0.6110 -0.8330
 1016MOL0     H34100  11.094   7.668   8.779  0.1767  3.0398 -1.1051
 1016MOL0     H34101  11.028   7.668   9.000  2.3929 -3.1297 -2.0861
 1016MOL0     H34102  10.976   7.664   9.247  1.0169 -0.4861 -0.2072
 1016MOL0     H34103  10.959   7.817   9.159  0.4390  0.2503  1.1491
 1016MOL0     H34104  11.035   7.904   9.409 -1.8953  0.9149  1.5392
 1016MOL0     H34105  10.865   7.861   9.375  0.5597 -0.0825 -0.0728
 1016MOL0     H34106  11.093   7.672   9.491  1.8481  2.1170  0.8507
 1016MOL0     H34107  10.932   7.614   9.440  1.0654 -1.3015  1.0789
 1016MOL0     H34108  10.812   7.759   9.589  0.4133 -2.9434 -2.8258
 1016MOL0     H34109  10.901   7.655   9.685 -2.8631 -2.0793 -2.9490
 1016MOL0     H34110  11.145   7.977   9.782  0.5049 -0.4838 -1.8779
 1016MOL0     H34111  11.371   7.865   9.130  3.4131 -2.8236 -1.0063
 1016MOL0     H34112  11.453   7.880   8.892  0.7360 -1.7717 -1.8044
 1017MOL0     O34113   8.988   6.543   4.754  0.0453 -0.0727  0.2624
 1017MOL0     C34114   8.988   6.633   4.832 -1.0350 -0.2375 -0.5404
 1017MOL0     O34115   8.977   6.763   4.791 -0.2389  0.5518 -0.7049
 1017MOL0     C34116   8.925   6.774   4.670 -0.4060 -0.3700  0.3370
 1017MOL0     C34117   8.796   6.827   4.662  1.0249  0.5241 -0.3205
 1017MOL0     C34118   8.734   6.858   4.542 -0.1480  0.0890  0.0184
 1017MOL0     C34119   8.818   6.854   4.418 -0.5343 -0.5388 -0.5389
 1017MOL0     O34120   8.751   6.898   4.309  0.8631 -0.4045 -0.2413
 1017MOL0     C34121   8.825   6.912   4.181 -0.2604 -0.1745  0.3528
 1017MOL0     C34122   8.735   6.936   4.058 -0.3870  0.2372 -1.0599
 1017MOL0     C34123   8.824   6.975   3.944 -0.4541 -0.4335 -0.3848
 1017MOL0     C34124   8.735   6.970   3.803  0.0149  0.5077 -0.5334
 1017MOL0     C34125   8.822   6.970   3.675  0.4377 -0.0045  0.9923
 1017MOL0     C34126   8.878   7.109   3.665  0.2264  0.7978  0.0804
 1017MOL0     C34127   8.930   7.130   3.516  0.5308  1.0816  0.0848
 1017MOL0     C34128   8.996   7.259   3.513  0.4693  0.3630  0.2694
 1017MOL0     N34129   9.003   7.292   3.369 -0.5807  0.0912  0.1740
 1017MOL0     C34130   9.087   7.226   3.278 -0.7206 -0.4050  0.2636
 1017MOL0     C34131   9.031   7.254   3.155 -1.3370  0.4989 -0.6326
 1017MOL0     C34132   9.066   7.214   3.016 -0.6652 -0.0673 -0.4002
 1017MOL0     C34133   9.087   7.324   2.911  0.0782  0.6293 -0.1454
 1017MOL0     C34134   8.954   7.379   2.844 -0.2247 -0.5815 -0.4784
 1017MOL0     C34135   8.898   7.269   2.760  0.1611  0.4289  1.2347
 1017MOL0     O34136   8.992   7.212   2.673 -0.1976 -0.7755  0.4053
 1017MOL0     C34137   9.007   7.271   2.547  1.3948  0.3675 -0.2696
 1017MOL0     C34138   9.120   7.340   2.525  0.1528  0.6917  0.4554
 1017MOL0     C34139   9.128   7.436   2.417  0.1375 -0.3867  0.0176
 1017MOL0     C34140   9.019   7.448   2.334 -0.8213 -0.0493 -0.2230
 1017MOL0     C34141   9.029   7.554   2.231 -0.0109 -0.6132  0.2286
 1017MOL0     O34142   9.117   7.656   2.255  0.7763  0.2160  1.2025
 1017MOL0     C34143   9.092   7.763   2.169 -0.2731 -0.3548  1.4931
 1017MOL0     C34144   9.132   7.764   2.028  0.3174  1.3378 -0.4667
 1017MOL0     C34145   9.097   7.874   1.951  0.3135  0.4500 -0.3988
 1017MOL0     C34146   9.029   7.988   2.003  0.4897  0.2240 -0.1314
 1017MOL0     O34147   8.991   8.082   1.923  0.1529 -1.0028 -0.1845
 1017MOL0     C34148   9.044   8.220   1.937  0.8868 -0.0607  0.7852
 1017MOL0     C34149   9.129   8.261   1.821 -0.5405 -0.0499 -0.4449
 1017MOL0     C34150   9.249   8.172   1.786 -0.6078  0.4344 -1.0175
 1017MOL0     C34151   9.369   8.197   1.893  0.0090 -0.6752  0.3427
 1017MOL0     C34152   9.438   8.064   1.946  0.1837 -0.3204  0.2871
 1017MOL0     C34153   9.441   7.943   1.848 -0.3465  0.0796  0.2183
 1017MOL0     C34154   9.542   7.849   1.928 -0.1063  0.4936  1.1873
 1017MOL0     C34155   9.551   7.721   1.841  0.0366 -0.5567  0.1951
 1017MOL0    Cl34156   9.644   7.742   1.690 -0.2207 -0.2138  0.0181
 1017MOL0     C34157   8.992   7.987   2.131 -0.3092  0.4998  0.4571
 1017MOL0     C34158   9.024   7.879   2.214 -0.0381 -0.9824 -0.3392
 1017MOL0     O34159   8.945   7.543   2.138 -0.0946  0.2119 -0.1237
 1017MOL0     C34160   8.906   7.372   2.353  0.4915 -0.4667  0.3052
 1017MOL0     C34161   8.895   7.284   2.462 -0.4029  0.2885  0.8483
 1017MOL0     N34162   8.906   7.320   3.180  0.0304  0.8844  0.3344
 1017MOL0     N34163   8.902   7.349   3.309  0.3931 -0.3217  1.2249
 1017MOL0     C34164   8.941   6.803   4.433 -0.0809 -0.4767 -0.6252
 1017MOL0     C34165   8.994   6.762   4.555 -0.5115 -0.0694 -1.1018
 1017MOL0     C34166   9.017   6.614   4.978 -0.4012  0.3184 -0.0269
 1017MOL0     C34167   9.072   6.494   5.028  0.2152  0.8795  0.1856
 1017MOL0     C34168   9.088   6.473   5.166  0.2476  0.0063 -0.9788
 1017MOL0     C34169   9.044   6.569   5.253  0.1077  0.8338 -0.0914
 1017MOL0     O34170   9.025   6.556   5.388 -1.6715  0.1358 -0.1375
 1017MOL0     C34171   9.064   6.437   5.458  0.2479  0.4549  0.7815
 1017MOL0     C34172   9.215   6.464   5.483 -0.0879 -0.4170  0.4502
 1017MOL0     C34173   9.236   6.552   5.617  0.1818  0.7412  0.1576
 1017MOL0     C34174   9.385   6.552   5.651  0.3039 -0.9465  0.2340
 1017MOL0     C34175   9.465   6.625   5.557  0.6278 -1.3603 -0.8576
 1017MOL0     C34176   9.513   6.704   5.477  0.0260 -0.0977 -0.6638
 1017MOL0     C34177   9.016   6.694   5.208  0.3589  0.4525  0.3175
 1017MOL0     C34178   8.996   6.719   5.073  0.5739 -0.4919  0.2959
 1017MOL0     H34179   8.755   6.851   4.760 -1.6061  2.3368 -1.7351
 1017MOL0     H34180   8.638   6.906   4.538 -0.8821 -1.4031 -1.8621
 1017MOL0     H34181   8.875   6.817   4.159 -0.7332 -1.0160  2.6004
 1017MOL0     H34182   8.888   7.001   4.196 -2.1824  1.9293 -2.9878
 1017MOL0     H34183   8.654   7.007   4.076 -0.1644  0.1248  0.5551
 1017MOL0     H34184   8.695   6.836   4.037  2.5505 -1.4497  0.6500
 1017MOL0     H34185   8.911   6.909   3.939 -1.6396 -2.0422 -0.5246
 1017MOL0     H34186   8.854   7.080   3.959 -1.3935 -0.2346  0.1826
 1017MOL0     H34187   8.677   6.878   3.799  2.9854 -1.4529 -3.2888
 1017MOL0     H34188   8.655   7.043   3.816 -1.3210 -0.6275 -2.0804
 1017MOL0     H34189   8.741   6.954   3.603  1.0395 -1.5133  0.6244
 1017MOL0     H34190   8.906   6.901   3.664  0.3690  0.1953 -1.1865
 1017MOL0     H34191   8.957   7.133   3.736  2.2802  2.3304 -2.5297
 1017MOL0     H34192   8.800   7.181   3.692  0.5524  2.0814 -2.1100
 1017MOL0     H34193   8.983   7.040   3.484 -0.8365  0.9186 -1.8362
 1017MOL0     H34194   8.835   7.136   3.462  2.2924  2.3970 -3.1637
 1017MOL0     H34195   9.096   7.250   3.559  1.7661  2.3909 -1.9559
 1017MOL0     H34196   8.939   7.333   3.569 -0.4881 -1.9751  2.6287
 1017MOL0     H34197   9.179   7.173   3.301 -0.3447  0.3966  0.6444
 1017MOL0     H34198   8.984   7.152   2.977  0.3513 -0.3358 -2.2517
 1017MOL0     H34199   9.152   7.147   3.009 -0.7187 -0.4445  2.0247
 1017MOL0     H34200   9.150   7.286   2.830 -0.0852 -0.7882  0.3616
 1017MOL0     H34201   9.148   7.404   2.953  4.3246 -1.4304 -1.8397
 1017MOL0     H34202   8.884   7.413   2.920  1.0972  2.0392 -0.3129
 1017MOL0     H34203   8.979   7.470   2.789  2.1060 -2.4426 -2.8266
 1017MOL0     H34204   8.818   7.311   2.699  0.6301  0.4137  0.5962
 1017MOL0     H34205   8.849   7.197   2.826  0.4165  0.7446  1.7763
 1017MOL0     H34206   9.198   7.328   2.599  0.8621  0.4476 -0.3160
 1017MOL0     H34207   9.220   7.494   2.418 -0.0373 -0.1112  0.2678
 1017MOL0     H34208   9.178   7.679   1.980 -0.1392  0.9211 -0.1744
 1017MOL0     H34209   9.113   7.882   1.844  0.2531 -2.5704 -0.7013
 1017MOL0     H34210   9.101   8.225   2.030  2.9906  0.3553 -0.4602
 1017MOL0     H34211   8.958   8.286   1.931 -0.4333 -1.7645  0.0046
 1017MOL0     H34212   9.151   8.367   1.833  0.8906 -0.2637 -0.9590
 1017MOL0     H34213   9.058   8.261   1.738 -0.6614  1.1610 -0.3567
 1017MOL0     H34214   9.279   8.191   1.683 -0.3196  2.3207 -0.6278
 1017MOL0     H34215   9.214   8.069   1.780 -0.2074  0.2510 -0.3363
 1017MOL0     H34216   9.442   8.268   1.853  0.4175 -1.8030 -0.9882
 1017MOL0     H34217   9.321   8.240   1.981 -3.7484 -0.8824 -1.4204
 1017MOL0     H34218   9.379   8.041   2.036 -0.6057  2.5696  0.6293
 1017MOL0     H34219   9.538   8.089   1.982  1.3016 -1.9768 -1.4927
 1017MOL0     H34220   9.481   7.966   1.749  0.4807 -0.7014  0.3515
 1017MOL0     H34221   9.343   7.894   1.848 -1.4154  2.1130  0.7979
 1017MOL0     H34222   9.639   7.893   1.953  1.1071 -2.0617  1.2683
 1017MOL0     H34223   9.500   7.833   2.028 -4.6356  4.4578  0.3033
 1017MOL0     H34224   9.450   7.688   1.815  0.6164 -2.2845 -0.0311
 1017MOL0     H34225   9.583   7.630   1.894 -2.2636 -0.5047  1.8419
 1017MOL0     H34226   8.941   8.076   2.166 -2.3648 -0.0231 -1.0484
 1017MOL0     H34227   8.983   7.870   2.314 -1.9324 -0.1625 -1.0024
 1017MOL0     H34228   8.841   7.356   2.267  0.2393  1.3723  0.1072
 1017MOL0     H34229   8.823   7.204   2.476 -0.7102  0.1850 -1.1643
 1017MOL0     H34230   9.011   6.815   4.351 -0.0009 -0.5393 -0.5665
 1017MOL0     H34231   9.096   6.725   4.552  0.4031  2.3427 -2.0728
 1017MOL0     H34232   9.101   6.407   4.970 -0.3866 -1.1993  2.8640
 1017MOL0     H34233   9.142   6.384   5.198  2.7286  0.7077 -2.8870
 1017MOL0     H34234   9.059   6.347   5.395 -0.6586  0.0651  1.4010
 1017MOL0     H34235   9.029   6.432   5.561 -0.4479  0.1376  0.5389
 1017MOL0     H34236   9.278   6.375   5.491 -0.1182 -0.4085  0.7972
 1017MOL0     H34237   9.264   6.526   5.407  1.3855 -1.5800  0.4075
 1017MOL0     H34238   9.187   6.499   5.699 -1.2495  3.7909  1.4500
 1017MOL0     H34239   9.187   6.650   5.609  0.5241  0.9128  0.1543
 1017MOL0     H34240   9.379   6.593   5.752 -2.7456 -0.3871 -0.0786
 1017MOL0     H34241   9.443   6.460   5.661  2.5107  0.5724  7.1326
 1017MOL0     H34242   9.546   6.765   5.396  2.6157 -1.6881 -0.9113
 1017MOL0     H34243   8.997   6.771   5.282  1.4195  2.7328 -1.6657
 1017MOL0     H34244   8.957   6.818   5.053 -2.3507 -1.4480  0.8702
 1018MOL0     O34245   6.842   2.874   6.701 -0.3390 -0.2456  0.0249
 1018MOL0     C34246   6.789   2.956   6.771 -0.0855 -0.7136 -0.5393
 1018MOL0     O34247   6.682   2.927   6.860 -0.2269 -0.3506 -0.2457
 1018MOL0     C34248   6.687   2.790   6.898 -0.8364 -0.1725 -0.1274
 1018MOL0     C34249   6.730   2.742   7.021 -0.0163  0.8122  0.0665
 1018MOL0     C34250   6.712   2.604   7.060 -0.3470 -0.0305  0.7105
 1018MOL0     C34251   6.672   2.505   6.966  0.4563  0.1507 -0.2592
 1018MOL0     O34252   6.666   2.370   6.991 -0.2701 -0.5235  0.0232
 1018MOL0     C34253   6.785   2.315   7.061  0.0450 -0.1115  0.8877
 1018MOL0     C34254   6.863   2.229   6.953  1.1133 -0.8853  0.6366
 1018MOL0     C34255   6.768   2.119   6.895  0.2851 -0.6355 -0.4251
 1018MOL0     C34256   6.699   2.032   6.998 -0.2121  0.1410  0.3404
 1018MOL0     C34257   6.806   1.965   7.085  0.1055 -0.8152  0.9382
 1018MOL0     C34258   6.731   1.884   7.189  0.2162  0.6865  0.2389
 1018MOL0     C34259   6.827   1.795   7.269  0.7981 -0.0964  0.8436
 1018MOL0     C34260   6.753   1.694   7.365 -0.1111 -0.4617 -0.8654
 1018MOL0     N34261   6.653   1.749   7.460 -0.5227 -0.4311 -0.1108
 1018MOL0     C34262   6.680   1.846   7.544  0.5886 -0.6027  0.7247
 1018MOL0     C34263   6.557   1.888   7.593 -0.8043 -0.0725  0.5074
 1018MOL0     C34264   6.536   1.993   7.701  0.0555  0.2469  0.0812
 1018MOL0     C34265   6.570   2.129   7.646 -0.1066 -0.5150  0.4480
 1018MOL0     C34266   6.488   2.209   7.542  0.3484 -1.1433 -0.7102
 1018MOL0     C34267   6.434   2.131   7.418  0.0296 -0.7547  0.1867
 1018MOL0     O34268   6.427   2.218   7.300  0.7011  0.3765  0.4396
 1018MOL0     C34269   6.384   2.151   7.185 -0.3163  0.7479 -0.3115
 1018MOL0     C34270   6.354   2.012   7.184 -0.4796  0.3496  0.6518
 1018MOL0     C34271   6.321   1.943   7.063  0.3837 -0.3839 -0.5285
 1018MOL0     C34272   6.300   2.017   6.946  0.2051  0.8647  0.1249
 1018MOL0     C34273   6.258   1.945   6.815  0.7272  0.9647 -0.6959
 1018MOL0     O34274   6.249   1.803   6.814  0.1909 -0.6749  0.0577
 1018MOL0     C34275   6.239   1.733   6.694 -0.0315 -0.6108 -0.0407
 1018MOL0     C34276   6.239   1.788   6.559 -0.4323 -0.1519 -0.1478
 1018MOL0     C34277   6.203   1.700   6.451  0.0025 -0.7742  0.2669
 1018MOL0     C34278   6.162   1.571   6.474  0.4675  0.4074  0.4421
 1018MOL0     O34279   6.117   1.491   6.370  1.1821  0.0388  0.3095
 1018MOL0     C34280   6.132   1.343   6.377 -0.0484 -0.5841 -0.1009
 1018MOL0     C34281   6.011   1.266   6.427 -1.0480 -0.4376  0.3344
 1018MOL0     C34282   5.999   1.140   6.348  0.1862  0.1599  0.2459
 1018MOL0     C34283   5.898   1.050   6.422 -0.1910  0.8941  0.2161
 1018MOL0     C34284   5.860   0.931   6.338  0.5927  0.0266 -0.3934
 1018MOL0     C34285   5.752   0.841   6.405  0.9631  0.2752 -0.0925
 1018MOL0     C34286   5.795   0.725   6.500  0.4669  0.5450  0.5522
 1018MOL0     C34287   5.777   0.592   6.432 -0.1580 -0.2947 -0.6679
 1018MOL0    Cl34288   5.921   0.538   6.335  0.4422 -0.2123  0.2122
 1018MOL0     C34289   6.166   1.520   6.607  0.5104 -0.2426  0.2835
 1018MOL0     C34290   6.197   1.602   6.712 -0.5733  0.0293  0.4077
 1018MOL0     O34291   6.235   2.013   6.721  0.0609 -0.1616 -0.8808
 1018MOL0     C34292   6.329   2.151   6.940  0.7916  0.0162 -0.1629
 1018MOL0     C34293   6.375   2.217   7.060  1.3786 -1.1571  1.0057
 1018MOL0     N34294   6.461   1.806   7.538  0.0096  0.8271 -0.4958
 1018MOL0     N34295   6.515   1.726   7.455 -0.6896  0.1271  0.5297
 1018MOL0     C34296   6.615   2.553   6.850 -0.7429 -0.4719  0.5424
 1018MOL0     C34297   6.625   2.696   6.817  0.9698  0.2137  0.2169
 1018MOL0     C34298   6.832   3.100   6.764  0.1247  0.9096  0.4050
 1018MOL0     C34299   6.947   3.130   6.687 -0.2183 -0.0098  0.9191
 1018MOL0     C34300   6.979   3.262   6.668 -0.1073  0.5059 -0.3708
 1018MOL0     C34301   6.900   3.366   6.731 -0.6447 -0.1086  0.5419
 1018MOL0     O34302   6.927   3.506   6.716  0.5392  0.8021 -0.2244
 1018MOL0     C34303   7.013   3.567   6.625 -0.4973 -0.1792  0.2325
 1018MOL0     C34304   6.959   3.692   6.551  0.4218  0.1832  0.0136
 1018MOL0     C34305   6.981   3.818   6.637 -0.1737 -0.2903  0.3962
 1018MOL0     C34306   6.862   3.898   6.679  0.3578 -0.1148  0.4285
 1018MOL0     C34307   6.787   3.941   6.563  0.5396 -0.7549 -0.4308
 1018MOL0     C34308   6.734   3.959   6.455 -0.0492 -0.1228  0.9755
 1018MOL0     C34309   6.796   3.330   6.814 -0.1155  0.3764 -1.3088
 1018MOL0     C34310   6.757   3.195   6.822  0.4493  0.4817 -0.2037
 1018MOL0     H34311   6.780   2.814   7.084 -0.0683 -0.9128  2.1928
 1018MOL0     H34312   6.731   2.582   7.165  0.6661  1.4856  0.8792
 1018MOL0     H34313   6.766   2.262   7.154  2.9612 -0.2816  1.4972
 1018MOL0     H34314   6.854   2.397   7.085 -1.4025  1.4788 -0.1177
 1018MOL0     H34315   6.951   2.185   7.001 -0.1774 -0.8556  3.2006
 1018MOL0     H34316   6.893   2.280   6.861  0.5000 -2.3693 -0.4280
 1018MOL0     H34317   6.832   2.056   6.833  0.7051 -0.0184 -0.6253
 1018MOL0     H34318   6.705   2.167   6.820 -0.3327  0.5003  0.7964
 1018MOL0     H34319   6.622   2.091   7.049  1.5484  1.4482  1.5848
 1018MOL0     H34320   6.636   1.959   6.946  2.3708 -1.1179 -1.2000
 1018MOL0     H34321   6.868   2.038   7.137  0.0831  1.1202 -1.5642
 1018MOL0     H34322   6.873   1.900   7.028  0.3573 -0.4749  0.8485
 1018MOL0     H34323   6.656   1.824   7.135  1.2741  0.4460 -1.0323
 1018MOL0     H34324   6.680   1.949   7.260  0.6503  1.6299 -0.2936
 1018MOL0     H34325   6.900   1.738   7.210  2.6521  1.0742  1.8875
 1018MOL0     H34326   6.884   1.856   7.339 -0.1296  2.7331 -0.6854
 1018MOL0     H34327   6.833   1.650   7.425  0.9243  0.0419 -1.8504
 1018MOL0     H34328   6.702   1.621   7.301  0.8524 -2.5067  0.5827
 1018MOL0     H34329   6.776   1.875   7.588  0.5635  1.5893 -0.5117
 1018MOL0     H34330   6.591   1.967   7.792 -2.9712  0.0133  1.9864
 1018MOL0     H34331   6.432   1.994   7.733  0.2596 -1.0389  0.8409
 1018MOL0     H34332   6.668   2.118   7.599 -2.7317 -2.3903 -5.6731
 1018MOL0     H34333   6.581   2.195   7.733  1.4080  1.2320 -0.9799
 1018MOL0     H34334   6.395   2.248   7.584 -0.1268 -2.5367 -0.4098
 1018MOL0     H34335   6.557   2.292   7.521 -1.2524  0.1730 -0.9468
 1018MOL0     H34336   6.338   2.085   7.442 -0.6039  0.3818 -0.1307
 1018MOL0     H34337   6.507   2.051   7.400 -0.2983 -0.6277 -1.9295
 1018MOL0     H34338   6.343   1.947   7.270 -0.5180 -0.2411  0.2120
 1018MOL0     H34339   6.307   1.835   7.064  5.0889 -1.1860  0.2802
 1018MOL0     H34340   6.254   1.892   6.533  0.6092  0.2691  1.9494
 1018MOL0     H34341   6.192   1.734   6.348 -1.2935  0.3628  0.7595
 1018MOL0     H34342   6.227   1.331   6.430  1.5852  0.2363 -2.6552
 1018MOL0     H34343   6.159   1.307   6.277  3.0511 -2.6777  1.3286
 1018MOL0     H34344   5.926   1.327   6.395  0.1309  0.9653 -0.2405
 1018MOL0     H34345   6.014   1.250   6.535 -1.8757 -2.7705  0.0561
 1018MOL0     H34346   6.086   1.074   6.342 -0.9734 -1.3416 -0.9763
 1018MOL0     H34347   5.957   1.164   6.250 -1.8680 -1.3623  0.6923
 1018MOL0     H34348   5.943   1.017   6.516  3.0043  1.3856 -1.0339
 1018MOL0     H34349   5.809   1.112   6.433  1.4957  4.1428 -2.6449
 1018MOL0     H34350   5.946   0.865   6.325 -2.2022 -4.6484  1.9707
 1018MOL0     H34351   5.824   0.959   6.238 -0.4983 -1.2830 -0.3952
 1018MOL0     H34352   5.693   0.796   6.325 -0.8978 -1.1031  1.9340
 1018MOL0     H34353   5.689   0.911   6.461 -1.0170 -2.2869  1.0881
 1018MOL0     H34354   5.900   0.738   6.526  0.8302 -2.1185  0.6956
 1018MOL0     H34355   5.727   0.728   6.586 -0.0470  1.6189  0.1318
 1018MOL0     H34356   5.688   0.597   6.368 -0.5207  1.8458 -0.0834
 1018MOL0     H34357   5.760   0.515   6.507 -2.0717  0.9539  0.2584
 1018MOL0     H34358   6.126   1.423   6.634 -0.3228  0.8787  3.4982
 1018MOL0     H34359   6.201   1.557   6.811  1.9285 -0.4455  0.1408
 1018MOL0     H34360   6.310   2.206   6.848  0.8772 -0.2903 -0.3653
 1018MOL0     H34361   6.398   2.323   7.050 -0.3586 -0.8030  0.4021
 1018MOL0     H34362   6.563   2.485   6.783 -2.4278  1.9392 -0.7448
 1018MOL0     H34363   6.584   2.727   6.722  1.5518 -2.4033 -0.9920
 1018MOL0     H34364   6.996   3.049   6.634  2.4907  2.6468 -0.9204
 1018MOL0     H34365   7.059   3.300   6.606 -0.2464  0.7040 -0.4304
 1018MOL0     H34366   7.038   3.498   6.545 -1.2843  0.2279 -0.3777
 1018MOL0     H34367   7.106   3.595   6.676  0.2002 -3.0743  0.7418
 1018MOL0     H34368   7.011   3.703   6.455  0.0694 -2.0966 -0.5046
 1018MOL0     H34369   6.856   3.665   6.524  1.7297 -3.1191 -2.2672
 1018MOL0     H34370   7.042   3.884   6.574 -0.1810 -2.1769 -1.7250
 1018MOL0     H34371   7.033   3.796   6.731  0.8803  0.9213  0.1311
 1018MOL0     H34372   6.789   3.845   6.741 -2.0574 -1.0531 -2.9701
 1018MOL0     H34373   6.897   3.983   6.738  3.2012 -0.0357 -1.1618
 1018MOL0     H34374   6.698   3.961   6.354  1.0309  0.1062  0.5785
 1018MOL0     H34375   6.741   3.404   6.872  0.3781 -0.0379 -0.2991
 1018MOL0     H34376   6.666   3.156   6.866  2.0593 -1.9422  1.1629
 1019MOL0     O34377   1.818   8.400   0.225 -0.1112 -0.1345 -0.2060
 1019MOL0     C34378   1.900   8.443   0.140 -0.4590 -0.1336  0.6136
 1019MOL0     O34379   1.868   8.512   0.022 -0.2489  0.4190 -0.0587
 1019MOL0     C34380   1.733   8.535  -0.013 -0.5115  0.0433  0.1947
 1019MOL0     C34381   1.690   8.516  -0.140  0.3897 -0.4937  0.1646
 1019MOL0     C34382   1.559   8.552  -0.185 -1.0023  0.1609  1.2004
 1019MOL0     C34383   1.470   8.604  -0.093  0.5702  0.1084  0.2306
 1019MOL0     O34384   1.350   8.658  -0.148 -0.0762  0.7254 -0.1781
 1019MOL0     C34385   1.228   8.657  -0.072 -0.5279  0.2115 -0.6102
 1019MOL0     C34386   1.109   8.725  -0.138  0.0638  0.2849  0.9449
 1019MOL0     C34387   0.973   8.709  -0.053 -0.2165 -0.1003  0.1954
 1019MOL0     C34388   0.902   8.578  -0.086 -0.1282 -0.1251 -0.5025
 1019MOL0     C34389   0.822   8.525   0.034  0.3471  0.1592  1.2885
 1019MOL0     C34390   0.740   8.398  -0.003  0.1423  0.4731  0.0814
 1019MOL0     C34391   0.650   8.364   0.125  0.3044  0.4644 -0.7763
 1019MOL0     C34392   0.561   8.229   0.106 -0.0559 -1.1315 -0.2104
 1019MOL0     N34393   0.417   8.264   0.099 -0.6307 -0.0327  0.2321
 1019MOL0     C34394   0.347   8.255  -0.019 -0.2066  0.2712  0.0981
 1019MOL0     C34395   0.227   8.312   0.005 -0.4356  0.1841 -0.1628
 1019MOL0     C34396   0.144   8.368  -0.115  0.6271 -0.3501 -0.0304
 1019MOL0     C34397   0.061   8.247  -0.168  0.3443 -0.7676  0.3104
 1019MOL0     C34398  -0.059   8.302  -0.244 -0.5770 -1.6531  0.8773
 1019MOL0     C34399  -0.113   8.190  -0.341  0.5110  0.5603 -0.2425
 1019MOL0     O34400  -0.174   8.077  -0.285  0.3643 -0.4158  0.0093
 1019MOL0     C34401  -0.203   7.976  -0.374 -0.5120  1.3322 -0.2721
 1019MOL0     C34402  -0.200   7.962  -0.514 -0.7713 -0.4911 -0.5414
 1019MOL0     C34403  -0.229   7.842  -0.573  0.7062  0.2496  0.2718
 1019MOL0     C34404  -0.261   7.734  -0.497 -1.3247 -0.5100  0.7869
 1019MOL0     C34405  -0.283   7.605  -0.569  0.6994 -0.8375 -0.0871
 1019MOL0     O34406  -0.198   7.576  -0.679  0.0367 -0.4139  0.1117
 1019MOL0     C34407  -0.198   7.450  -0.737 -0.7607  0.1988  0.9810
 1019MOL0     C34408  -0.077   7.405  -0.789 -0.5605 -0.1022  0.3205
 1019MOL0     C34409  -0.061   7.277  -0.841  0.8243  0.3319  0.5301
 1019MOL0     C34410  -0.174   7.191  -0.841 -0.5911  0.2701 -0.2603
 1019MOL0     O34411  -0.143   7.064  -0.881 -0.0456  1.0775 -0.8223
 1019MOL0     C34412  -0.240   6.968  -0.927  0.7940 -0.2787  0.1970
 1019MOL0     C34413  -0.192   6.835  -0.973 -0.5370  0.4804 -0.0669
 1019MOL0     C34414  -0.149   6.835  -1.127  0.1241 -0.3637  0.1037
 1019MOL0     C34415  -0.068   6.704  -1.150 -0.7908  0.2919 -0.1361
 1019MOL0     C34416  -0.056   6.691  -1.311 -0.9944  0.1014 -0.3712
 1019MOL0     C34417   0.090   6.709  -1.366  0.6082 -0.8474 -0.4669
 1019MOL0     C34418   0.107   6.676  -1.519  0.6932 -0.6064  0.3487
 1019MOL0     C34419   0.069   6.529  -1.565 -0.5178 -1.0437  0.0694
 1019MOL0    Cl34420   0.025   6.545  -1.736  0.4704  0.0194 -0.4089
 1019MOL0     C34421  -0.294   7.237  -0.796 -0.9869  0.5248 -0.8209
 1019MOL0     C34422  -0.309   7.369  -0.744 -1.1798  0.2741 -0.2017
 1019MOL0     O34423  -0.365   7.522  -0.517 -0.0219  0.0712  0.7344
 1019MOL0     C34424  -0.277   7.745  -0.360  0.1044  0.0449 -0.9718
 1019MOL0     C34425  -0.243   7.862  -0.300  0.3232 -0.4208 -0.3706
 1019MOL0     N34426   0.218   8.341   0.138  0.3312  0.6924  0.7329
 1019MOL0     N34427   0.332   8.309   0.199  0.9815  0.5091 -0.1484
 1019MOL0     C34428   1.512   8.624   0.042  0.8798  0.1693 -0.2985
 1019MOL0     C34429   1.641   8.587   0.080  0.0335 -1.3336 -0.6785
 1019MOL0     C34430   2.042   8.418   0.175 -0.6599 -0.2512  0.1592
 1019MOL0     C34431   2.149   8.475   0.100  0.4373  0.0404 -0.2164
 1019MOL0     C34432   2.279   8.435   0.121  0.1158  0.0653 -0.2087
 1019MOL0     C34433   2.315   8.365   0.234  0.6808  0.7048 -0.5939
 1019MOL0     O34434   2.444   8.318   0.264 -0.0279 -0.0562 -0.9596
 1019MOL0     C34435   2.542   8.300   0.163 -0.0859 -0.0112  0.4348
 1019MOL0     C34436   2.537   8.169   0.087  0.7464 -1.0218  0.0597
 1019MOL0     C34437   2.668   8.161   0.005  1.2713  0.8502  0.0720
 1019MOL0     C34438   2.708   8.031  -0.069  0.4309  0.4480  0.5801
 1019MOL0     C34439   2.775   7.929   0.011  0.8729 -0.1483  0.0898
 1019MOL0     C34440   2.815   7.841   0.079 -0.4113 -0.0943  1.1423
 1019MOL0     C34441   2.214   8.315   0.313 -0.0897 -0.4480 -0.0064
 1019MOL0     C34442   2.077   8.345   0.288 -0.4893  0.0031 -0.0580
 1019MOL0     H34443   1.768   8.479  -0.206  0.3857  1.7071 -1.1985
 1019MOL0     H34444   1.535   8.545  -0.290  4.1155  0.0646 -0.2478
 1019MOL0     H34445   1.236   8.708   0.025 -0.0305 -0.2599 -0.3983
 1019MOL0     H34446   1.196   8.553  -0.059  1.3658 -0.4758 -1.0622
 1019MOL0     H34447   1.099   8.696  -0.243  0.5011  0.5488  0.8236
 1019MOL0     H34448   1.136   8.830  -0.122  0.1266  0.1278  1.9734
 1019MOL0     H34449   0.914   8.799  -0.074 -1.9721 -1.4670 -1.0479
 1019MOL0     H34450   1.003   8.710   0.052  2.8782  0.6180 -0.5974
 1019MOL0     H34451   0.829   8.605  -0.163 -1.2599 -1.9061 -0.1228
 1019MOL0     H34452   0.972   8.497  -0.110 -0.2112 -0.3710  0.0662
 1019MOL0     H34453   0.757   8.602   0.076  1.3508  0.8714  1.5709
 1019MOL0     H34454   0.893   8.498   0.112  3.4710  2.7334 -0.4010
 1019MOL0     H34455   0.801   8.314  -0.036 -0.8205  0.4713 -1.8122
 1019MOL0     H34456   0.669   8.413  -0.084 -0.5314 -0.0222  0.5693
 1019MOL0     H34457   0.720   8.350   0.208 -2.0789 -1.4101  1.0790
 1019MOL0     H34458   0.586   8.445   0.162 -0.2055  1.4616 -3.6103
 1019MOL0     H34459   0.582   8.172   0.197 -1.1770  2.2001  2.3720
 1019MOL0     H34460   0.596   8.167   0.024  2.6482  1.8568 -1.5331
 1019MOL0     H34461   0.386   8.234  -0.119 -2.0653  2.0683 -1.0976
 1019MOL0     H34462   0.200   8.408  -0.200 -0.3534  1.5704  0.1674
 1019MOL0     H34463   0.098   8.461  -0.079 -1.5697 -1.7365  0.9791
 1019MOL0     H34464   0.029   8.176  -0.091 -1.9283  0.3582  0.4905
 1019MOL0     H34465   0.130   8.180  -0.220  0.0856 -1.6027  1.0145
 1019MOL0     H34466  -0.139   8.346  -0.185  0.0068 -1.1350  1.2859
 1019MOL0     H34467  -0.020   8.382  -0.307 -0.7623 -3.0607 -1.1621
 1019MOL0     H34468  -0.041   8.159  -0.418 -0.5194 -0.0045 -0.9988
 1019MOL0     H34469  -0.201   8.226  -0.395 -1.2720  1.5600  3.0886
 1019MOL0     H34470  -0.178   8.047  -0.579  1.5537  0.2281  1.0304
 1019MOL0     H34471  -0.226   7.831  -0.681 -0.6458  0.2854  0.2200
 1019MOL0     H34472   0.010   7.468  -0.775 -2.0374  2.2772 -0.6846
 1019MOL0     H34473   0.034   7.248  -0.886 -0.6546 -1.9844 -1.3020
 1019MOL0     H34474  -0.296   7.007  -1.013 -0.0614 -1.8064  0.0100
 1019MOL0     H34475  -0.310   6.968  -0.842  0.0260  4.6387 -0.1435
 1019MOL0     H34476  -0.276   6.766  -0.960 -0.8113 -0.2427 -4.3572
 1019MOL0     H34477  -0.112   6.804  -0.904 -1.7476  0.6101  1.4590
 1019MOL0     H34478  -0.086   6.922  -1.149  2.1380 -0.2380  4.8983
 1019MOL0     H34479  -0.240   6.839  -1.187  0.0369  0.8441  0.2908
 1019MOL0     H34480   0.031   6.704  -1.103 -1.2649 -1.6757  0.9481
 1019MOL0     H34481  -0.118   6.610  -1.123 -1.2053  0.2524 -1.0136
 1019MOL0     H34482  -0.115   6.769  -1.361  0.5075  0.0643 -2.3532
 1019MOL0     H34483  -0.100   6.596  -1.341 -3.1346  0.9886 -0.1896
 1019MOL0     H34484   0.160   6.644  -1.312 -0.4021  0.4022  2.5957
 1019MOL0     H34485   0.117   6.813  -1.349 -1.9280  0.2615 -2.6653
 1019MOL0     H34486   0.063   6.755  -1.581  0.9829 -0.1164  0.7545
 1019MOL0     H34487   0.215   6.678  -1.538  0.5314 -1.8641 -0.8718
 1019MOL0     H34488  -0.024   6.506  -1.512  0.3315 -0.5274  1.8384
 1019MOL0     H34489   0.150   6.460  -1.539  4.2742  1.9392 -4.8394
 1019MOL0     H34490  -0.372   7.161  -0.798 -0.2530 -0.5058  2.8250
 1019MOL0     H34491  -0.410   7.403  -0.722 -1.0616 -0.0207  0.8529
 1019MOL0     H34492  -0.308   7.660  -0.300  1.3072 -0.4562 -1.0396
 1019MOL0     H34493  -0.257   7.873  -0.193 -0.5759 -1.0533 -0.4079
 1019MOL0     H34494   1.438   8.647   0.118  0.2750  2.0863 -1.3773
 1019MOL0     H34495   1.672   8.605   0.182  4.0422 -1.7326 -1.6799
 1019MOL0     H34496   2.123   8.531   0.011 -1.9289 -0.3528  0.1574
 1019MOL0     H34497   2.345   8.481   0.047  0.8070  2.2258  1.6396
 1019MOL0     H34498   2.640   8.297   0.212  1.1530  0.4833 -1.9067
 1019MOL0     H34499   2.537   8.383   0.092 -0.7770 -0.4741 -0.0683
 1019MOL0     H34500   2.531   8.088   0.160 -3.5216 -0.6942  0.3333
 1019MOL0     H34501   2.463   8.180   0.007  4.7023 -0.3660 -3.8877
 1019MOL0     H34502   2.753   8.171   0.074  0.4100 -1.0654  1.5153
 1019MOL0     H34503   2.665   8.242  -0.068  0.3046  0.1766 -0.6718
 1019MOL0     H34504   2.608   7.997  -0.098  0.5912  2.7343 -3.3670
 1019MOL0     H34505   2.771   8.050  -0.156  2.0204 -2.2934  1.0492
 1019MOL0     H34506   2.855   7.751   0.122 -1.5331 -1.0283  0.3328
 1019MOL0     H34507   2.226   8.256   0.404 -5.1330 -1.1490  0.4721
 1019MOL0     H34508   2.000   8.308   0.354  1.5780  0.0033  2.5352
 1020MOL0     O34509  11.255   2.078   1.264  0.7843 -0.4674 -0.8418
 1020MOL0     C34510  11.135   2.109   1.283 -0.2391  0.8239  0.0055
 1020MOL0     O34511  11.043   2.145   1.188  0.6538  0.3332  0.8400
 1020MOL0     C34512  11.094   2.209   1.080 -0.3717 -1.1327  0.0917
 1020MOL0     C34513  11.183   2.162   0.986  0.0453 -1.1483 -0.5620
 1020MOL0     C34514  11.228   2.254   0.879  0.2758  0.7838 -1.2849
 1020MOL0     C34515  11.182   2.382   0.878 -0.0910 -0.1240  0.0494
 1020MOL0     O34516  11.215   2.486   0.792 -0.1143 -0.0722 -0.3003
 1020MOL0     C34517  11.212   2.446   0.651  0.0548 -0.5641 -0.2812
 1020MOL0     C34518  11.217   2.571   0.556 -0.6949 -0.7343  0.2048
 1020MOL0     C34519  11.351   2.651   0.571 -0.5608 -0.0882 -0.2793
 1020MOL0     C34520  11.340   2.785   0.510 -0.3663  0.1041 -0.4414
 1020MOL0     C34521  11.468   2.869   0.534 -0.3339  0.2540 -0.1079
 1020MOL0     C34522  11.439   3.019   0.567 -0.3238  0.1589 -0.3689
 1020MOL0     C34523  11.565   3.108   0.577 -0.0764  1.0359  0.5076
 1020MOL0     C34524  11.632   3.127   0.438 -0.3722  0.4700  0.6173
 1020MOL0     N34525  11.707   3.257   0.427 -0.1954 -0.9467 -0.3582
 1020MOL0     C34526  11.653   3.379   0.447 -0.2375 -0.3244 -1.2449
 1020MOL0     C34527  11.762   3.464   0.440 -0.4861  0.4517 -0.1583
 1020MOL0     C34528  11.757   3.607   0.463 -0.1869 -0.9623 -0.0710
 1020MOL0     C34529  11.764   3.655   0.610 -0.1236 -0.4932 -1.3084
 1020MOL0     C34530  11.639   3.639   0.684  0.4008 -0.0604 -0.1937
 1020MOL0     C34531  11.646   3.707   0.822 -0.6493 -0.5486  0.2624
 1020MOL0     O34532  11.669   3.850   0.837 -0.3444 -0.1514  0.3448
 1020MOL0     C34533  11.608   3.948   0.758  0.4322  0.4430  0.4108
 1020MOL0     C34534  11.472   3.941   0.714  0.8231 -0.3050 -0.8575
 1020MOL0     C34535  11.420   4.036   0.627 -0.3834  0.4642  0.6502
 1020MOL0     C34536  11.492   4.150   0.587  0.4266  0.2991  0.0164
 1020MOL0     C34537  11.434   4.256   0.504  1.0732 -0.2529  0.2216
 1020MOL0     O34538  11.297   4.244   0.491  0.4421 -0.6115  1.1346
 1020MOL0     C34539  11.230   4.349   0.427  0.6810 -0.0477  0.3738
 1020MOL0     C34540  11.239   4.478   0.466  0.4713 -0.4543  0.0506
 1020MOL0     C34541  11.176   4.582   0.388 -0.8195  0.6602  0.4748
 1020MOL0     C34542  11.099   4.550   0.275 -0.8105 -0.0582  0.3663
 1020MOL0     O34543  11.026   4.643   0.197  0.3176  0.3858 -0.5718
 1020MOL0     C34544  10.890   4.645   0.229  0.5421 -0.0749 -0.8863
 1020MOL0     C34545  10.838   4.790   0.251 -0.2530  0.1732  0.1643
 1020MOL0     C34546  10.907   4.862   0.374 -0.0577  0.4386  1.0616
 1020MOL0     C34547  10.857   5.008   0.391 -0.3717 -0.5480  0.5726
 1020MOL0     C34548  10.949   5.087   0.479 -0.4269  0.0930 -0.0052
 1020MOL0     C34549  10.927   5.237   0.470 -0.2602  0.1716 -0.0829
 1020MOL0     C34550  11.042   5.308   0.540 -0.1408 -0.6239  0.0272
 1020MOL0     C34551  11.018   5.464   0.530  0.6611  0.0548 -0.2085
 1020MOL0    Cl34552  11.076   5.537   0.380 -0.2297  0.4050 -0.0969
 1020MOL0     C34553  11.093   4.416   0.240 -0.2312  0.3172 -1.0307
 1020MOL0     C34554  11.154   4.316   0.312 -0.2834 -1.0296  0.1367
 1020MOL0     O34555  11.496   4.356   0.463  0.0186 -0.0631 -0.6605
 1020MOL0     C34556  11.633   4.160   0.628 -0.3718  0.5571  0.0380
 1020MOL0     C34557  11.687   4.061   0.708 -0.0350  1.0230 -0.4928
 1020MOL0     N34558  11.873   3.396   0.408  0.3222 -0.1225 -0.7420
 1020MOL0     N34559  11.839   3.269   0.401  0.0511 -0.0343 -0.0565
 1020MOL0     C34560  11.091   2.429   0.984  0.4206  0.0247  0.4819
 1020MOL0     C34561  11.052   2.340   1.078 -0.3016 -0.2797  0.4273
 1020MOL0     C34562  11.078   2.067   1.417 -0.7342  0.1718 -0.4323
 1020MOL0     C34563  11.157   2.013   1.515  0.5965 -0.7594  0.2330
 1020MOL0     C34564  11.106   1.994   1.643 -0.8623 -0.6916 -0.0579
 1020MOL0     C34565  10.975   2.030   1.675 -0.0502  0.1362 -0.2988
 1020MOL0     O34566  10.915   2.025   1.798 -0.2315  0.0220  0.1172
 1020MOL0     C34567  10.971   1.948   1.897  0.0186  0.4798 -0.0087
 1020MOL0     C34568  10.879   1.978   2.024 -1.0697  0.6370  0.3580
 1020MOL0     C34569  10.725   1.949   1.998 -0.5212 -0.5358 -0.0002
 1020MOL0     C34570  10.674   1.808   2.026  0.3665 -0.4536  0.4084
 1020MOL0     C34571  10.741   1.708   1.940  0.5773 -0.2630  0.1181
 1020MOL0     C34572  10.802   1.630   1.867  0.1008  0.3477 -0.2882
 1020MOL0     C34573  10.898   2.090   1.572  0.2162 -0.0109 -0.2312
 1020MOL0     C34574  10.947   2.109   1.445 -0.1614 -0.5874 -0.6318
 1020MOL0     H34575  11.209   2.057   0.989 -0.3066 -1.2116  0.5132
 1020MOL0     H34576  11.308   2.224   0.811  2.0107  2.0172  0.1092
 1020MOL0     H34577  11.123   2.387   0.629 -0.3991 -2.6173  5.4072
 1020MOL0     H34578  11.302   2.385   0.638 -0.8238 -1.4866 -2.5229
 1020MOL0     H34579  11.133   2.633   0.587  1.9889  3.3189  0.1145
 1020MOL0     H34580  11.205   2.538   0.452  0.3234 -1.1568  0.2128
 1020MOL0     H34581  11.438   2.598   0.532 -2.2696 -2.7006 -0.7698
 1020MOL0     H34582  11.362   2.655   0.680 -0.0127  0.9404 -0.3534
 1020MOL0     H34583  11.323   2.773   0.403 -1.0028  0.3021 -0.3676
 1020MOL0     H34584  11.258   2.842   0.555  2.0219  2.1068  1.6793
 1020MOL0     H34585  11.532   2.862   0.446 -1.5112  1.3547 -1.0912
 1020MOL0     H34586  11.517   2.845   0.629  0.2815 -1.3299 -0.7920
 1020MOL0     H34587  11.389   3.019   0.664  3.3991 -0.0295  1.7427
 1020MOL0     H34588  11.377   3.058   0.485  2.1023  0.5443 -2.1542
 1020MOL0     H34589  11.525   3.201   0.618 -1.4131 -0.3243  2.4571
 1020MOL0     H34590  11.641   3.061   0.640 -2.4597 -0.6782  2.2958
 1020MOL0     H34591  11.550   3.125   0.366  0.8044 -0.1299 -0.7766
 1020MOL0     H34592  11.695   3.039   0.416 -3.0423 -0.7238 -3.3426
 1020MOL0     H34593  11.547   3.395   0.466 -0.3415 -0.7563 -1.4522
 1020MOL0     H34594  11.678   3.659   0.408  0.0061  0.3753  0.8675
 1020MOL0     H34595  11.849   3.647   0.420 -1.8938  0.7717 -2.3319
 1020MOL0     H34596  11.794   3.760   0.601  1.3517 -0.7970 -0.1949
 1020MOL0     H34597  11.847   3.617   0.669 -0.7809 -1.3380 -0.8964
 1020MOL0     H34598  11.554   3.685   0.632 -0.8194 -0.9171  0.9897
 1020MOL0     H34599  11.614   3.533   0.681  0.7529 -0.1318 -0.7795
 1020MOL0     H34600  11.724   3.663   0.884  0.9835 -0.1920 -1.4476
 1020MOL0     H34601  11.553   3.681   0.875  0.3566 -4.3957  0.4471
 1020MOL0     H34602  11.410   3.868   0.764  1.1856 -0.4663 -0.6362
 1020MOL0     H34603  11.317   4.035   0.592  0.7544  1.3660 -3.1094
 1020MOL0     H34604  11.312   4.491   0.546  2.1196  1.4785 -1.6612
 1020MOL0     H34605  11.185   4.690   0.403  0.9198  0.8727 -1.5293
 1020MOL0     H34606  10.871   4.589   0.321  1.5891  1.5456  0.3923
 1020MOL0     H34607  10.827   4.597   0.154  0.5544  0.7233 -1.4255
 1020MOL0     H34608  10.730   4.799   0.265 -0.9831 -1.9260 -3.0806
 1020MOL0     H34609  10.876   4.846   0.165  1.4802 -0.8043  0.2622
 1020MOL0     H34610  11.014   4.876   0.355 -0.3094 -0.6314 -1.5317
 1020MOL0     H34611  10.880   4.805   0.463  1.9497 -0.6387  1.0307
 1020MOL0     H34612  10.850   5.051   0.291 -2.1326 -1.2464  0.3452
 1020MOL0     H34613  10.755   4.995   0.429 -0.7964  0.8648 -0.0281
 1020MOL0     H34614  11.053   5.064   0.453 -0.2562  1.1323 -0.3053
 1020MOL0     H34615  10.949   5.048   0.581 -2.6556 -0.4089 -0.1429
 1020MOL0     H34616  10.837   5.266   0.524 -0.5627  1.2254 -1.1046
 1020MOL0     H34617  10.922   5.269   0.365  1.7687 -0.0248 -0.2735
 1020MOL0     H34618  11.024   5.286   0.645  1.7187  0.5122  0.6226
 1020MOL0     H34619  11.145   5.281   0.517  1.1638  4.2201 -1.0859
 1020MOL0     H34620  11.081   5.507   0.608  1.2841 -4.3938  2.0721
 1020MOL0     H34621  10.914   5.492   0.548  0.5332  1.1296 -2.2621
 1020MOL0     H34622  11.024   4.374   0.167 -1.3342  0.0952  0.1011
 1020MOL0     H34623  11.141   4.213   0.279 -1.3888 -1.6774  2.3342
 1020MOL0     H34624  11.690   4.252   0.620 -1.3820  1.1867 -0.1526
 1020MOL0     H34625  11.791   4.071   0.737 -0.3410 -2.0449  2.2214
 1020MOL0     H34626  11.084   2.538   0.985  3.0959  0.2897  2.3731
 1020MOL0     H34627  10.986   2.375   1.157 -1.0493  0.5945 -0.5429
 1020MOL0     H34628  11.253   1.967   1.496  0.7685 -0.0622 -0.6226
 1020MOL0     H34629  11.173   1.957   1.720  0.1559 -0.7476 -0.9521
 1020MOL0     H34630  11.071   1.984   1.921  0.4297 -0.1687 -0.7012
 1020MOL0     H34631  10.973   1.846   1.858 -1.6600  0.5291 -0.2945
 1020MOL0     H34632  10.905   1.917   2.111 -0.0529  0.2376 -0.2128
 1020MOL0     H34633  10.899   2.084   2.044 -1.9051  0.9771 -0.5256
 1020MOL0     H34634  10.714   1.969   1.891 -1.7521 -0.7523  0.0731
 1020MOL0     H34635  10.662   2.028   2.041 -1.3708 -2.0090  1.5781
 1020MOL0     H34636  10.693   1.789   2.132 -2.4223  0.7809  1.2269
 1020MOL0     H34637  10.568   1.802   1.999  1.2301 -1.2253 -3.4821
 1020MOL0     H34638  10.852   1.548   1.822 -0.2660  1.0438 -2.0355
 1020MOL0     H34639  10.792   2.113   1.583 -0.3651 -2.2117 -0.7019
 1020MOL0     H34640  10.884   2.142   1.362  1.7845 -2.1586 -2.8770
 1021MOL0     O34641   9.831   0.514   6.497 -0.6912 -0.3321  0.6432
 1021MOL0     C34642   9.941   0.552   6.533 -0.3282  0.0998 -0.0167
 1021MOL0     O34643  10.008   0.658   6.487 -0.3053  0.6336 -0.0992
 1021MOL0     C34644   9.991   0.701   6.362 -0.8643 -0.1490  0.2845
 1021MOL0     C34645   9.975   0.617   6.256 -0.0996 -0.1555  0.7544
 1021MOL0     C34646   9.969   0.666   6.121  0.6464 -0.7173  0.3248
 1021MOL0     C34647   9.992   0.803   6.099  0.5470  0.0903 -0.0920
 1021MOL0     O34648   9.996   0.862   5.972 -0.6157 -0.1580 -0.5701
 1021MOL0     C34649  10.040   0.783   5.861 -0.7260  0.5532  0.1195
 1021MOL0     C34650  10.079   0.866   5.745  0.4248  1.2184  0.5886
 1021MOL0     C34651   9.966   0.952   5.692  0.3026 -0.5246  0.2825
 1021MOL0     C34652  10.002   0.988   5.548 -0.3213 -0.3700 -0.7504
 1021MOL0     C34653   9.888   1.084   5.495  0.5727  0.2042  0.7026
 1021MOL0     C34654   9.904   1.232   5.541  0.1745 -0.1120 -0.2513
 1021MOL0     C34655   9.838   1.331   5.449 -0.4510  0.0206 -0.1748
 1021MOL0     C34656   9.874   1.474   5.494 -0.0737  0.0999 -0.4307
 1021MOL0     N34657   9.830   1.559   5.387  0.7447 -0.4206  0.1225
 1021MOL0     C34658   9.902   1.627   5.299 -0.3692  0.6722 -0.0475
 1021MOL0     C34659   9.817   1.688   5.212  0.0691  0.2019 -1.4313
 1021MOL0     C34660   9.846   1.792   5.113  0.5726  0.0764 -0.4528
 1021MOL0     C34661   9.739   1.801   5.005 -0.0635  0.7895  0.4907
 1021MOL0     C34662   9.608   1.871   5.043 -1.0214 -0.0302 -0.9157
 1021MOL0     C34663   9.634   2.016   5.069 -0.0369  0.3209  0.4507
 1021MOL0     O34664   9.584   2.043   5.202 -0.2396 -0.1917  0.2180
 1021MOL0     C34665   9.450   2.091   5.210 -0.4564 -0.4701  0.1213
 1021MOL0     C34666   9.351   2.073   5.107  0.3396  0.3114 -0.3471
 1021MOL0     C34667   9.221   2.107   5.145  0.1770  0.7656  0.2280
 1021MOL0     C34668   9.193   2.171   5.270 -0.3942  1.7005  0.2647
 1021MOL0     C34669   9.054   2.198   5.303  0.5178 -0.2861  0.5514
 1021MOL0     O34670   8.955   2.183   5.211 -0.3994  0.5529  0.2170
 1021MOL0     C34671   8.824   2.199   5.238  0.3902 -0.3644 -0.1839
 1021MOL0     C34672   8.755   2.317   5.280 -0.6262  0.1224  0.2472
 1021MOL0     C34673   8.620   2.336   5.284  0.7483 -0.4592 -0.1092
 1021MOL0     C34674   8.543   2.228   5.260 -1.5732 -0.4195 -0.9012
 1021MOL0     O34675   8.410   2.227   5.245  0.4606  0.0571 -0.5233
 1021MOL0     C34676   8.341   2.283   5.351  0.8990 -0.9031  0.2880
 1021MOL0     C34677   8.193   2.248   5.343  0.0023  0.8324  0.1618
 1021MOL0     C34678   8.161   2.099   5.368  0.4356  0.1313 -0.0658
 1021MOL0     C34679   8.014   2.054   5.371  0.7379  0.0995 -0.9333
 1021MOL0     C34680   7.961   2.033   5.234 -0.9492  0.6197  0.0972
 1021MOL0     C34681   7.818   1.983   5.255  1.1028  0.4917  0.9429
 1021MOL0     C34682   7.753   1.953   5.119  0.0395  0.0642  0.7293
 1021MOL0     C34683   7.605   1.918   5.128 -0.7272  0.5986  0.8932
 1021MOL0    Cl34684   7.561   1.896   4.955  0.0978  0.3291  0.3775
 1021MOL0     C34685   8.603   2.111   5.224 -1.3619  0.7125  0.5525
 1021MOL0     C34686   8.739   2.093   5.211 -0.2901 -0.5101  0.2290
 1021MOL0     O34687   9.034   2.246   5.411 -0.0831 -0.0339  0.8705
 1021MOL0     C34688   9.300   2.200   5.356  0.4386  0.0799  0.2241
 1021MOL0     C34689   9.436   2.158   5.330  0.2280  0.3067 -0.0221
 1021MOL0     N34690   9.689   1.656   5.257 -0.2046 -0.4537 -1.0045
 1021MOL0     N34691   9.701   1.581   5.359  0.4362 -0.5475  0.1928
 1021MOL0     C34692  10.002   0.890   6.207 -0.1680  0.6025  0.4295
 1021MOL0     C34693   9.994   0.840   6.340 -0.0288  0.1535 -1.2109
 1021MOL0     C34694   9.998   0.494   6.659 -0.3600 -0.1254  0.0612
 1021MOL0     C34695   9.935   0.383   6.717  0.3572 -0.5456 -0.3784
 1021MOL0     C34696   9.982   0.323   6.835 -0.7843 -0.6420 -0.3939
 1021MOL0     C34697  10.087   0.389   6.907  0.1696  0.3874 -0.4876
 1021MOL0     O34698  10.118   0.363   7.038 -0.2732 -0.0592  0.2032
 1021MOL0     C34699  10.033   0.277   7.122 -0.3532 -0.3757 -0.2033
 1021MOL0     C34700  10.100   0.254   7.255  0.4921 -0.5013  1.0311
 1021MOL0     C34701  10.032   0.258   7.388 -0.1813 -0.0009  0.5358
 1021MOL0     C34702  10.008   0.398   7.438  0.2884  0.0852  0.2514
 1021MOL0     C34703  10.127   0.457   7.484 -0.3310 -0.2127 -0.4676
 1021MOL0     C34704  10.233   0.506   7.526  0.1320 -0.6043  0.7203
 1021MOL0     C34705  10.146   0.495   6.850  0.1029  0.4819  0.7881
 1021MOL0     C34706  10.106   0.552   6.734  0.1639 -0.6220 -0.3205
 1021MOL0     H34707   9.963   0.509   6.267  1.4634 -0.2570  1.8306
 1021MOL0     H34708   9.957   0.593   6.041 -2.7801  1.4353 -1.3556
 1021MOL0     H34709   9.954   0.720   5.835 -0.7745  0.9945 -0.8474
 1021MOL0     H34710  10.115   0.706   5.883  0.0331  0.0411 -3.5822
 1021MOL0     H34711  10.114   0.798   5.667  1.7524 -0.1878  2.3126
 1021MOL0     H34712  10.159   0.934   5.777 -2.9011  6.0674 -0.3108
 1021MOL0     H34713   9.954   1.043   5.752  1.3377  0.3169 -0.7405
 1021MOL0     H34714   9.874   0.894   5.684  0.8328 -1.1746 -2.0340
 1021MOL0     H34715  10.102   1.030   5.539  0.6359 -2.2859  0.3527
 1021MOL0     H34716  10.007   0.895   5.491 -1.7415 -2.9222  2.8383
 1021MOL0     H34717   9.792   1.057   5.541 -0.2402 -2.9152 -2.3931
 1021MOL0     H34718   9.862   1.071   5.390 -1.6028  1.8114  0.9746
 1021MOL0     H34719  10.010   1.259   5.532 -0.3097  1.6306 -1.1323
 1021MOL0     H34720   9.863   1.237   5.643 -0.6620 -0.8360 -0.5412
 1021MOL0     H34721   9.869   1.310   5.347 -2.5543 -1.5010 -0.5724
 1021MOL0     H34722   9.730   1.311   5.457 -0.7254  1.0956 -0.9114
 1021MOL0     H34723   9.983   1.484   5.495 -0.1323  0.7342  0.0556
 1021MOL0     H34724   9.839   1.495   5.595  1.8500  1.1484  0.0753
 1021MOL0     H34725  10.010   1.632   5.303 -0.2497 -1.7621  2.7334
 1021MOL0     H34726   9.934   1.760   5.056 -0.6015 -3.3491 -0.5232
 1021MOL0     H34727   9.859   1.891   5.159  0.6160 -0.3445  0.4561
 1021MOL0     H34728   9.725   1.697   4.977 -0.0247  0.1111  2.8040
 1021MOL0     H34729   9.779   1.851   4.916 -2.5704 -1.2739 -1.9694
 1021MOL0     H34730   9.532   1.853   4.965  1.6070 -0.8861 -3.4705
 1021MOL0     H34731   9.562   1.832   5.134  1.2185 -0.3644  0.1380
 1021MOL0     H34732   9.605   2.077   4.983  1.2295  1.1382  0.5679
 1021MOL0     H34733   9.741   2.038   5.068  0.6640 -2.5635  1.7495
 1021MOL0     H34734   9.360   2.024   5.011 -1.6262 -1.2577  0.2044
 1021MOL0     H34735   9.142   2.085   5.074  0.1237 -2.0908  1.0303
 1021MOL0     H34736   8.822   2.401   5.296 -1.8507  0.7611  2.6354
 1021MOL0     H34737   8.573   2.433   5.295  1.7940  0.0729 -0.2052
 1021MOL0     H34738   8.348   2.391   5.365  0.5418 -0.8348 -0.0467
 1021MOL0     H34739   8.380   2.229   5.438  2.3879 -3.7977 -1.9670
 1021MOL0     H34740   8.165   2.296   5.249  2.6820  2.6696  0.1668
 1021MOL0     H34741   8.145   2.296   5.429 -2.4169  0.1416 -0.7173
 1021MOL0     H34742   8.207   2.058   5.459 -0.2848 -3.9404 -1.3124
 1021MOL0     H34743   8.209   2.041   5.289  4.3288 -0.7658  2.6618
 1021MOL0     H34744   8.013   1.957   5.423  0.8284  2.2240  3.4703
 1021MOL0     H34745   7.953   2.109   5.443  0.8062 -0.7263 -0.2267
 1021MOL0     H34746   8.017   1.968   5.167 -4.1762 -2.5517  0.1366
 1021MOL0     H34747   7.962   2.132   5.187 -3.1419 -0.5254 -2.6238
 1021MOL0     H34748   7.762   2.058   5.311  0.8020  1.5685 -0.7681
 1021MOL0     H34749   7.819   1.892   5.317  0.2726  0.2508  0.6148
 1021MOL0     H34750   7.787   2.036   5.057  1.1499  0.1212  1.3896
 1021MOL0     H34751   7.810   1.868   5.081 -3.9094 -1.2557 -3.0759
 1021MOL0     H34752   7.547   2.000   5.171 -0.5350  1.2982 -0.1502
 1021MOL0     H34753   7.586   1.829   5.189 -0.2693  0.0778  0.3058
 1021MOL0     H34754   8.549   2.026   5.184  3.0487 -1.5352 -1.2927
 1021MOL0     H34755   8.781   2.009   5.157  0.3121  1.1593 -2.0437
 1021MOL0     H34756   9.273   2.250   5.449 -0.7781 -1.1884  0.5896
 1021MOL0     H34757   9.514   2.163   5.406  0.2280  1.3038 -0.0743
 1021MOL0     H34758   9.996   0.997   6.193  2.0407  0.8033  0.6001
 1021MOL0     H34759   9.984   0.903   6.428 -0.7603 -2.3343  0.6144
 1021MOL0     H34760   9.852   0.333   6.669 -2.4994  2.0204  1.5403
 1021MOL0     H34761   9.937   0.231   6.871  0.3093 -0.1883  2.4392
 1021MOL0     H34762  10.020   0.181   7.071  0.3036  0.4624 -2.0443
 1021MOL0     H34763   9.930   0.314   7.128 -1.2360 -2.4739 -1.5490
 1021MOL0     H34764  10.131   0.149   7.246 -0.4441 -0.8238  1.4603
 1021MOL0     H34765  10.188   0.318   7.261  0.6916 -0.1590 -2.8538
 1021MOL0     H34766  10.110   0.222   7.457 -2.2945 -2.1181  1.9804
 1021MOL0     H34767   9.942   0.196   7.395 -0.4625  0.4364  0.8146
 1021MOL0     H34768   9.965   0.462   7.361 -0.6427 -0.4808  0.2832
 1021MOL0     H34769   9.935   0.390   7.519 -1.3515 -2.0806 -1.2953
 1021MOL0     H34770  10.317   0.557   7.570  0.8796  2.0799 -3.2284
 1021MOL0     H34771  10.227   0.540   6.906  0.6663 -2.2212  2.3773
 1021MOL0     H34772  10.137   0.651   6.703  0.1851 -0.8612 -1.1023
 1022MOL0     O34773   0.629   6.938   6.867  1.0169  0.8728 -0.6891
 1022MOL0     C34774   0.595   6.930   6.748 -0.7068  0.1761  0.0456
 1022MOL0     O34775   0.627   6.822   6.668  0.5952  0.0878  0.4599
 1022MOL0     C34776   0.665   6.700   6.722 -0.0682  0.4637 -0.0258
 1022MOL0     C34777   0.586   6.636   6.825 -0.3753 -0.5976  0.0040
 1022MOL0     C34778   0.622   6.509   6.871 -0.0852  0.4129 -0.9357
 1022MOL0     C34779   0.722   6.443   6.812 -0.2259  0.2839  0.4019
 1022MOL0     O34780   0.758   6.309   6.848 -0.4713 -0.1787  0.1775
 1022MOL0     C34781   0.675   6.223   6.769  0.7316 -0.4304 -0.5911
 1022MOL0     C34782   0.715   6.075   6.801 -0.1842 -0.8432  1.2801
 1022MOL0     C34783   0.861   6.046   6.819  0.7753 -0.2798  0.1991
 1022MOL0     C34784   0.881   5.900   6.868 -0.1141  0.3540  0.6617
 1022MOL0     C34785   0.862   5.872   7.014  0.1385 -0.2812  0.2276
 1022MOL0     C34786   0.930   5.750   7.074  0.1075 -0.7584 -0.9623
 1022MOL0     C34787   0.873   5.711   7.214 -0.2427  0.4713  0.0220
 1022MOL0     C34788   0.950   5.590   7.280  0.4898 -1.2570  0.1006
 1022MOL0     N34789   0.916   5.458   7.214  0.1223 -0.6128 -0.6126
 1022MOL0     C34790   0.791   5.403   7.197 -1.0005 -0.3623  0.2572
 1022MOL0     C34791   0.816   5.277   7.157  0.6472  0.0398  0.0794
 1022MOL0     C34792   0.714   5.166   7.133  0.8858  0.1297 -1.1959
 1022MOL0     C34793   0.630   5.201   7.014  0.3137  0.4163  0.3784
 1022MOL0     C34794   0.488   5.246   7.059 -0.8381 -0.2676  0.3338
 1022MOL0     C34795   0.399   5.274   6.937  0.3595  0.8339  0.3709
 1022MOL0     O34796   0.278   5.331   6.989  0.2217 -0.1956  0.2557
 1022MOL0     C34797   0.172   5.350   6.912  0.2398 -0.0973 -0.4449
 1022MOL0     C34798   0.154   5.346   6.777 -0.3656  0.4109 -0.0253
 1022MOL0     C34799   0.033   5.386   6.719  0.4064  0.0592  0.4758
 1022MOL0     C34800  -0.068   5.434   6.802 -0.1304 -0.0521  0.6527
 1022MOL0     C34801  -0.194   5.483   6.737 -0.1146 -0.1866 -1.2754
 1022MOL0     O34802  -0.284   5.528   6.825  1.0403  0.5385  0.4512
 1022MOL0     C34803  -0.389   5.611   6.787  0.1426 -0.0780  0.6029
 1022MOL0     C34804  -0.385   5.700   6.674  0.2387  0.3357 -0.2410
 1022MOL0     C34805  -0.497   5.783   6.635  0.3625  0.3707 -0.5867
 1022MOL0     C34806  -0.609   5.769   6.719  0.2389 -0.5288  0.1469
 1022MOL0     O34807  -0.726   5.831   6.692  0.6477  0.6111 -0.0878
 1022MOL0     C34808  -0.738   5.967   6.748  0.8483  0.0295 -0.1237
 1022MOL0     C34809  -0.875   6.025   6.694  0.4305 -0.1561  0.3939
 1022MOL0     C34810  -0.875   6.172   6.664  0.9764 -0.5760 -0.0812
 1022MOL0     C34811  -1.019   6.217   6.654  0.1831  0.0973  0.4108
 1022MOL0     C34812  -1.033   6.316   6.547 -0.5238 -0.2061  0.3499
 1022MOL0     C34813  -1.172   6.372   6.557 -0.2171  0.4318  0.0117
 1022MOL0     C34814  -1.195   6.501   6.480 -0.8517 -0.3605  0.2581
 1022MOL0     C34815  -1.338   6.549   6.487  0.1847 -0.3931 -0.0669
 1022MOL0    Cl34816  -1.361   6.682   6.380 -0.0488  0.1119 -0.0786
 1022MOL0     C34817  -0.615   5.678   6.827 -0.3239 -0.8529 -0.9821
 1022MOL0     C34818  -0.505   5.595   6.859  0.3848 -0.6216  0.5662
 1022MOL0     O34819  -0.204   5.494   6.617  0.3809  0.2381 -0.1274
 1022MOL0     C34820  -0.054   5.424   6.940  0.1928  0.8083 -0.6397
 1022MOL0     C34821   0.068   5.387   6.994  0.3964 -0.0034 -0.8019
 1022MOL0     N34822   0.952   5.262   7.148 -0.3647 -0.3222  0.1744
 1022MOL0     N34823   1.016   5.371   7.176  0.0163 -1.2780  0.1364
 1022MOL0     C34824   0.794   6.499   6.698  0.5743  0.4274 -0.2666
 1022MOL0     C34825   0.767   6.626   6.662  0.3167  0.5384  0.6607
 1022MOL0     C34826   0.490   7.023   6.706 -0.9076 -0.6946  0.9741
 1022MOL0     C34827   0.406   7.010   6.592 -0.2955 -0.2947 -0.6232
 1022MOL0     C34828   0.285   7.083   6.563 -0.8211  0.4238 -0.3588
 1022MOL0     C34829   0.259   7.196   6.642  0.3766 -1.1740 -0.1533
 1022MOL0     O34830   0.160   7.283   6.629  0.4592 -0.2424  0.3421
 1022MOL0     C34831   0.071   7.278   6.508 -0.3893  0.8945 -1.0570
 1022MOL0     C34832  -0.004   7.410   6.493  0.2614 -0.3800 -0.4394
 1022MOL0     C34833   0.075   7.538   6.467 -0.6754  0.7046 -0.6013
 1022MOL0     C34834  -0.023   7.641   6.422 -0.7973  1.4439  0.2441
 1022MOL0     C34835  -0.084   7.696   6.546  0.2451 -0.6884 -0.5487
 1022MOL0     C34836  -0.150   7.746   6.638  0.3134 -0.8332  0.1580
 1022MOL0     C34837   0.345   7.220   6.754  0.6950  1.0414 -0.3973
 1022MOL0     C34838   0.460   7.144   6.780  0.4298  0.9157 -0.1593
 1022MOL0     H34839   0.507   6.685   6.881 -0.5383  1.1615 -1.6769
 1022MOL0     H34840   0.572   6.461   6.955 -0.1894  1.0560 -0.6232
 1022MOL0     H34841   0.689   6.254   6.665 -1.0948  1.7190 -0.2732
 1022MOL0     H34842   0.568   6.243   6.776  0.8400  0.1526 -0.5893
 1022MOL0     H34843   0.662   6.018   6.724  1.1484 -0.8384  0.3333
 1022MOL0     H34844   0.674   6.047   6.898 -1.8843 -1.3311  0.4668
 1022MOL0     H34845   0.894   6.115   6.897  0.0610 -1.4845  1.6274
 1022MOL0     H34846   0.918   6.061   6.727 -2.6532  0.4910 -2.0062
 1022MOL0     H34847   0.832   5.824   6.808  1.4598 -0.0075 -0.2274
 1022MOL0     H34848   0.988   5.884   6.851 -0.3642  0.0443 -0.8022
 1022MOL0     H34849   0.755   5.849   7.021 -0.4719  2.2080  0.3784
 1022MOL0     H34850   0.885   5.956   7.080 -0.0166 -0.4090  0.4445
 1022MOL0     H34851   1.037   5.769   7.071  0.3121 -1.7560 -0.3062
 1022MOL0     H34852   0.909   5.662   7.012 -0.6520 -1.4901  0.2928
 1022MOL0     H34853   0.877   5.803   7.274 -0.1889  0.4008  0.1262
 1022MOL0     H34854   0.766   5.691   7.198  0.2783 -2.9920  0.1928
 1022MOL0     H34855   0.921   5.582   7.386  0.4700 -3.2913 -0.0146
 1022MOL0     H34856   1.058   5.605   7.276  0.6285 -1.4853  1.8406
 1022MOL0     H34857   0.696   5.448   7.226  0.3482  2.6100  0.4187
 1022MOL0     H34858   0.647   5.147   7.218 -0.0994 -0.9224 -2.1709
 1022MOL0     H34859   0.762   5.070   7.111 -0.3973 -1.2099  1.3552
 1022MOL0     H34860   0.618   5.109   6.956  0.4806  0.5891  0.0622
 1022MOL0     H34861   0.679   5.276   6.950  3.2386  0.6606  2.6906
 1022MOL0     H34862   0.445   5.174   7.130  1.6230 -0.3801  1.8127
 1022MOL0     H34863   0.502   5.345   7.102 -1.7981  0.8271 -1.7185
 1022MOL0     H34864   0.380   5.179   6.886  2.8121 -0.7324  2.1678
 1022MOL0     H34865   0.447   5.354   6.879  0.4404  1.2425  0.9989
 1022MOL0     H34866   0.241   5.309   6.723 -0.5648 -1.5823  0.9294
 1022MOL0     H34867   0.015   5.379   6.613 -1.1360  2.2308  0.5290
 1022MOL0     H34868  -0.294   5.720   6.618 -1.5927  5.3234 -2.0662
 1022MOL0     H34869  -0.488   5.854   6.552 -0.5887  4.1020  2.2152
 1022MOL0     H34870  -0.658   6.032   6.711  0.9828 -0.0367  0.0476
 1022MOL0     H34871  -0.736   5.983   6.856 -1.3101 -0.2515 -0.0025
 1022MOL0     H34872  -0.948   5.996   6.770  0.9637  2.8411  2.2232
 1022MOL0     H34873  -0.890   5.966   6.603 -1.3984 -3.0358  2.3929
 1022MOL0     H34874  -0.812   6.186   6.576  0.4798 -2.9439 -0.8943
 1022MOL0     H34875  -0.822   6.237   6.734  2.6708  2.6057 -3.9436
 1022MOL0     H34876  -1.085   6.137   6.620 -0.3063  1.6742 -2.7746
 1022MOL0     H34877  -1.055   6.254   6.750  1.2536  0.1310  0.8080
 1022MOL0     H34878  -1.019   6.263   6.453  0.7355 -1.0747  1.0037
 1022MOL0     H34879  -0.968   6.404   6.554 -3.6878  2.4575 -0.8131
 1022MOL0     H34880  -1.184   6.391   6.664 -0.8358 -2.4721  0.5337
 1022MOL0     H34881  -1.245   6.300   6.518 -0.2614 -1.3136  3.0142
 1022MOL0     H34882  -1.121   6.577   6.507 -0.1535 -0.2966 -1.6422
 1022MOL0     H34883  -1.167   6.483   6.376  3.9924 -0.2200  1.2821
 1022MOL0     H34884  -1.360   6.579   6.590 -1.8440  1.2750 -0.9057
 1022MOL0     H34885  -1.412   6.476   6.453 -0.4526 -0.3714  1.1995
 1022MOL0     H34886  -0.711   5.671   6.876 -1.3298 -3.4199 -3.0532
 1022MOL0     H34887  -0.514   5.529   6.944 -0.9834 -2.2339 -0.7698
 1022MOL0     H34888  -0.135   5.465   6.999  0.5788 -3.4576  3.4955
 1022MOL0     H34889   0.077   5.375   7.101 -1.4576 -5.6128 -0.9597
 1022MOL0     H34890   0.875   6.443   6.653  0.4878  0.4723 -0.4780
 1022MOL0     H34891   0.809   6.688   6.584 -1.2070 -0.1754 -0.7761
 1022MOL0     H34892   0.435   6.930   6.525  0.1816  1.2200 -2.3046
 1022MOL0     H34893   0.228   7.072   6.471 -1.7382  1.0685  0.1207
 1022MOL0     H34894   0.005   7.192   6.524  1.1369  0.1957  2.1690
 1022MOL0     H34895   0.137   7.264   6.422  0.4685 -0.4172 -0.2200
 1022MOL0     H34896  -0.076   7.399   6.412 -0.0877 -0.0479 -0.1790
 1022MOL0     H34897  -0.064   7.416   6.584 -0.8513 -0.0674 -1.1870
 1022MOL0     H34898   0.154   7.522   6.392 -1.6970 -3.5504 -1.0387
 1022MOL0     H34899   0.135   7.563   6.555 -1.9177  1.2499  0.1068
 1022MOL0     H34900   0.038   7.721   6.379  0.0569  0.4011 -0.5260
 1022MOL0     H34901  -0.090   7.602   6.346  2.6643 -2.5029 -1.1579
 1022MOL0     H34902  -0.204   7.797   6.714  0.4225 -1.9792  1.0342
 1022MOL0     H34903   0.322   7.309   6.812  0.3310  1.3243 -0.9707
 1022MOL0     H34904   0.523   7.171   6.864  2.1760 -2.1473 -0.3138
 1023MOL0     O34905   0.683   1.464   5.776  0.2239  0.2954  0.5612
 1023MOL0     C34906   0.744   1.473   5.882 -0.0284  0.3349 -0.2408
 1023MOL0     O34907   0.721   1.405   5.992 -0.5188 -0.3426 -0.2430
 1023MOL0     C34908   0.618   1.312   5.995  0.9717 -0.3117  0.7842
 1023MOL0     C34909   0.638   1.178   5.968 -0.6998  0.6862 -0.4463
 1023MOL0     C34910   0.538   1.089   5.990 -0.3500  0.2099  0.2869
 1023MOL0     C34911   0.410   1.129   6.033 -0.1209  0.0748  0.0796
 1023MOL0     O34912   0.312   1.031   6.041 -0.7055  0.0847 -0.4005
 1023MOL0     C34913   0.218   1.052   6.147  0.0366  0.6777 -0.2693
 1023MOL0     C34914   0.128   0.927   6.165 -0.3620 -0.2380 -0.4142
 1023MOL0     C34915   0.088   0.903   6.307 -0.3788  0.0012  0.1310
 1023MOL0     C34916  -0.014   0.789   6.328  0.7280  0.0520 -0.4849
 1023MOL0     C34917  -0.074   0.806   6.468 -0.2881  0.5730 -0.4328
 1023MOL0     C34918   0.014   0.815   6.594  0.8828 -0.1154  0.0380
 1023MOL0     C34919  -0.072   0.838   6.723  0.9843  0.5777  1.3935
 1023MOL0     C34920   0.017   0.875   6.849  0.2802  0.1481  0.1198
 1023MOL0     N34921  -0.070   0.854   6.965  0.0660  0.9159  0.4419
 1023MOL0     C34922  -0.075   0.738   7.033  0.0622 -0.2545  0.6898
 1023MOL0     C34923  -0.193   0.732   7.102 -0.7851 -0.3200 -0.3885
 1023MOL0     C34924  -0.242   0.634   7.206  0.4794  0.0176  0.9423
 1023MOL0     C34925  -0.232   0.499   7.144 -0.6105  0.6465  1.0282
 1023MOL0     C34926  -0.312   0.393   7.229 -0.5134 -0.3802 -0.0829
 1023MOL0     C34927  -0.293   0.253   7.181  0.5554 -0.2354 -0.3156
 1023MOL0     O34928  -0.364   0.143   7.247  0.2939 -0.8981  0.4309
 1023MOL0     C34929  -0.336   0.120   7.376  0.0425 -0.1522 -1.3050
 1023MOL0     C34930  -0.211   0.120   7.442 -0.0257  0.1634  0.9868
 1023MOL0     C34931  -0.205   0.095   7.585  0.5560 -0.2190  0.2285
 1023MOL0     C34932  -0.319   0.072   7.655  0.4482 -0.5696 -0.1467
 1023MOL0     C34933  -0.315   0.027   7.797  0.8215  0.0866 -0.4067
 1023MOL0     O34934  -0.197   0.001   7.852  0.0335 -0.0494 -0.3944
 1023MOL0     C34935  -0.172  -0.029   7.987 -0.1843  0.4236  0.3568
 1023MOL0     C34936  -0.067  -0.108   8.032  0.7607  0.1430  0.0924
 1023MOL0     C34937  -0.042  -0.118   8.172  0.7230 -0.5351 -0.4334
 1023MOL0     C34938  -0.128  -0.056   8.270  0.5277  0.5434  0.0272
 1023MOL0     O34939  -0.115  -0.070   8.406  1.0622  0.5157 -0.4907
 1023MOL0     C34940  -0.040  -0.189   8.442 -0.6627  0.5716 -0.8063
 1023MOL0     C34941  -0.066  -0.220   8.595 -0.8805  0.3781  1.1247
 1023MOL0     C34942  -0.022  -0.363   8.631 -0.3880  0.3617 -0.9516
 1023MOL0     C34943  -0.033  -0.394   8.782 -0.3049  0.0701  0.2775
 1023MOL0     C34944   0.079  -0.504   8.836 -0.0785 -0.4535  0.3041
 1023MOL0     C34945   0.093  -0.643   8.769 -0.1456  0.1159 -0.1077
 1023MOL0     C34946   0.154  -0.657   8.632 -0.1375  0.6720  0.8935
 1023MOL0     C34947   0.287  -0.610   8.623 -0.3092  0.6982  0.5997
 1023MOL0    Cl34948   0.350  -0.618   8.452  0.0785  0.3176 -0.3157
 1023MOL0     C34949  -0.232   0.016   8.221 -0.3466 -0.0567 -0.0369
 1023MOL0     C34950  -0.250   0.028   8.086 -0.7683 -0.3686 -0.1184
 1023MOL0     O34951  -0.429   0.005   7.851  0.5393  0.0146  0.4646
 1023MOL0     C34952  -0.447   0.075   7.590 -0.4400 -0.3482  0.6700
 1023MOL0     C34953  -0.448   0.103   7.453  0.3472 -0.1554  0.3527
 1023MOL0     N34954  -0.247   0.854   7.082  0.4075 -1.0193 -0.9644
 1023MOL0     N34955  -0.170   0.922   7.009  0.9063 -0.0810 -0.1160
 1023MOL0     C34956   0.386   1.263   6.058  0.2655 -0.5748  0.3678
 1023MOL0     C34957   0.491   1.358   6.039  1.5064  0.3879 -0.4977
 1023MOL0     C34958   0.856   1.574   5.893 -0.4719 -0.1172 -0.1188
 1023MOL0     C34959   0.923   1.594   6.018 -0.5544  0.4615 -0.8933
 1023MOL0     C34960   1.045   1.662   6.021 -0.1305  0.9314  0.6543
 1023MOL0     C34961   1.086   1.734   5.907  0.5121 -1.2690  0.5512
 1023MOL0     O34962   1.208   1.790   5.877  0.1190 -0.4238  0.0002
 1023MOL0     C34963   1.326   1.757   5.953 -0.2885  0.2290 -0.2742
 1023MOL0     C34964   1.373   1.840   6.070  0.2468  0.0578  0.2503
 1023MOL0     C34965   1.428   1.979   6.017 -0.1835  0.4829 -0.1445
 1023MOL0     C34966   1.416   2.089   6.122  0.2643  0.1820 -0.0599
 1023MOL0     C34967   1.445   2.219   6.062  0.1092  0.2915  0.1588
 1023MOL0     C34968   1.471   2.323   6.018 -0.4373 -0.0250 -0.5421
 1023MOL0     C34969   0.989   1.745   5.801 -0.4040  1.0726  1.0204
 1023MOL0     C34970   0.878   1.670   5.788 -1.1166  0.8343  0.6243
 1023MOL0     H34971   0.740   1.157   5.938  1.4127  2.0119  4.6303
 1023MOL0     H34972   0.560   0.985   5.969  1.7646  0.8649 -0.9704
 1023MOL0     H34973   0.158   1.138   6.116  1.2104  1.3406 -0.7813
 1023MOL0     H34974   0.257   1.088   6.243 -0.5800  1.1443 -0.1942
 1023MOL0     H34975   0.192   0.844   6.135 -0.9335 -0.1668 -1.9476
 1023MOL0     H34976   0.054   0.928   6.084  1.6115 -0.2257 -2.2987
 1023MOL0     H34977   0.054   0.994   6.358 -0.8088  0.4927 -1.0129
 1023MOL0     H34978   0.178   0.870   6.360  0.0018 -2.3484 -1.8309
 1023MOL0     H34979  -0.100   0.787   6.261 -1.1089  0.6374  1.7358
 1023MOL0     H34980   0.036   0.695   6.303  4.8862  1.9260 -0.2019
 1023MOL0     H34981  -0.140   0.720   6.485  2.2186 -1.5212 -0.6626
 1023MOL0     H34982  -0.131   0.899   6.464 -0.4544  0.4456 -1.8554
 1023MOL0     H34983   0.087   0.896   6.589  1.8728 -0.6587  3.1802
 1023MOL0     H34984   0.075   0.724   6.607  3.9892  1.7846 -0.1698
 1023MOL0     H34985  -0.147   0.912   6.692  0.0489 -1.3840 -1.3606
 1023MOL0     H34986  -0.115   0.738   6.734 -0.8403  1.1754  0.1677
 1023MOL0     H34987   0.043   0.980   6.833 -1.8363  0.4270 -2.2308
 1023MOL0     H34988   0.107   0.817   6.868  0.0302 -1.1513 -2.3331
 1023MOL0     H34989  -0.002   0.658   7.036 -2.7848 -3.0908 -0.6453
 1023MOL0     H34990  -0.347   0.664   7.221  0.5146  0.0348  1.1600
 1023MOL0     H34991  -0.180   0.647   7.295  1.7298 -1.7376  0.3832
 1023MOL0     H34992  -0.129   0.464   7.145 -0.6801  0.1418 -1.6196
 1023MOL0     H34993  -0.274   0.507   7.043  0.5809 -0.5923  0.4145
 1023MOL0     H34994  -0.288   0.396   7.336  1.5017  0.4800 -0.5124
 1023MOL0     H34995  -0.419   0.411   7.216 -0.4533 -1.5905 -3.2884
 1023MOL0     H34996  -0.187   0.236   7.202  0.4587 -0.6405 -0.1537
 1023MOL0     H34997  -0.310   0.264   7.074  2.0631 -2.6922 -0.8746
 1023MOL0     H34998  -0.121   0.128   7.382 -1.6109 -0.0415 -1.5280
 1023MOL0     H34999  -0.105   0.102   7.626  0.4428 -1.5352  0.7750
 1023MOL0     H35000   0.003  -0.153   7.962 -1.0374 -1.3744 -0.8074
 1023MOL0     H35001   0.047  -0.177   8.188  0.0821 -1.8584 -1.5231
 1023MOL0     H35002   0.069  -0.181   8.431 -0.3116 -0.7263  1.0756
 1023MOL0     H35003  -0.081  -0.277   8.391  0.1128 -1.3194  1.6243
 1023MOL0     H35004  -0.173  -0.216   8.615 -1.9091 -0.3259 -3.1974
 1023MOL0     H35005  -0.007  -0.143   8.645 -1.5521  1.7063 -0.0773
 1023MOL0     H35006   0.083  -0.372   8.605  0.3089  4.0050  0.1153
 1023MOL0     H35007  -0.084  -0.433   8.574  0.4557  0.9073 -2.5849
 1023MOL0     H35008  -0.020  -0.305   8.843  0.0150  0.0914  0.1801
 1023MOL0     H35009  -0.132  -0.435   8.806  0.2039  0.3138  3.0695
 1023MOL0     H35010   0.063  -0.517   8.943  0.6555  0.0869  0.4905
 1023MOL0     H35011   0.174  -0.449   8.839 -0.4826  0.2036  1.4723
 1023MOL0     H35012  -0.005  -0.691   8.775  0.9016 -2.0179  1.4369
 1023MOL0     H35013   0.156  -0.697   8.841 -2.0075  2.8244  3.9583
 1023MOL0     H35014   0.161  -0.763   8.607  1.0836  0.5895  1.5071
 1023MOL0     H35015   0.087  -0.600   8.566  1.8782  1.9742 -0.1382
 1023MOL0     H35016   0.361  -0.648   8.693  0.7347  2.5011  0.5274
 1023MOL0     H35017   0.308  -0.505   8.647  2.0181  0.8423 -1.6223
 1023MOL0     H35018  -0.307   0.041   8.295 -0.0318  0.0928  0.2351
 1023MOL0     H35019  -0.331   0.093   8.053  1.2763  2.4282  0.0066
 1023MOL0     H35020  -0.537   0.051   7.646  0.1924 -2.1921  0.9498
 1023MOL0     H35021  -0.539   0.120   7.397  0.2925  4.6572  1.5239
 1023MOL0     H35022   0.281   1.289   6.068 -0.0239 -0.2346 -2.6128
 1023MOL0     H35023   0.475   1.464   6.056  1.2404  0.0476  1.6445
 1023MOL0     H35024   0.913   1.527   6.103  0.6308 -3.0255 -3.2982
 1023MOL0     H35025   1.117   1.646   6.101  1.6765 -1.4696 -1.3038
 1023MOL0     H35026   1.414   1.749   5.888 -1.5802  0.0378 -2.0574
 1023MOL0     H35027   1.318   1.657   5.996 -0.0024 -0.4726 -1.7862
 1023MOL0     H35028   1.295   1.846   6.147  1.0447 -1.8938  1.2684
 1023MOL0     H35029   1.462   1.797   6.117  0.4918  0.4101  0.1143
 1023MOL0     H35030   1.372   1.999   5.925 -3.8493 -1.2909  1.4753
 1023MOL0     H35031   1.534   1.957   6.004  1.1978  2.8319  4.5999
 1023MOL0     H35032   1.314   2.088   6.162  0.0644 -0.9794 -0.5583
 1023MOL0     H35033   1.484   2.067   6.205  1.0321  0.0294 -0.7112
 1023MOL0     H35034   1.479   2.419   5.970 -3.5670  0.8216  0.4192
 1023MOL0     H35035   1.008   1.822   5.727  4.0503  0.0883  0.8872
 1023MOL0     H35036   0.815   1.672   5.700  1.0094 -1.8468 -1.1419
 1024MOL0     O35037   7.911   5.289   4.155  0.0444  0.2724  0.1200
 1024MOL0     C35038   7.965   5.200   4.088 -0.0430  0.5940 -0.1478
 1024MOL0     O35039   8.073   5.125   4.128 -0.5532  0.2438 -0.3106
 1024MOL0     C35040   8.154   5.171   4.234  0.2506 -0.9055 -0.5361
 1024MOL0     C35041   8.286   5.189   4.222 -1.2024 -0.6701 -0.4788
 1024MOL0     C35042   8.372   5.230   4.327 -0.3870  0.7023 -1.2188
 1024MOL0     C35043   8.307   5.265   4.451 -0.8600  0.3919  0.4020
 1024MOL0     O35044   8.392   5.328   4.539  0.1847  0.6052  0.3040
 1024MOL0     C35045   8.329   5.400   4.652 -0.6351 -0.3485  0.2473
 1024MOL0     C35046   8.450   5.471   4.733  0.2537 -1.3264  0.1485
 1024MOL0     C35047   8.504   5.584   4.640  0.7174  0.1058 -0.4424
 1024MOL0     C35048   8.639   5.641   4.677  0.1137 -1.0016 -0.8210
 1024MOL0     C35049   8.670   5.780   4.603 -0.3940 -0.5863 -1.5463
 1024MOL0     C35050   8.710   5.896   4.708 -0.9429 -0.5090 -0.4552
 1024MOL0     C35051   8.731   6.032   4.648  0.1029  0.5268  0.4964
 1024MOL0     C35052   8.781   6.133   4.751  0.8862  1.1369  0.9952
 1024MOL0     N35053   8.925   6.122   4.748 -0.5811  0.9466  0.0872
 1024MOL0     C35054   9.011   6.191   4.667 -0.5645  0.4656  0.5288
 1024MOL0     C35055   9.130   6.167   4.722 -0.2113  0.7201 -0.5509
 1024MOL0     C35056   9.265   6.219   4.669 -0.0304  0.2188 -0.8268
 1024MOL0     C35057   9.298   6.363   4.722  0.2885  0.1330  0.4418
 1024MOL0     C35058   9.444   6.400   4.676 -0.6221  0.5998 -0.0710
 1024MOL0     C35059   9.484   6.519   4.768 -0.0134  0.0285  0.3268
 1024MOL0     O35060   9.406   6.636   4.750 -0.2114  0.4167 -0.8098
 1024MOL0     C35061   9.419   6.720   4.645 -0.7637  0.2234 -0.7009
 1024MOL0     C35062   9.508   6.706   4.532  0.6810  0.1185  0.6528
 1024MOL0     C35063   9.506   6.807   4.428 -0.5660  1.2723  0.3487
 1024MOL0     C35064   9.440   6.929   4.434  0.1909  0.0638 -0.5197
 1024MOL0     C35065   9.458   7.034   4.336 -0.3884  0.5884 -0.7084
 1024MOL0     O35066   9.517   7.000   4.220  0.1921 -0.3601  0.3565
 1024MOL0     C35067   9.537   7.101   4.120 -0.0273 -0.4599 -0.5003
 1024MOL0     C35068   9.591   7.232   4.159  0.2101  1.2738 -1.1754
 1024MOL0     C35069   9.618   7.318   4.054 -0.6124 -0.0769 -1.4762
 1024MOL0     C35070   9.590   7.293   3.918  0.8816  0.8969  0.5572
 1024MOL0     O35071   9.612   7.386   3.824 -0.1855  0.2175  0.4070
 1024MOL0     C35072   9.718   7.351   3.742 -0.2497  0.0824  0.5219
 1024MOL0     C35073   9.792   7.466   3.674 -0.1430  0.0956 -0.3415
 1024MOL0     C35074   9.852   7.560   3.774 -0.2113  0.0126 -0.5588
 1024MOL0     C35075   9.908   7.672   3.698  0.4377 -0.0653 -0.5204
 1024MOL0     C35076   9.959   7.775   3.787  0.2450 -0.0527  0.2621
 1024MOL0     C35077  10.034   7.897   3.703  0.5519  0.1889  1.0063
 1024MOL0     C35078  10.049   8.023   3.782  0.2575 -0.3342 -0.3732
 1024MOL0     C35079  10.180   8.107   3.768  0.4831  0.7141  0.5445
 1024MOL0    Cl35080  10.317   8.010   3.812 -0.1099 -0.3115  0.2592
 1024MOL0     C35081   9.536   7.167   3.880 -0.2373 -0.1255  0.1677
 1024MOL0     C35082   9.516   7.071   3.982  0.7750 -0.4050 -0.3217
 1024MOL0     O35083   9.434   7.147   4.374 -1.7205 -0.2211 -0.8945
 1024MOL0     C35084   9.355   6.933   4.541  1.4411 -0.3881  0.0494
 1024MOL0     C35085   9.340   6.838   4.648 -0.0408  0.2261 -0.2323
 1024MOL0     N35086   9.115   6.077   4.833 -1.2051 -1.3000 -0.5057
 1024MOL0     N35087   8.993   6.062   4.851 -0.0069 -0.1143 -0.7641
 1024MOL0     C35088   8.172   5.247   4.467 -0.0358  0.2631 -0.5793
 1024MOL0     C35089   8.092   5.195   4.358 -0.1972  0.3697 -0.1679
 1024MOL0     C35090   7.914   5.171   3.955  0.1365 -0.3060  0.0329
 1024MOL0     C35091   7.797   5.223   3.900  0.7522 -0.3488  0.2393
 1024MOL0     C35092   7.757   5.177   3.770  0.4681  0.6381  0.0520
 1024MOL0     C35093   7.819   5.068   3.709  0.3090 -0.2116 -0.1607
 1024MOL0     O35094   7.777   5.008   3.591 -0.2958  0.1250  0.5853
 1024MOL0     C35095   7.672   5.063   3.510  0.2656  0.0564 -0.0162
 1024MOL0     C35096   7.713   5.196   3.428 -0.0856  0.3392 -0.2021
 1024MOL0     C35097   7.604   5.235   3.333 -0.7987  0.4353  0.0660
 1024MOL0     C35098   7.623   5.188   3.193 -0.1475  0.7680  0.3589
 1024MOL0     C35099   7.512   5.236   3.099 -0.9483  0.4869 -0.4869
 1024MOL0     C35100   7.416   5.272   3.040  0.2926  0.0956  0.6126
 1024MOL0     C35101   7.922   5.000   3.782 -0.5482 -0.2145 -0.6165
 1024MOL0     C35102   7.972   5.058   3.895  0.1736  0.4882 -0.3619
 1024MOL0     H35103   8.338   5.178   4.127 -0.2101 -1.7584  0.1671
 1024MOL0     H35104   8.478   5.242   4.314 -0.6107  3.0239 -1.2847
 1024MOL0     H35105   8.278   5.334   4.723 -0.7745 -0.3913  0.1077
 1024MOL0     H35106   8.261   5.481   4.625  1.3195  2.0505  2.0002
 1024MOL0     H35107   8.526   5.396   4.759  0.0652 -1.5329  0.1109
 1024MOL0     H35108   8.415   5.519   4.824 -1.5203  0.7083 -1.4814
 1024MOL0     H35109   8.426   5.660   4.644 -2.5623 -2.9986  0.0851
 1024MOL0     H35110   8.521   5.550   4.537  3.8097 -0.1226  0.0460
 1024MOL0     H35111   8.615   5.681   4.776 -1.1070 -0.6344 -1.2517
 1024MOL0     H35112   8.709   5.557   4.668  0.7517 -0.6436  0.4559
 1024MOL0     H35113   8.579   5.810   4.551 -1.8020  0.5844  1.3494
 1024MOL0     H35114   8.757   5.765   4.539  2.9264  1.4201  2.0921
 1024MOL0     H35115   8.804   5.867   4.755 -1.9504 -3.5404 -0.0978
 1024MOL0     H35116   8.628   5.909   4.780 -1.8903 -1.2350 -1.3734
 1024MOL0     H35117   8.804   6.014   4.568  1.2110 -0.1080  1.6131
 1024MOL0     H35118   8.643   6.066   4.592  0.4930 -1.1746 -1.2459
 1024MOL0     H35119   8.760   6.103   4.854  0.8285  2.1409  1.2899
 1024MOL0     H35120   8.754   6.237   4.727  1.7746  0.7272 -2.1452
 1024MOL0     H35121   8.994   6.256   4.582  2.1938 -0.0008 -0.4571
 1024MOL0     H35122   9.253   6.225   4.560  2.6231 -3.0015 -1.4376
 1024MOL0     H35123   9.349   6.153   4.693 -0.2015  0.0572 -0.6740
 1024MOL0     H35124   9.289   6.351   4.830 -1.2154  0.3781  0.3598
 1024MOL0     H35125   9.226   6.433   4.680  0.4568  0.8131  1.2565
 1024MOL0     H35126   9.515   6.317   4.690  0.3329  0.1905 -5.4373
 1024MOL0     H35127   9.428   6.421   4.570 -1.0821  0.3705 -0.0474
 1024MOL0     H35128   9.591   6.539   4.759  0.0010  1.6425  2.9971
 1024MOL0     H35129   9.467   6.485   4.870 -0.8868 -0.8543 -0.1007
 1024MOL0     H35130   9.575   6.624   4.513 -0.1354 -0.1548 -1.3654
 1024MOL0     H35131   9.573   6.780   4.346 -0.0298  0.7986  0.9337
 1024MOL0     H35132   9.629   7.250   4.259  0.0271 -3.1382 -0.1326
 1024MOL0     H35133   9.645   7.422   4.070  0.1077 -0.2002 -1.8394
 1024MOL0     H35134   9.680   7.291   3.659 -1.4668 -1.4087  2.0824
 1024MOL0     H35135   9.792   7.287   3.790 -0.3046 -1.8295 -1.7813
 1024MOL0     H35136   9.718   7.521   3.614 -1.6806 -3.0939 -1.6201
 1024MOL0     H35137   9.874   7.426   3.614  2.3402  0.6066  2.4769
 1024MOL0     H35138   9.930   7.514   3.836 -0.6015 -1.0515 -0.8391
 1024MOL0     H35139   9.768   7.592   3.837 -0.7417  0.0407 -1.2707
 1024MOL0     H35140   9.996   7.631   3.647  0.1891  2.2789 -2.9903
 1024MOL0     H35141   9.825   7.713   3.640  1.3501 -1.2485 -2.7769
 1024MOL0     H35142  10.028   7.722   3.853  2.1069 -0.7696 -2.1030
 1024MOL0     H35143   9.873   7.806   3.846  2.0431  0.6784  2.6575
 1024MOL0     H35144   9.974   7.911   3.613  0.9157 -1.1491  0.5452
 1024MOL0     H35145  10.127   7.861   3.658  0.2150 -0.9577  1.1992
 1024MOL0     H35146   9.969   8.094   3.762 -1.3651 -2.0667 -0.2889
 1024MOL0     H35147  10.031   8.008   3.889  0.7150 -0.1314 -0.2640
 1024MOL0     H35148  10.175   8.190   3.839  0.0043  2.6685 -1.6586
 1024MOL0     H35149  10.169   8.148   3.668  0.3457  2.6610  1.3216
 1024MOL0     H35150   9.511   7.145   3.777 -1.0336 -1.1390  0.5616
 1024MOL0     H35151   9.476   6.975   3.951 -0.1752  0.1189 -0.7564
 1024MOL0     H35152   9.297   7.025   4.548  0.1606 -1.2622  1.6579
 1024MOL0     H35153   9.265   6.853   4.725 -1.8602 -0.9593 -1.6698
 1024MOL0     H35154   8.123   5.283   4.557 -2.0087 -0.0833 -1.4602
 1024MOL0     H35155   7.985   5.177   4.365 -0.1601  0.0505 -0.3513
 1024MOL0     H35156   7.731   5.294   3.949 -2.0803 -1.5309 -1.6122
 1024MOL0     H35157   7.668   5.219   3.723 -0.7761 -1.8241  0.0811
 1024MOL0     H35158   7.590   5.082   3.579  2.1622  2.0382  1.8759
 1024MOL0     H35159   7.633   4.994   3.435 -2.2780  0.8644  0.4900
 1024MOL0     H35160   7.725   5.274   3.504 -3.4007  1.4656 -0.6637
 1024MOL0     H35161   7.811   5.179   3.382  1.3734 -2.2210  3.3812
 1024MOL0     H35162   7.599   5.344   3.335  2.5358  0.7004  0.8385
 1024MOL0     H35163   7.521   5.198   3.394  2.2252 -2.5837  2.7837
 1024MOL0     H35164   7.723   5.212   3.155  0.2426 -1.7180 -0.3692
 1024MOL0     H35165   7.623   5.079   3.195  1.4617  0.7581  1.2733
 1024MOL0     H35166   7.342   5.323   2.982  3.1146  0.2586 -3.2472
 1024MOL0     H35167   7.961   4.907   3.743  0.7088  1.0294 -2.4717
 1024MOL0     H35168   8.047   4.995   3.940 -0.5676 -0.1781 -0.0406
  11.41188  11.41188  11.41188
